<event>
 4    1  0.2533915E-002  0.4119197E+03  0.7818608E-02  0.1039729E+00
          2   -1    0    0  502    0  0.00000000000E+00  0.00000000000E+00  0.24964282217E+04  0.24964282217E+04  0.00000000000E+00 0.  1.
         -2   -1    0    0    0  501 -0.00000000000E+00 -0.00000000000E+00 -0.68199545802E+02  0.68199545802E+02  0.00000000000E+00 0. -1.
    9000007    1    1    2  502    0  0.97267342409E+02  0.14728844060E+02  0.11394383487E+04  0.12116095185E+04  0.40000000000E+03 0.  1.
   -9000007    1    1    2    0  501 -0.97267342409E+02 -0.14728844060E+02  0.12887903272E+04  0.13530182490E+04  0.40000000000E+03 0.  1.
<mgrwt>
<rscale>  2 0.41191974E+03</rscale>
<asrwt>0</asrwt>
<pdfrwt beam="1">  1        2 0.38406581E+00 0.41191974E+03</pdfrwt>
<pdfrwt beam="2">  1       -2 0.10492240E-01 0.41191974E+03</pdfrwt>
<totfact> 0.24066033E+02</totfact>
</mgrwt>
</event>
<event>
 4    1  0.2533915E-002  0.6304041E+03  0.7818608E-02  0.9844261E-01
          2   -1    0    0  502    0  0.00000000000E+00  0.00000000000E+00  0.25407672100E+04  0.25407672100E+04  0.00000000000E+00 0.  1.
         -2   -1    0    0    0  501 -0.00000000000E+00 -0.00000000000E+00 -0.18467685881E+03  0.18467685881E+03  0.00000000000E+00 0. -1.
    9000007    1    1    2  502    0 -0.44876786834E+03  0.18978072911E+03  0.17111539732E+04  0.18235836270E+04  0.40000000000E+03 0.  1.
   -9000007    1    1    2    0  501  0.44876786834E+03 -0.18978072911E+03  0.64493637803E+03  0.90186044181E+03  0.40000000000E+03 0. -1.
<mgrwt>
<rscale>  2 0.63040410E+03</rscale>
<asrwt>0</asrwt>
<pdfrwt beam="1">  1        2 0.39088724E+00 0.63040410E+03</pdfrwt>
<pdfrwt beam="2">  1       -2 0.28411826E-01 0.63040410E+03</pdfrwt>
<totfact> 0.39710030E+01</totfact>
</mgrwt>
</event>
<event>
 4    1  0.2533915E-002  0.4622828E+03  0.7818608E-02  0.1024121E+00
          2   -1    0    0  502    0  0.00000000000E+00  0.00000000000E+00  0.15979501748E+04  0.15979501748E+04  0.00000000000E+00 0. -1.
         -2   -1    0    0    0  501 -0.00000000000E+00 -0.00000000000E+00 -0.19881344314E+03  0.19881344314E+03  0.00000000000E+00 0.  1.
    9000007    1    1    2  502    0  0.18416103120E+03  0.14067723919E+03  0.18558467837E+03  0.49814359765E+03  0.40000000000E+03 0.  1.
   -9000007    1    1    2    0  501 -0.18416103120E+03 -0.14067723919E+03  0.12135520532E+04  0.12986200202E+04  0.40000000000E+03 0. -1.
<mgrwt>
<rscale>  2 0.46228278E+03</rscale>
<asrwt>0</asrwt>
<pdfrwt beam="1">  1        2 0.24583848E+00 0.46228278E+03</pdfrwt>
<pdfrwt beam="2">  1       -2 0.30586685E-01 0.46228278E+03</pdfrwt>
<totfact> 0.11641116E+02</totfact>
</mgrwt>
</event>
<event>
 4    1  0.2533915E-002  0.9567322E+03  0.7818608E-02  0.9357316E-01
          1   -1    0    0  502    0  0.00000000000E+00  0.00000000000E+00  0.12849500849E+04  0.12849500849E+04  0.00000000000E+00 0.  1.
         -1   -1    0    0    0  501 -0.00000000000E+00 -0.00000000000E+00 -0.77887507603E+03  0.77887507603E+03  0.00000000000E+00 0. -1.
    9000007    1    1    2  502    0  0.61678979316E+03 -0.61229643882E+03  0.55461271178E+03  0.11058624860E+04  0.40000000000E+03 0.  1.
   -9000007    1    1    2    0  501 -0.61678979316E+03  0.61229643882E+03 -0.48537702884E+02  0.95796267492E+03  0.40000000000E+03 0. -1.
<mgrwt>
<rscale>  2 0.95673224E+03</rscale>
<asrwt>0</asrwt>
<pdfrwt beam="1">  1        1 0.19768463E+00 0.95673224E+03</pdfrwt>
<pdfrwt beam="2">  1       -1 0.11982693E+00 0.95673224E+03</pdfrwt>
<totfact> 0.58130943E+00</totfact>
</mgrwt>
</event>
<event>
 4    1  0.2533915E-002  0.4517252E+03  0.7818608E-02  0.1027209E+00
         -2   -1    0    0    0  501 -0.00000000000E+00  0.00000000000E+00  0.22013691203E+03  0.22013691203E+03  0.00000000000E+00 0.  1.
          2   -1    0    0  502    0  0.00000000000E+00 -0.00000000000E+00 -0.97038815168E+03  0.97038815168E+03  0.00000000000E+00 0. -1.
    9000007    1    1    2  502    0 -0.16722611418E+03 -0.12685075670E+03 -0.50106934488E+03  0.67463039964E+03  0.40000000000E+03 0. -1.
   -9000007    1    1    2    0  501  0.16722611418E+03  0.12685075670E+03 -0.24918189477E+03  0.51589466407E+03  0.40000000000E+03 0. -1.
<mgrwt>
<rscale>  2 0.45172523E+03</rscale>
<asrwt>0</asrwt>
<pdfrwt beam="1">  1        2 0.14929048E+00 0.45172523E+03</pdfrwt>
<pdfrwt beam="2">  1       -2 0.33867218E-01 0.45172523E+03</pdfrwt>
<totfact> 0.22140062E+02</totfact>
</mgrwt>
</event>
<event>
 4    1  0.2533915E-002  0.5067519E+03  0.7818608E-02  0.1012031E+00
         -1   -1    0    0    0  501 -0.00000000000E+00  0.00000000000E+00  0.97662667986E+02  0.97662667986E+02  0.00000000000E+00 0. -1.
          1   -1    0    0  502    0  0.00000000000E+00 -0.00000000000E+00 -0.26296234241E+04  0.26296234241E+04  0.00000000000E+00 0.  1.
    9000007    1    1    2  502    0  0.30002536671E+03  0.82354602500E+02 -0.12775660987E+04  0.13743990097E+04  0.40000000000E+03 0. -1.
   -9000007    1    1    2    0  501 -0.30002536671E+03 -0.82354602500E+02 -0.12543946574E+04  0.13528870824E+04  0.40000000000E+03 0.  1.
<mgrwt>
<rscale>  2 0.50675191E+03</rscale>
<asrwt>0</asrwt>
<pdfrwt beam="1">  1        1 0.40455747E+00 0.50675191E+03</pdfrwt>
<pdfrwt beam="2">  1       -1 0.15025025E-01 0.50675191E+03</pdfrwt>
<totfact> 0.39280334E+01</totfact>
</mgrwt>
</event>
<event>
 4    1  0.2533915E-002  0.6088802E+03  0.7818608E-02  0.9887152E-01
         -2   -1    0    0    0  501 -0.00000000000E+00  0.00000000000E+00  0.23604457605E+03  0.23604457605E+03  0.00000000000E+00 0.  1.
          2   -1    0    0  502    0  0.00000000000E+00 -0.00000000000E+00 -0.21783240861E+04  0.21783240861E+04  0.00000000000E+00 0. -1.
    9000007    1    1    2  502    0  0.89049789843E+02  0.45033905928E+03 -0.16087572662E+04  0.17201264706E+04  0.40000000000E+03 0.  1.
   -9000007    1    1    2    0  501 -0.89049789843E+02 -0.45033905928E+03 -0.33352224390E+03  0.69424219157E+03  0.40000000000E+03 0. -1.
<mgrwt>
<rscale>  2 0.60888023E+03</rscale>
<asrwt>0</asrwt>
<pdfrwt beam="1">  1        2 0.33512679E+00 0.60888023E+03</pdfrwt>
<pdfrwt beam="2">  1       -2 0.36314549E-01 0.60888023E+03</pdfrwt>
<totfact> 0.40025717E+01</totfact>
</mgrwt>
</event>
<event>
 4    1  0.2533915E-002  0.4222019E+03  0.7818608E-02  0.1036352E+00
         -2   -1    0    0    0  501 -0.00000000000E+00  0.00000000000E+00  0.20737739332E+03  0.20737739332E+03  0.00000000000E+00 0.  1.
          2   -1    0    0  502    0  0.00000000000E+00 -0.00000000000E+00 -0.90601280010E+03  0.90601280010E+03  0.00000000000E+00 0. -1.
    9000007    1    1    2  502    0 -0.90115851933E+02  0.10066553054E+03 -0.47536435116E+03  0.63578745046E+03  0.40000000000E+03 0. -1.
   -9000007    1    1    2    0  501  0.90115851933E+02 -0.10066553054E+03 -0.22327105561E+03  0.47760274296E+03  0.40000000000E+03 0.  1.
<mgrwt>
<rscale>  2 0.42220187E+03</rscale>
<asrwt>0</asrwt>
<pdfrwt beam="1">  1        2 0.13938658E+00 0.42220187E+03</pdfrwt>
<pdfrwt beam="2">  1       -2 0.31904215E-01 0.42220187E+03</pdfrwt>
<totfact> 0.27310113E+02</totfact>
</mgrwt>
</event>
<event>
 4    1  0.2533915E-002  0.4106505E+03  0.7818608E-02  0.1040153E+00
          1   -1    0    0  502    0  0.00000000000E+00  0.00000000000E+00  0.82517547539E+03  0.82517547539E+03  0.00000000000E+00 0.  1.
         -1   -1    0    0    0  501 -0.00000000000E+00 -0.00000000000E+00 -0.20548597493E+03  0.20548597493E+03  0.00000000000E+00 0. -1.
    9000007    1    1    2  502    0  0.70701259598E+02 -0.60292634839E+02  0.27171858008E+03  0.49240720617E+03  0.40000000000E+03 0.  1.
   -9000007    1    1    2    0  501 -0.70701259598E+02  0.60292634839E+02  0.34797092038E+03  0.53825424416E+03  0.40000000000E+03 0.  1.
<mgrwt>
<rscale>  2 0.41065054E+03</rscale>
<asrwt>0</asrwt>
<pdfrwt beam="1">  1        1 0.12695007E+00 0.41065054E+03</pdfrwt>
<pdfrwt beam="2">  1       -1 0.31613227E-01 0.41065054E+03</pdfrwt>
<totfact> 0.20345419E+02</totfact>
</mgrwt>
</event>
<event>
 4    1  0.2533915E-002  0.9002980E+03  0.7818608E-02  0.9425209E-01
          2   -1    0    0  502    0  0.00000000000E+00  0.00000000000E+00  0.49749480711E+03  0.49749480711E+03  0.00000000000E+00 0. -1.
         -2   -1    0    0    0  501 -0.00000000000E+00 -0.00000000000E+00 -0.16432213316E+04  0.16432213316E+04  0.00000000000E+00 0.  1.
    9000007    1    1    2  502    0 -0.25277896092E+03  0.76592376821E+03 -0.47411753660E+03  0.10175086537E+04  0.40000000000E+03 0. -1.
   -9000007    1    1    2    0  501  0.25277896092E+03 -0.76592376821E+03 -0.67160898786E+03  0.11232074850E+04  0.40000000000E+03 0.  1.
<mgrwt>
<rscale>  2 0.90029796E+03</rscale>
<asrwt>0</asrwt>
<pdfrwt beam="1">  1        2 0.76537662E-01 0.90029796E+03</pdfrwt>
<pdfrwt beam="2">  1       -2 0.25280328E+00 0.90029796E+03</pdfrwt>
<totfact> 0.38676427E+00</totfact>
</mgrwt>
</event>
<event>
 4    1  0.2533915E-002  0.5019379E+03  0.7818608E-02  0.1013274E+00
          1   -1    0    0  502    0  0.00000000000E+00  0.00000000000E+00  0.53538191655E+03  0.53538191655E+03  0.00000000000E+00 0.  1.
         -1   -1    0    0    0  501 -0.00000000000E+00 -0.00000000000E+00 -0.49322969125E+03  0.49322969125E+03  0.00000000000E+00 0. -1.
    9000007    1    1    2  502    0 -0.27759723135E+03 -0.12198953159E+03 -0.89128171620E+02  0.50978966216E+03  0.40000000000E+03 0. -1.
   -9000007    1    1    2    0  501  0.27759723135E+03  0.12198953159E+03  0.13128039692E+03  0.51882194565E+03  0.40000000000E+03 0.  1.
<mgrwt>
<rscale>  2 0.50193791E+03</rscale>
<asrwt>0</asrwt>
<pdfrwt beam="1">  1        1 0.82366449E-01 0.50193791E+03</pdfrwt>
<pdfrwt beam="2">  1       -1 0.75881491E-01 0.50193791E+03</pdfrwt>
<totfact> 0.73336007E+01</totfact>
</mgrwt>
</event>
<event>
 4    1  0.2533915E-002  0.4770832E+03  0.7818608E-02  0.1019940E+00
          2   -1    0    0  502    0  0.00000000000E+00  0.00000000000E+00  0.41271950808E+03  0.41271950808E+03  0.00000000000E+00 0.  1.
         -2   -1    0    0    0  501 -0.00000000000E+00 -0.00000000000E+00 -0.55235367246E+03  0.55235367246E+03  0.00000000000E+00 0. -1.
    9000007    1    1    2  502    0 -0.21546124264E+03 -0.14555006361E+03 -0.50674482849E+02  0.47976689268E+03  0.40000000000E+03 0.  1.
   -9000007    1    1    2    0  501  0.21546124264E+03  0.14555006361E+03 -0.88959681531E+02  0.48530628786E+03  0.40000000000E+03 0.  1.
<mgrwt>
<rscale>  2 0.47708319E+03</rscale>
<asrwt>0</asrwt>
<pdfrwt beam="1">  1        2 0.63495309E-01 0.47708319E+03</pdfrwt>
<pdfrwt beam="2">  1       -2 0.84977488E-01 0.47708319E+03</pdfrwt>
<totfact> 0.95106275E+01</totfact>
</mgrwt>
</event>
<event>
 4    1  0.2533915E-002  0.4447859E+03  0.7818608E-02  0.1029288E+00
         -2   -1    0    0    0  501 -0.00000000000E+00  0.00000000000E+00  0.66241394231E+02  0.66241394231E+02  0.00000000000E+00 0. -1.
          2   -1    0    0  502    0  0.00000000000E+00 -0.00000000000E+00 -0.32162065679E+04  0.32162065679E+04  0.00000000000E+00 0.  1.
    9000007    1    1    2  502    0 -0.17761920792E+03 -0.79283539693E+02 -0.20135312693E+04  0.20620724127E+04  0.40000000000E+03 0.  1.
   -9000007    1    1    2    0  501  0.17761920792E+03  0.79283539693E+02 -0.11364339043E+04  0.12203755494E+04  0.40000000000E+03 0.  1.
<mgrwt>
<rscale>  2 0.44478586E+03</rscale>
<asrwt>0</asrwt>
<pdfrwt beam="1">  1        2 0.49480087E+00 0.44478586E+03</pdfrwt>
<pdfrwt beam="2">  1       -2 0.10190987E-01 0.44478586E+03</pdfrwt>
<totfact> 0.94494577E+01</totfact>
</mgrwt>
</event>
<event>
 4    1  0.2533915E-002  0.4492960E+03  0.7818608E-02  0.1027932E+00
          3   -1    0    0  502    0  0.00000000000E+00  0.00000000000E+00  0.15319451027E+03  0.15319451027E+03  0.00000000000E+00 0.  1.
         -3   -1    0    0    0  501 -0.00000000000E+00 -0.00000000000E+00 -0.13573137782E+04  0.13573137782E+04  0.00000000000E+00 0. -1.
    9000007    1    1    2  502    0  0.95307914220E+02 -0.18106153336E+03 -0.73105903055E+03  0.85808751507E+03  0.40000000000E+03 0. -1.
   -9000007    1    1    2    0  501 -0.95307914220E+02  0.18106153336E+03 -0.47306023737E+03  0.65242077339E+03  0.40000000000E+03 0. -1.
<mgrwt>
<rscale>  2 0.44929598E+03</rscale>
<asrwt>0</asrwt>
<pdfrwt beam="1">  1        3 0.23568385E-01 0.44929598E+03</pdfrwt>
<pdfrwt beam="2">  1       -3 0.20881751E+00 0.44929598E+03</pdfrwt>
<totfact> 0.58265725E+00</totfact>
</mgrwt>
</event>
<event>
 4    1  0.2533915E-002  0.5229946E+03  0.7818608E-02  0.1007945E+00
         -2   -1    0    0    0  501 -0.00000000000E+00  0.00000000000E+00  0.15493971690E+03  0.15493971690E+03  0.00000000000E+00 0. -1.
          2   -1    0    0  502    0  0.00000000000E+00 -0.00000000000E+00 -0.18116657482E+04  0.18116657482E+04  0.00000000000E+00 0.  1.
    9000007    1    1    2  502    0  0.37689082563E+02  0.33481768982E+03 -0.67114702354E+03  0.85085937708E+03  0.40000000000E+03 0. -1.
   -9000007    1    1    2    0  501 -0.37689082563E+02 -0.33481768982E+03 -0.98557900773E+03  0.11157460880E+04  0.40000000000E+03 0.  1.
<mgrwt>
<rscale>  2 0.52299460E+03</rscale>
<asrwt>0</asrwt>
<pdfrwt beam="1">  1        2 0.27871784E+00 0.52299460E+03</pdfrwt>
<pdfrwt beam="2">  1       -2 0.23836877E-01 0.52299460E+03</pdfrwt>
<totfact> 0.13909101E+02</totfact>
</mgrwt>
</event>
<event>
 4    1  0.2533915E-002  0.4957322E+03  0.7818608E-02  0.1014899E+00
          2   -1    0    0  502    0  0.00000000000E+00  0.00000000000E+00  0.46213436830E+03  0.46213436830E+03  0.00000000000E+00 0.  1.
         -2   -1    0    0    0  501 -0.00000000000E+00 -0.00000000000E+00 -0.55027449737E+03  0.55027449737E+03  0.00000000000E+00 0. -1.
    9000007    1    1    2  502    0 -0.29267775305E+03 -0.94937316372E+01 -0.13689064845E+03  0.51428537574E+03  0.40000000000E+03 0. -1.
   -9000007    1    1    2    0  501  0.29267775305E+03  0.94937316372E+01  0.48750519380E+02  0.49812348992E+03  0.40000000000E+03 0.  1.
<mgrwt>
<rscale>  2 0.49573218E+03</rscale>
<asrwt>0</asrwt>
<pdfrwt beam="1">  1        2 0.71097595E-01 0.49573218E+03</pdfrwt>
<pdfrwt beam="2">  1       -2 0.84657615E-01 0.49573218E+03</pdfrwt>
<totfact> 0.84347695E+01</totfact>
</mgrwt>
</event>
<event>
 4    1  0.2533915E-002  0.4897778E+03  0.7818608E-02  0.1016482E+00
          2   -1    0    0  502    0  0.00000000000E+00  0.00000000000E+00  0.18719809238E+04  0.18719809238E+04  0.00000000000E+00 0.  1.
         -2   -1    0    0    0  501 -0.00000000000E+00 -0.00000000000E+00 -0.15703996775E+03  0.15703996775E+03  0.00000000000E+00 0. -1.
    9000007    1    1    2  502    0  0.23692027444E+03  0.15411379738E+03  0.42228596020E+03  0.64668981062E+03  0.40000000000E+03 0. -1.
   -9000007    1    1    2    0  501 -0.23692027444E+03 -0.15411379738E+03  0.12926549959E+04  0.13823310810E+04  0.40000000000E+03 0.  1.
<mgrwt>
<rscale>  2 0.48977779E+03</rscale>
<asrwt>0</asrwt>
<pdfrwt beam="1">  1        2 0.28799705E+00 0.48977779E+03</pdfrwt>
<pdfrwt beam="2">  1       -2 0.24159996E-01 0.48977779E+03</pdfrwt>
<totfact> 0.12660937E+02</totfact>
</mgrwt>
</event>
<event>
 4    1  0.2533915E-002  0.4733989E+03  0.7818608E-02  0.1020965E+00
         -2   -1    0    0    0  501 -0.00000000000E+00  0.00000000000E+00  0.35819728034E+03  0.35819728034E+03  0.00000000000E+00 0.  1.
          2   -1    0    0  502    0  0.00000000000E+00 -0.00000000000E+00 -0.21963898096E+04  0.21963898096E+04  0.00000000000E+00 0. -1.
    9000007    1    1    2  502    0  0.18150463373E+03 -0.17652915620E+03 -0.19992560367E+04  0.20545391637E+04  0.40000000000E+03 0. -1.
   -9000007    1    1    2    0  501 -0.18150463373E+03  0.17652915620E+03  0.16106350745E+03  0.50004792619E+03  0.40000000000E+03 0.  1.
<mgrwt>
<rscale>  2 0.47339885E+03</rscale>
<asrwt>0</asrwt>
<pdfrwt beam="1">  1        2 0.33790613E+00 0.47339885E+03</pdfrwt>
<pdfrwt beam="2">  1       -2 0.55107273E-01 0.47339885E+03</pdfrwt>
<totfact> 0.17574675E+01</totfact>
</mgrwt>
</event>
<event>
 4    1  0.2533915E-002  0.4366884E+03  0.7818608E-02  0.1031768E+00
          1   -1    0    0  502    0  0.00000000000E+00  0.00000000000E+00  0.58354906535E+03  0.58354906535E+03  0.00000000000E+00 0.  1.
         -1   -1    0    0    0  501 -0.00000000000E+00 -0.00000000000E+00 -0.32962242028E+03  0.32962242028E+03  0.00000000000E+00 0. -1.
    9000007    1    1    2  502    0  0.81988455979E+02  0.15483748461E+03  0.16930386244E+03  0.46835942543E+03  0.40000000000E+03 0.  1.
   -9000007    1    1    2    0  501 -0.81988455979E+02 -0.15483748461E+03  0.84622782623E+02  0.44481206019E+03  0.40000000000E+03 0. -1.
<mgrwt>
<rscale>  2 0.43668839E+03</rscale>
<asrwt>0</asrwt>
<pdfrwt beam="1">  1        1 0.89776779E-01 0.43668839E+03</pdfrwt>
<pdfrwt beam="2">  1       -1 0.50711142E-01 0.43668839E+03</pdfrwt>
<totfact> 0.14495910E+02</totfact>
</mgrwt>
</event>
<event>
 4    1  0.2533915E-002  0.4150024E+03  0.7818608E-02  0.1038705E+00
          1   -1    0    0  502    0  0.00000000000E+00  0.00000000000E+00  0.98261295061E+03  0.98261295061E+03  0.00000000000E+00 0. -1.
         -1   -1    0    0    0  501 -0.00000000000E+00 -0.00000000000E+00 -0.18098238750E+03  0.18098238750E+03  0.00000000000E+00 0.  1.
    9000007    1    1    2  502    0  0.28344841306E+02  0.10688098668E+03  0.50413714497E+03  0.65297874106E+03  0.40000000000E+03 0. -1.
   -9000007    1    1    2    0  501 -0.28344841306E+02 -0.10688098668E+03  0.29749341814E+03  0.51061659705E+03  0.40000000000E+03 0. -1.
<mgrwt>
<rscale>  2 0.41500238E+03</rscale>
<asrwt>0</asrwt>
<pdfrwt beam="1">  1        1 0.15117122E+00 0.41500238E+03</pdfrwt>
<pdfrwt beam="2">  1       -1 0.27843445E-01 0.41500238E+03</pdfrwt>
<totfact> 0.18940506E+02</totfact>
</mgrwt>
</event>
<event>
 4    1  0.2533915E-002  0.4043185E+03  0.7818608E-02  0.1042294E+00
          2   -1    0    0  502    0  0.00000000000E+00  0.00000000000E+00  0.64319368489E+03  0.64319368489E+03  0.00000000000E+00 0.  1.
         -2   -1    0    0    0  501 -0.00000000000E+00 -0.00000000000E+00 -0.27745179776E+03  0.27745179776E+03  0.00000000000E+00 0. -1.
    9000007    1    1    2  502    0 -0.53026055679E+02  0.25724038477E+02  0.49494502374E+02  0.40733670900E+03  0.40000000000E+03 0. -1.
   -9000007    1    1    2    0  501  0.53026055679E+02 -0.25724038477E+02  0.31624738476E+03  0.51330877365E+03  0.40000000000E+03 0.  1.
<mgrwt>
<rscale>  2 0.40431855E+03</rscale>
<asrwt>0</asrwt>
<pdfrwt beam="1">  1        2 0.98952874E-01 0.40431855E+03</pdfrwt>
<pdfrwt beam="2">  1       -2 0.42684892E-01 0.40431855E+03</pdfrwt>
<totfact> 0.24358199E+02</totfact>
</mgrwt>
</event>
<event>
 4    1  0.2533915E-002  0.4445882E+03  0.7818608E-02  0.1029348E+00
         -2   -1    0    0    0  501 -0.00000000000E+00  0.00000000000E+00  0.42575885794E+03  0.42575885794E+03  0.00000000000E+00 0. -1.
          2   -1    0    0  502    0  0.00000000000E+00 -0.00000000000E+00 -0.56524269909E+03  0.56524269909E+03  0.00000000000E+00 0.  1.
    9000007    1    1    2  502    0 -0.14657549518E+03 -0.12717803596E+03  0.13970378106E+03  0.46602121739E+03  0.40000000000E+03 0. -1.
   -9000007    1    1    2    0  501  0.14657549518E+03  0.12717803596E+03 -0.27918762220E+03  0.52498033964E+03  0.40000000000E+03 0.  1.
<mgrwt>
<rscale>  2 0.44458816E+03</rscale>
<asrwt>0</asrwt>
<pdfrwt beam="1">  1        2 0.86960415E-01 0.44458816E+03</pdfrwt>
<pdfrwt beam="2">  1       -2 0.65501363E-01 0.44458816E+03</pdfrwt>
<totfact> 0.11807993E+02</totfact>
</mgrwt>
</event>
<event>
 4    1  0.2533915E-002  0.4499822E+03  0.7818608E-02  0.1027727E+00
          2   -1    0    0  502    0  0.00000000000E+00  0.00000000000E+00  0.12187497961E+04  0.12187497961E+04  0.00000000000E+00 0. -1.
         -2   -1    0    0    0  501 -0.00000000000E+00 -0.00000000000E+00 -0.17282732235E+03  0.17282732235E+03  0.00000000000E+00 0.  1.
    9000007    1    1    2  502    0 -0.17935730165E+03 -0.10156243617E+03  0.38610210152E+03  0.59292394360E+03  0.40000000000E+03 0.  1.
   -9000007    1    1    2    0  501  0.17935730165E+03  0.10156243617E+03  0.65982037222E+03  0.79865317485E+03  0.40000000000E+03 0. -1.
<mgrwt>
<rscale>  2 0.44998219E+03</rscale>
<asrwt>0</asrwt>
<pdfrwt beam="1">  1        2 0.18749996E+00 0.44998219E+03</pdfrwt>
<pdfrwt beam="2">  1       -2 0.26588820E-01 0.44998219E+03</pdfrwt>
<totfact> 0.24474931E+02</totfact>
</mgrwt>
</event>
<event>
 4    1  0.2533915E-002  0.4766017E+03  0.7818608E-02  0.1020073E+00
          2   -1    0    0  502    0  0.00000000000E+00  0.00000000000E+00  0.99285673496E+03  0.99285673496E+03  0.00000000000E+00 0. -1.
         -2   -1    0    0    0  501 -0.00000000000E+00 -0.00000000000E+00 -0.62161146466E+03  0.62161146466E+03  0.00000000000E+00 0.  1.
    9000007    1    1    2  502    0 -0.19453420174E+03 -0.17118898097E+03 -0.45609089884E+03  0.65967274527E+03  0.40000000000E+03 0.  1.
   -9000007    1    1    2    0  501  0.19453420174E+03  0.17118898097E+03  0.82733616915E+03  0.95479545434E+03  0.40000000000E+03 0. -1.
<mgrwt>
<rscale>  2 0.47660174E+03</rscale>
<asrwt>0</asrwt>
<pdfrwt beam="1">  1        2 0.15274719E+00 0.47660174E+03</pdfrwt>
<pdfrwt beam="2">  1       -2 0.95632533E-01 0.47660174E+03</pdfrwt>
<totfact> 0.24572166E+01</totfact>
</mgrwt>
</event>
<event>
 4    1  0.2533915E-002  0.4784420E+03  0.7818608E-02  0.1019564E+00
          2   -1    0    0  502    0  0.00000000000E+00  0.00000000000E+00  0.24158958643E+03  0.24158958643E+03  0.00000000000E+00 0. -1.
         -2   -1    0    0    0  501 -0.00000000000E+00 -0.00000000000E+00 -0.10236197114E+04  0.10236197114E+04  0.00000000000E+00 0.  1.
    9000007    1    1    2  502    0  0.20799892693E+03 -0.16013480776E+03 -0.21850882186E+03  0.52597796103E+03  0.40000000000E+03 0.  1.
   -9000007    1    1    2    0  501 -0.20799892693E+03  0.16013480776E+03 -0.56352130312E+03  0.73923133682E+03  0.40000000000E+03 0.  1.
<mgrwt>
<rscale>  2 0.47844196E+03</rscale>
<asrwt>0</asrwt>
<pdfrwt beam="1">  1        2 0.37167628E-01 0.47844196E+03</pdfrwt>
<pdfrwt beam="2">  1       -2 0.15747996E+00 0.47844196E+03</pdfrwt>
<totfact> 0.37999602E+01</totfact>
</mgrwt>
</event>
<event>
 4    1  0.2533915E-002  0.5555719E+03  0.7818608E-02  0.1000212E+00
          2   -1    0    0  502    0  0.00000000000E+00  0.00000000000E+00  0.18800723351E+04  0.18800723351E+04  0.00000000000E+00 0.  1.
         -2   -1    0    0    0  501 -0.00000000000E+00 -0.00000000000E+00 -0.17214628291E+03  0.17214628291E+03  0.00000000000E+00 0. -1.
    9000007    1    1    2  502    0  0.64058989250E+02 -0.38020595550E+03  0.63315247420E+03  0.84234326630E+03  0.40000000000E+03 0. -1.
   -9000007    1    1    2    0  501 -0.64058989250E+02  0.38020595550E+03  0.10747735779E+04  0.12098753517E+04  0.40000000000E+03 0.  1.
<mgrwt>
<rscale>  2 0.55557189E+03</rscale>
<asrwt>0</asrwt>
<pdfrwt beam="1">  1        2 0.28924188E+00 0.55557189E+03</pdfrwt>
<pdfrwt beam="2">  1       -2 0.26484045E-01 0.55557189E+03</pdfrwt>
<totfact> 0.10529457E+02</totfact>
</mgrwt>
</event>
<event>
 4    1  0.2533915E-002  0.4393638E+03  0.7818608E-02  0.1030942E+00
         -1   -1    0    0    0  501 -0.00000000000E+00  0.00000000000E+00  0.48983294932E+03  0.48983294932E+03  0.00000000000E+00 0.  1.
          1   -1    0    0  502    0  0.00000000000E+00 -0.00000000000E+00 -0.43241016614E+03  0.43241016614E+03  0.00000000000E+00 0. -1.
    9000007    1    1    2  502    0  0.15079631852E+03 -0.10149396138E+03  0.16597477908E+03  0.46966816069E+03  0.40000000000E+03 0. -1.
   -9000007    1    1    2    0  501 -0.15079631852E+03  0.10149396138E+03 -0.10855199589E+03  0.45257495477E+03  0.40000000000E+03 0. -1.
<mgrwt>
<rscale>  2 0.43936381E+03</rscale>
<asrwt>0</asrwt>
<pdfrwt beam="1">  1        1 0.66524642E-01 0.43936381E+03</pdfrwt>
<pdfrwt beam="2">  1       -1 0.75358915E-01 0.43936381E+03</pdfrwt>
<totfact> 0.99911800E+01</totfact>
</mgrwt>
</event>
<event>
 4    1  0.2533915E-002  0.4206017E+03  0.7818608E-02  0.1036871E+00
         -2   -1    0    0    0  501 -0.00000000000E+00  0.00000000000E+00  0.41015403642E+03  0.41015403642E+03  0.00000000000E+00 0.  1.
          2   -1    0    0  502    0  0.00000000000E+00 -0.00000000000E+00 -0.58586122279E+03  0.58586122279E+03  0.00000000000E+00 0. -1.
    9000007    1    1    2  502    0  0.34682872222E+02  0.12531102662E+03  0.16792679704E+03  0.45288537643E+03  0.40000000000E+03 0.  1.
   -9000007    1    1    2    0  501 -0.34682872222E+02 -0.12531102662E+03 -0.34363398341E+03  0.54312988278E+03  0.40000000000E+03 0. -1.
<mgrwt>
<rscale>  2 0.42060166E+03</rscale>
<asrwt>0</asrwt>
<pdfrwt beam="1">  1        2 0.90132496E-01 0.42060166E+03</pdfrwt>
<pdfrwt beam="2">  1       -2 0.63100621E-01 0.42060166E+03</pdfrwt>
<totfact> 0.12282475E+02</totfact>
</mgrwt>
</event>
<event>
 4    1  0.2533915E-002  0.4690665E+03  0.7818608E-02  0.1022184E+00
          1   -1    0    0  502    0  0.00000000000E+00  0.00000000000E+00  0.11956875836E+04  0.11956875836E+04  0.00000000000E+00 0. -1.
         -1   -1    0    0    0  501 -0.00000000000E+00 -0.00000000000E+00 -0.18652177539E+03  0.18652177539E+03  0.00000000000E+00 0.  1.
    9000007    1    1    2  502    0  0.22468831645E+03  0.97665248652E+02  0.58471697416E+03  0.74961141948E+03  0.40000000000E+03 0. -1.
   -9000007    1    1    2    0  501 -0.22468831645E+03 -0.97665248652E+02  0.42444883406E+03  0.63259793951E+03  0.40000000000E+03 0.  1.
<mgrwt>
<rscale>  2 0.46906646E+03</rscale>
<asrwt>0</asrwt>
<pdfrwt beam="1">  1        1 0.18395193E+00 0.46906646E+03</pdfrwt>
<pdfrwt beam="2">  1       -1 0.28695659E-01 0.46906646E+03</pdfrwt>
<totfact> 0.12438996E+02</totfact>
</mgrwt>
</event>
<event>
 4    1  0.2533915E-002  0.4007002E+03  0.7818608E-02  0.1043537E+00
          1   -1    0    0  502    0  0.00000000000E+00  0.00000000000E+00  0.25651887436E+03  0.25651887436E+03  0.00000000000E+00 0. -1.
         -1   -1    0    0    0  501 -0.00000000000E+00 -0.00000000000E+00 -0.62663358668E+03  0.62663358668E+03  0.00000000000E+00 0.  1.
    9000007    1    1    2  502    0 -0.26085632799E+01 -0.23533526021E+02 -0.19994484159E+03  0.44781533150E+03  0.40000000000E+03 0.  1.
   -9000007    1    1    2    0  501  0.26085632799E+01  0.23533526021E+02 -0.17016987074E+03  0.43533712954E+03  0.40000000000E+03 0. -1.
<mgrwt>
<rscale>  2 0.40070018E+03</rscale>
<asrwt>0</asrwt>
<pdfrwt beam="1">  1        1 0.39464443E-01 0.40070018E+03</pdfrwt>
<pdfrwt beam="2">  1       -1 0.96405166E-01 0.40070018E+03</pdfrwt>
<totfact> 0.11610198E+02</totfact>
</mgrwt>
</event>
<event>
 4    1  0.2533915E-002  0.4401437E+03  0.7818608E-02  0.1030703E+00
         -2   -1    0    0    0  501 -0.00000000000E+00  0.00000000000E+00  0.18228071304E+03  0.18228071304E+03  0.00000000000E+00 0.  1.
          2   -1    0    0  502    0  0.00000000000E+00 -0.00000000000E+00 -0.10683284366E+04  0.10683284366E+04  0.00000000000E+00 0. -1.
    9000007    1    1    2  502    0  0.16500932935E+03 -0.80612890608E+02 -0.39800990332E+03  0.59341250412E+03  0.40000000000E+03 0. -1.
   -9000007    1    1    2    0  501 -0.16500932935E+03  0.80612890608E+02 -0.48803782024E+03  0.65719664552E+03  0.40000000000E+03 0. -1.
<mgrwt>
<rscale>  2 0.44014375E+03</rscale>
<asrwt>0</asrwt>
<pdfrwt beam="1">  1        2 0.16435822E+00 0.44014375E+03</pdfrwt>
<pdfrwt beam="2">  1       -2 0.28043187E-01 0.44014375E+03</pdfrwt>
<totfact> 0.27305810E+02</totfact>
</mgrwt>
</event>
<event>
 4    1  0.2533915E-002  0.4061101E+03  0.7818608E-02  0.1041684E+00
          2   -1    0    0  502    0  0.00000000000E+00  0.00000000000E+00  0.24975730225E+03  0.24975730225E+03  0.00000000000E+00 0.  1.
         -2   -1    0    0    0  501 -0.00000000000E+00 -0.00000000000E+00 -0.67994395659E+03  0.67994395659E+03  0.00000000000E+00 0. -1.
    9000007    1    1    2  502    0 -0.48060001548E+02  0.51143261317E+02 -0.29401921199E+03  0.50137081481E+03  0.40000000000E+03 0. -1.
   -9000007    1    1    2    0  501  0.48060001548E+02 -0.51143261317E+02 -0.13616744235E+03  0.42833044403E+03  0.40000000000E+03 0.  1.
<mgrwt>
<rscale>  2 0.40611008E+03</rscale>
<asrwt>0</asrwt>
<pdfrwt beam="1">  1        2 0.38424200E-01 0.40611008E+03</pdfrwt>
<pdfrwt beam="2">  1       -2 0.10460676E+00 0.40611008E+03</pdfrwt>
<totfact> 0.10270986E+02</totfact>
</mgrwt>
</event>
<event>
 4    1  0.2533915E-002  0.5462512E+03  0.7818608E-02  0.1002365E+00
          2   -1    0    0  502    0  0.00000000000E+00  0.00000000000E+00  0.75057766692E+03  0.75057766692E+03  0.00000000000E+00 0. -1.
         -2   -1    0    0    0  501 -0.00000000000E+00 -0.00000000000E+00 -0.40379491562E+03  0.40379491562E+03  0.00000000000E+00 0.  1.
    9000007    1    1    2  502    0  0.93500023282E+02  0.36006683215E+03  0.10159855482E+03  0.55561915402E+03  0.40000000000E+03 0.  1.
   -9000007    1    1    2    0  501 -0.93500023282E+02 -0.36006683215E+03  0.24518419649E+03  0.59875342853E+03  0.40000000000E+03 0. -1.
<mgrwt>
<rscale>  2 0.54625120E+03</rscale>
<asrwt>0</asrwt>
<pdfrwt beam="1">  1        2 0.11547349E+00 0.54625120E+03</pdfrwt>
<pdfrwt beam="2">  1       -2 0.62122295E-01 0.54625120E+03</pdfrwt>
<totfact> 0.92652026E+01</totfact>
</mgrwt>
</event>
<event>
 4    1  0.2533915E-002  0.4317858E+03  0.7818608E-02  0.1033297E+00
         -2   -1    0    0    0  501 -0.00000000000E+00  0.00000000000E+00  0.59977291079E+02  0.59977291079E+02  0.00000000000E+00 0. -1.
          2   -1    0    0  502    0  0.00000000000E+00 -0.00000000000E+00 -0.44264723611E+04  0.44264723611E+04  0.00000000000E+00 0.  1.
    9000007    1    1    2  502    0 -0.13428104448E+03  0.91692785428E+02 -0.95919997067E+03  0.10519047246E+04  0.40000000000E+03 0. -1.
   -9000007    1    1    2    0  501  0.13428104448E+03 -0.91692785428E+02 -0.34072950994E+04  0.34345449277E+04  0.40000000000E+03 0.  1.
<mgrwt>
<rscale>  2 0.43178579E+03</rscale>
<asrwt>0</asrwt>
<pdfrwt beam="1">  1        2 0.68099579E+00 0.43178579E+03</pdfrwt>
<pdfrwt beam="2">  1       -2 0.92272750E-02 0.43178579E+03</pdfrwt>
<totfact> 0.13916796E+01</totfact>
</mgrwt>
</event>
<event>
 4    1  0.2533915E-002  0.4061649E+03  0.7818608E-02  0.1041666E+00
          2   -1    0    0  502    0  0.00000000000E+00  0.00000000000E+00  0.54028845298E+03  0.54028845298E+03  0.00000000000E+00 0. -1.
         -2   -1    0    0    0  501 -0.00000000000E+00 -0.00000000000E+00 -0.34542294329E+03  0.34542294329E+03  0.00000000000E+00 0.  1.
    9000007    1    1    2  502    0 -0.64327572606E+02 -0.28842657165E+02 -0.53430649207E+02  0.40966421585E+03  0.40000000000E+03 0.  1.
   -9000007    1    1    2    0  501  0.64327572606E+02  0.28842657165E+02  0.24829615889E+03  0.47604718042E+03  0.40000000000E+03 0.  1.
<mgrwt>
<rscale>  2 0.40616491E+03</rscale>
<asrwt>0</asrwt>
<pdfrwt beam="1">  1        2 0.83121301E-01 0.40616491E+03</pdfrwt>
<pdfrwt beam="2">  1       -2 0.53141991E-01 0.40616491E+03</pdfrwt>
<totfact> 0.19313889E+02</totfact>
</mgrwt>
</event>
<event>
 4    1  0.2533915E-002  0.4586246E+03  0.7818608E-02  0.1025181E+00
         -2   -1    0    0    0  501 -0.00000000000E+00  0.00000000000E+00  0.27949350919E+03  0.27949350919E+03  0.00000000000E+00 0. -1.
          2   -1    0    0  502    0  0.00000000000E+00 -0.00000000000E+00 -0.15370234783E+04  0.15370234783E+04  0.00000000000E+00 0.  1.
    9000007    1    1    2  502    0 -0.48928344141E+02  0.21895780622E+03  0.20100572557E+02  0.45906485030E+03  0.40000000000E+03 0. -1.
   -9000007    1    1    2    0  501  0.48928344141E+02 -0.21895780622E+03 -0.12776305416E+04  0.13574521372E+04  0.40000000000E+03 0.  1.
<mgrwt>
<rscale>  2 0.45862458E+03</rscale>
<asrwt>0</asrwt>
<pdfrwt beam="1">  1        2 0.23646515E+00 0.45862458E+03</pdfrwt>
<pdfrwt beam="2">  1       -2 0.42999001E-01 0.45862458E+03</pdfrwt>
<totfact> 0.65762820E+01</totfact>
</mgrwt>
</event>
<event>
 4    1  0.2533915E-002  0.4015637E+03  0.7818608E-02  0.1043240E+00
         -2   -1    0    0    0  501 -0.00000000000E+00  0.00000000000E+00  0.26197818395E+03  0.26197818395E+03  0.00000000000E+00 0. -1.
          2   -1    0    0  502    0  0.00000000000E+00 -0.00000000000E+00 -0.62125542340E+03  0.62125542340E+03  0.00000000000E+00 0.  1.
    9000007    1    1    2  502    0  0.49030374417E+01 -0.35061857998E+02 -0.13721458019E+03  0.42435977034E+03  0.40000000000E+03 0. -1.
   -9000007    1    1    2    0  501 -0.49030374417E+01  0.35061857998E+02 -0.22206265925E+03  0.45887383701E+03  0.40000000000E+03 0. -1.
<mgrwt>
<rscale>  2 0.40156366E+03</rscale>
<asrwt>0</asrwt>
<pdfrwt beam="1">  1        2 0.95577758E-01 0.40156366E+03</pdfrwt>
<pdfrwt beam="2">  1       -2 0.40304336E-01 0.40156366E+03</pdfrwt>
<totfact> 0.28396422E+02</totfact>
</mgrwt>
</event>
<event>
 4    1  0.2533915E-002  0.4160572E+03  0.7818608E-02  0.1038357E+00
          2   -1    0    0  502    0  0.00000000000E+00  0.00000000000E+00  0.25447317435E+04  0.25447317435E+04  0.00000000000E+00 0.  1.
         -2   -1    0    0    0  501 -0.00000000000E+00 -0.00000000000E+00 -0.68195777285E+02  0.68195777285E+02  0.00000000000E+00 0. -1.
    9000007    1    1    2  502    0  0.10645774573E+03  0.42075760699E+02  0.13037782129E+04  0.13685544380E+04  0.40000000000E+03 0. -1.
   -9000007    1    1    2    0  501 -0.10645774573E+03 -0.42075760699E+02  0.11727577533E+04  0.12443730828E+04  0.40000000000E+03 0. -1.
<mgrwt>
<rscale>  2 0.41605723E+03</rscale>
<asrwt>0</asrwt>
<pdfrwt beam="1">  1        2 0.39149712E+00 0.41605723E+03</pdfrwt>
<pdfrwt beam="2">  1       -2 0.10491660E-01 0.41605723E+03</pdfrwt>
<totfact> 0.22604179E+02</totfact>
</mgrwt>
</event>
<event>
 4    1  0.2533915E-002  0.5449968E+03  0.7818608E-02  0.1002659E+00
          1   -1    0    0  502    0  0.00000000000E+00  0.00000000000E+00  0.13783193372E+04  0.13783193372E+04  0.00000000000E+00 0. -1.
         -1   -1    0    0    0  501 -0.00000000000E+00 -0.00000000000E+00 -0.29572066926E+03  0.29572066926E+03  0.00000000000E+00 0.  1.
    9000007    1    1    2  502    0 -0.29293363450E+03  0.22629945463E+03  0.97726313500E+03  0.11189570110E+04  0.40000000000E+03 0.  1.
   -9000007    1    1    2    0  501  0.29293363450E+03 -0.22629945463E+03  0.10533553296E+03  0.55508299550E+03  0.40000000000E+03 0.  1.
<mgrwt>
<rscale>  2 0.54499684E+03</rscale>
<asrwt>0</asrwt>
<pdfrwt beam="1">  1        1 0.21204912E+00 0.54499684E+03</pdfrwt>
<pdfrwt beam="2">  1       -1 0.45495489E-01 0.54499684E+03</pdfrwt>
<totfact> 0.40358831E+01</totfact>
</mgrwt>
</event>
<event>
 4    1  0.2533915E-002  0.6387235E+03  0.7818608E-02  0.9828172E-01
         -1   -1    0    0    0  501 -0.00000000000E+00  0.00000000000E+00  0.16472550158E+03  0.16472550158E+03  0.00000000000E+00 0. -1.
          1   -1    0    0  502    0  0.00000000000E+00 -0.00000000000E+00 -0.24766621154E+04  0.24766621154E+04  0.00000000000E+00 0.  1.
    9000007    1    1    2  502    0 -0.42114226988E+03  0.26571967397E+03 -0.11586264026E+04  0.13230203692E+04  0.40000000000E+03 0. -1.
   -9000007    1    1    2    0  501  0.42114226988E+03 -0.26571967397E+03 -0.11533102112E+04  0.13183672478E+04  0.40000000000E+03 0.  1.
<mgrwt>
<rscale>  2 0.63872354E+03</rscale>
<asrwt>0</asrwt>
<pdfrwt beam="1">  1        1 0.38102494E+00 0.63872354E+03</pdfrwt>
<pdfrwt beam="2">  1       -1 0.25342385E-01 0.63872354E+03</pdfrwt>
<totfact> 0.20509098E+01</totfact>
</mgrwt>
</event>
<event>
 4    1  0.2533915E-002  0.5939544E+03  0.7818608E-02  0.9918029E-01
          2   -1    0    0  502    0  0.00000000000E+00  0.00000000000E+00  0.24537197388E+04  0.24537197388E+04  0.00000000000E+00 0.  1.
         -2   -1    0    0    0  501 -0.00000000000E+00 -0.00000000000E+00 -0.21124919481E+03  0.21124919481E+03  0.00000000000E+00 0. -1.
    9000007    1    1    2  502    0 -0.31434469695E+03  0.30654401843E+03  0.36816457232E+03  0.69880396110E+03  0.40000000000E+03 0. -1.
   -9000007    1    1    2    0  501  0.31434469695E+03 -0.30654401843E+03  0.18743059717E+04  0.19661649726E+04  0.40000000000E+03 0.  1.
<mgrwt>
<rscale>  2 0.59395440E+03</rscale>
<asrwt>0</asrwt>
<pdfrwt beam="1">  1        2 0.37749532E+00 0.59395440E+03</pdfrwt>
<pdfrwt beam="2">  1       -2 0.32499878E-01 0.59395440E+03</pdfrwt>
<totfact> 0.34865807E+01</totfact>
</mgrwt>
</event>
<event>
 4    1  0.2533915E-002  0.9218446E+03  0.7818608E-02  0.9398679E-01
          2   -1    0    0  502    0  0.00000000000E+00  0.00000000000E+00  0.20525990018E+04  0.20525990018E+04  0.00000000000E+00 0.  1.
         -2   -1    0    0    0  501 -0.00000000000E+00 -0.00000000000E+00 -0.41524985793E+03  0.41524985793E+03  0.00000000000E+00 0. -1.
    9000007    1    1    2  502    0  0.71252745833E+03  0.42673422975E+03  0.75126259161E+03  0.11891984541E+04  0.40000000000E+03 0. -1.
   -9000007    1    1    2    0  501 -0.71252745833E+03 -0.42673422975E+03  0.88608655227E+03  0.12786504056E+04  0.40000000000E+03 0.  1.
<mgrwt>
<rscale>  2 0.92184461E+03</rscale>
<asrwt>0</asrwt>
<pdfrwt beam="1">  1        2 0.31578446E+00 0.92184461E+03</pdfrwt>
<pdfrwt beam="2">  1       -2 0.63884594E-01 0.92184461E+03</pdfrwt>
<totfact> 0.14334809E+01</totfact>
</mgrwt>
</event>
<event>
 4    1  0.2533915E-002  0.4142023E+03  0.7818608E-02  0.1038970E+00
          1   -1    0    0  502    0  0.00000000000E+00  0.00000000000E+00  0.13590442900E+04  0.13590442900E+04  0.00000000000E+00 0.  1.
         -1   -1    0    0    0  501 -0.00000000000E+00 -0.00000000000E+00 -0.12997454044E+03  0.12997454044E+03  0.00000000000E+00 0. -1.
    9000007    1    1    2  502    0  0.72140063895E+02 -0.79745473354E+02  0.48830717425E+03  0.64031822226E+03  0.40000000000E+03 0.  1.
   -9000007    1    1    2    0  501 -0.72140063895E+02  0.79745473354E+02  0.74076257527E+03  0.84870060814E+03  0.40000000000E+03 0.  1.
<mgrwt>
<rscale>  2 0.41420228E+03</rscale>
<asrwt>0</asrwt>
<pdfrwt beam="1">  1        1 0.20908373E+00 0.41420228E+03</pdfrwt>
<pdfrwt beam="2">  1       -1 0.19996084E-01 0.41420228E+03</pdfrwt>
<totfact> 0.17669359E+02</totfact>
</mgrwt>
</event>
<event>
 4    1  0.2533915E-002  0.4169137E+03  0.7818608E-02  0.1038075E+00
          2   -1    0    0  502    0  0.00000000000E+00  0.00000000000E+00  0.22258065191E+04  0.22258065191E+04  0.00000000000E+00 0. -1.
         -2   -1    0    0    0  501 -0.00000000000E+00 -0.00000000000E+00 -0.82940992789E+02  0.82940992789E+02  0.00000000000E+00 0.  1.
    9000007    1    1    2  502    0 -0.87084922367E+02  0.78951159932E+02  0.13505585360E+04  0.14134445261E+04  0.40000000000E+03 0.  1.
   -9000007    1    1    2    0  501  0.87084922367E+02 -0.78951159932E+02  0.79230699028E+03  0.89530298570E+03  0.40000000000E+03 0.  1.
<mgrwt>
<rscale>  2 0.41691374E+03</rscale>
<asrwt>0</asrwt>
<pdfrwt beam="1">  1        2 0.34243173E+00 0.41691374E+03</pdfrwt>
<pdfrwt beam="2">  1       -2 0.12760154E-01 0.41691374E+03</pdfrwt>
<totfact> 0.24592519E+02</totfact>
</mgrwt>
</event>
<event>
 4    1  0.2533915E-002  0.4412196E+03  0.7818608E-02  0.1030373E+00
         -2   -1    0    0    0  501 -0.00000000000E+00  0.00000000000E+00  0.53951917957E+02  0.53951917957E+02  0.00000000000E+00 0.  1.
          2   -1    0    0  502    0  0.00000000000E+00 -0.00000000000E+00 -0.41960515459E+04  0.41960515459E+04  0.00000000000E+00 0. -1.
    9000007    1    1    2  502    0  0.18467813981E+03  0.23848216247E+02 -0.12757416364E+04  0.13498857269E+04  0.40000000000E+03 0.  1.
   -9000007    1    1    2    0  501 -0.18467813981E+03 -0.23848216247E+02 -0.28663579915E+04  0.29001177370E+04  0.40000000000E+03 0. -1.
<mgrwt>
<rscale>  2 0.44121962E+03</rscale>
<asrwt>0</asrwt>
<pdfrwt beam="1">  1        2 0.64554660E+00 0.44121962E+03</pdfrwt>
<pdfrwt beam="2">  1       -2 0.83002923E-02 0.44121962E+03</pdfrwt>
<totfact> 0.26058145E+01</totfact>
</mgrwt>
</event>
<event>
 4    1  0.2533915E-002  0.4327371E+03  0.7818608E-02  0.1032999E+00
          2   -1    0    0  502    0  0.00000000000E+00  0.00000000000E+00  0.25369389140E+03  0.25369389140E+03  0.00000000000E+00 0. -1.
         -2   -1    0    0    0  501 -0.00000000000E+00 -0.00000000000E+00 -0.75464393606E+03  0.75464393606E+03  0.00000000000E+00 0.  1.
    9000007    1    1    2  502    0 -0.13959599816E+03  0.88172507116E+02 -0.32503536200E+03  0.54121106813E+03  0.40000000000E+03 0.  1.
   -9000007    1    1    2    0  501  0.13959599816E+03 -0.88172507116E+02 -0.17591468266E+03  0.46712675934E+03  0.40000000000E+03 0. -1.
<mgrwt>
<rscale>  2 0.43273714E+03</rscale>
<asrwt>0</asrwt>
<pdfrwt beam="1">  1        2 0.39029831E-01 0.43273714E+03</pdfrwt>
<pdfrwt beam="2">  1       -2 0.11609906E+00 0.43273714E+03</pdfrwt>
<totfact> 0.78460639E+01</totfact>
</mgrwt>
</event>
<event>
 4    1  0.2533915E-002  0.4112230E+03  0.7818608E-02  0.1039961E+00
         -1   -1    0    0    0  501 -0.00000000000E+00  0.00000000000E+00  0.12467077068E+03  0.12467077068E+03  0.00000000000E+00 0.  1.
          1   -1    0    0  502    0  0.00000000000E+00 -0.00000000000E+00 -0.17077828388E+04  0.17077828388E+04  0.00000000000E+00 0. -1.
    9000007    1    1    2  502    0 -0.67311659390E+02  0.67627920281E+02 -0.12071528169E+04  0.12752734289E+04  0.40000000000E+03 0. -1.
   -9000007    1    1    2    0  501  0.67311659390E+02 -0.67627920281E+02 -0.37595925129E+03  0.55718018066E+03  0.40000000000E+03 0.  1.
<mgrwt>
<rscale>  2 0.41122305E+03</rscale>
<asrwt>0</asrwt>
<pdfrwt beam="1">  1        1 0.26273582E+00 0.41122305E+03</pdfrwt>
<pdfrwt beam="2">  1       -1 0.19180119E-01 0.41122305E+03</pdfrwt>
<totfact> 0.11038747E+02</totfact>
</mgrwt>
</event>
<event>
 4    1  0.2533915E-002  0.5114532E+03  0.7818608E-02  0.1010832E+00
         -2   -1    0    0    0  501 -0.00000000000E+00  0.00000000000E+00  0.19273826155E+03  0.19273826155E+03  0.00000000000E+00 0.  1.
          2   -1    0    0  502    0  0.00000000000E+00 -0.00000000000E+00 -0.13820866175E+04  0.13820866175E+04  0.00000000000E+00 0. -1.
    9000007    1    1    2  502    0  0.30739045574E+03  0.84234883223E+02 -0.70033544133E+03  0.86721055011E+03  0.40000000000E+03 0. -1.
   -9000007    1    1    2    0  501 -0.30739045574E+03 -0.84234883223E+02 -0.48901291458E+03  0.70761432890E+03  0.40000000000E+03 0. -1.
<mgrwt>
<rscale>  2 0.51145323E+03</rscale>
<asrwt>0</asrwt>
<pdfrwt beam="1">  1        2 0.21262871E+00 0.51145323E+03</pdfrwt>
<pdfrwt beam="2">  1       -2 0.29652041E-01 0.51145323E+03</pdfrwt>
<totfact> 0.16097566E+02</totfact>
</mgrwt>
</event>
<event>
 4    1  0.2533915E-002  0.4042368E+03  0.7818608E-02  0.1042322E+00
         -1   -1    0    0    0  501 -0.00000000000E+00  0.00000000000E+00  0.18155912753E+03  0.18155912753E+03  0.00000000000E+00 0.  1.
          1   -1    0    0  502    0  0.00000000000E+00 -0.00000000000E+00 -0.16363622036E+04  0.16363622036E+04  0.00000000000E+00 0. -1.
    9000007    1    1    2  502    0 -0.54813880167E+02 -0.20069694778E+02 -0.13371411234E+04  0.13969086363E+04  0.40000000000E+03 0. -1.
   -9000007    1    1    2    0  501  0.54813880167E+02  0.20069694778E+02 -0.11766195259E+03  0.42101269482E+03  0.40000000000E+03 0.  1.
<mgrwt>
<rscale>  2 0.40423676E+03</rscale>
<asrwt>0</asrwt>
<pdfrwt beam="1">  1        1 0.25174802E+00 0.40423676E+03</pdfrwt>
<pdfrwt beam="2">  1       -1 0.27932174E-01 0.40423676E+03</pdfrwt>
<totfact> 0.65748370E+01</totfact>
</mgrwt>
</event>
<event>
 4    1  0.2533915E-002  0.4381443E+03  0.7818608E-02  0.1031318E+00
          2   -1    0    0  502    0  0.00000000000E+00  0.00000000000E+00  0.45013689349E+03  0.45013689349E+03  0.00000000000E+00 0.  1.
         -2   -1    0    0    0  501 -0.00000000000E+00 -0.00000000000E+00 -0.42964009679E+03  0.42964009679E+03  0.00000000000E+00 0. -1.
    9000007    1    1    2  502    0  0.16332859110E+03 -0.72761296892E+02 -0.27529877877E+02  0.43900834750E+03  0.40000000000E+03 0. -1.
   -9000007    1    1    2    0  501 -0.16332859110E+03  0.72761296892E+02  0.48026674573E+02  0.44076864279E+03  0.40000000000E+03 0.  1.
<mgrwt>
<rscale>  2 0.43814431E+03</rscale>
<asrwt>0</asrwt>
<pdfrwt beam="1">  1        2 0.69251830E-01 0.43814431E+03</pdfrwt>
<pdfrwt beam="2">  1       -2 0.66098477E-01 0.43814431E+03</pdfrwt>
<totfact> 0.15041658E+02</totfact>
</mgrwt>
</event>
<event>
 4    1  0.2533915E-002  0.4309866E+03  0.7818608E-02  0.1033549E+00
          1   -1    0    0  502    0  0.00000000000E+00  0.00000000000E+00  0.10657842187E+04  0.10657842187E+04  0.00000000000E+00 0.  1.
         -1   -1    0    0    0  501 -0.00000000000E+00 -0.00000000000E+00 -0.17525288196E+03  0.17525288196E+03  0.00000000000E+00 0. -1.
    9000007    1    1    2  502    0  0.95802618570E+02 -0.12872957285E+03  0.49139666800E+03  0.65362078453E+03  0.40000000000E+03 0. -1.
   -9000007    1    1    2    0  501 -0.95802618570E+02  0.12872957285E+03  0.39913466871E+03  0.58741631610E+03  0.40000000000E+03 0. -1.
<mgrwt>
<rscale>  2 0.43098659E+03</rscale>
<asrwt>0</asrwt>
<pdfrwt beam="1">  1        1 0.16396680E+00 0.43098659E+03</pdfrwt>
<pdfrwt beam="2">  1       -1 0.26961983E-01 0.43098659E+03</pdfrwt>
<totfact> 0.17284310E+02</totfact>
</mgrwt>
</event>
<event>
 4    1  0.2533915E-002  0.5399278E+03  0.7818608E-02  0.1003853E+00
         -2   -1    0    0    0  501 -0.00000000000E+00  0.00000000000E+00  0.79387998569E+02  0.79387998569E+02  0.00000000000E+00 0. -1.
          2   -1    0    0  502    0  0.00000000000E+00 -0.00000000000E+00 -0.36926043056E+04  0.36926043056E+04  0.00000000000E+00 0.  1.
    9000007    1    1    2  502    0  0.28180433223E+03 -0.22827247124E+03 -0.19470896165E+04  0.20205642721E+04  0.40000000000E+03 0.  1.
   -9000007    1    1    2    0  501 -0.28180433223E+03  0.22827247124E+03 -0.16661266905E+04  0.17514280321E+04  0.40000000000E+03 0.  1.
<mgrwt>
<rscale>  2 0.53992778E+03</rscale>
<asrwt>0</asrwt>
<pdfrwt beam="1">  1        2 0.56809311E+00 0.53992778E+03</pdfrwt>
<pdfrwt beam="2">  1       -2 0.12213535E-01 0.53992778E+03</pdfrwt>
<totfact> 0.33058010E+01</totfact>
</mgrwt>
</event>
<event>
 4    1  0.2533915E-002  0.5612535E+03  0.7818608E-02  0.9989222E-01
          2   -1    0    0  502    0  0.00000000000E+00  0.00000000000E+00  0.60663077173E+03  0.60663077173E+03  0.00000000000E+00 0.  1.
         -2   -1    0    0    0  501 -0.00000000000E+00 -0.00000000000E+00 -0.53356734837E+03  0.53356734837E+03  0.00000000000E+00 0. -1.
    9000007    1    1    2  502    0 -0.32529713554E+03  0.22178206478E+03  0.12985170387E+03  0.57607896650E+03  0.40000000000E+03 0.  1.
   -9000007    1    1    2    0  501  0.32529713554E+03 -0.22178206478E+03 -0.56788280518E+02  0.56411915360E+03  0.40000000000E+03 0. -1.
<mgrwt>
<rscale>  2 0.56125352E+03</rscale>
<asrwt>0</asrwt>
<pdfrwt beam="1">  1        2 0.93327811E-01 0.56125352E+03</pdfrwt>
<pdfrwt beam="2">  1       -2 0.82087284E-01 0.56125352E+03</pdfrwt>
<totfact> 0.65529176E+01</totfact>
</mgrwt>
</event>
<event>
 4    1  0.2533915E-002  0.4282861E+03  0.7818608E-02  0.1034403E+00
          2   -1    0    0  502    0  0.00000000000E+00  0.00000000000E+00  0.12341076970E+04  0.12341076970E+04  0.00000000000E+00 0.  1.
         -2   -1    0    0    0  501 -0.00000000000E+00 -0.00000000000E+00 -0.20043987505E+03  0.20043987505E+03  0.00000000000E+00 0. -1.
    9000007    1    1    2  502    0 -0.63523655121E+01 -0.15293342113E+03  0.15217478228E+03  0.45451748944E+03  0.40000000000E+03 0. -1.
   -9000007    1    1    2    0  501  0.63523655121E+01  0.15293342113E+03  0.88149303971E+03  0.98003008266E+03  0.40000000000E+03 0.  1.
<mgrwt>
<rscale>  2 0.42828610E+03</rscale>
<asrwt>0</asrwt>
<pdfrwt beam="1">  1        2 0.18986272E+00 0.42828610E+03</pdfrwt>
<pdfrwt beam="2">  1       -2 0.30836905E-01 0.42828610E+03</pdfrwt>
<totfact> 0.18338629E+02</totfact>
</mgrwt>
</event>
<event>
 4    1  0.2533915E-002  0.4311312E+03  0.7818608E-02  0.1033503E+00
         -2   -1    0    0    0  501 -0.00000000000E+00  0.00000000000E+00  0.60264723294E+03  0.60264723294E+03  0.00000000000E+00 0.  1.
          2   -1    0    0  502    0  0.00000000000E+00 -0.00000000000E+00 -0.40098994668E+03  0.40098994668E+03  0.00000000000E+00 0. -1.
    9000007    1    1    2  502    0 -0.11889473234E+03 -0.10834273901E+03 -0.14026903557E+03  0.45337568176E+03  0.40000000000E+03 0. -1.
   -9000007    1    1    2    0  501  0.11889473234E+03  0.10834273901E+03  0.34192632182E+03  0.55026149786E+03  0.40000000000E+03 0.  1.
<mgrwt>
<rscale>  2 0.43113119E+03</rscale>
<asrwt>0</asrwt>
<pdfrwt beam="1">  1        2 0.61690761E-01 0.43113119E+03</pdfrwt>
<pdfrwt beam="2">  1       -2 0.92714959E-01 0.43113119E+03</pdfrwt>
<totfact> 0.80794716E+01</totfact>
</mgrwt>
</event>
<event>
 4    1  0.2533915E-002  0.5658937E+03  0.7818608E-02  0.9978807E-01
          1   -1    0    0  502    0  0.00000000000E+00  0.00000000000E+00  0.45273463743E+03  0.45273463743E+03  0.00000000000E+00 0. -1.
         -1   -1    0    0    0  501 -0.00000000000E+00 -0.00000000000E+00 -0.79618642320E+03  0.79618642320E+03  0.00000000000E+00 0.  1.
    9000007    1    1    2  502    0  0.26493934708E+03 -0.30007129869E+03  0.36880029700E+02  0.56709415314E+03  0.40000000000E+03 0. -1.
   -9000007    1    1    2    0  501 -0.26493934708E+03  0.30007129869E+03 -0.38033181547E+03  0.68182690750E+03  0.40000000000E+03 0. -1.
<mgrwt>
<rscale>  2 0.56589367E+03</rscale>
<asrwt>0</asrwt>
<pdfrwt beam="1">  1        1 0.69651482E-01 0.56589367E+03</pdfrwt>
<pdfrwt beam="2">  1       -1 0.12249022E+00 0.56589367E+03</pdfrwt>
<totfact> 0.31212502E+01</totfact>
</mgrwt>
</event>
<event>
 4    1  0.2533915E-002  0.5515854E+03  0.7818608E-02  0.1001128E+00
         -2   -1    0    0    0  501 -0.00000000000E+00  0.00000000000E+00  0.24367520001E+03  0.24367520001E+03  0.00000000000E+00 0. -1.
          2   -1    0    0  502    0  0.00000000000E+00 -0.00000000000E+00 -0.14496406163E+04  0.14496406163E+04  0.00000000000E+00 0.  1.
    9000007    1    1    2  502    0  0.53067749746E+01  0.37976079445E+03 -0.28766511243E+03  0.62209134359E+03  0.40000000000E+03 0. -1.
   -9000007    1    1    2    0  501 -0.53067749746E+01 -0.37976079445E+03 -0.91830030385E+03  0.10712244727E+04  0.40000000000E+03 0.  1.
<mgrwt>
<rscale>  2 0.55158537E+03</rscale>
<asrwt>0</asrwt>
<pdfrwt beam="1">  1        2 0.22302164E+00 0.55158537E+03</pdfrwt>
<pdfrwt beam="2">  1       -2 0.37488492E-01 0.55158537E+03</pdfrwt>
<totfact> 0.94572534E+01</totfact>
</mgrwt>
</event>
<event>
 4    1  0.2533915E-002  0.6206312E+03  0.7818608E-02  0.9863504E-01
          2   -1    0    0  502    0  0.00000000000E+00  0.00000000000E+00  0.85959779716E+03  0.85959779716E+03  0.00000000000E+00 0.  1.
         -2   -1    0    0    0  501 -0.00000000000E+00 -0.00000000000E+00 -0.49965942553E+03  0.49965942553E+03  0.00000000000E+00 0. -1.
    9000007    1    1    2  502    0  0.47443422923E+03 -0.97583894785E+01 -0.38355034673E+02  0.62181522393E+03  0.40000000000E+03 0. -1.
   -9000007    1    1    2    0  501 -0.47443422923E+03  0.97583894785E+01  0.39829340630E+03  0.73744199876E+03  0.40000000000E+03 0.  1.
<mgrwt>
<rscale>  2 0.62063118E+03</rscale>
<asrwt>0</asrwt>
<pdfrwt beam="1">  1        2 0.13224581E+00 0.62063118E+03</pdfrwt>
<pdfrwt beam="2">  1       -2 0.76870681E-01 0.62063118E+03</pdfrwt>
<totfact> 0.48477530E+01</totfact>
</mgrwt>
</event>
<event>
 4    1  0.2533915E-002  0.4147215E+03  0.7818608E-02  0.1038798E+00
          2   -1    0    0  502    0  0.00000000000E+00  0.00000000000E+00  0.28439962512E+03  0.28439962512E+03  0.00000000000E+00 0.  1.
         -2   -1    0    0    0  501 -0.00000000000E+00 -0.00000000000E+00 -0.80064960754E+03  0.80064960754E+03  0.00000000000E+00 0. -1.
    9000007    1    1    2  502    0  0.93122564695E+01 -0.10912025436E+03 -0.52647537459E+03  0.67020166225E+03  0.40000000000E+03 0. -1.
   -9000007    1    1    2    0  501 -0.93122564695E+01  0.10912025436E+03  0.10225392160E+02  0.41484757041E+03  0.40000000000E+03 0.  1.
<mgrwt>
<rscale>  2 0.41472153E+03</rscale>
<asrwt>0</asrwt>
<pdfrwt beam="1">  1        2 0.43753789E-01 0.41472153E+03</pdfrwt>
<pdfrwt beam="2">  1       -2 0.12317686E+00 0.41472153E+03</pdfrwt>
<totfact> 0.59957912E+01</totfact>
</mgrwt>
</event>
<event>
 4    1  0.2533915E-002  0.6144121E+03  0.7818608E-02  0.9875949E-01
          1   -1    0    0  502    0  0.00000000000E+00  0.00000000000E+00  0.24122251929E+04  0.24122251929E+04  0.00000000000E+00 0.  1.
         -1   -1    0    0    0  501 -0.00000000000E+00 -0.00000000000E+00 -0.15989348573E+03  0.15989348573E+03  0.00000000000E+00 0. -1.
    9000007    1    1    2  502    0 -0.13660125308E+03  0.44591735525E+03  0.13136487408E+04  0.14502328104E+04  0.40000000000E+03 0. -1.
   -9000007    1    1    2    0  501  0.13660125308E+03 -0.44591735525E+03  0.93868296633E+03  0.11218858682E+04  0.40000000000E+03 0.  1.
<mgrwt>
<rscale>  2 0.61441207E+03</rscale>
<asrwt>0</asrwt>
<pdfrwt beam="1">  1        1 0.37111154E+00 0.61441207E+03</pdfrwt>
<pdfrwt beam="2">  1       -1 0.24599000E-01 0.61441207E+03</pdfrwt>
<totfact> 0.23953010E+01</totfact>
</mgrwt>
</event>
<event>
 4    1  0.2533915E-002  0.4451321E+03  0.7818608E-02  0.1029184E+00
          1   -1    0    0  502    0  0.00000000000E+00  0.00000000000E+00  0.67751989079E+03  0.67751989079E+03  0.00000000000E+00 0. -1.
         -1   -1    0    0    0  501 -0.00000000000E+00 -0.00000000000E+00 -0.33362394845E+03  0.33362394845E+03  0.00000000000E+00 0.  1.
    9000007    1    1    2  502    0 -0.16706564694E+03  0.10115172221E+03 -0.56552063256E+01  0.44516803867E+03  0.40000000000E+03 0.  1.
   -9000007    1    1    2    0  501  0.16706564694E+03 -0.10115172221E+03  0.34955114867E+03  0.56597580057E+03  0.40000000000E+03 0. -1.
<mgrwt>
<rscale>  2 0.44513212E+03</rscale>
<asrwt>0</asrwt>
<pdfrwt beam="1">  1        1 0.10423383E+00 0.44513212E+03</pdfrwt>
<pdfrwt beam="2">  1       -1 0.51326761E-01 0.44513212E+03</pdfrwt>
<totfact> 0.11423703E+02</totfact>
</mgrwt>
</event>
<event>
 4    1  0.2533915E-002  0.5390186E+03  0.7818608E-02  0.1004068E+00
         -2   -1    0    0    0  501 -0.00000000000E+00  0.00000000000E+00  0.20475795800E+03  0.20475795800E+03  0.00000000000E+00 0.  1.
          2   -1    0    0  502    0  0.00000000000E+00 -0.00000000000E+00 -0.18737518957E+04  0.18737518957E+04  0.00000000000E+00 0. -1.
    9000007    1    1    2  502    0 -0.15244520158E+03 -0.32756908302E+03 -0.13465061998E+04  0.14503861519E+04  0.40000000000E+03 0. -1.
   -9000007    1    1    2    0  501  0.15244520158E+03  0.32756908302E+03 -0.32248773793E+03  0.62812370179E+03  0.40000000000E+03 0.  1.
<mgrwt>
<rscale>  2 0.53901859E+03</rscale>
<asrwt>0</asrwt>
<pdfrwt beam="1">  1        2 0.28826952E+00 0.53901859E+03</pdfrwt>
<pdfrwt beam="2">  1       -2 0.31501225E-01 0.53901859E+03</pdfrwt>
<totfact> 0.77366561E+01</totfact>
</mgrwt>
</event>
<event>
 4    1  0.2533915E-002  0.4069348E+03  0.7818608E-02  0.1041405E+00
         -2   -1    0    0    0  501 -0.00000000000E+00  0.00000000000E+00  0.24056982855E+03  0.24056982855E+03  0.00000000000E+00 0.  1.
          2   -1    0    0  502    0  0.00000000000E+00 -0.00000000000E+00 -0.86485418357E+03  0.86485418357E+03  0.00000000000E+00 0. -1.
    9000007    1    1    2  502    0 -0.52410012498E+02  0.53376859925E+02 -0.56183537370E+03  0.69372536765E+03  0.40000000000E+03 0. -1.
   -9000007    1    1    2    0  501  0.52410012498E+02 -0.53376859925E+02 -0.62448981319E+02  0.41169864446E+03  0.40000000000E+03 0.  1.
<mgrwt>
<rscale>  2 0.40693476E+03</rscale>
<asrwt>0</asrwt>
<pdfrwt beam="1">  1        2 0.13305449E+00 0.40693476E+03</pdfrwt>
<pdfrwt beam="2">  1       -2 0.37010743E-01 0.40693476E+03</pdfrwt>
<totfact> 0.22032124E+02</totfact>
</mgrwt>
</event>
<event>
 4    1  0.2533915E-002  0.4255920E+03  0.7818608E-02  0.1035262E+00
         -2   -1    0    0    0  501 -0.00000000000E+00  0.00000000000E+00  0.42547738138E+03  0.42547738138E+03  0.00000000000E+00 0.  1.
          2   -1    0    0  502    0  0.00000000000E+00 -0.00000000000E+00 -0.43942243727E+03  0.43942243727E+03  0.00000000000E+00 0. -1.
    9000007    1    1    2  502    0 -0.13822529086E+03 -0.44970395732E+02 -0.83374477312E+02  0.43368176235E+03  0.40000000000E+03 0. -1.
   -9000007    1    1    2    0  501  0.13822529086E+03  0.44970395732E+02  0.69429421426E+02  0.43121805631E+03  0.40000000000E+03 0.  1.
<mgrwt>
<rscale>  2 0.42559202E+03</rscale>
<asrwt>0</asrwt>
<pdfrwt beam="1">  1        2 0.67603452E-01 0.42559202E+03</pdfrwt>
<pdfrwt beam="2">  1       -2 0.65458059E-01 0.42559202E+03</pdfrwt>
<totfact> 0.15792411E+02</totfact>
</mgrwt>
</event>
<event>
 4    1  0.2533915E-002  0.4071156E+03  0.7818608E-02  0.1041343E+00
         -1   -1    0    0    0  501 -0.00000000000E+00  0.00000000000E+00  0.14756552556E+04  0.14756552556E+04  0.00000000000E+00 0. -1.
          1   -1    0    0  502    0  0.00000000000E+00 -0.00000000000E+00 -0.11882270319E+03  0.11882270319E+03  0.00000000000E+00 0.  1.
    9000007    1    1    2  502    0 -0.17182641712E+02  0.73809827253E+02  0.86494320542E+03  0.95596541903E+03  0.40000000000E+03 0. -1.
   -9000007    1    1    2    0  501  0.17182641712E+02 -0.73809827253E+02  0.49188934703E+03  0.63851253981E+03  0.40000000000E+03 0. -1.
<mgrwt>
<rscale>  2 0.40711563E+03</rscale>
<asrwt>0</asrwt>
<pdfrwt beam="1">  1        1 0.18280417E-01 0.40711563E+03</pdfrwt>
<pdfrwt beam="2">  1       -1 0.22702387E+00 0.40711563E+03</pdfrwt>
<totfact> 0.31235527E+01</totfact>
</mgrwt>
</event>
<event>
 4    1  0.2533915E-002  0.4095199E+03  0.7818608E-02  0.1040532E+00
          2   -1    0    0  502    0  0.00000000000E+00  0.00000000000E+00  0.63079949118E+03  0.63079949118E+03  0.00000000000E+00 0.  1.
         -2   -1    0    0    0  501 -0.00000000000E+00 -0.00000000000E+00 -0.54468164766E+03  0.54468164766E+03  0.00000000000E+00 0. -1.
    9000007    1    1    2  502    0 -0.75921207450E+02  0.44074151874E+02 -0.37744961498E+03  0.55693336446E+03  0.40000000000E+03 0. -1.
   -9000007    1    1    2    0  501  0.75921207450E+02 -0.44074151874E+02  0.46356745850E+03  0.61854777438E+03  0.40000000000E+03 0.  1.
<mgrwt>
<rscale>  2 0.40951991E+03</rscale>
<asrwt>0</asrwt>
<pdfrwt beam="1">  1        2 0.97046075E-01 0.40951991E+03</pdfrwt>
<pdfrwt beam="2">  1       -2 0.83797177E-01 0.40951991E+03</pdfrwt>
<totfact> 0.60637230E+01</totfact>
</mgrwt>
</event>
<event>
 4    1  0.2533915E-002  0.4378761E+03  0.7818608E-02  0.1031400E+00
         -2   -1    0    0    0  501 -0.00000000000E+00  0.00000000000E+00  0.31042392010E+03  0.31042392010E+03  0.00000000000E+00 0.  1.
          2   -1    0    0  502    0  0.00000000000E+00 -0.00000000000E+00 -0.65467223732E+03  0.65467223732E+03  0.00000000000E+00 0. -1.
    9000007    1    1    2  502    0 -0.16910838565E+03 -0.56016511887E+02 -0.28686528671E+03  0.52347606289E+03  0.40000000000E+03 0. -1.
   -9000007    1    1    2    0  501  0.16910838565E+03  0.56016511887E+02 -0.57383030504E+02  0.44162009453E+03  0.40000000000E+03 0.  1.
<mgrwt>
<rscale>  2 0.43787612E+03</rscale>
<asrwt>0</asrwt>
<pdfrwt beam="1">  1        2 0.10071880E+00 0.43787612E+03</pdfrwt>
<pdfrwt beam="2">  1       -2 0.47757527E-01 0.43787612E+03</pdfrwt>
<totfact> 0.19047267E+02</totfact>
</mgrwt>
</event>
<event>
 4    1  0.2533915E-002  0.4448419E+03  0.7818608E-02  0.1029271E+00
         -2   -1    0    0    0  501 -0.00000000000E+00  0.00000000000E+00  0.19137857312E+04  0.19137857312E+04  0.00000000000E+00 0.  1.
          2   -1    0    0  502    0  0.00000000000E+00 -0.00000000000E+00 -0.10749689154E+03  0.10749689154E+03  0.00000000000E+00 0. -1.
    9000007    1    1    2  502    0  0.10334820889E+03 -0.16493471838E+03  0.70583053469E+03  0.83431472318E+03  0.40000000000E+03 0. -1.
   -9000007    1    1    2    0  501 -0.10334820889E+03  0.16493471838E+03  0.11004583050E+04  0.11869678996E+04  0.40000000000E+03 0.  1.
<mgrwt>
<rscale>  2 0.44484190E+03</rscale>
<asrwt>0</asrwt>
<pdfrwt beam="1">  1        2 0.16537985E-01 0.44484190E+03</pdfrwt>
<pdfrwt beam="2">  1       -2 0.29442855E+00 0.44484190E+03</pdfrwt>
<totfact> 0.13217206E+01</totfact>
</mgrwt>
</event>
<event>
 4    1  0.2533915E-002  0.4647039E+03  0.7818608E-02  0.1023426E+00
         -1   -1    0    0    0  501 -0.00000000000E+00  0.00000000000E+00  0.27769700751E+03  0.27769700751E+03  0.00000000000E+00 0.  1.
          1   -1    0    0  502    0  0.00000000000E+00 -0.00000000000E+00 -0.82793837226E+03  0.82793837226E+03  0.00000000000E+00 0. -1.
    9000007    1    1    2  502    0  0.20033143627E+03  0.12576572608E+03 -0.13887018213E+03  0.48500992743E+03  0.40000000000E+03 0.  1.
   -9000007    1    1    2    0  501 -0.20033143627E+03 -0.12576572608E+03 -0.41137118261E+03  0.62062545234E+03  0.40000000000E+03 0. -1.
<mgrwt>
<rscale>  2 0.46470389E+03</rscale>
<asrwt>0</asrwt>
<pdfrwt beam="1">  1        1 0.12737513E+00 0.46470389E+03</pdfrwt>
<pdfrwt beam="2">  1       -1 0.42722617E-01 0.46470389E+03</pdfrwt>
<totfact> 0.11781716E+02</totfact>
</mgrwt>
</event>
<event>
 4    1  0.2533915E-002  0.4392901E+03  0.7818608E-02  0.1030965E+00
          2   -1    0    0  502    0  0.00000000000E+00  0.00000000000E+00  0.55909825281E+03  0.55909825281E+03  0.00000000000E+00 0.  1.
         -2   -1    0    0    0  501 -0.00000000000E+00 -0.00000000000E+00 -0.45312443033E+03  0.45312443033E+03  0.00000000000E+00 0. -1.
    9000007    1    1    2  502    0  0.40280177322E+02 -0.17706874197E+03 -0.19406416363E+03  0.48024653218E+03  0.40000000000E+03 0. -1.
   -9000007    1    1    2    0  501 -0.40280177322E+02  0.17706874197E+03  0.30003798612E+03  0.53197615095E+03  0.40000000000E+03 0.  1.
<mgrwt>
<rscale>  2 0.43929015E+03</rscale>
<asrwt>0</asrwt>
<pdfrwt beam="1">  1        2 0.86015115E-01 0.43929015E+03</pdfrwt>
<pdfrwt beam="2">  1       -2 0.69711451E-01 0.43929015E+03</pdfrwt>
<totfact> 0.10466064E+02</totfact>
</mgrwt>
</event>
<event>
 4    1  0.2533915E-002  0.6469419E+03  0.7818608E-02  0.9812535E-01
         -2   -1    0    0    0  501 -0.00000000000E+00  0.00000000000E+00  0.16641473450E+04  0.16641473450E+04  0.00000000000E+00 0.  1.
          2   -1    0    0  502    0  0.00000000000E+00 -0.00000000000E+00 -0.28256886537E+03  0.28256886537E+03  0.00000000000E+00 0. -1.
    9000007    1    1    2  502    0  0.45670190005E+03 -0.22351092136E+03  0.10135422130E+04  0.12024148930E+04  0.40000000000E+03 0.  1.
   -9000007    1    1    2    0  501 -0.45670190005E+03  0.22351092136E+03  0.36803626672E+03  0.74430131741E+03  0.40000000000E+03 0. -1.
<mgrwt>
<rscale>  2 0.64694185E+03</rscale>
<asrwt>0</asrwt>
<pdfrwt beam="1">  1        2 0.43472134E-01 0.64694185E+03</pdfrwt>
<pdfrwt beam="2">  1       -2 0.25602266E+00 0.64694185E+03</pdfrwt>
<totfact> 0.72143252E+00</totfact>
</mgrwt>
</event>
<event>
 4    1  0.2533915E-002  0.4010631E+03  0.7818608E-02  0.1043412E+00
          2   -1    0    0  502    0  0.00000000000E+00  0.00000000000E+00  0.24563693874E+04  0.24563693874E+04  0.00000000000E+00 0. -1.
         -2   -1    0    0    0  501 -0.00000000000E+00 -0.00000000000E+00 -0.66318520642E+02  0.66318520642E+02  0.00000000000E+00 0.  1.
    9000007    1    1    2  502    0 -0.22942029505E+01 -0.29092469289E+02  0.13365617401E+04  0.13954386121E+04  0.40000000000E+03 0. -1.
   -9000007    1    1    2    0  501  0.22942029505E+01  0.29092469289E+02  0.10534891266E+04  0.11272492959E+04  0.40000000000E+03 0. -1.
<mgrwt>
<rscale>  2 0.40106313E+03</rscale>
<asrwt>0</asrwt>
<pdfrwt beam="1">  1        2 0.37790291E+00 0.40106313E+03</pdfrwt>
<pdfrwt beam="2">  1       -2 0.10202851E-01 0.40106313E+03</pdfrwt>
<totfact> 0.26549650E+02</totfact>
</mgrwt>
</event>
<event>
 4    1  0.2533915E-002  0.4064209E+03  0.7818608E-02  0.1041579E+00
         -2   -1    0    0    0  501 -0.00000000000E+00  0.00000000000E+00  0.23156085340E+04  0.23156085340E+04  0.00000000000E+00 0.  1.
          2   -1    0    0  502    0  0.00000000000E+00 -0.00000000000E+00 -0.84817381799E+02  0.84817381799E+02  0.00000000000E+00 0. -1.
    9000007    1    1    2  502    0 -0.71938814187E+02  0.16672318998E+01  0.15939602705E+04  0.16449581504E+04  0.40000000000E+03 0.  1.
   -9000007    1    1    2    0  501  0.71938814187E+02 -0.16672318998E+01  0.63683088163E+03  0.75546776533E+03  0.40000000000E+03 0. -1.
<mgrwt>
<rscale>  2 0.40642093E+03</rscale>
<asrwt>0</asrwt>
<pdfrwt beam="1">  1        2 0.13048830E-01 0.40642093E+03</pdfrwt>
<pdfrwt beam="2">  1       -2 0.35624742E+00 0.40642093E+03</pdfrwt>
<totfact> 0.75227235E+00</totfact>
</mgrwt>
</event>
<event>
 4    1  0.2533915E-002  0.4308481E+03  0.7818608E-02  0.1033592E+00
          1   -1    0    0  502    0  0.00000000000E+00  0.00000000000E+00  0.64546779076E+03  0.64546779076E+03  0.00000000000E+00 0.  1.
         -1   -1    0    0    0  501 -0.00000000000E+00 -0.00000000000E+00 -0.34684717537E+03  0.34684717537E+03  0.00000000000E+00 0. -1.
    9000007    1    1    2  502    0  0.13468149192E+03  0.86550432748E+02  0.35438918879E+03  0.55787254710E+03  0.40000000000E+03 0. -1.
   -9000007    1    1    2    0  501 -0.13468149192E+03 -0.86550432748E+02 -0.55768573402E+02  0.43444241903E+03  0.40000000000E+03 0. -1.
<mgrwt>
<rscale>  2 0.43084810E+03</rscale>
<asrwt>0</asrwt>
<pdfrwt beam="1">  1        1 0.99302737E-01 0.43084810E+03</pdfrwt>
<pdfrwt beam="2">  1       -1 0.53361104E-01 0.43084810E+03</pdfrwt>
<totfact> 0.11410778E+02</totfact>
</mgrwt>
</event>
<event>
 4    1  0.2533915E-002  0.4815287E+03  0.7818608E-02  0.1018716E+00
          2   -1    0    0  502    0  0.00000000000E+00  0.00000000000E+00  0.75621657914E+03  0.75621657914E+03  0.00000000000E+00 0. -1.
         -2   -1    0    0    0  501 -0.00000000000E+00 -0.00000000000E+00 -0.34076838959E+03  0.34076838959E+03  0.00000000000E+00 0.  1.
    9000007    1    1    2  502    0 -0.53523281885E+02  0.26268833899E+03  0.34089434247E+02  0.48273387562E+03  0.40000000000E+03 0.  1.
   -9000007    1    1    2    0  501  0.53523281885E+02 -0.26268833899E+03  0.38135875530E+03  0.61425109311E+03  0.40000000000E+03 0. -1.
<mgrwt>
<rscale>  2 0.48152872E+03</rscale>
<asrwt>0</asrwt>
<pdfrwt beam="1">  1        2 0.11634101E+00 0.48152872E+03</pdfrwt>
<pdfrwt beam="2">  1       -2 0.52425906E-01 0.48152872E+03</pdfrwt>
<totfact> 0.13134796E+02</totfact>
</mgrwt>
</event>
<event>
 4    1  0.2533915E-002  0.6382529E+03  0.7818608E-02  0.9829075E-01
          2   -1    0    0  502    0  0.00000000000E+00  0.00000000000E+00  0.23496403410E+03  0.23496403410E+03  0.00000000000E+00 0.  1.
         -2   -1    0    0    0  501 -0.00000000000E+00 -0.00000000000E+00 -0.19341737745E+04  0.19341737745E+04  0.00000000000E+00 0. -1.
    9000007    1    1    2  502    0 -0.49724660272E+03 -0.10612661138E+02 -0.50046968360E+03  0.81107133885E+03  0.40000000000E+03 0. -1.
   -9000007    1    1    2    0  501  0.49724660272E+03  0.10612661138E+02 -0.11987400568E+04  0.13580664698E+04  0.40000000000E+03 0. -1.
<mgrwt>
<rscale>  2 0.63825294E+03</rscale>
<asrwt>0</asrwt>
<pdfrwt beam="1">  1        2 0.36148312E-01 0.63825294E+03</pdfrwt>
<pdfrwt beam="2">  1       -2 0.29756521E+00 0.63825294E+03</pdfrwt>
<totfact> 0.50025008E+00</totfact>
</mgrwt>
</event>
<event>
 4    1  0.2533915E-002  0.4190496E+03  0.7818608E-02  0.1037376E+00
         -2   -1    0    0    0  501 -0.00000000000E+00  0.00000000000E+00  0.14570054721E+03  0.14570054721E+03  0.00000000000E+00 0. -1.
          2   -1    0    0  502    0  0.00000000000E+00 -0.00000000000E+00 -0.12075821091E+04  0.12075821091E+04  0.00000000000E+00 0.  1.
    9000007    1    1    2  502    0  0.89355768912E+02 -0.87281873781E+02 -0.50107410136E+03  0.65320581288E+03  0.40000000000E+03 0. -1.
   -9000007    1    1    2    0  501 -0.89355768912E+02  0.87281873781E+02 -0.56080746052E+03  0.70007684343E+03  0.40000000000E+03 0.  1.
<mgrwt>
<rscale>  2 0.41904961E+03</rscale>
<asrwt>0</asrwt>
<pdfrwt beam="1">  1        2 0.18578186E+00 0.41904961E+03</pdfrwt>
<pdfrwt beam="2">  1       -2 0.22415469E-01 0.41904961E+03</pdfrwt>
<totfact> 0.33773634E+02</totfact>
</mgrwt>
</event>
<event>
 4    1  0.2533915E-002  0.4865037E+03  0.7818608E-02  0.1017363E+00
         -2   -1    0    0    0  501 -0.00000000000E+00  0.00000000000E+00  0.10938194892E+04  0.10938194892E+04  0.00000000000E+00 0.  1.
          2   -1    0    0  502    0  0.00000000000E+00 -0.00000000000E+00 -0.30964690233E+03  0.30964690233E+03  0.00000000000E+00 0. -1.
    9000007    1    1    2  502    0 -0.13673577568E+03  0.24080944011E+03  0.69704689898E+01  0.48655364168E+03  0.40000000000E+03 0. -1.
   -9000007    1    1    2    0  501  0.13673577568E+03 -0.24080944011E+03  0.77720211793E+03  0.91691274989E+03  0.40000000000E+03 0.  1.
<mgrwt>
<rscale>  2 0.48650371E+03</rscale>
<asrwt>0</asrwt>
<pdfrwt beam="1">  1        2 0.47637986E-01 0.48650371E+03</pdfrwt>
<pdfrwt beam="2">  1       -2 0.16827992E+00 0.48650371E+03</pdfrwt>
<totfact> 0.24143621E+01</totfact>
</mgrwt>
</event>
<event>
 4    1  0.2533915E-002  0.4651527E+03  0.7818608E-02  0.1023297E+00
          2   -1    0    0  502    0  0.00000000000E+00  0.00000000000E+00  0.22934413254E+04  0.22934413254E+04  0.00000000000E+00 0.  1.
         -2   -1    0    0    0  501 -0.00000000000E+00 -0.00000000000E+00 -0.95802724172E+02  0.95802724172E+02  0.00000000000E+00 0. -1.
    9000007    1    1    2  502    0 -0.22195507633E+03  0.84279417722E+02  0.95129101355E+03  0.10589247701E+04  0.40000000000E+03 0. -1.
   -9000007    1    1    2    0  501  0.22195507633E+03 -0.84279417722E+02  0.12463475877E+04  0.13303192795E+04  0.40000000000E+03 0.  1.
<mgrwt>
<rscale>  2 0.46515274E+03</rscale>
<asrwt>0</asrwt>
<pdfrwt beam="1">  1        2 0.35283709E+00 0.46515274E+03</pdfrwt>
<pdfrwt beam="2">  1       -2 0.14738882E-01 0.46515274E+03</pdfrwt>
<totfact> 0.17648371E+02</totfact>
</mgrwt>
</event>
<event>
 4    1  0.2533915E-002  0.5824507E+03  0.7818608E-02  0.9942499E-01
         -2   -1    0    0    0  501 -0.00000000000E+00  0.00000000000E+00  0.69845775916E+03  0.69845775916E+03  0.00000000000E+00 0.  1.
          2   -1    0    0  502    0  0.00000000000E+00 -0.00000000000E+00 -0.48742934350E+03  0.48742934350E+03  0.00000000000E+00 0. -1.
    9000007    1    1    2  502    0 -0.17553398765E+03 -0.38527468883E+03  0.70310746768E+02  0.58667910120E+03  0.40000000000E+03 0.  1.
   -9000007    1    1    2    0  501  0.17553398765E+03  0.38527468883E+03  0.14071766890E+03  0.59920800146E+03  0.40000000000E+03 0. -1.
<mgrwt>
<rscale>  2 0.58245066E+03</rscale>
<asrwt>0</asrwt>
<pdfrwt beam="1">  1        2 0.74989130E-01 0.58245066E+03</pdfrwt>
<pdfrwt beam="2">  1       -2 0.10745504E+00 0.58245066E+03</pdfrwt>
<totfact> 0.45203033E+01</totfact>
</mgrwt>
</event>
<event>
 4    1  0.2533915E-002  0.4152381E+03  0.7818608E-02  0.1038627E+00
         -3   -1    0    0    0  501 -0.00000000000E+00  0.00000000000E+00  0.17356380352E+03  0.17356380352E+03  0.00000000000E+00 0.  1.
          3   -1    0    0  502    0  0.00000000000E+00 -0.00000000000E+00 -0.10490274390E+04  0.10490274390E+04  0.00000000000E+00 0. -1.
    9000007    1    1    2  502    0  0.51082681595E+02  0.99061790513E+02 -0.57846726418E+03  0.71207236601E+03  0.40000000000E+03 0. -1.
   -9000007    1    1    2    0  501 -0.51082681595E+02 -0.99061790513E+02 -0.29699637124E+03  0.51051887647E+03  0.40000000000E+03 0.  1.
<mgrwt>
<rscale>  2 0.41523810E+03</rscale>
<asrwt>0</asrwt>
<pdfrwt beam="1">  1        3 0.16138884E+00 0.41523810E+03</pdfrwt>
<pdfrwt beam="2">  1       -3 0.26702124E-01 0.41523810E+03</pdfrwt>
<totfact> 0.94595541E+00</totfact>
</mgrwt>
</event>
<event>
 4    1  0.2533915E-002  0.4173290E+03  0.7818608E-02  0.1037939E+00
          1   -1    0    0  502    0  0.00000000000E+00  0.00000000000E+00  0.43630248547E+03  0.43630248547E+03  0.00000000000E+00 0.  1.
         -1   -1    0    0    0  501 -0.00000000000E+00 -0.00000000000E+00 -0.59429247686E+03  0.59429247686E+03  0.00000000000E+00 0. -1.
    9000007    1    1    2  502    0 -0.11886424214E+03 -0.58951613182E+01 -0.37425173912E+03  0.56056027795E+03  0.40000000000E+03 0. -1.
   -9000007    1    1    2    0  501  0.11886424214E+03  0.58951613182E+01  0.21626174773E+03  0.47003468438E+03  0.40000000000E+03 0.  1.
<mgrwt>
<rscale>  2 0.41732896E+03</rscale>
<asrwt>0</asrwt>
<pdfrwt beam="1">  1        1 0.67123460E-01 0.41732896E+03</pdfrwt>
<pdfrwt beam="2">  1       -1 0.91429611E-01 0.41732896E+03</pdfrwt>
<totfact> 0.65670605E+01</totfact>
</mgrwt>
</event>
<event>
 4    1  0.2533915E-002  0.4927817E+03  0.7818608E-02  0.1015680E+00
          2   -1    0    0  502    0  0.00000000000E+00  0.00000000000E+00  0.10167746750E+04  0.10167746750E+04  0.00000000000E+00 0.  1.
         -2   -1    0    0    0  501 -0.00000000000E+00 -0.00000000000E+00 -0.33495880288E+03  0.33495880288E+03  0.00000000000E+00 0. -1.
    9000007    1    1    2  502    0  0.27977914607E+03 -0.67508838586E+02 -0.21166328242E+02  0.49323607666E+03  0.40000000000E+03 0. -1.
   -9000007    1    1    2    0  501 -0.27977914607E+03  0.67508838586E+02  0.70298220033E+03  0.85849740119E+03  0.40000000000E+03 0.  1.
<mgrwt>
<rscale>  2 0.49278171E+03</rscale>
<asrwt>0</asrwt>
<pdfrwt beam="1">  1        2 0.15642687E+00 0.49278171E+03</pdfrwt>
<pdfrwt beam="2">  1       -2 0.51532124E-01 0.49278171E+03</pdfrwt>
<totfact> 0.90793533E+01</totfact>
</mgrwt>
</event>
<event>
 4    1  0.2533915E-002  0.4113565E+03  0.7818608E-02  0.1039917E+00
         -3   -1    0    0    0  501 -0.00000000000E+00  0.00000000000E+00  0.94033521165E+02  0.94033521165E+02  0.00000000000E+00 0. -1.
          3   -1    0    0  502    0  0.00000000000E+00 -0.00000000000E+00 -0.20514334366E+04  0.20514334366E+04  0.00000000000E+00 0.  1.
    9000007    1    1    2  502    0  0.95952693756E+02  0.26909673597E+01 -0.13546224670E+04  0.14157034254E+04  0.40000000000E+03 0.  1.
   -9000007    1    1    2    0  501 -0.95952693756E+02 -0.26909673597E+01 -0.60277744843E+03  0.72976353231E+03  0.40000000000E+03 0. -1.
<mgrwt>
<rscale>  2 0.41135649E+03</rscale>
<asrwt>0</asrwt>
<pdfrwt beam="1">  1        3 0.31560514E+00 0.41135649E+03</pdfrwt>
<pdfrwt beam="2">  1       -3 0.14466696E-01 0.41135649E+03</pdfrwt>
<totfact> 0.35676614E+00</totfact>
</mgrwt>
</event>
<event>
 4    1  0.2533915E-002  0.4267531E+03  0.7818608E-02  0.1034891E+00
         -2   -1    0    0    0  501 -0.00000000000E+00  0.00000000000E+00  0.90644541500E+02  0.90644541500E+02  0.00000000000E+00 0.  1.
          2   -1    0    0  502    0  0.00000000000E+00 -0.00000000000E+00 -0.20101640724E+04  0.20101640724E+04  0.00000000000E+00 0. -1.
    9000007    1    1    2  502    0  0.57173914172E+02  0.13729292896E+03 -0.93613183558E+03  0.10288153471E+04  0.40000000000E+03 0.  1.
   -9000007    1    1    2    0  501 -0.57173914172E+02 -0.13729292896E+03 -0.98338769536E+03  0.10719932669E+04  0.40000000000E+03 0. -1.
<mgrwt>
<rscale>  2 0.42675310E+03</rscale>
<asrwt>0</asrwt>
<pdfrwt beam="1">  1        2 0.30925598E+00 0.42675310E+03</pdfrwt>
<pdfrwt beam="2">  1       -2 0.13945316E-01 0.42675310E+03</pdfrwt>
<totfact> 0.27696157E+02</totfact>
</mgrwt>
</event>
<event>
 4    1  0.2533915E-002  0.4093970E+03  0.7818608E-02  0.1040574E+00
         -2   -1    0    0    0  501 -0.00000000000E+00  0.00000000000E+00  0.14587065444E+04  0.14587065444E+04  0.00000000000E+00 0. -1.
          2   -1    0    0  502    0  0.00000000000E+00 -0.00000000000E+00 -0.11491644295E+03  0.11491644295E+03  0.00000000000E+00 0.  1.
    9000007    1    1    2  502    0 -0.28831465808E+02  0.82308286606E+02  0.68120310514E+03  0.79476007570E+03  0.40000000000E+03 0.  1.
   -9000007    1    1    2    0  501  0.28831465808E+02 -0.82308286606E+02  0.66258699632E+03  0.77886291165E+03  0.40000000000E+03 0.  1.
<mgrwt>
<rscale>  2 0.40939700E+03</rscale>
<asrwt>0</asrwt>
<pdfrwt beam="1">  1        2 0.17679454E-01 0.40939700E+03</pdfrwt>
<pdfrwt beam="2">  1       -2 0.22441638E+00 0.40939700E+03</pdfrwt>
<totfact> 0.32107023E+01</totfact>
</mgrwt>
</event>
<event>
 4    1  0.2533915E-002  0.4886255E+03  0.7818608E-02  0.1016791E+00
          2   -1    0    0  502    0  0.00000000000E+00  0.00000000000E+00  0.43386257078E+03  0.43386257078E+03  0.00000000000E+00 0.  1.
         -2   -1    0    0    0  501 -0.00000000000E+00 -0.00000000000E+00 -0.14668083620E+04  0.14668083620E+04  0.00000000000E+00 0. -1.
    9000007    1    1    2  502    0  0.27029488014E+03 -0.75469030794E+02 -0.12676775804E+04  0.13585879966E+04  0.40000000000E+03 0. -1.
   -9000007    1    1    2    0  501 -0.27029488014E+03  0.75469030794E+02  0.23473178914E+03  0.54208293616E+03  0.40000000000E+03 0.  1.
<mgrwt>
<rscale>  2 0.48862552E+03</rscale>
<asrwt>0</asrwt>
<pdfrwt beam="1">  1        2 0.66748088E-01 0.48862552E+03</pdfrwt>
<pdfrwt beam="2">  1       -2 0.22566282E+00 0.48862552E+03</pdfrwt>
<totfact> 0.70136197E+00</totfact>
</mgrwt>
</event>
<event>
 4    1  0.2533915E-002  0.4641902E+03  0.7818608E-02  0.1023573E+00
          2   -1    0    0  502    0  0.00000000000E+00  0.00000000000E+00  0.42330403730E+04  0.42330403730E+04  0.00000000000E+00 0. -1.
         -2   -1    0    0    0  501 -0.00000000000E+00 -0.00000000000E+00 -0.53682012542E+02  0.53682012542E+02  0.00000000000E+00 0.  1.
    9000007    1    1    2  502    0  0.11148129227E+03  0.20747156351E+03  0.25773893030E+04  0.26188562671E+04  0.40000000000E+03 0. -1.
   -9000007    1    1    2    0  501 -0.11148129227E+03 -0.20747156351E+03  0.16019690574E+04  0.16678661185E+04  0.40000000000E+03 0.  1.
<mgrwt>
<rscale>  2 0.46419019E+03</rscale>
<asrwt>0</asrwt>
<pdfrwt beam="1">  1        2 0.65123672E+00 0.46419019E+03</pdfrwt>
<pdfrwt beam="2">  1       -2 0.82587745E-02 0.46419019E+03</pdfrwt>
<totfact> 0.24278707E+01</totfact>
</mgrwt>
</event>
<event>
 4    1  0.2533915E-002  0.8629410E+03  0.7818608E-02  0.9473131E-01
          2   -1    0    0  502    0  0.00000000000E+00  0.00000000000E+00  0.20322426531E+03  0.20322426531E+03  0.00000000000E+00 0. -1.
         -2   -1    0    0    0  501 -0.00000000000E+00 -0.00000000000E+00 -0.37934173020E+04  0.37934173020E+04  0.00000000000E+00 0.  1.
    9000007    1    1    2  502    0 -0.12143486954E+03  0.75493091464E+03 -0.14263697338E+04  0.16670925982E+04  0.40000000000E+03 0.  1.
   -9000007    1    1    2    0  501  0.12143486954E+03 -0.75493091464E+03 -0.21638233029E+04  0.23295489692E+04  0.40000000000E+03 0. -1.
<mgrwt>
<rscale>  2 0.86294097E+03</rscale>
<asrwt>0</asrwt>
<pdfrwt beam="1">  1        2 0.31265274E-01 0.86294097E+03</pdfrwt>
<pdfrwt beam="2">  1       -2 0.58360261E+00 0.86294097E+03</pdfrwt>
<totfact> 0.10131620E-01</totfact>
</mgrwt>
</event>
<event>
 4    1  0.2533915E-002  0.4263588E+03  0.7818608E-02  0.1035016E+00
         -2   -1    0    0    0  501 -0.00000000000E+00  0.00000000000E+00  0.78881731521E+02  0.78881731521E+02  0.00000000000E+00 0.  1.
          2   -1    0    0  502    0  0.00000000000E+00 -0.00000000000E+00 -0.26304995264E+04  0.26304995264E+04  0.00000000000E+00 0. -1.
    9000007    1    1    2  502    0 -0.11261001923E+03  0.95398162044E+02 -0.17527217129E+04  0.18038334814E+04  0.40000000000E+03 0.  1.
   -9000007    1    1    2    0  501  0.11261001923E+03 -0.95398162044E+02 -0.79889608195E+03  0.90554777649E+03  0.40000000000E+03 0.  1.
<mgrwt>
<rscale>  2 0.42635880E+03</rscale>
<asrwt>0</asrwt>
<pdfrwt beam="1">  1        2 0.40469222E+00 0.42635880E+03</pdfrwt>
<pdfrwt beam="2">  1       -2 0.12135652E-01 0.42635880E+03</pdfrwt>
<totfact> 0.15929293E+02</totfact>
</mgrwt>
</event>
<event>
 4    1  0.2533915E-002  0.4201503E+03  0.7818608E-02  0.1037017E+00
          1   -1    0    0  502    0  0.00000000000E+00  0.00000000000E+00  0.15353542060E+04  0.15353542060E+04  0.00000000000E+00 0.  1.
         -1   -1    0    0    0  501 -0.00000000000E+00 -0.00000000000E+00 -0.11804373299E+03  0.11804373299E+03  0.00000000000E+00 0. -1.
    9000007    1    1    2  502    0 -0.26048377789E+02  0.12588797101E+03  0.84196252493E+03  0.94097140903E+03  0.40000000000E+03 0.  1.
   -9000007    1    1    2    0  501  0.26048377789E+02 -0.12588797101E+03  0.57534794812E+03  0.71242652999E+03  0.40000000000E+03 0. -1.
<mgrwt>
<rscale>  2 0.42015033E+03</rscale>
<asrwt>0</asrwt>
<pdfrwt beam="1">  1        1 0.23620832E+00 0.42015033E+03</pdfrwt>
<pdfrwt beam="2">  1       -1 0.18160575E-01 0.42015033E+03</pdfrwt>
<totfact> 0.15700287E+02</totfact>
</mgrwt>
</event>
<event>
 4    1  0.2533915E-002  0.6402571E+03  0.7818608E-02  0.9825235E-01
          1   -1    0    0  502    0  0.00000000000E+00  0.00000000000E+00  0.14574913126E+04  0.14574913126E+04  0.00000000000E+00 0.  1.
         -1   -1    0    0    0  501 -0.00000000000E+00 -0.00000000000E+00 -0.28378080432E+03  0.28378080432E+03  0.00000000000E+00 0. -1.
    9000007    1    1    2  502    0  0.12839707635E+03  0.48315971773E+03  0.50474390123E+03  0.81528861631E+03  0.40000000000E+03 0.  1.
   -9000007    1    1    2    0  501 -0.12839707635E+03 -0.48315971773E+03  0.66896660700E+03  0.92598350057E+03  0.40000000000E+03 0. -1.
<mgrwt>
<rscale>  2 0.64025707E+03</rscale>
<asrwt>0</asrwt>
<pdfrwt beam="1">  1        1 0.22422943E+00 0.64025707E+03</pdfrwt>
<pdfrwt beam="2">  1       -1 0.43658586E-01 0.64025707E+03</pdfrwt>
<totfact> 0.37886989E+01</totfact>
</mgrwt>
</event>
<event>
 4    1  0.2533915E-002  0.5299307E+03  0.7818608E-02  0.1006249E+00
          2   -1    0    0  502    0  0.00000000000E+00  0.00000000000E+00  0.16653336182E+04  0.16653336182E+04  0.00000000000E+00 0. -1.
         -2   -1    0    0    0  501 -0.00000000000E+00 -0.00000000000E+00 -0.55864614038E+03  0.55864614038E+03  0.00000000000E+00 0.  1.
    9000007    1    1    2  502    0 -0.20329920822E+03  0.28195025561E+03 -0.37577942267E+03  0.64964350932E+03  0.40000000000E+03 0.  1.
   -9000007    1    1    2    0  501  0.20329920822E+03 -0.28195025561E+03  0.14824669004E+04  0.15743362492E+04  0.40000000000E+03 0. -1.
<mgrwt>
<rscale>  2 0.52993067E+03</rscale>
<asrwt>0</asrwt>
<pdfrwt beam="1">  1        2 0.25620517E+00 0.52993067E+03</pdfrwt>
<pdfrwt beam="2">  1       -2 0.85945561E-01 0.52993067E+03</pdfrwt>
<totfact> 0.12832376E+01</totfact>
</mgrwt>
</event>
<event>
 4    1  0.2533915E-002  0.4098671E+03  0.7818608E-02  0.1040416E+00
         -1   -1    0    0    0  501 -0.00000000000E+00  0.00000000000E+00  0.83228184309E+02  0.83228184309E+02  0.00000000000E+00 0. -1.
          1   -1    0    0  502    0  0.00000000000E+00 -0.00000000000E+00 -0.20293270618E+04  0.20293270618E+04  0.00000000000E+00 0.  1.
    9000007    1    1    2  502    0 -0.37166504121E+02  0.81299878442E+02 -0.89567885564E+03  0.98500336634E+03  0.40000000000E+03 0. -1.
   -9000007    1    1    2    0  501  0.37166504121E+02 -0.81299878442E+02 -0.10504200219E+04  0.11275518798E+04  0.40000000000E+03 0.  1.
<mgrwt>
<rscale>  2 0.40986708E+03</rscale>
<asrwt>0</asrwt>
<pdfrwt beam="1">  1        1 0.31220416E+00 0.40986708E+03</pdfrwt>
<pdfrwt beam="2">  1       -1 0.12804336E-01 0.40986708E+03</pdfrwt>
<totfact> 0.13015525E+02</totfact>
</mgrwt>
</event>
<event>
 4    1  0.2533915E-002  0.4292326E+03  0.7818608E-02  0.1034103E+00
          2   -1    0    0  502    0  0.00000000000E+00  0.00000000000E+00  0.90476992506E+03  0.90476992506E+03  0.00000000000E+00 0.  1.
         -2   -1    0    0    0  501 -0.00000000000E+00 -0.00000000000E+00 -0.21248144502E+03  0.21248144502E+03  0.00000000000E+00 0. -1.
    9000007    1    1    2  502    0  0.57287689064E+01  0.15558854428E+03  0.23214427212E+03  0.48798727133E+03  0.40000000000E+03 0. -1.
   -9000007    1    1    2    0  501 -0.57287689064E+01 -0.15558854428E+03  0.46014420792E+03  0.62926409876E+03  0.40000000000E+03 0.  1.
<mgrwt>
<rscale>  2 0.42923259E+03</rscale>
<asrwt>0</asrwt>
<pdfrwt beam="1">  1        2 0.13919537E+00 0.42923259E+03</pdfrwt>
<pdfrwt beam="2">  1       -2 0.32689453E-01 0.42923259E+03</pdfrwt>
<totfact> 0.26135758E+02</totfact>
</mgrwt>
</event>
<event>
 4    1  0.2533915E-002  0.5516450E+03  0.7818608E-02  0.1001114E+00
         -2   -1    0    0    0  501 -0.00000000000E+00  0.00000000000E+00  0.17129582841E+03  0.17129582841E+03  0.00000000000E+00 0. -1.
          2   -1    0    0  502    0  0.00000000000E+00 -0.00000000000E+00 -0.19807970834E+04  0.19807970834E+04  0.00000000000E+00 0.  1.
    9000007    1    1    2  502    0 -0.37904026505E+03  0.25311494384E+02 -0.12503000096E+04  0.13665878341E+04  0.40000000000E+03 0.  1.
   -9000007    1    1    2    0  501  0.37904026505E+03 -0.25311494384E+02 -0.55920124541E+03  0.78550507774E+03  0.40000000000E+03 0. -1.
<mgrwt>
<rscale>  2 0.55164499E+03</rscale>
<asrwt>0</asrwt>
<pdfrwt beam="1">  1        2 0.30473802E+00 0.55164499E+03</pdfrwt>
<pdfrwt beam="2">  1       -2 0.26353204E-01 0.55164499E+03</pdfrwt>
<totfact> 0.93797465E+01</totfact>
</mgrwt>
</event>
<event>
 4    1  0.2533915E-002  0.5366163E+03  0.7818608E-02  0.1004640E+00
          2   -1    0    0  502    0  0.00000000000E+00  0.00000000000E+00  0.64082252003E+03  0.64082252003E+03  0.00000000000E+00 0.  1.
         -2   -1    0    0    0  501 -0.00000000000E+00 -0.00000000000E+00 -0.53755777489E+03  0.53755777489E+03  0.00000000000E+00 0. -1.
    9000007    1    1    2  502    0  0.11033514011E+03  0.34026934568E+03 -0.18702947564E+03  0.56827554541E+03  0.40000000000E+03 0. -1.
   -9000007    1    1    2    0  501 -0.11033514011E+03 -0.34026934568E+03  0.29029422079E+03  0.61010474951E+03  0.40000000000E+03 0.  1.
<mgrwt>
<rscale>  2 0.53661632E+03</rscale>
<asrwt>0</asrwt>
<pdfrwt beam="1">  1        2 0.98588080E-01 0.53661632E+03</pdfrwt>
<pdfrwt beam="2">  1       -2 0.82701196E-01 0.53661632E+03</pdfrwt>
<totfact> 0.60444328E+01</totfact>
</mgrwt>
</event>
<event>
 4    1  0.2533915E-002  0.4235965E+03  0.7818608E-02  0.1035902E+00
          1   -1    0    0  502    0  0.00000000000E+00  0.00000000000E+00  0.73063124165E+03  0.73063124165E+03  0.00000000000E+00 0.  1.
         -1   -1    0    0    0  501 -0.00000000000E+00 -0.00000000000E+00 -0.43377818354E+03  0.43377818354E+03  0.00000000000E+00 0. -1.
    9000007    1    1    2  502    0  0.13878110380E+03  0.13182709640E+02 -0.23505177619E+03  0.48444124112E+03  0.40000000000E+03 0. -1.
   -9000007    1    1    2    0  501 -0.13878110380E+03 -0.13182709640E+02  0.53190483430E+03  0.67996818407E+03  0.40000000000E+03 0.  1.
<mgrwt>
<rscale>  2 0.42359648E+03</rscale>
<asrwt>0</asrwt>
<pdfrwt beam="1">  1        1 0.11240481E+00 0.42359648E+03</pdfrwt>
<pdfrwt beam="2">  1       -1 0.66735105E-01 0.42359648E+03</pdfrwt>
<totfact> 0.61526438E+01</totfact>
</mgrwt>
</event>
<event>
 4    1  0.2533915E-002  0.4260345E+03  0.7818608E-02  0.1035120E+00
          1   -1    0    0  502    0  0.00000000000E+00  0.00000000000E+00  0.11989886198E+04  0.11989886198E+04  0.00000000000E+00 0. -1.
         -1   -1    0    0    0  501 -0.00000000000E+00 -0.00000000000E+00 -0.37305280614E+03  0.37305280614E+03  0.00000000000E+00 0.  1.
    9000007    1    1    2  502    0 -0.12797229101E+03 -0.71613415245E+02 -0.19293496247E+03  0.46768503103E+03  0.40000000000E+03 0.  1.
   -9000007    1    1    2    0  501  0.12797229101E+03  0.71613415245E+02  0.10188707761E+04  0.11043563949E+04  0.40000000000E+03 0. -1.
<mgrwt>
<rscale>  2 0.42603449E+03</rscale>
<asrwt>0</asrwt>
<pdfrwt beam="1">  1        1 0.18445979E+00 0.42603449E+03</pdfrwt>
<pdfrwt beam="2">  1       -1 0.57392740E-01 0.42603449E+03</pdfrwt>
<totfact> 0.35503039E+01</totfact>
</mgrwt>
</event>
<event>
 4    1  0.2533915E-002  0.4937492E+03  0.7818608E-02  0.1015423E+00
          1   -1    0    0  502    0  0.00000000000E+00  0.00000000000E+00  0.13358070972E+04  0.13358070972E+04  0.00000000000E+00 0. -1.
         -1   -1    0    0    0  501 -0.00000000000E+00 -0.00000000000E+00 -0.27331735133E+03  0.27331735133E+03  0.00000000000E+00 0.  1.
    9000007    1    1    2  502    0  0.13648784184E+03  0.25526324046E+03  0.67473152759E+02  0.49833811739E+03  0.40000000000E+03 0. -1.
   -9000007    1    1    2    0  501 -0.13648784184E+03 -0.25526324046E+03  0.99501659315E+03  0.11107863312E+04  0.40000000000E+03 0. -1.
<mgrwt>
<rscale>  2 0.49374918E+03</rscale>
<asrwt>0</asrwt>
<pdfrwt beam="1">  1        1 0.20550878E+00 0.49374918E+03</pdfrwt>
<pdfrwt beam="2">  1       -1 0.42048824E-01 0.49374918E+03</pdfrwt>
<totfact> 0.50311369E+01</totfact>
</mgrwt>
</event>
<event>
 4    1  0.2533915E-002  0.4605822E+03  0.7818608E-02  0.1024613E+00
         -2   -1    0    0    0  501 -0.00000000000E+00  0.00000000000E+00  0.29361883663E+03  0.29361883663E+03  0.00000000000E+00 0. -1.
          2   -1    0    0  502    0  0.00000000000E+00 -0.00000000000E+00 -0.85322972129E+03  0.85322972129E+03  0.00000000000E+00 0.  1.
    9000007    1    1    2  502    0  0.21360877595E+03  0.80667488554E+02 -0.55339248742E+02  0.46389479985E+03  0.40000000000E+03 0. -1.
   -9000007    1    1    2    0  501 -0.21360877595E+03 -0.80667488554E+02 -0.50427163592E+03  0.68295375808E+03  0.40000000000E+03 0.  1.
<mgrwt>
<rscale>  2 0.46058219E+03</rscale>
<asrwt>0</asrwt>
<pdfrwt beam="1">  1        2 0.13126611E+00 0.46058219E+03</pdfrwt>
<pdfrwt beam="2">  1       -2 0.45172129E-01 0.46058219E+03</pdfrwt>
<totfact> 0.15161355E+02</totfact>
</mgrwt>
</event>
<event>
 4    1  0.2533915E-002  0.5263585E+03  0.7818608E-02  0.1007119E+00
         -1   -1    0    0    0  501 -0.00000000000E+00  0.00000000000E+00  0.31604395986E+03  0.31604395986E+03  0.00000000000E+00 0.  1.
          1   -1    0    0  502    0  0.00000000000E+00 -0.00000000000E+00 -0.87741977384E+03  0.87741977384E+03  0.00000000000E+00 0. -1.
    9000007    1    1    2  502    0  0.20779237234E+03  0.27180066601E+03 -0.26277251243E+03  0.58830490847E+03  0.40000000000E+03 0. -1.
   -9000007    1    1    2    0  501 -0.20779237234E+03 -0.27180066601E+03 -0.29860330156E+03  0.60515882523E+03  0.40000000000E+03 0.  1.
<mgrwt>
<rscale>  2 0.52635850E+03</rscale>
<asrwt>0</asrwt>
<pdfrwt beam="1">  1        1 0.13498766E+00 0.52635850E+03</pdfrwt>
<pdfrwt beam="2">  1       -1 0.48622148E-01 0.52635850E+03</pdfrwt>
<totfact> 0.83841594E+01</totfact>
</mgrwt>
</event>
<event>
 4    1  0.2533915E-002  0.4811600E+03  0.7818608E-02  0.1018817E+00
         -2   -1    0    0    0  501 -0.00000000000E+00  0.00000000000E+00  0.78222696945E+03  0.78222696945E+03  0.00000000000E+00 0.  1.
          2   -1    0    0  502    0  0.00000000000E+00 -0.00000000000E+00 -0.10658131993E+04  0.10658131993E+04  0.00000000000E+00 0. -1.
    9000007    1    1    2  502    0 -0.55480632640E+02  0.26160436480E+03 -0.92710520043E+03  0.10445281217E+04  0.40000000000E+03 0. -1.
   -9000007    1    1    2    0  501  0.55480632640E+02 -0.26160436480E+03  0.64351897059E+03  0.80351204707E+03  0.40000000000E+03 0.  1.
<mgrwt>
<rscale>  2 0.48116000E+03</rscale>
<asrwt>0</asrwt>
<pdfrwt beam="1">  1        2 0.16397126E+00 0.48116000E+03</pdfrwt>
<pdfrwt beam="2">  1       -2 0.12034261E+00 0.48116000E+03</pdfrwt>
<totfact> 0.12768688E+01</totfact>
</mgrwt>
</event>
<event>
 4    1  0.2533915E-002  0.4656036E+03  0.7818608E-02  0.1023168E+00
         -2   -1    0    0    0  501 -0.00000000000E+00  0.00000000000E+00  0.91499852705E+02  0.91499852705E+02  0.00000000000E+00 0.  1.
          2   -1    0    0  502    0  0.00000000000E+00 -0.00000000000E+00 -0.23886171024E+04  0.23886171024E+04  0.00000000000E+00 0. -1.
    9000007    1    1    2  502    0  0.46804128709E+02 -0.23365809895E+03 -0.10369199968E+04  0.11366572981E+04  0.40000000000E+03 0. -1.
   -9000007    1    1    2    0  501 -0.46804128709E+02  0.23365809895E+03 -0.12601972529E+04  0.13434596570E+04  0.40000000000E+03 0. -1.
<mgrwt>
<rscale>  2 0.46560362E+03</rscale>
<asrwt>0</asrwt>
<pdfrwt beam="1">  1        2 0.36747948E+00 0.46560362E+03</pdfrwt>
<pdfrwt beam="2">  1       -2 0.14076903E-01 0.46560362E+03</pdfrwt>
<totfact> 0.16894593E+02</totfact>
</mgrwt>
</event>
<event>
 4    1  0.2533915E-002  0.5622618E+03  0.7818608E-02  0.9986950E-01
         -1   -1    0    0    0  501 -0.00000000000E+00  0.00000000000E+00  0.23584570457E+03  0.23584570457E+03  0.00000000000E+00 0.  1.
          1   -1    0    0  502    0  0.00000000000E+00 -0.00000000000E+00 -0.13494428782E+04  0.13494428782E+04  0.00000000000E+00 0. -1.
    9000007    1    1    2  502    0 -0.16593416370E+03  0.35861421210E+03 -0.62152185842E+03  0.83810961115E+03  0.40000000000E+03 0.  1.
   -9000007    1    1    2    0  501  0.16593416370E+03 -0.35861421210E+03 -0.49207531520E+03  0.74717897162E+03  0.40000000000E+03 0.  1.
<mgrwt>
<rscale>  2 0.56226177E+03</rscale>
<asrwt>0</asrwt>
<pdfrwt beam="1">  1        1 0.20760659E+00 0.56226177E+03</pdfrwt>
<pdfrwt beam="2">  1       -1 0.36283955E-01 0.56226177E+03</pdfrwt>
<totfact> 0.63542652E+01</totfact>
</mgrwt>
</event>
<event>
 4    1  0.2533915E-002  0.4104293E+03  0.7818608E-02  0.1040227E+00
          2   -1    0    0  502    0  0.00000000000E+00  0.00000000000E+00  0.90943226074E+03  0.90943226074E+03  0.00000000000E+00 0. -1.
         -2   -1    0    0    0  501 -0.00000000000E+00 -0.00000000000E+00 -0.18583920768E+03  0.18583920768E+03  0.00000000000E+00 0.  1.
    9000007    1    1    2  502    0  0.88870044024E+02 -0.23543854082E+02  0.33038675525E+03  0.52688481268E+03  0.40000000000E+03 0. -1.
   -9000007    1    1    2    0  501 -0.88870044024E+02  0.23543854082E+02  0.39320629781E+03  0.56838665575E+03  0.40000000000E+03 0. -1.
<mgrwt>
<rscale>  2 0.41042928E+03</rscale>
<asrwt>0</asrwt>
<pdfrwt beam="1">  1        2 0.13991265E+00 0.41042928E+03</pdfrwt>
<pdfrwt beam="2">  1       -2 0.28590648E-01 0.41042928E+03</pdfrwt>
<totfact> 0.33274693E+02</totfact>
</mgrwt>
</event>
<event>
 4    1  0.2533915E-002  0.4028023E+03  0.7818608E-02  0.1042814E+00
          2   -1    0    0  502    0  0.00000000000E+00  0.00000000000E+00  0.96912035204E+03  0.96912035204E+03  0.00000000000E+00 0.  1.
         -2   -1    0    0    0  501 -0.00000000000E+00 -0.00000000000E+00 -0.21674017361E+03  0.21674017361E+03  0.00000000000E+00 0. -1.
    9000007    1    1    2  502    0  0.48687294954E+01 -0.47180202725E+02  0.65903493312E+03  0.77238379005E+03  0.40000000000E+03 0.  1.
   -9000007    1    1    2    0  501 -0.48687294954E+01  0.47180202725E+02  0.93345245312E+02  0.41347673560E+03  0.40000000000E+03 0. -1.
<mgrwt>
<rscale>  2 0.40280228E+03</rscale>
<asrwt>0</asrwt>
<pdfrwt beam="1">  1        2 0.14909544E+00 0.40280228E+03</pdfrwt>
<pdfrwt beam="2">  1       -2 0.33344643E-01 0.40280228E+03</pdfrwt>
<totfact> 0.22942301E+02</totfact>
</mgrwt>
</event>
<event>
 4    1  0.2533915E-002  0.5229661E+03  0.7818608E-02  0.1007952E+00
          2   -1    0    0  502    0  0.00000000000E+00  0.00000000000E+00  0.66979882290E+03  0.66979882290E+03  0.00000000000E+00 0. -1.
         -2   -1    0    0    0  501 -0.00000000000E+00 -0.00000000000E+00 -0.42672647450E+03  0.42672647450E+03  0.00000000000E+00 0.  1.
    9000007    1    1    2  502    0 -0.23712387735E+03  0.23930274261E+03  0.76747482426E+01  0.52302240639E+03  0.40000000000E+03 0.  1.
   -9000007    1    1    2    0  501  0.23712387735E+03 -0.23930274261E+03  0.23539760015E+03  0.57350289100E+03  0.40000000000E+03 0.  1.
<mgrwt>
<rscale>  2 0.52296609E+03</rscale>
<asrwt>0</asrwt>
<pdfrwt beam="1">  1        2 0.10304597E+00 0.52296609E+03</pdfrwt>
<pdfrwt beam="2">  1       -2 0.65650227E-01 0.52296609E+03</pdfrwt>
<totfact> 0.95215248E+01</totfact>
</mgrwt>
</event>
<event>
 4    1  0.2533915E-002  0.4368003E+03  0.7818608E-02  0.1031733E+00
          2   -1    0    0  502    0  0.00000000000E+00  0.00000000000E+00  0.13249154913E+04  0.13249154913E+04  0.00000000000E+00 0.  1.
         -2   -1    0    0    0  501 -0.00000000000E+00 -0.00000000000E+00 -0.14831333717E+03  0.14831333717E+03  0.00000000000E+00 0. -1.
    9000007    1    1    2  502    0 -0.12493163197E+03 -0.12323386121E+03  0.46275493902E+03  0.63634631358E+03  0.40000000000E+03 0. -1.
   -9000007    1    1    2    0  501  0.12493163197E+03  0.12323386121E+03  0.71384721507E+03  0.83688251486E+03  0.40000000000E+03 0.  1.
<mgrwt>
<rscale>  2 0.43680029E+03</rscale>
<asrwt>0</asrwt>
<pdfrwt beam="1">  1        2 0.20383314E+00 0.43680029E+03</pdfrwt>
<pdfrwt beam="2">  1       -2 0.22817437E-01 0.43680029E+03</pdfrwt>
<totfact> 0.28011212E+02</totfact>
</mgrwt>
</event>
<event>
 4    1  0.2533915E-002  0.5670758E+03  0.7818608E-02  0.9976170E-01
         -1   -1    0    0    0  501 -0.00000000000E+00  0.00000000000E+00  0.42994284694E+03  0.42994284694E+03  0.00000000000E+00 0.  1.
          1   -1    0    0  502    0  0.00000000000E+00 -0.00000000000E+00 -0.83158146721E+03  0.83158146721E+03  0.00000000000E+00 0. -1.
    9000007    1    1    2  502    0 -0.27400526129E+03  0.29410214766E+03 -0.40085288350E+03  0.69444797550E+03  0.40000000000E+03 0. -1.
   -9000007    1    1    2    0  501  0.27400526129E+03 -0.29410214766E+03 -0.78573677305E+00  0.56707633865E+03  0.40000000000E+03 0.  1.
<mgrwt>
<rscale>  2 0.56707579E+03</rscale>
<asrwt>0</asrwt>
<pdfrwt beam="1">  1        1 0.12793561E+00 0.56707579E+03</pdfrwt>
<pdfrwt beam="2">  1       -1 0.66145054E-01 0.56707579E+03</pdfrwt>
<totfact> 0.50187286E+01</totfact>
</mgrwt>
</event>
<event>
 4    1  0.2533915E-002  0.4038794E+03  0.7818608E-02  0.1042445E+00
          1   -1    0    0  502    0  0.00000000000E+00  0.00000000000E+00  0.43932964339E+03  0.43932964339E+03  0.00000000000E+00 0. -1.
         -1   -1    0    0    0  501 -0.00000000000E+00 -0.00000000000E+00 -0.46355385096E+03  0.46355385096E+03  0.00000000000E+00 0.  1.
    9000007    1    1    2  502    0  0.29421250972E+02  0.47465260480E+02  0.18929193379E+03  0.44603811178E+03  0.40000000000E+03 0. -1.
   -9000007    1    1    2    0  501 -0.29421250972E+02 -0.47465260480E+02 -0.21351614136E+03  0.45684538258E+03  0.40000000000E+03 0.  1.
<mgrwt>
<rscale>  2 0.40387939E+03</rscale>
<asrwt>0</asrwt>
<pdfrwt beam="1">  1        1 0.67589176E-01 0.40387939E+03</pdfrwt>
<pdfrwt beam="2">  1       -1 0.71315977E-01 0.40387939E+03</pdfrwt>
<totfact> 0.10997435E+02</totfact>
</mgrwt>
</event>
<event>
 4    1  0.2533915E-002  0.5324386E+03  0.7818608E-02  0.1005642E+00
          2   -1    0    0  502    0  0.00000000000E+00  0.00000000000E+00  0.13339958536E+04  0.13339958536E+04  0.00000000000E+00 0. -1.
         -2   -1    0    0    0  501 -0.00000000000E+00 -0.00000000000E+00 -0.34076998062E+03  0.34076998062E+03  0.00000000000E+00 0.  1.
    9000007    1    1    2  502    0 -0.24584783156E+03  0.25109703091E+03  0.10103426449E+04  0.11420521597E+04  0.40000000000E+03 0. -1.
   -9000007    1    1    2    0  501  0.24584783156E+03 -0.25109703091E+03 -0.17116771919E+02  0.53271367459E+03  0.40000000000E+03 0.  1.
<mgrwt>
<rscale>  2 0.53243861E+03</rscale>
<asrwt>0</asrwt>
<pdfrwt beam="1">  1        2 0.20523013E+00 0.53243861E+03</pdfrwt>
<pdfrwt beam="2">  1       -2 0.52426152E-01 0.53243861E+03</pdfrwt>
<totfact> 0.56665326E+01</totfact>
</mgrwt>
</event>
<event>
 4    1  0.2533915E-002  0.4222927E+03  0.7818608E-02  0.1036323E+00
          2   -1    0    0  502    0  0.00000000000E+00  0.00000000000E+00  0.97981610249E+03  0.97981610249E+03  0.00000000000E+00 0. -1.
         -2   -1    0    0    0  501 -0.00000000000E+00 -0.00000000000E+00 -0.18435406585E+03  0.18435406585E+03  0.00000000000E+00 0.  1.
    9000007    1    1    2  502    0  0.24948423289E+02  0.13307404107E+03  0.46344178386E+03  0.62698437880E+03  0.40000000000E+03 0.  1.
   -9000007    1    1    2    0  501 -0.24948423289E+02 -0.13307404107E+03  0.33202025277E+03  0.53718578954E+03  0.40000000000E+03 0.  1.
<mgrwt>
<rscale>  2 0.42229270E+03</rscale>
<asrwt>0</asrwt>
<pdfrwt beam="1">  1        2 0.15074094E+00 0.42229270E+03</pdfrwt>
<pdfrwt beam="2">  1       -2 0.28362165E-01 0.42229270E+03</pdfrwt>
<totfact> 0.30394285E+02</totfact>
</mgrwt>
</event>
<event>
 4    1  0.2533915E-002  0.4722678E+03  0.7818608E-02  0.1021282E+00
         -1   -1    0    0    0  501 -0.00000000000E+00  0.00000000000E+00  0.12193675626E+03  0.12193675626E+03  0.00000000000E+00 0.  1.
          1   -1    0    0  502    0  0.00000000000E+00 -0.00000000000E+00 -0.18455121394E+04  0.18455121394E+04  0.00000000000E+00 0. -1.
    9000007    1    1    2  502    0  0.14725516638E+03  0.20335380600E+03 -0.76907391838E+03  0.90250293428E+03  0.40000000000E+03 0. -1.
   -9000007    1    1    2    0  501 -0.14725516638E+03 -0.20335380600E+03 -0.95450146480E+03  0.10649459614E+04  0.40000000000E+03 0.  1.
<mgrwt>
<rscale>  2 0.47226778E+03</rscale>
<asrwt>0</asrwt>
<pdfrwt beam="1">  1        1 0.28392493E+00 0.47226778E+03</pdfrwt>
<pdfrwt beam="2">  1       -1 0.18759502E-01 0.47226778E+03</pdfrwt>
<totfact> 0.91899082E+01</totfact>
</mgrwt>
</event>
<event>
 4    1  0.2533915E-002  0.4355291E+03  0.7818608E-02  0.1032127E+00
          2   -1    0    0  502    0  0.00000000000E+00  0.00000000000E+00  0.30215554058E+03  0.30215554058E+03  0.00000000000E+00 0.  1.
         -2   -1    0    0    0  501 -0.00000000000E+00 -0.00000000000E+00 -0.76757176448E+03  0.76757176448E+03  0.00000000000E+00 0. -1.
    9000007    1    1    2  502    0  0.10001359143E+02  0.17200465171E+03 -0.46096952183E+03  0.63417547055E+03  0.40000000000E+03 0. -1.
   -9000007    1    1    2    0  501 -0.10001359143E+02 -0.17200465171E+03 -0.44467020716E+01  0.43555183452E+03  0.40000000000E+03 0.  1.
<mgrwt>
<rscale>  2 0.43552913E+03</rscale>
<asrwt>0</asrwt>
<pdfrwt beam="1">  1        2 0.46485469E-01 0.43552913E+03</pdfrwt>
<pdfrwt beam="2">  1       -2 0.11808796E+00 0.43552913E+03</pdfrwt>
<totfact> 0.62131178E+01</totfact>
</mgrwt>
</event>
<event>
 4    1  0.2533915E-002  0.4294082E+03  0.7818608E-02  0.1034047E+00
         -2   -1    0    0    0  501 -0.00000000000E+00  0.00000000000E+00  0.15029429416E+03  0.15029429416E+03  0.00000000000E+00 0.  1.
          2   -1    0    0  502    0  0.00000000000E+00 -0.00000000000E+00 -0.13630700741E+04  0.13630700741E+04  0.00000000000E+00 0. -1.
    9000007    1    1    2  502    0 -0.14016648313E+03  0.68881955051E+02 -0.84557906182E+03  0.94836454832E+03  0.40000000000E+03 0.  1.
   -9000007    1    1    2    0  501  0.14016648313E+03 -0.68881955051E+02 -0.36719671808E+03  0.56499981991E+03  0.40000000000E+03 0.  1.
<mgrwt>
<rscale>  2 0.42940816E+03</rscale>
<asrwt>0</asrwt>
<pdfrwt beam="1">  1        2 0.20970309E+00 0.42940816E+03</pdfrwt>
<pdfrwt beam="2">  1       -2 0.23122199E-01 0.42940816E+03</pdfrwt>
<totfact> 0.26069289E+02</totfact>
</mgrwt>
</event>
<event>
 4    1  0.2533915E-002  0.4172497E+03  0.7818608E-02  0.1037965E+00
          2   -1    0    0  502    0  0.00000000000E+00  0.00000000000E+00  0.12283218048E+04  0.12283218048E+04  0.00000000000E+00 0.  1.
         -2   -1    0    0    0  501 -0.00000000000E+00 -0.00000000000E+00 -0.14197014843E+03  0.14197014843E+03  0.00000000000E+00 0. -1.
    9000007    1    1    2  502    0  0.11754721839E+03  0.16731371818E+02  0.51534476267E+03  0.66308182886E+03  0.40000000000E+03 0.  1.
   -9000007    1    1    2    0  501 -0.11754721839E+03 -0.16731371818E+02  0.57100689370E+03  0.70721012437E+03  0.40000000000E+03 0. -1.
<mgrwt>
<rscale>  2 0.41724967E+03</rscale>
<asrwt>0</asrwt>
<pdfrwt beam="1">  1        2 0.18897258E+00 0.41724967E+03</pdfrwt>
<pdfrwt beam="2">  1       -2 0.21841562E-01 0.41724967E+03</pdfrwt>
<totfact> 0.34392617E+02</totfact>
</mgrwt>
</event>
<event>
 4    1  0.2533915E-002  0.4270904E+03  0.7818608E-02  0.1034783E+00
         -2   -1    0    0    0  501 -0.00000000000E+00  0.00000000000E+00  0.71658373342E+02  0.71658373342E+02  0.00000000000E+00 0.  1.
          2   -1    0    0  502    0  0.00000000000E+00 -0.00000000000E+00 -0.33912940934E+04  0.33912940934E+04  0.00000000000E+00 0. -1.
    9000007    1    1    2  502    0  0.27373692257E+02  0.14716281150E+03 -0.79511525591E+03  0.90255996050E+03  0.40000000000E+03 0.  1.
   -9000007    1    1    2    0  501 -0.27373692257E+02 -0.14716281150E+03 -0.25245204642E+04  0.25603925062E+04  0.40000000000E+03 0. -1.
<mgrwt>
<rscale>  2 0.42709040E+03</rscale>
<asrwt>0</asrwt>
<pdfrwt beam="1">  1        2 0.52173751E+00 0.42709040E+03</pdfrwt>
<pdfrwt beam="2">  1       -2 0.11024366E-01 0.42709040E+03</pdfrwt>
<totfact> 0.64527001E+01</totfact>
</mgrwt>
</event>
<event>
 4    1  0.2533915E-002  0.4198666E+03  0.7818608E-02  0.1037110E+00
         -2   -1    0    0    0  501 -0.00000000000E+00  0.00000000000E+00  0.15046826865E+03  0.15046826865E+03  0.00000000000E+00 0. -1.
          2   -1    0    0  502    0  0.00000000000E+00 -0.00000000000E+00 -0.12532155152E+04  0.12532155152E+04  0.00000000000E+00 0.  1.
    9000007    1    1    2  502    0  0.11051541780E+03 -0.63830199451E+02 -0.73048560709E+03  0.84255395916E+03  0.40000000000E+03 0.  1.
   -9000007    1    1    2    0  501 -0.11051541780E+03  0.63830199451E+02 -0.37226163944E+03  0.56112982467E+03  0.40000000000E+03 0. -1.
<mgrwt>
<rscale>  2 0.41986659E+03</rscale>
<asrwt>0</asrwt>
<pdfrwt beam="1">  1        2 0.19280238E+00 0.41986659E+03</pdfrwt>
<pdfrwt beam="2">  1       -2 0.23148965E-01 0.41986659E+03</pdfrwt>
<totfact> 0.30037566E+02</totfact>
</mgrwt>
</event>
<event>
 4    1  0.2533915E-002  0.4320273E+03  0.7818608E-02  0.1033221E+00
          2   -1    0    0  502    0  0.00000000000E+00  0.00000000000E+00  0.13824584584E+04  0.13824584584E+04  0.00000000000E+00 0.  1.
         -2   -1    0    0    0  501 -0.00000000000E+00 -0.00000000000E+00 -0.13619954206E+03  0.13619954206E+03  0.00000000000E+00 0. -1.
    9000007    1    1    2  502    0  0.14920150393E+03  0.66230927023E+02  0.55220762110E+03  0.70112829159E+03  0.40000000000E+03 0.  1.
   -9000007    1    1    2    0  501 -0.14920150393E+03 -0.66230927023E+02  0.69405129528E+03  0.81752970891E+03  0.40000000000E+03 0. -1.
<mgrwt>
<rscale>  2 0.43202734E+03</rscale>
<asrwt>0</asrwt>
<pdfrwt beam="1">  1        2 0.21268591E+00 0.43202734E+03</pdfrwt>
<pdfrwt beam="2">  1       -2 0.20953777E-01 0.43202734E+03</pdfrwt>
<totfact> 0.30218735E+02</totfact>
</mgrwt>
</event>
<event>
 4    1  0.2533915E-002  0.5544198E+03  0.7818608E-02  0.1000476E+00
         -1   -1    0    0    0  501 -0.00000000000E+00  0.00000000000E+00  0.77699161285E+03  0.77699161285E+03  0.00000000000E+00 0.  1.
          1   -1    0    0  502    0  0.00000000000E+00 -0.00000000000E+00 -0.68603223015E+03  0.68603223015E+03  0.00000000000E+00 0. -1.
    9000007    1    1    2  502    0  0.18015706428E+02 -0.38347977756E+03  0.52143728379E+03  0.76110324293E+03  0.40000000000E+03 0.  1.
   -9000007    1    1    2    0  501 -0.18015706428E+02  0.38347977756E+03 -0.43047790109E+03  0.70192060007E+03  0.40000000000E+03 0. -1.
<mgrwt>
<rscale>  2 0.55441979E+03</rscale>
<asrwt>0</asrwt>
<pdfrwt beam="1">  1        1 0.10554342E+00 0.55441979E+03</pdfrwt>
<pdfrwt beam="2">  1       -1 0.11953717E+00 0.55441979E+03</pdfrwt>
<totfact> 0.18514246E+01</totfact>
</mgrwt>
</event>
<event>
 4    1  0.2533915E-002  0.4167985E+03  0.7818608E-02  0.1038113E+00
          2   -1    0    0  502    0  0.00000000000E+00  0.00000000000E+00  0.83835455926E+03  0.83835455926E+03  0.00000000000E+00 0. -1.
         -2   -1    0    0    0  501 -0.00000000000E+00 -0.00000000000E+00 -0.20804128262E+03  0.20804128262E+03  0.00000000000E+00 0.  1.
    9000007    1    1    2  502    0  0.45419083835E+02 -0.10797268974E+03  0.28221612097E+03  0.50335567330E+03  0.40000000000E+03 0.  1.
   -9000007    1    1    2    0  501 -0.45419083835E+02  0.10797268974E+03  0.34809715567E+03  0.54304016858E+03  0.40000000000E+03 0. -1.
<mgrwt>
<rscale>  2 0.41679851E+03</rscale>
<asrwt>0</asrwt>
<pdfrwt beam="1">  1        2 0.12897762E+00 0.41679851E+03</pdfrwt>
<pdfrwt beam="2">  1       -2 0.32006352E-01 0.41679851E+03</pdfrwt>
<totfact> 0.30153715E+02</totfact>
</mgrwt>
</event>
<event>
 4    1  0.2533915E-002  0.4966761E+03  0.7818608E-02  0.1014650E+00
          2   -1    0    0  502    0  0.00000000000E+00  0.00000000000E+00  0.93712356611E+03  0.93712356611E+03  0.00000000000E+00 0. -1.
         -2   -1    0    0    0  501 -0.00000000000E+00 -0.00000000000E+00 -0.26683932914E+03  0.26683932914E+03  0.00000000000E+00 0.  1.
    9000007    1    1    2  502    0 -0.24164483468E+02 -0.29343356610E+03  0.40506961528E+03  0.64091229759E+03  0.40000000000E+03 0.  1.
   -9000007    1    1    2    0  501  0.24164483468E+02  0.29343356610E+03  0.26521462169E+03  0.56305059767E+03  0.40000000000E+03 0. -1.
<mgrwt>
<rscale>  2 0.49667613E+03</rscale>
<asrwt>0</asrwt>
<pdfrwt beam="1">  1        2 0.14417285E+00 0.49667613E+03</pdfrwt>
<pdfrwt beam="2">  1       -2 0.41052205E-01 0.49667613E+03</pdfrwt>
<totfact> 0.16034447E+02</totfact>
</mgrwt>
</event>
<event>
 4    1  0.2533915E-002  0.4005694E+03  0.7818608E-02  0.1043583E+00
         -2   -1    0    0    0  501 -0.00000000000E+00  0.00000000000E+00  0.20557433567E+03  0.20557433567E+03  0.00000000000E+00 0.  1.
          2   -1    0    0  502    0  0.00000000000E+00 -0.00000000000E+00 -0.84018837574E+03  0.84018837574E+03  0.00000000000E+00 0. -1.
    9000007    1    1    2  502    0 -0.17422880306E+02  0.12339258295E+02 -0.17796875372E+03  0.43832486965E+03  0.40000000000E+03 0.  1.
   -9000007    1    1    2    0  501  0.17422880306E+02 -0.12339258295E+02 -0.45664528635E+03  0.60743784176E+03  0.40000000000E+03 0. -1.
<mgrwt>
<rscale>  2 0.40056936E+03</rscale>
<asrwt>0</asrwt>
<pdfrwt beam="1">  1        2 0.12925975E+00 0.40056936E+03</pdfrwt>
<pdfrwt beam="2">  1       -2 0.31626820E-01 0.40056936E+03</pdfrwt>
<totfact> 0.30777150E+02</totfact>
</mgrwt>
</event>
<event>
 4    1  0.2533915E-002  0.4312772E+03  0.7818608E-02  0.1033457E+00
         -1   -1    0    0    0  501 -0.00000000000E+00  0.00000000000E+00  0.72045760742E+03  0.72045760742E+03  0.00000000000E+00 0.  1.
          1   -1    0    0  502    0  0.00000000000E+00 -0.00000000000E+00 -0.27144926601E+03  0.27144926601E+03  0.00000000000E+00 0. -1.
    9000007    1    1    2  502    0 -0.15972066675E+03 -0.22121177086E+02  0.11480710468E+03  0.44629666047E+03  0.40000000000E+03 0. -1.
   -9000007    1    1    2    0  501  0.15972066675E+03  0.22121177086E+02  0.33420123672E+03  0.54561021296E+03  0.40000000000E+03 0. -1.
<mgrwt>
<rscale>  2 0.43127722E+03</rscale>
<asrwt>0</asrwt>
<pdfrwt beam="1">  1        1 0.41761426E-01 0.43127722E+03</pdfrwt>
<pdfrwt beam="2">  1       -1 0.11083963E+00 0.43127722E+03</pdfrwt>
<totfact> 0.78314639E+01</totfact>
</mgrwt>
</event>
<event>
 4    1  0.2533915E-002  0.5078891E+03  0.7818608E-02  0.1011740E+00
         -2   -1    0    0    0  501 -0.00000000000E+00  0.00000000000E+00  0.12363722458E+03  0.12363722458E+03  0.00000000000E+00 0.  1.
          2   -1    0    0  502    0  0.00000000000E+00 -0.00000000000E+00 -0.21132840013E+04  0.21132840013E+04  0.00000000000E+00 0. -1.
    9000007    1    1    2  502    0 -0.10838709346E+03  0.29360451967E+03 -0.11210749048E+04  0.12307559946E+04  0.40000000000E+03 0. -1.
   -9000007    1    1    2    0  501  0.10838709346E+03 -0.29360451967E+03 -0.86857187186E+03  0.10061652313E+04  0.40000000000E+03 0.  1.
<mgrwt>
<rscale>  2 0.50788914E+03</rscale>
<asrwt>0</asrwt>
<pdfrwt beam="1">  1        2 0.32512060E+00 0.50788914E+03</pdfrwt>
<pdfrwt beam="2">  1       -2 0.19021112E-01 0.50788914E+03</pdfrwt>
<totfact> 0.14240365E+02</totfact>
</mgrwt>
</event>
<event>
 4    1  0.2533915E-002  0.4091648E+03  0.7818608E-02  0.1040652E+00
          1   -1    0    0  502    0  0.00000000000E+00  0.00000000000E+00  0.12711695600E+04  0.12711695600E+04  0.00000000000E+00 0.  1.
         -1   -1    0    0    0  501 -0.00000000000E+00 -0.00000000000E+00 -0.13393509903E+03  0.13393509903E+03  0.00000000000E+00 0. -1.
    9000007    1    1    2  502    0 -0.75664049687E+02 -0.41119410982E+02  0.47790539128E+03  0.62913386286E+03  0.40000000000E+03 0. -1.
   -9000007    1    1    2    0  501  0.75664049687E+02  0.41119410982E+02  0.65932906972E+03  0.77597079620E+03  0.40000000000E+03 0.  1.
<mgrwt>
<rscale>  2 0.40916483E+03</rscale>
<asrwt>0</asrwt>
<pdfrwt beam="1">  1        1 0.19556454E+00 0.40916483E+03</pdfrwt>
<pdfrwt beam="2">  1       -1 0.20605401E-01 0.40916483E+03</pdfrwt>
<totfact> 0.19357971E+02</totfact>
</mgrwt>
</event>
<event>
 4    1  0.2533915E-002  0.4022090E+03  0.7818608E-02  0.1043017E+00
          2   -1    0    0  502    0  0.00000000000E+00  0.00000000000E+00  0.95715295485E+03  0.95715295485E+03  0.00000000000E+00 0.  1.
         -2   -1    0    0    0  501 -0.00000000000E+00 -0.00000000000E+00 -0.24044911428E+03  0.24044911428E+03  0.00000000000E+00 0. -1.
    9000007    1    1    2  502    0  0.17505910230E+02  0.38283749292E+02  0.31969100298E+02  0.40347754055E+03  0.40000000000E+03 0. -1.
   -9000007    1    1    2    0  501 -0.17505910230E+02 -0.38283749292E+02  0.68473474027E+03  0.79412452858E+03  0.40000000000E+03 0.  1.
<mgrwt>
<rscale>  2 0.40220903E+03</rscale>
<asrwt>0</asrwt>
<pdfrwt beam="1">  1        2 0.14725430E+00 0.40220903E+03</pdfrwt>
<pdfrwt beam="2">  1       -2 0.36992172E-01 0.40220903E+03</pdfrwt>
<totfact> 0.19197263E+02</totfact>
</mgrwt>
</event>
<event>
 4    1  0.2533915E-002  0.4043875E+03  0.7818608E-02  0.1042271E+00
          2   -1    0    0  502    0  0.00000000000E+00  0.00000000000E+00  0.33330772387E+04  0.33330772387E+04  0.00000000000E+00 0.  1.
         -2   -1    0    0    0  501 -0.00000000000E+00 -0.00000000000E+00 -0.71998975587E+02  0.71998975587E+02  0.00000000000E+00 0. -1.
    9000007    1    1    2  502    0 -0.55727695632E+02  0.20582888819E+02  0.66959827711E+03  0.78223467328E+03  0.40000000000E+03 0. -1.
   -9000007    1    1    2    0  501  0.55727695632E+02 -0.20582888819E+02  0.25914799860E+04  0.26228415410E+04  0.40000000000E+03 0.  1.
<mgrwt>
<rscale>  2 0.40438748E+03</rscale>
<asrwt>0</asrwt>
<pdfrwt beam="1">  1        2 0.51278100E+00 0.40438748E+03</pdfrwt>
<pdfrwt beam="2">  1       -2 0.11076768E-01 0.40438748E+03</pdfrwt>
<totfact> 0.70275854E+01</totfact>
</mgrwt>
</event>
<event>
 4    1  0.2533915E-002  0.4405185E+03  0.7818608E-02  0.1030588E+00
         -2   -1    0    0    0  501 -0.00000000000E+00  0.00000000000E+00  0.48133951004E+03  0.48133951004E+03  0.00000000000E+00 0. -1.
          2   -1    0    0  502    0  0.00000000000E+00 -0.00000000000E+00 -0.60671826504E+03  0.60671826504E+03  0.00000000000E+00 0.  1.
    9000007    1    1    2  502    0  0.12873246962E+03  0.13222904912E+03  0.25242875042E+03  0.50771728768E+03  0.40000000000E+03 0. -1.
   -9000007    1    1    2    0  501 -0.12873246962E+03 -0.13222904912E+03 -0.37780750542E+03  0.58034048740E+03  0.40000000000E+03 0.  1.
<mgrwt>
<rscale>  2 0.44051852E+03</rscale>
<asrwt>0</asrwt>
<pdfrwt beam="1">  1        2 0.93341271E-01 0.44051852E+03</pdfrwt>
<pdfrwt beam="2">  1       -2 0.74052233E-01 0.44051852E+03</pdfrwt>
<totfact> 0.83316825E+01</totfact>
</mgrwt>
</event>
<event>
 4    1  0.2533915E-002  0.4469110E+03  0.7818608E-02  0.1028647E+00
         -1   -1    0    0    0  501 -0.00000000000E+00  0.00000000000E+00  0.44158183323E+03  0.44158183323E+03  0.00000000000E+00 0.  1.
          1   -1    0    0  502    0  0.00000000000E+00 -0.00000000000E+00 -0.51584339544E+03  0.51584339544E+03  0.00000000000E+00 0. -1.
    9000007    1    1    2  502    0  0.19401750879E+03  0.45679413272E+02 -0.20514116896E+03  0.49174414254E+03  0.40000000000E+03 0. -1.
   -9000007    1    1    2    0  501 -0.19401750879E+03 -0.45679413272E+02  0.13087960675E+03  0.46568108613E+03  0.40000000000E+03 0.  1.
<mgrwt>
<rscale>  2 0.44691096E+03</rscale>
<asrwt>0</asrwt>
<pdfrwt beam="1">  1        1 0.79360522E-01 0.44691096E+03</pdfrwt>
<pdfrwt beam="2">  1       -1 0.67935667E-01 0.44691096E+03</pdfrwt>
<totfact> 0.97337132E+01</totfact>
</mgrwt>
</event>
<event>
 4    1  0.2533915E-002  0.6294847E+03  0.7818608E-02  0.9846055E-01
         -2   -1    0    0    0  501 -0.00000000000E+00  0.00000000000E+00  0.34647587312E+03  0.34647587312E+03  0.00000000000E+00 0. -1.
          2   -1    0    0  502    0  0.00000000000E+00 -0.00000000000E+00 -0.13379002618E+04  0.13379002618E+04  0.00000000000E+00 0.  1.
    9000007    1    1    2  502    0  0.35238095908E+03 -0.33478156416E+03 -0.81660902329E+03  0.10310680545E+04  0.40000000000E+03 0.  1.
   -9000007    1    1    2    0  501 -0.35238095908E+03  0.33478156416E+03 -0.17481536541E+03  0.65330808047E+03  0.40000000000E+03 0. -1.
<mgrwt>
<rscale>  2 0.62948474E+03</rscale>
<asrwt>0</asrwt>
<pdfrwt beam="1">  1        2 0.20583081E+00 0.62948474E+03</pdfrwt>
<pdfrwt beam="2">  1       -2 0.53303981E-01 0.62948474E+03</pdfrwt>
<totfact> 0.53825570E+01</totfact>
</mgrwt>
</event>
<event>
 4    1  0.2533915E-002  0.4407605E+03  0.7818608E-02  0.1030514E+00
         -1   -1    0    0    0  501 -0.00000000000E+00  0.00000000000E+00  0.10006893594E+03  0.10006893594E+03  0.00000000000E+00 0.  1.
          1   -1    0    0  502    0  0.00000000000E+00 -0.00000000000E+00 -0.19415039295E+04  0.19415039295E+04  0.00000000000E+00 0. -1.
    9000007    1    1    2  502    0  0.18458241270E+03 -0.14111074281E+02 -0.91191628197E+03  0.10128480117E+04  0.40000000000E+03 0. -1.
   -9000007    1    1    2    0  501 -0.18458241270E+03  0.14111074281E+02 -0.92951871163E+03  0.10287248538E+04  0.40000000000E+03 0. -1.
<mgrwt>
<rscale>  2 0.44076047E+03</rscale>
<asrwt>0</asrwt>
<pdfrwt beam="1">  1        1 0.29869289E+00 0.44076047E+03</pdfrwt>
<pdfrwt beam="2">  1       -1 0.15395222E-01 0.44076047E+03</pdfrwt>
<totfact> 0.11012368E+02</totfact>
</mgrwt>
</event>
<event>
 4    1  0.2533915E-002  0.4323958E+03  0.7818608E-02  0.1033106E+00
          1   -1    0    0  502    0  0.00000000000E+00  0.00000000000E+00  0.77753079715E+03  0.77753079715E+03  0.00000000000E+00 0.  1.
         -1   -1    0    0    0  501 -0.00000000000E+00 -0.00000000000E+00 -0.26661047403E+03  0.26661047403E+03  0.00000000000E+00 0. -1.
    9000007    1    1    2  502    0 -0.13980709980E+03 -0.86140224588E+02  0.91959839338E+02  0.44206648312E+03  0.40000000000E+03 0. -1.
   -9000007    1    1    2    0  501  0.13980709980E+03  0.86140224588E+02  0.41896048378E+03  0.60207478806E+03  0.40000000000E+03 0. -1.
<mgrwt>
<rscale>  2 0.43239584E+03</rscale>
<asrwt>0</asrwt>
<pdfrwt beam="1">  1        1 0.11962012E+00 0.43239584E+03</pdfrwt>
<pdfrwt beam="2">  1       -1 0.41016996E-01 0.43239584E+03</pdfrwt>
<totfact> 0.14055964E+02</totfact>
</mgrwt>
</event>
<event>
 4    1  0.2533915E-002  0.5548251E+03  0.7818608E-02  0.1000383E+00
         -2   -1    0    0    0  501 -0.00000000000E+00  0.00000000000E+00  0.13902417740E+03  0.13902417740E+03  0.00000000000E+00 0. -1.
          2   -1    0    0  502    0  0.00000000000E+00 -0.00000000000E+00 -0.28891191845E+04  0.28891191845E+04  0.00000000000E+00 0.  1.
    9000007    1    1    2  502    0  0.24818124639E+03  0.29366127800E+03 -0.21068289478E+04  0.21786599305E+04  0.40000000000E+03 0.  1.
   -9000007    1    1    2    0  501 -0.24818124639E+03 -0.29366127800E+03 -0.64326605928E+03  0.84948343143E+03  0.40000000000E+03 0. -1.
<mgrwt>
<rscale>  2 0.55482509E+03</rscale>
<asrwt>0</asrwt>
<pdfrwt beam="1">  1        2 0.44447983E+00 0.55482509E+03</pdfrwt>
<pdfrwt beam="2">  1       -2 0.21388337E-01 0.55482509E+03</pdfrwt>
<totfact> 0.42096690E+01</totfact>
</mgrwt>
</event>
<event>
 4    1  0.2533915E-002  0.4970172E+03  0.7818608E-02  0.1014560E+00
         -1   -1    0    0    0  501 -0.00000000000E+00  0.00000000000E+00  0.18097206415E+03  0.18097206415E+03  0.00000000000E+00 0. -1.
          1   -1    0    0  502    0  0.00000000000E+00 -0.00000000000E+00 -0.14338218251E+04  0.14338218251E+04  0.00000000000E+00 0.  1.
    9000007    1    1    2  502    0 -0.15124612361E+03 -0.25327996091E+03 -0.80331985134E+03  0.94464221378E+03  0.40000000000E+03 0. -1.
   -9000007    1    1    2    0  501  0.15124612361E+03  0.25327996091E+03 -0.44952990963E+03  0.67015167548E+03  0.40000000000E+03 0.  1.
<mgrwt>
<rscale>  2 0.49701723E+03</rscale>
<asrwt>0</asrwt>
<pdfrwt beam="1">  1        1 0.22058798E+00 0.49701723E+03</pdfrwt>
<pdfrwt beam="2">  1       -1 0.27841856E-01 0.49701723E+03</pdfrwt>
<totfact> 0.89065230E+01</totfact>
</mgrwt>
</event>
<event>
 4    1  0.2533915E-002  0.4794985E+03  0.7818608E-02  0.1019273E+00
         -2   -1    0    0    0  501 -0.00000000000E+00  0.00000000000E+00  0.18759815607E+03  0.18759815607E+03  0.00000000000E+00 0. -1.
          2   -1    0    0  502    0  0.00000000000E+00 -0.00000000000E+00 -0.12259024135E+04  0.12259024135E+04  0.00000000000E+00 0.  1.
    9000007    1    1    2  502    0 -0.16866691965E+03 -0.20364248145E+03 -0.53039928924E+03  0.71501202512E+03  0.40000000000E+03 0. -1.
   -9000007    1    1    2    0  501  0.16866691965E+03  0.20364248145E+03 -0.50790496821E+03  0.69848854448E+03  0.40000000000E+03 0.  1.
<mgrwt>
<rscale>  2 0.47949848E+03</rscale>
<asrwt>0</asrwt>
<pdfrwt beam="1">  1        2 0.18860037E+00 0.47949848E+03</pdfrwt>
<pdfrwt beam="2">  1       -2 0.28861255E-01 0.47949848E+03</pdfrwt>
<totfact> 0.20822576E+02</totfact>
</mgrwt>
</event>
<event>
 4    1  0.2533915E-002  0.4987376E+03  0.7818608E-02  0.1014109E+00
         -1   -1    0    0    0  501 -0.00000000000E+00  0.00000000000E+00  0.21282949284E+03  0.21282949284E+03  0.00000000000E+00 0. -1.
          1   -1    0    0  502    0  0.00000000000E+00 -0.00000000000E+00 -0.13068938665E+04  0.13068938665E+04  0.00000000000E+00 0.  1.
    9000007    1    1    2  502    0 -0.15214303551E+03 -0.25610870971E+03 -0.29996259766E+03  0.58199375807E+03  0.40000000000E+03 0.  1.
   -9000007    1    1    2    0  501  0.15214303551E+03  0.25610870971E+03 -0.79410177596E+03  0.93772960123E+03  0.40000000000E+03 0.  1.
<mgrwt>
<rscale>  2 0.49873758E+03</rscale>
<asrwt>0</asrwt>
<pdfrwt beam="1">  1        1 0.20106060E+00 0.49873758E+03</pdfrwt>
<pdfrwt beam="2">  1       -1 0.32742998E-01 0.49873758E+03</pdfrwt>
<totfact> 0.82262456E+01</totfact>
</mgrwt>
</event>
<event>
 4    1  0.2533915E-002  0.4094937E+03  0.7818608E-02  0.1040541E+00
         -2   -1    0    0    0  501 -0.00000000000E+00  0.00000000000E+00  0.14065270173E+03  0.14065270173E+03  0.00000000000E+00 0.  1.
          2   -1    0    0  502    0  0.00000000000E+00 -0.00000000000E+00 -0.12026008285E+04  0.12026008285E+04  0.00000000000E+00 0. -1.
    9000007    1    1    2  502    0 -0.60508635645E+02 -0.63433137727E+02 -0.59345728301E+03  0.72102469078E+03  0.40000000000E+03 0.  1.
   -9000007    1    1    2    0  501  0.60508635645E+02  0.63433137727E+02 -0.46849084374E+03  0.62222883943E+03  0.40000000000E+03 0.  1.
<mgrwt>
<rscale>  2 0.40949366E+03</rscale>
<asrwt>0</asrwt>
<pdfrwt beam="1">  1        2 0.18501551E+00 0.40949366E+03</pdfrwt>
<pdfrwt beam="2">  1       -2 0.21638878E-01 0.40949366E+03</pdfrwt>
<totfact> 0.36199806E+02</totfact>
</mgrwt>
</event>
<event>
 4    1  0.2533915E-002  0.6176318E+03  0.7818608E-02  0.9869486E-01
         -2   -1    0    0    0  501 -0.00000000000E+00  0.00000000000E+00  0.34329096610E+03  0.34329096610E+03  0.00000000000E+00 0.  1.
          2   -1    0    0  502    0  0.00000000000E+00 -0.00000000000E+00 -0.13829575709E+04  0.13829575709E+04  0.00000000000E+00 0. -1.
    9000007    1    1    2  502    0  0.46394786749E+03  0.78875829646E+02 -0.90243790072E+03  0.10935552958E+04  0.40000000000E+03 0. -1.
   -9000007    1    1    2    0  501 -0.46394786749E+03 -0.78875829646E+02 -0.13722870407E+03  0.63269324121E+03  0.40000000000E+03 0.  1.
<mgrwt>
<rscale>  2 0.61763178E+03</rscale>
<asrwt>0</asrwt>
<pdfrwt beam="1">  1        2 0.21276270E+00 0.61763178E+03</pdfrwt>
<pdfrwt beam="2">  1       -2 0.52813995E-01 0.61763178E+03</pdfrwt>
<totfact> 0.51801995E+01</totfact>
</mgrwt>
</event>
<event>
 4    1  0.2533915E-002  0.4528109E+03  0.7818608E-02  0.1026887E+00
          2   -1    0    0  502    0  0.00000000000E+00  0.00000000000E+00  0.22052538179E+03  0.22052538179E+03  0.00000000000E+00 0. -1.
         -2   -1    0    0    0  501 -0.00000000000E+00 -0.00000000000E+00 -0.11446476749E+04  0.11446476749E+04  0.00000000000E+00 0.  1.
    9000007    1    1    2  502    0 -0.16366391459E+03  0.13509934509E+03 -0.75780671382E+03  0.88278464276E+03  0.40000000000E+03 0.  1.
   -9000007    1    1    2    0  501  0.16366391459E+03 -0.13509934509E+03 -0.16631557929E+03  0.48238841393E+03  0.40000000000E+03 0. -1.
<mgrwt>
<rscale>  2 0.45281090E+03</rscale>
<asrwt>0</asrwt>
<pdfrwt beam="1">  1        2 0.33926982E-01 0.45281090E+03</pdfrwt>
<pdfrwt beam="2">  1       -2 0.17609964E+00 0.45281090E+03</pdfrwt>
<totfact> 0.31086165E+01</totfact>
</mgrwt>
</event>
<event>
 4    1  0.2533915E-002  0.4298157E+03  0.7818608E-02  0.1033918E+00
         -2   -1    0    0    0  501 -0.00000000000E+00  0.00000000000E+00  0.13332742008E+03  0.13332742008E+03  0.00000000000E+00 0. -1.
          2   -1    0    0  502    0  0.00000000000E+00 -0.00000000000E+00 -0.14218081814E+04  0.14218081814E+04  0.00000000000E+00 0.  1.
    9000007    1    1    2  502    0 -0.14222546955E+03 -0.67182179249E+02 -0.76828662177E+03  0.88034417281E+03  0.40000000000E+03 0. -1.
   -9000007    1    1    2    0  501  0.14222546955E+03  0.67182179249E+02 -0.52019413956E+03  0.67479142869E+03  0.40000000000E+03 0. -1.
<mgrwt>
<rscale>  2 0.42981569E+03</rscale>
<asrwt>0</asrwt>
<pdfrwt beam="1">  1        2 0.21873970E+00 0.42981569E+03</pdfrwt>
<pdfrwt beam="2">  1       -2 0.20511913E-01 0.42981569E+03</pdfrwt>
<totfact> 0.29832908E+02</totfact>
</mgrwt>
</event>
<event>
 4    1  0.2533915E-002  0.5856274E+03  0.7818608E-02  0.9935682E-01
          2   -1    0    0  502    0  0.00000000000E+00  0.00000000000E+00  0.13509029589E+04  0.13509029589E+04  0.00000000000E+00 0. -1.
         -2   -1    0    0    0  501 -0.00000000000E+00 -0.00000000000E+00 -0.26083273207E+03  0.26083273207E+03  0.00000000000E+00 0.  1.
    9000007    1    1    2  502    0  0.18702562458E+03 -0.38468282702E+03  0.41340951503E+03  0.71684509398E+03  0.40000000000E+03 0. -1.
   -9000007    1    1    2    0  501 -0.18702562458E+03  0.38468282702E+03  0.67666071178E+03  0.89489059695E+03  0.40000000000E+03 0.  1.
<mgrwt>
<rscale>  2 0.58562741E+03</rscale>
<asrwt>0</asrwt>
<pdfrwt beam="1">  1        2 0.20783122E+00 0.58562741E+03</pdfrwt>
<pdfrwt beam="2">  1       -2 0.40128113E-01 0.58562741E+03</pdfrwt>
<totfact> 0.93812616E+01</totfact>
</mgrwt>
</event>
<event>
 4    1  0.2533915E-002  0.4006838E+03  0.7818608E-02  0.1043543E+00
          1   -1    0    0  502    0  0.00000000000E+00  0.00000000000E+00  0.50390751775E+03  0.50390751775E+03  0.00000000000E+00 0. -1.
         -1   -1    0    0    0  501 -0.00000000000E+00 -0.00000000000E+00 -0.32265727265E+03  0.32265727265E+03  0.00000000000E+00 0.  1.
    9000007    1    1    2  502    0  0.13475937158E+00 -0.23398757246E+02  0.13693979116E+03  0.42343833837E+03  0.40000000000E+03 0. -1.
   -9000007    1    1    2    0  501 -0.13475937158E+00  0.23398757246E+02  0.44310453941E+02  0.40312645203E+03  0.40000000000E+03 0.  1.
<mgrwt>
<rscale>  2 0.40068382E+03</rscale>
<asrwt>0</asrwt>
<pdfrwt beam="1">  1        1 0.77524233E-01 0.40068382E+03</pdfrwt>
<pdfrwt beam="2">  1       -1 0.49639580E-01 0.40068382E+03</pdfrwt>
<totfact> 0.18533023E+02</totfact>
</mgrwt>
</event>
<event>
 4    1  0.2533915E-002  0.4012660E+03  0.7818608E-02  0.1043342E+00
         -1   -1    0    0    0  501 -0.00000000000E+00  0.00000000000E+00  0.22873220211E+03  0.22873220211E+03  0.00000000000E+00 0.  1.
          1   -1    0    0  502    0  0.00000000000E+00 -0.00000000000E+00 -0.72854744643E+03  0.72854744643E+03  0.00000000000E+00 0. -1.
    9000007    1    1    2  502    0 -0.14139977259E+02  0.28538124825E+02 -0.33786846307E+03  0.52456597475E+03  0.40000000000E+03 0.  1.
   -9000007    1    1    2    0  501  0.14139977259E+02 -0.28538124825E+02 -0.16194678125E+03  0.43271367379E+03  0.40000000000E+03 0.  1.
<mgrwt>
<rscale>  2 0.40126595E+03</rscale>
<asrwt>0</asrwt>
<pdfrwt beam="1">  1        1 0.11208422E+00 0.40126595E+03</pdfrwt>
<pdfrwt beam="2">  1       -1 0.35189570E-01 0.40126595E+03</pdfrwt>
<totfact> 0.20470987E+02</totfact>
</mgrwt>
</event>
<event>
 4    1  0.2533915E-002  0.4193266E+03  0.7818608E-02  0.1037286E+00
         -1   -1    0    0    0  501 -0.00000000000E+00  0.00000000000E+00  0.31324158591E+03  0.31324158591E+03  0.00000000000E+00 0.  1.
          1   -1    0    0  502    0  0.00000000000E+00 -0.00000000000E+00 -0.57210600542E+03  0.57210600542E+03  0.00000000000E+00 0. -1.
    9000007    1    1    2  502    0  0.11750691288E+03 -0.45021790602E+02 -0.68704702469E+02  0.42491784188E+03  0.40000000000E+03 0.  1.
   -9000007    1    1    2    0  501 -0.11750691288E+03  0.45021790602E+02 -0.19015971704E+03  0.46042974946E+03  0.40000000000E+03 0. -1.
<mgrwt>
<rscale>  2 0.41932665E+03</rscale>
<asrwt>0</asrwt>
<pdfrwt beam="1">  1        1 0.88016308E-01 0.41932665E+03</pdfrwt>
<pdfrwt beam="2">  1       -1 0.48191014E-01 0.41932665E+03</pdfrwt>
<totfact> 0.16422059E+02</totfact>
</mgrwt>
</event>
<event>
 4    1  0.2533915E-002  0.4221799E+03  0.7818608E-02  0.1036359E+00
         -2   -1    0    0    0  501 -0.00000000000E+00  0.00000000000E+00  0.11029156626E+04  0.11029156626E+04  0.00000000000E+00 0. -1.
          2   -1    0    0  502    0  0.00000000000E+00 -0.00000000000E+00 -0.16228134539E+03  0.16228134539E+03  0.00000000000E+00 0.  1.
    9000007    1    1    2  502    0  0.12078389811E+03 -0.60391263707E+02  0.51117918162E+03  0.66297813727E+03  0.40000000000E+03 0. -1.
   -9000007    1    1    2    0  501 -0.12078389811E+03  0.60391263707E+02  0.42945513562E+03  0.60221887075E+03  0.40000000000E+03 0.  1.
<mgrwt>
<rscale>  2 0.42217988E+03</rscale>
<asrwt>0</asrwt>
<pdfrwt beam="1">  1        2 0.24966362E-01 0.42217988E+03</pdfrwt>
<pdfrwt beam="2">  1       -2 0.16967933E+00 0.42217988E+03</pdfrwt>
<totfact> 0.48738028E+01</totfact>
</mgrwt>
</event>
<event>
 4    1  0.2533915E-002  0.4274235E+03  0.7818608E-02  0.1034677E+00
          2   -1    0    0  502    0  0.00000000000E+00  0.00000000000E+00  0.59738771849E+03  0.59738771849E+03  0.00000000000E+00 0. -1.
         -2   -1    0    0    0  501 -0.00000000000E+00 -0.00000000000E+00 -0.31766544083E+03  0.31766544083E+03  0.00000000000E+00 0.  1.
    9000007    1    1    2  502    0  0.20823364236E+02 -0.14918869751E+03  0.51497123442E+02  0.43051461495E+03  0.40000000000E+03 0.  1.
   -9000007    1    1    2    0  501 -0.20823364236E+02  0.14918869751E+03  0.22822515422E+03  0.48453854437E+03  0.40000000000E+03 0. -1.
<mgrwt>
<rscale>  2 0.42742354E+03</rscale>
<asrwt>0</asrwt>
<pdfrwt beam="1">  1        2 0.91905803E-01 0.42742354E+03</pdfrwt>
<pdfrwt beam="2">  1       -2 0.48871606E-01 0.42742354E+03</pdfrwt>
<totfact> 0.20314735E+02</totfact>
</mgrwt>
</event>
<event>
 4    1  0.2533915E-002  0.4680403E+03  0.7818608E-02  0.1022475E+00
         -1   -1    0    0    0  501 -0.00000000000E+00  0.00000000000E+00  0.40168563804E+03  0.40168563804E+03  0.00000000000E+00 0. -1.
          1   -1    0    0  502    0  0.00000000000E+00 -0.00000000000E+00 -0.10363993228E+04  0.10363993228E+04  0.00000000000E+00 0.  1.
    9000007    1    1    2  502    0 -0.14019535591E+02 -0.24262152510E+03 -0.81229485103E+03  0.93748849424E+03  0.40000000000E+03 0.  1.
   -9000007    1    1    2    0  501  0.14019535591E+02  0.24262152510E+03  0.17758116623E+03  0.50059646665E+03  0.40000000000E+03 0. -1.
<mgrwt>
<rscale>  2 0.46804033E+03</rscale>
<asrwt>0</asrwt>
<pdfrwt beam="1">  1        1 0.15944605E+00 0.46804033E+03</pdfrwt>
<pdfrwt beam="2">  1       -1 0.61797792E-01 0.46804033E+03</pdfrwt>
<totfact> 0.40102776E+01</totfact>
</mgrwt>
</event>
<event>
 4    1  0.2533915E-002  0.4708167E+03  0.7818608E-02  0.1021690E+00
          1   -1    0    0  502    0  0.00000000000E+00  0.00000000000E+00  0.93938660254E+03  0.93938660254E+03  0.00000000000E+00 0. -1.
         -1   -1    0    0    0  501 -0.00000000000E+00 -0.00000000000E+00 -0.29499747496E+03  0.29499747496E+03  0.00000000000E+00 0.  1.
    9000007    1    1    2  502    0 -0.15592971227E+03  0.19327265968E+03  0.59827334118E+03  0.76131424978E+03  0.40000000000E+03 0. -1.
   -9000007    1    1    2    0  501  0.15592971227E+03 -0.19327265968E+03  0.46115786394E+02  0.47306982773E+03  0.40000000000E+03 0.  1.
<mgrwt>
<rscale>  2 0.47081673E+03</rscale>
<asrwt>0</asrwt>
<pdfrwt beam="1">  1        1 0.14452101E+00 0.47081673E+03</pdfrwt>
<pdfrwt beam="2">  1       -1 0.45384228E-01 0.47081673E+03</pdfrwt>
<totfact> 0.85593444E+01</totfact>
</mgrwt>
</event>
<event>
 4    1  0.2533915E-002  0.7105520E+03  0.7818608E-02  0.9699355E-01
          2   -1    0    0  502    0  0.00000000000E+00  0.00000000000E+00  0.68453582125E+03  0.68453582125E+03  0.00000000000E+00 0. -1.
         -2   -1    0    0    0  501 -0.00000000000E+00 -0.00000000000E+00 -0.81324729941E+03  0.81324729941E+03  0.00000000000E+00 0.  1.
    9000007    1    1    2  502    0  0.58726391423E+03  0.23020145841E+01 -0.29282493834E+03  0.76852498251E+03  0.40000000000E+03 0.  1.
   -9000007    1    1    2    0  501 -0.58726391423E+03 -0.23020145841E+01  0.16411346018E+03  0.72925813814E+03  0.40000000000E+03 0. -1.
<mgrwt>
<rscale>  2 0.71055204E+03</rscale>
<asrwt>0</asrwt>
<pdfrwt beam="1">  1        2 0.10531320E+00 0.71055204E+03</pdfrwt>
<pdfrwt beam="2">  1       -2 0.12511497E+00 0.71055204E+03</pdfrwt>
<totfact> 0.20516902E+01</totfact>
</mgrwt>
</event>
<event>
 4    1  0.2533915E-002  0.4297006E+03  0.7818608E-02  0.1033955E+00
         -1   -1    0    0    0  501 -0.00000000000E+00  0.00000000000E+00  0.27535158174E+03  0.27535158174E+03  0.00000000000E+00 0.  1.
          1   -1    0    0  502    0  0.00000000000E+00 -0.00000000000E+00 -0.67392960882E+03  0.67392960882E+03  0.00000000000E+00 0. -1.
    9000007    1    1    2  502    0 -0.11528002791E+03 -0.10655096125E+03 -0.23279965308E+03  0.48871082518E+03  0.40000000000E+03 0. -1.
   -9000007    1    1    2    0  501  0.11528002791E+03  0.10655096125E+03 -0.16577837400E+03  0.46057036538E+03  0.40000000000E+03 0.  1.
<mgrwt>
<rscale>  2 0.42970058E+03</rscale>
<asrwt>0</asrwt>
<pdfrwt beam="1">  1        1 0.10368148E+00 0.42970058E+03</pdfrwt>
<pdfrwt beam="2">  1       -1 0.42361782E-01 0.42970058E+03</pdfrwt>
<totfact> 0.16449804E+02</totfact>
</mgrwt>
</event>
<event>
 4    1  0.2533915E-002  0.6680127E+03  0.7818608E-02  0.9773555E-01
         -1   -1    0    0    0  501 -0.00000000000E+00  0.00000000000E+00  0.14567664267E+04  0.14567664267E+04  0.00000000000E+00 0. -1.
          1   -1    0    0  502    0  0.00000000000E+00 -0.00000000000E+00 -0.31243631560E+03  0.31243631560E+03  0.00000000000E+00 0.  1.
    9000007    1    1    2  502    0 -0.21722608990E+03 -0.48893133146E+03  0.69590395948E+03  0.96463637804E+03  0.40000000000E+03 0. -1.
   -9000007    1    1    2    0  501  0.21722608990E+03  0.48893133146E+03  0.44842615157E+03  0.80456636422E+03  0.40000000000E+03 0. -1.
<mgrwt>
<rscale>  2 0.66801274E+03</rscale>
<asrwt>0</asrwt>
<pdfrwt beam="1">  1        1 0.48067126E-01 0.66801274E+03</pdfrwt>
<pdfrwt beam="2">  1       -1 0.22411791E+00 0.66801274E+03</pdfrwt>
<totfact> 0.89708374E+00</totfact>
</mgrwt>
</event>
<event>
 4    1  0.2533915E-002  0.4415135E+03  0.7818608E-02  0.1030283E+00
          2   -1    0    0  502    0  0.00000000000E+00  0.00000000000E+00  0.93618965906E+03  0.93618965906E+03  0.00000000000E+00 0. -1.
         -2   -1    0    0    0  501 -0.00000000000E+00 -0.00000000000E+00 -0.21380422990E+03  0.21380422990E+03  0.00000000000E+00 0.  1.
    9000007    1    1    2  502    0 -0.18435870063E+03  0.30757090724E+02  0.26827271545E+03  0.51662789218E+03  0.40000000000E+03 0.  1.
   -9000007    1    1    2    0  501  0.18435870063E+03 -0.30757090724E+02  0.45411271372E+03  0.63336599679E+03  0.40000000000E+03 0. -1.
<mgrwt>
<rscale>  2 0.44151345E+03</rscale>
<asrwt>0</asrwt>
<pdfrwt beam="1">  1        2 0.14402918E+00 0.44151345E+03</pdfrwt>
<pdfrwt beam="2">  1       -2 0.32892959E-01 0.44151345E+03</pdfrwt>
<totfact> 0.24617815E+02</totfact>
</mgrwt>
</event>
<event>
 4    1  0.2533915E-002  0.7868860E+03  0.7818608E-02  0.9579196E-01
          2   -1    0    0  502    0  0.00000000000E+00  0.00000000000E+00  0.57736827206E+03  0.57736827206E+03  0.00000000000E+00 0.  1.
         -2   -1    0    0    0  501 -0.00000000000E+00 -0.00000000000E+00 -0.12224768090E+04  0.12224768090E+04  0.00000000000E+00 0. -1.
    9000007    1    1    2  502    0  0.21955288747E+03  0.64108193846E+03 -0.63783106968E+03  0.10129254640E+04  0.40000000000E+03 0.  1.
   -9000007    1    1    2    0  501 -0.21955288747E+03 -0.64108193846E+03 -0.72774672987E+01  0.78691961708E+03  0.40000000000E+03 0. -1.
<mgrwt>
<rscale>  2 0.78688597E+03</rscale>
<asrwt>0</asrwt>
<pdfrwt beam="1">  1        2 0.88825889E-01 0.78688597E+03</pdfrwt>
<pdfrwt beam="2">  1       -2 0.18807335E+00 0.78688597E+03</pdfrwt>
<totfact> 0.84138085E+00</totfact>
</mgrwt>
</event>
<event>
 4    1  0.2533915E-002  0.4052065E+03  0.7818608E-02  0.1041992E+00
          2   -1    0    0  502    0  0.00000000000E+00  0.00000000000E+00  0.15545700190E+03  0.15545700190E+03  0.00000000000E+00 0. -1.
         -2   -1    0    0    0  501 -0.00000000000E+00 -0.00000000000E+00 -0.10568876973E+04  0.10568876973E+04  0.00000000000E+00 0.  1.
    9000007    1    1    2  502    0  0.60793812390E+02  0.22280561669E+02 -0.46627694347E+03  0.61774306881E+03  0.40000000000E+03 0.  1.
   -9000007    1    1    2    0  501 -0.60793812390E+02 -0.22280561669E+02 -0.43515375196E+03  0.59460163042E+03  0.40000000000E+03 0.  1.
<mgrwt>
<rscale>  2 0.40520650E+03</rscale>
<asrwt>0</asrwt>
<pdfrwt beam="1">  1        2 0.23916463E-01 0.40520650E+03</pdfrwt>
<pdfrwt beam="2">  1       -2 0.16259810E+00 0.40520650E+03</pdfrwt>
<totfact> 0.57546567E+01</totfact>
</mgrwt>
</event>
<event>
 4    1  0.2533915E-002  0.5134500E+03  0.7818608E-02  0.1010327E+00
          2   -1    0    0  502    0  0.00000000000E+00  0.00000000000E+00  0.12343417365E+04  0.12343417365E+04  0.00000000000E+00 0.  1.
         -2   -1    0    0    0  501 -0.00000000000E+00 -0.00000000000E+00 -0.34017587355E+03  0.34017587355E+03  0.00000000000E+00 0. -1.
    9000007    1    1    2  502    0  0.28251865952E+03  0.15431814919E+03 -0.33175836688E+02  0.51452067042E+03  0.40000000000E+03 0. -1.
   -9000007    1    1    2    0  501 -0.28251865952E+03 -0.15431814919E+03  0.92734169966E+03  0.10599969397E+04  0.40000000000E+03 0.  1.
<mgrwt>
<rscale>  2 0.51344998E+03</rscale>
<asrwt>0</asrwt>
<pdfrwt beam="1">  1        2 0.18989873E+00 0.51344998E+03</pdfrwt>
<pdfrwt beam="2">  1       -2 0.52334751E-01 0.51344998E+03</pdfrwt>
<totfact> 0.65004982E+01</totfact>
</mgrwt>
</event>
<event>
 4    1  0.2533915E-002  0.4397827E+03  0.7818608E-02  0.1030813E+00
          2   -1    0    0  502    0  0.00000000000E+00  0.00000000000E+00  0.11497082984E+04  0.11497082984E+04  0.00000000000E+00 0.  1.
         -2   -1    0    0    0  501 -0.00000000000E+00 -0.00000000000E+00 -0.17414978079E+03  0.17414978079E+03  0.00000000000E+00 0. -1.
    9000007    1    1    2  502    0 -0.17221475758E+03 -0.61244943044E+02  0.60987823380E+03  0.75190446590E+03  0.40000000000E+03 0. -1.
   -9000007    1    1    2    0  501  0.17221475758E+03  0.61244943044E+02  0.36568028377E+03  0.57195361326E+03  0.40000000000E+03 0.  1.
<mgrwt>
<rscale>  2 0.43978275E+03</rscale>
<asrwt>0</asrwt>
<pdfrwt beam="1">  1        2 0.17687819E+00 0.43978275E+03</pdfrwt>
<pdfrwt beam="2">  1       -2 0.26792275E-01 0.43978275E+03</pdfrwt>
<totfact> 0.26514905E+02</totfact>
</mgrwt>
</event>
<event>
 4    1  0.2533915E-002  0.4293943E+03  0.7818608E-02  0.1034051E+00
         -2   -1    0    0    0  501 -0.00000000000E+00  0.00000000000E+00  0.27439042716E+03  0.27439042716E+03  0.00000000000E+00 0.  1.
          2   -1    0    0  502    0  0.00000000000E+00 -0.00000000000E+00 -0.67332192554E+03  0.67332192554E+03  0.00000000000E+00 0. -1.
    9000007    1    1    2  502    0  0.25701008250E+02 -0.15400938019E+03 -0.17815548420E+03  0.46488580056E+03  0.40000000000E+03 0.  1.
   -9000007    1    1    2    0  501 -0.25701008250E+02  0.15400938019E+03 -0.22077601419E+03  0.48282655214E+03  0.40000000000E+03 0.  1.
<mgrwt>
<rscale>  2 0.42939426E+03</rscale>
<asrwt>0</asrwt>
<pdfrwt beam="1">  1        2 0.10358799E+00 0.42939426E+03</pdfrwt>
<pdfrwt beam="2">  1       -2 0.42213913E-01 0.42939426E+03</pdfrwt>
<totfact> 0.23502417E+02</totfact>
</mgrwt>
</event>
<event>
 4    1  0.2533915E-002  0.5148829E+03  0.7818608E-02  0.1009966E+00
          1   -1    0    0  502    0  0.00000000000E+00  0.00000000000E+00  0.10300819041E+04  0.10300819041E+04  0.00000000000E+00 0. -1.
         -1   -1    0    0    0  501 -0.00000000000E+00 -0.00000000000E+00 -0.48706255143E+03  0.48706255143E+03  0.00000000000E+00 0.  1.
    9000007    1    1    2  502    0  0.32238914203E+03  0.34200048524E+02  0.79244662593E+03  0.94502701398E+03  0.40000000000E+03 0. -1.
   -9000007    1    1    2    0  501 -0.32238914203E+03 -0.34200048524E+02 -0.24942727330E+03  0.57211744151E+03  0.40000000000E+03 0.  1.
<mgrwt>
<rscale>  2 0.51488290E+03</rscale>
<asrwt>0</asrwt>
<pdfrwt beam="1">  1        1 0.15847414E+00 0.51488290E+03</pdfrwt>
<pdfrwt beam="2">  1       -1 0.74932700E-01 0.51488290E+03</pdfrwt>
<totfact> 0.27273759E+01</totfact>
</mgrwt>
</event>
<event>
 4    1  0.2533915E-002  0.5241914E+03  0.7818608E-02  0.1007651E+00
         -2   -1    0    0    0  501 -0.00000000000E+00  0.00000000000E+00  0.13365676018E+03  0.13365676018E+03  0.00000000000E+00 0.  1.
          2   -1    0    0  502    0  0.00000000000E+00 -0.00000000000E+00 -0.23195290835E+04  0.23195290835E+04  0.00000000000E+00 0. -1.
    9000007    1    1    2  502    0 -0.31672560127E+03  0.12025622922E+03 -0.15065053145E+04  0.15950971537E+04  0.40000000000E+03 0. -1.
   -9000007    1    1    2    0  501  0.31672560127E+03 -0.12025622922E+03 -0.67936700880E+03  0.85808868995E+03  0.40000000000E+03 0.  1.
<mgrwt>
<rscale>  2 0.52419144E+03</rscale>
<asrwt>0</asrwt>
<pdfrwt beam="1">  1        2 0.35685060E+00 0.52419144E+03</pdfrwt>
<pdfrwt beam="2">  1       -2 0.20562580E-01 0.52419144E+03</pdfrwt>
<totfact> 0.95759786E+01</totfact>
</mgrwt>
</event>
<event>
 4    1  0.2533915E-002  0.4298542E+03  0.7818608E-02  0.1033906E+00
         -1   -1    0    0    0  501 -0.00000000000E+00  0.00000000000E+00  0.18732194733E+03  0.18732194733E+03  0.00000000000E+00 0. -1.
          1   -1    0    0  502    0  0.00000000000E+00 -0.00000000000E+00 -0.11642647889E+04  0.11642647889E+04  0.00000000000E+00 0.  1.
    9000007    1    1    2  502    0  0.22947032872E+02 -0.15571795285E+03 -0.75260962490E+03  0.86671557887E+03  0.40000000000E+03 0.  1.
   -9000007    1    1    2    0  501 -0.22947032872E+02  0.15571795285E+03 -0.22433321671E+03  0.48487115740E+03  0.40000000000E+03 0. -1.
<mgrwt>
<rscale>  2 0.42985422E+03</rscale>
<asrwt>0</asrwt>
<pdfrwt beam="1">  1        1 0.17911765E+00 0.42985422E+03</pdfrwt>
<pdfrwt beam="2">  1       -1 0.28818762E-01 0.42985422E+03</pdfrwt>
<totfact> 0.13072674E+02</totfact>
</mgrwt>
</event>
<event>
 4    1  0.2533915E-002  0.4167291E+03  0.7818608E-02  0.1038136E+00
         -3   -1    0    0    0  501 -0.00000000000E+00  0.00000000000E+00  0.11474648179E+03  0.11474648179E+03  0.00000000000E+00 0.  1.
          3   -1    0    0  502    0  0.00000000000E+00 -0.00000000000E+00 -0.15551394801E+04  0.15551394801E+04  0.00000000000E+00 0. -1.
    9000007    1    1    2  502    0 -0.97181209358E+02  0.64953748450E+02 -0.85690017993E+03  0.95285943101E+03  0.40000000000E+03 0. -1.
   -9000007    1    1    2    0  501  0.97181209358E+02 -0.64953748450E+02 -0.58349281841E+03  0.71702653091E+03  0.40000000000E+03 0.  1.
<mgrwt>
<rscale>  2 0.41672914E+03</rscale>
<asrwt>0</asrwt>
<pdfrwt beam="1">  1        3 0.23925222E+00 0.41672914E+03</pdfrwt>
<pdfrwt beam="2">  1       -3 0.17653305E-01 0.41672914E+03</pdfrwt>
<totfact> 0.65640905E+00</totfact>
</mgrwt>
</event>
<event>
 4    1  0.2533915E-002  0.4408402E+03  0.7818608E-02  0.1030489E+00
          1   -1    0    0  502    0  0.00000000000E+00  0.00000000000E+00  0.88168477600E+03  0.88168477600E+03  0.00000000000E+00 0. -1.
         -1   -1    0    0    0  501 -0.00000000000E+00 -0.00000000000E+00 -0.22163293841E+03  0.22163293841E+03  0.00000000000E+00 0.  1.
    9000007    1    1    2  502    0 -0.17513579993E+03 -0.60559902040E+02  0.37085382838E+03  0.57608385863E+03  0.40000000000E+03 0. -1.
   -9000007    1    1    2    0  501  0.17513579993E+03  0.60559902040E+02  0.28919800922E+03  0.52723385578E+03  0.40000000000E+03 0. -1.
<mgrwt>
<rscale>  2 0.44084016E+03</rscale>
<asrwt>0</asrwt>
<pdfrwt beam="1">  1        1 0.13564381E+00 0.44084016E+03</pdfrwt>
<pdfrwt beam="2">  1       -1 0.34097376E-01 0.44084016E+03</pdfrwt>
<totfact> 0.15968542E+02</totfact>
</mgrwt>
</event>
<event>
 4    1  0.2533915E-002  0.4320712E+03  0.7818608E-02  0.1033208E+00
          2   -1    0    0  502    0  0.00000000000E+00  0.00000000000E+00  0.14818570028E+04  0.14818570028E+04  0.00000000000E+00 0. -1.
         -2   -1    0    0    0  501 -0.00000000000E+00 -0.00000000000E+00 -0.12602840889E+03  0.12602840889E+03  0.00000000000E+00 0.  1.
    9000007    1    1    2  502    0 -0.13905212136E+03 -0.85732165815E+02  0.69354359533E+03  0.81712190971E+03  0.40000000000E+03 0. -1.
   -9000007    1    1    2    0  501  0.13905212136E+03  0.85732165815E+02  0.66228499861E+03  0.79076350200E+03  0.40000000000E+03 0.  1.
<mgrwt>
<rscale>  2 0.43207117E+03</rscale>
<asrwt>0</asrwt>
<pdfrwt beam="1">  1        2 0.22797799E+00 0.43207117E+03</pdfrwt>
<pdfrwt beam="2">  1       -2 0.19388987E-01 0.43207117E+03</pdfrwt>
<totfact> 0.30474722E+02</totfact>
</mgrwt>
</event>
<event>
 4    1  0.2533915E-002  0.4271386E+03  0.7818608E-02  0.1034768E+00
         -2   -1    0    0    0  501 -0.00000000000E+00  0.00000000000E+00  0.15894958531E+03  0.15894958531E+03  0.00000000000E+00 0. -1.
          2   -1    0    0  502    0  0.00000000000E+00 -0.00000000000E+00 -0.12487855766E+04  0.12487855766E+04  0.00000000000E+00 0.  1.
    9000007    1    1    2  502    0  0.11714590063E+03 -0.93403547465E+02 -0.34478976135E+03  0.54893293237E+03  0.40000000000E+03 0. -1.
   -9000007    1    1    2    0  501 -0.11714590063E+03  0.93403547465E+02 -0.74504622994E+03  0.85880222954E+03  0.40000000000E+03 0.  1.
<mgrwt>
<rscale>  2 0.42713860E+03</rscale>
<asrwt>0</asrwt>
<pdfrwt beam="1">  1        2 0.19212085E+00 0.42713860E+03</pdfrwt>
<pdfrwt beam="2">  1       -2 0.24453783E-01 0.42713860E+03</pdfrwt>
<totfact> 0.27392609E+02</totfact>
</mgrwt>
</event>
<event>
 4    1  0.2533915E-002  0.4275174E+03  0.7818608E-02  0.1034647E+00
         -2   -1    0    0    0  501 -0.00000000000E+00  0.00000000000E+00  0.29989430505E+03  0.29989430505E+03  0.00000000000E+00 0. -1.
          2   -1    0    0  502    0  0.00000000000E+00 -0.00000000000E+00 -0.75146936811E+03  0.75146936811E+03  0.00000000000E+00 0.  1.
    9000007    1    1    2  502    0 -0.10005085522E+03 -0.11296430443E+03  0.27399582923E+01  0.42752615718E+03  0.40000000000E+03 0. -1.
   -9000007    1    1    2    0  501  0.10005085522E+03  0.11296430443E+03 -0.45431502135E+03  0.62383751597E+03  0.40000000000E+03 0.  1.
<mgrwt>
<rscale>  2 0.42751738E+03</rscale>
<asrwt>0</asrwt>
<pdfrwt beam="1">  1        2 0.11561067E+00 0.42751738E+03</pdfrwt>
<pdfrwt beam="2">  1       -2 0.46137585E-01 0.42751738E+03</pdfrwt>
<totfact> 0.17207825E+02</totfact>
</mgrwt>
</event>
<event>
 4    1  0.2533915E-002  0.4304847E+03  0.7818608E-02  0.1033707E+00
         -2   -1    0    0    0  501 -0.00000000000E+00  0.00000000000E+00  0.23965746804E+03  0.23965746804E+03  0.00000000000E+00 0.  1.
          2   -1    0    0  502    0  0.00000000000E+00 -0.00000000000E+00 -0.13765620991E+04  0.13765620991E+04  0.00000000000E+00 0. -1.
    9000007    1    1    2  502    0 -0.94049471156E+02 -0.12834254496E+03 -0.33468661792E+02  0.43178381534E+03  0.40000000000E+03 0.  1.
   -9000007    1    1    2    0  501  0.94049471156E+02  0.12834254496E+03 -0.11034359693E+04  0.11844357518E+04  0.40000000000E+03 0. -1.
<mgrwt>
<rscale>  2 0.43048474E+03</rscale>
<asrwt>0</asrwt>
<pdfrwt beam="1">  1        2 0.21177879E+00 0.43048474E+03</pdfrwt>
<pdfrwt beam="2">  1       -2 0.36870379E-01 0.43048474E+03</pdfrwt>
<totfact> 0.10895219E+02</totfact>
</mgrwt>
</event>
<event>
 4    1  0.2533915E-002  0.4064733E+03  0.7818608E-02  0.1041561E+00
          1   -1    0    0  502    0  0.00000000000E+00  0.00000000000E+00  0.58539961899E+03  0.58539961899E+03  0.00000000000E+00 0.  1.
         -1   -1    0    0    0  501 -0.00000000000E+00 -0.00000000000E+00 -0.28663846138E+03  0.28663846138E+03  0.00000000000E+00 0. -1.
    9000007    1    1    2  502    0 -0.56106035354E+02 -0.45526322368E+02  0.20342021595E+03  0.45453307634E+03  0.40000000000E+03 0. -1.
   -9000007    1    1    2    0  501  0.56106035354E+02  0.45526322368E+02  0.95340941671E+02  0.41750500403E+03  0.40000000000E+03 0. -1.
<mgrwt>
<rscale>  2 0.40647329E+03</rscale>
<asrwt>0</asrwt>
<pdfrwt beam="1">  1        1 0.90061480E-01 0.40647329E+03</pdfrwt>
<pdfrwt beam="2">  1       -1 0.44098225E-01 0.40647329E+03</pdfrwt>
<totfact> 0.18752730E+02</totfact>
</mgrwt>
</event>
<event>
 4    1  0.2533915E-002  0.5430565E+03  0.7818608E-02  0.1003114E+00
          2   -1    0    0  502    0  0.00000000000E+00  0.00000000000E+00  0.14518483433E+04  0.14518483433E+04  0.00000000000E+00 0. -1.
         -2   -1    0    0    0  501 -0.00000000000E+00 -0.00000000000E+00 -0.20361738444E+03  0.20361738444E+03  0.00000000000E+00 0.  1.
    9000007    1    1    2  502    0  0.26840384442E+03 -0.25073833233E+03  0.66471550819E+03  0.85834552589E+03  0.40000000000E+03 0. -1.
   -9000007    1    1    2    0  501 -0.26840384442E+03  0.25073833233E+03  0.58351545064E+03  0.79712020181E+03  0.40000000000E+03 0. -1.
<mgrwt>
<rscale>  2 0.54305647E+03</rscale>
<asrwt>0</asrwt>
<pdfrwt beam="1">  1        2 0.22336128E+00 0.54305647E+03</pdfrwt>
<pdfrwt beam="2">  1       -2 0.31325752E-01 0.54305647E+03</pdfrwt>
<totfact> 0.13250928E+02</totfact>
</mgrwt>
</event>
<event>
 4    1  0.2533915E-002  0.4511923E+03  0.7818608E-02  0.1027367E+00
         -1   -1    0    0    0  501 -0.00000000000E+00  0.00000000000E+00  0.67088597447E+03  0.67088597447E+03  0.00000000000E+00 0.  1.
          1   -1    0    0  502    0  0.00000000000E+00 -0.00000000000E+00 -0.30347444287E+03  0.30347444287E+03  0.00000000000E+00 0. -1.
    9000007    1    1    2  502    0 -0.13308729004E+03  0.16081748492E+03  0.18879952675E+03  0.48910096251E+03  0.40000000000E+03 0. -1.
   -9000007    1    1    2    0  501  0.13308729004E+03 -0.16081748492E+03  0.17861200486E+03  0.48525945483E+03  0.40000000000E+03 0. -1.
<mgrwt>
<rscale>  2 0.45119230E+03</rscale>
<asrwt>0</asrwt>
<pdfrwt beam="1">  1        1 0.46688376E-01 0.45119230E+03</pdfrwt>
<pdfrwt beam="2">  1       -1 0.10321323E+00 0.45119230E+03</pdfrwt>
<totfact> 0.79888937E+01</totfact>
</mgrwt>
</event>
<event>
 4    1  0.2533915E-002  0.4270575E+03  0.7818608E-02  0.1034794E+00
         -1   -1    0    0    0  501 -0.00000000000E+00  0.00000000000E+00  0.74444616585E+03  0.74444616585E+03  0.00000000000E+00 0.  1.
          1   -1    0    0  502    0  0.00000000000E+00 -0.00000000000E+00 -0.24766653265E+03  0.24766653265E+03  0.00000000000E+00 0. -1.
    9000007    1    1    2  502    0  0.14520951842E+03 -0.35949110368E+02  0.30000637235E+03  0.52190225735E+03  0.40000000000E+03 0.  1.
   -9000007    1    1    2    0  501 -0.14520951842E+03  0.35949110368E+02  0.19677326086E+03  0.47021044115E+03  0.40000000000E+03 0. -1.
<mgrwt>
<rscale>  2 0.42705754E+03</rscale>
<asrwt>0</asrwt>
<pdfrwt beam="1">  1        1 0.38102544E-01 0.42705754E+03</pdfrwt>
<pdfrwt beam="2">  1       -1 0.11453018E+00 0.42705754E+03</pdfrwt>
<totfact> 0.81556904E+01</totfact>
</mgrwt>
</event>
<event>
 4    1  0.2533915E-002  0.4381708E+03  0.7818608E-02  0.1031310E+00
          2   -1    0    0  502    0  0.00000000000E+00  0.00000000000E+00  0.38015596766E+04  0.38015596766E+04  0.00000000000E+00 0. -1.
         -2   -1    0    0    0  501 -0.00000000000E+00 -0.00000000000E+00 -0.64418804368E+02  0.64418804368E+02  0.00000000000E+00 0.  1.
    9000007    1    1    2  502    0 -0.72398192448E+02 -0.16356080417E+03  0.27669565575E+04  0.28014357437E+04  0.40000000000E+03 0. -1.
   -9000007    1    1    2    0  501  0.72398192448E+02  0.16356080417E+03  0.97018431466E+03  0.10645427372E+04  0.40000000000E+03 0.  1.
<mgrwt>
<rscale>  2 0.43817078E+03</rscale>
<asrwt>0</asrwt>
<pdfrwt beam="1">  1        2 0.58485516E+00 0.43817078E+03</pdfrwt>
<pdfrwt beam="2">  1       -2 0.99105883E-02 0.43817078E+03</pdfrwt>
<totfact> 0.39829690E+01</totfact>
</mgrwt>
</event>
<event>
 4    1  0.2533915E-002  0.6727863E+03  0.7818608E-02  0.9764937E-01
          1   -1    0    0  502    0  0.00000000000E+00  0.00000000000E+00  0.12168918132E+04  0.12168918132E+04  0.00000000000E+00 0.  1.
         -1   -1    0    0    0  501 -0.00000000000E+00 -0.00000000000E+00 -0.38627279314E+03  0.38627279314E+03  0.00000000000E+00 0. -1.
    9000007    1    1    2  502    0 -0.49049531644E+03 -0.22815724658E+03  0.26103839208E+03  0.72165256651E+03  0.40000000000E+03 0.  1.
   -9000007    1    1    2    0  501  0.49049531644E+03  0.22815724658E+03  0.56958062800E+03  0.88151203985E+03  0.40000000000E+03 0.  1.
<mgrwt>
<rscale>  2 0.67278628E+03</rscale>
<asrwt>0</asrwt>
<pdfrwt beam="1">  1        1 0.18721412E+00 0.67278628E+03</pdfrwt>
<pdfrwt beam="2">  1       -1 0.59426584E-01 0.67278628E+03</pdfrwt>
<totfact> 0.30966122E+01</totfact>
</mgrwt>
</event>
<event>
 4    1  0.2533915E-002  0.4301729E+03  0.7818608E-02  0.1033805E+00
          1   -1    0    0  502    0  0.00000000000E+00  0.00000000000E+00  0.52014670218E+03  0.52014670218E+03  0.00000000000E+00 0.  1.
         -1   -1    0    0    0  501 -0.00000000000E+00 -0.00000000000E+00 -0.35652512742E+03  0.35652512742E+03  0.00000000000E+00 0. -1.
    9000007    1    1    2  502    0  0.61125457528E+02  0.14598764892E+03  0.10208318053E+03  0.44211954372E+03  0.40000000000E+03 0.  1.
   -9000007    1    1    2    0  501 -0.61125457528E+02 -0.14598764892E+03  0.61538394218E+02  0.43455228587E+03  0.40000000000E+03 0.  1.
<mgrwt>
<rscale>  2 0.43017289E+03</rscale>
<asrwt>0</asrwt>
<pdfrwt beam="1">  1        1 0.80022570E-01 0.43017289E+03</pdfrwt>
<pdfrwt beam="2">  1       -1 0.54850019E-01 0.43017289E+03</pdfrwt>
<totfact> 0.14660107E+02</totfact>
</mgrwt>
</event>
<event>
 4    1  0.2533915E-002  0.4999403E+03  0.7818608E-02  0.1013794E+00
          1   -1    0    0  502    0  0.00000000000E+00  0.00000000000E+00  0.11941080361E+04  0.11941080361E+04  0.00000000000E+00 0. -1.
         -1   -1    0    0    0  501 -0.00000000000E+00 -0.00000000000E+00 -0.24534349056E+03  0.24534349056E+03  0.00000000000E+00 0.  1.
    9000007    1    1    2  502    0  0.29225767896E+03  0.67274008208E+02  0.75020174409E+03  0.90152260089E+03  0.40000000000E+03 0. -1.
   -9000007    1    1    2    0  501 -0.29225767896E+03 -0.67274008208E+02  0.19856280149E+03  0.53792892581E+03  0.40000000000E+03 0.  1.
<mgrwt>
<rscale>  2 0.49994034E+03</rscale>
<asrwt>0</asrwt>
<pdfrwt beam="1">  1        1 0.18370893E+00 0.49994034E+03</pdfrwt>
<pdfrwt beam="2">  1       -1 0.37745153E-01 0.49994034E+03</pdfrwt>
<totfact> 0.76848357E+01</totfact>
</mgrwt>
</event>
<event>
 4    1  0.2533915E-002  0.4385197E+03  0.7818608E-02  0.1031202E+00
         -1   -1    0    0    0  501 -0.00000000000E+00  0.00000000000E+00  0.54631422840E+03  0.54631422840E+03  0.00000000000E+00 0. -1.
          1   -1    0    0  502    0  0.00000000000E+00 -0.00000000000E+00 -0.37531446879E+03  0.37531446879E+03  0.00000000000E+00 0.  1.
    9000007    1    1    2  502    0  0.14800573337E+03 -0.10195015741E+03 -0.29366662678E+02  0.43950191420E+03  0.40000000000E+03 0.  1.
   -9000007    1    1    2    0  501 -0.14800573337E+03  0.10195015741E+03  0.20036642229E+03  0.48212678300E+03  0.40000000000E+03 0. -1.
<mgrwt>
<rscale>  2 0.43851971E+03</rscale>
<asrwt>0</asrwt>
<pdfrwt beam="1">  1        1 0.57740688E-01 0.43851971E+03</pdfrwt>
<pdfrwt beam="2">  1       -1 0.84048343E-01 0.43851971E+03</pdfrwt>
<totfact> 0.95658807E+01</totfact>
</mgrwt>
</event>
<event>
 4    1  0.2533915E-002  0.6171676E+03  0.7818608E-02  0.9870415E-01
          2   -1    0    0  502    0  0.00000000000E+00  0.00000000000E+00  0.10012590960E+04  0.10012590960E+04  0.00000000000E+00 0.  1.
         -2   -1    0    0    0  501 -0.00000000000E+00 -0.00000000000E+00 -0.49957472367E+03  0.49957472367E+03  0.00000000000E+00 0. -1.
    9000007    1    1    2  502    0  0.16065927501E+03 -0.44168360080E+03  0.61733359813E+03  0.87292415320E+03  0.40000000000E+03 0.  1.
   -9000007    1    1    2    0  501 -0.16065927501E+03  0.44168360080E+03 -0.11564922576E+03  0.62790966650E+03  0.40000000000E+03 0. -1.
<mgrwt>
<rscale>  2 0.61716757E+03</rscale>
<asrwt>0</asrwt>
<pdfrwt beam="1">  1        2 0.15403986E+00 0.61716757E+03</pdfrwt>
<pdfrwt beam="2">  1       -2 0.76857650E-01 0.61716757E+03</pdfrwt>
<totfact> 0.39144531E+01</totfact>
</mgrwt>
</event>
<event>
 4    1  0.2533915E-002  0.5228421E+03  0.7818608E-02  0.1007983E+00
          2   -1    0    0  502    0  0.00000000000E+00  0.00000000000E+00  0.12316872218E+04  0.12316872218E+04  0.00000000000E+00 0.  1.
         -2   -1    0    0    0  501 -0.00000000000E+00 -0.00000000000E+00 -0.22291210858E+03  0.22291210858E+03  0.00000000000E+00 0. -1.
    9000007    1    1    2  502    0  0.25219002959E+03 -0.22307850377E+03  0.55235302214E+03  0.76056406103E+03  0.40000000000E+03 0.  1.
   -9000007    1    1    2    0  501 -0.25219002959E+03  0.22307850377E+03  0.45642209107E+03  0.69403526934E+03  0.40000000000E+03 0. -1.
<mgrwt>
<rscale>  2 0.52284207E+03</rscale>
<asrwt>0</asrwt>
<pdfrwt beam="1">  1        2 0.18949034E+00 0.52284207E+03</pdfrwt>
<pdfrwt beam="2">  1       -2 0.34294171E-01 0.52284207E+03</pdfrwt>
<totfact> 0.14929522E+02</totfact>
</mgrwt>
</event>
<event>
 4    1  0.2533915E-002  0.4497524E+03  0.7818608E-02  0.1027796E+00
          1   -1    0    0  502    0  0.00000000000E+00  0.00000000000E+00  0.32841895871E+04  0.32841895871E+04  0.00000000000E+00 0. -1.
         -1   -1    0    0    0  501 -0.00000000000E+00 -0.00000000000E+00 -0.64685535193E+02  0.64685535193E+02  0.00000000000E+00 0.  1.
    9000007    1    1    2  502    0  0.19673978410E+03 -0.59755026350E+02  0.19759774134E+04  0.20265152218E+04  0.40000000000E+03 0.  1.
   -9000007    1    1    2    0  501 -0.19673978410E+03  0.59755026350E+02  0.12435266386E+04  0.13223599006E+04  0.40000000000E+03 0.  1.
<mgrwt>
<rscale>  2 0.44975238E+03</rscale>
<asrwt>0</asrwt>
<pdfrwt beam="1">  1        1 0.50525981E+00 0.44975238E+03</pdfrwt>
<pdfrwt beam="2">  1       -1 0.99516234E-02 0.44975238E+03</pdfrwt>
<totfact> 0.26366906E+01</totfact>
</mgrwt>
</event>
<event>
 4    1  0.2533915E-002  0.4070405E+03  0.7818608E-02  0.1041369E+00
          1   -1    0    0  502    0  0.00000000000E+00  0.00000000000E+00  0.10917683963E+04  0.10917683963E+04  0.00000000000E+00 0.  1.
         -1   -1    0    0    0  501 -0.00000000000E+00 -0.00000000000E+00 -0.15218561143E+03  0.15218561143E+03  0.00000000000E+00 0. -1.
    9000007    1    1    2  502    0 -0.69192161297E+02 -0.29907217148E+02  0.43673052677E+03  0.59700548560E+03  0.40000000000E+03 0.  1.
   -9000007    1    1    2    0  501  0.69192161297E+02  0.29907217148E+02  0.50285225815E+03  0.64694852218E+03  0.40000000000E+03 0.  1.
<mgrwt>
<rscale>  2 0.40704053E+03</rscale>
<asrwt>0</asrwt>
<pdfrwt beam="1">  1        1 0.16796436E+00 0.40704053E+03</pdfrwt>
<pdfrwt beam="2">  1       -1 0.23413172E-01 0.40704053E+03</pdfrwt>
<totfact> 0.21040725E+02</totfact>
</mgrwt>
</event>
<event>
 4    1  0.2533915E-002  0.4246097E+03  0.7818608E-02  0.1035576E+00
         -1   -1    0    0    0  501 -0.00000000000E+00  0.00000000000E+00  0.11852344500E+04  0.11852344500E+04  0.00000000000E+00 0.  1.
          1   -1    0    0  502    0  0.00000000000E+00 -0.00000000000E+00 -0.15335631576E+03  0.15335631576E+03  0.00000000000E+00 0. -1.
    9000007    1    1    2  502    0 -0.14200164123E+03  0.11355137326E+02  0.57612451798E+03  0.71569048162E+03  0.40000000000E+03 0. -1.
   -9000007    1    1    2    0  501  0.14200164123E+03 -0.11355137326E+02  0.45575361627E+03  0.62290028415E+03  0.40000000000E+03 0.  1.
<mgrwt>
<rscale>  2 0.42460971E+03</rscale>
<asrwt>0</asrwt>
<pdfrwt beam="1">  1        1 0.23593280E-01 0.42460971E+03</pdfrwt>
<pdfrwt beam="2">  1       -1 0.18234376E+00 0.42460971E+03</pdfrwt>
<totfact> 0.44556753E+01</totfact>
</mgrwt>
</event>
<event>
 4    1  0.2533915E-002  0.4095953E+03  0.7818608E-02  0.1040507E+00
          4   -1    0    0  502    0  0.00000000000E+00  0.00000000000E+00  0.74116518112E+02  0.74116518112E+02  0.00000000000E+00 0. -1.
         -4   -1    0    0    0  501 -0.00000000000E+00 -0.00000000000E+00 -0.22972329576E+04  0.22972329576E+04  0.00000000000E+00 0.  1.
    9000007    1    1    2  502    0  0.84641458107E+02  0.24579324741E+02 -0.12550757654E+04  0.13202210029E+04  0.40000000000E+03 0.  1.
   -9000007    1    1    2    0  501 -0.84641458107E+02 -0.24579324741E+02 -0.96804067403E+03  0.10511284727E+04  0.40000000000E+03 0.  1.
<mgrwt>
<rscale>  2 0.40959531E+03</rscale>
<asrwt>0</asrwt>
<pdfrwt beam="1">  1        4 0.11402543E-01 0.40959531E+03</pdfrwt>
<pdfrwt beam="2">  1       -4 0.35342040E+00 0.40959531E+03</pdfrwt>
<totfact> 0.18864659E+00</totfact>
</mgrwt>
</event>
<event>
 4    1  0.2533915E-002  0.4691502E+03  0.7818608E-02  0.1022160E+00
          2   -1    0    0  502    0  0.00000000000E+00  0.00000000000E+00  0.10550659643E+04  0.10550659643E+04  0.00000000000E+00 0. -1.
         -2   -1    0    0    0  501 -0.00000000000E+00 -0.00000000000E+00 -0.21590792257E+03  0.21590792257E+03  0.00000000000E+00 0.  1.
    9000007    1    1    2  502    0 -0.64094675491E+02  0.23663007088E+03  0.53637879487E+03  0.71260376750E+03  0.40000000000E+03 0. -1.
   -9000007    1    1    2    0  501  0.64094675491E+02 -0.23663007088E+03  0.30277924685E+03  0.55837011936E+03  0.40000000000E+03 0.  1.
<mgrwt>
<rscale>  2 0.46915021E+03</rscale>
<asrwt>0</asrwt>
<pdfrwt beam="1">  1        2 0.16231784E+00 0.46915021E+03</pdfrwt>
<pdfrwt beam="2">  1       -2 0.33216604E-01 0.46915021E+03</pdfrwt>
<totfact> 0.20297805E+02</totfact>
</mgrwt>
</event>
<event>
 4    1  0.2533915E-002  0.4136500E+03  0.7818608E-02  0.1039153E+00
          2   -1    0    0  502    0  0.00000000000E+00  0.00000000000E+00  0.53734326367E+03  0.53734326367E+03  0.00000000000E+00 0.  1.
         -2   -1    0    0    0  501 -0.00000000000E+00 -0.00000000000E+00 -0.31947670781E+03  0.31947670781E+03  0.00000000000E+00 0. -1.
    9000007    1    1    2  502    0  0.73905048468E+02 -0.75128730510E+02  0.13345364069E+03  0.43464486256E+03  0.40000000000E+03 0.  1.
   -9000007    1    1    2    0  501 -0.73905048468E+02  0.75128730510E+02  0.84412915169E+02  0.42217510891E+03  0.40000000000E+03 0. -1.
<mgrwt>
<rscale>  2 0.41364995E+03</rscale>
<asrwt>0</asrwt>
<pdfrwt beam="1">  1        2 0.82668194E-01 0.41364995E+03</pdfrwt>
<pdfrwt beam="2">  1       -2 0.49150263E-01 0.41364995E+03</pdfrwt>
<totfact> 0.22755273E+02</totfact>
</mgrwt>
</event>
<event>
 4    1  0.2533915E-002  0.4735869E+03  0.7818608E-02  0.1020913E+00
          2   -1    0    0  502    0  0.00000000000E+00  0.00000000000E+00  0.20864455216E+03  0.20864455216E+03  0.00000000000E+00 0. -1.
         -2   -1    0    0    0  501 -0.00000000000E+00 -0.00000000000E+00 -0.13154895122E+04  0.13154895122E+04  0.00000000000E+00 0.  1.
    9000007    1    1    2  502    0 -0.17971014567E+03 -0.17885413681E+03 -0.87928446870E+03  0.99871202837E+03  0.40000000000E+03 0.  1.
   -9000007    1    1    2    0  501  0.17971014567E+03  0.17885413681E+03 -0.22756049138E+03  0.52542203603E+03  0.40000000000E+03 0. -1.
<mgrwt>
<rscale>  2 0.47358689E+03</rscale>
<asrwt>0</asrwt>
<pdfrwt beam="1">  1        2 0.32099163E-01 0.47358689E+03</pdfrwt>
<pdfrwt beam="2">  1       -2 0.20238300E+00 0.47358689E+03</pdfrwt>
<totfact> 0.22098181E+01</totfact>
</mgrwt>
</event>
<event>
 4    1  0.2533915E-002  0.6956891E+03  0.7818608E-02  0.9724633E-01
         -2   -1    0    0    0  501 -0.00000000000E+00  0.00000000000E+00  0.23767718578E+03  0.23767718578E+03  0.00000000000E+00 0. -1.
          2   -1    0    0  502    0  0.00000000000E+00 -0.00000000000E+00 -0.20379075730E+04  0.20379075730E+04  0.00000000000E+00 0.  1.
    9000007    1    1    2  502    0  0.41583471947E+03  0.38867056977E+03 -0.86821217067E+03  0.11125536837E+04  0.40000000000E+03 0. -1.
   -9000007    1    1    2    0  501 -0.41583471947E+03 -0.38867056977E+03 -0.93201821659E+03  0.11630310752E+04  0.40000000000E+03 0. -1.
<mgrwt>
<rscale>  2 0.69568910E+03</rscale>
<asrwt>0</asrwt>
<pdfrwt beam="1">  1        2 0.31352424E+00 0.69568910E+03</pdfrwt>
<pdfrwt beam="2">  1       -2 0.36565721E-01 0.69568910E+03</pdfrwt>
<totfact> 0.46531181E+01</totfact>
</mgrwt>
</event>
<event>
 4    1  0.2533915E-002  0.4507209E+03  0.7818608E-02  0.1027507E+00
         -2   -1    0    0    0  501 -0.00000000000E+00  0.00000000000E+00  0.14578900016E+03  0.14578900016E+03  0.00000000000E+00 0.  1.
          2   -1    0    0  502    0  0.00000000000E+00 -0.00000000000E+00 -0.19449703583E+04  0.19449703583E+04  0.00000000000E+00 0. -1.
    9000007    1    1    2  502    0  0.20378518334E+03 -0.40260461752E+02 -0.14562626456E+04  0.15244179869E+04  0.40000000000E+03 0. -1.
   -9000007    1    1    2    0  501 -0.20378518334E+03  0.40260461752E+02 -0.34291871247E+03  0.56634137152E+03  0.40000000000E+03 0.  1.
<mgrwt>
<rscale>  2 0.45072087E+03</rscale>
<asrwt>0</asrwt>
<pdfrwt beam="1">  1        2 0.29922621E+00 0.45072087E+03</pdfrwt>
<pdfrwt beam="2">  1       -2 0.22429077E-01 0.45072087E+03</pdfrwt>
<totfact> 0.13279123E+02</totfact>
</mgrwt>
</event>
<event>
 4    1  0.2533915E-002  0.4440023E+03  0.7818608E-02  0.1029526E+00
         -2   -1    0    0    0  501 -0.00000000000E+00  0.00000000000E+00  0.15370765859E+03  0.15370765859E+03  0.00000000000E+00 0. -1.
          2   -1    0    0  502    0  0.00000000000E+00 -0.00000000000E+00 -0.14354490529E+04  0.14354490529E+04  0.00000000000E+00 0.  1.
    9000007    1    1    2  502    0  0.57586020194E+02  0.18390734699E+03 -0.90019452497E+03  0.10037371393E+04  0.40000000000E+03 0.  1.
   -9000007    1    1    2    0  501 -0.57586020194E+02 -0.18390734699E+03 -0.38154686930E+03  0.58541957217E+03  0.40000000000E+03 0. -1.
<mgrwt>
<rscale>  2 0.44400232E+03</rscale>
<asrwt>0</asrwt>
<pdfrwt beam="1">  1        2 0.22083831E+00 0.44400232E+03</pdfrwt>
<pdfrwt beam="2">  1       -2 0.23647333E-01 0.44400232E+03</pdfrwt>
<totfact> 0.22803156E+02</totfact>
</mgrwt>
</event>
<event>
 4    1  0.2533915E-002  0.4889279E+03  0.7818608E-02  0.1016710E+00
         -2   -1    0    0    0  501 -0.00000000000E+00  0.00000000000E+00  0.12627504792E+03  0.12627504792E+03  0.00000000000E+00 0.  1.
          2   -1    0    0  502    0  0.00000000000E+00 -0.00000000000E+00 -0.20064338237E+04  0.20064338237E+04  0.00000000000E+00 0. -1.
    9000007    1    1    2  502    0  0.27595185824E+03  0.53861462662E+02 -0.11935229067E+04  0.12897858017E+04  0.40000000000E+03 0.  1.
   -9000007    1    1    2    0  501 -0.27595185824E+03 -0.53861462662E+02 -0.68663586906E+03  0.84292306999E+03  0.40000000000E+03 0. -1.
<mgrwt>
<rscale>  2 0.48892789E+03</rscale>
<asrwt>0</asrwt>
<pdfrwt beam="1">  1        2 0.30868210E+00 0.48892789E+03</pdfrwt>
<pdfrwt beam="2">  1       -2 0.19426932E-01 0.48892789E+03</pdfrwt>
<totfact> 0.15723045E+02</totfact>
</mgrwt>
</event>
<event>
 4    1  0.2533915E-002  0.4280420E+03  0.7818608E-02  0.1034480E+00
         -4   -1    0    0    0  501 -0.00000000000E+00  0.00000000000E+00  0.96454742251E+03  0.96454742251E+03  0.00000000000E+00 0.  1.
          4   -1    0    0  502    0  0.00000000000E+00 -0.00000000000E+00 -0.19301207368E+03  0.19301207368E+03  0.00000000000E+00 0. -1.
    9000007    1    1    2  502    0 -0.52073306259E+02  0.14320713730E+03  0.45861691238E+03  0.62733514625E+03  0.40000000000E+03 0. -1.
   -9000007    1    1    2    0  501  0.52073306259E+02 -0.14320713730E+03  0.31291843645E+03  0.53022434994E+03  0.40000000000E+03 0. -1.
<mgrwt>
<rscale>  2 0.42804195E+03</rscale>
<asrwt>0</asrwt>
<pdfrwt beam="1">  1        4 0.29694166E-01 0.42804195E+03</pdfrwt>
<pdfrwt beam="2">  1       -4 0.14839191E+00 0.42804195E+03</pdfrwt>
<totfact> 0.65542330E+00</totfact>
</mgrwt>
</event>
<event>
 4    1  0.2533915E-002  0.5002950E+03  0.7818608E-02  0.1013702E+00
         -2   -1    0    0    0  501 -0.00000000000E+00  0.00000000000E+00  0.16521472071E+03  0.16521472071E+03  0.00000000000E+00 0. -1.
          2   -1    0    0  502    0  0.00000000000E+00 -0.00000000000E+00 -0.15340765792E+04  0.15340765792E+04  0.00000000000E+00 0.  1.
    9000007    1    1    2  502    0 -0.29619660584E+03  0.50622589907E+02 -0.77925625125E+03  0.92603206264E+03  0.40000000000E+03 0.  1.
   -9000007    1    1    2    0  501  0.29619660584E+03 -0.50622589907E+02 -0.58960560723E+03  0.77325923725E+03  0.40000000000E+03 0. -1.
<mgrwt>
<rscale>  2 0.50029499E+03</rscale>
<asrwt>0</asrwt>
<pdfrwt beam="1">  1        2 0.23601179E+00 0.50029499E+03</pdfrwt>
<pdfrwt beam="2">  1       -2 0.25417649E-01 0.50029499E+03</pdfrwt>
<totfact> 0.17578766E+02</totfact>
</mgrwt>
</event>
<event>
 4    1  0.2533915E-002  0.6233084E+03  0.7818608E-02  0.9858195E-01
          2   -1    0    0  502    0  0.00000000000E+00  0.00000000000E+00  0.15507001341E+04  0.15507001341E+04  0.00000000000E+00 0. -1.
         -2   -1    0    0    0  501 -0.00000000000E+00 -0.00000000000E+00 -0.25202406676E+03  0.25202406676E+03  0.00000000000E+00 0.  1.
    9000007    1    1    2  502    0  0.36195275401E+02 -0.47665844118E+03  0.58018443454E+03  0.85154409492E+03  0.40000000000E+03 0. -1.
   -9000007    1    1    2    0  501 -0.36195275401E+02  0.47665844118E+03  0.71849163277E+03  0.95118010591E+03  0.40000000000E+03 0. -1.
<mgrwt>
<rscale>  2 0.62330840E+03</rscale>
<asrwt>0</asrwt>
<pdfrwt beam="1">  1        2 0.23856925E+00 0.62330840E+03</pdfrwt>
<pdfrwt beam="2">  1       -2 0.38772934E-01 0.62330840E+03</pdfrwt>
<totfact> 0.77272956E+01</totfact>
</mgrwt>
</event>
<event>
 4    1  0.2533915E-002  0.4207988E+03  0.7818608E-02  0.1036807E+00
          2   -1    0    0  502    0  0.00000000000E+00  0.00000000000E+00  0.19818263141E+04  0.19818263141E+04  0.00000000000E+00 0. -1.
         -2   -1    0    0    0  501 -0.00000000000E+00 -0.00000000000E+00 -0.10568938753E+03  0.10568938753E+03  0.00000000000E+00 0.  1.
    9000007    1    1    2  502    0 -0.91452946578E+02  0.93316772146E+02  0.13484919994E+04  0.14126225023E+04  0.40000000000E+03 0. -1.
   -9000007    1    1    2    0  501  0.91452946578E+02 -0.93316772146E+02  0.52764492709E+03  0.67489319932E+03  0.40000000000E+03 0.  1.
<mgrwt>
<rscale>  2 0.42079884E+03</rscale>
<asrwt>0</asrwt>
<pdfrwt beam="1">  1        2 0.30489633E+00 0.42079884E+03</pdfrwt>
<pdfrwt beam="2">  1       -2 0.16259907E-01 0.42079884E+03</pdfrwt>
<totfact> 0.22195709E+02</totfact>
</mgrwt>
</event>
<event>
 4    1  0.2533915E-002  0.4117445E+03  0.7818608E-02  0.1039787E+00
          1   -1    0    0  502    0  0.00000000000E+00  0.00000000000E+00  0.19656660233E+04  0.19656660233E+04  0.00000000000E+00 0. -1.
         -1   -1    0    0    0  501 -0.00000000000E+00 -0.00000000000E+00 -0.86247497375E+02  0.86247497375E+02  0.00000000000E+00 0.  1.
    9000007    1    1    2  502    0 -0.97621544449E+02  0.18923091025E+01  0.93851839578E+03  0.10248660039E+04  0.40000000000E+03 0.  1.
   -9000007    1    1    2    0  501  0.97621544449E+02 -0.18923091025E+01  0.94090013019E+03  0.10270475168E+04  0.40000000000E+03 0.  1.
<mgrwt>
<rscale>  2 0.41174452E+03</rscale>
<asrwt>0</asrwt>
<pdfrwt beam="1">  1        1 0.30241013E+00 0.41174452E+03</pdfrwt>
<pdfrwt beam="2">  1       -1 0.13268847E-01 0.41174452E+03</pdfrwt>
<totfact> 0.13538291E+02</totfact>
</mgrwt>
</event>
<event>
 4    1  0.2533915E-002  0.5151481E+03  0.7818608E-02  0.1009899E+00
         -2   -1    0    0    0  501 -0.00000000000E+00  0.00000000000E+00  0.29062113912E+03  0.29062113912E+03  0.00000000000E+00 0. -1.
          2   -1    0    0  502    0  0.00000000000E+00 -0.00000000000E+00 -0.99018595342E+03  0.99018595342E+03  0.00000000000E+00 0.  1.
    9000007    1    1    2  502    0  0.89741067945E+02 -0.31196804362E+03 -0.17114481418E+03  0.54283336940E+03  0.40000000000E+03 0. -1.
   -9000007    1    1    2    0  501 -0.89741067945E+02  0.31196804362E+03 -0.52842000012E+03  0.73797372314E+03  0.40000000000E+03 0.  1.
<mgrwt>
<rscale>  2 0.51514806E+03</rscale>
<asrwt>0</asrwt>
<pdfrwt beam="1">  1        2 0.15233630E+00 0.51514806E+03</pdfrwt>
<pdfrwt beam="2">  1       -2 0.44710945E-01 0.51514806E+03</pdfrwt>
<totfact> 0.12516523E+02</totfact>
</mgrwt>
</event>
<event>
 4    1  0.2533915E-002  0.4938248E+03  0.7818608E-02  0.1015403E+00
         -1   -1    0    0    0  501 -0.00000000000E+00  0.00000000000E+00  0.36290005979E+03  0.36290005979E+03  0.00000000000E+00 0.  1.
          1   -1    0    0  502    0  0.00000000000E+00 -0.00000000000E+00 -0.67278904055E+03  0.67278904055E+03  0.00000000000E+00 0. -1.
    9000007    1    1    2  502    0  0.98526705697E+02 -0.27231485962E+03 -0.17286178065E+03  0.52320559029E+03  0.40000000000E+03 0.  1.
   -9000007    1    1    2    0  501 -0.98526705697E+02  0.27231485962E+03 -0.13702720011E+03  0.51248351005E+03  0.40000000000E+03 0. -1.
<mgrwt>
<rscale>  2 0.49382476E+03</rscale>
<asrwt>0</asrwt>
<pdfrwt beam="1">  1        1 0.10350600E+00 0.49382476E+03</pdfrwt>
<pdfrwt beam="2">  1       -1 0.55830779E-01 0.49382476E+03</pdfrwt>
<totfact> 0.97811059E+01</totfact>
</mgrwt>
</event>
<event>
 4    1  0.2533915E-002  0.5228944E+03  0.7818608E-02  0.1007970E+00
          2   -1    0    0  502    0  0.00000000000E+00  0.00000000000E+00  0.15282974445E+04  0.15282974445E+04  0.00000000000E+00 0. -1.
         -2   -1    0    0    0  501 -0.00000000000E+00 -0.00000000000E+00 -0.17984441109E+03  0.17984441109E+03  0.00000000000E+00 0.  1.
    9000007    1    1    2  502    0  0.29613314274E+03  0.16038608277E+03  0.61246710288E+03  0.80531638869E+03  0.40000000000E+03 0. -1.
   -9000007    1    1    2    0  501 -0.29613314274E+03 -0.16038608277E+03  0.73598593057E+03  0.90282546695E+03  0.40000000000E+03 0.  1.
<mgrwt>
<rscale>  2 0.52289438E+03</rscale>
<asrwt>0</asrwt>
<pdfrwt beam="1">  1        2 0.23512268E+00 0.52289438E+03</pdfrwt>
<pdfrwt beam="2">  1       -2 0.27668372E-01 0.52289438E+03</pdfrwt>
<totfact> 0.15148019E+02</totfact>
</mgrwt>
</event>
<event>
 4    1  0.2533915E-002  0.4017175E+03  0.7818608E-02  0.1043187E+00
          1   -1    0    0  502    0  0.00000000000E+00  0.00000000000E+00  0.21717646549E+03  0.21717646549E+03  0.00000000000E+00 0. -1.
         -1   -1    0    0    0  501 -0.00000000000E+00 -0.00000000000E+00 -0.96562016234E+03  0.96562016234E+03  0.00000000000E+00 0.  1.
    9000007    1    1    2  502    0 -0.29166091515E+02  0.22940415385E+02 -0.90304035315E+02  0.41174232518E+03  0.40000000000E+03 0. -1.
   -9000007    1    1    2    0  501  0.29166091515E+02 -0.22940415385E+02 -0.65813966154E+03  0.77105430265E+03  0.40000000000E+03 0.  1.
<mgrwt>
<rscale>  2 0.40171747E+03</rscale>
<asrwt>0</asrwt>
<pdfrwt beam="1">  1        1 0.33411764E-01 0.40171747E+03</pdfrwt>
<pdfrwt beam="2">  1       -1 0.14855695E+00 0.40171747E+03</pdfrwt>
<totfact> 0.50548067E+01</totfact>
</mgrwt>
</event>
<event>
 4    1  0.2533915E-002  0.4266085E+03  0.7818608E-02  0.1034937E+00
          2   -1    0    0  502    0  0.00000000000E+00  0.00000000000E+00  0.54634247270E+03  0.54634247270E+03  0.00000000000E+00 0. -1.
         -2   -1    0    0    0  501 -0.00000000000E+00 -0.00000000000E+00 -0.34585704063E+03  0.34585704063E+03  0.00000000000E+00 0.  1.
    9000007    1    1    2  502    0 -0.84598513685E+02 -0.12181086609E+03  0.14616731915E+02  0.42685881093E+03  0.40000000000E+03 0.  1.
   -9000007    1    1    2    0  501  0.84598513685E+02  0.12181086609E+03  0.18586870015E+03  0.46534070240E+03  0.40000000000E+03 0. -1.
<mgrwt>
<rscale>  2 0.42660848E+03</rscale>
<asrwt>0</asrwt>
<pdfrwt beam="1">  1        2 0.84052688E-01 0.42660848E+03</pdfrwt>
<pdfrwt beam="2">  1       -2 0.53208776E-01 0.42660848E+03</pdfrwt>
<totfact> 0.18989476E+02</totfact>
</mgrwt>
</event>
<event>
 4    1  0.2533915E-002  0.4481933E+03  0.7818608E-02  0.1028262E+00
          1   -1    0    0  502    0  0.00000000000E+00  0.00000000000E+00  0.13124179469E+04  0.13124179469E+04  0.00000000000E+00 0. -1.
         -1   -1    0    0    0  501 -0.00000000000E+00 -0.00000000000E+00 -0.15508423795E+03  0.15508423795E+03  0.00000000000E+00 0.  1.
    9000007    1    1    2  502    0  0.19695092583E+03  0.45690105372E+02  0.49481489389E+03  0.66762192305E+03  0.40000000000E+03 0.  1.
   -9000007    1    1    2    0  501 -0.19695092583E+03 -0.45690105372E+02  0.66251881504E+03  0.79988026178E+03  0.40000000000E+03 0. -1.
<mgrwt>
<rscale>  2 0.44819332E+03</rscale>
<asrwt>0</asrwt>
<pdfrwt beam="1">  1        1 0.20191045E+00 0.44819332E+03</pdfrwt>
<pdfrwt beam="2">  1       -1 0.23859114E-01 0.44819332E+03</pdfrwt>
<totfact> 0.14121796E+02</totfact>
</mgrwt>
</event>
<event>
 4    1  0.2533915E-002  0.7813477E+03  0.7818608E-02  0.9587415E-01
         -2   -1    0    0    0  501 -0.00000000000E+00  0.00000000000E+00  0.59799606111E+03  0.59799606111E+03  0.00000000000E+00 0. -1.
          2   -1    0    0  502    0  0.00000000000E+00 -0.00000000000E+00 -0.13810127712E+04  0.13810127712E+04  0.00000000000E+00 0.  1.
    9000007    1    1    2  502    0 -0.62895779803E+03  0.23434220367E+03  0.11376694191E+03  0.78958666225E+03  0.40000000000E+03 0. -1.
   -9000007    1    1    2    0  501  0.62895779803E+03 -0.23434220367E+03 -0.89678365196E+03  0.11894221700E+04  0.40000000000E+03 0.  1.
<mgrwt>
<rscale>  2 0.78134767E+03</rscale>
<asrwt>0</asrwt>
<pdfrwt beam="1">  1        2 0.21246350E+00 0.78134767E+03</pdfrwt>
<pdfrwt beam="2">  1       -2 0.91999394E-01 0.78134767E+03</pdfrwt>
<totfact> 0.15176620E+01</totfact>
</mgrwt>
</event>
<event>
 4    1  0.2533915E-002  0.4643648E+03  0.7818608E-02  0.1023523E+00
         -2   -1    0    0    0  501 -0.00000000000E+00  0.00000000000E+00  0.14232479437E+03  0.14232479437E+03  0.00000000000E+00 0.  1.
          2   -1    0    0  502    0  0.00000000000E+00 -0.00000000000E+00 -0.15694780524E+04  0.15694780524E+04  0.00000000000E+00 0. -1.
    9000007    1    1    2  502    0 -0.22152981749E+03  0.80988827219E+02 -0.87290903746E+03  0.98873901402E+03  0.40000000000E+03 0. -1.
   -9000007    1    1    2    0  501  0.22152981749E+03 -0.80988827219E+02 -0.55424422053E+03  0.72306383270E+03  0.40000000000E+03 0.  1.
<mgrwt>
<rscale>  2 0.46436478E+03</rscale>
<asrwt>0</asrwt>
<pdfrwt beam="1">  1        2 0.24145819E+00 0.46436478E+03</pdfrwt>
<pdfrwt beam="2">  1       -2 0.21896120E-01 0.46436478E+03</pdfrwt>
<totfact> 0.22008195E+02</totfact>
</mgrwt>
</event>
<event>
 4    1  0.2533915E-002  0.4013220E+03  0.7818608E-02  0.1043323E+00
          1   -1    0    0  502    0  0.00000000000E+00  0.00000000000E+00  0.51777869241E+03  0.51777869241E+03  0.00000000000E+00 0. -1.
         -1   -1    0    0    0  501 -0.00000000000E+00 -0.00000000000E+00 -0.37213231502E+03  0.37213231502E+03  0.00000000000E+00 0.  1.
    9000007    1    1    2  502    0 -0.20660573122E+02  0.25149591860E+02 -0.10743546235E+03  0.41545365545E+03  0.40000000000E+03 0.  1.
   -9000007    1    1    2    0  501  0.20660573122E+02 -0.25149591860E+02  0.25308183973E+03  0.47445735199E+03  0.40000000000E+03 0. -1.
<mgrwt>
<rscale>  2 0.40132202E+03</rscale>
<asrwt>0</asrwt>
<pdfrwt beam="1">  1        1 0.79658260E-01 0.40132202E+03</pdfrwt>
<pdfrwt beam="2">  1       -1 0.57251126E-01 0.40132202E+03</pdfrwt>
<totfact> 0.13629037E+02</totfact>
</mgrwt>
</event>
<event>
 4    1  0.2533915E-002  0.7905927E+03  0.7818608E-02  0.9573734E-01
         -1   -1    0    0    0  501 -0.00000000000E+00  0.00000000000E+00  0.13593609259E+04  0.13593609259E+04  0.00000000000E+00 0. -1.
          1   -1    0    0  502    0  0.00000000000E+00 -0.00000000000E+00 -0.46337068400E+03  0.46337068400E+03  0.00000000000E+00 0.  1.
    9000007    1    1    2  502    0 -0.66162320294E+03 -0.16520175416E+03  0.52797524262E+03  0.95068119738E+03  0.40000000000E+03 0. -1.
   -9000007    1    1    2    0  501  0.66162320294E+03  0.16520175416E+03  0.36801499924E+03  0.87205041248E+03  0.40000000000E+03 0.  1.
<mgrwt>
<rscale>  2 0.79059274E+03</rscale>
<asrwt>0</asrwt>
<pdfrwt beam="1">  1        1 0.71287798E-01 0.79059274E+03</pdfrwt>
<pdfrwt beam="2">  1       -1 0.20913245E+00 0.79059274E+03</pdfrwt>
<totfact> 0.65992570E+00</totfact>
</mgrwt>
</event>
<event>
 4    1  0.2533915E-002  0.5554864E+03  0.7818608E-02  0.1000232E+00
          1   -1    0    0  502    0  0.00000000000E+00  0.00000000000E+00  0.29041182428E+04  0.29041182428E+04  0.00000000000E+00 0. -1.
         -1   -1    0    0    0  501 -0.00000000000E+00 -0.00000000000E+00 -0.10633453016E+03  0.10633453016E+03  0.00000000000E+00 0.  1.
    9000007    1    1    2  502    0  0.25191699492E+03 -0.29172418434E+03  0.14411052771E+04  0.15444577015E+04  0.40000000000E+03 0. -1.
   -9000007    1    1    2    0  501 -0.25191699492E+03  0.29172418434E+03  0.13566784356E+04  0.14659950715E+04  0.40000000000E+03 0.  1.
<mgrwt>
<rscale>  2 0.55548643E+03</rscale>
<asrwt>0</asrwt>
<pdfrwt beam="1">  1        1 0.44678736E+00 0.55548643E+03</pdfrwt>
<pdfrwt beam="2">  1       -1 0.16359161E-01 0.55548643E+03</pdfrwt>
<totfact> 0.21864355E+01</totfact>
</mgrwt>
</event>
<event>
 4    1  0.2533915E-002  0.4038811E+03  0.7818608E-02  0.1042444E+00
          1   -1    0    0  502    0  0.00000000000E+00  0.00000000000E+00  0.46670282653E+03  0.46670282653E+03  0.00000000000E+00 0. -1.
         -1   -1    0    0    0  501 -0.00000000000E+00 -0.00000000000E+00 -0.75868664715E+03  0.75868664715E+03  0.00000000000E+00 0.  1.
    9000007    1    1    2  502    0 -0.29836287600E+02  0.47220310496E+02  0.30395920006E+03  0.50548111447E+03  0.40000000000E+03 0. -1.
   -9000007    1    1    2    0  501  0.29836287600E+02 -0.47220310496E+02 -0.59594302068E+03  0.71990835922E+03  0.40000000000E+03 0.  1.
<mgrwt>
<rscale>  2 0.40388112E+03</rscale>
<asrwt>0</asrwt>
<pdfrwt beam="1">  1        1 0.71800436E-01 0.40388112E+03</pdfrwt>
<pdfrwt beam="2">  1       -1 0.11672102E+00 0.40388112E+03</pdfrwt>
<totfact> 0.34486389E+01</totfact>
</mgrwt>
</event>
<event>
 4    1  0.2533915E-002  0.4092866E+03  0.7818608E-02  0.1040611E+00
          2   -1    0    0  502    0  0.00000000000E+00  0.00000000000E+00  0.90503632730E+02  0.90503632730E+02  0.00000000000E+00 0.  1.
         -2   -1    0    0    0  501 -0.00000000000E+00 -0.00000000000E+00 -0.19257366974E+04  0.19257366974E+04  0.00000000000E+00 0. -1.
    9000007    1    1    2  502    0  0.83477634843E+02 -0.23388225680E+02 -0.71891749002E+03  0.82725925929E+03  0.40000000000E+03 0.  1.
   -9000007    1    1    2    0  501 -0.83477634843E+02  0.23388225680E+02 -0.11163155747E+04  0.11889810709E+04  0.40000000000E+03 0. -1.
<mgrwt>
<rscale>  2 0.40928660E+03</rscale>
<asrwt>0</asrwt>
<pdfrwt beam="1">  1        2 0.13923635E-01 0.40928660E+03</pdfrwt>
<pdfrwt beam="2">  1       -2 0.29626720E+00 0.40928660E+03</pdfrwt>
<totfact> 0.15952279E+01</totfact>
</mgrwt>
</event>
<event>
 4    1  0.2533915E-002  0.5860867E+03  0.7818608E-02  0.9934700E-01
          2   -1    0    0  502    0  0.00000000000E+00  0.00000000000E+00  0.12100309917E+04  0.12100309917E+04  0.00000000000E+00 0. -1.
         -2   -1    0    0    0  501 -0.00000000000E+00 -0.00000000000E+00 -0.29655877440E+03  0.29655877440E+03  0.00000000000E+00 0.  1.
    9000007    1    1    2  502    0  0.18594367025E+03  0.38590487654E+03  0.61252368782E+03  0.84775166787E+03  0.40000000000E+03 0. -1.
   -9000007    1    1    2    0  501 -0.18594367025E+03 -0.38590487654E+03  0.30094852945E+03  0.65883809819E+03  0.40000000000E+03 0.  1.
<mgrwt>
<rscale>  2 0.58608670E+03</rscale>
<asrwt>0</asrwt>
<pdfrwt beam="1">  1        2 0.18615861E+00 0.58608670E+03</pdfrwt>
<pdfrwt beam="2">  1       -2 0.45624427E-01 0.58608670E+03</pdfrwt>
<totfact> 0.87803902E+01</totfact>
</mgrwt>
</event>
<event>
 4    1  0.2533915E-002  0.4799376E+03  0.7818608E-02  0.1019152E+00
          1   -1    0    0  502    0  0.00000000000E+00  0.00000000000E+00  0.64668504650E+03  0.64668504650E+03  0.00000000000E+00 0.  1.
         -1   -1    0    0    0  501 -0.00000000000E+00 -0.00000000000E+00 -0.36859952800E+03  0.36859952800E+03  0.00000000000E+00 0. -1.
    9000007    1    1    2  502    0  0.26273903686E+03  0.36170003367E+02  0.45882554247E+02  0.48212579211E+03  0.40000000000E+03 0. -1.
   -9000007    1    1    2    0  501 -0.26273903686E+03 -0.36170003367E+02  0.23220296426E+03  0.53315878239E+03  0.40000000000E+03 0.  1.
<mgrwt>
<rscale>  2 0.47993757E+03</rscale>
<asrwt>0</asrwt>
<pdfrwt beam="1">  1        1 0.99490007E-01 0.47993757E+03</pdfrwt>
<pdfrwt beam="2">  1       -1 0.56707620E-01 0.47993757E+03</pdfrwt>
<totfact> 0.10073294E+02</totfact>
</mgrwt>
</event>
<event>
 4    1  0.2533915E-002  0.4192218E+03  0.7818608E-02  0.1037320E+00
         -2   -1    0    0    0  501 -0.00000000000E+00  0.00000000000E+00  0.13527430018E+03  0.13527430018E+03  0.00000000000E+00 0.  1.
          2   -1    0    0  502    0  0.00000000000E+00 -0.00000000000E+00 -0.13080906426E+04  0.13080906426E+04  0.00000000000E+00 0. -1.
    9000007    1    1    2  502    0  0.10614978211E+03 -0.66926509116E+02 -0.64594053153E+03  0.77005590974E+03  0.40000000000E+03 0. -1.
   -9000007    1    1    2    0  501 -0.10614978211E+03  0.66926509116E+02 -0.52687581087E+03  0.67330903302E+03  0.40000000000E+03 0.  1.
<mgrwt>
<rscale>  2 0.41922182E+03</rscale>
<asrwt>0</asrwt>
<pdfrwt beam="1">  1        2 0.20124472E+00 0.41922182E+03</pdfrwt>
<pdfrwt beam="2">  1       -2 0.20811430E-01 0.41922182E+03</pdfrwt>
<totfact> 0.33700131E+02</totfact>
</mgrwt>
</event>
<event>
 4    1  0.2533915E-002  0.4364283E+03  0.7818608E-02  0.1031848E+00
         -1   -1    0    0    0  501 -0.00000000000E+00  0.00000000000E+00  0.37342600673E+03  0.37342600673E+03  0.00000000000E+00 0.  1.
          1   -1    0    0  502    0  0.00000000000E+00 -0.00000000000E+00 -0.56539331359E+03  0.56539331359E+03  0.00000000000E+00 0. -1.
    9000007    1    1    2  502    0  0.14450949917E+02  0.17395651800E+03  0.50864909554E+02  0.43938245201E+03  0.40000000000E+03 0.  1.
   -9000007    1    1    2    0  501 -0.14450949917E+02 -0.17395651800E+03 -0.24283221641E+03  0.49943686832E+03  0.40000000000E+03 0. -1.
<mgrwt>
<rscale>  2 0.43642834E+03</rscale>
<asrwt>0</asrwt>
<pdfrwt beam="1">  1        1 0.86983586E-01 0.43642834E+03</pdfrwt>
<pdfrwt beam="2">  1       -1 0.57450155E-01 0.43642834E+03</pdfrwt>
<totfact> 0.11947989E+02</totfact>
</mgrwt>
</event>
<event>
 4    1  0.2533915E-002  0.6300090E+03  0.7818608E-02  0.9845031E-01
          4   -1    0    0  502    0  0.00000000000E+00  0.00000000000E+00  0.40144016675E+03  0.40144016675E+03  0.00000000000E+00 0. -1.
         -4   -1    0    0    0  501 -0.00000000000E+00 -0.00000000000E+00 -0.11020702328E+04  0.11020702328E+04  0.00000000000E+00 0.  1.
    9000007    1    1    2  502    0 -0.48554718255E+03 -0.33989100476E+02 -0.59140873090E+03  0.86410393612E+03  0.40000000000E+03 0. -1.
   -9000007    1    1    2    0  501  0.48554718255E+03  0.33989100476E+02 -0.10922133515E+03  0.63940646344E+03  0.40000000000E+03 0. -1.
<mgrwt>
<rscale>  2 0.63000899E+03</rscale>
<asrwt>0</asrwt>
<pdfrwt beam="1">  1        4 0.61760025E-01 0.63000899E+03</pdfrwt>
<pdfrwt beam="2">  1       -4 0.16954927E+00 0.63000899E+03</pdfrwt>
<totfact> 0.10328420E+00</totfact>
</mgrwt>
</event>
<event>
 4    1  0.2533915E-002  0.4942330E+03  0.7818608E-02  0.1015295E+00
          2   -1    0    0  502    0  0.00000000000E+00  0.00000000000E+00  0.19777458888E+04  0.19777458888E+04  0.00000000000E+00 0.  1.
         -2   -1    0    0    0  501 -0.00000000000E+00 -0.00000000000E+00 -0.12426456016E+03  0.12426456016E+03  0.00000000000E+00 0. -1.
    9000007    1    1    2  502    0  0.89146620266E+02  0.27625911696E+03  0.84469986350E+03  0.97866443636E+03  0.40000000000E+03 0. -1.
   -9000007    1    1    2    0  501 -0.89146620266E+02 -0.27625911696E+03  0.10087814652E+04  0.11233460126E+04  0.40000000000E+03 0.  1.
<mgrwt>
<rscale>  2 0.49423296E+03</rscale>
<asrwt>0</asrwt>
<pdfrwt beam="1">  1        2 0.30426857E+00 0.49423296E+03</pdfrwt>
<pdfrwt beam="2">  1       -2 0.19117626E-01 0.49423296E+03</pdfrwt>
<totfact> 0.16737404E+02</totfact>
</mgrwt>
</event>
<event>
 4    1  0.2533915E-002  0.9870039E+03  0.7818608E-02  0.9322915E-01
          1   -1    0    0  502    0  0.00000000000E+00  0.00000000000E+00  0.14918035420E+04  0.14918035420E+04  0.00000000000E+00 0.  1.
         -1   -1    0    0    0  501 -0.00000000000E+00 -0.00000000000E+00 -0.71536491752E+03  0.71536491752E+03  0.00000000000E+00 0. -1.
    9000007    1    1    2  502    0 -0.78150134660E+03  0.45103484511E+03  0.62424642269E+02  0.98897604734E+03  0.40000000000E+03 0. -1.
   -9000007    1    1    2    0  501  0.78150134660E+03 -0.45103484511E+03  0.71401398218E+03  0.12181924121E+04  0.40000000000E+03 0.  1.
<mgrwt>
<rscale>  2 0.98700394E+03</rscale>
<asrwt>0</asrwt>
<pdfrwt beam="1">  1        1 0.22950824E+00 0.98700394E+03</pdfrwt>
<pdfrwt beam="2">  1       -1 0.11005614E+00 0.98700394E+03</pdfrwt>
<totfact> 0.50879491E+00</totfact>
</mgrwt>
</event>
<event>
 4    1  0.2533915E-002  0.4366672E+03  0.7818608E-02  0.1031774E+00
          2   -1    0    0  502    0  0.00000000000E+00  0.00000000000E+00  0.19490929864E+04  0.19490929864E+04  0.00000000000E+00 0.  1.
         -2   -1    0    0    0  501 -0.00000000000E+00 -0.00000000000E+00 -0.10644826842E+03  0.10644826842E+03  0.00000000000E+00 0. -1.
    9000007    1    1    2  502    0 -0.83410297660E+02 -0.15401625777E+03  0.12137753446E+04  0.12899336698E+04  0.40000000000E+03 0. -1.
   -9000007    1    1    2    0  501  0.83410297660E+02  0.15401625777E+03  0.62886937340E+03  0.76560758500E+03  0.40000000000E+03 0. -1.
<mgrwt>
<rscale>  2 0.43666725E+03</rscale>
<asrwt>0</asrwt>
<pdfrwt beam="1">  1        2 0.29986043E+00 0.43666725E+03</pdfrwt>
<pdfrwt beam="2">  1       -2 0.16376658E-01 0.43666725E+03</pdfrwt>
<totfact> 0.22777519E+02</totfact>
</mgrwt>
</event>
<event>
 4    1  0.2533915E-002  0.4571997E+03  0.7818608E-02  0.1025597E+00
         -2   -1    0    0    0  501 -0.00000000000E+00  0.00000000000E+00  0.11538198472E+04  0.11538198472E+04  0.00000000000E+00 0. -1.
          2   -1    0    0  502    0  0.00000000000E+00 -0.00000000000E+00 -0.18860314063E+03  0.18860314063E+03  0.00000000000E+00 0.  1.
    9000007    1    1    2  502    0  0.11154568395E+03 -0.19128273818E+03  0.61590627205E+03  0.76705414508E+03  0.40000000000E+03 0. -1.
   -9000007    1    1    2    0  501 -0.11154568395E+03  0.19128273818E+03  0.34931043452E+03  0.57536884274E+03  0.40000000000E+03 0.  1.
<mgrwt>
<rscale>  2 0.45719966E+03</rscale>
<asrwt>0</asrwt>
<pdfrwt beam="1">  1        2 0.29015869E-01 0.45719966E+03</pdfrwt>
<pdfrwt beam="2">  1       -2 0.17751074E+00 0.45719966E+03</pdfrwt>
<totfact> 0.36178392E+01</totfact>
</mgrwt>
</event>
<event>
 4    1  0.2533915E-002  0.4432395E+03  0.7818608E-02  0.1029757E+00
         -1   -1    0    0    0  501 -0.00000000000E+00  0.00000000000E+00  0.11511626492E+04  0.11511626492E+04  0.00000000000E+00 0.  1.
          1   -1    0    0  502    0  0.00000000000E+00 -0.00000000000E+00 -0.19832843678E+03  0.19832843678E+03  0.00000000000E+00 0. -1.
    9000007    1    1    2  502    0 -0.76296356868E+01 -0.19079592890E+03  0.72842456025E+03  0.85268026704E+03  0.40000000000E+03 0.  1.
   -9000007    1    1    2    0  501  0.76296356868E+01  0.19079592890E+03  0.22440965217E+03  0.49681081894E+03  0.40000000000E+03 0. -1.
<mgrwt>
<rscale>  2 0.44323955E+03</rscale>
<asrwt>0</asrwt>
<pdfrwt beam="1">  1        1 0.30512068E-01 0.44323955E+03</pdfrwt>
<pdfrwt beam="2">  1       -1 0.17710194E+00 0.44323955E+03</pdfrwt>
<totfact> 0.34731031E+01</totfact>
</mgrwt>
</event>
<event>
 4    1  0.2533915E-002  0.4265027E+03  0.7818608E-02  0.1034970E+00
          2   -1    0    0  502    0  0.00000000000E+00  0.00000000000E+00  0.28964624662E+03  0.28964624662E+03  0.00000000000E+00 0. -1.
         -2   -1    0    0    0  501 -0.00000000000E+00 -0.00000000000E+00 -0.62807894118E+03  0.62807894118E+03  0.00000000000E+00 0.  1.
    9000007    1    1    2  502    0  0.79442745219E+02 -0.12487370156E+03 -0.17353532305E+03  0.46045531755E+03  0.40000000000E+03 0.  1.
   -9000007    1    1    2    0  501 -0.79442745219E+02  0.12487370156E+03 -0.16489737151E+03  0.45726987025E+03  0.40000000000E+03 0.  1.
<mgrwt>
<rscale>  2 0.42650274E+03</rscale>
<asrwt>0</asrwt>
<pdfrwt beam="1">  1        2 0.44560961E-01 0.42650274E+03</pdfrwt>
<pdfrwt beam="2">  1       -2 0.96627529E-01 0.42650274E+03</pdfrwt>
<totfact> 0.10506433E+02</totfact>
</mgrwt>
</event>
<event>
 4    1  0.2533915E-002  0.4534408E+03  0.7818608E-02  0.1026701E+00
          2   -1    0    0  502    0  0.00000000000E+00  0.00000000000E+00  0.22105493244E+04  0.22105493244E+04  0.00000000000E+00 0.  1.
         -2   -1    0    0    0  501 -0.00000000000E+00 -0.00000000000E+00 -0.11344127641E+03  0.11344127641E+03  0.00000000000E+00 0. -1.
    9000007    1    1    2  502    0  0.21047816932E+03  0.36159196450E+02  0.15416606327E+04  0.16069617462E+04  0.40000000000E+03 0.  1.
   -9000007    1    1    2    0  501 -0.21047816932E+03 -0.36159196450E+02  0.55544741531E+03  0.71702885467E+03  0.40000000000E+03 0. -1.
<mgrwt>
<rscale>  2 0.45344079E+03</rscale>
<asrwt>0</asrwt>
<pdfrwt beam="1">  1        2 0.34008448E+00 0.45344079E+03</pdfrwt>
<pdfrwt beam="2">  1       -2 0.17452506E-01 0.45344079E+03</pdfrwt>
<totfact> 0.14747437E+02</totfact>
</mgrwt>
</event>
<event>
 4    1  0.2533915E-002  0.4845859E+03  0.7818608E-02  0.1017882E+00
         -2   -1    0    0    0  501 -0.00000000000E+00  0.00000000000E+00  0.38695882509E+03  0.38695882509E+03  0.00000000000E+00 0. -1.
          2   -1    0    0  502    0  0.00000000000E+00 -0.00000000000E+00 -0.68890474579E+03  0.68890474579E+03  0.00000000000E+00 0.  1.
    9000007    1    1    2  502    0  0.21933693536E+03  0.16344664371E+03 -0.33663210179E+03  0.59003785345E+03  0.40000000000E+03 0.  1.
   -9000007    1    1    2    0  501 -0.21933693536E+03 -0.16344664371E+03  0.34686181084E+02  0.48582571742E+03  0.40000000000E+03 0. -1.
<mgrwt>
<rscale>  2 0.48458590E+03</rscale>
<asrwt>0</asrwt>
<pdfrwt beam="1">  1        2 0.10598535E+00 0.48458590E+03</pdfrwt>
<pdfrwt beam="2">  1       -2 0.59532127E-01 0.48458590E+03</pdfrwt>
<totfact> 0.11351863E+02</totfact>
</mgrwt>
</event>
<event>
 4    1  0.2533915E-002  0.4711821E+03  0.7818608E-02  0.1021587E+00
          1   -1    0    0  502    0  0.00000000000E+00  0.00000000000E+00  0.12359735688E+04  0.12359735688E+04  0.00000000000E+00 0. -1.
         -1   -1    0    0    0  501 -0.00000000000E+00 -0.00000000000E+00 -0.18382149373E+03  0.18382149373E+03  0.00000000000E+00 0.  1.
    9000007    1    1    2  502    0  0.24739129936E+03 -0.28463166479E+02  0.41882412872E+03  0.63041752644E+03  0.40000000000E+03 0. -1.
   -9000007    1    1    2    0  501 -0.24739129936E+03  0.28463166479E+02  0.63332794635E+03  0.78937753608E+03  0.40000000000E+03 0. -1.
<mgrwt>
<rscale>  2 0.47118214E+03</rscale>
<asrwt>0</asrwt>
<pdfrwt beam="1">  1        1 0.19014977E+00 0.47118214E+03</pdfrwt>
<pdfrwt beam="2">  1       -1 0.28280231E-01 0.47118214E+03</pdfrwt>
<totfact> 0.11936897E+02</totfact>
</mgrwt>
</event>
<event>
 4    1  0.2533915E-002  0.4322729E+03  0.7818608E-02  0.1033144E+00
         -2   -1    0    0    0  501 -0.00000000000E+00  0.00000000000E+00  0.20544609305E+03  0.20544609305E+03  0.00000000000E+00 0.  1.
          2   -1    0    0  502    0  0.00000000000E+00 -0.00000000000E+00 -0.99089664285E+03  0.99089664285E+03  0.00000000000E+00 0. -1.
    9000007    1    1    2  502    0 -0.16263378689E+03 -0.20250651663E+02 -0.56413235751E+03  0.71070750265E+03  0.40000000000E+03 0. -1.
   -9000007    1    1    2    0  501  0.16263378689E+03  0.20250651663E+02 -0.22131819229E+03  0.48563523325E+03  0.40000000000E+03 0.  1.
<mgrwt>
<rscale>  2 0.43227287E+03</rscale>
<asrwt>0</asrwt>
<pdfrwt beam="1">  1        2 0.15244564E+00 0.43227287E+03</pdfrwt>
<pdfrwt beam="2">  1       -2 0.31607091E-01 0.43227287E+03</pdfrwt>
<totfact> 0.24488082E+02</totfact>
</mgrwt>
</event>
<event>
 4    1  0.2533915E-002  0.9051950E+03  0.7818608E-02  0.9419111E-01
         -2   -1    0    0    0  501 -0.00000000000E+00  0.00000000000E+00  0.14073301844E+04  0.14073301844E+04  0.00000000000E+00 0. -1.
          2   -1    0    0  502    0  0.00000000000E+00 -0.00000000000E+00 -0.92607744383E+03  0.92607744383E+03  0.00000000000E+00 0.  1.
    9000007    1    1    2  502    0  0.44665234829E+03 -0.67814422236E+03  0.95155372547E+03  0.13133287475E+04  0.40000000000E+03 0. -1.
   -9000007    1    1    2    0  501 -0.44665234829E+03  0.67814422236E+03 -0.47030098489E+03  0.10200788807E+04  0.40000000000E+03 0.  1.
<mgrwt>
<rscale>  2 0.90519495E+03</rscale>
<asrwt>0</asrwt>
<pdfrwt beam="1">  1        2 0.14247345E+00 0.90519495E+03</pdfrwt>
<pdfrwt beam="2">  1       -2 0.21651234E+00 0.90519495E+03</pdfrwt>
<totfact> 0.29426359E+00</totfact>
</mgrwt>
</event>
<event>
 4    1  0.2533915E-002  0.6022012E+03  0.7818608E-02  0.9900850E-01
          1   -1    0    0  502    0  0.00000000000E+00  0.00000000000E+00  0.18475658754E+04  0.18475658754E+04  0.00000000000E+00 0. -1.
         -1   -1    0    0    0  501 -0.00000000000E+00 -0.00000000000E+00 -0.19751027720E+03  0.19751027720E+03  0.00000000000E+00 0.  1.
    9000007    1    1    2  502    0 -0.38407226521E+03  0.23480783742E+03  0.90562363718E+03  0.10875662728E+04  0.40000000000E+03 0. -1.
   -9000007    1    1    2    0  501  0.38407226521E+03 -0.23480783742E+03  0.74443196107E+03  0.95750987988E+03  0.40000000000E+03 0.  1.
<mgrwt>
<rscale>  2 0.60220115E+03</rscale>
<asrwt>0</asrwt>
<pdfrwt beam="1">  1        1 0.28424089E+00 0.60220115E+03</pdfrwt>
<pdfrwt beam="2">  1       -1 0.30386198E-01 0.60220115E+03</pdfrwt>
<totfact> 0.39781722E+01</totfact>
</mgrwt>
</event>
<event>
 4    1  0.2533915E-002  0.5061920E+03  0.7818608E-02  0.1012175E+00
         -2   -1    0    0    0  501 -0.00000000000E+00  0.00000000000E+00  0.96187425298E+03  0.96187425298E+03  0.00000000000E+00 0.  1.
          2   -1    0    0  502    0  0.00000000000E+00 -0.00000000000E+00 -0.43760774942E+03  0.43760774942E+03  0.00000000000E+00 0. -1.
    9000007    1    1    2  502    0 -0.22520063332E+02 -0.30939161217E+03 -0.17556382019E+03  0.53577325231E+03  0.40000000000E+03 0. -1.
   -9000007    1    1    2    0  501  0.22520063332E+02  0.30939161217E+03  0.69983032375E+03  0.86370875009E+03  0.40000000000E+03 0.  1.
<mgrwt>
<rscale>  2 0.50619198E+03</rscale>
<asrwt>0</asrwt>
<pdfrwt beam="1">  1        2 0.67324269E-01 0.50619198E+03</pdfrwt>
<pdfrwt beam="2">  1       -2 0.14798065E+00 0.50619198E+03</pdfrwt>
<totfact> 0.23141207E+01</totfact>
</mgrwt>
</event>
<event>
 4    1  0.2533915E-002  0.5495279E+03  0.7818608E-02  0.1001603E+00
         -2   -1    0    0    0  501 -0.00000000000E+00  0.00000000000E+00  0.86506443187E+03  0.86506443187E+03  0.00000000000E+00 0. -1.
          2   -1    0    0  502    0  0.00000000000E+00 -0.00000000000E+00 -0.45795310441E+03  0.45795310441E+03  0.00000000000E+00 0.  1.
    9000007    1    1    2  502    0 -0.16768716722E+03 -0.33743427497E+03  0.52608985302E+03  0.76075712907E+03  0.40000000000E+03 0. -1.
   -9000007    1    1    2    0  501  0.16768716722E+03  0.33743427497E+03 -0.11897852556E+03  0.56226040721E+03  0.40000000000E+03 0.  1.
<mgrwt>
<rscale>  2 0.54952787E+03</rscale>
<asrwt>0</asrwt>
<pdfrwt beam="1">  1        2 0.70454324E-01 0.54952787E+03</pdfrwt>
<pdfrwt beam="2">  1       -2 0.13308684E+00 0.54952787E+03</pdfrwt>
<totfact> 0.28745978E+01</totfact>
</mgrwt>
</event>
<event>
 4    1  0.2533915E-002  0.4868887E+03  0.7818608E-02  0.1017259E+00
          2   -1    0    0  502    0  0.00000000000E+00  0.00000000000E+00  0.15477080958E+03  0.15477080958E+03  0.00000000000E+00 0.  1.
         -2   -1    0    0    0  501 -0.00000000000E+00 -0.00000000000E+00 -0.15843575726E+04  0.15843575726E+04  0.00000000000E+00 0. -1.
    9000007    1    1    2  502    0  0.42019378209E+02 -0.27439922022E+03 -0.87333956184E+03  0.99989126932E+03  0.40000000000E+03 0. -1.
   -9000007    1    1    2    0  501 -0.42019378209E+02  0.27439922022E+03 -0.55624720120E+03  0.73923711287E+03  0.40000000000E+03 0.  1.
<mgrwt>
<rscale>  2 0.48688865E+03</rscale>
<asrwt>0</asrwt>
<pdfrwt beam="1">  1        2 0.23810893E-01 0.48688865E+03</pdfrwt>
<pdfrwt beam="2">  1       -2 0.24374733E+00 0.48688865E+03</pdfrwt>
<totfact> 0.17164988E+01</totfact>
</mgrwt>
</event>
<event>
 4    1  0.2533915E-002  0.5026953E+03  0.7818608E-02  0.1013078E+00
         -1   -1    0    0    0  501 -0.00000000000E+00  0.00000000000E+00  0.14948142363E+03  0.14948142363E+03  0.00000000000E+00 0. -1.
          1   -1    0    0  502    0  0.00000000000E+00 -0.00000000000E+00 -0.21200419908E+04  0.21200419908E+04  0.00000000000E+00 0.  1.
    9000007    1    1    2  502    0  0.20779160677E+03  0.22254264824E+03 -0.14960450473E+04  0.15782437600E+04  0.40000000000E+03 0.  1.
   -9000007    1    1    2    0  501 -0.20779160677E+03 -0.22254264824E+03 -0.47451551980E+03  0.69127965445E+03  0.40000000000E+03 0. -1.
<mgrwt>
<rscale>  2 0.50269532E+03</rscale>
<asrwt>0</asrwt>
<pdfrwt beam="1">  1        1 0.32616026E+00 0.50269532E+03</pdfrwt>
<pdfrwt beam="2">  1       -1 0.22997145E-01 0.50269532E+03</pdfrwt>
<totfact> 0.42929061E+01</totfact>
</mgrwt>
</event>
<event>
 4    1  0.2533915E-002  0.4176794E+03  0.7818608E-02  0.1037824E+00
         -1   -1    0    0    0  501 -0.00000000000E+00  0.00000000000E+00  0.82792249933E+03  0.82792249933E+03  0.00000000000E+00 0.  1.
          1   -1    0    0  502    0  0.00000000000E+00 -0.00000000000E+00 -0.32175358661E+03  0.32175358661E+03  0.00000000000E+00 0. -1.
    9000007    1    1    2  502    0  0.91594024115E+02  0.77888460458E+02 -0.84606826297E+02  0.42616240165E+03  0.40000000000E+03 0. -1.
   -9000007    1    1    2    0  501 -0.91594024115E+02 -0.77888460458E+02  0.59077573902E+03  0.72351368428E+03  0.40000000000E+03 0.  1.
<mgrwt>
<rscale>  2 0.41767940E+03</rscale>
<asrwt>0</asrwt>
<pdfrwt beam="1">  1        1 0.49500552E-01 0.41767940E+03</pdfrwt>
<pdfrwt beam="2">  1       -1 0.12737269E+00 0.41767940E+03</pdfrwt>
<totfact> 0.45204422E+01</totfact>
</mgrwt>
</event>
<event>
 4    1  0.2533915E-002  0.4163439E+03  0.7818608E-02  0.1038263E+00
         -1   -1    0    0    0  501 -0.00000000000E+00  0.00000000000E+00  0.69296424350E+03  0.69296424350E+03  0.00000000000E+00 0. -1.
          1   -1    0    0  502    0  0.00000000000E+00 -0.00000000000E+00 -0.25264127234E+03  0.25264127234E+03  0.00000000000E+00 0.  1.
    9000007    1    1    2  502    0 -0.32764597570E+02 -0.11076444088E+03  0.17317413255E+03  0.45092300939E+03  0.40000000000E+03 0. -1.
   -9000007    1    1    2    0  501  0.32764597570E+02  0.11076444088E+03  0.26714883861E+03  0.49468250645E+03  0.40000000000E+03 0. -1.
<mgrwt>
<rscale>  2 0.41634394E+03</rscale>
<asrwt>0</asrwt>
<pdfrwt beam="1">  1        1 0.38867888E-01 0.41634394E+03</pdfrwt>
<pdfrwt beam="2">  1       -1 0.10660988E+00 0.41634394E+03</pdfrwt>
<totfact> 0.94099524E+01</totfact>
</mgrwt>
</event>
<event>
 4    1  0.2533915E-002  0.4942485E+03  0.7818608E-02  0.1015291E+00
          1   -1    0    0  502    0  0.00000000000E+00  0.00000000000E+00  0.33972127219E+03  0.33972127219E+03  0.00000000000E+00 0.  1.
         -1   -1    0    0    0  501 -0.00000000000E+00 -0.00000000000E+00 -0.72883333408E+03  0.72883333408E+03  0.00000000000E+00 0. -1.
    9000007    1    1    2  502    0 -0.24007991723E+03  0.16322761799E+03 -0.13270222320E+03  0.51175336049E+03  0.40000000000E+03 0.  1.
   -9000007    1    1    2    0  501  0.24007991723E+03 -0.16322761799E+03 -0.25640983869E+03  0.55680124579E+03  0.40000000000E+03 0.  1.
<mgrwt>
<rscale>  2 0.49424854E+03</rscale>
<asrwt>0</asrwt>
<pdfrwt beam="1">  1        1 0.52264812E-01 0.49424854E+03</pdfrwt>
<pdfrwt beam="2">  1       -1 0.11212820E+00 0.49424854E+03</pdfrwt>
<totfact> 0.56736776E+01</totfact>
</mgrwt>
</event>
<event>
 4    1  0.2533915E-002  0.5175337E+03  0.7818608E-02  0.1009301E+00
          2   -1    0    0  502    0  0.00000000000E+00  0.00000000000E+00  0.19909461288E+04  0.19909461288E+04  0.00000000000E+00 0.  1.
         -2   -1    0    0    0  501 -0.00000000000E+00 -0.00000000000E+00 -0.15189544390E+03  0.15189544390E+03  0.00000000000E+00 0. -1.
    9000007    1    1    2  502    0  0.27592109839E+03  0.17806940744E+03  0.55725251085E+03  0.76050741433E+03  0.40000000000E+03 0.  1.
   -9000007    1    1    2    0  501 -0.27592109839E+03 -0.17806940744E+03  0.12817981741E+04  0.13823341584E+04  0.40000000000E+03 0. -1.
<mgrwt>
<rscale>  2 0.51753373E+03</rscale>
<asrwt>0</asrwt>
<pdfrwt beam="1">  1        2 0.30629939E+00 0.51753373E+03</pdfrwt>
<pdfrwt beam="2">  1       -2 0.23368531E-01 0.51753373E+03</pdfrwt>
<totfact> 0.11546114E+02</totfact>
</mgrwt>
</event>
<event>
 4    1  0.2533915E-002  0.4926016E+03  0.7818608E-02  0.1015728E+00
         -2   -1    0    0    0  501 -0.00000000000E+00  0.00000000000E+00  0.33953056623E+03  0.33953056623E+03  0.00000000000E+00 0.  1.
          2   -1    0    0  502    0  0.00000000000E+00 -0.00000000000E+00 -0.75127766485E+03  0.75127766485E+03  0.00000000000E+00 0. -1.
    9000007    1    1    2  502    0 -0.28750006602E+03 -0.11364124973E-01 -0.32624809781E+03  0.59084186498E+03  0.40000000000E+03 0. -1.
   -9000007    1    1    2    0  501  0.28750006602E+03  0.11364124973E-01 -0.85499000817E+02  0.49996636610E+03  0.40000000000E+03 0. -1.
<mgrwt>
<rscale>  2 0.49260155E+03</rscale>
<asrwt>0</asrwt>
<pdfrwt beam="1">  1        2 0.11558118E+00 0.49260155E+03</pdfrwt>
<pdfrwt beam="2">  1       -2 0.52235472E-01 0.49260155E+03</pdfrwt>
<totfact> 0.13330930E+02</totfact>
</mgrwt>
</event>
<event>
 4    1  0.2533915E-002  0.4679860E+03  0.7818608E-02  0.1022490E+00
         -2   -1    0    0    0  501 -0.00000000000E+00  0.00000000000E+00  0.18234701785E+03  0.18234701785E+03  0.00000000000E+00 0. -1.
          2   -1    0    0  502    0  0.00000000000E+00 -0.00000000000E+00 -0.12070676922E+04  0.12070676922E+04  0.00000000000E+00 0.  1.
    9000007    1    1    2  502    0  0.63438854290E+02 -0.23449180983E+03 -0.56134434737E+03  0.73083402592E+03  0.40000000000E+03 0.  1.
   -9000007    1    1    2    0  501 -0.63438854290E+02  0.23449180983E+03 -0.46337632700E+03  0.65858068415E+03  0.40000000000E+03 0.  1.
<mgrwt>
<rscale>  2 0.46798600E+03</rscale>
<asrwt>0</asrwt>
<pdfrwt beam="1">  1        2 0.18570272E+00 0.46798600E+03</pdfrwt>
<pdfrwt beam="2">  1       -2 0.28053388E-01 0.46798600E+03</pdfrwt>
<totfact> 0.22515194E+02</totfact>
</mgrwt>
</event>
<event>
 4    1  0.2533915E-002  0.4307776E+03  0.7818608E-02  0.1033615E+00
         -2   -1    0    0    0  501 -0.00000000000E+00  0.00000000000E+00  0.23106502758E+03  0.23106502758E+03  0.00000000000E+00 0. -1.
          2   -1    0    0  502    0  0.00000000000E+00 -0.00000000000E+00 -0.11095926340E+04  0.11095926340E+04  0.00000000000E+00 0.  1.
    9000007    1    1    2  502    0  0.91653487608E+02  0.13103031491E+03 -0.79156419589E+03  0.90118986980E+03  0.40000000000E+03 0.  1.
   -9000007    1    1    2    0  501 -0.91653487608E+02 -0.13103031491E+03 -0.86963410488E+02  0.43946779174E+03  0.40000000000E+03 0. -1.
<mgrwt>
<rscale>  2 0.43077756E+03</rscale>
<asrwt>0</asrwt>
<pdfrwt beam="1">  1        2 0.17070656E+00 0.43077756E+03</pdfrwt>
<pdfrwt beam="2">  1       -2 0.35548466E-01 0.43077756E+03</pdfrwt>
<totfact> 0.16623622E+02</totfact>
</mgrwt>
</event>
<event>
 4    1  0.2533915E-002  0.4761115E+03  0.7818608E-02  0.1020209E+00
         -1   -1    0    0    0  501 -0.00000000000E+00  0.00000000000E+00  0.43531006551E+03  0.43531006551E+03  0.00000000000E+00 0. -1.
          1   -1    0    0  502    0  0.00000000000E+00 -0.00000000000E+00 -0.74964392469E+03  0.74964392469E+03  0.00000000000E+00 0.  1.
    9000007    1    1    2  502    0 -0.38642959592E+02 -0.25532108837E+03 -0.48456285690E+03  0.67932562058E+03  0.40000000000E+03 0.  1.
   -9000007    1    1    2    0  501  0.38642959592E+02  0.25532108837E+03  0.17022899772E+03  0.50562836961E+03  0.40000000000E+03 0. -1.
<mgrwt>
<rscale>  2 0.47611147E+03</rscale>
<asrwt>0</asrwt>
<pdfrwt beam="1">  1        1 0.11532983E+00 0.47611147E+03</pdfrwt>
<pdfrwt beam="2">  1       -1 0.66970781E-01 0.47611147E+03</pdfrwt>
<totfact> 0.58304194E+01</totfact>
</mgrwt>
</event>
<event>
 4    1  0.2533915E-002  0.6844326E+03  0.7818608E-02  0.9744231E-01
          1   -1    0    0  502    0  0.00000000000E+00  0.00000000000E+00  0.47795362727E+03  0.47795362727E+03  0.00000000000E+00 0. -1.
         -1   -1    0    0    0  501 -0.00000000000E+00 -0.00000000000E+00 -0.98050089156E+03  0.98050089156E+03  0.00000000000E+00 0.  1.
    9000007    1    1    2  502    0 -0.51382338921E+03  0.21079261154E+03 -0.26579985229E+03  0.73423263470E+03  0.40000000000E+03 0.  1.
   -9000007    1    1    2    0  501  0.51382338921E+03 -0.21079261154E+03 -0.23674741201E+03  0.72422188414E+03  0.40000000000E+03 0. -1.
<mgrwt>
<rscale>  2 0.68443261E+03</rscale>
<asrwt>0</asrwt>
<pdfrwt beam="1">  1        1 0.73531328E-01 0.68443261E+03</pdfrwt>
<pdfrwt beam="2">  1       -1 0.15084629E+00 0.68443261E+03</pdfrwt>
<totfact> 0.16773528E+01</totfact>
</mgrwt>
</event>
<event>
 4    1  0.2533915E-002  0.4275594E+03  0.7818608E-02  0.1034634E+00
          1   -1    0    0  502    0  0.00000000000E+00  0.00000000000E+00  0.26518042613E+03  0.26518042613E+03  0.00000000000E+00 0.  1.
         -1   -1    0    0    0  501 -0.00000000000E+00 -0.00000000000E+00 -0.14529803781E+04  0.14529803781E+04  0.00000000000E+00 0. -1.
    9000007    1    1    2  502    0 -0.15024055280E+03  0.15323733131E+02 -0.12166880195E+04  0.12896266038E+04  0.40000000000E+03 0. -1.
   -9000007    1    1    2    0  501  0.15024055280E+03 -0.15323733131E+02  0.28888067492E+02  0.42853420044E+03  0.40000000000E+03 0.  1.
<mgrwt>
<rscale>  2 0.42755940E+03</rscale>
<asrwt>0</asrwt>
<pdfrwt beam="1">  1        1 0.40796989E-01 0.42755940E+03</pdfrwt>
<pdfrwt beam="2">  1       -1 0.22353544E+00 0.42755940E+03</pdfrwt>
<totfact> 0.11637133E+01</totfact>
</mgrwt>
</event>
<event>
 4    1  0.2533915E-002  0.4294492E+03  0.7818608E-02  0.1034034E+00
         -2   -1    0    0    0  501 -0.00000000000E+00  0.00000000000E+00  0.78813777341E+02  0.78813777341E+02  0.00000000000E+00 0.  1.
          2   -1    0    0  502    0  0.00000000000E+00 -0.00000000000E+00 -0.26005453496E+04  0.26005453496E+04  0.00000000000E+00 0. -1.
    9000007    1    1    2  502    0  0.15609986687E+03  0.77123057485E+01 -0.83684719151E+03  0.94060611843E+03  0.40000000000E+03 0.  1.
   -9000007    1    1    2    0  501 -0.15609986687E+03 -0.77123057485E+01 -0.16848843808E+04  0.17387530085E+04  0.40000000000E+03 0. -1.
<mgrwt>
<rscale>  2 0.42944924E+03</rscale>
<asrwt>0</asrwt>
<pdfrwt beam="1">  1        2 0.40008389E+00 0.42944924E+03</pdfrwt>
<pdfrwt beam="2">  1       -2 0.12125197E-01 0.42944924E+03</pdfrwt>
<totfact> 0.16576136E+02</totfact>
</mgrwt>
</event>
<event>
 4    1  0.2533915E-002  0.5765376E+03  0.7818608E-02  0.9955315E-01
         -2   -1    0    0    0  501 -0.00000000000E+00  0.00000000000E+00  0.43345198806E+03  0.43345198806E+03  0.00000000000E+00 0.  1.
          2   -1    0    0  502    0  0.00000000000E+00 -0.00000000000E+00 -0.77531948824E+03  0.77531948824E+03  0.00000000000E+00 0. -1.
    9000007    1    1    2  502    0  0.16286310339E+03 -0.38193095509E+03 -0.10779068816E+03  0.58652747366E+03  0.40000000000E+03 0.  1.
   -9000007    1    1    2    0  501 -0.16286310339E+03  0.38193095509E+03 -0.23407681202E+03  0.62224400264E+03  0.40000000000E+03 0.  1.
<mgrwt>
<rscale>  2 0.57653764E+03</rscale>
<asrwt>0</asrwt>
<pdfrwt beam="1">  1        2 0.11927992E+00 0.57653764E+03</pdfrwt>
<pdfrwt beam="2">  1       -2 0.66684921E-01 0.57653764E+03</pdfrwt>
<totfact> 0.76176422E+01</totfact>
</mgrwt>
</event>
<event>
 4    1  0.2533915E-002  0.4653806E+03  0.7818608E-02  0.1023232E+00
         -2   -1    0    0    0  501 -0.00000000000E+00  0.00000000000E+00  0.16816290195E+03  0.16816290195E+03  0.00000000000E+00 0. -1.
          2   -1    0    0  502    0  0.00000000000E+00 -0.00000000000E+00 -0.13908928020E+04  0.13908928020E+04  0.00000000000E+00 0.  1.
    9000007    1    1    2  502    0  0.20649156546E+03 -0.11806912386E+03 -0.82347542862E+03  0.94588100000E+03  0.40000000000E+03 0. -1.
   -9000007    1    1    2    0  501 -0.20649156546E+03  0.11806912386E+03 -0.39925447144E+03  0.61317470396E+03  0.40000000000E+03 0. -1.
<mgrwt>
<rscale>  2 0.46538058E+03</rscale>
<asrwt>0</asrwt>
<pdfrwt beam="1">  1        2 0.21398351E+00 0.46538058E+03</pdfrwt>
<pdfrwt beam="2">  1       -2 0.25871215E-01 0.46538058E+03</pdfrwt>
<totfact> 0.20506565E+02</totfact>
</mgrwt>
</event>
<event>
 4    1  0.2533915E-002  0.5071770E+03  0.7818608E-02  0.1011922E+00
         -1   -1    0    0    0  501 -0.00000000000E+00  0.00000000000E+00  0.20812991595E+03  0.20812991595E+03  0.00000000000E+00 0.  1.
          1   -1    0    0  502    0  0.00000000000E+00 -0.00000000000E+00 -0.15648734148E+04  0.15648734148E+04  0.00000000000E+00 0. -1.
    9000007    1    1    2  502    0 -0.30909624930E+03 -0.41085671657E+02 -0.10848318672E+04  0.11975344270E+04  0.40000000000E+03 0. -1.
   -9000007    1    1    2    0  501  0.30909624930E+03  0.41085671657E+02 -0.27191163164E+03  0.57546890374E+03  0.40000000000E+03 0.  1.
<mgrwt>
<rscale>  2 0.50717701E+03</rscale>
<asrwt>0</asrwt>
<pdfrwt beam="1">  1        1 0.24074975E+00 0.50717701E+03</pdfrwt>
<pdfrwt beam="2">  1       -1 0.32019987E-01 0.50717701E+03</pdfrwt>
<totfact> 0.56923517E+01</totfact>
</mgrwt>
</event>
<event>
 4    1  0.2533915E-002  0.4490826E+03  0.7818608E-02  0.1027996E+00
          2   -1    0    0  502    0  0.00000000000E+00  0.00000000000E+00  0.29627248481E+03  0.29627248481E+03  0.00000000000E+00 0.  1.
         -2   -1    0    0    0  501 -0.00000000000E+00 -0.00000000000E+00 -0.68339197167E+03  0.68339197167E+03  0.00000000000E+00 0. -1.
    9000007    1    1    2  502    0 -0.13590017483E+03 -0.15233622447E+03 -0.16286491026E+03  0.47770300585E+03  0.40000000000E+03 0.  1.
   -9000007    1    1    2    0  501  0.13590017483E+03  0.15233622447E+03 -0.22425457660E+03  0.50196145064E+03  0.40000000000E+03 0.  1.
<mgrwt>
<rscale>  2 0.44908260E+03</rscale>
<asrwt>0</asrwt>
<pdfrwt beam="1">  1        2 0.45580383E-01 0.44908260E+03</pdfrwt>
<pdfrwt beam="2">  1       -2 0.10513722E+00 0.44908260E+03</pdfrwt>
<totfact> 0.83874373E+01</totfact>
</mgrwt>
</event>
<event>
 4    1  0.2533915E-002  0.5654125E+03  0.7818608E-02  0.9979882E-01
         -1   -1    0    0    0  501 -0.00000000000E+00  0.00000000000E+00  0.48788410205E+03  0.48788410205E+03  0.00000000000E+00 0.  1.
          1   -1    0    0  502    0  0.00000000000E+00 -0.00000000000E+00 -0.79720498843E+03  0.79720498843E+03  0.00000000000E+00 0. -1.
    9000007    1    1    2  502    0 -0.30863074399E+03  0.25384705458E+03  0.11646935152E+03  0.57728361583E+03  0.40000000000E+03 0.  1.
   -9000007    1    1    2    0  501  0.30863074399E+03 -0.25384705458E+03 -0.42579023791E+03  0.70780547466E+03  0.40000000000E+03 0. -1.
<mgrwt>
<rscale>  2 0.56541247E+03</rscale>
<asrwt>0</asrwt>
<pdfrwt beam="1">  1        1 0.12264692E+00 0.56541247E+03</pdfrwt>
<pdfrwt beam="2">  1       -1 0.75059093E-01 0.56541247E+03</pdfrwt>
<totfact> 0.41491054E+01</totfact>
</mgrwt>
</event>
<event>
 4    1  0.2533915E-002  0.8238712E+03  0.7818608E-02  0.9526093E-01
          1   -1    0    0  502    0  0.00000000000E+00  0.00000000000E+00  0.53047389565E+04  0.53047389565E+04  0.00000000000E+00 0.  1.
         -1   -1    0    0    0  501 -0.00000000000E+00 -0.00000000000E+00 -0.12904881882E+03  0.12904881882E+03  0.00000000000E+00 0. -1.
    9000007    1    1    2  502    0 -0.71325973116E+03 -0.10012142890E+03  0.28380655223E+04  0.29552292049E+04  0.40000000000E+03 0. -1.
   -9000007    1    1    2    0  501  0.71325973116E+03  0.10012142890E+03  0.23376246154E+04  0.24785585704E+04  0.40000000000E+03 0. -1.
<mgrwt>
<rscale>  2 0.82387119E+03</rscale>
<asrwt>0</asrwt>
<pdfrwt beam="1">  1        1 0.81611352E+00 0.82387119E+03</pdfrwt>
<pdfrwt beam="2">  1       -1 0.19853669E-01 0.82387119E+03</pdfrwt>
<totfact> 0.77712343E-02</totfact>
</mgrwt>
</event>
<event>
 4    1  0.2533915E-002  0.4976203E+03  0.7818608E-02  0.1014402E+00
          1   -1    0    0  502    0  0.00000000000E+00  0.00000000000E+00  0.29439593921E+03  0.29439593921E+03  0.00000000000E+00 0.  1.
         -1   -1    0    0    0  501 -0.00000000000E+00 -0.00000000000E+00 -0.84621737822E+03  0.84621737822E+03  0.00000000000E+00 0. -1.
    9000007    1    1    2  502    0 -0.13158518092E+03  0.26516281268E+03 -0.23170179336E+03  0.54891866256E+03  0.40000000000E+03 0.  1.
   -9000007    1    1    2    0  501  0.13158518092E+03 -0.26516281268E+03 -0.32011964565E+03  0.59169465486E+03  0.40000000000E+03 0.  1.
<mgrwt>
<rscale>  2 0.49762031E+03</rscale>
<asrwt>0</asrwt>
<pdfrwt beam="1">  1        1 0.45291684E-01 0.49762031E+03</pdfrwt>
<pdfrwt beam="2">  1       -1 0.13018729E+00 0.49762031E+03</pdfrwt>
<totfact> 0.47482534E+01</totfact>
</mgrwt>
</event>
<event>
 4    1  0.2533915E-002  0.4694258E+03  0.7818608E-02  0.1022082E+00
          1   -1    0    0  502    0  0.00000000000E+00  0.00000000000E+00  0.56184791656E+03  0.56184791656E+03  0.00000000000E+00 0. -1.
         -1   -1    0    0    0  501 -0.00000000000E+00 -0.00000000000E+00 -0.39966077189E+03  0.39966077189E+03  0.00000000000E+00 0.  1.
    9000007    1    1    2  502    0 -0.13238213316E+03 -0.20696748702E+03  0.14674913336E+03  0.49182911464E+03  0.40000000000E+03 0. -1.
   -9000007    1    1    2    0  501  0.13238213316E+03  0.20696748702E+03  0.15438011303E+02  0.46967957381E+03  0.40000000000E+03 0. -1.
<mgrwt>
<rscale>  2 0.46942579E+03</rscale>
<asrwt>0</asrwt>
<pdfrwt beam="1">  1        1 0.86438141E-01 0.46942579E+03</pdfrwt>
<pdfrwt beam="2">  1       -1 0.61486273E-01 0.46942579E+03</pdfrwt>
<totfact> 0.10522706E+02</totfact>
</mgrwt>
</event>
<event>
 4    1  0.2533915E-002  0.5691014E+03  0.7818608E-02  0.9971669E-01
         -2   -1    0    0    0  501 -0.00000000000E+00  0.00000000000E+00  0.26076414576E+03  0.26076414576E+03  0.00000000000E+00 0. -1.
          2   -1    0    0  502    0  0.00000000000E+00 -0.00000000000E+00 -0.19473624929E+04  0.19473624929E+04  0.00000000000E+00 0.  1.
    9000007    1    1    2  502    0 -0.33198389724E+03  0.23165288778E+03 -0.15077581067E+04  0.16115864472E+04  0.40000000000E+03 0.  1.
   -9000007    1    1    2    0  501  0.33198389724E+03 -0.23165288778E+03 -0.17884024043E+03  0.59654019147E+03  0.40000000000E+03 0. -1.
<mgrwt>
<rscale>  2 0.56910137E+03</rscale>
<asrwt>0</asrwt>
<pdfrwt beam="1">  1        2 0.29959422E+00 0.56910137E+03</pdfrwt>
<pdfrwt beam="2">  1       -2 0.40117562E-01 0.56910137E+03</pdfrwt>
<totfact> 0.44382337E+01</totfact>
</mgrwt>
</event>
<event>
 4    1  0.2533915E-002  0.5538179E+03  0.7818608E-02  0.1000614E+00
          2   -1    0    0  502    0  0.00000000000E+00  0.00000000000E+00  0.66626097273E+03  0.66626097273E+03  0.00000000000E+00 0.  1.
         -2   -1    0    0    0  501 -0.00000000000E+00 -0.00000000000E+00 -0.50975193525E+03  0.50975193525E+03  0.00000000000E+00 0. -1.
    9000007    1    1    2  502    0  0.12476612802E+03  0.36214321417E+03  0.26130364870E+03  0.61236744778E+03  0.40000000000E+03 0.  1.
   -9000007    1    1    2    0  501 -0.12476612802E+03 -0.36214321417E+03 -0.10479461123E+03  0.56364546021E+03  0.40000000000E+03 0.  1.
<mgrwt>
<rscale>  2 0.55381793E+03</rscale>
<asrwt>0</asrwt>
<pdfrwt beam="1">  1        2 0.10250169E+00 0.55381793E+03</pdfrwt>
<pdfrwt beam="2">  1       -2 0.78423375E-01 0.55381793E+03</pdfrwt>
<totfact> 0.64813723E+01</totfact>
</mgrwt>
</event>
<event>
 4    1  0.2533915E-002  0.5074133E+03  0.7818608E-02  0.1011862E+00
         -1   -1    0    0    0  501 -0.00000000000E+00  0.00000000000E+00  0.27725711859E+03  0.27725711859E+03  0.00000000000E+00 0. -1.
          1   -1    0    0  502    0  0.00000000000E+00 -0.00000000000E+00 -0.11561707101E+04  0.11561707101E+04  0.00000000000E+00 0.  1.
    9000007    1    1    2  502    0 -0.10187594284E+03 -0.29510946121E+03 -0.12150025077E+03  0.52175723547E+03  0.40000000000E+03 0. -1.
   -9000007    1    1    2    0  501  0.10187594284E+03  0.29510946121E+03 -0.75741334071E+03  0.91167059320E+03  0.40000000000E+03 0.  1.
<mgrwt>
<rscale>  2 0.50741334E+03</rscale>
<asrwt>0</asrwt>
<pdfrwt beam="1">  1        1 0.17787242E+00 0.50741334E+03</pdfrwt>
<pdfrwt beam="2">  1       -1 0.42654941E-01 0.50741334E+03</pdfrwt>
<totfact> 0.65551198E+01</totfact>
</mgrwt>
</event>
<event>
 4    1  0.2533915E-002  0.6221141E+03  0.7818608E-02  0.9860560E-01
         -2   -1    0    0    0  501 -0.00000000000E+00  0.00000000000E+00  0.17098186754E+03  0.17098186754E+03  0.00000000000E+00 0. -1.
          2   -1    0    0  502    0  0.00000000000E+00 -0.00000000000E+00 -0.28404751256E+04  0.28404751256E+04  0.00000000000E+00 0.  1.
    9000007    1    1    2  502    0  0.46309524936E+03 -0.11211017553E+03 -0.20133423736E+04  0.21072668114E+04  0.40000000000E+03 0.  1.
   -9000007    1    1    2    0  501 -0.46309524936E+03  0.11211017553E+03 -0.65615088445E+03  0.90419018165E+03  0.40000000000E+03 0. -1.
<mgrwt>
<rscale>  2 0.62211406E+03</rscale>
<asrwt>0</asrwt>
<pdfrwt beam="1">  1        2 0.43699616E+00 0.62211406E+03</pdfrwt>
<pdfrwt beam="2">  1       -2 0.26304903E-01 0.62211406E+03</pdfrwt>
<totfact> 0.30702047E+01</totfact>
</mgrwt>
</event>
<event>
 4    1  0.2533915E-002  0.4304314E+03  0.7818608E-02  0.1033724E+00
         -2   -1    0    0    0  501 -0.00000000000E+00  0.00000000000E+00  0.18059906176E+03  0.18059906176E+03  0.00000000000E+00 0.  1.
          2   -1    0    0  502    0  0.00000000000E+00 -0.00000000000E+00 -0.10663688835E+04  0.10663688835E+04  0.00000000000E+00 0. -1.
    9000007    1    1    2  502    0 -0.15251527909E+03 -0.44835987036E+02 -0.56438947559E+03  0.70979338983E+03  0.40000000000E+03 0. -1.
   -9000007    1    1    2    0  501  0.15251527909E+03  0.44835987036E+02 -0.32138034610E+03  0.53717455538E+03  0.40000000000E+03 0.  1.
<mgrwt>
<rscale>  2 0.43043138E+03</rscale>
<asrwt>0</asrwt>
<pdfrwt beam="1">  1        2 0.16405675E+00 0.43043138E+03</pdfrwt>
<pdfrwt beam="2">  1       -2 0.27784471E-01 0.43043138E+03</pdfrwt>
<totfact> 0.27870630E+02</totfact>
</mgrwt>
</event>
<event>
 4    1  0.2533915E-002  0.4179279E+03  0.7818608E-02  0.1037743E+00
          2   -1    0    0  502    0  0.00000000000E+00  0.00000000000E+00  0.20774032225E+04  0.20774032225E+04  0.00000000000E+00 0. -1.
         -2   -1    0    0    0  501 -0.00000000000E+00 -0.00000000000E+00 -0.96893204285E+02  0.96893204285E+02  0.00000000000E+00 0.  1.
    9000007    1    1    2  502    0  0.52518533958E+02  0.10911242076E+03  0.59488253991E+03  0.72701372274E+03  0.40000000000E+03 0. -1.
   -9000007    1    1    2    0  501 -0.52518533958E+02 -0.10911242076E+03  0.13856274783E+04  0.14472827041E+04  0.40000000000E+03 0. -1.
<mgrwt>
<rscale>  2 0.41792788E+03</rscale>
<asrwt>0</asrwt>
<pdfrwt beam="1">  1        2 0.31960046E+00 0.41792788E+03</pdfrwt>
<pdfrwt beam="2">  1       -2 0.14906648E-01 0.41792788E+03</pdfrwt>
<totfact> 0.22839221E+02</totfact>
</mgrwt>
</event>
<event>
 4    1  0.2533915E-002  0.4186663E+03  0.7818608E-02  0.1037501E+00
          2   -1    0    0  502    0  0.00000000000E+00  0.00000000000E+00  0.32776797906E+04  0.32776797906E+04  0.00000000000E+00 0.  1.
         -2   -1    0    0    0  501 -0.00000000000E+00 -0.00000000000E+00 -0.75822648756E+02  0.75822648756E+02  0.00000000000E+00 0. -1.
    9000007    1    1    2  502    0  0.94442739617E+02 -0.79762324133E+02  0.25111828759E+04  0.25458438475E+04  0.40000000000E+03 0.  1.
   -9000007    1    1    2    0  501 -0.94442739617E+02  0.79762324133E+02  0.69067426588E+03  0.80765859183E+03  0.40000000000E+03 0. -1.
<mgrwt>
<rscale>  2 0.41866629E+03</rscale>
<asrwt>0</asrwt>
<pdfrwt beam="1">  1        2 0.50425832E+00 0.41866629E+03</pdfrwt>
<pdfrwt beam="2">  1       -2 0.11665025E-01 0.41866629E+03</pdfrwt>
<totfact> 0.69828258E+01</totfact>
</mgrwt>
</event>
<event>
 4    1  0.2533915E-002  0.4249653E+03  0.7818608E-02  0.1035462E+00
         -2   -1    0    0    0  501 -0.00000000000E+00  0.00000000000E+00  0.55374185953E+02  0.55374185953E+02  0.00000000000E+00 0.  1.
          2   -1    0    0  502    0  0.00000000000E+00 -0.00000000000E+00 -0.32806995716E+04  0.32806995716E+04  0.00000000000E+00 0. -1.
    9000007    1    1    2  502    0  0.57916042909E+02  0.13130579726E+03 -0.14846126088E+04  0.15442377015E+04  0.40000000000E+03 0.  1.
   -9000007    1    1    2    0  501 -0.57916042909E+02 -0.13130579726E+03 -0.17407127769E+04  0.17918360561E+04  0.40000000000E+03 0.  1.
<mgrwt>
<rscale>  2 0.42496527E+03</rscale>
<asrwt>0</asrwt>
<pdfrwt beam="1">  1        2 0.50472306E+00 0.42496527E+03</pdfrwt>
<pdfrwt beam="2">  1       -2 0.85191047E-02 0.42496527E+03</pdfrwt>
<totfact> 0.11516363E+02</totfact>
</mgrwt>
</event>
<event>
 4    1  0.2533915E-002  0.4068087E+03  0.7818608E-02  0.1041447E+00
          2   -1    0    0  502    0  0.00000000000E+00  0.00000000000E+00  0.76257515680E+03  0.76257515680E+03  0.00000000000E+00 0. -1.
         -2   -1    0    0    0  501 -0.00000000000E+00 -0.00000000000E+00 -0.21702211489E+03  0.21702211489E+03  0.00000000000E+00 0.  1.
    9000007    1    1    2  502    0 -0.41603070551E+02 -0.61339437362E+02  0.27093821677E+03  0.48877485549E+03  0.40000000000E+03 0.  1.
   -9000007    1    1    2    0  501  0.41603070551E+02  0.61339437362E+02  0.27461482514E+03  0.49082241620E+03  0.40000000000E+03 0.  1.
<mgrwt>
<rscale>  2 0.40680873E+03</rscale>
<asrwt>0</asrwt>
<pdfrwt beam="1">  1        2 0.11731925E+00 0.40680873E+03</pdfrwt>
<pdfrwt beam="2">  1       -2 0.33388018E-01 0.40680873E+03</pdfrwt>
<totfact> 0.31541693E+02</totfact>
</mgrwt>
</event>
<event>
 4    1  0.2533915E-002  0.4787503E+03  0.7818608E-02  0.1019479E+00
         -1   -1    0    0    0  501 -0.00000000000E+00  0.00000000000E+00  0.12326203749E+04  0.12326203749E+04  0.00000000000E+00 0. -1.
          1   -1    0    0  502    0  0.00000000000E+00 -0.00000000000E+00 -0.19185425477E+03  0.19185425477E+03  0.00000000000E+00 0.  1.
    9000007    1    1    2  502    0 -0.15649429325E+03  0.21145062635E+03  0.39540358250E+03  0.62092336424E+03  0.40000000000E+03 0.  1.
   -9000007    1    1    2    0  501  0.15649429325E+03 -0.21145062635E+03  0.64536253763E+03  0.80355126544E+03  0.40000000000E+03 0. -1.
<mgrwt>
<rscale>  2 0.47875028E+03</rscale>
<asrwt>0</asrwt>
<pdfrwt beam="1">  1        1 0.29516040E-01 0.47875028E+03</pdfrwt>
<pdfrwt beam="2">  1       -1 0.18963390E+00 0.47875028E+03</pdfrwt>
<totfact> 0.29460696E+01</totfact>
</mgrwt>
</event>
<event>
 4    1  0.2533915E-002  0.5719494E+03  0.7818608E-02  0.9965374E-01
         -1   -1    0    0    0  501 -0.00000000000E+00  0.00000000000E+00  0.63214473253E+03  0.63214473253E+03  0.00000000000E+00 0.  1.
          1   -1    0    0  502    0  0.00000000000E+00 -0.00000000000E+00 -0.57985579939E+03  0.57985579939E+03  0.00000000000E+00 0. -1.
    9000007    1    1    2  502    0 -0.42760085216E+02 -0.40656817788E+03 -0.17260211169E+03  0.59742580888E+03  0.40000000000E+03 0. -1.
   -9000007    1    1    2    0  501  0.42760085216E+02  0.40656817788E+03  0.22489104483E+03  0.61457472304E+03  0.40000000000E+03 0.  1.
<mgrwt>
<rscale>  2 0.57194939E+03</rscale>
<asrwt>0</asrwt>
<pdfrwt beam="1">  1        1 0.89208585E-01 0.57194939E+03</pdfrwt>
<pdfrwt beam="2">  1       -1 0.97253036E-01 0.57194939E+03</pdfrwt>
<totfact> 0.38101871E+01</totfact>
</mgrwt>
</event>
<event>
 4    1  0.2533915E-002  0.5005053E+03  0.7818608E-02  0.1013647E+00
          2   -1    0    0  502    0  0.00000000000E+00  0.00000000000E+00  0.18045309226E+04  0.18045309226E+04  0.00000000000E+00 0.  1.
         -2   -1    0    0    0  501 -0.00000000000E+00 -0.00000000000E+00 -0.20097597578E+03  0.20097597578E+03  0.00000000000E+00 0. -1.
    9000007    1    1    2  502    0 -0.29861557725E+03  0.36527395767E+02  0.24412644426E+03  0.55686913579E+03  0.40000000000E+03 0. -1.
   -9000007    1    1    2    0  501  0.29861557725E+03 -0.36527395767E+02  0.13594285025E+04  0.14486377626E+04  0.40000000000E+03 0.  1.
<mgrwt>
<rscale>  2 0.50050526E+03</rscale>
<asrwt>0</asrwt>
<pdfrwt beam="1">  1        2 0.27762013E+00 0.50050526E+03</pdfrwt>
<pdfrwt beam="2">  1       -2 0.30919382E-01 0.50050526E+03</pdfrwt>
<totfact> 0.87778533E+01</totfact>
</mgrwt>
</event>
<event>
 4    1  0.2533915E-002  0.4449492E+03  0.7818608E-02  0.1029239E+00
          2   -1    0    0  502    0  0.00000000000E+00  0.00000000000E+00  0.57196545626E+03  0.57196545626E+03  0.00000000000E+00 0.  1.
         -2   -1    0    0    0  501 -0.00000000000E+00 -0.00000000000E+00 -0.35832285073E+03  0.35832285073E+03  0.00000000000E+00 0. -1.
    9000007    1    1    2  502    0 -0.95486394097E+02 -0.16988848069E+03  0.21051090779E+02  0.44544684952E+03  0.40000000000E+03 0.  1.
   -9000007    1    1    2    0  501  0.95486394097E+02  0.16988848069E+03  0.19259151475E+03  0.48484145747E+03  0.40000000000E+03 0.  1.
<mgrwt>
<rscale>  2 0.44494915E+03</rscale>
<asrwt>0</asrwt>
<pdfrwt beam="1">  1        2 0.87994686E-01 0.44494915E+03</pdfrwt>
<pdfrwt beam="2">  1       -2 0.55126592E-01 0.44494915E+03</pdfrwt>
<totfact> 0.16716551E+02</totfact>
</mgrwt>
</event>
<event>
 4    1  0.2533915E-002  0.4454236E+03  0.7818608E-02  0.1029096E+00
          1   -1    0    0  502    0  0.00000000000E+00  0.00000000000E+00  0.76698306019E+03  0.76698306019E+03  0.00000000000E+00 0.  1.
         -1   -1    0    0    0  501 -0.00000000000E+00 -0.00000000000E+00 -0.25942583472E+03  0.25942583472E+03  0.00000000000E+00 0. -1.
    9000007    1    1    2  502    0 -0.53877619894E+02 -0.18841287068E+03  0.28131919328E+03  0.52682321159E+03  0.40000000000E+03 0. -1.
   -9000007    1    1    2    0  501  0.53877619894E+02  0.18841287068E+03  0.22623803219E+03  0.49958568331E+03  0.40000000000E+03 0.  1.
<mgrwt>
<rscale>  2 0.44542363E+03</rscale>
<asrwt>0</asrwt>
<pdfrwt beam="1">  1        1 0.11799739E+00 0.44542363E+03</pdfrwt>
<pdfrwt beam="2">  1       -1 0.39911667E-01 0.44542363E+03</pdfrwt>
<totfact> 0.15059605E+02</totfact>
</mgrwt>
</event>
<event>
 4    1  0.2533915E-002  0.4718581E+03  0.7818608E-02  0.1021397E+00
          2   -1    0    0  502    0  0.00000000000E+00  0.00000000000E+00  0.26836974482E+04  0.26836974482E+04  0.00000000000E+00 0. -1.
         -2   -1    0    0    0  501 -0.00000000000E+00 -0.00000000000E+00 -0.85261413836E+02  0.85261413836E+02  0.00000000000E+00 0.  1.
    9000007    1    1    2  502    0  0.62086003318E+02 -0.24247758767E+03  0.15264857107E+04  0.15977511313E+04  0.40000000000E+03 0. -1.
   -9000007    1    1    2    0  501 -0.62086003318E+02  0.24247758767E+03  0.10719503236E+04  0.11712077308E+04  0.40000000000E+03 0. -1.
<mgrwt>
<rscale>  2 0.47185808E+03</rscale>
<asrwt>0</asrwt>
<pdfrwt beam="1">  1        2 0.41287647E+00 0.47185808E+03</pdfrwt>
<pdfrwt beam="2">  1       -2 0.13117143E-01 0.47185808E+03</pdfrwt>
<totfact> 0.12957812E+02</totfact>
</mgrwt>
</event>
<event>
 4    1  0.2533915E-002  0.4233319E+03  0.7818608E-02  0.1035987E+00
          1   -1    0    0  502    0  0.00000000000E+00  0.00000000000E+00  0.11504297692E+04  0.11504297692E+04  0.00000000000E+00 0.  1.
         -1   -1    0    0    0  501 -0.00000000000E+00 -0.00000000000E+00 -0.11190190096E+04  0.11190190096E+04  0.00000000000E+00 0. -1.
    9000007    1    1    2  502    0 -0.12884167822E+03  0.51085743804E+02 -0.10370791051E+04  0.11201531152E+04  0.40000000000E+03 0. -1.
   -9000007    1    1    2    0  501  0.12884167822E+03 -0.51085743804E+02  0.10684898647E+04  0.11492956636E+04  0.40000000000E+03 0.  1.
<mgrwt>
<rscale>  2 0.42333194E+03</rscale>
<asrwt>0</asrwt>
<pdfrwt beam="1">  1        1 0.17698920E+00 0.42333194E+03</pdfrwt>
<pdfrwt beam="2">  1       -1 0.17215677E+00 0.42333194E+03</pdfrwt>
<totfact> 0.30981700E+00</totfact>
</mgrwt>
</event>
<event>
 4    1  0.2533915E-002  0.4767803E+03  0.7818608E-02  0.1020024E+00
          2   -1    0    0  502    0  0.00000000000E+00  0.00000000000E+00  0.80099882140E+03  0.80099882140E+03  0.00000000000E+00 0. -1.
         -2   -1    0    0    0  501 -0.00000000000E+00 -0.00000000000E+00 -0.31858309869E+03  0.31858309869E+03  0.00000000000E+00 0.  1.
    9000007    1    1    2  502    0  0.13293286267E+03 -0.22281910832E+03  0.42618989345E+03  0.63949771406E+03  0.40000000000E+03 0.  1.
   -9000007    1    1    2    0  501 -0.13293286267E+03  0.22281910832E+03  0.56225829257E+02  0.48008420604E+03  0.40000000000E+03 0.  1.
<mgrwt>
<rscale>  2 0.47678035E+03</rscale>
<asrwt>0</asrwt>
<pdfrwt beam="1">  1        2 0.12323059E+00 0.47678035E+03</pdfrwt>
<pdfrwt beam="2">  1       -2 0.49012785E-01 0.47678035E+03</pdfrwt>
<totfact> 0.13982971E+02</totfact>
</mgrwt>
</event>
<event>
 4    1  0.2533915E-002  0.6674129E+03  0.7818608E-02  0.9774643E-01
         -2   -1    0    0    0  501 -0.00000000000E+00  0.00000000000E+00  0.59613444196E+03  0.59613444196E+03  0.00000000000E+00 0.  1.
          2   -1    0    0  502    0  0.00000000000E+00 -0.00000000000E+00 -0.90949632134E+03  0.90949632134E+03  0.00000000000E+00 0. -1.
    9000007    1    1    2  502    0 -0.25311489548E+03 -0.47050267108E+03 -0.47467851745E+03  0.81899915063E+03  0.40000000000E+03 0. -1.
   -9000007    1    1    2    0  501  0.25311489548E+03  0.47050267108E+03  0.16131663807E+03  0.68663161267E+03  0.40000000000E+03 0.  1.
<mgrwt>
<rscale>  2 0.66741285E+03</rscale>
<asrwt>0</asrwt>
<pdfrwt beam="1">  1        2 0.13992251E+00 0.66741285E+03</pdfrwt>
<pdfrwt beam="2">  1       -2 0.91712991E-01 0.66741285E+03</pdfrwt>
<totfact> 0.29916531E+01</totfact>
</mgrwt>
</event>
<event>
 4    1  0.2533915E-002  0.4002287E+03  0.7818608E-02  0.1043701E+00
          2   -1    0    0  502    0  0.00000000000E+00  0.00000000000E+00  0.11135811535E+04  0.11135811535E+04  0.00000000000E+00 0. -1.
         -2   -1    0    0    0  501 -0.00000000000E+00 -0.00000000000E+00 -0.14387844064E+03  0.14387844064E+03  0.00000000000E+00 0.  1.
    9000007    1    1    2  502    0  0.97903702407E+01 -0.93346051256E+01  0.47525390960E+03  0.62132862866E+03  0.40000000000E+03 0.  1.
   -9000007    1    1    2    0  501 -0.97903702407E+01  0.93346051256E+01  0.49444880325E+03  0.63613096547E+03  0.40000000000E+03 0. -1.
<mgrwt>
<rscale>  2 0.40022867E+03</rscale>
<asrwt>0</asrwt>
<pdfrwt beam="1">  1        2 0.17132017E+00 0.40022867E+03</pdfrwt>
<pdfrwt beam="2">  1       -2 0.22135145E-01 0.40022867E+03</pdfrwt>
<totfact> 0.39267818E+02</totfact>
</mgrwt>
</event>
<event>
 4    1  0.2533915E-002  0.4027698E+03  0.7818608E-02  0.1042825E+00
          2   -1    0    0  502    0  0.00000000000E+00  0.00000000000E+00  0.58997104135E+03  0.58997104135E+03  0.00000000000E+00 0. -1.
         -2   -1    0    0    0  501 -0.00000000000E+00 -0.00000000000E+00 -0.27573537733E+03  0.27573537733E+03  0.00000000000E+00 0.  1.
    9000007    1    1    2  502    0  0.44018910594E+02  0.16907988446E+02  0.13429271300E+03  0.42456810682E+03  0.40000000000E+03 0.  1.
   -9000007    1    1    2    0  501 -0.44018910594E+02 -0.16907988446E+02  0.17994295101E+03  0.44113831185E+03  0.40000000000E+03 0.  1.
<mgrwt>
<rscale>  2 0.40276984E+03</rscale>
<asrwt>0</asrwt>
<pdfrwt beam="1">  1        2 0.90764775E-01 0.40276984E+03</pdfrwt>
<pdfrwt beam="2">  1       -2 0.42420827E-01 0.40276984E+03</pdfrwt>
<totfact> 0.27332309E+02</totfact>
</mgrwt>
</event>
<event>
 4    1  0.2533915E-002  0.4921288E+03  0.7818608E-02  0.1015854E+00
          2   -1    0    0  502    0  0.00000000000E+00  0.00000000000E+00  0.20392151740E+03  0.20392151740E+03  0.00000000000E+00 0.  1.
         -2   -1    0    0    0  501 -0.00000000000E+00 -0.00000000000E+00 -0.21243367101E+04  0.21243367101E+04  0.00000000000E+00 0. -1.
    9000007    1    1    2  502    0  0.11872506435E+03 -0.26095048977E+03 -0.17332134408E+04  0.18017268467E+04  0.40000000000E+03 0. -1.
   -9000007    1    1    2    0  501 -0.11872506435E+03  0.26095048977E+03 -0.18720175195E+03  0.52653138078E+03  0.40000000000E+03 0.  1.
<mgrwt>
<rscale>  2 0.49212884E+03</rscale>
<asrwt>0</asrwt>
<pdfrwt beam="1">  1        2 0.31372539E-01 0.49212884E+03</pdfrwt>
<pdfrwt beam="2">  1       -2 0.32682105E+00 0.49212884E+03</pdfrwt>
<totfact> 0.40108707E+00</totfact>
</mgrwt>
</event>
<event>
 4    1  0.2533915E-002  0.4466575E+03  0.7818608E-02  0.1028724E+00
         -1   -1    0    0    0  501 -0.00000000000E+00  0.00000000000E+00  0.12644482606E+03  0.12644482606E+03  0.00000000000E+00 0.  1.
          1   -1    0    0  502    0  0.00000000000E+00 -0.00000000000E+00 -0.15789464720E+04  0.15789464720E+04  0.00000000000E+00 0. -1.
    9000007    1    1    2  502    0  0.43059827793E+02  0.19403301907E+03 -0.70314071604E+03  0.83301250159E+03  0.40000000000E+03 0.  1.
   -9000007    1    1    2    0  501 -0.43059827793E+02 -0.19403301907E+03 -0.74936092986E+03  0.87237879643E+03  0.40000000000E+03 0. -1.
<mgrwt>
<rscale>  2 0.44665754E+03</rscale>
<asrwt>0</asrwt>
<pdfrwt beam="1">  1        1 0.24291483E+00 0.44665754E+03</pdfrwt>
<pdfrwt beam="2">  1       -1 0.19453051E-01 0.44665754E+03</pdfrwt>
<totfact> 0.13064381E+02</totfact>
</mgrwt>
</event>
<event>
 4    1  0.2533915E-002  0.4336439E+03  0.7818608E-02  0.1032715E+00
         -1   -1    0    0    0  501 -0.00000000000E+00  0.00000000000E+00  0.26711319459E+03  0.26711319459E+03  0.00000000000E+00 0. -1.
          1   -1    0    0  502    0  0.00000000000E+00 -0.00000000000E+00 -0.83565109978E+03  0.83565109978E+03  0.00000000000E+00 0.  1.
    9000007    1    1    2  502    0  0.16746990159E+03  0.93369975099E+00 -0.65413958877E+02  0.43854991250E+03  0.40000000000E+03 0. -1.
   -9000007    1    1    2    0  501 -0.16746990159E+03 -0.93369975099E+00 -0.50312394631E+03  0.66421438187E+03  0.40000000000E+03 0.  1.
<mgrwt>
<rscale>  2 0.43364391E+03</rscale>
<asrwt>0</asrwt>
<pdfrwt beam="1">  1        1 0.12856171E+00 0.43364391E+03</pdfrwt>
<pdfrwt beam="2">  1       -1 0.41094338E-01 0.43364391E+03</pdfrwt>
<totfact> 0.12502971E+02</totfact>
</mgrwt>
</event>
<event>
 4    1  0.2533915E-002  0.4013145E+03  0.7818608E-02  0.1043325E+00
         -2   -1    0    0    0  501 -0.00000000000E+00  0.00000000000E+00  0.24829929859E+03  0.24829929859E+03  0.00000000000E+00 0.  1.
          2   -1    0    0  502    0  0.00000000000E+00 -0.00000000000E+00 -0.65029753691E+03  0.65029753691E+03  0.00000000000E+00 0. -1.
    9000007    1    1    2  502    0  0.25237107735E+01  0.32356193192E+02 -0.22378066112E+03  0.45949001800E+03  0.40000000000E+03 0. -1.
   -9000007    1    1    2    0  501 -0.25237107735E+01 -0.32356193192E+02 -0.17821757721E+03  0.43910681750E+03  0.40000000000E+03 0. -1.
<mgrwt>
<rscale>  2 0.40131446E+03</rscale>
<asrwt>0</asrwt>
<pdfrwt beam="1">  1        2 0.10004577E+00 0.40131446E+03</pdfrwt>
<pdfrwt beam="2">  1       -2 0.38199892E-01 0.40131446E+03</pdfrwt>
<totfact> 0.29800621E+02</totfact>
</mgrwt>
</event>
<event>
 4    1  0.2533915E-002  0.4071119E+03  0.7818608E-02  0.1041345E+00
          2   -1    0    0  502    0  0.00000000000E+00  0.00000000000E+00  0.11767402260E+04  0.11767402260E+04  0.00000000000E+00 0.  1.
         -2   -1    0    0    0  501 -0.00000000000E+00 -0.00000000000E+00 -0.21582323803E+03  0.21582323803E+03  0.00000000000E+00 0. -1.
    9000007    1    1    2  502    0 -0.32449037329E+02 -0.68462616296E+02  0.70066987900E+02  0.41309738882E+03  0.40000000000E+03 0. -1.
   -9000007    1    1    2    0  501  0.32449037329E+02  0.68462616296E+02  0.89085000002E+03  0.97946607516E+03  0.40000000000E+03 0.  1.
<mgrwt>
<rscale>  2 0.40711186E+03</rscale>
<asrwt>0</asrwt>
<pdfrwt beam="1">  1        2 0.18103695E+00 0.40711186E+03</pdfrwt>
<pdfrwt beam="2">  1       -2 0.33203576E-01 0.40711186E+03</pdfrwt>
<totfact> 0.17299379E+02</totfact>
</mgrwt>
</event>
<event>
 4    1  0.2533915E-002  0.4252771E+03  0.7818608E-02  0.1035362E+00
          2   -1    0    0  502    0  0.00000000000E+00  0.00000000000E+00  0.27319749522E+04  0.27319749522E+04  0.00000000000E+00 0. -1.
         -2   -1    0    0    0  501 -0.00000000000E+00 -0.00000000000E+00 -0.72921376051E+02  0.72921376051E+02  0.00000000000E+00 0.  1.
    9000007    1    1    2  502    0 -0.14429912904E+03 -0.61919995496E+01  0.90378811655E+03  0.99884610382E+03  0.40000000000E+03 0.  1.
   -9000007    1    1    2    0  501  0.14429912904E+03  0.61919995496E+01  0.17552654596E+04  0.18060502244E+04  0.40000000000E+03 0. -1.
<mgrwt>
<rscale>  2 0.42527706E+03</rscale>
<asrwt>0</asrwt>
<pdfrwt beam="1">  1        2 0.42030376E+00 0.42527706E+03</pdfrwt>
<pdfrwt beam="2">  1       -2 0.11218675E-01 0.42527706E+03</pdfrwt>
<totfact> 0.15853088E+02</totfact>
</mgrwt>
</event>
<event>
 4    1  0.2533915E-002  0.4091461E+03  0.7818608E-02  0.1040658E+00
          1   -1    0    0  502    0  0.00000000000E+00  0.00000000000E+00  0.38434744951E+03  0.38434744951E+03  0.00000000000E+00 0. -1.
         -1   -1    0    0    0  501 -0.00000000000E+00 -0.00000000000E+00 -0.46342830626E+03  0.46342830626E+03  0.00000000000E+00 0.  1.
    9000007    1    1    2  502    0  0.40699806015E+02  0.75789789473E+02 -0.14351633941E+03  0.43358679186E+03  0.40000000000E+03 0.  1.
   -9000007    1    1    2    0  501 -0.40699806015E+02 -0.75789789473E+02  0.64435482667E+02  0.41418896391E+03  0.40000000000E+03 0.  1.
<mgrwt>
<rscale>  2 0.40914614E+03</rscale>
<asrwt>0</asrwt>
<pdfrwt beam="1">  1        1 0.59130377E-01 0.40914614E+03</pdfrwt>
<pdfrwt beam="2">  1       -1 0.71296663E-01 0.40914614E+03</pdfrwt>
<totfact> 0.13100898E+02</totfact>
</mgrwt>
</event>
<event>
 4    1  0.2533915E-002  0.7245155E+03  0.7818608E-02  0.9676202E-01
          2   -1    0    0  502    0  0.00000000000E+00  0.00000000000E+00  0.11734853154E+04  0.11734853154E+04  0.00000000000E+00 0.  1.
         -2   -1    0    0    0  501 -0.00000000000E+00 -0.00000000000E+00 -0.48486225466E+03  0.48486225466E+03  0.00000000000E+00 0. -1.
    9000007    1    1    2  502    0  0.17271069918E+03 -0.57887286418E+03  0.11358376153E+03  0.73336488148E+03  0.40000000000E+03 0. -1.
   -9000007    1    1    2    0  501 -0.17271069918E+03  0.57887286418E+03  0.57503929918E+03  0.92498268854E+03  0.40000000000E+03 0.  1.
<mgrwt>
<rscale>  2 0.72451555E+03</rscale>
<asrwt>0</asrwt>
<pdfrwt beam="1">  1        2 0.18053620E+00 0.72451555E+03</pdfrwt>
<pdfrwt beam="2">  1       -2 0.74594193E-01 0.72451555E+03</pdfrwt>
<totfact> 0.32418077E+01</totfact>
</mgrwt>
</event>
<event>
 4    1  0.2533915E-002  0.5202714E+03  0.7818608E-02  0.1008619E+00
          2   -1    0    0  502    0  0.00000000000E+00  0.00000000000E+00  0.27035350799E+04  0.27035350799E+04  0.00000000000E+00 0.  1.
         -2   -1    0    0    0  501 -0.00000000000E+00 -0.00000000000E+00 -0.15887409631E+03  0.15887409631E+03  0.00000000000E+00 0. -1.
    9000007    1    1    2  502    0  0.30268924246E+03  0.13806376142E+03  0.40199204538E+03  0.65748002576E+03  0.40000000000E+03 0. -1.
   -9000007    1    1    2    0  501 -0.30268924246E+03 -0.13806376142E+03  0.21426689382E+04  0.22049291505E+04  0.40000000000E+03 0.  1.
<mgrwt>
<rscale>  2 0.52027145E+03</rscale>
<asrwt>0</asrwt>
<pdfrwt beam="1">  1        2 0.41592844E+00 0.52027145E+03</pdfrwt>
<pdfrwt beam="2">  1       -2 0.24442171E-01 0.52027145E+03</pdfrwt>
<totfact> 0.42971162E+01</totfact>
</mgrwt>
</event>
<event>
 4    1  0.2533915E-002  0.5992777E+03  0.7818608E-02  0.9906906E-01
         -1   -1    0    0    0  501 -0.00000000000E+00  0.00000000000E+00  0.88639698276E+03  0.88639698276E+03  0.00000000000E+00 0. -1.
          1   -1    0    0  502    0  0.00000000000E+00 -0.00000000000E+00 -0.40589196289E+03  0.40589196289E+03  0.00000000000E+00 0.  1.
    9000007    1    1    2  502    0  0.68477440124E+02 -0.44095868865E+03  0.26766778699E+03  0.65633815148E+03  0.40000000000E+03 0.  1.
   -9000007    1    1    2    0  501 -0.68477440124E+02  0.44095868865E+03  0.21283723288E+03  0.63595079416E+03  0.40000000000E+03 0.  1.
<mgrwt>
<rscale>  2 0.59927767E+03</rscale>
<asrwt>0</asrwt>
<pdfrwt beam="1">  1        1 0.62444918E-01 0.59927767E+03</pdfrwt>
<pdfrwt beam="2">  1       -1 0.13636877E+00 0.59927767E+03</pdfrwt>
<totfact> 0.27485186E+01</totfact>
</mgrwt>
</event>
<event>
 4    1  0.2533915E-002  0.5612977E+03  0.7818608E-02  0.9989123E-01
          2   -1    0    0  502    0  0.00000000000E+00  0.00000000000E+00  0.17355206014E+04  0.17355206014E+04  0.00000000000E+00 0. -1.
         -2   -1    0    0    0  501 -0.00000000000E+00 -0.00000000000E+00 -0.19276892945E+03  0.19276892945E+03  0.00000000000E+00 0.  1.
    9000007    1    1    2  502    0  0.37391344993E+02  0.39199108281E+03  0.10041413577E+04  0.11503716738E+04  0.40000000000E+03 0. -1.
   -9000007    1    1    2    0  501 -0.37391344993E+02 -0.39199108281E+03  0.53861031431E+03  0.77791785708E+03  0.40000000000E+03 0.  1.
<mgrwt>
<rscale>  2 0.56129771E+03</rscale>
<asrwt>0</asrwt>
<pdfrwt beam="1">  1        2 0.26700316E+00 0.56129771E+03</pdfrwt>
<pdfrwt beam="2">  1       -2 0.29656759E-01 0.56129771E+03</pdfrwt>
<totfact> 0.10240810E+02</totfact>
</mgrwt>
</event>
<event>
 4    1  0.2533915E-002  0.4256011E+03  0.7818608E-02  0.1035259E+00
          2   -1    0    0  502    0  0.00000000000E+00  0.00000000000E+00  0.27883532453E+04  0.27883532453E+04  0.00000000000E+00 0. -1.
         -2   -1    0    0    0  501 -0.00000000000E+00 -0.00000000000E+00 -0.14175778405E+03  0.14175778405E+03  0.00000000000E+00 0.  1.
    9000007    1    1    2  502    0 -0.14485452105E+03  0.12386948403E+02  0.24497177704E+03  0.49106765349E+03  0.40000000000E+03 0.  1.
   -9000007    1    1    2    0  501  0.14485452105E+03 -0.12386948403E+02  0.24016236842E+04  0.24390433759E+04  0.40000000000E+03 0. -1.
<mgrwt>
<rscale>  2 0.42560107E+03</rscale>
<asrwt>0</asrwt>
<pdfrwt beam="1">  1        2 0.42897738E+00 0.42560107E+03</pdfrwt>
<pdfrwt beam="2">  1       -2 0.21808892E-01 0.42560107E+03</pdfrwt>
<totfact> 0.48000722E+01</totfact>
</mgrwt>
</event>
<event>
 4    1  0.2533915E-002  0.4176188E+03  0.7818608E-02  0.1037844E+00
         -1   -1    0    0    0  501 -0.00000000000E+00  0.00000000000E+00  0.13699661707E+03  0.13699661707E+03  0.00000000000E+00 0. -1.
          1   -1    0    0  502    0  0.00000000000E+00 -0.00000000000E+00 -0.14218285036E+04  0.14218285036E+04  0.00000000000E+00 0.  1.
    9000007    1    1    2  502    0 -0.52869983921E+02  0.10775075848E+03 -0.89452790549E+03  0.98721103866E+03  0.40000000000E+03 0.  1.
   -9000007    1    1    2    0  501  0.52869983921E+02 -0.10775075848E+03 -0.39030398109E+03  0.57161408206E+03  0.40000000000E+03 0.  1.
<mgrwt>
<rscale>  2 0.41761880E+03</rscale>
<asrwt>0</asrwt>
<pdfrwt beam="1">  1        1 0.21874285E+00 0.41761880E+03</pdfrwt>
<pdfrwt beam="2">  1       -1 0.21076403E-01 0.41761880E+03</pdfrwt>
<totfact> 0.14667815E+02</totfact>
</mgrwt>
</event>
<event>
 4    1  0.2533915E-002  0.4520673E+03  0.7818608E-02  0.1027107E+00
          3   -1    0    0  502    0  0.00000000000E+00  0.00000000000E+00  0.43357075589E+03  0.43357075589E+03  0.00000000000E+00 0. -1.
         -3   -1    0    0    0  501 -0.00000000000E+00 -0.00000000000E+00 -0.53251495257E+03  0.53251495257E+03  0.00000000000E+00 0.  1.
    9000007    1    1    2  502    0  0.19686934287E+03 -0.74882233058E+02 -0.21317649493E+03  0.49980906853E+03  0.40000000000E+03 0.  1.
   -9000007    1    1    2    0  501 -0.19686934287E+03  0.74882233058E+02  0.11423229824E+03  0.46627663994E+03  0.40000000000E+03 0. -1.
<mgrwt>
<rscale>  2 0.45206735E+03</rscale>
<asrwt>0</asrwt>
<pdfrwt beam="1">  1        3 0.66703193E-01 0.45206735E+03</pdfrwt>
<pdfrwt beam="2">  1       -3 0.81925378E-01 0.45206735E+03</pdfrwt>
<totfact> 0.77868970E+00</totfact>
</mgrwt>
</event>
<event>
 4    1  0.2533915E-002  0.4748115E+03  0.7818608E-02  0.1020571E+00
         -2   -1    0    0    0  501 -0.00000000000E+00  0.00000000000E+00  0.15975333303E+03  0.15975333303E+03  0.00000000000E+00 0.  1.
          2   -1    0    0  502    0  0.00000000000E+00 -0.00000000000E+00 -0.14449593692E+04  0.14449593692E+04  0.00000000000E+00 0. -1.
    9000007    1    1    2  502    0  0.19056931677E+03 -0.17067312213E+03 -0.51998534946E+03  0.70415249965E+03  0.40000000000E+03 0.  1.
   -9000007    1    1    2    0  501 -0.19056931677E+03  0.17067312213E+03 -0.76522068674E+03  0.90056020261E+03  0.40000000000E+03 0. -1.
<mgrwt>
<rscale>  2 0.47481152E+03</rscale>
<asrwt>0</asrwt>
<pdfrwt beam="1">  1        2 0.22230144E+00 0.47481152E+03</pdfrwt>
<pdfrwt beam="2">  1       -2 0.24577436E-01 0.47481152E+03</pdfrwt>
<totfact> 0.20959517E+02</totfact>
</mgrwt>
</event>
<event>
 4    1  0.2533915E-002  0.5523345E+03  0.7818608E-02  0.1000955E+00
         -1   -1    0    0    0  501 -0.00000000000E+00  0.00000000000E+00  0.15908356157E+03  0.15908356157E+03  0.00000000000E+00 0.  1.
          1   -1    0    0  502    0  0.00000000000E+00 -0.00000000000E+00 -0.20847408608E+04  0.20847408608E+04  0.00000000000E+00 0. -1.
    9000007    1    1    2  502    0  0.34001388587E+03  0.17165056048E+03 -0.64524809178E+03  0.84936356023E+03  0.40000000000E+03 0.  1.
   -9000007    1    1    2    0  501 -0.34001388587E+03 -0.17165056048E+03 -0.12804092074E+04  0.13944608621E+04  0.40000000000E+03 0. -1.
<mgrwt>
<rscale>  2 0.55233446E+03</rscale>
<asrwt>0</asrwt>
<pdfrwt beam="1">  1        1 0.32072936E+00 0.55233446E+03</pdfrwt>
<pdfrwt beam="2">  1       -1 0.24474395E-01 0.55233446E+03</pdfrwt>
<totfact> 0.40439501E+01</totfact>
</mgrwt>
</event>
<event>
 4    1  0.2533915E-002  0.4196649E+03  0.7818608E-02  0.1037175E+00
         -1   -1    0    0    0  501 -0.00000000000E+00  0.00000000000E+00  0.27880401637E+03  0.27880401637E+03  0.00000000000E+00 0. -1.
          1   -1    0    0  502    0  0.00000000000E+00 -0.00000000000E+00 -0.65668530138E+03  0.65668530138E+03  0.00000000000E+00 0.  1.
    9000007    1    1    2  502    0 -0.40322648989E+02  0.12038574096E+03 -0.97691185897E+02  0.43088537971E+03  0.40000000000E+03 0. -1.
   -9000007    1    1    2    0  501  0.40322648989E+02 -0.12038574096E+03 -0.28019009911E+03  0.50460393804E+03  0.40000000000E+03 0. -1.
<mgrwt>
<rscale>  2 0.41966492E+03</rscale>
<asrwt>0</asrwt>
<pdfrwt beam="1">  1        1 0.10102851E+00 0.41966492E+03</pdfrwt>
<pdfrwt beam="2">  1       -1 0.42892926E-01 0.41966492E+03</pdfrwt>
<totfact> 0.16719010E+02</totfact>
</mgrwt>
</event>
<event>
 4    1  0.2533915E-002  0.4906112E+03  0.7818608E-02  0.1016259E+00
         -2   -1    0    0    0  501 -0.00000000000E+00  0.00000000000E+00  0.90063219563E+03  0.90063219563E+03  0.00000000000E+00 0.  1.
          2   -1    0    0  502    0  0.00000000000E+00 -0.00000000000E+00 -0.33660519302E+03  0.33660519302E+03  0.00000000000E+00 0. -1.
    9000007    1    1    2  502    0 -0.28152046105E+03  0.38021216888E+02  0.12224559917E+01  0.49061275699E+03  0.40000000000E+03 0. -1.
   -9000007    1    1    2    0  501  0.28152046105E+03 -0.38021216888E+02  0.56280454661E+03  0.74662463167E+03  0.40000000000E+03 0. -1.
<mgrwt>
<rscale>  2 0.49061123E+03</rscale>
<asrwt>0</asrwt>
<pdfrwt beam="1">  1        2 0.51785415E-01 0.49061123E+03</pdfrwt>
<pdfrwt beam="2">  1       -2 0.13855880E+00 0.49061123E+03</pdfrwt>
<totfact> 0.36799631E+01</totfact>
</mgrwt>
</event>
<event>
 4    1  0.2533915E-002  0.4642868E+03  0.7818608E-02  0.1023545E+00
         -2   -1    0    0    0  501 -0.00000000000E+00  0.00000000000E+00  0.49796164305E+03  0.49796164305E+03  0.00000000000E+00 0. -1.
          2   -1    0    0  502    0  0.00000000000E+00 -0.00000000000E+00 -0.43506402227E+03  0.43506402227E+03  0.00000000000E+00 0.  1.
    9000007    1    1    2  502    0  0.19741717698E+03 -0.12879697817E+03 -0.15350656356E+01  0.46428930612E+03  0.40000000000E+03 0. -1.
   -9000007    1    1    2    0  501 -0.19741717698E+03  0.12879697817E+03  0.64432686418E+02  0.46873635920E+03  0.40000000000E+03 0.  1.
<mgrwt>
<rscale>  2 0.46428677E+03</rscale>
<asrwt>0</asrwt>
<pdfrwt beam="1">  1        2 0.66932926E-01 0.46428677E+03</pdfrwt>
<pdfrwt beam="2">  1       -2 0.76609484E-01 0.46428677E+03</pdfrwt>
<totfact> 0.11316667E+02</totfact>
</mgrwt>
</event>
<event>
 4    1  0.2533915E-002  0.4214920E+03  0.7818608E-02  0.1036582E+00
         -2   -1    0    0    0  501 -0.00000000000E+00  0.00000000000E+00  0.37307891996E+03  0.37307891996E+03  0.00000000000E+00 0. -1.
          2   -1    0    0  502    0  0.00000000000E+00 -0.00000000000E+00 -0.74823306796E+03  0.74823306796E+03  0.00000000000E+00 0.  1.
    9000007    1    1    2  502    0  0.25360322512E+02  0.13043131378E+03  0.15048693988E+03  0.44755088275E+03  0.40000000000E+03 0. -1.
   -9000007    1    1    2    0  501 -0.25360322512E+02 -0.13043131378E+03 -0.52564108788E+03  0.67376110517E+03  0.40000000000E+03 0.  1.
<mgrwt>
<rscale>  2 0.42149196E+03</rscale>
<asrwt>0</asrwt>
<pdfrwt beam="1">  1        2 0.11511278E+00 0.42149196E+03</pdfrwt>
<pdfrwt beam="2">  1       -2 0.57396757E-01 0.42149196E+03</pdfrwt>
<totfact> 0.11113996E+02</totfact>
</mgrwt>
</event>
<event>
 4    1  0.2533915E-002  0.4232375E+03  0.7818608E-02  0.1036018E+00
          1   -1    0    0  502    0  0.00000000000E+00  0.00000000000E+00  0.10654138440E+03  0.10654138440E+03  0.00000000000E+00 0. -1.
         -1   -1    0    0    0  501 -0.00000000000E+00 -0.00000000000E+00 -0.18790621110E+04  0.18790621110E+04  0.00000000000E+00 0.  1.
    9000007    1    1    2  502    0  0.13223215232E+03 -0.40553809968E+02 -0.56419525296E+03  0.70529868642E+03  0.40000000000E+03 0. -1.
   -9000007    1    1    2    0  501 -0.13223215232E+03  0.40553809968E+02 -0.12083254736E+04  0.12803048089E+04  0.40000000000E+03 0.  1.
<mgrwt>
<rscale>  2 0.42323747E+03</rscale>
<asrwt>0</asrwt>
<pdfrwt beam="1">  1        1 0.16390983E-01 0.42323747E+03</pdfrwt>
<pdfrwt beam="2">  1       -1 0.28908646E+00 0.42323747E+03</pdfrwt>
<totfact> 0.14494420E+01</totfact>
</mgrwt>
</event>
<event>
 4    1  0.2533915E-002  0.4104010E+03  0.7818608E-02  0.1040237E+00
          2   -1    0    0  502    0  0.00000000000E+00  0.00000000000E+00  0.27443763642E+03  0.27443763642E+03  0.00000000000E+00 0.  1.
         -2   -1    0    0    0  501 -0.00000000000E+00 -0.00000000000E+00 -0.65200162917E+03  0.65200162917E+03  0.00000000000E+00 0. -1.
    9000007    1    1    2  502    0 -0.82722208367E+02  0.39824416774E+02 -0.30101884510E+03  0.50896099363E+03  0.40000000000E+03 0.  1.
   -9000007    1    1    2    0  501  0.82722208367E+02 -0.39824416774E+02 -0.76545147648E+02  0.41747827196E+03  0.40000000000E+03 0.  1.
<mgrwt>
<rscale>  2 0.41040096E+03</rscale>
<asrwt>0</asrwt>
<pdfrwt beam="1">  1        2 0.42221175E-01 0.41040096E+03</pdfrwt>
<pdfrwt beam="2">  1       -2 0.10030794E+00 0.41040096E+03</pdfrwt>
<totfact> 0.10225413E+02</totfact>
</mgrwt>
</event>
<event>
 4    1  0.2533915E-002  0.6875741E+03  0.7818608E-02  0.9738721E-01
         -1   -1    0    0    0  501 -0.00000000000E+00  0.00000000000E+00  0.79173818513E+03  0.79173818513E+03  0.00000000000E+00 0.  1.
          1   -1    0    0  502    0  0.00000000000E+00 -0.00000000000E+00 -0.17825401234E+04  0.17825401234E+04  0.00000000000E+00 0. -1.
    9000007    1    1    2  502    0 -0.69599445274E+02 -0.55490000870E+03  0.55424551906E+03  0.88314562663E+03  0.40000000000E+03 0.  1.
   -9000007    1    1    2    0  501  0.69599445274E+02  0.55490000870E+03 -0.15450474573E+04  0.16911326819E+04  0.40000000000E+03 0. -1.
<mgrwt>
<rscale>  2 0.68757407E+03</rscale>
<asrwt>0</asrwt>
<pdfrwt beam="1">  1        1 0.27423694E+00 0.68757407E+03</pdfrwt>
<pdfrwt beam="2">  1       -1 0.12180588E+00 0.68757407E+03</pdfrwt>
<totfact> 0.26545879E+00</totfact>
</mgrwt>
</event>
<event>
 4    1  0.2533915E-002  0.4179721E+03  0.7818608E-02  0.1037728E+00
          2   -1    0    0  502    0  0.00000000000E+00  0.00000000000E+00  0.99079095849E+03  0.99079095849E+03  0.00000000000E+00 0. -1.
         -2   -1    0    0    0  501 -0.00000000000E+00 -0.00000000000E+00 -0.17858895062E+03  0.17858895062E+03  0.00000000000E+00 0.  1.
    9000007    1    1    2  502    0  0.12054696102E+03 -0.13002814724E+02  0.47194061459E+03  0.63041937367E+03  0.40000000000E+03 0. -1.
   -9000007    1    1    2    0  501 -0.12054696102E+03  0.13002814724E+02  0.34026139328E+03  0.53896053544E+03  0.40000000000E+03 0. -1.
<mgrwt>
<rscale>  2 0.41797206E+03</rscale>
<asrwt>0</asrwt>
<pdfrwt beam="1">  1        2 0.15242937E+00 0.41797206E+03</pdfrwt>
<pdfrwt beam="2">  1       -2 0.27475224E-01 0.41797206E+03</pdfrwt>
<totfact> 0.31703770E+02</totfact>
</mgrwt>
</event>
<event>
 4    1  0.2533915E-002  0.4047247E+03  0.7818608E-02  0.1042156E+00
          2   -1    0    0  502    0  0.00000000000E+00  0.00000000000E+00  0.16579903694E+04  0.16579903694E+04  0.00000000000E+00 0.  1.
         -2   -1    0    0    0  501 -0.00000000000E+00 -0.00000000000E+00 -0.11021547319E+03  0.11021547319E+03  0.00000000000E+00 0. -1.
    9000007    1    1    2  502    0 -0.16589929542E+02 -0.59387579387E+02  0.10584728866E+04  0.11332109080E+04  0.40000000000E+03 0.  1.
   -9000007    1    1    2    0  501  0.16589929542E+02  0.59387579387E+02  0.48930200962E+03  0.63499493460E+03  0.40000000000E+03 0. -1.
<mgrwt>
<rscale>  2 0.40472473E+03</rscale>
<asrwt>0</asrwt>
<pdfrwt beam="1">  1        2 0.25507542E+00 0.40472473E+03</pdfrwt>
<pdfrwt beam="2">  1       -2 0.16956228E-01 0.40472473E+03</pdfrwt>
<totfact> 0.30871003E+02</totfact>
</mgrwt>
</event>
<event>
 4    1  0.2533915E-002  0.4758089E+03  0.7818608E-02  0.1020293E+00
          2   -1    0    0  502    0  0.00000000000E+00  0.00000000000E+00  0.51207661559E+03  0.51207661559E+03  0.00000000000E+00 0.  1.
         -2   -1    0    0    0  501 -0.00000000000E+00 -0.00000000000E+00 -0.76305534096E+03  0.76305534096E+03  0.00000000000E+00 0. -1.
    9000007    1    1    2  502    0  0.24922333669E+03  0.65435992501E+02 -0.53897718373E+03  0.71895100337E+03  0.40000000000E+03 0. -1.
   -9000007    1    1    2    0  501 -0.24922333669E+03 -0.65435992501E+02  0.28799845836E+03  0.55618095318E+03  0.40000000000E+03 0.  1.
<mgrwt>
<rscale>  2 0.47580893E+03</rscale>
<asrwt>0</asrwt>
<pdfrwt beam="1">  1        2 0.78781018E-01 0.47580893E+03</pdfrwt>
<pdfrwt beam="2">  1       -2 0.11739313E+00 0.47580893E+03</pdfrwt>
<totfact> 0.34862404E+01</totfact>
</mgrwt>
</event>
<event>
 4    1  0.2533915E-002  0.4173284E+03  0.7818608E-02  0.1037939E+00
         -2   -1    0    0    0  501 -0.00000000000E+00  0.00000000000E+00  0.33743580556E+03  0.33743580556E+03  0.00000000000E+00 0. -1.
          2   -1    0    0  502    0  0.00000000000E+00 -0.00000000000E+00 -0.60499436991E+03  0.60499436991E+03  0.00000000000E+00 0.  1.
    9000007    1    1    2  502    0  0.11804293414E+03 -0.15128299653E+02 -0.31436816276E+03  0.52248477634E+03  0.40000000000E+03 0.  1.
   -9000007    1    1    2    0  501 -0.11804293414E+03  0.15128299653E+02  0.46809598410E+02  0.41994539913E+03  0.40000000000E+03 0. -1.
<mgrwt>
<rscale>  2 0.41732841E+03</rscale>
<asrwt>0</asrwt>
<pdfrwt beam="1">  1        2 0.93076056E-01 0.41732841E+03</pdfrwt>
<pdfrwt beam="2">  1       -2 0.51913201E-01 0.41732841E+03</pdfrwt>
<totfact> 0.17727378E+02</totfact>
</mgrwt>
</event>
<event>
 4    1  0.2533915E-002  0.5148590E+03  0.7818608E-02  0.1009972E+00
         -1   -1    0    0    0  501 -0.00000000000E+00  0.00000000000E+00  0.17895419025E+03  0.17895419025E+03  0.00000000000E+00 0.  1.
          1   -1    0    0  502    0  0.00000000000E+00 -0.00000000000E+00 -0.20186889248E+04  0.20186889248E+04  0.00000000000E+00 0. -1.
    9000007    1    1    2  502    0  0.51359828427E+02 -0.32006547557E+03 -0.14868220484E+04  0.15734419418E+04  0.40000000000E+03 0.  1.
   -9000007    1    1    2    0  501 -0.51359828427E+02  0.32006547557E+03 -0.35291268617E+03  0.62420117326E+03  0.40000000000E+03 0.  1.
<mgrwt>
<rscale>  2 0.51485895E+03</rscale>
<asrwt>0</asrwt>
<pdfrwt beam="1">  1        1 0.31056751E+00 0.51485895E+03</pdfrwt>
<pdfrwt beam="2">  1       -1 0.27531415E-01 0.51485895E+03</pdfrwt>
<totfact> 0.36856786E+01</totfact>
</mgrwt>
</event>
<event>
 4    1  0.2533915E-002  0.4086704E+03  0.7818608E-02  0.1040818E+00
          1   -1    0    0  502    0  0.00000000000E+00  0.00000000000E+00  0.54999771555E+03  0.54999771555E+03  0.00000000000E+00 0.  1.
         -1   -1    0    0    0  501 -0.00000000000E+00 -0.00000000000E+00 -0.31767472107E+03  0.31767472107E+03  0.00000000000E+00 0. -1.
    9000007    1    1    2  502    0  0.28148806279E+02  0.78861431581E+02  0.20728910385E+03  0.45823602353E+03  0.40000000000E+03 0.  1.
   -9000007    1    1    2    0  501 -0.28148806279E+02 -0.78861431581E+02  0.25033890622E+02  0.40943641309E+03  0.40000000000E+03 0. -1.
<mgrwt>
<rscale>  2 0.40867038E+03</rscale>
<asrwt>0</asrwt>
<pdfrwt beam="1">  1        1 0.84615033E-01 0.40867038E+03</pdfrwt>
<pdfrwt beam="2">  1       -1 0.48873034E-01 0.40867038E+03</pdfrwt>
<totfact> 0.16915650E+02</totfact>
</mgrwt>
</event>
<event>
 4    1  0.2533915E-002  0.4437551E+03  0.7818608E-02  0.1029601E+00
          2   -1    0    0  502    0  0.00000000000E+00  0.00000000000E+00  0.18431285617E+04  0.18431285617E+04  0.00000000000E+00 0. -1.
         -2   -1    0    0    0  501 -0.00000000000E+00 -0.00000000000E+00 -0.14196747187E+03  0.14196747187E+03  0.00000000000E+00 0.  1.
    9000007    1    1    2  502    0  0.18624705460E+03 -0.47229297124E+02  0.35685584526E+03  0.56944241688E+03  0.40000000000E+03 0.  1.
   -9000007    1    1    2    0  501 -0.18624705460E+03  0.47229297124E+02  0.13443052445E+04  0.14156536166E+04  0.40000000000E+03 0. -1.
<mgrwt>
<rscale>  2 0.44375508E+03</rscale>
<asrwt>0</asrwt>
<pdfrwt beam="1">  1        2 0.28355822E+00 0.44375508E+03</pdfrwt>
<pdfrwt beam="2">  1       -2 0.21841151E-01 0.44375508E+03</pdfrwt>
<totfact> 0.15792360E+02</totfact>
</mgrwt>
</event>
<event>
 4    1  0.2533915E-002  0.4053688E+03  0.7818608E-02  0.1041936E+00
          1   -1    0    0  502    0  0.00000000000E+00  0.00000000000E+00  0.68497056953E+03  0.68497056953E+03  0.00000000000E+00 0.  1.
         -1   -1    0    0    0  501 -0.00000000000E+00 -0.00000000000E+00 -0.26261177086E+03  0.26261177086E+03  0.00000000000E+00 0. -1.
    9000007    1    1    2  502    0  0.16095024042E+02  0.63755603837E+02  0.71843212516E+02  0.41168589240E+03  0.40000000000E+03 0. -1.
   -9000007    1    1    2    0  501 -0.16095024042E+02 -0.63755603837E+02  0.35051558615E+03  0.53589644798E+03  0.40000000000E+03 0.  1.
<mgrwt>
<rscale>  2 0.40536875E+03</rscale>
<asrwt>0</asrwt>
<pdfrwt beam="1">  1        1 0.10538009E+00 0.40536875E+03</pdfrwt>
<pdfrwt beam="2">  1       -1 0.40401811E-01 0.40536875E+03</pdfrwt>
<totfact> 0.17542347E+02</totfact>
</mgrwt>
</event>
<event>
 4    1  0.2533915E-002  0.4985489E+03  0.7818608E-02  0.1014158E+00
          2   -1    0    0  502    0  0.00000000000E+00  0.00000000000E+00  0.58583601584E+03  0.58583601584E+03  0.00000000000E+00 0. -1.
         -2   -1    0    0    0  501 -0.00000000000E+00 -0.00000000000E+00 -0.59468739365E+03  0.59468739365E+03  0.00000000000E+00 0.  1.
    9000007    1    1    2  502    0 -0.15725146798E+03 -0.25263210345E+03 -0.32040654668E+03  0.59263087924E+03  0.40000000000E+03 0.  1.
   -9000007    1    1    2    0  501  0.15725146798E+03  0.25263210345E+03  0.31155516886E+03  0.58789253025E+03  0.40000000000E+03 0. -1.
<mgrwt>
<rscale>  2 0.49854890E+03</rscale>
<asrwt>0</asrwt>
<pdfrwt beam="1">  1        2 0.90128618E-01 0.49854890E+03</pdfrwt>
<pdfrwt beam="2">  1       -2 0.91490368E-01 0.49854890E+03</pdfrwt>
<totfact> 0.53689701E+01</totfact>
</mgrwt>
</event>
<event>
 4    1  0.2533915E-002  0.4799302E+03  0.7818608E-02  0.1019154E+00
          2   -1    0    0  502    0  0.00000000000E+00  0.00000000000E+00  0.17723542327E+04  0.17723542327E+04  0.00000000000E+00 0.  1.
         -2   -1    0    0    0  501 -0.00000000000E+00 -0.00000000000E+00 -0.23456983005E+03  0.23456983005E+03  0.00000000000E+00 0. -1.
    9000007    1    1    2  502    0 -0.39364711351E+01  0.26517448070E+03  0.14390138374E+04  0.15169356694E+04  0.40000000000E+03 0.  1.
   -9000007    1    1    2    0  501  0.39364711351E+01 -0.26517448070E+03  0.98770565250E+02  0.48998839331E+03  0.40000000000E+03 0. -1.
<mgrwt>
<rscale>  2 0.47993020E+03</rscale>
<asrwt>0</asrwt>
<pdfrwt beam="1">  1        2 0.27266987E+00 0.47993020E+03</pdfrwt>
<pdfrwt beam="2">  1       -2 0.36087667E-01 0.47993020E+03</pdfrwt>
<totfact> 0.68577397E+01</totfact>
</mgrwt>
</event>
<event>
 4    1  0.2533915E-002  0.4639564E+03  0.7818608E-02  0.1023640E+00
          2   -1    0    0  502    0  0.00000000000E+00  0.00000000000E+00  0.96785391244E+03  0.96785391244E+03  0.00000000000E+00 0. -1.
         -2   -1    0    0    0  501 -0.00000000000E+00 -0.00000000000E+00 -0.24597288429E+03  0.24597288429E+03  0.00000000000E+00 0.  1.
    9000007    1    1    2  502    0  0.93322657476E+02  0.21574612275E+03  0.17307641151E+03  0.49518779478E+03  0.40000000000E+03 0.  1.
   -9000007    1    1    2    0  501 -0.93322657476E+02 -0.21574612275E+03  0.54880461664E+03  0.71863900195E+03  0.40000000000E+03 0. -1.
<mgrwt>
<rscale>  2 0.46395636E+03</rscale>
<asrwt>0</asrwt>
<pdfrwt beam="1">  1        2 0.14890060E+00 0.46395636E+03</pdfrwt>
<pdfrwt beam="2">  1       -2 0.37841983E-01 0.46395636E+03</pdfrwt>
<totfact> 0.17984376E+02</totfact>
</mgrwt>
</event>
<event>
 4    1  0.2533915E-002  0.4291355E+03  0.7818608E-02  0.1034133E+00
         -1   -1    0    0    0  501 -0.00000000000E+00  0.00000000000E+00  0.16843456886E+03  0.16843456886E+03  0.00000000000E+00 0.  1.
          1   -1    0    0  502    0  0.00000000000E+00 -0.00000000000E+00 -0.11003365839E+04  0.11003365839E+04  0.00000000000E+00 0. -1.
    9000007    1    1    2  502    0 -0.15537675403E+03 -0.39178300657E+01 -0.41538682229E+03  0.59724659666E+03  0.40000000000E+03 0.  1.
   -9000007    1    1    2    0  501  0.15537675403E+03  0.39178300657E+01 -0.51651519272E+03  0.67152455606E+03  0.40000000000E+03 0. -1.
<mgrwt>
<rscale>  2 0.42913551E+03</rscale>
<asrwt>0</asrwt>
<pdfrwt beam="1">  1        1 0.16928255E+00 0.42913551E+03</pdfrwt>
<pdfrwt beam="2">  1       -1 0.25913010E-01 0.42913551E+03</pdfrwt>
<totfact> 0.17438055E+02</totfact>
</mgrwt>
</event>
<event>
 4    1  0.2533915E-002  0.4152825E+03  0.7818608E-02  0.1038613E+00
          1   -1    0    0  502    0  0.00000000000E+00  0.00000000000E+00  0.45679311767E+03  0.45679311767E+03  0.00000000000E+00 0. -1.
         -1   -1    0    0    0  501 -0.00000000000E+00 -0.00000000000E+00 -0.40810521123E+03  0.40810521123E+03  0.00000000000E+00 0.  1.
    9000007    1    1    2  502    0 -0.11012763860E+03  0.18205896103E+02 -0.93996570242E+02  0.42578739607E+03  0.40000000000E+03 0.  1.
   -9000007    1    1    2    0  501  0.11012763860E+03 -0.18205896103E+02  0.14268447669E+03  0.43911093282E+03  0.40000000000E+03 0. -1.
<mgrwt>
<rscale>  2 0.41528250E+03</rscale>
<asrwt>0</asrwt>
<pdfrwt beam="1">  1        1 0.70275865E-01 0.41528250E+03</pdfrwt>
<pdfrwt beam="2">  1       -1 0.62785417E-01 0.41528250E+03</pdfrwt>
<totfact> 0.13457402E+02</totfact>
</mgrwt>
</event>
<event>
 4    1  0.2533915E-002  0.7708321E+03  0.7818608E-02  0.9603223E-01
         -1   -1    0    0    0  501 -0.00000000000E+00  0.00000000000E+00  0.61567217987E+03  0.61567217987E+03  0.00000000000E+00 0. -1.
          1   -1    0    0  502    0  0.00000000000E+00 -0.00000000000E+00 -0.10417902221E+04  0.10417902221E+04  0.00000000000E+00 0.  1.
    9000007    1    1    2  502    0  0.50556926922E+03  0.42258947976E+03 -0.43791666278E+03  0.88653999228E+03  0.40000000000E+03 0.  1.
   -9000007    1    1    2    0  501 -0.50556926922E+03 -0.42258947976E+03  0.11798620506E+02  0.77092240973E+03  0.40000000000E+03 0. -1.
<mgrwt>
<rscale>  2 0.77083212E+03</rscale>
<asrwt>0</asrwt>
<pdfrwt beam="1">  1        1 0.16027542E+00 0.77083212E+03</pdfrwt>
<pdfrwt beam="2">  1       -1 0.94718797E-01 0.77083212E+03</pdfrwt>
<totfact> 0.15560779E+01</totfact>
</mgrwt>
</event>
<event>
 4    1  0.2533915E-002  0.7321080E+03  0.7818608E-02  0.9663846E-01
         -2   -1    0    0    0  501 -0.00000000000E+00  0.00000000000E+00  0.45640650105E+03  0.45640650105E+03  0.00000000000E+00 0. -1.
          2   -1    0    0  502    0  0.00000000000E+00 -0.00000000000E+00 -0.12084063744E+04  0.12084063744E+04  0.00000000000E+00 0.  1.
    9000007    1    1    2  502    0  0.61147298390E+03  0.45638490289E+02 -0.23626253537E+03  0.76928672643E+03  0.40000000000E+03 0. -1.
   -9000007    1    1    2    0  501 -0.61147298390E+03 -0.45638490289E+02 -0.51573733803E+03  0.89552614907E+03  0.40000000000E+03 0.  1.
<mgrwt>
<rscale>  2 0.73210797E+03</rscale>
<asrwt>0</asrwt>
<pdfrwt beam="1">  1        2 0.18590867E+00 0.73210797E+03</pdfrwt>
<pdfrwt beam="2">  1       -2 0.70216386E-01 0.73210797E+03</pdfrwt>
<totfact> 0.35275906E+01</totfact>
</mgrwt>
</event>
<event>
 4    1  0.2533915E-002  0.4540069E+03  0.7818608E-02  0.1026534E+00
          2   -1    0    0  502    0  0.00000000000E+00  0.00000000000E+00  0.59265532931E+03  0.59265532931E+03  0.00000000000E+00 0.  1.
         -2   -1    0    0    0  501 -0.00000000000E+00 -0.00000000000E+00 -0.38760278810E+03  0.38760278810E+03  0.00000000000E+00 0. -1.
    9000007    1    1    2  502    0  0.20357639142E+03  0.68402392678E+02 -0.54547629585E+02  0.45727199604E+03  0.40000000000E+03 0. -1.
   -9000007    1    1    2    0  501 -0.20357639142E+03 -0.68402392678E+02  0.25960017079E+03  0.52298612137E+03  0.40000000000E+03 0.  1.
<mgrwt>
<rscale>  2 0.45400687E+03</rscale>
<asrwt>0</asrwt>
<pdfrwt beam="1">  1        2 0.91177743E-01 0.45400687E+03</pdfrwt>
<pdfrwt beam="2">  1       -2 0.59631198E-01 0.45400687E+03</pdfrwt>
<totfact> 0.13608366E+02</totfact>
</mgrwt>
</event>
<event>
 4    1  0.2533915E-002  0.4120404E+03  0.7818608E-02  0.1039688E+00
          2   -1    0    0  502    0  0.00000000000E+00  0.00000000000E+00  0.28503002330E+03  0.28503002330E+03  0.00000000000E+00 0. -1.
         -2   -1    0    0    0  501 -0.00000000000E+00 -0.00000000000E+00 -0.76194663615E+03  0.76194663615E+03  0.00000000000E+00 0.  1.
    9000007    1    1    2  502    0  0.27108557218E+01  0.98843203537E+02 -0.48302096663E+03  0.63489099996E+03  0.40000000000E+03 0.  1.
   -9000007    1    1    2    0  501 -0.27108557218E+01 -0.98843203537E+02  0.61043537875E+01  0.41208565949E+03  0.40000000000E+03 0. -1.
<mgrwt>
<rscale>  2 0.41204044E+03</rscale>
<asrwt>0</asrwt>
<pdfrwt beam="1">  1        2 0.43850774E-01 0.41204044E+03</pdfrwt>
<pdfrwt beam="2">  1       -2 0.11722256E+00 0.41204044E+03</pdfrwt>
<totfact> 0.67569820E+01</totfact>
</mgrwt>
</event>
<event>
 4    1  0.2533915E-002  0.6254703E+03  0.7818608E-02  0.9853928E-01
          1   -1    0    0  502    0  0.00000000000E+00  0.00000000000E+00  0.69046925092E+03  0.69046925092E+03  0.00000000000E+00 0.  1.
         -1   -1    0    0    0  501 -0.00000000000E+00 -0.00000000000E+00 -0.56724224033E+03  0.56724224033E+03  0.00000000000E+00 0. -1.
    9000007    1    1    2  502    0  0.44627081310E+03  0.17904030140E+03  0.82935343044E+02  0.63094479891E+03  0.40000000000E+03 0.  1.
   -9000007    1    1    2    0  501 -0.44627081310E+03 -0.17904030140E+03  0.40291667551E+02  0.62676669234E+03  0.40000000000E+03 0. -1.
<mgrwt>
<rscale>  2 0.62547028E+03</rscale>
<asrwt>0</asrwt>
<pdfrwt beam="1">  1        1 0.10622604E+00 0.62547028E+03</pdfrwt>
<pdfrwt beam="2">  1       -1 0.87268037E-01 0.62547028E+03</pdfrwt>
<totfact> 0.37308424E+01</totfact>
</mgrwt>
</event>
<event>
 4    1  0.2533915E-002  0.4703033E+03  0.7818608E-02  0.1021835E+00
         -2   -1    0    0    0  501 -0.00000000000E+00  0.00000000000E+00  0.28471758240E+03  0.28471758240E+03  0.00000000000E+00 0.  1.
          2   -1    0    0  502    0  0.00000000000E+00 -0.00000000000E+00 -0.97592615149E+03  0.97592615149E+03  0.00000000000E+00 0. -1.
    9000007    1    1    2  502    0 -0.88214701827E+02 -0.23109165338E+03 -0.63028272627E+03  0.78641051679E+03  0.40000000000E+03 0. -1.
   -9000007    1    1    2    0  501  0.88214701827E+02  0.23109165338E+03 -0.60925842829E+02  0.47423321710E+03  0.40000000000E+03 0.  1.
<mgrwt>
<rscale>  2 0.47030329E+03</rscale>
<asrwt>0</asrwt>
<pdfrwt beam="1">  1        2 0.15014249E+00 0.47030329E+03</pdfrwt>
<pdfrwt beam="2">  1       -2 0.43802705E-01 0.47030329E+03</pdfrwt>
<totfact> 0.13369236E+02</totfact>
</mgrwt>
</event>
<event>
 4    1  0.2533915E-002  0.4595375E+03  0.7818608E-02  0.1024915E+00
         -2   -1    0    0    0  501 -0.00000000000E+00  0.00000000000E+00  0.12865348807E+03  0.12865348807E+03  0.00000000000E+00 0.  1.
          2   -1    0    0  502    0  0.00000000000E+00 -0.00000000000E+00 -0.18447144613E+04  0.18447144613E+04  0.00000000000E+00 0. -1.
    9000007    1    1    2  502    0 -0.36964486575E+01  0.22618799803E+03 -0.53048315557E+03  0.70184546200E+03  0.40000000000E+03 0. -1.
   -9000007    1    1    2    0  501  0.36964486575E+01 -0.22618799803E+03 -0.11855778177E+04  0.12715224874E+04  0.40000000000E+03 0.  1.
<mgrwt>
<rscale>  2 0.45953746E+03</rscale>
<asrwt>0</asrwt>
<pdfrwt beam="1">  1        2 0.28380220E+00 0.45953746E+03</pdfrwt>
<pdfrwt beam="2">  1       -2 0.19792846E-01 0.45953746E+03</pdfrwt>
<totfact> 0.18670236E+02</totfact>
</mgrwt>
</event>
<event>
 4    1  0.2533915E-002  0.5756588E+03  0.7818608E-02  0.9957234E-01
         -1   -1    0    0    0  501 -0.00000000000E+00  0.00000000000E+00  0.27589810235E+03  0.27589810235E+03  0.00000000000E+00 0.  1.
          1   -1    0    0  502    0  0.00000000000E+00 -0.00000000000E+00 -0.12152126453E+04  0.12152126453E+04  0.00000000000E+00 0. -1.
    9000007    1    1    2  502    0  0.38312404816E+03  0.15684082218E+03 -0.54998282304E+03  0.79615588010E+03  0.40000000000E+03 0. -1.
   -9000007    1    1    2    0  501 -0.38312404816E+03 -0.15684082218E+03 -0.38933171988E+03  0.69495486751E+03  0.40000000000E+03 0. -1.
<mgrwt>
<rscale>  2 0.57565882E+03</rscale>
<asrwt>0</asrwt>
<pdfrwt beam="1">  1        1 0.18695579E+00 0.57565882E+03</pdfrwt>
<pdfrwt beam="2">  1       -1 0.42445862E-01 0.57565882E+03</pdfrwt>
<totfact> 0.59422470E+01</totfact>
</mgrwt>
</event>
<event>
 4    1  0.2533915E-002  0.7079579E+03  0.7818608E-02  0.9703719E-01
         -2   -1    0    0    0  501 -0.00000000000E+00  0.00000000000E+00  0.33719986367E+03  0.33719986367E+03  0.00000000000E+00 0. -1.
          2   -1    0    0  502    0  0.00000000000E+00 -0.00000000000E+00 -0.37557457331E+04  0.37557457331E+04  0.00000000000E+00 0.  1.
    9000007    1    1    2  502    0 -0.56283746017E+03  0.15626390344E+03 -0.33000557954E+04  0.33751403922E+04  0.40000000000E+03 0.  1.
   -9000007    1    1    2    0  501  0.56283746017E+03 -0.15626390344E+03 -0.11849007400E+03  0.71780520458E+03  0.40000000000E+03 0. -1.
<mgrwt>
<rscale>  2 0.70795792E+03</rscale>
<asrwt>0</asrwt>
<pdfrwt beam="1">  1        2 0.57780702E+00 0.70795792E+03</pdfrwt>
<pdfrwt beam="2">  1       -2 0.51876904E-01 0.70795792E+03</pdfrwt>
<totfact> 0.20649734E+00</totfact>
</mgrwt>
</event>
<event>
 4    1  0.2533915E-002  0.4047831E+03  0.7818608E-02  0.1042136E+00
         -1   -1    0    0    0  501 -0.00000000000E+00  0.00000000000E+00  0.24665634022E+03  0.24665634022E+03  0.00000000000E+00 0.  1.
          1   -1    0    0  502    0  0.00000000000E+00 -0.00000000000E+00 -0.75103435478E+03  0.75103435478E+03  0.00000000000E+00 0. -1.
    9000007    1    1    2  502    0 -0.72981954835E+01  0.61612240486E+02 -0.42173089607E+03  0.58455648190E+03  0.40000000000E+03 0. -1.
   -9000007    1    1    2    0  501  0.72981954835E+01 -0.61612240486E+02 -0.82647118497E+02  0.41313421310E+03  0.40000000000E+03 0.  1.
<mgrwt>
<rscale>  2 0.40478307E+03</rscale>
<asrwt>0</asrwt>
<pdfrwt beam="1">  1        1 0.11554375E+00 0.40478307E+03</pdfrwt>
<pdfrwt beam="2">  1       -1 0.37947129E-01 0.40478307E+03</pdfrwt>
<totfact> 0.17098611E+02</totfact>
</mgrwt>
</event>
<event>
 4    1  0.2533915E-002  0.4047197E+03  0.7818608E-02  0.1042158E+00
         -1   -1    0    0    0  501 -0.00000000000E+00  0.00000000000E+00  0.21099169673E+03  0.21099169673E+03  0.00000000000E+00 0.  1.
          1   -1    0    0  502    0  0.00000000000E+00 -0.00000000000E+00 -0.82843212829E+03  0.82843212829E+03  0.00000000000E+00 0. -1.
    9000007    1    1    2  502    0 -0.56360064282E+02 -0.24931301665E+02 -0.43906234022E+03  0.59713797840E+03  0.40000000000E+03 0. -1.
   -9000007    1    1    2    0  501  0.56360064282E+02  0.24931301665E+02 -0.17837809135E+03  0.44228584662E+03  0.40000000000E+03 0.  1.
<mgrwt>
<rscale>  2 0.40471969E+03</rscale>
<asrwt>0</asrwt>
<pdfrwt beam="1">  1        1 0.12745110E+00 0.40471969E+03</pdfrwt>
<pdfrwt beam="2">  1       -1 0.32460261E-01 0.40471969E+03</pdfrwt>
<totfact> 0.19322441E+02</totfact>
</mgrwt>
</event>
<event>
 4    1  0.2533915E-002  0.4037392E+03  0.7818608E-02  0.1042493E+00
          2   -1    0    0  502    0  0.00000000000E+00  0.00000000000E+00  0.19841102358E+04  0.19841102358E+04  0.00000000000E+00 0.  1.
         -2   -1    0    0    0  501 -0.00000000000E+00 -0.00000000000E+00 -0.10551539526E+03  0.10551539526E+03  0.00000000000E+00 0. -1.
    9000007    1    1    2  502    0 -0.26104905068E+02 -0.48206341545E+02  0.44769139443E+03  0.60285396414E+03  0.40000000000E+03 0. -1.
   -9000007    1    1    2    0  501  0.26104905068E+02  0.48206341545E+02  0.14309034461E+04  0.14867716669E+04  0.40000000000E+03 0.  1.
<mgrwt>
<rscale>  2 0.40373917E+03</rscale>
<asrwt>0</asrwt>
<pdfrwt beam="1">  1        2 0.30524770E+00 0.40373917E+03</pdfrwt>
<pdfrwt beam="2">  1       -2 0.16233139E-01 0.40373917E+03</pdfrwt>
<totfact> 0.22254390E+02</totfact>
</mgrwt>
</event>
<event>
 4    1  0.2533915E-002  0.4791094E+03  0.7818608E-02  0.1019380E+00
         -2   -1    0    0    0  501 -0.00000000000E+00  0.00000000000E+00  0.59990609957E+03  0.59990609957E+03  0.00000000000E+00 0.  1.
          2   -1    0    0  502    0  0.00000000000E+00 -0.00000000000E+00 -0.40042089166E+03  0.40042089166E+03  0.00000000000E+00 0. -1.
    9000007    1    1    2  502    0 -0.17629148451E+02 -0.26312551284E+03 -0.56660201058E+01  0.47914290788E+03  0.40000000000E+03 0. -1.
   -9000007    1    1    2    0  501  0.17629148451E+02  0.26312551284E+03  0.20515122802E+03  0.52118408335E+03  0.40000000000E+03 0.  1.
<mgrwt>
<rscale>  2 0.47910941E+03</rscale>
<asrwt>0</asrwt>
<pdfrwt beam="1">  1        2 0.61603215E-01 0.47910941E+03</pdfrwt>
<pdfrwt beam="2">  1       -2 0.92293245E-01 0.47910941E+03</pdfrwt>
<totfact> 0.81448940E+01</totfact>
</mgrwt>
</event>
<event>
 4    1  0.2533915E-002  0.4387656E+03  0.7818608E-02  0.1031126E+00
         -2   -1    0    0    0  501 -0.00000000000E+00  0.00000000000E+00  0.20255549408E+03  0.20255549408E+03  0.00000000000E+00 0.  1.
          2   -1    0    0  502    0  0.00000000000E+00 -0.00000000000E+00 -0.95060952076E+03  0.95060952076E+03  0.00000000000E+00 0. -1.
    9000007    1    1    2  502    0  0.18019650268E+03  0.66714358867E+01 -0.38189921768E+03  0.58168917826E+03  0.40000000000E+03 0.  1.
   -9000007    1    1    2    0  501 -0.18019650268E+03 -0.66714358867E+01 -0.36615480900E+03  0.57147583657E+03  0.40000000000E+03 0. -1.
<mgrwt>
<rscale>  2 0.43876564E+03</rscale>
<asrwt>0</asrwt>
<pdfrwt beam="1">  1        2 0.14624762E+00 0.43876564E+03</pdfrwt>
<pdfrwt beam="2">  1       -2 0.31162383E-01 0.43876564E+03</pdfrwt>
<totfact> 0.26650203E+02</totfact>
</mgrwt>
</event>
<event>
 4    1  0.2533915E-002  0.4339237E+03  0.7818608E-02  0.1032628E+00
          1   -1    0    0  502    0  0.00000000000E+00  0.00000000000E+00  0.76059877197E+03  0.76059877197E+03  0.00000000000E+00 0.  1.
         -1   -1    0    0    0  501 -0.00000000000E+00 -0.00000000000E+00 -0.27867670010E+03  0.27867670010E+03  0.00000000000E+00 0. -1.
    9000007    1    1    2  502    0  0.16797589667E+03  0.85970323500E+01  0.67307348235E+02  0.43911284421E+03  0.40000000000E+03 0. -1.
   -9000007    1    1    2    0  501 -0.16797589667E+03 -0.85970323500E+01  0.41461472363E+03  0.60016262786E+03  0.40000000000E+03 0.  1.
<mgrwt>
<rscale>  2 0.43392374E+03</rscale>
<asrwt>0</asrwt>
<pdfrwt beam="1">  1        1 0.11701519E+00 0.43392374E+03</pdfrwt>
<pdfrwt beam="2">  1       -1 0.42873339E-01 0.43392374E+03</pdfrwt>
<totfact> 0.13416972E+02</totfact>
</mgrwt>
</event>
<event>
 4    1  0.2533915E-002  0.4031523E+03  0.7818608E-02  0.1042694E+00
         -2   -1    0    0    0  501 -0.00000000000E+00  0.00000000000E+00  0.91016017602E+02  0.91016017602E+02  0.00000000000E+00 0.  1.
          2   -1    0    0  502    0  0.00000000000E+00 -0.00000000000E+00 -0.18685672844E+04  0.18685672844E+04  0.00000000000E+00 0. -1.
    9000007    1    1    2  502    0  0.40302352559E+02 -0.30125131334E+02 -0.68250314625E+03  0.79268048279E+03  0.40000000000E+03 0.  1.
   -9000007    1    1    2    0  501 -0.40302352559E+02  0.30125131334E+02 -0.10950481205E+04  0.11669028192E+04  0.40000000000E+03 0. -1.
<mgrwt>
<rscale>  2 0.40315233E+03</rscale>
<asrwt>0</asrwt>
<pdfrwt beam="1">  1        2 0.28747191E+00 0.40315233E+03</pdfrwt>
<pdfrwt beam="2">  1       -2 0.14002463E-01 0.40315233E+03</pdfrwt>
<totfact> 0.32850406E+02</totfact>
</mgrwt>
</event>
<event>
 4    1  0.2533915E-002  0.5556668E+03  0.7818608E-02  0.1000191E+00
         -1   -1    0    0    0  501 -0.00000000000E+00  0.00000000000E+00  0.88794894253E+03  0.88794894253E+03  0.00000000000E+00 0.  1.
          1   -1    0    0  502    0  0.00000000000E+00 -0.00000000000E+00 -0.39016329404E+03  0.39016329404E+03  0.00000000000E+00 0. -1.
    9000007    1    1    2  502    0  0.33643639960E+03  0.18861643235E+03  0.45964604282E+03  0.72113805489E+03  0.40000000000E+03 0.  1.
   -9000007    1    1    2    0  501 -0.33643639960E+03 -0.18861643235E+03  0.38139605669E+02  0.55697418167E+03  0.40000000000E+03 0. -1.
<mgrwt>
<rscale>  2 0.55566682E+03</rscale>
<asrwt>0</asrwt>
<pdfrwt beam="1">  1        1 0.60025122E-01 0.55566682E+03</pdfrwt>
<pdfrwt beam="2">  1       -1 0.13660753E+00 0.55566682E+03</pdfrwt>
<totfact> 0.28981603E+01</totfact>
</mgrwt>
</event>
<event>
 4    1  0.2533915E-002  0.5813265E+03  0.7818608E-02  0.9944923E-01
          2   -1    0    0  502    0  0.00000000000E+00  0.00000000000E+00  0.11968077116E+04  0.11968077116E+04  0.00000000000E+00 0. -1.
         -2   -1    0    0    0  501 -0.00000000000E+00 -0.00000000000E+00 -0.29280689518E+03  0.29280689518E+03  0.00000000000E+00 0.  1.
    9000007    1    1    2  502    0 -0.32010995175E+03  0.27471817830E+03  0.59262978342E+03  0.83015090128E+03  0.40000000000E+03 0. -1.
   -9000007    1    1    2    0  501  0.32010995175E+03 -0.27471817830E+03  0.31137103301E+03  0.65946370552E+03  0.40000000000E+03 0.  1.
<mgrwt>
<rscale>  2 0.58132646E+03</rscale>
<asrwt>0</asrwt>
<pdfrwt beam="1">  1        2 0.18412426E+00 0.58132646E+03</pdfrwt>
<pdfrwt beam="2">  1       -2 0.45047215E-01 0.58132646E+03</pdfrwt>
<totfact> 0.91724324E+01</totfact>
</mgrwt>
</event>
<event>
 4    1  0.2533915E-002  0.5758604E+03  0.7818608E-02  0.9956794E-01
         -1   -1    0    0    0  501 -0.00000000000E+00  0.00000000000E+00  0.18371605582E+04  0.18371605582E+04  0.00000000000E+00 0.  1.
          1   -1    0    0  502    0  0.00000000000E+00 -0.00000000000E+00 -0.18509802526E+03  0.18509802526E+03  0.00000000000E+00 0. -1.
    9000007    1    1    2  502    0 -0.40089738816E+03  0.10438640235E+03  0.98532254776E+03  0.11412606012E+04  0.40000000000E+03 0.  1.
   -9000007    1    1    2    0  501  0.40089738816E+03 -0.10438640235E+03  0.66673998520E+03  0.88099798223E+03  0.40000000000E+03 0.  1.
<mgrwt>
<rscale>  2 0.57586043E+03</rscale>
<asrwt>0</asrwt>
<pdfrwt beam="1">  1        1 0.28476621E-01 0.57586043E+03</pdfrwt>
<pdfrwt beam="2">  1       -1 0.28264007E+00 0.57586043E+03</pdfrwt>
<totfact> 0.75166525E+00</totfact>
</mgrwt>
</event>
<event>
 4    1  0.2533915E-002  0.5490722E+03  0.7818608E-02  0.1001709E+00
          1   -1    0    0  502    0  0.00000000000E+00  0.00000000000E+00  0.13187079853E+04  0.13187079853E+04  0.00000000000E+00 0.  1.
         -1   -1    0    0    0  501 -0.00000000000E+00 -0.00000000000E+00 -0.23604545208E+03  0.23604545208E+03  0.00000000000E+00 0. -1.
    9000007    1    1    2  502    0 -0.17222423407E+03  0.33439368434E+03  0.67922830989E+03  0.87340220968E+03  0.40000000000E+03 0. -1.
   -9000007    1    1    2    0  501  0.17222423407E+03 -0.33439368434E+03  0.40343422335E+03  0.68135122771E+03  0.40000000000E+03 0. -1.
<mgrwt>
<rscale>  2 0.54907224E+03</rscale>
<asrwt>0</asrwt>
<pdfrwt beam="1">  1        1 0.20287815E+00 0.54907224E+03</pdfrwt>
<pdfrwt beam="2">  1       -1 0.36314686E-01 0.54907224E+03</pdfrwt>
<totfact> 0.66770618E+01</totfact>
</mgrwt>
</event>
<event>
 4    1  0.2533915E-002  0.4100071E+03  0.7818608E-02  0.1040369E+00
         -1   -1    0    0    0  501 -0.00000000000E+00  0.00000000000E+00  0.17599389054E+03  0.17599389054E+03  0.00000000000E+00 0. -1.
          1   -1    0    0  502    0  0.00000000000E+00 -0.00000000000E+00 -0.10846701079E+04  0.10846701079E+04  0.00000000000E+00 0.  1.
    9000007    1    1    2  502    0  0.69180664016E+02 -0.57618289330E+02 -0.23654760579E+03  0.47335040017E+03  0.40000000000E+03 0. -1.
   -9000007    1    1    2    0  501 -0.69180664016E+02  0.57618289330E+02 -0.67212861159E+03  0.78731359829E+03  0.40000000000E+03 0.  1.
<mgrwt>
<rscale>  2 0.41000711E+03</rscale>
<asrwt>0</asrwt>
<pdfrwt beam="1">  1        1 0.16687232E+00 0.41000711E+03</pdfrwt>
<pdfrwt beam="2">  1       -1 0.27075984E-01 0.41000711E+03</pdfrwt>
<totfact> 0.16660145E+02</totfact>
</mgrwt>
</event>
<event>
 4    1  0.2533915E-002  0.4032229E+03  0.7818608E-02  0.1042669E+00
         -2   -1    0    0    0  501 -0.00000000000E+00  0.00000000000E+00  0.10359981906E+03  0.10359981906E+03  0.00000000000E+00 0. -1.
          2   -1    0    0  502    0  0.00000000000E+00 -0.00000000000E+00 -0.18553091031E+04  0.18553091031E+04  0.00000000000E+00 0.  1.
    9000007    1    1    2  502    0  0.42309043783E+01 -0.50702783002E+02 -0.49135443516E+03  0.63562398767E+03  0.40000000000E+03 0. -1.
   -9000007    1    1    2    0  501 -0.42309043783E+01  0.50702783002E+02 -0.12603548489E+04  0.13232849345E+04  0.40000000000E+03 0.  1.
<mgrwt>
<rscale>  2 0.40322286E+03</rscale>
<asrwt>0</asrwt>
<pdfrwt beam="1">  1        2 0.28543214E+00 0.40322286E+03</pdfrwt>
<pdfrwt beam="2">  1       -2 0.15938435E-01 0.40322286E+03</pdfrwt>
<totfact> 0.26889379E+02</totfact>
</mgrwt>
</event>
<event>
 4    1  0.2533915E-002  0.4141289E+03  0.7818608E-02  0.1038994E+00
         -1   -1    0    0    0  501 -0.00000000000E+00  0.00000000000E+00  0.32923753029E+03  0.32923753029E+03  0.00000000000E+00 0.  1.
          1   -1    0    0  502    0  0.00000000000E+00 -0.00000000000E+00 -0.58976060363E+03  0.58976060363E+03  0.00000000000E+00 0. -1.
    9000007    1    1    2  502    0 -0.10255557997E+03  0.31386800743E+02  0.26740007163E+02  0.41499133271E+03  0.40000000000E+03 0.  1.
   -9000007    1    1    2    0  501  0.10255557997E+03 -0.31386800743E+02 -0.28726308050E+03  0.50400680121E+03  0.40000000000E+03 0. -1.
<mgrwt>
<rscale>  2 0.41412894E+03</rscale>
<asrwt>0</asrwt>
<pdfrwt beam="1">  1        1 0.90732400E-01 0.41412894E+03</pdfrwt>
<pdfrwt beam="2">  1       -1 0.50651928E-01 0.41412894E+03</pdfrwt>
<totfact> 0.14346771E+02</totfact>
</mgrwt>
</event>
<event>
 4    1  0.2533915E-002  0.5554775E+03  0.7818608E-02  0.1000234E+00
          2   -1    0    0  502    0  0.00000000000E+00  0.00000000000E+00  0.10973824369E+04  0.10973824369E+04  0.00000000000E+00 0. -1.
         -2   -1    0    0    0  501 -0.00000000000E+00 -0.00000000000E+00 -0.33313000188E+03  0.33313000188E+03  0.00000000000E+00 0.  1.
    9000007    1    1    2  502    0 -0.15391639505E+03 -0.35336234008E+03  0.66459693180E+03  0.86616642847E+03  0.40000000000E+03 0.  1.
   -9000007    1    1    2    0  501  0.15391639505E+03  0.35336234008E+03  0.99655503242E+02  0.56434601033E+03  0.40000000000E+03 0.  1.
<mgrwt>
<rscale>  2 0.55547745E+03</rscale>
<asrwt>0</asrwt>
<pdfrwt beam="1">  1        2 0.16882806E+00 0.55547745E+03</pdfrwt>
<pdfrwt beam="2">  1       -2 0.51250770E-01 0.55547745E+03</pdfrwt>
<totfact> 0.81336831E+01</totfact>
</mgrwt>
</event>
<event>
 4    1  0.2533915E-002  0.4868190E+03  0.7818608E-02  0.1017278E+00
         -1   -1    0    0    0  501 -0.00000000000E+00  0.00000000000E+00  0.13988936731E+03  0.13988936731E+03  0.00000000000E+00 0.  1.
          1   -1    0    0  502    0  0.00000000000E+00 -0.00000000000E+00 -0.19296509182E+04  0.19296509182E+04  0.00000000000E+00 0. -1.
    9000007    1    1    2  502    0 -0.27511215684E+03  0.36139576946E+02 -0.53338259625E+03  0.72214248029E+03  0.40000000000E+03 0.  1.
   -9000007    1    1    2    0  501  0.27511215684E+03 -0.36139576946E+02 -0.12563789547E+04  0.13473978053E+04  0.40000000000E+03 0. -1.
<mgrwt>
<rscale>  2 0.48681903E+03</rscale>
<asrwt>0</asrwt>
<pdfrwt beam="1">  1        1 0.29686938E+00 0.48681903E+03</pdfrwt>
<pdfrwt beam="2">  1       -1 0.21521440E-01 0.48681903E+03</pdfrwt>
<totfact> 0.64275281E+01</totfact>
</mgrwt>
</event>
<event>
 4    1  0.2533915E-002  0.4498303E+03  0.7818608E-02  0.1027773E+00
          1   -1    0    0  502    0  0.00000000000E+00  0.00000000000E+00  0.59413470973E+03  0.59413470973E+03  0.00000000000E+00 0.  1.
         -1   -1    0    0    0  501 -0.00000000000E+00 -0.00000000000E+00 -0.35713382228E+03  0.35713382228E+03  0.00000000000E+00 0. -1.
    9000007    1    1    2  502    0  0.20452588099E+03  0.22724975685E+02  0.22091839403E+03  0.50115087283E+03  0.40000000000E+03 0.  1.
   -9000007    1    1    2    0  501 -0.20452588099E+03 -0.22724975685E+02  0.16082493414E+02  0.45011765918E+03  0.40000000000E+03 0. -1.
<mgrwt>
<rscale>  2 0.44983026E+03</rscale>
<asrwt>0</asrwt>
<pdfrwt beam="1">  1        1 0.91405340E-01 0.44983026E+03</pdfrwt>
<pdfrwt beam="2">  1       -1 0.54943665E-01 0.44983026E+03</pdfrwt>
<totfact> 0.12124380E+02</totfact>
</mgrwt>
</event>
<event>
 4    1  0.2533915E-002  0.4828753E+03  0.7818608E-02  0.1018348E+00
          2   -1    0    0  502    0  0.00000000000E+00  0.00000000000E+00  0.95834954786E+03  0.95834954786E+03  0.00000000000E+00 0.  1.
         -2   -1    0    0    0  501 -0.00000000000E+00 -0.00000000000E+00 -0.24568643031E+03  0.24568643031E+03  0.00000000000E+00 0. -1.
    9000007    1    1    2  502    0  0.89150440674E+02  0.25538360448E+03  0.41563635739E+03  0.63712021479E+03  0.40000000000E+03 0.  1.
   -9000007    1    1    2    0  501 -0.89150440674E+02 -0.25538360448E+03  0.29702676016E+03  0.56691576337E+03  0.40000000000E+03 0. -1.
<mgrwt>
<rscale>  2 0.48287533E+03</rscale>
<asrwt>0</asrwt>
<pdfrwt beam="1">  1        2 0.14743839E+00 0.48287533E+03</pdfrwt>
<pdfrwt beam="2">  1       -2 0.37797913E-01 0.48287533E+03</pdfrwt>
<totfact> 0.18246590E+02</totfact>
</mgrwt>
</event>
<event>
 4    1  0.2533915E-002  0.6180578E+03  0.7818608E-02  0.9868634E-01
          2   -1    0    0  502    0  0.00000000000E+00  0.00000000000E+00  0.99079901807E+03  0.99079901807E+03  0.00000000000E+00 0. -1.
         -2   -1    0    0    0  501 -0.00000000000E+00 -0.00000000000E+00 -0.38570821799E+03  0.38570821799E+03  0.00000000000E+00 0.  1.
    9000007    1    1    2  502    0  0.24968346461E+03 -0.39956684650E+03  0.31679550680E+03  0.69451773948E+03  0.40000000000E+03 0. -1.
   -9000007    1    1    2    0  501 -0.24968346461E+03  0.39956684650E+03  0.28829529328E+03  0.68198949658E+03  0.40000000000E+03 0.  1.
<mgrwt>
<rscale>  2 0.61805784E+03</rscale>
<asrwt>0</asrwt>
<pdfrwt beam="1">  1        2 0.15243062E+00 0.61805784E+03</pdfrwt>
<pdfrwt beam="2">  1       -2 0.59339726E-01 0.61805784E+03</pdfrwt>
<totfact> 0.69499900E+01</totfact>
</mgrwt>
</event>
<event>
 4    1  0.2533915E-002  0.4157016E+03  0.7818608E-02  0.1038474E+00
          2   -1    0    0  502    0  0.00000000000E+00  0.00000000000E+00  0.16651499255E+04  0.16651499255E+04  0.00000000000E+00 0. -1.
         -2   -1    0    0    0  501 -0.00000000000E+00 -0.00000000000E+00 -0.21581646492E+03  0.21581646492E+03  0.00000000000E+00 0.  1.
    9000007    1    1    2  502    0  0.43616640118E+01 -0.11308756682E+03  0.14022928287E+04  0.14626117049E+04  0.40000000000E+03 0. -1.
   -9000007    1    1    2    0  501 -0.43616640118E+01  0.11308756682E+03  0.47040631916E+02  0.41835468556E+03  0.40000000000E+03 0.  1.
<mgrwt>
<rscale>  2 0.41570160E+03</rscale>
<asrwt>0</asrwt>
<pdfrwt beam="1">  1        2 0.25617690E+00 0.41570160E+03</pdfrwt>
<pdfrwt beam="2">  1       -2 0.33202534E-01 0.41570160E+03</pdfrwt>
<totfact> 0.92638722E+01</totfact>
</mgrwt>
</event>
<event>
 4    1  0.2533915E-002  0.4011134E+03  0.7818608E-02  0.1043395E+00
          2   -1    0    0  502    0  0.00000000000E+00  0.00000000000E+00  0.24006171422E+04  0.24006171422E+04  0.00000000000E+00 0.  1.
         -2   -1    0    0    0  501 -0.00000000000E+00 -0.00000000000E+00 -0.78700876573E+02  0.78700876573E+02  0.00000000000E+00 0. -1.
    9000007    1    1    2  502    0 -0.67919944250E+01  0.29083038335E+02  0.68339577289E+03  0.79241512902E+03  0.40000000000E+03 0. -1.
   -9000007    1    1    2    0  501  0.67919944250E+01 -0.29083038335E+02  0.16385204927E+04  0.16869028897E+04  0.40000000000E+03 0.  1.
<mgrwt>
<rscale>  2 0.40111339E+03</rscale>
<asrwt>0</asrwt>
<pdfrwt beam="1">  1        2 0.36932566E+00 0.40111339E+03</pdfrwt>
<pdfrwt beam="2">  1       -2 0.12107829E-01 0.40111339E+03</pdfrwt>
<totfact> 0.21580362E+02</totfact>
</mgrwt>
</event>
<event>
 4    1  0.2533915E-002  0.4111553E+03  0.7818608E-02  0.1039984E+00
          2   -1    0    0  502    0  0.00000000000E+00  0.00000000000E+00  0.19653828258E+04  0.19653828258E+04  0.00000000000E+00 0. -1.
         -2   -1    0    0    0  501 -0.00000000000E+00 -0.00000000000E+00 -0.10393360788E+03  0.10393360788E+03  0.00000000000E+00 0.  1.
    9000007    1    1    2  502    0  0.51953444041E+02  0.79683835446E+02  0.13603540543E+04  0.14211304750E+04  0.40000000000E+03 0. -1.
   -9000007    1    1    2    0  501 -0.51953444041E+02 -0.79683835446E+02  0.50109516359E+03  0.64818595862E+03  0.40000000000E+03 0.  1.
<mgrwt>
<rscale>  2 0.41115529E+03</rscale>
<asrwt>0</asrwt>
<pdfrwt beam="1">  1        2 0.30236656E+00 0.41115529E+03</pdfrwt>
<pdfrwt beam="2">  1       -2 0.15989787E-01 0.41115529E+03</pdfrwt>
<totfact> 0.23332936E+02</totfact>
</mgrwt>
</event>
<event>
 4    1  0.2533915E-002  0.5626475E+03  0.7818608E-02  0.9986082E-01
          2   -1    0    0  502    0  0.00000000000E+00  0.00000000000E+00  0.10885996979E+04  0.10885996979E+04  0.00000000000E+00 0.  1.
         -2   -1    0    0    0  501 -0.00000000000E+00 -0.00000000000E+00 -0.31695408022E+03  0.31695408022E+03  0.00000000000E+00 0. -1.
    9000007    1    1    2  502    0  0.13135976092E+03  0.37325168581E+03  0.18397108703E+03  0.59196078300E+03  0.40000000000E+03 0. -1.
   -9000007    1    1    2    0  501 -0.13135976092E+03 -0.37325168581E+03  0.58767453069E+03  0.81359299516E+03  0.40000000000E+03 0.  1.
<mgrwt>
<rscale>  2 0.56264750E+03</rscale>
<asrwt>0</asrwt>
<pdfrwt beam="1">  1        2 0.16747688E+00 0.56264750E+03</pdfrwt>
<pdfrwt beam="2">  1       -2 0.48762167E-01 0.56264750E+03</pdfrwt>
<totfact> 0.91010755E+01</totfact>
</mgrwt>
</event>
<event>
 4    1  0.2533915E-002  0.4479732E+03  0.7818608E-02  0.1028328E+00
         -2   -1    0    0    0  501 -0.00000000000E+00  0.00000000000E+00  0.39016579117E+03  0.39016579117E+03  0.00000000000E+00 0.  1.
          2   -1    0    0  502    0  0.00000000000E+00 -0.00000000000E+00 -0.51737922754E+03  0.51737922754E+03  0.00000000000E+00 0. -1.
    9000007    1    1    2  502    0 -0.20118714362E+03  0.14273800137E+02 -0.28859186552E+02  0.44890183869E+03  0.40000000000E+03 0. -1.
   -9000007    1    1    2    0  501  0.20118714362E+03 -0.14273800137E+02 -0.98354249814E+02  0.45864318003E+03  0.40000000000E+03 0.  1.
<mgrwt>
<rscale>  2 0.44797322E+03</rscale>
<asrwt>0</asrwt>
<pdfrwt beam="1">  1        2 0.79596804E-01 0.44797322E+03</pdfrwt>
<pdfrwt beam="2">  1       -2 0.60025506E-01 0.44797322E+03</pdfrwt>
<totfact> 0.15734523E+02</totfact>
</mgrwt>
</event>
<event>
 4    1  0.2533915E-002  0.4113232E+03  0.7818608E-02  0.1039928E+00
          1   -1    0    0  502    0  0.00000000000E+00  0.00000000000E+00  0.27123976176E+04  0.27123976176E+04  0.00000000000E+00 0. -1.
         -1   -1    0    0    0  501 -0.00000000000E+00 -0.00000000000E+00 -0.13160166271E+03  0.13160166271E+03  0.00000000000E+00 0.  1.
    9000007    1    1    2  502    0  0.95150101029E+02  0.11542368323E+02  0.25905200182E+03  0.48610154046E+03  0.40000000000E+03 0.  1.
   -9000007    1    1    2    0  501 -0.95150101029E+02 -0.11542368323E+02  0.23217439531E+04  0.23578977399E+04  0.40000000000E+03 0. -1.
<mgrwt>
<rscale>  2 0.41132319E+03</rscale>
<asrwt>0</asrwt>
<pdfrwt beam="1">  1        1 0.41729190E+00 0.41132319E+03</pdfrwt>
<pdfrwt beam="2">  1       -1 0.20246412E-01 0.41132319E+03</pdfrwt>
<totfact> 0.21674041E+01</totfact>
</mgrwt>
</event>
<event>
 4    1  0.2533915E-002  0.4030806E+03  0.7818608E-02  0.1042718E+00
          2   -1    0    0  502    0  0.00000000000E+00  0.00000000000E+00  0.31474278146E+03  0.31474278146E+03  0.00000000000E+00 0.  1.
         -2   -1    0    0    0  501 -0.00000000000E+00 -0.00000000000E+00 -0.53006493015E+03  0.53006493015E+03  0.00000000000E+00 0. -1.
    9000007    1    1    2  502    0 -0.19441209737E+02  0.45782136413E+02 -0.39374401047E+02  0.40499914581E+03  0.40000000000E+03 0.  1.
   -9000007    1    1    2    0  501  0.19441209737E+02 -0.45782136413E+02 -0.17594774764E+03  0.43980856580E+03  0.40000000000E+03 0. -1.
<mgrwt>
<rscale>  2 0.40308059E+03</rscale>
<asrwt>0</asrwt>
<pdfrwt beam="1">  1        2 0.48421967E-01 0.40308059E+03</pdfrwt>
<pdfrwt beam="2">  1       -2 0.81548450E-01 0.40308059E+03</pdfrwt>
<totfact> 0.14145432E+02</totfact>
</mgrwt>
</event>
<event>
 4    1  0.2533915E-002  0.5665853E+03  0.7818608E-02  0.9977263E-01
          1   -1    0    0  502    0  0.00000000000E+00  0.00000000000E+00  0.18856135475E+04  0.18856135475E+04  0.00000000000E+00 0. -1.
         -1   -1    0    0    0  501 -0.00000000000E+00 -0.00000000000E+00 -0.20347985312E+03  0.20347985312E+03  0.00000000000E+00 0.  1.
    9000007    1    1    2  502    0 -0.31469408753E+03 -0.24897100940E+03  0.41892846665E+03  0.70464174757E+03  0.40000000000E+03 0.  1.
   -9000007    1    1    2    0  501  0.31469408753E+03  0.24897100940E+03  0.12632052277E+04  0.13844516530E+04  0.40000000000E+03 0. -1.
<mgrwt>
<rscale>  2 0.56658533E+03</rscale>
<asrwt>0</asrwt>
<pdfrwt beam="1">  1        1 0.29009438E+00 0.56658533E+03</pdfrwt>
<pdfrwt beam="2">  1       -1 0.31304594E-01 0.56658533E+03</pdfrwt>
<totfact> 0.35838991E+01</totfact>
</mgrwt>
</event>
<event>
 4    1  0.2533915E-002  0.5010668E+03  0.7818608E-02  0.1013501E+00
         -2   -1    0    0    0  501 -0.00000000000E+00  0.00000000000E+00  0.15288849369E+03  0.15288849369E+03  0.00000000000E+00 0. -1.
          2   -1    0    0  502    0  0.00000000000E+00 -0.00000000000E+00 -0.28361270504E+04  0.28361270504E+04  0.00000000000E+00 0.  1.
    9000007    1    1    2  502    0  0.10837138083E+03 -0.28164434577E+03 -0.37193381889E+03  0.62402136127E+03  0.40000000000E+03 0. -1.
   -9000007    1    1    2    0  501 -0.10837138083E+03  0.28164434577E+03 -0.23113047378E+04  0.23649941828E+04  0.40000000000E+03 0.  1.
<mgrwt>
<rscale>  2 0.50106676E+03</rscale>
<asrwt>0</asrwt>
<pdfrwt beam="1">  1        2 0.43632720E+00 0.50106676E+03</pdfrwt>
<pdfrwt beam="2">  1       -2 0.23521309E-01 0.50106676E+03</pdfrwt>
<totfact> 0.38687845E+01</totfact>
</mgrwt>
</event>
<event>
 4    1  0.2533915E-002  0.6109716E+03  0.7818608E-02  0.9882901E-01
          2   -1    0    0  502    0  0.00000000000E+00  0.00000000000E+00  0.18740891237E+04  0.18740891237E+04  0.00000000000E+00 0. -1.
         -2   -1    0    0    0  501 -0.00000000000E+00 -0.00000000000E+00 -0.21187806448E+03  0.21187806448E+03  0.00000000000E+00 0.  1.
    9000007    1    1    2  502    0 -0.18732644254E+03  0.42213161358E+03  0.10864083266E+04  0.12464226199E+04  0.40000000000E+03 0. -1.
   -9000007    1    1    2    0  501  0.18732644254E+03 -0.42213161358E+03  0.57580273263E+03  0.83954456830E+03  0.40000000000E+03 0.  1.
<mgrwt>
<rscale>  2 0.61097160E+03</rscale>
<asrwt>0</asrwt>
<pdfrwt beam="1">  1        2 0.28832139E+00 0.61097160E+03</pdfrwt>
<pdfrwt beam="2">  1       -2 0.32596627E-01 0.61097160E+03</pdfrwt>
<totfact> 0.71811123E+01</totfact>
</mgrwt>
</event>
<event>
 4    1  0.2533915E-002  0.4513734E+03  0.7818608E-02  0.1027313E+00
          2   -1    0    0  502    0  0.00000000000E+00  0.00000000000E+00  0.32555672845E+03  0.32555672845E+03  0.00000000000E+00 0.  1.
         -2   -1    0    0    0  501 -0.00000000000E+00 -0.00000000000E+00 -0.67480800337E+03  0.67480800337E+03  0.00000000000E+00 0. -1.
    9000007    1    1    2  502    0 -0.17227120065E+03 -0.11857735981E+03 -0.30940076456E+03  0.54723558907E+03  0.40000000000E+03 0. -1.
   -9000007    1    1    2    0  501  0.17227120065E+03  0.11857735981E+03 -0.39850510369E+02  0.45312914275E+03  0.40000000000E+03 0.  1.
<mgrwt>
<rscale>  2 0.45137341E+03</rscale>
<asrwt>0</asrwt>
<pdfrwt beam="1">  1        2 0.50085651E-01 0.45137341E+03</pdfrwt>
<pdfrwt beam="2">  1       -2 0.10381661E+00 0.45137341E+03</pdfrwt>
<totfact> 0.77920143E+01</totfact>
</mgrwt>
</event>
<event>
 4    1  0.2533915E-002  0.4767551E+03  0.7818608E-02  0.1020031E+00
         -2   -1    0    0    0  501 -0.00000000000E+00  0.00000000000E+00  0.32326847354E+03  0.32326847354E+03  0.00000000000E+00 0.  1.
          2   -1    0    0  502    0  0.00000000000E+00 -0.00000000000E+00 -0.11731039400E+04  0.11731039400E+04  0.00000000000E+00 0. -1.
    9000007    1    1    2  502    0 -0.22562689686E+03  0.12801523780E+03 -0.89848816297E+03  0.10171412767E+04  0.40000000000E+03 0. -1.
   -9000007    1    1    2    0  501  0.22562689686E+03 -0.12801523780E+03  0.48652696495E+02  0.47923113689E+03  0.40000000000E+03 0.  1.
<mgrwt>
<rscale>  2 0.47675507E+03</rscale>
<asrwt>0</asrwt>
<pdfrwt beam="1">  1        2 0.18047753E+00 0.47675507E+03</pdfrwt>
<pdfrwt beam="2">  1       -2 0.49733611E-01 0.47675507E+03</pdfrwt>
<totfact> 0.78652449E+01</totfact>
</mgrwt>
</event>
<event>
 4    1  0.2533915E-002  0.4852512E+03  0.7818608E-02  0.1017702E+00
         -1   -1    0    0    0  501 -0.00000000000E+00  0.00000000000E+00  0.51758086168E+03  0.51758086168E+03  0.00000000000E+00 0. -1.
          1   -1    0    0  502    0  0.00000000000E+00 -0.00000000000E+00 -0.45587327340E+03  0.45587327340E+03  0.00000000000E+00 0.  1.
    9000007    1    1    2  502    0  0.13259396943E+03 -0.24059830950E+03  0.88419480233E+01  0.48533172914E+03  0.40000000000E+03 0.  1.
   -9000007    1    1    2    0  501 -0.13259396943E+03  0.24059830950E+03  0.52865640259E+02  0.48812240594E+03  0.40000000000E+03 0. -1.
<mgrwt>
<rscale>  2 0.48525118E+03</rscale>
<asrwt>0</asrwt>
<pdfrwt beam="1">  1        1 0.70134350E-01 0.48525118E+03</pdfrwt>
<pdfrwt beam="2">  1       -1 0.79627825E-01 0.48525118E+03</pdfrwt>
<totfact> 0.82625632E+01</totfact>
</mgrwt>
</event>
<event>
 4    1  0.2533915E-002  0.5818222E+03  0.7818608E-02  0.9943854E-01
          2   -1    0    0  502    0  0.00000000000E+00  0.00000000000E+00  0.28056543899E+04  0.28056543899E+04  0.00000000000E+00 0. -1.
         -2   -1    0    0    0  501 -0.00000000000E+00 -0.00000000000E+00 -0.12236492092E+03  0.12236492092E+03  0.00000000000E+00 0.  1.
    9000007    1    1    2  502    0  0.92733214582E+02  0.41221062404E+03  0.11685967711E+04  0.13054253946E+04  0.40000000000E+03 0.  1.
   -9000007    1    1    2    0  501 -0.92733214582E+02 -0.41221062404E+03  0.15146926979E+04  0.16225939161E+04  0.40000000000E+03 0. -1.
<mgrwt>
<rscale>  2 0.58182218E+03</rscale>
<asrwt>0</asrwt>
<pdfrwt beam="1">  1        2 0.43163909E+00 0.58182218E+03</pdfrwt>
<pdfrwt beam="2">  1       -2 0.18825375E-01 0.58182218E+03</pdfrwt>
<totfact> 0.58602690E+01</totfact>
</mgrwt>
</event>
<event>
 4    1  0.2533915E-002  0.4228682E+03  0.7818608E-02  0.1036137E+00
         -2   -1    0    0    0  501 -0.00000000000E+00  0.00000000000E+00  0.13596182726E+04  0.13596182726E+04  0.00000000000E+00 0. -1.
          2   -1    0    0  502    0  0.00000000000E+00 -0.00000000000E+00 -0.23355182324E+03  0.23355182324E+03  0.00000000000E+00 0.  1.
    9000007    1    1    2  502    0  0.68142093319E+02  0.11905516780E+03  0.10895443925E+04  0.11687277104E+04  0.40000000000E+03 0. -1.
   -9000007    1    1    2    0  501 -0.68142093319E+02 -0.11905516780E+03  0.36522056791E+02  0.42444238536E+03  0.40000000000E+03 0.  1.
<mgrwt>
<rscale>  2 0.42286816E+03</rscale>
<asrwt>0</asrwt>
<pdfrwt beam="1">  1        2 0.35931050E-01 0.42286816E+03</pdfrwt>
<pdfrwt beam="2">  1       -2 0.20917204E+00 0.42286816E+03</pdfrwt>
<totfact> 0.17781322E+01</totfact>
</mgrwt>
</event>
<event>
 4    1  0.2533915E-002  0.4499776E+03  0.7818608E-02  0.1027729E+00
          1   -1    0    0  502    0  0.00000000000E+00  0.00000000000E+00  0.82207741498E+03  0.82207741498E+03  0.00000000000E+00 0.  1.
         -1   -1    0    0    0  501 -0.00000000000E+00 -0.00000000000E+00 -0.31419890113E+03  0.31419890113E+03  0.00000000000E+00 0. -1.
    9000007    1    1    2  502    0 -0.16125266225E+03 -0.12836430793E+03  0.51804305040E+03  0.68618395399E+03  0.40000000000E+03 0.  1.
   -9000007    1    1    2    0  501  0.16125266225E+03  0.12836430793E+03 -0.10164536558E+02  0.45009236212E+03  0.40000000000E+03 0. -1.
<mgrwt>
<rscale>  2 0.44997757E+03</rscale>
<asrwt>0</asrwt>
<pdfrwt beam="1">  1        1 0.12647345E+00 0.44997757E+03</pdfrwt>
<pdfrwt beam="2">  1       -1 0.48338293E-01 0.44997757E+03</pdfrwt>
<totfact> 0.95078363E+01</totfact>
</mgrwt>
</event>
<event>
 4    1  0.2533915E-002  0.4061791E+03  0.7818608E-02  0.1041661E+00
         -1   -1    0    0    0  501 -0.00000000000E+00  0.00000000000E+00  0.11390935214E+03  0.11390935214E+03  0.00000000000E+00 0. -1.
          1   -1    0    0  502    0  0.00000000000E+00 -0.00000000000E+00 -0.14734285854E+04  0.14734285854E+04  0.00000000000E+00 0.  1.
    9000007    1    1    2  502    0  0.31855819899E+02  0.62981203002E+02 -0.78328918686E+03  0.88233971658E+03  0.40000000000E+03 0.  1.
   -9000007    1    1    2    0  501 -0.31855819899E+02 -0.62981203002E+02 -0.57623004642E+03  0.70499822098E+03  0.40000000000E+03 0. -1.
<mgrwt>
<rscale>  2 0.40617906E+03</rscale>
<asrwt>0</asrwt>
<pdfrwt beam="1">  1        1 0.22668133E+00 0.40617906E+03</pdfrwt>
<pdfrwt beam="2">  1       -1 0.17524515E-01 0.40617906E+03</pdfrwt>
<totfact> 0.18351029E+02</totfact>
</mgrwt>
</event>
<event>
 4    1  0.2533915E-002  0.4004310E+03  0.7818608E-02  0.1043631E+00
         -2   -1    0    0    0  501 -0.00000000000E+00  0.00000000000E+00  0.12906924231E+03  0.12906924231E+03  0.00000000000E+00 0.  1.
          2   -1    0    0  502    0  0.00000000000E+00 -0.00000000000E+00 -0.12571047609E+04  0.12571047609E+04  0.00000000000E+00 0. -1.
    9000007    1    1    2  502    0 -0.17812252687E+02 -0.52602782995E+01 -0.63918861183E+03  0.75425925806E+03  0.40000000000E+03 0. -1.
   -9000007    1    1    2    0  501  0.17812252687E+02  0.52602782995E+01 -0.48884690674E+03  0.63191474512E+03  0.40000000000E+03 0.  1.
<mgrwt>
<rscale>  2 0.40043095E+03</rscale>
<asrwt>0</asrwt>
<pdfrwt beam="1">  1        2 0.19340072E+00 0.40043095E+03</pdfrwt>
<pdfrwt beam="2">  1       -2 0.19856807E-01 0.40043095E+03</pdfrwt>
<totfact> 0.39146710E+02</totfact>
</mgrwt>
</event>
<event>
 4    1  0.2533915E-002  0.4375633E+03  0.7818608E-02  0.1031497E+00
          2   -1    0    0  502    0  0.00000000000E+00  0.00000000000E+00  0.13787915835E+04  0.13787915835E+04  0.00000000000E+00 0. -1.
         -2   -1    0    0    0  501 -0.00000000000E+00 -0.00000000000E+00 -0.18258071514E+03  0.18258071514E+03  0.00000000000E+00 0.  1.
    9000007    1    1    2  502    0  0.57973154782E+02  0.16763292751E+03  0.21608818234E+03  0.48801207732E+03  0.40000000000E+03 0.  1.
   -9000007    1    1    2    0  501 -0.57973154782E+02 -0.16763292751E+03  0.98012268599E+03  0.10733602213E+04  0.40000000000E+03 0. -1.
<mgrwt>
<rscale>  2 0.43756335E+03</rscale>
<asrwt>0</asrwt>
<pdfrwt beam="1">  1        2 0.21212177E+00 0.43756335E+03</pdfrwt>
<pdfrwt beam="2">  1       -2 0.28089342E-01 0.43756335E+03</pdfrwt>
<totfact> 0.18006995E+02</totfact>
</mgrwt>
</event>
<event>
 4    1  0.2533915E-002  0.4272798E+03  0.7818608E-02  0.1034723E+00
          2   -1    0    0  502    0  0.00000000000E+00  0.00000000000E+00  0.40120323660E+03  0.40120323660E+03  0.00000000000E+00 0. -1.
         -2   -1    0    0    0  501 -0.00000000000E+00 -0.00000000000E+00 -0.45653299540E+03  0.45653299540E+03  0.00000000000E+00 0.  1.
    9000007    1    1    2  502    0  0.10817471043E+03 -0.10424137988E+03 -0.52097770288E+02  0.43044420187E+03  0.40000000000E+03 0.  1.
   -9000007    1    1    2    0  501 -0.10817471043E+03  0.10424137988E+03 -0.32319885133E+01  0.42729203012E+03  0.40000000000E+03 0.  1.
<mgrwt>
<rscale>  2 0.42727981E+03</rscale>
<asrwt>0</asrwt>
<pdfrwt beam="1">  1        2 0.61723575E-01 0.42727981E+03</pdfrwt>
<pdfrwt beam="2">  1       -2 0.70235845E-01 0.42727981E+03</pdfrwt>
<totfact> 0.15020010E+02</totfact>
</mgrwt>
</event>
<event>
 4    1  0.2533915E-002  0.5162939E+03  0.7818608E-02  0.1009611E+00
         -1   -1    0    0    0  501 -0.00000000000E+00  0.00000000000E+00  0.84968669441E+03  0.84968669441E+03  0.00000000000E+00 0.  1.
          1   -1    0    0  502    0  0.00000000000E+00 -0.00000000000E+00 -0.34303315301E+03  0.34303315301E+03  0.00000000000E+00 0. -1.
    9000007    1    1    2  502    0 -0.28688090356E+03 -0.15575222317E+03  0.42767164057E+03  0.67041959995E+03  0.40000000000E+03 0.  1.
   -9000007    1    1    2    0  501  0.28688090356E+03  0.15575222317E+03  0.78981900834E+02  0.52230024747E+03  0.40000000000E+03 0. -1.
<mgrwt>
<rscale>  2 0.51629392E+03</rscale>
<asrwt>0</asrwt>
<pdfrwt beam="1">  1        1 0.52774331E-01 0.51629392E+03</pdfrwt>
<pdfrwt beam="2">  1       -1 0.13072103E+00 0.51629392E+03</pdfrwt>
<totfact> 0.38503812E+01</totfact>
</mgrwt>
</event>
<event>
 4    1  0.2533915E-002  0.8152081E+03  0.7818608E-02  0.9538261E-01
         -2   -1    0    0    0  501 -0.00000000000E+00  0.00000000000E+00  0.68317127415E+03  0.68317127415E+03  0.00000000000E+00 0.  1.
          2   -1    0    0  502    0  0.00000000000E+00 -0.00000000000E+00 -0.11628825739E+04  0.11628825739E+04  0.00000000000E+00 0. -1.
    9000007    1    1    2  502    0 -0.56053131229E+03 -0.43631277317E+03  0.13335936011E+03  0.82604413140E+03  0.40000000000E+03 0.  1.
   -9000007    1    1    2    0  501  0.56053131229E+03  0.43631277317E+03 -0.61307065986E+03  0.10200097167E+04  0.40000000000E+03 0. -1.
<mgrwt>
<rscale>  2 0.81520806E+03</rscale>
<asrwt>0</asrwt>
<pdfrwt beam="1">  1        2 0.17890501E+00 0.81520806E+03</pdfrwt>
<pdfrwt beam="2">  1       -2 0.10510327E+00 0.81520806E+03</pdfrwt>
<totfact> 0.14791435E+01</totfact>
</mgrwt>
</event>
<event>
 4    1  0.2533915E-002  0.4928192E+03  0.7818608E-02  0.1015670E+00
          2   -1    0    0  502    0  0.00000000000E+00  0.00000000000E+00  0.26395595232E+04  0.26395595232E+04  0.00000000000E+00 0.  1.
         -2   -1    0    0    0  501 -0.00000000000E+00 -0.00000000000E+00 -0.11153935969E+03  0.11153935969E+03  0.00000000000E+00 0. -1.
    9000007    1    1    2  502    0 -0.29461645052E+02  0.28636122828E+03  0.68845668874E+03  0.84666602262E+03  0.40000000000E+03 0.  1.
   -9000007    1    1    2    0  501  0.29461645052E+02 -0.28636122828E+03  0.18395634748E+04  0.19044328603E+04  0.40000000000E+03 0.  1.
<mgrwt>
<rscale>  2 0.49281918E+03</rscale>
<asrwt>0</asrwt>
<pdfrwt beam="1">  1        2 0.40608603E+00 0.49281918E+03</pdfrwt>
<pdfrwt beam="2">  1       -2 0.17159904E-01 0.49281918E+03</pdfrwt>
<totfact> 0.87123882E+01</totfact>
</mgrwt>
</event>
<event>
 4    1  0.2533915E-002  0.9667470E+03  0.7818608E-02  0.9345787E-01
          2   -1    0    0  502    0  0.00000000000E+00  0.00000000000E+00  0.17319219828E+04  0.17319219828E+04  0.00000000000E+00 0. -1.
         -2   -1    0    0    0  501 -0.00000000000E+00 -0.00000000000E+00 -0.54118219152E+03  0.54118219152E+03  0.00000000000E+00 0.  1.
    9000007    1    1    2  502    0 -0.64362437027E+03  0.60028939197E+03  0.53453144510E+03  0.11046825562E+04  0.40000000000E+03 0.  1.
   -9000007    1    1    2    0  501  0.64362437027E+03 -0.60028939197E+03  0.65620834616E+03  0.11684216181E+04  0.40000000000E+03 0. -1.
<mgrwt>
<rscale>  2 0.96674696E+03</rscale>
<asrwt>0</asrwt>
<pdfrwt beam="1">  1        2 0.26644953E+00 0.96674696E+03</pdfrwt>
<pdfrwt beam="2">  1       -2 0.83258800E-01 0.96674696E+03</pdfrwt>
<totfact> 0.11916797E+01</totfact>
</mgrwt>
</event>
<event>
 4    1  0.2533915E-002  0.5642942E+03  0.7818608E-02  0.9982385E-01
          2   -1    0    0  502    0  0.00000000000E+00  0.00000000000E+00  0.27360902713E+03  0.27360902713E+03  0.00000000000E+00 0.  1.
         -2   -1    0    0    0  501 -0.00000000000E+00 -0.00000000000E+00 -0.21735958999E+04  0.21735958999E+04  0.00000000000E+00 0. -1.
    9000007    1    1    2  502    0  0.19030467287E+03 -0.34958849293E+03 -0.11599290252E+03  0.57609229846E+03  0.40000000000E+03 0.  1.
   -9000007    1    1    2    0  501 -0.19030467287E+03  0.34958849293E+03 -0.17839939703E+04  0.18711126286E+04  0.40000000000E+03 0. -1.
<mgrwt>
<rscale>  2 0.56429423E+03</rscale>
<asrwt>0</asrwt>
<pdfrwt beam="1">  1        2 0.42093697E-01 0.56429423E+03</pdfrwt>
<pdfrwt beam="2">  1       -2 0.33439936E+00 0.56429423E+03</pdfrwt>
<totfact> 0.25654687E+00</totfact>
</mgrwt>
</event>
<event>
 4    1  0.2533915E-002  0.5368840E+03  0.7818608E-02  0.1004576E+00
         -2   -1    0    0    0  501 -0.00000000000E+00  0.00000000000E+00  0.40509239882E+03  0.40509239882E+03  0.00000000000E+00 0. -1.
          2   -1    0    0  502    0  0.00000000000E+00 -0.00000000000E+00 -0.72369274871E+03  0.72369274871E+03  0.00000000000E+00 0.  1.
    9000007    1    1    2  502    0 -0.46449439225E+02 -0.35508721480E+03 -0.86199862288E+02  0.54375996246E+03  0.40000000000E+03 0.  1.
   -9000007    1    1    2    0  501  0.46449439225E+02  0.35508721480E+03 -0.23240048760E+03  0.58502518506E+03  0.40000000000E+03 0. -1.
<mgrwt>
<rscale>  2 0.53688405E+03</rscale>
<asrwt>0</asrwt>
<pdfrwt beam="1">  1        2 0.11133735E+00 0.53688405E+03</pdfrwt>
<pdfrwt beam="2">  1       -2 0.62321908E-01 0.53688405E+03</pdfrwt>
<totfact> 0.96472407E+01</totfact>
</mgrwt>
</event>
<event>
 4    1  0.2533915E-002  0.4229306E+03  0.7818608E-02  0.1036117E+00
          2   -1    0    0  502    0  0.00000000000E+00  0.00000000000E+00  0.11624399148E+04  0.11624399148E+04  0.00000000000E+00 0.  1.
         -2   -1    0    0    0  501 -0.00000000000E+00 -0.00000000000E+00 -0.15724715789E+03  0.15724715789E+03  0.00000000000E+00 0. -1.
    9000007    1    1    2  502    0  0.73508829965E+02  0.11604636826E+03  0.59922614946E+03  0.73344548936E+03  0.40000000000E+03 0.  1.
   -9000007    1    1    2    0  501 -0.73508829965E+02 -0.11604636826E+03  0.40596660750E+03  0.58624158337E+03  0.40000000000E+03 0. -1.
<mgrwt>
<rscale>  2 0.42293062E+03</rscale>
<asrwt>0</asrwt>
<pdfrwt beam="1">  1        2 0.17883690E+00 0.42293062E+03</pdfrwt>
<pdfrwt beam="2">  1       -2 0.24191871E-01 0.42293062E+03</pdfrwt>
<totfact> 0.31343471E+02</totfact>
</mgrwt>
</event>
<event>
 4    1  0.2533915E-002  0.4401923E+03  0.7818608E-02  0.1030688E+00
          2   -1    0    0  502    0  0.00000000000E+00  0.00000000000E+00  0.17500755431E+04  0.17500755431E+04  0.00000000000E+00 0.  1.
         -2   -1    0    0    0  501 -0.00000000000E+00 -0.00000000000E+00 -0.11136528655E+03  0.11136528655E+03  0.00000000000E+00 0. -1.
    9000007    1    1    2  502    0  0.10988324465E+02  0.18343535340E+03  0.74853675300E+03  0.86837580733E+03  0.40000000000E+03 0. -1.
   -9000007    1    1    2    0  501 -0.10988324465E+02 -0.18343535340E+03  0.89017350355E+03  0.99306502233E+03  0.40000000000E+03 0.  1.
<mgrwt>
<rscale>  2 0.44019231E+03</rscale>
<asrwt>0</asrwt>
<pdfrwt beam="1">  1        2 0.26924237E+00 0.44019231E+03</pdfrwt>
<pdfrwt beam="2">  1       -2 0.17133122E-01 0.44019231E+03</pdfrwt>
<totfact> 0.26949483E+02</totfact>
</mgrwt>
</event>
<event>
 4    1  0.2533915E-002  0.4366104E+03  0.7818608E-02  0.1031792E+00
          2   -1    0    0  502    0  0.00000000000E+00  0.00000000000E+00  0.14413899516E+04  0.14413899516E+04  0.00000000000E+00 0.  1.
         -2   -1    0    0    0  501 -0.00000000000E+00 -0.00000000000E+00 -0.13286707776E+03  0.13286707776E+03  0.00000000000E+00 0. -1.
    9000007    1    1    2  502    0 -0.63254081427E+02  0.16317952738E+03  0.60076461602E+03  0.74266194250E+03  0.40000000000E+03 0.  1.
   -9000007    1    1    2    0  501  0.63254081427E+02 -0.16317952738E+03  0.70775825778E+03  0.83159508683E+03  0.40000000000E+03 0.  1.
<mgrwt>
<rscale>  2 0.43661039E+03</rscale>
<asrwt>0</asrwt>
<pdfrwt beam="1">  1        2 0.22175229E+00 0.43661039E+03</pdfrwt>
<pdfrwt beam="2">  1       -2 0.20441090E-01 0.43661039E+03</pdfrwt>
<totfact> 0.29254136E+02</totfact>
</mgrwt>
</event>
<event>
 4    1  0.2533915E-002  0.5654756E+03  0.7818608E-02  0.9979741E-01
          3   -1    0    0  502    0  0.00000000000E+00  0.00000000000E+00  0.21653129719E+03  0.21653129719E+03  0.00000000000E+00 0.  1.
         -3   -1    0    0    0  501 -0.00000000000E+00 -0.00000000000E+00 -0.15420026420E+04  0.15420026420E+04  0.00000000000E+00 0. -1.
    9000007    1    1    2  502    0  0.27681894022E+03 -0.28832949179E+03 -0.84360995192E+03  0.10155985292E+04  0.40000000000E+03 0. -1.
   -9000007    1    1    2    0  501 -0.27681894022E+03  0.28832949179E+03 -0.48186139291E+03  0.74293541003E+03  0.40000000000E+03 0. -1.
<mgrwt>
<rscale>  2 0.56547557E+03</rscale>
<asrwt>0</asrwt>
<pdfrwt beam="1">  1        3 0.33312508E-01 0.56547557E+03</pdfrwt>
<pdfrwt beam="2">  1       -3 0.23723117E+00 0.56547557E+03</pdfrwt>
<totfact> 0.20559853E+00</totfact>
</mgrwt>
</event>
<event>
 4    1  0.2533915E-002  0.8406269E+03  0.7818608E-02  0.9503004E-01
          2   -1    0    0  502    0  0.00000000000E+00  0.00000000000E+00  0.34481035046E+04  0.34481035046E+04  0.00000000000E+00 0.  1.
         -2   -1    0    0    0  501 -0.00000000000E+00 -0.00000000000E+00 -0.49244159386E+03  0.49244159386E+03  0.00000000000E+00 0. -1.
    9000007    1    1    2  502    0 -0.23653870855E+02  0.73898173653E+03 -0.27629146952E+02  0.84108078226E+03  0.40000000000E+03 0. -1.
   -9000007    1    1    2    0  501  0.23653870855E+02 -0.73898173653E+03  0.29832910577E+04  0.30994643162E+04  0.40000000000E+03 0.  1.
<mgrwt>
<rscale>  2 0.84062686E+03</rscale>
<asrwt>0</asrwt>
<pdfrwt beam="1">  1        2 0.53047745E+00 0.84062686E+03</pdfrwt>
<pdfrwt beam="2">  1       -2 0.75760247E-01 0.84062686E+03</pdfrwt>
<totfact> 0.14688329E+00</totfact>
</mgrwt>
</event>
<event>
 4    1  0.2533915E-002  0.4307057E+03  0.7818608E-02  0.1033637E+00
          2   -1    0    0  502    0  0.00000000000E+00  0.00000000000E+00  0.13387545389E+04  0.13387545389E+04  0.00000000000E+00 0.  1.
         -2   -1    0    0    0  501 -0.00000000000E+00 -0.00000000000E+00 -0.14127468529E+03  0.14127468529E+03  0.00000000000E+00 0. -1.
    9000007    1    1    2  502    0 -0.48695144381E+02  0.15210593158E+03  0.49629431588E+03  0.65712668450E+03  0.40000000000E+03 0.  1.
   -9000007    1    1    2    0  501  0.48695144381E+02 -0.15210593158E+03  0.70118553778E+03  0.82290253973E+03  0.40000000000E+03 0. -1.
<mgrwt>
<rscale>  2 0.43070574E+03</rscale>
<asrwt>0</asrwt>
<pdfrwt beam="1">  1        2 0.20596223E+00 0.43070574E+03</pdfrwt>
<pdfrwt beam="2">  1       -2 0.21734568E-01 0.43070574E+03</pdfrwt>
<totfact> 0.29989011E+02</totfact>
</mgrwt>
</event>
<event>
 4    1  0.2533915E-002  0.8048021E+03  0.7818608E-02  0.9553092E-01
         -1   -1    0    0    0  501 -0.00000000000E+00  0.00000000000E+00  0.10302863697E+04  0.10302863697E+04  0.00000000000E+00 0. -1.
          1   -1    0    0  502    0  0.00000000000E+00 -0.00000000000E+00 -0.76743109989E+03  0.76743109989E+03  0.00000000000E+00 0.  1.
    9000007    1    1    2  502    0  0.22803860788E+03 -0.66007943536E+03 -0.25079040253E+03  0.84297229710E+03  0.40000000000E+03 0.  1.
   -9000007    1    1    2    0  501 -0.22803860788E+03  0.66007943536E+03  0.51364567231E+03  0.95474517247E+03  0.40000000000E+03 0. -1.
<mgrwt>
<rscale>  2 0.80480213E+03</rscale>
<asrwt>0</asrwt>
<pdfrwt beam="1">  1        1 0.11806632E+00 0.80480213E+03</pdfrwt>
<pdfrwt beam="2">  1       -1 0.15850560E+00 0.80480213E+03</pdfrwt>
<totfact> 0.72668938E+00</totfact>
</mgrwt>
</event>
<event>
 4    1  0.2533915E-002  0.4309500E+03  0.7818608E-02  0.1033560E+00
          2   -1    0    0  502    0  0.00000000000E+00  0.00000000000E+00  0.21587609622E+04  0.21587609622E+04  0.00000000000E+00 0.  1.
         -2   -1    0    0    0  501 -0.00000000000E+00 -0.00000000000E+00 -0.95894216065E+02  0.95894216065E+02  0.00000000000E+00 0. -1.
    9000007    1    1    2  502    0 -0.13778756300E+03  0.82051767775E+02  0.66986679316E+03  0.79651705926E+03  0.40000000000E+03 0. -1.
   -9000007    1    1    2    0  501  0.13778756300E+03 -0.82051767775E+02  0.13929999530E+04  0.14581381190E+04  0.40000000000E+03 0.  1.
<mgrwt>
<rscale>  2 0.43095000E+03</rscale>
<asrwt>0</asrwt>
<pdfrwt beam="1">  1        2 0.33211703E+00 0.43095000E+03</pdfrwt>
<pdfrwt beam="2">  1       -2 0.14752958E-01 0.43095000E+03</pdfrwt>
<totfact> 0.20966899E+02</totfact>
</mgrwt>
</event>
<event>
 4    1  0.2533915E-002  0.4667099E+03  0.7818608E-02  0.1022853E+00
          1   -1    0    0  502    0  0.00000000000E+00  0.00000000000E+00  0.77176905074E+03  0.77176905074E+03  0.00000000000E+00 0. -1.
         -1   -1    0    0    0  501 -0.00000000000E+00 -0.00000000000E+00 -0.38496688948E+03  0.38496688948E+03  0.00000000000E+00 0.  1.
    9000007    1    1    2  502    0 -0.39895721013E+02  0.23712112141E+03  0.49218075712E+03  0.67827722389E+03  0.40000000000E+03 0. -1.
   -9000007    1    1    2    0  501  0.39895721013E+02 -0.23712112141E+03 -0.10537859586E+03  0.47845871634E+03  0.40000000000E+03 0.  1.
<mgrwt>
<rscale>  2 0.46670986E+03</rscale>
<asrwt>0</asrwt>
<pdfrwt beam="1">  1        1 0.11873370E+00 0.46670986E+03</pdfrwt>
<pdfrwt beam="2">  1       -1 0.59225675E-01 0.46670986E+03</pdfrwt>
<totfact> 0.71167388E+01</totfact>
</mgrwt>
</event>
<event>
 4    1  0.2533915E-002  0.6538064E+03  0.7818608E-02  0.9799663E-01
         -1   -1    0    0    0  501 -0.00000000000E+00  0.00000000000E+00  0.16906001704E+03  0.16906001704E+03  0.00000000000E+00 0.  1.
          1   -1    0    0  502    0  0.00000000000E+00 -0.00000000000E+00 -0.25587928787E+04  0.25587928787E+04  0.00000000000E+00 0. -1.
    9000007    1    1    2  502    0  0.45920140391E+03 -0.23790109476E+03 -0.10463849821E+04  0.12338494199E+04  0.40000000000E+03 0.  1.
   -9000007    1    1    2    0  501 -0.45920140391E+03  0.23790109476E+03 -0.13433478796E+04  0.14940034758E+04  0.40000000000E+03 0. -1.
<mgrwt>
<rscale>  2 0.65380644E+03</rscale>
<asrwt>0</asrwt>
<pdfrwt beam="1">  1        1 0.39366044E+00 0.65380644E+03</pdfrwt>
<pdfrwt beam="2">  1       -1 0.26009234E-01 0.65380644E+03</pdfrwt>
<totfact> 0.17204087E+01</totfact>
</mgrwt>
</event>
<event>
 4    1  0.2533915E-002  0.5814982E+03  0.7818608E-02  0.9944553E-01
         -1   -1    0    0    0  501 -0.00000000000E+00  0.00000000000E+00  0.18790306014E+03  0.18790306014E+03  0.00000000000E+00 0. -1.
          1   -1    0    0  502    0  0.00000000000E+00 -0.00000000000E+00 -0.19401487904E+04  0.19401487904E+04  0.00000000000E+00 0.  1.
    9000007    1    1    2  502    0 -0.28311562062E+03 -0.31302662604E+03 -0.11625619609E+04  0.12998809315E+04  0.40000000000E+03 0.  1.
   -9000007    1    1    2    0  501  0.28311562062E+03  0.31302662604E+03 -0.58968376943E+03  0.82817091907E+03  0.40000000000E+03 0.  1.
<mgrwt>
<rscale>  2 0.58149817E+03</rscale>
<asrwt>0</asrwt>
<pdfrwt beam="1">  1        1 0.29848445E+00 0.58149817E+03</pdfrwt>
<pdfrwt beam="2">  1       -1 0.28908161E-01 0.58149817E+03</pdfrwt>
<totfact> 0.37767006E+01</totfact>
</mgrwt>
</event>
<event>
 4    1  0.2533915E-002  0.4086142E+03  0.7818608E-02  0.1040837E+00
          2   -1    0    0  502    0  0.00000000000E+00  0.00000000000E+00  0.54746578124E+03  0.54746578124E+03  0.00000000000E+00 0. -1.
         -2   -1    0    0    0  501 -0.00000000000E+00 -0.00000000000E+00 -0.31722992424E+03  0.31722992424E+03  0.00000000000E+00 0.  1.
    9000007    1    1    2  502    0  0.69803565254E+02  0.45749169330E+02  0.30154500084E+02  0.40972529589E+03  0.40000000000E+03 0.  1.
   -9000007    1    1    2    0  501 -0.69803565254E+02 -0.45749169330E+02  0.20008135692E+03  0.45497040959E+03  0.40000000000E+03 0. -1.
<mgrwt>
<rscale>  2 0.40861415E+03</rscale>
<asrwt>0</asrwt>
<pdfrwt beam="1">  1        2 0.84225505E-01 0.40861415E+03</pdfrwt>
<pdfrwt beam="2">  1       -2 0.48804604E-01 0.40861415E+03</pdfrwt>
<totfact> 0.22594142E+02</totfact>
</mgrwt>
</event>
<event>
 4    1  0.2533915E-002  0.4362717E+03  0.7818608E-02  0.1031897E+00
          2   -1    0    0  502    0  0.00000000000E+00  0.00000000000E+00  0.61008376735E+03  0.61008376735E+03  0.00000000000E+00 0.  1.
         -2   -1    0    0    0  501 -0.00000000000E+00 -0.00000000000E+00 -0.37248195515E+03  0.37248195515E+03  0.00000000000E+00 0. -1.
    9000007    1    1    2  502    0  0.95927603707E+02  0.14536455320E+03  0.31680284206E+03  0.53916323986E+03  0.40000000000E+03 0.  1.
   -9000007    1    1    2    0  501 -0.95927603707E+02 -0.14536455320E+03 -0.79201029864E+02  0.44340248264E+03  0.40000000000E+03 0.  1.
<mgrwt>
<rscale>  2 0.43627166E+03</rscale>
<asrwt>0</asrwt>
<pdfrwt beam="1">  1        2 0.93859041E-01 0.43627166E+03</pdfrwt>
<pdfrwt beam="2">  1       -2 0.57304916E-01 0.43627166E+03</pdfrwt>
<totfact> 0.14305301E+02</totfact>
</mgrwt>
</event>
<event>
 4    1  0.2533915E-002  0.4384778E+03  0.7818608E-02  0.1031215E+00
          2   -1    0    0  502    0  0.00000000000E+00  0.00000000000E+00  0.14389535509E+04  0.14389535509E+04  0.00000000000E+00 0.  1.
         -2   -1    0    0    0  501 -0.00000000000E+00 -0.00000000000E+00 -0.22616891429E+03  0.22616891429E+03  0.00000000000E+00 0. -1.
    9000007    1    1    2  502    0  0.10330316818E+03  0.14693963918E+03  0.73791319671E+02  0.44464363368E+03  0.40000000000E+03 0. -1.
   -9000007    1    1    2    0  501 -0.10330316818E+03 -0.14693963918E+03  0.11389933169E+04  0.12204788315E+04  0.40000000000E+03 0.  1.
<mgrwt>
<rscale>  2 0.43847782E+03</rscale>
<asrwt>0</asrwt>
<pdfrwt beam="1">  1        2 0.22137746E+00 0.43847782E+03</pdfrwt>
<pdfrwt beam="2">  1       -2 0.34795218E-01 0.43847782E+03</pdfrwt>
<totfact> 0.11216389E+02</totfact>
</mgrwt>
</event>
<event>
 4    1  0.2533915E-002  0.6697109E+03  0.7818608E-02  0.9770480E-01
          1   -1    0    0  502    0  0.00000000000E+00  0.00000000000E+00  0.80697062776E+03  0.80697062776E+03  0.00000000000E+00 0.  1.
         -1   -1    0    0    0  501 -0.00000000000E+00 -0.00000000000E+00 -0.99649681205E+03  0.99649681205E+03  0.00000000000E+00 0. -1.
    9000007    1    1    2  502    0 -0.18298012731E+03  0.50500595059E+03 -0.69443160654E+03  0.96475281460E+03  0.40000000000E+03 0. -1.
   -9000007    1    1    2    0  501  0.18298012731E+03 -0.50500595059E+03  0.50490542225E+03  0.83871462520E+03  0.40000000000E+03 0.  1.
<mgrwt>
<rscale>  2 0.66971094E+03</rscale>
<asrwt>0</asrwt>
<pdfrwt beam="1">  1        1 0.12414933E+00 0.66971094E+03</pdfrwt>
<pdfrwt beam="2">  1       -1 0.15330720E+00 0.66971094E+03</pdfrwt>
<totfact> 0.74959678E+00</totfact>
</mgrwt>
</event>
<event>
 4    1  0.2533915E-002  0.4266512E+03  0.7818608E-02  0.1034923E+00
          2   -1    0    0  502    0  0.00000000000E+00  0.00000000000E+00  0.27212238431E+03  0.27212238431E+03  0.00000000000E+00 0. -1.
         -2   -1    0    0    0  501 -0.00000000000E+00 -0.00000000000E+00 -0.81268774587E+03  0.81268774587E+03  0.00000000000E+00 0.  1.
    9000007    1    1    2  502    0  0.57586626282E+02  0.13680286285E+03 -0.49840889706E+03  0.65608129945E+03  0.40000000000E+03 0.  1.
   -9000007    1    1    2    0  501 -0.57586626282E+02 -0.13680286285E+03 -0.42156464498E+02  0.42872883074E+03  0.40000000000E+03 0.  1.
<mgrwt>
<rscale>  2 0.42665120E+03</rscale>
<asrwt>0</asrwt>
<pdfrwt beam="1">  1        2 0.41864983E-01 0.42665120E+03</pdfrwt>
<pdfrwt beam="2">  1       -2 0.12502888E+00 0.42665120E+03</pdfrwt>
<totfact> 0.60577923E+01</totfact>
</mgrwt>
</event>
<event>
 4    1  0.2533915E-002  0.4204327E+03  0.7818608E-02  0.1036926E+00
          1   -1    0    0  502    0  0.00000000000E+00  0.00000000000E+00  0.35694720654E+03  0.35694720654E+03  0.00000000000E+00 0.  1.
         -1   -1    0    0    0  501 -0.00000000000E+00 -0.00000000000E+00 -0.87967448158E+03  0.87967448158E+03  0.00000000000E+00 0. -1.
    9000007    1    1    2  502    0  0.12946710429E+03  0.13902059537E+01  0.14740186380E+03  0.44552325777E+03  0.40000000000E+03 0.  1.
   -9000007    1    1    2    0  501 -0.12946710429E+03 -0.13902059537E+01 -0.67012913884E+03  0.79109843034E+03  0.40000000000E+03 0. -1.
<mgrwt>
<rscale>  2 0.42043271E+03</rscale>
<asrwt>0</asrwt>
<pdfrwt beam="1">  1        1 0.54914955E-01 0.42043271E+03</pdfrwt>
<pdfrwt beam="2">  1       -1 0.13533454E+00 0.42043271E+03</pdfrwt>
<totfact> 0.33977691E+01</totfact>
</mgrwt>
</event>
<event>
 4    1  0.2533915E-002  0.4156754E+03  0.7818608E-02  0.1038483E+00
         -1   -1    0    0    0  501 -0.00000000000E+00  0.00000000000E+00  0.66076298297E+03  0.66076298297E+03  0.00000000000E+00 0.  1.
          1   -1    0    0  502    0  0.00000000000E+00 -0.00000000000E+00 -0.37316704552E+03  0.37316704552E+03  0.00000000000E+00 0. -1.
    9000007    1    1    2  502    0  0.75092459446E+02 -0.84540836687E+02 -0.13900391187E+03  0.43830140092E+03  0.40000000000E+03 0. -1.
   -9000007    1    1    2    0  501 -0.75092459446E+02  0.84540836687E+02  0.42659984932E+03  0.59562862757E+03  0.40000000000E+03 0.  1.
<mgrwt>
<rscale>  2 0.41567539E+03</rscale>
<asrwt>0</asrwt>
<pdfrwt beam="1">  1        1 0.57410315E-01 0.41567539E+03</pdfrwt>
<pdfrwt beam="2">  1       -1 0.10165584E+00 0.41567539E+03</pdfrwt>
<totfact> 0.63641011E+01</totfact>
</mgrwt>
</event>
<event>
 4    1  0.2533915E-002  0.4007532E+03  0.7818608E-02  0.1043519E+00
         -1   -1    0    0    0  501 -0.00000000000E+00  0.00000000000E+00  0.39412893341E+03  0.39412893341E+03  0.00000000000E+00 0. -1.
          1   -1    0    0  502    0  0.00000000000E+00 -0.00000000000E+00 -0.41001006206E+03  0.41001006206E+03  0.00000000000E+00 0.  1.
    9000007    1    1    2  502    0  0.23059412975E+02  0.84489726697E+01  0.23588700032E+02  0.40144681894E+03  0.40000000000E+03 0. -1.
   -9000007    1    1    2    0  501 -0.23059412975E+02 -0.84489726697E+01 -0.39469828677E+02  0.40269217653E+03  0.40000000000E+03 0.  1.
<mgrwt>
<rscale>  2 0.40075319E+03</rscale>
<asrwt>0</asrwt>
<pdfrwt beam="1">  1        1 0.63078471E-01 0.40075319E+03</pdfrwt>
<pdfrwt beam="2">  1       -1 0.60635220E-01 0.40075319E+03</pdfrwt>
<totfact> 0.16638176E+02</totfact>
</mgrwt>
</event>
<event>
 4    1  0.2533915E-002  0.4023210E+03  0.7818608E-02  0.1042979E+00
         -2   -1    0    0    0  501 -0.00000000000E+00  0.00000000000E+00  0.24638392635E+03  0.24638392635E+03  0.00000000000E+00 0.  1.
          2   -1    0    0  502    0  0.00000000000E+00 -0.00000000000E+00 -0.77337952114E+03  0.77337952114E+03  0.00000000000E+00 0. -1.
    9000007    1    1    2  502    0 -0.59018743602E+01 -0.42747829388E+02 -0.65663091242E+02  0.40764426966E+03  0.40000000000E+03 0.  1.
   -9000007    1    1    2    0  501  0.59018743602E+01  0.42747829388E+02 -0.46133250355E+03  0.61211917783E+03  0.40000000000E+03 0. -1.
<mgrwt>
<rscale>  2 0.40232103E+03</rscale>
<asrwt>0</asrwt>
<pdfrwt beam="1">  1        2 0.11898146E+00 0.40232103E+03</pdfrwt>
<pdfrwt beam="2">  1       -2 0.37905219E-01 0.40232103E+03</pdfrwt>
<totfact> 0.24380279E+02</totfact>
</mgrwt>
</event>
<event>
 4    1  0.2533915E-002  0.4210532E+03  0.7818608E-02  0.1036724E+00
         -2   -1    0    0    0  501 -0.00000000000E+00  0.00000000000E+00  0.46151880466E+02  0.46151880466E+02  0.00000000000E+00 0. -1.
          2   -1    0    0  502    0  0.00000000000E+00 -0.00000000000E+00 -0.38528343607E+04  0.38528343607E+04  0.00000000000E+00 0.  1.
    9000007    1    1    2  502    0  0.11871358337E+02  0.13093853137E+03 -0.17969364595E+04  0.18456073438E+04  0.40000000000E+03 0.  1.
   -9000007    1    1    2    0  501 -0.11871358337E+02 -0.13093853137E+03 -0.20097460208E+04  0.20533788974E+04  0.40000000000E+03 0.  1.
<mgrwt>
<rscale>  2 0.42105324E+03</rscale>
<asrwt>0</asrwt>
<pdfrwt beam="1">  1        2 0.59274371E+00 0.42105324E+03</pdfrwt>
<pdfrwt beam="2">  1       -2 0.71002898E-02 0.42105324E+03</pdfrwt>
<totfact> 0.62363472E+01</totfact>
</mgrwt>
</event>
<event>
 4    1  0.2533915E-002  0.4626367E+03  0.7818608E-02  0.1024019E+00
         -2   -1    0    0    0  501 -0.00000000000E+00  0.00000000000E+00  0.18152845974E+03  0.18152845974E+03  0.00000000000E+00 0. -1.
          2   -1    0    0  502    0  0.00000000000E+00 -0.00000000000E+00 -0.12296752004E+04  0.12296752004E+04  0.00000000000E+00 0.  1.
    9000007    1    1    2  502    0  0.20561765543E+01  0.23244028505E+03 -0.38091707564E+03  0.59927500573E+03  0.40000000000E+03 0. -1.
   -9000007    1    1    2    0  501 -0.20561765543E+01 -0.23244028505E+03 -0.66722966501E+03  0.81192865440E+03  0.40000000000E+03 0.  1.
<mgrwt>
<rscale>  2 0.46263670E+03</rscale>
<asrwt>0</asrwt>
<pdfrwt beam="1">  1        2 0.18918080E+00 0.46263670E+03</pdfrwt>
<pdfrwt beam="2">  1       -2 0.27927455E-01 0.46263670E+03</pdfrwt>
<totfact> 0.22038524E+02</totfact>
</mgrwt>
</event>
<event>
 4    1  0.2533915E-002  0.4738070E+03  0.7818608E-02  0.1020851E+00
         -1   -1    0    0    0  501 -0.00000000000E+00  0.00000000000E+00  0.12579856945E+03  0.12579856945E+03  0.00000000000E+00 0.  1.
          1   -1    0    0  502    0  0.00000000000E+00 -0.00000000000E+00 -0.17926561233E+04  0.17926561233E+04  0.00000000000E+00 0. -1.
    9000007    1    1    2  502    0 -0.20770063002E+03  0.14612847477E+03 -0.89795559012E+03  0.10152917436E+04  0.40000000000E+03 0.  1.
   -9000007    1    1    2    0  501  0.20770063002E+03 -0.14612847477E+03 -0.76890196378E+03  0.90316294917E+03  0.40000000000E+03 0.  1.
<mgrwt>
<rscale>  2 0.47380701E+03</rscale>
<asrwt>0</asrwt>
<pdfrwt beam="1">  1        1 0.27579327E+00 0.47380701E+03</pdfrwt>
<pdfrwt beam="2">  1       -1 0.19353625E-01 0.47380701E+03</pdfrwt>
<totfact> 0.94599255E+01</totfact>
</mgrwt>
</event>
<event>
 4    1  0.2533915E-002  0.5359276E+03  0.7818608E-02  0.1004805E+00
         -3   -1    0    0    0  501 -0.00000000000E+00  0.00000000000E+00  0.18826749090E+03  0.18826749090E+03  0.00000000000E+00 0. -1.
          3   -1    0    0  502    0  0.00000000000E+00 -0.00000000000E+00 -0.16860035532E+04  0.16860035532E+04  0.00000000000E+00 0.  1.
    9000007    1    1    2  502    0  0.33697861339E+03  0.11689223174E+03 -0.45980126973E+03  0.70614133668E+03  0.40000000000E+03 0. -1.
   -9000007    1    1    2    0  501 -0.33697861339E+03 -0.11689223174E+03 -0.10379347925E+04  0.11681297074E+04  0.40000000000E+03 0.  1.
<mgrwt>
<rscale>  2 0.53592759E+03</rscale>
<asrwt>0</asrwt>
<pdfrwt beam="1">  1        3 0.25938516E+00 0.53592759E+03</pdfrwt>
<pdfrwt beam="2">  1       -3 0.28964229E-01 0.53592759E+03</pdfrwt>
<totfact> 0.20337677E+00</totfact>
</mgrwt>
</event>
<event>
 4    1  0.2533915E-002  0.5878160E+03  0.7818608E-02  0.9931012E-01
         -1   -1    0    0    0  501 -0.00000000000E+00  0.00000000000E+00  0.44717709394E+03  0.44717709394E+03  0.00000000000E+00 0. -1.
          1   -1    0    0  502    0  0.00000000000E+00 -0.00000000000E+00 -0.83624694323E+03  0.83624694323E+03  0.00000000000E+00 0.  1.
    9000007    1    1    2  502    0 -0.22948156240E+03  0.36450762215E+03 -0.17618889953E+02  0.58807994301E+03  0.40000000000E+03 0.  1.
   -9000007    1    1    2    0  501  0.22948156240E+03 -0.36450762215E+03 -0.37145095934E+03  0.69534409416E+03  0.40000000000E+03 0. -1.
<mgrwt>
<rscale>  2 0.58781595E+03</rscale>
<asrwt>0</asrwt>
<pdfrwt beam="1">  1        1 0.12865338E+00 0.58781595E+03</pdfrwt>
<pdfrwt beam="2">  1       -1 0.68796476E-01 0.58781595E+03</pdfrwt>
<totfact> 0.45826978E+01</totfact>
</mgrwt>
</event>
<event>
 4    1  0.2533915E-002  0.4006815E+03  0.7818608E-02  0.1043544E+00
          2   -1    0    0  502    0  0.00000000000E+00  0.00000000000E+00  0.37059503245E+03  0.37059503245E+03  0.00000000000E+00 0.  1.
         -2   -1    0    0    0  501 -0.00000000000E+00 -0.00000000000E+00 -0.43658022858E+03  0.43658022858E+03  0.00000000000E+00 0. -1.
    9000007    1    1    2  502    0  0.96214720611E+01  0.21286292258E+02 -0.68449424216E+02  0.40648616537E+03  0.40000000000E+03 0. -1.
   -9000007    1    1    2    0  501 -0.96214720611E+01 -0.21286292258E+02  0.24642280889E+01  0.40068909566E+03  0.40000000000E+03 0.  1.
<mgrwt>
<rscale>  2 0.40068152E+03</rscale>
<asrwt>0</asrwt>
<pdfrwt beam="1">  1        2 0.57014621E-01 0.40068152E+03</pdfrwt>
<pdfrwt beam="2">  1       -2 0.67166189E-01 0.40068152E+03</pdfrwt>
<totfact> 0.18084390E+02</totfact>
</mgrwt>
</event>
<event>
 4    1  0.2533915E-002  0.5149980E+03  0.7818608E-02  0.1009937E+00
          1   -1    0    0  502    0  0.00000000000E+00  0.00000000000E+00  0.14401725662E+03  0.14401725662E+03  0.00000000000E+00 0. -1.
         -1   -1    0    0    0  501 -0.00000000000E+00 -0.00000000000E+00 -0.22895958684E+04  0.22895958684E+04  0.00000000000E+00 0.  1.
    9000007    1    1    2  502    0 -0.12835985245E+03 -0.29790385750E+03 -0.16110299696E+04  0.16913428165E+04  0.40000000000E+03 0.  1.
   -9000007    1    1    2    0  501  0.12835985245E+03  0.29790385750E+03 -0.53454864217E+03  0.74227030850E+03  0.40000000000E+03 0. -1.
<mgrwt>
<rscale>  2 0.51499802E+03</rscale>
<asrwt>0</asrwt>
<pdfrwt beam="1">  1        1 0.22156501E-01 0.51499802E+03</pdfrwt>
<pdfrwt beam="2">  1       -1 0.35224552E+00 0.51499802E+03</pdfrwt>
<totfact> 0.37778748E+00</totfact>
</mgrwt>
</event>
<event>
 4    1  0.2533915E-002  0.5780143E+03  0.7818608E-02  0.9952099E-01
          1   -1    0    0  502    0  0.00000000000E+00  0.00000000000E+00  0.21737751492E+03  0.21737751492E+03  0.00000000000E+00 0. -1.
         -1   -1    0    0    0  501 -0.00000000000E+00 -0.00000000000E+00 -0.18623633168E+04  0.18623633168E+04  0.00000000000E+00 0.  1.
    9000007    1    1    2  502    0 -0.24058210369E+02 -0.41655945336E+03 -0.38782465663E+03  0.69606647668E+03  0.40000000000E+03 0. -1.
   -9000007    1    1    2    0  501  0.24058210369E+02  0.41655945336E+03 -0.12571611452E+04  0.13836743550E+04  0.40000000000E+03 0.  1.
<mgrwt>
<rscale>  2 0.57801434E+03</rscale>
<asrwt>0</asrwt>
<pdfrwt beam="1">  1        1 0.33442695E-01 0.57801434E+03</pdfrwt>
<pdfrwt beam="2">  1       -1 0.28651743E+00 0.57801434E+03</pdfrwt>
<totfact> 0.57689622E+00</totfact>
</mgrwt>
</event>
<event>
 4    1  0.2533915E-002  0.4107785E+03  0.7818608E-02  0.1040110E+00
          1   -1    0    0  502    0  0.00000000000E+00  0.00000000000E+00  0.72395168996E+03  0.72395168996E+03  0.00000000000E+00 0. -1.
         -1   -1    0    0    0  501 -0.00000000000E+00 -0.00000000000E+00 -0.23587007886E+03  0.23587007886E+03  0.00000000000E+00 0.  1.
    9000007    1    1    2  502    0  0.52567936233E+02 -0.77301912282E+02  0.19184943648E+03  0.45337090758E+03  0.40000000000E+03 0.  1.
   -9000007    1    1    2    0  501 -0.52567936233E+02  0.77301912282E+02  0.29623217462E+03  0.50645086123E+03  0.40000000000E+03 0.  1.
<mgrwt>
<rscale>  2 0.41077850E+03</rscale>
<asrwt>0</asrwt>
<pdfrwt beam="1">  1        1 0.11137718E+00 0.41077850E+03</pdfrwt>
<pdfrwt beam="2">  1       -1 0.36287705E-01 0.41077850E+03</pdfrwt>
<totfact> 0.19557196E+02</totfact>
</mgrwt>
</event>
<event>
 4    1  0.2533915E-002  0.4088097E+03  0.7818608E-02  0.1040771E+00
          2   -1    0    0  502    0  0.00000000000E+00  0.00000000000E+00  0.17762753091E+03  0.17762753091E+03  0.00000000000E+00 0. -1.
         -2   -1    0    0    0  501 -0.00000000000E+00 -0.00000000000E+00 -0.97203676111E+03  0.97203676111E+03  0.00000000000E+00 0.  1.
    9000007    1    1    2  502    0  0.25523174009E+02  0.80460614567E+02 -0.29428239656E+03  0.50371368041E+03  0.40000000000E+03 0. -1.
   -9000007    1    1    2    0  501 -0.25523174009E+02 -0.80460614567E+02 -0.50012683364E+03  0.64595061160E+03  0.40000000000E+03 0.  1.
<mgrwt>
<rscale>  2 0.40880967E+03</rscale>
<asrwt>0</asrwt>
<pdfrwt beam="1">  1        2 0.27327313E-01 0.40880967E+03</pdfrwt>
<pdfrwt beam="2">  1       -2 0.14954412E+00 0.40880967E+03</pdfrwt>
<totfact> 0.61745847E+01</totfact>
</mgrwt>
</event>
<event>
 4    1  0.2533915E-002  0.5706352E+03  0.7818608E-02  0.9968274E-01
         -2   -1    0    0    0  501 -0.00000000000E+00  0.00000000000E+00  0.52753458659E+03  0.52753458659E+03  0.00000000000E+00 0.  1.
          2   -1    0    0  502    0  0.00000000000E+00 -0.00000000000E+00 -0.69565787686E+03  0.69565787686E+03  0.00000000000E+00 0. -1.
    9000007    1    1    2  502    0 -0.26219883295E+03  0.31124960819E+03 -0.28937950248E+03  0.63981641355E+03  0.40000000000E+03 0. -1.
   -9000007    1    1    2    0  501  0.26219883295E+03 -0.31124960819E+03  0.12125621221E+03  0.58337604990E+03  0.40000000000E+03 0.  1.
<mgrwt>
<rscale>  2 0.57063521E+03</rscale>
<asrwt>0</asrwt>
<pdfrwt beam="1">  1        2 0.10702429E+00 0.57063521E+03</pdfrwt>
<pdfrwt beam="2">  1       -2 0.81159167E-01 0.57063521E+03</pdfrwt>
<totfact> 0.56807059E+01</totfact>
</mgrwt>
</event>
<event>
 4    1  0.2533915E-002  0.4941927E+03  0.7818608E-02  0.1015306E+00
         -1   -1    0    0    0  501 -0.00000000000E+00  0.00000000000E+00  0.20724166260E+04  0.20724166260E+04  0.00000000000E+00 0.  1.
          1   -1    0    0  502    0  0.00000000000E+00 -0.00000000000E+00 -0.11817475563E+03  0.11817475563E+03  0.00000000000E+00 0. -1.
    9000007    1    1    2  502    0 -0.26287764043E+03 -0.12297041476E+03  0.10348758051E+04  0.11468192136E+04  0.40000000000E+03 0. -1.
   -9000007    1    1    2    0  501  0.26287764043E+03  0.12297041476E+03  0.91936606529E+03  0.10437721680E+04  0.40000000000E+03 0.  1.
<mgrwt>
<rscale>  2 0.49419265E+03</rscale>
<asrwt>0</asrwt>
<pdfrwt beam="1">  1        1 0.18180733E-01 0.49419265E+03</pdfrwt>
<pdfrwt beam="2">  1       -1 0.31883330E+00 0.49419265E+03</pdfrwt>
<totfact> 0.80747781E+00</totfact>
</mgrwt>
</event>
<event>
 4    1  0.2533915E-002  0.4853887E+03  0.7818608E-02  0.1017665E+00
         -1   -1    0    0    0  501 -0.00000000000E+00  0.00000000000E+00  0.14914935651E+03  0.14914935651E+03  0.00000000000E+00 0.  1.
          1   -1    0    0  502    0  0.00000000000E+00 -0.00000000000E+00 -0.16336107011E+04  0.16336107011E+04  0.00000000000E+00 0. -1.
    9000007    1    1    2  502    0  0.18833048225E+03 -0.20033429558E+03 -0.90425120104E+03  0.10262906192E+04  0.40000000000E+03 0. -1.
   -9000007    1    1    2    0  501 -0.18833048225E+03  0.20033429558E+03 -0.58021014353E+03  0.75646943837E+03  0.40000000000E+03 0.  1.
<mgrwt>
<rscale>  2 0.48538871E+03</rscale>
<asrwt>0</asrwt>
<pdfrwt beam="1">  1        1 0.25132472E+00 0.48538871E+03</pdfrwt>
<pdfrwt beam="2">  1       -1 0.22946055E-01 0.48538871E+03</pdfrwt>
<totfact> 0.90775763E+01</totfact>
</mgrwt>
</event>
<event>
 4    1  0.2533915E-002  0.4119603E+03  0.7818608E-02  0.1039715E+00
         -2   -1    0    0    0  501 -0.00000000000E+00  0.00000000000E+00  0.23020506386E+03  0.23020506386E+03  0.00000000000E+00 0. -1.
          2   -1    0    0  502    0  0.00000000000E+00 -0.00000000000E+00 -0.91466650910E+03  0.91466650910E+03  0.00000000000E+00 0.  1.
    9000007    1    1    2  502    0 -0.73924902054E+02 -0.65164590557E+02 -0.90096629368E+02  0.42169742426E+03  0.40000000000E+03 0. -1.
   -9000007    1    1    2    0  501  0.73924902054E+02  0.65164590557E+02 -0.59436481587E+03  0.72317414870E+03  0.40000000000E+03 0.  1.
<mgrwt>
<rscale>  2 0.41196033E+03</rscale>
<asrwt>0</asrwt>
<pdfrwt beam="1">  1        2 0.14071793E+00 0.41196033E+03</pdfrwt>
<pdfrwt beam="2">  1       -2 0.35416164E-01 0.41196033E+03</pdfrwt>
<totfact> 0.22186968E+02</totfact>
</mgrwt>
</event>
<event>
 4    1  0.2533915E-002  0.8313731E+03  0.7818608E-02  0.9515684E-01
          2   -1    0    0  502    0  0.00000000000E+00  0.00000000000E+00  0.90193287509E+03  0.90193287509E+03  0.00000000000E+00 0. -1.
         -2   -1    0    0    0  501 -0.00000000000E+00 -0.00000000000E+00 -0.76785552420E+03  0.76785552420E+03  0.00000000000E+00 0.  1.
    9000007    1    1    2  502    0 -0.34977892784E+03 -0.63940273079E+03  0.29864762202E+02  0.83190928263E+03  0.40000000000E+03 0. -1.
   -9000007    1    1    2    0  501  0.34977892784E+03  0.63940273079E+03  0.10421258869E+03  0.83787911667E+03  0.40000000000E+03 0.  1.
<mgrwt>
<rscale>  2 0.83137305E+03</rscale>
<asrwt>0</asrwt>
<pdfrwt beam="1">  1        2 0.13875890E+00 0.83137305E+03</pdfrwt>
<pdfrwt beam="2">  1       -2 0.11813162E+00 0.83137305E+03</pdfrwt>
<totfact> 0.16259707E+01</totfact>
</mgrwt>
</event>
<event>
 4    1  0.2533915E-002  0.4888688E+03  0.7818608E-02  0.1016726E+00
         -2   -1    0    0    0  501 -0.00000000000E+00  0.00000000000E+00  0.11291238885E+03  0.11291238885E+03  0.00000000000E+00 0.  1.
          2   -1    0    0  502    0  0.00000000000E+00 -0.00000000000E+00 -0.40140185055E+04  0.40140185055E+04  0.00000000000E+00 0. -1.
    9000007    1    1    2  502    0  0.22829565185E+03 -0.16393216628E+03 -0.53186552284E+03  0.72240819084E+03  0.40000000000E+03 0.  1.
   -9000007    1    1    2    0  501 -0.22829565185E+03  0.16393216628E+03 -0.33692405939E+04  0.34045227036E+04  0.40000000000E+03 0. -1.
<mgrwt>
<rscale>  2 0.48886876E+03</rscale>
<asrwt>0</asrwt>
<pdfrwt beam="1">  1        2 0.61754120E+00 0.48886876E+03</pdfrwt>
<pdfrwt beam="2">  1       -2 0.17371140E-01 0.48886876E+03</pdfrwt>
<totfact> 0.10698446E+01</totfact>
</mgrwt>
</event>
<event>
 4    1  0.2533915E-002  0.4743644E+03  0.7818608E-02  0.1020696E+00
         -1   -1    0    0    0  501 -0.00000000000E+00  0.00000000000E+00  0.23234190383E+03  0.23234190383E+03  0.00000000000E+00 0. -1.
          1   -1    0    0  502    0  0.00000000000E+00 -0.00000000000E+00 -0.13179279978E+04  0.13179279978E+04  0.00000000000E+00 0.  1.
    9000007    1    1    2  502    0 -0.14262137573E+03 -0.21137805177E+03 -0.14366284037E+03  0.49564155323E+03  0.40000000000E+03 0. -1.
   -9000007    1    1    2    0  501  0.14262137573E+03  0.21137805177E+03 -0.94192325365E+03  0.10546283484E+04  0.40000000000E+03 0.  1.
<mgrwt>
<rscale>  2 0.47436435E+03</rscale>
<asrwt>0</asrwt>
<pdfrwt beam="1">  1        1 0.20275815E+00 0.47436435E+03</pdfrwt>
<pdfrwt beam="2">  1       -1 0.35744909E-01 0.47436435E+03</pdfrwt>
<totfact> 0.69506852E+01</totfact>
</mgrwt>
</event>
<event>
 4    1  0.2533915E-002  0.4015317E+03  0.7818608E-02  0.1043251E+00
          2   -1    0    0  502    0  0.00000000000E+00  0.00000000000E+00  0.46954266982E+03  0.46954266982E+03  0.00000000000E+00 0.  1.
         -2   -1    0    0    0  501 -0.00000000000E+00 -0.00000000000E+00 -0.34578215802E+03  0.34578215802E+03  0.00000000000E+00 0. -1.
    9000007    1    1    2  502    0  0.30690814369E+02  0.16905529468E+02  0.95916214829E+02  0.41282883049E+03  0.40000000000E+03 0.  1.
   -9000007    1    1    2    0  501 -0.30690814369E+02 -0.16905529468E+02  0.27844296971E+02  0.40249599736E+03  0.40000000000E+03 0. -1.
<mgrwt>
<rscale>  2 0.40153172E+03</rscale>
<asrwt>0</asrwt>
<pdfrwt beam="1">  1        2 0.72237334E-01 0.40153172E+03</pdfrwt>
<pdfrwt beam="2">  1       -2 0.53197255E-01 0.40153172E+03</pdfrwt>
<totfact> 0.22629853E+02</totfact>
</mgrwt>
</event>
<event>
 4    1  0.2533915E-002  0.8557473E+03  0.7818608E-02  0.9482655E-01
         -1   -1    0    0    0  501 -0.00000000000E+00  0.00000000000E+00  0.80657613822E+03  0.80657613822E+03  0.00000000000E+00 0.  1.
          1   -1    0    0  502    0  0.00000000000E+00 -0.00000000000E+00 -0.12431503817E+04  0.12431503817E+04  0.00000000000E+00 0. -1.
    9000007    1    1    2  502    0  0.33589268375E+03 -0.67784924468E+03  0.31391705333E+03  0.91150831586E+03  0.40000000000E+03 0. -1.
   -9000007    1    1    2    0  501 -0.33589268375E+03  0.67784924468E+03 -0.75049129683E+03  0.11382182041E+04  0.40000000000E+03 0. -1.
<mgrwt>
<rscale>  2 0.85574733E+03</rscale>
<asrwt>0</asrwt>
<pdfrwt beam="1">  1        1 0.19125390E+00 0.85574733E+03</pdfrwt>
<pdfrwt beam="2">  1       -1 0.12408864E+00 0.85574733E+03</pdfrwt>
<totfact> 0.57886703E+00</totfact>
</mgrwt>
</event>
<event>
 4    1  0.2533915E-002  0.4033611E+03  0.7818608E-02  0.1042622E+00
         -2   -1    0    0    0  501 -0.00000000000E+00  0.00000000000E+00  0.32611571067E+03  0.32611571067E+03  0.00000000000E+00 0. -1.
          2   -1    0    0  502    0  0.00000000000E+00 -0.00000000000E+00 -0.24005364233E+04  0.24005364233E+04  0.00000000000E+00 0.  1.
    9000007    1    1    2  502    0 -0.35729695414E+02  0.37730221355E+02  0.17620353803E+03  0.44016799924E+03  0.40000000000E+03 0. -1.
   -9000007    1    1    2    0  501  0.35729695414E+02 -0.37730221355E+02 -0.22506242506E+04  0.22864841347E+04  0.40000000000E+03 0.  1.
<mgrwt>
<rscale>  2 0.40336110E+03</rscale>
<asrwt>0</asrwt>
<pdfrwt beam="1">  1        2 0.36931330E+00 0.40336110E+03</pdfrwt>
<pdfrwt beam="2">  1       -2 0.50171647E-01 0.40336110E+03</pdfrwt>
<totfact> 0.16774138E+01</totfact>
</mgrwt>
</event>
<event>
 4    1  0.2533915E-002  0.4320309E+03  0.7818608E-02  0.1033220E+00
         -2   -1    0    0    0  501 -0.00000000000E+00  0.00000000000E+00  0.13369052114E+03  0.13369052114E+03  0.00000000000E+00 0.  1.
          2   -1    0    0  502    0  0.00000000000E+00 -0.00000000000E+00 -0.13996485826E+04  0.13996485826E+04  0.00000000000E+00 0. -1.
    9000007    1    1    2  502    0  0.13368516884E+03  0.93696016663E+02 -0.67136496385E+03  0.79836181183E+03  0.40000000000E+03 0.  1.
   -9000007    1    1    2    0  501 -0.13368516884E+03 -0.93696016663E+02 -0.59459309762E+03  0.73497729193E+03  0.40000000000E+03 0.  1.
<mgrwt>
<rscale>  2 0.43203086E+03</rscale>
<asrwt>0</asrwt>
<pdfrwt beam="1">  1        2 0.21533055E+00 0.43203086E+03</pdfrwt>
<pdfrwt beam="2">  1       -2 0.20567773E-01 0.43203086E+03</pdfrwt>
<totfact> 0.30534947E+02</totfact>
</mgrwt>
</event>
<event>
 4    1  0.2533915E-002  0.4802454E+03  0.7818608E-02  0.1019068E+00
         -1   -1    0    0    0  501 -0.00000000000E+00  0.00000000000E+00  0.42544566795E+03  0.42544566795E+03  0.00000000000E+00 0.  1.
          1   -1    0    0  502    0  0.00000000000E+00 -0.00000000000E+00 -0.54803683810E+03  0.54803683810E+03  0.00000000000E+00 0. -1.
    9000007    1    1    2  502    0  0.26031573939E+03  0.53584673286E+02 -0.10650013738E+02  0.48036342927E+03  0.40000000000E+03 0. -1.
   -9000007    1    1    2    0  501 -0.26031573939E+03 -0.53584673286E+02 -0.11194115642E+03  0.49311907678E+03  0.40000000000E+03 0.  1.
<mgrwt>
<rscale>  2 0.48024536E+03</rscale>
<asrwt>0</asrwt>
<pdfrwt beam="1">  1        1 0.84313360E-01 0.48024536E+03</pdfrwt>
<pdfrwt beam="2">  1       -1 0.65453180E-01 0.48024536E+03</pdfrwt>
<totfact> 0.96140662E+01</totfact>
</mgrwt>
</event>
<event>
 4    1  0.2533915E-002  0.4219649E+03  0.7818608E-02  0.1036429E+00
         -1   -1    0    0    0  501 -0.00000000000E+00  0.00000000000E+00  0.12407436646E+03  0.12407436646E+03  0.00000000000E+00 0. -1.
          1   -1    0    0  502    0  0.00000000000E+00 -0.00000000000E+00 -0.16169578977E+04  0.16169578977E+04  0.00000000000E+00 0.  1.
    9000007    1    1    2  502    0 -0.18786406645E+02  0.13304678910E+03 -0.10384124322E+04  0.11208723194E+04  0.40000000000E+03 0.  1.
   -9000007    1    1    2    0  501  0.18786406645E+02 -0.13304678910E+03 -0.45447109904E+03  0.62015994471E+03  0.40000000000E+03 0. -1.
<mgrwt>
<rscale>  2 0.42196490E+03</rscale>
<asrwt>0</asrwt>
<pdfrwt beam="1">  1        1 0.24876273E+00 0.42196490E+03</pdfrwt>
<pdfrwt beam="2">  1       -1 0.19088366E-01 0.42196490E+03</pdfrwt>
<totfact> 0.12759761E+02</totfact>
</mgrwt>
</event>
<event>
 4    1  0.2533915E-002  0.4856582E+03  0.7818608E-02  0.1017592E+00
          2   -1    0    0  502    0  0.00000000000E+00  0.00000000000E+00  0.12158036879E+04  0.12158036879E+04  0.00000000000E+00 0. -1.
         -2   -1    0    0    0  501 -0.00000000000E+00 -0.00000000000E+00 -0.19406333004E+03  0.19406333004E+03  0.00000000000E+00 0.  1.
    9000007    1    1    2  502    0 -0.14797225175E+02 -0.27503615318E+03  0.52377486966E+03  0.71428562741E+03  0.40000000000E+03 0.  1.
   -9000007    1    1    2    0  501  0.14797225175E+02  0.27503615318E+03  0.49796548821E+03  0.69558139055E+03  0.40000000000E+03 0. -1.
<mgrwt>
<rscale>  2 0.48565815E+03</rscale>
<asrwt>0</asrwt>
<pdfrwt beam="1">  1        2 0.18704672E+00 0.48565815E+03</pdfrwt>
<pdfrwt beam="2">  1       -2 0.29855897E-01 0.48565815E+03</pdfrwt>
<totfact> 0.19819548E+02</totfact>
</mgrwt>
</event>
<event>
 4    1  0.2533915E-002  0.6139871E+03  0.7818608E-02  0.9876805E-01
          2   -1    0    0  502    0  0.00000000000E+00  0.00000000000E+00  0.38229697253E+03  0.38229697253E+03  0.00000000000E+00 0.  1.
         -2   -1    0    0    0  501 -0.00000000000E+00 -0.00000000000E+00 -0.13298271100E+04  0.13298271100E+04  0.00000000000E+00 0. -1.
    9000007    1    1    2  502    0 -0.46342736403E+03 -0.47066096292E+02 -0.90899559038E+03  0.10969289505E+04  0.40000000000E+03 0. -1.
   -9000007    1    1    2    0  501  0.46342736403E+03  0.47066096292E+02 -0.38534547110E+02  0.61519513203E+03  0.40000000000E+03 0.  1.
<mgrwt>
<rscale>  2 0.61398708E+03</rscale>
<asrwt>0</asrwt>
<pdfrwt beam="1">  1        2 0.58814920E-01 0.61398708E+03</pdfrwt>
<pdfrwt beam="2">  1       -2 0.20458878E+00 0.61398708E+03</pdfrwt>
<totfact> 0.10748624E+01</totfact>
</mgrwt>
</event>
<event>
 4    1  0.2533915E-002  0.4491459E+03  0.7818608E-02  0.1027977E+00
          2   -1    0    0  502    0  0.00000000000E+00  0.00000000000E+00  0.13695448811E+04  0.13695448811E+04  0.00000000000E+00 0. -1.
         -2   -1    0    0    0  501 -0.00000000000E+00 -0.00000000000E+00 -0.16446122172E+03  0.16446122172E+03  0.00000000000E+00 0.  1.
    9000007    1    1    2  502    0  0.13573170898E+03  0.15267270186E+03  0.85031660184E+03  0.96164981884E+03  0.40000000000E+03 0. -1.
   -9000007    1    1    2    0  501 -0.13573170898E+03 -0.15267270186E+03  0.35476705757E+03  0.57235628401E+03  0.40000000000E+03 0.  1.
<mgrwt>
<rscale>  2 0.44914591E+03</rscale>
<asrwt>0</asrwt>
<pdfrwt beam="1">  1        2 0.21069921E+00 0.44914591E+03</pdfrwt>
<pdfrwt beam="2">  1       -2 0.25301727E-01 0.44914591E+03</pdfrwt>
<totfact> 0.21975949E+02</totfact>
</mgrwt>
</event>
<event>
 4    1  0.2533915E-002  0.4555617E+03  0.7818608E-02  0.1026076E+00
          1   -1    0    0  502    0  0.00000000000E+00  0.00000000000E+00  0.37732013575E+03  0.37732013575E+03  0.00000000000E+00 0.  1.
         -1   -1    0    0    0  501 -0.00000000000E+00 -0.00000000000E+00 -0.56159446900E+03  0.56159446900E+03  0.00000000000E+00 0. -1.
    9000007    1    1    2  502    0  0.13798406513E+03  0.16881005875E+03 -0.24762735582E+02  0.45623418464E+03  0.40000000000E+03 0. -1.
   -9000007    1    1    2    0  501 -0.13798406513E+03 -0.16881005875E+03 -0.15951159766E+03  0.48268042011E+03  0.40000000000E+03 0. -1.
<mgrwt>
<rscale>  2 0.45556167E+03</rscale>
<asrwt>0</asrwt>
<pdfrwt beam="1">  1        1 0.58049252E-01 0.45556167E+03</pdfrwt>
<pdfrwt beam="2">  1       -1 0.86399149E-01 0.45556167E+03</pdfrwt>
<totfact> 0.89384807E+01</totfact>
</mgrwt>
</event>
<event>
 4    1  0.2533915E-002  0.7294854E+03  0.7818608E-02  0.9668096E-01
          1   -1    0    0  502    0  0.00000000000E+00  0.00000000000E+00  0.78973422276E+03  0.78973422276E+03  0.00000000000E+00 0. -1.
         -1   -1    0    0    0  501 -0.00000000000E+00 -0.00000000000E+00 -0.93340258024E+03  0.93340258024E+03  0.00000000000E+00 0.  1.
    9000007    1    1    2  502    0  0.55567940861E+03 -0.25173256631E+03 -0.52617552153E+03  0.89944959256E+03  0.40000000000E+03 0.  1.
   -9000007    1    1    2    0  501 -0.55567940861E+03  0.25173256631E+03  0.38250716405E+03  0.82368721044E+03  0.40000000000E+03 0. -1.
<mgrwt>
<rscale>  2 0.72948536E+03</rscale>
<asrwt>0</asrwt>
<pdfrwt beam="1">  1        1 0.12149757E+00 0.72948536E+03</pdfrwt>
<pdfrwt beam="2">  1       -1 0.14360040E+00 0.72948536E+03</pdfrwt>
<totfact> 0.91549362E+00</totfact>
</mgrwt>
</event>
<event>
 4    1  0.2533915E-002  0.4441909E+03  0.7818608E-02  0.1029469E+00
          1   -1    0    0  502    0  0.00000000000E+00  0.00000000000E+00  0.86788933360E+03  0.86788933360E+03  0.00000000000E+00 0. -1.
         -1   -1    0    0    0  501 -0.00000000000E+00 -0.00000000000E+00 -0.34016449398E+03  0.34016449398E+03  0.00000000000E+00 0.  1.
    9000007    1    1    2  502    0  0.13329373269E+02  0.19268588853E+03 -0.84005569285E+02  0.45206466296E+03  0.40000000000E+03 0.  1.
   -9000007    1    1    2    0  501 -0.13329373269E+02 -0.19268588853E+03  0.61173040891E+03  0.75598916461E+03  0.40000000000E+03 0. -1.
<mgrwt>
<rscale>  2 0.44419086E+03</rscale>
<asrwt>0</asrwt>
<pdfrwt beam="1">  1        1 0.13352144E+00 0.44419086E+03</pdfrwt>
<pdfrwt beam="2">  1       -1 0.52332999E-01 0.44419086E+03</pdfrwt>
<totfact> 0.75121764E+01</totfact>
</mgrwt>
</event>
<event>
 4    1  0.2533915E-002  0.6475075E+03  0.7818608E-02  0.9811468E-01
          1   -1    0    0  502    0  0.00000000000E+00  0.00000000000E+00  0.36516106904E+03  0.36516106904E+03  0.00000000000E+00 0. -1.
         -1   -1    0    0    0  501 -0.00000000000E+00 -0.00000000000E+00 -0.20192216124E+04  0.20192216124E+04  0.00000000000E+00 0.  1.
    9000007    1    1    2  502    0  0.41360529050E+03  0.29697911139E+03 -0.16100570874E+04  0.17353817314E+04  0.40000000000E+03 0.  1.
   -9000007    1    1    2    0  501 -0.41360529050E+03 -0.29697911139E+03 -0.44003455866E+02  0.64900094997E+03  0.40000000000E+03 0. -1.
<mgrwt>
<rscale>  2 0.64750747E+03</rscale>
<asrwt>0</asrwt>
<pdfrwt beam="1">  1        1 0.56178627E-01 0.64750747E+03</pdfrwt>
<pdfrwt beam="2">  1       -1 0.31064947E+00 0.64750747E+03</pdfrwt>
<totfact> 0.20448851E+00</totfact>
</mgrwt>
</event>
<event>
 4    1  0.2533915E-002  0.4068017E+03  0.7818608E-02  0.1041450E+00
          2   -1    0    0  502    0  0.00000000000E+00  0.00000000000E+00  0.57935182167E+03  0.57935182167E+03  0.00000000000E+00 0.  1.
         -2   -1    0    0    0  501 -0.00000000000E+00 -0.00000000000E+00 -0.29301361322E+03  0.29301361322E+03  0.00000000000E+00 0. -1.
    9000007    1    1    2  502    0 -0.65970889152E+02  0.33696496987E+02  0.21234989671E+03  0.45889006391E+03  0.40000000000E+03 0.  1.
   -9000007    1    1    2    0  501  0.65970889152E+02 -0.33696496987E+02  0.73988311738E+02  0.41347537097E+03  0.40000000000E+03 0. -1.
<mgrwt>
<rscale>  2 0.40680169E+03</rscale>
<asrwt>0</asrwt>
<pdfrwt beam="1">  1        2 0.89131049E-01 0.40680169E+03</pdfrwt>
<pdfrwt beam="2">  1       -2 0.45079018E-01 0.40680169E+03</pdfrwt>
<totfact> 0.24775100E+02</totfact>
</mgrwt>
</event>
<event>
 4    1  0.2533915E-002  0.9706878E+03  0.7818608E-02  0.9341291E-01
         -2   -1    0    0    0  501 -0.00000000000E+00  0.00000000000E+00  0.88639965553E+03  0.88639965553E+03  0.00000000000E+00 0. -1.
          2   -1    0    0  502    0  0.00000000000E+00 -0.00000000000E+00 -0.10630201564E+04  0.10630201564E+04  0.00000000000E+00 0.  1.
    9000007    1    1    2  502    0 -0.63393907574E+03  0.61673007876E+03 -0.93426253743E+02  0.97517342390E+03  0.40000000000E+03 0. -1.
   -9000007    1    1    2    0  501  0.63393907574E+03 -0.61673007876E+03 -0.83194247098E+02  0.97424638801E+03  0.40000000000E+03 0.  1.
<mgrwt>
<rscale>  2 0.97068777E+03</rscale>
<asrwt>0</asrwt>
<pdfrwt beam="1">  1        2 0.16354156E+00 0.97068777E+03</pdfrwt>
<pdfrwt beam="2">  1       -2 0.13636918E+00 0.97068777E+03</pdfrwt>
<totfact> 0.87820013E+00</totfact>
</mgrwt>
</event>
<event>
 4    1  0.2533915E-002  0.4013112E+03  0.7818608E-02  0.1043327E+00
         -1   -1    0    0    0  501 -0.00000000000E+00  0.00000000000E+00  0.70266549532E+02  0.70266549532E+02  0.00000000000E+00 0.  1.
          1   -1    0    0  502    0  0.00000000000E+00 -0.00000000000E+00 -0.25435994428E+04  0.25435994428E+04  0.00000000000E+00 0. -1.
    9000007    1    1    2  502    0 -0.22498664044E+02  0.23334179101E+02 -0.16477091708E+04  0.16958762294E+04  0.40000000000E+03 0. -1.
   -9000007    1    1    2    0  501  0.22498664044E+02 -0.23334179101E+02 -0.82562372243E+03  0.91798976292E+03  0.40000000000E+03 0.  1.
<mgrwt>
<rscale>  2 0.40131119E+03</rscale>
<asrwt>0</asrwt>
<pdfrwt beam="1">  1        1 0.39132299E+00 0.40131119E+03</pdfrwt>
<pdfrwt beam="2">  1       -1 0.10810238E-01 0.40131119E+03</pdfrwt>
<totfact> 0.77575984E+01</totfact>
</mgrwt>
</event>
<event>
 4    1  0.2533915E-002  0.4494457E+03  0.7818608E-02  0.1027887E+00
          1   -1    0    0  502    0  0.00000000000E+00  0.00000000000E+00  0.11592094180E+04  0.11592094180E+04  0.00000000000E+00 0.  1.
         -1   -1    0    0    0  501 -0.00000000000E+00 -0.00000000000E+00 -0.17668551334E+03  0.17668551334E+03  0.00000000000E+00 0. -1.
    9000007    1    1    2  502    0 -0.61294369272E+02 -0.19556175582E+03  0.56955649638E+03  0.72553153109E+03  0.40000000000E+03 0.  1.
   -9000007    1    1    2    0  501  0.61294369272E+02  0.19556175582E+03  0.41296740825E+03  0.61036340022E+03  0.40000000000E+03 0. -1.
<mgrwt>
<rscale>  2 0.44944566E+03</rscale>
<asrwt>0</asrwt>
<pdfrwt beam="1">  1        1 0.17833991E+00 0.44944566E+03</pdfrwt>
<pdfrwt beam="2">  1       -1 0.27182387E-01 0.44944566E+03</pdfrwt>
<totfact> 0.14531957E+02</totfact>
</mgrwt>
</event>
<event>
 4    1  0.2533915E-002  0.4215250E+03  0.7818608E-02  0.1036571E+00
          1   -1    0    0  502    0  0.00000000000E+00  0.00000000000E+00  0.87282776990E+03  0.87282776990E+03  0.00000000000E+00 0. -1.
         -1   -1    0    0    0  501 -0.00000000000E+00 -0.00000000000E+00 -0.21771922935E+03  0.21771922935E+03  0.00000000000E+00 0.  1.
    9000007    1    1    2  502    0 -0.13157617805E+03 -0.19261786237E+02  0.46655000662E+03  0.62877039984E+03  0.40000000000E+03 0. -1.
   -9000007    1    1    2    0  501  0.13157617805E+03  0.19261786237E+02  0.18855853393E+03  0.46177659940E+03  0.40000000000E+03 0.  1.
<mgrwt>
<rscale>  2 0.42152498E+03</rscale>
<asrwt>0</asrwt>
<pdfrwt beam="1">  1        1 0.13428119E+00 0.42152498E+03</pdfrwt>
<pdfrwt beam="2">  1       -1 0.33495267E-01 0.42152498E+03</pdfrwt>
<totfact> 0.16785868E+02</totfact>
</mgrwt>
</event>
<event>
 4    1  0.2533915E-002  0.5396462E+03  0.7818608E-02  0.1003919E+00
         -1   -1    0    0    0  501 -0.00000000000E+00  0.00000000000E+00  0.33146940610E+03  0.33146940610E+03  0.00000000000E+00 0. -1.
          1   -1    0    0  502    0  0.00000000000E+00 -0.00000000000E+00 -0.90618862492E+03  0.90618862492E+03  0.00000000000E+00 0.  1.
    9000007    1    1    2  502    0  0.32925387089E+03  0.15102934150E+03 -0.17931862215E+03  0.56865907338E+03  0.40000000000E+03 0. -1.
   -9000007    1    1    2    0  501 -0.32925387089E+03 -0.15102934150E+03 -0.39540059667E+03  0.66899895765E+03  0.40000000000E+03 0.  1.
<mgrwt>
<rscale>  2 0.53964616E+03</rscale>
<asrwt>0</asrwt>
<pdfrwt beam="1">  1        1 0.13941363E+00 0.53964616E+03</pdfrwt>
<pdfrwt beam="2">  1       -1 0.50995293E-01 0.53964616E+03</pdfrwt>
<totfact> 0.72539194E+01</totfact>
</mgrwt>
</event>
<event>
 4    1  0.2533915E-002  0.4791641E+03  0.7818608E-02  0.1019365E+00
         -1   -1    0    0    0  501 -0.00000000000E+00  0.00000000000E+00  0.24418121728E+03  0.24418121728E+03  0.00000000000E+00 0.  1.
          1   -1    0    0  502    0  0.00000000000E+00 -0.00000000000E+00 -0.13842547714E+04  0.13842547714E+04  0.00000000000E+00 0. -1.
    9000007    1    1    2  502    0  0.78180215061E+02 -0.25196449640E+03 -0.10311554955E+04  0.11370487718E+04  0.40000000000E+03 0. -1.
   -9000007    1    1    2    0  501 -0.78180215061E+02  0.25196449640E+03 -0.10891805864E+03  0.49138721694E+03  0.40000000000E+03 0.  1.
<mgrwt>
<rscale>  2 0.47916412E+03</rscale>
<asrwt>0</asrwt>
<pdfrwt beam="1">  1        1 0.21296227E+00 0.47916412E+03</pdfrwt>
<pdfrwt beam="2">  1       -1 0.37566341E-01 0.47916412E+03</pdfrwt>
<totfact> 0.57213202E+01</totfact>
</mgrwt>
</event>
<event>
 4    1  0.2533915E-002  0.4028145E+03  0.7818608E-02  0.1042809E+00
         -4   -1    0    0    0  501 -0.00000000000E+00  0.00000000000E+00  0.67770888831E+03  0.67770888831E+03  0.00000000000E+00 0. -1.
          4   -1    0    0  502    0  0.00000000000E+00 -0.00000000000E+00 -0.45887983349E+03  0.45887983349E+03  0.00000000000E+00 0.  1.
    9000007    1    1    2  502    0  0.32305371091E+02 -0.34869114585E+02 -0.28359025499E+03  0.49262858715E+03  0.40000000000E+03 0.  1.
   -9000007    1    1    2    0  501 -0.32305371091E+02  0.34869114585E+02  0.50241930980E+03  0.64396013465E+03  0.40000000000E+03 0. -1.
<mgrwt>
<rscale>  2 0.40281446E+03</rscale>
<asrwt>0</asrwt>
<pdfrwt beam="1">  1        4 0.70596898E-01 0.40281446E+03</pdfrwt>
<pdfrwt beam="2">  1       -4 0.10426291E+00 0.40281446E+03</pdfrwt>
<totfact> 0.26563465E+00</totfact>
</mgrwt>
</event>
<event>
 4    1  0.2533915E-002  0.5254643E+03  0.7818608E-02  0.1007338E+00
          1   -1    0    0  502    0  0.00000000000E+00  0.00000000000E+00  0.14682624583E+04  0.14682624583E+04  0.00000000000E+00 0. -1.
         -1   -1    0    0    0  501 -0.00000000000E+00 -0.00000000000E+00 -0.19947656870E+03  0.19947656870E+03  0.00000000000E+00 0.  1.
    9000007    1    1    2  502    0  0.30390399551E+03 -0.15412693679E+03  0.43485180392E+03  0.68206219842E+03  0.40000000000E+03 0.  1.
   -9000007    1    1    2    0  501 -0.30390399551E+03  0.15412693679E+03  0.83393408567E+03  0.98567682857E+03  0.40000000000E+03 0. -1.
<mgrwt>
<rscale>  2 0.52546432E+03</rscale>
<asrwt>0</asrwt>
<pdfrwt beam="1">  1        1 0.22588653E+00 0.52546432E+03</pdfrwt>
<pdfrwt beam="2">  1       -1 0.30688704E-01 0.52546432E+03</pdfrwt>
<totfact> 0.71045843E+01</totfact>
</mgrwt>
</event>
<event>
 4    1  0.2533915E-002  0.5599550E+03  0.7818608E-02  0.9992156E-01
          1   -1    0    0  502    0  0.00000000000E+00  0.00000000000E+00  0.75809221969E+03  0.75809221969E+03  0.00000000000E+00 0.  1.
         -1   -1    0    0    0  501 -0.00000000000E+00 -0.00000000000E+00 -0.64188233850E+03  0.64188233850E+03  0.00000000000E+00 0. -1.
    9000007    1    1    2  502    0 -0.85357848332E+02 -0.38244429752E+03  0.47554608474E+03  0.73463847006E+03  0.40000000000E+03 0.  1.
   -9000007    1    1    2    0  501  0.85357848332E+02  0.38244429752E+03 -0.35933620356E+03  0.66533608813E+03  0.40000000000E+03 0. -1.
<mgrwt>
<rscale>  2 0.55995500E+03</rscale>
<asrwt>0</asrwt>
<pdfrwt beam="1">  1        1 0.11662957E+00 0.55995500E+03</pdfrwt>
<pdfrwt beam="2">  1       -1 0.98751129E-01 0.55995500E+03</pdfrwt>
<totfact> 0.24836666E+01</totfact>
</mgrwt>
</event>
<event>
 4    1  0.2533915E-002  0.4596565E+03  0.7818608E-02  0.1024881E+00
         -2   -1    0    0    0  501 -0.00000000000E+00  0.00000000000E+00  0.33497094223E+03  0.33497094223E+03  0.00000000000E+00 0.  1.
          2   -1    0    0  502    0  0.00000000000E+00 -0.00000000000E+00 -0.63835172031E+03  0.63835172031E+03  0.00000000000E+00 0. -1.
    9000007    1    1    2  502    0 -0.11271628935E+03  0.19641565106E+03 -0.20478553771E+03  0.50321087659E+03  0.40000000000E+03 0.  1.
   -9000007    1    1    2    0  501  0.11271628935E+03 -0.19641565106E+03 -0.98595240363E+02  0.47011178595E+03  0.40000000000E+03 0.  1.
<mgrwt>
<rscale>  2 0.45965647E+03</rscale>
<asrwt>0</asrwt>
<pdfrwt beam="1">  1        2 0.98207957E-01 0.45965647E+03</pdfrwt>
<pdfrwt beam="2">  1       -2 0.51533991E-01 0.45965647E+03</pdfrwt>
<totfact> 0.16817192E+02</totfact>
</mgrwt>
</event>
<event>
 4    1  0.2533915E-002  0.4340734E+03  0.7818608E-02  0.1032581E+00
          2   -1    0    0  502    0  0.00000000000E+00  0.00000000000E+00  0.28304597255E+04  0.28304597255E+04  0.00000000000E+00 0.  1.
         -2   -1    0    0    0  501 -0.00000000000E+00 -0.00000000000E+00 -0.90415177759E+02  0.90415177759E+02  0.00000000000E+00 0. -1.
    9000007    1    1    2  502    0 -0.26884470939E+02 -0.16642403543E+03  0.61999795618E+03  0.75684688016E+03  0.40000000000E+03 0. -1.
   -9000007    1    1    2    0  501  0.26884470939E+02  0.16642403543E+03  0.21200465915E+04  0.21640280231E+04  0.40000000000E+03 0.  1.
<mgrwt>
<rscale>  2 0.43407342E+03</rscale>
<asrwt>0</asrwt>
<pdfrwt beam="1">  1        2 0.43545528E+00 0.43407342E+03</pdfrwt>
<pdfrwt beam="2">  1       -2 0.13910029E-01 0.43407342E+03</pdfrwt>
<totfact> 0.97444959E+01</totfact>
</mgrwt>
</event>
<event>
 4    1  0.2533915E-002  0.4301251E+03  0.7818608E-02  0.1033820E+00
          2   -1    0    0  502    0  0.00000000000E+00  0.00000000000E+00  0.61425370743E+03  0.61425370743E+03  0.00000000000E+00 0. -1.
         -2   -1    0    0    0  501 -0.00000000000E+00 -0.00000000000E+00 -0.34885593855E+03  0.34885593855E+03  0.00000000000E+00 0.  1.
    9000007    1    1    2  502    0  0.14186033057E+03 -0.69880161390E+02  0.31070008137E+03  0.53060543807E+03  0.40000000000E+03 0. -1.
   -9000007    1    1    2    0  501 -0.14186033057E+03  0.69880161390E+02 -0.45302312482E+02  0.43250420791E+03  0.40000000000E+03 0. -1.
<mgrwt>
<rscale>  2 0.43012509E+03</rscale>
<asrwt>0</asrwt>
<pdfrwt beam="1">  1        2 0.94500570E-01 0.43012509E+03</pdfrwt>
<pdfrwt beam="2">  1       -2 0.53670145E-01 0.43012509E+03</pdfrwt>
<totfact> 0.16250112E+02</totfact>
</mgrwt>
</event>
<event>
 4    1  0.2533915E-002  0.4124967E+03  0.7818608E-02  0.1039536E+00
         -2   -1    0    0    0  501 -0.00000000000E+00  0.00000000000E+00  0.44553645103E+03  0.44553645103E+03  0.00000000000E+00 0.  1.
          2   -1    0    0  502    0  0.00000000000E+00 -0.00000000000E+00 -0.43040961105E+03  0.43040961105E+03  0.00000000000E+00 0. -1.
    9000007    1    1    2  502    0  0.68230062268E+02 -0.74149855233E+02 -0.13946064127E+03  0.43543405114E+03  0.40000000000E+03 0. -1.
   -9000007    1    1    2    0  501 -0.68230062268E+02  0.74149855233E+02  0.15458748124E+03  0.44051201094E+03  0.40000000000E+03 0.  1.
<mgrwt>
<rscale>  2 0.41249672E+03</rscale>
<asrwt>0</asrwt>
<pdfrwt beam="1">  1        2 0.66216863E-01 0.41249672E+03</pdfrwt>
<pdfrwt beam="2">  1       -2 0.68544070E-01 0.41249672E+03</pdfrwt>
<totfact> 0.14656621E+02</totfact>
</mgrwt>
</event>
<event>
 4    1  0.2533915E-002  0.4622287E+03  0.7818608E-02  0.1024137E+00
          1   -1    0    0  502    0  0.00000000000E+00  0.00000000000E+00  0.10762774334E+04  0.10762774334E+04  0.00000000000E+00 0.  1.
         -1   -1    0    0    0  501 -0.00000000000E+00 -0.00000000000E+00 -0.20380824103E+03  0.20380824103E+03  0.00000000000E+00 0. -1.
    9000007    1    1    2  502    0 -0.16783832862E+03  0.15964242317E+03  0.33307066915E+03  0.56972930281E+03  0.40000000000E+03 0.  1.
   -9000007    1    1    2    0  501  0.16783832862E+03 -0.15964242317E+03  0.53939852320E+03  0.71035637159E+03  0.40000000000E+03 0.  1.
<mgrwt>
<rscale>  2 0.46222874E+03</rscale>
<asrwt>0</asrwt>
<pdfrwt beam="1">  1        1 0.16558114E+00 0.46222874E+03</pdfrwt>
<pdfrwt beam="2">  1       -1 0.31355115E-01 0.46222874E+03</pdfrwt>
<totfact> 0.13047152E+02</totfact>
</mgrwt>
</event>
<event>
 4    1  0.2533915E-002  0.4064793E+03  0.7818608E-02  0.1041559E+00
         -2   -1    0    0    0  501 -0.00000000000E+00  0.00000000000E+00  0.17338072175E+03  0.17338072175E+03  0.00000000000E+00 0. -1.
          2   -1    0    0  502    0  0.00000000000E+00 -0.00000000000E+00 -0.97089212876E+03  0.97089212876E+03  0.00000000000E+00 0.  1.
    9000007    1    1    2  502    0 -0.69879991272E+02  0.18497775816E+02 -0.32100650404E+03  0.51794841106E+03  0.40000000000E+03 0.  1.
   -9000007    1    1    2    0  501  0.69879991272E+02 -0.18497775816E+02 -0.47650490298E+03  0.62632443945E+03  0.40000000000E+03 0.  1.
<mgrwt>
<rscale>  2 0.40647925E+03</rscale>
<asrwt>0</asrwt>
<pdfrwt beam="1">  1        2 0.14936802E+00 0.40647925E+03</pdfrwt>
<pdfrwt beam="2">  1       -2 0.26673957E-01 0.40647925E+03</pdfrwt>
<totfact> 0.34458732E+02</totfact>
</mgrwt>
</event>
<event>
 4    1  0.2533915E-002  0.5593031E+03  0.7818608E-02  0.9993633E-01
         -2   -1    0    0    0  501 -0.00000000000E+00  0.00000000000E+00  0.23402934960E+03  0.23402934960E+03  0.00000000000E+00 0.  1.
          2   -1    0    0  502    0  0.00000000000E+00 -0.00000000000E+00 -0.13468130352E+04  0.13468130352E+04  0.00000000000E+00 0. -1.
    9000007    1    1    2  502    0  0.93242768866E+02  0.37963896242E+03 -0.48779661273E+03  0.74213576327E+03  0.40000000000E+03 0.  1.
   -9000007    1    1    2    0  501 -0.93242768866E+02 -0.37963896242E+03 -0.62498707284E+03  0.83870662150E+03  0.40000000000E+03 0.  1.
<mgrwt>
<rscale>  2 0.55930310E+03</rscale>
<asrwt>0</asrwt>
<pdfrwt beam="1">  1        2 0.20720200E+00 0.55930310E+03</pdfrwt>
<pdfrwt beam="2">  1       -2 0.36004516E-01 0.55930310E+03</pdfrwt>
<totfact> 0.11653391E+02</totfact>
</mgrwt>
</event>
<event>
 4    1  0.2533915E-002  0.4847882E+03  0.7818608E-02  0.1017827E+00
         -2   -1    0    0    0  501 -0.00000000000E+00  0.00000000000E+00  0.93389011137E+02  0.93389011137E+02  0.00000000000E+00 0.  1.
          2   -1    0    0  502    0  0.00000000000E+00 -0.00000000000E+00 -0.26873785087E+04  0.26873785087E+04  0.00000000000E+00 0. -1.
    9000007    1    1    2  502    0 -0.25477073658E+03 -0.10055597160E+03 -0.94646102195E+03  0.10633946105E+04  0.40000000000E+03 0.  1.
   -9000007    1    1    2    0  501  0.25477073658E+03  0.10055597160E+03 -0.16475284756E+04  0.17173729093E+04  0.40000000000E+03 0. -1.
<mgrwt>
<rscale>  2 0.48478823E+03</rscale>
<asrwt>0</asrwt>
<pdfrwt beam="1">  1        2 0.41344278E+00 0.48478823E+03</pdfrwt>
<pdfrwt beam="2">  1       -2 0.14367542E-01 0.48478823E+03</pdfrwt>
<totfact> 0.11056391E+02</totfact>
</mgrwt>
</event>
<event>
 4    1  0.2533915E-002  0.5088126E+03  0.7818608E-02  0.1011504E+00
          2   -1    0    0  502    0  0.00000000000E+00  0.00000000000E+00  0.13486858023E+04  0.13486858023E+04  0.00000000000E+00 0. -1.
         -2   -1    0    0    0  501 -0.00000000000E+00 -0.00000000000E+00 -0.22017307004E+03  0.22017307004E+03  0.00000000000E+00 0.  1.
    9000007    1    1    2  502    0  0.31037927350E+03 -0.50546712038E+02  0.84506904932E+03  0.98642382455E+03  0.40000000000E+03 0. -1.
   -9000007    1    1    2    0  501 -0.31037927350E+03  0.50546712038E+02  0.28344368299E+03  0.58243504783E+03  0.40000000000E+03 0.  1.
<mgrwt>
<rscale>  2 0.50881260E+03</rscale>
<asrwt>0</asrwt>
<pdfrwt beam="1">  1        2 0.20749012E+00 0.50881260E+03</pdfrwt>
<pdfrwt beam="2">  1       -2 0.33872781E-01 0.50881260E+03</pdfrwt>
<totfact> 0.13124175E+02</totfact>
</mgrwt>
</event>
<event>
 4    1  0.2533915E-002  0.4743035E+03  0.7818608E-02  0.1020713E+00
          1   -1    0    0  502    0  0.00000000000E+00  0.00000000000E+00  0.10276214482E+04  0.10276214482E+04  0.00000000000E+00 0.  1.
         -1   -1    0    0    0  501 -0.00000000000E+00 -0.00000000000E+00 -0.24679942871E+03  0.24679942871E+03  0.00000000000E+00 0. -1.
    9000007    1    1    2  502    0 -0.84992089577E+02 -0.24029180855E+03  0.60458961041E+03  0.76843503666E+03  0.40000000000E+03 0.  1.
   -9000007    1    1    2    0  501  0.84992089577E+02  0.24029180855E+03  0.17623240911E+03  0.50598584028E+03  0.40000000000E+03 0. -1.
<mgrwt>
<rscale>  2 0.47430350E+03</rscale>
<asrwt>0</asrwt>
<pdfrwt beam="1">  1        1 0.15809560E+00 0.47430350E+03</pdfrwt>
<pdfrwt beam="2">  1       -1 0.37969144E-01 0.47430350E+03</pdfrwt>
<totfact> 0.10112438E+02</totfact>
</mgrwt>
</event>
<event>
 4    1  0.2533915E-002  0.5519845E+03  0.7818608E-02  0.1001036E+00
          1   -1    0    0  502    0  0.00000000000E+00  0.00000000000E+00  0.93323216205E+03  0.93323216205E+03  0.00000000000E+00 0. -1.
         -1   -1    0    0    0  501 -0.00000000000E+00 -0.00000000000E+00 -0.33762220248E+03  0.33762220248E+03  0.00000000000E+00 0.  1.
    9000007    1    1    2  502    0  0.33582866331E+03 -0.17862235811E+03  0.18239930638E+03  0.58134012840E+03  0.40000000000E+03 0.  1.
   -9000007    1    1    2    0  501 -0.33582866331E+03  0.17862235811E+03  0.41321065318E+03  0.68951423613E+03  0.40000000000E+03 0. -1.
<mgrwt>
<rscale>  2 0.55198445E+03</rscale>
<asrwt>0</asrwt>
<pdfrwt beam="1">  1        1 0.14357418E+00 0.55198445E+03</pdfrwt>
<pdfrwt beam="2">  1       -1 0.51941878E-01 0.55198445E+03</pdfrwt>
<totfact> 0.66560709E+01</totfact>
</mgrwt>
</event>
<event>
 4    1  0.2533915E-002  0.4336858E+03  0.7818608E-02  0.1032702E+00
         -2   -1    0    0    0  501 -0.00000000000E+00  0.00000000000E+00  0.29281056115E+03  0.29281056115E+03  0.00000000000E+00 0.  1.
          2   -1    0    0  502    0  0.00000000000E+00 -0.00000000000E+00 -0.67681788744E+03  0.67681788744E+03  0.00000000000E+00 0. -1.
    9000007    1    1    2  502    0  0.39621336586E+02  0.16282974085E+03 -0.82577334042E+02  0.44147750896E+03  0.40000000000E+03 0. -1.
   -9000007    1    1    2    0  501 -0.39621336586E+02 -0.16282974085E+03 -0.30142999225E+03  0.52815093964E+03  0.40000000000E+03 0.  1.
<mgrwt>
<rscale>  2 0.43368580E+03</rscale>
<asrwt>0</asrwt>
<pdfrwt beam="1">  1        2 0.10412583E+00 0.43368580E+03</pdfrwt>
<pdfrwt beam="2">  1       -2 0.45047780E-01 0.43368580E+03</pdfrwt>
<totfact> 0.20548281E+02</totfact>
</mgrwt>
</event>
<event>
 4    1  0.2533915E-002  0.4369548E+03  0.7818608E-02  0.1031685E+00
         -1   -1    0    0    0  501 -0.00000000000E+00  0.00000000000E+00  0.15417684271E+03  0.15417684271E+03  0.00000000000E+00 0. -1.
          1   -1    0    0  502    0  0.00000000000E+00 -0.00000000000E+00 -0.14871768764E+04  0.14871768764E+04  0.00000000000E+00 0.  1.
    9000007    1    1    2  502    0  0.25430042720E+02 -0.17401948374E+03 -0.10021708639E+04  0.10932867456E+04  0.40000000000E+03 0.  1.
   -9000007    1    1    2    0  501 -0.25430042720E+02  0.17401948374E+03 -0.33082916981E+03  0.54806697346E+03  0.40000000000E+03 0. -1.
<mgrwt>
<rscale>  2 0.43695477E+03</rscale>
<asrwt>0</asrwt>
<pdfrwt beam="1">  1        1 0.22879644E+00 0.43695477E+03</pdfrwt>
<pdfrwt beam="2">  1       -1 0.23719514E-01 0.43695477E+03</pdfrwt>
<totfact> 0.10847397E+02</totfact>
</mgrwt>
</event>
<event>
 4    1  0.2533915E-002  0.4382867E+03  0.7818608E-02  0.1031274E+00
          1   -1    0    0  502    0  0.00000000000E+00  0.00000000000E+00  0.18128718728E+04  0.18128718728E+04  0.00000000000E+00 0.  1.
         -1   -1    0    0    0  501 -0.00000000000E+00 -0.00000000000E+00 -0.10602186934E+03  0.10602186934E+03  0.00000000000E+00 0. -1.
    9000007    1    1    2  502    0  0.14554282055E+03 -0.10446297856E+03  0.83059370537E+03  0.93913850411E+03  0.40000000000E+03 0. -1.
   -9000007    1    1    2    0  501 -0.14554282055E+03  0.10446297856E+03  0.87625629813E+03  0.97975523807E+03  0.40000000000E+03 0.  1.
<mgrwt>
<rscale>  2 0.43828669E+03</rscale>
<asrwt>0</asrwt>
<pdfrwt beam="1">  1        1 0.27890334E+00 0.43828669E+03</pdfrwt>
<pdfrwt beam="2">  1       -1 0.16311058E-01 0.43828669E+03</pdfrwt>
<totfact> 0.12197779E+02</totfact>
</mgrwt>
</event>
<event>
 4    1  0.2533915E-002  0.5591243E+03  0.7818608E-02  0.9994038E-01
         -2   -1    0    0    0  501 -0.00000000000E+00  0.00000000000E+00  0.17184988717E+03  0.17184988717E+03  0.00000000000E+00 0. -1.
          2   -1    0    0  502    0  0.00000000000E+00 -0.00000000000E+00 -0.19726752209E+04  0.19726752209E+04  0.00000000000E+00 0.  1.
    9000007    1    1    2  502    0 -0.37730000309E+02 -0.38883984228E+03 -0.60127620443E+03  0.82106823704E+03  0.40000000000E+03 0. -1.
   -9000007    1    1    2    0  501  0.37730000309E+02  0.38883984228E+03 -0.11995491293E+04  0.13234568710E+04  0.40000000000E+03 0. -1.
<mgrwt>
<rscale>  2 0.55912429E+03</rscale>
<asrwt>0</asrwt>
<pdfrwt beam="1">  1        2 0.30348850E+00 0.55912429E+03</pdfrwt>
<pdfrwt beam="2">  1       -2 0.26438444E-01 0.55912429E+03</pdfrwt>
<totfact> 0.94095833E+01</totfact>
</mgrwt>
</event>
<event>
 4    1  0.2533915E-002  0.4470095E+03  0.7818608E-02  0.1028618E+00
         -2   -1    0    0    0  501 -0.00000000000E+00  0.00000000000E+00  0.19306197040E+03  0.19306197040E+03  0.00000000000E+00 0.  1.
          2   -1    0    0  502    0  0.00000000000E+00 -0.00000000000E+00 -0.10644705170E+04  0.10644705170E+04  0.00000000000E+00 0. -1.
    9000007    1    1    2  502    0  0.10322377000E+03  0.17076983427E+03 -0.33106866977E+03  0.55625888495E+03  0.40000000000E+03 0.  1.
   -9000007    1    1    2    0  501 -0.10322377000E+03 -0.17076983427E+03 -0.54033987685E+03  0.70127360246E+03  0.40000000000E+03 0. -1.
<mgrwt>
<rscale>  2 0.44700949E+03</rscale>
<asrwt>0</asrwt>
<pdfrwt beam="1">  1        2 0.16376469E+00 0.44700949E+03</pdfrwt>
<pdfrwt beam="2">  1       -2 0.29701842E-01 0.44700949E+03</pdfrwt>
<totfact> 0.24700085E+02</totfact>
</mgrwt>
</event>
<event>
 4    1  0.2533915E-002  0.5459484E+03  0.7818608E-02  0.1002436E+00
         -2   -1    0    0    0  501 -0.00000000000E+00  0.00000000000E+00  0.26445093439E+04  0.26445093439E+04  0.00000000000E+00 0. -1.
          2   -1    0    0  502    0  0.00000000000E+00 -0.00000000000E+00 -0.16013908236E+03  0.16013908236E+03  0.00000000000E+00 0.  1.
    9000007    1    1    2  502    0  0.37153366765E+03  0.47283255500E+01  0.20053658025E+04  0.20783531041E+04  0.40000000000E+03 0.  1.
   -9000007    1    1    2    0  501 -0.37153366765E+03 -0.47283255500E+01  0.47900445899E+03  0.72629532216E+03  0.40000000000E+03 0.  1.
<mgrwt>
<rscale>  2 0.54594837E+03</rscale>
<asrwt>0</asrwt>
<pdfrwt beam="1">  1        2 0.24636784E-01 0.54594837E+03</pdfrwt>
<pdfrwt beam="2">  1       -2 0.40684756E+00 0.54594837E+03</pdfrwt>
<totfact> 0.16444207E+00</totfact>
</mgrwt>
</event>
<event>
 4    1  0.2533915E-002  0.4257924E+03  0.7818608E-02  0.1035197E+00
         -2   -1    0    0    0  501 -0.00000000000E+00  0.00000000000E+00  0.16769386851E+03  0.16769386851E+03  0.00000000000E+00 0. -1.
          2   -1    0    0  502    0  0.00000000000E+00 -0.00000000000E+00 -0.15880507133E+04  0.15880507133E+04  0.00000000000E+00 0.  1.
    9000007    1    1    2  502    0  0.14436045011E+03  0.21429438238E+02 -0.21419353961E+03  0.47663196786E+03  0.40000000000E+03 0. -1.
   -9000007    1    1    2    0  501 -0.14436045011E+03 -0.21429438238E+02 -0.12061633052E+04  0.12791126140E+04  0.40000000000E+03 0.  1.
<mgrwt>
<rscale>  2 0.42579239E+03</rscale>
<asrwt>0</asrwt>
<pdfrwt beam="1">  1        2 0.24431549E+00 0.42579239E+03</pdfrwt>
<pdfrwt beam="2">  1       -2 0.25799057E-01 0.42579239E+03</pdfrwt>
<totfact> 0.16153670E+02</totfact>
</mgrwt>
</event>
<event>
 4    1  0.2533915E-002  0.4356261E+03  0.7818608E-02  0.1032097E+00
         -4   -1    0    0    0  501 -0.00000000000E+00  0.00000000000E+00  0.15138722430E+04  0.15138722430E+04  0.00000000000E+00 0. -1.
          4   -1    0    0  502    0  0.00000000000E+00 -0.00000000000E+00 -0.13751144080E+03  0.13751144080E+03  0.00000000000E+00 0.  1.
    9000007    1    1    2  502    0 -0.94137023093E+02 -0.14459708674E+03  0.93368963145E+03  0.10303137505E+04  0.40000000000E+03 0. -1.
   -9000007    1    1    2    0  501  0.94137023093E+02  0.14459708674E+03  0.44267117073E+03  0.62106993327E+03  0.40000000000E+03 0.  1.
<mgrwt>
<rscale>  2 0.43562610E+03</rscale>
<asrwt>0</asrwt>
<pdfrwt beam="1">  1        4 0.21155607E-01 0.43562610E+03</pdfrwt>
<pdfrwt beam="2">  1       -4 0.23290341E+00 0.43562610E+03</pdfrwt>
<totfact> 0.33732109E+00</totfact>
</mgrwt>
</event>
<event>
 4    1  0.2533915E-002  0.4088596E+03  0.7818608E-02  0.1040754E+00
         -1   -1    0    0    0  501 -0.00000000000E+00  0.00000000000E+00  0.55228237111E+03  0.55228237111E+03  0.00000000000E+00 0. -1.
          1   -1    0    0  502    0  0.00000000000E+00 -0.00000000000E+00 -0.62311915487E+03  0.62311915487E+03  0.00000000000E+00 0.  1.
    9000007    1    1    2  502    0 -0.67436392790E+02 -0.51171447255E+02 -0.45686428746E+03  0.61309963403E+03  0.40000000000E+03 0.  1.
   -9000007    1    1    2    0  501  0.67436392790E+02  0.51171447255E+02  0.38602750370E+03  0.56230189195E+03  0.40000000000E+03 0. -1.
<mgrwt>
<rscale>  2 0.40885961E+03</rscale>
<asrwt>0</asrwt>
<pdfrwt beam="1">  1        1 0.95864485E-01 0.40885961E+03</pdfrwt>
<pdfrwt beam="2">  1       -1 0.84966519E-01 0.40885961E+03</pdfrwt>
<totfact> 0.47315701E+01</totfact>
</mgrwt>
</event>
<event>
 4    1  0.2533915E-002  0.4720780E+03  0.7818608E-02  0.1021335E+00
         -1   -1    0    0    0  501 -0.00000000000E+00  0.00000000000E+00  0.91063387843E+02  0.91063387843E+02  0.00000000000E+00 0. -1.
          1   -1    0    0  502    0  0.00000000000E+00 -0.00000000000E+00 -0.27602148553E+04  0.27602148553E+04  0.00000000000E+00 0.  1.
    9000007    1    1    2  502    0 -0.29769903131E+02 -0.24894052335E+03 -0.85454952461E+03  0.97627481853E+03  0.40000000000E+03 0. -1.
   -9000007    1    1    2    0  501  0.29769903131E+02  0.24894052335E+03 -0.18146019428E+04  0.18750034246E+04  0.40000000000E+03 0.  1.
<mgrwt>
<rscale>  2 0.47207799E+03</rscale>
<asrwt>0</asrwt>
<pdfrwt beam="1">  1        1 0.42464846E+00 0.47207799E+03</pdfrwt>
<pdfrwt beam="2">  1       -1 0.14009751E-01 0.47207799E+03</pdfrwt>
<totfact> 0.36016223E+01</totfact>
</mgrwt>
</event>
<event>
 4    1  0.2533915E-002  0.8792383E+03  0.7818608E-02  0.9451913E-01
          1   -1    0    0  502    0  0.00000000000E+00  0.00000000000E+00  0.29074534787E+04  0.29074534787E+04  0.00000000000E+00 0. -1.
         -1   -1    0    0    0  501 -0.00000000000E+00 -0.00000000000E+00 -0.26715410759E+03  0.26715410759E+03  0.00000000000E+00 0.  1.
    9000007    1    1    2  502    0  0.18101289959E+03  0.76177057294E+03  0.12109220905E+04  0.14964599510E+04  0.40000000000E+03 0.  1.
   -9000007    1    1    2    0  501 -0.18101289959E+03 -0.76177057294E+03  0.14293772806E+04  0.16781476353E+04  0.40000000000E+03 0. -1.
<mgrwt>
<rscale>  2 0.87923835E+03</rscale>
<asrwt>0</asrwt>
<pdfrwt beam="1">  1        1 0.44730051E+00 0.87923835E+03</pdfrwt>
<pdfrwt beam="2">  1       -1 0.41100634E-01 0.87923835E+03</pdfrwt>
<totfact> 0.42198843E+00</totfact>
</mgrwt>
</event>
<event>
 4    1  0.2533915E-002  0.4224629E+03  0.7818608E-02  0.1036268E+00
         -2   -1    0    0    0  501 -0.00000000000E+00  0.00000000000E+00  0.23212970132E+03  0.23212970132E+03  0.00000000000E+00 0.  1.
          2   -1    0    0  502    0  0.00000000000E+00 -0.00000000000E+00 -0.12331541133E+04  0.12331541133E+04  0.00000000000E+00 0. -1.
    9000007    1    1    2  502    0  0.10425423620E+03  0.87212271983E+02 -0.50959822892E+02  0.42552535729E+03  0.40000000000E+03 0.  1.
   -9000007    1    1    2    0  501 -0.10425423620E+03 -0.87212271983E+02 -0.95006458913E+03  0.10397584574E+04  0.40000000000E+03 0. -1.
<mgrwt>
<rscale>  2 0.42246293E+03</rscale>
<asrwt>0</asrwt>
<pdfrwt beam="1">  1        2 0.18971602E+00 0.42246293E+03</pdfrwt>
<pdfrwt beam="2">  1       -2 0.35712261E-01 0.42246293E+03</pdfrwt>
<totfact> 0.13965130E+02</totfact>
</mgrwt>
</event>
<event>
 4    1  0.2533915E-002  0.4134389E+03  0.7818608E-02  0.1039223E+00
         -2   -1    0    0    0  501 -0.00000000000E+00  0.00000000000E+00  0.16557300644E+03  0.16557300644E+03  0.00000000000E+00 0.  1.
          2   -1    0    0  502    0  0.00000000000E+00 -0.00000000000E+00 -0.10433917696E+04  0.10433917696E+04  0.00000000000E+00 0. -1.
    9000007    1    1    2  502    0 -0.10454829052E+03 -0.11580335356E+01 -0.37676599930E+03  0.55936062100E+03  0.40000000000E+03 0.  1.
   -9000007    1    1    2    0  501  0.10454829052E+03  0.11580335356E+01 -0.50105276389E+03  0.64960415508E+03  0.40000000000E+03 0. -1.
<mgrwt>
<rscale>  2 0.41343885E+03</rscale>
<asrwt>0</asrwt>
<pdfrwt beam="1">  1        2 0.16052181E+00 0.41343885E+03</pdfrwt>
<pdfrwt beam="2">  1       -2 0.25472770E-01 0.41343885E+03</pdfrwt>
<totfact> 0.33716951E+02</totfact>
</mgrwt>
</event>
<event>
 4    1  0.2533915E-002  0.4063591E+03  0.7818608E-02  0.1041600E+00
         -2   -1    0    0    0  501 -0.00000000000E+00  0.00000000000E+00  0.79668526798E+03  0.79668526798E+03  0.00000000000E+00 0.  1.
          2   -1    0    0  502    0  0.00000000000E+00 -0.00000000000E+00 -0.24388026703E+03  0.24388026703E+03  0.00000000000E+00 0. -1.
    9000007    1    1    2  502    0  0.32065984646E+02 -0.64026961522E+02  0.47798928662E+03  0.62737663114E+03  0.40000000000E+03 0.  1.
   -9000007    1    1    2    0  501 -0.32065984646E+02  0.64026961522E+02  0.74815714325E+02  0.41318890387E+03  0.40000000000E+03 0. -1.
<mgrwt>
<rscale>  2 0.40635905E+03</rscale>
<asrwt>0</asrwt>
<pdfrwt beam="1">  1        2 0.37520041E-01 0.40635905E+03</pdfrwt>
<pdfrwt beam="2">  1       -2 0.12256696E+00 0.40635905E+03</pdfrwt>
<totfact> 0.71903428E+01</totfact>
</mgrwt>
</event>
<event>
 4    1  0.2533915E-002  0.4107532E+03  0.7818608E-02  0.1040119E+00
         -1   -1    0    0    0  501 -0.00000000000E+00  0.00000000000E+00  0.14814104187E+03  0.14814104187E+03  0.00000000000E+00 0. -1.
          1   -1    0    0  502    0  0.00000000000E+00 -0.00000000000E+00 -0.11412933326E+04  0.11412933326E+04  0.00000000000E+00 0.  1.
    9000007    1    1    2  502    0  0.77218525340E+02  0.52492701023E+02 -0.46706700129E+03  0.62198855939E+03  0.40000000000E+03 0. -1.
   -9000007    1    1    2    0  501 -0.77218525340E+02 -0.52492701023E+02 -0.52608528945E+03  0.66744581510E+03  0.40000000000E+03 0. -1.
<mgrwt>
<rscale>  2 0.41075319E+03</rscale>
<asrwt>0</asrwt>
<pdfrwt beam="1">  1        1 0.17558359E+00 0.41075319E+03</pdfrwt>
<pdfrwt beam="2">  1       -1 0.22790929E-01 0.41075319E+03</pdfrwt>
<totfact> 0.20245586E+02</totfact>
</mgrwt>
</event>
<event>
 4    1  0.2533915E-002  0.4819343E+03  0.7818608E-02  0.1018605E+00
          3   -1    0    0  502    0  0.00000000000E+00  0.00000000000E+00  0.41590427145E+03  0.41590427145E+03  0.00000000000E+00 0. -1.
         -3   -1    0    0    0  501 -0.00000000000E+00 -0.00000000000E+00 -0.55923155467E+03  0.55923155467E+03  0.00000000000E+00 0.  1.
    9000007    1    1    2  502    0 -0.13475065787E+03  0.23260039622E+03 -0.89920390864E+02  0.49025132413E+03  0.40000000000E+03 0. -1.
   -9000007    1    1    2    0  501  0.13475065787E+03 -0.23260039622E+03 -0.53406892359E+02  0.48488450199E+03  0.40000000000E+03 0. -1.
<mgrwt>
<rscale>  2 0.48193432E+03</rscale>
<asrwt>0</asrwt>
<pdfrwt beam="1">  1        3 0.63985273E-01 0.48193432E+03</pdfrwt>
<pdfrwt beam="2">  1       -3 0.86035623E-01 0.48193432E+03</pdfrwt>
<totfact> 0.76330372E+00</totfact>
</mgrwt>
</event>
<event>
 4    1  0.2533915E-002  0.4306971E+03  0.7818608E-02  0.1033640E+00
          2   -1    0    0  502    0  0.00000000000E+00  0.00000000000E+00  0.10354544232E+04  0.10354544232E+04  0.00000000000E+00 0. -1.
         -2   -1    0    0    0  501 -0.00000000000E+00 -0.00000000000E+00 -0.26287654886E+03  0.26287654886E+03  0.00000000000E+00 0.  1.
    9000007    1    1    2  502    0  0.15739153417E+03  0.26979597959E+02  0.75265502584E+03  0.86717332850E+03  0.40000000000E+03 0. -1.
   -9000007    1    1    2    0  501 -0.15739153417E+03 -0.26979597959E+02  0.19922848521E+02  0.43115764359E+03  0.40000000000E+03 0.  1.
<mgrwt>
<rscale>  2 0.43069710E+03</rscale>
<asrwt>0</asrwt>
<pdfrwt beam="1">  1        2 0.15930068E+00 0.43069710E+03</pdfrwt>
<pdfrwt beam="2">  1       -2 0.40442546E-01 0.43069710E+03</pdfrwt>
<totfact> 0.14403522E+02</totfact>
</mgrwt>
</event>
<event>
 4    1  0.2533915E-002  0.4042768E+03  0.7818608E-02  0.1042309E+00
          1   -1    0    0  502    0  0.00000000000E+00  0.00000000000E+00  0.40453824776E+03  0.40453824776E+03  0.00000000000E+00 0. -1.
         -1   -1    0    0    0  501 -0.00000000000E+00 -0.00000000000E+00 -0.43658550023E+03  0.43658550023E+03  0.00000000000E+00 0.  1.
    9000007    1    1    2  502    0 -0.31863894954E+02  0.49238541289E+02  0.98845629652E+02  0.41618529557E+03  0.40000000000E+03 0. -1.
   -9000007    1    1    2    0  501  0.31863894954E+02 -0.49238541289E+02 -0.13089288213E+03  0.42493845242E+03  0.40000000000E+03 0.  1.
<mgrwt>
<rscale>  2 0.40427681E+03</rscale>
<asrwt>0</asrwt>
<pdfrwt beam="1">  1        1 0.62236653E-01 0.40427681E+03</pdfrwt>
<pdfrwt beam="2">  1       -1 0.67167000E-01 0.40427681E+03</pdfrwt>
<totfact> 0.13829302E+02</totfact>
</mgrwt>
</event>
<event>
 4    1  0.2533915E-002  0.4382466E+03  0.7818608E-02  0.1031286E+00
         -2   -1    0    0    0  501 -0.00000000000E+00  0.00000000000E+00  0.33158664209E+03  0.33158664209E+03  0.00000000000E+00 0. -1.
          2   -1    0    0  502    0  0.00000000000E+00 -0.00000000000E+00 -0.63326332557E+03  0.63326332557E+03  0.00000000000E+00 0.  1.
    9000007    1    1    2  502    0 -0.10554559007E+03  0.14463820731E+03 -0.99006282948E+01  0.43835842074E+03  0.40000000000E+03 0. -1.
   -9000007    1    1    2    0  501  0.10554559007E+03 -0.14463820731E+03 -0.29177605519E+03  0.52649154692E+03  0.40000000000E+03 0.  1.
<mgrwt>
<rscale>  2 0.43824660E+03</rscale>
<asrwt>0</asrwt>
<pdfrwt beam="1">  1        2 0.97425127E-01 0.43824660E+03</pdfrwt>
<pdfrwt beam="2">  1       -2 0.51013329E-01 0.43824660E+03</pdfrwt>
<totfact> 0.17362809E+02</totfact>
</mgrwt>
</event>
<event>
 4    1  0.2533915E-002  0.4265851E+03  0.7818608E-02  0.1034944E+00
          1   -1    0    0  502    0  0.00000000000E+00  0.00000000000E+00  0.17562480383E+03  0.17562480383E+03  0.00000000000E+00 0.  1.
         -1   -1    0    0    0  501 -0.00000000000E+00 -0.00000000000E+00 -0.14243317408E+04  0.14243317408E+04  0.00000000000E+00 0. -1.
    9000007    1    1    2  502    0  0.82699264010E+02  0.12302723744E+03 -0.20672869549E+03  0.47403757547E+03  0.40000000000E+03 0.  1.
   -9000007    1    1    2    0  501 -0.82699264010E+02 -0.12302723744E+03 -0.10419782415E+04  0.11259189692E+04  0.40000000000E+03 0. -1.
<mgrwt>
<rscale>  2 0.42658513E+03</rscale>
<asrwt>0</asrwt>
<pdfrwt beam="1">  1        1 0.27019201E-01 0.42658513E+03</pdfrwt>
<pdfrwt beam="2">  1       -1 0.21912796E+00 0.42658513E+03</pdfrwt>
<totfact> 0.21081489E+01</totfact>
</mgrwt>
</event>
<event>
 4    1  0.2533915E-002  0.4567831E+03  0.7818608E-02  0.1025718E+00
          2   -1    0    0  502    0  0.00000000000E+00  0.00000000000E+00  0.61806357125E+03  0.61806357125E+03  0.00000000000E+00 0.  1.
         -2   -1    0    0    0  501 -0.00000000000E+00 -0.00000000000E+00 -0.46856859928E+03  0.46856859928E+03  0.00000000000E+00 0. -1.
    9000007    1    1    2  502    0 -0.18414079458E+03 -0.12142070632E+03  0.36200376140E+03  0.58283577740E+03  0.40000000000E+03 0.  1.
   -9000007    1    1    2    0  501  0.18414079458E+03  0.12142070632E+03 -0.21250878943E+03  0.50379639313E+03  0.40000000000E+03 0. -1.
<mgrwt>
<rscale>  2 0.45678312E+03</rscale>
<asrwt>0</asrwt>
<pdfrwt beam="1">  1        2 0.95086704E-01 0.45678312E+03</pdfrwt>
<pdfrwt beam="2">  1       -2 0.72087477E-01 0.45678312E+03</pdfrwt>
<totfact> 0.86289092E+01</totfact>
</mgrwt>
</event>
<event>
 4    1  0.2533915E-002  0.4510175E+03  0.7818608E-02  0.1027419E+00
         -2   -1    0    0    0  501 -0.00000000000E+00  0.00000000000E+00  0.55080563055E+03  0.55080563055E+03  0.00000000000E+00 0.  1.
          2   -1    0    0  502    0  0.00000000000E+00 -0.00000000000E+00 -0.37162665801E+03  0.37162665801E+03  0.00000000000E+00 0. -1.
    9000007    1    1    2  502    0 -0.86039146413E+02 -0.18977372889E+03  0.12602209903E+03  0.46829304109E+03  0.40000000000E+03 0. -1.
   -9000007    1    1    2    0  501  0.86039146413E+02  0.18977372889E+03  0.53156873507E+02  0.45413924747E+03  0.40000000000E+03 0.  1.
<mgrwt>
<rscale>  2 0.45101752E+03</rscale>
<asrwt>0</asrwt>
<pdfrwt beam="1">  1        2 0.57173332E-01 0.45101752E+03</pdfrwt>
<pdfrwt beam="2">  1       -2 0.84739328E-01 0.45101752E+03</pdfrwt>
<totfact> 0.10773480E+02</totfact>
</mgrwt>
</event>
<event>
 4    1  0.2533915E-002  0.6070084E+03  0.7818608E-02  0.9890972E-01
         -2   -1    0    0    0  501 -0.00000000000E+00  0.00000000000E+00  0.36725756693E+03  0.36725756693E+03  0.00000000000E+00 0. -1.
          2   -1    0    0  502    0  0.00000000000E+00 -0.00000000000E+00 -0.14177823929E+04  0.14177823929E+04  0.00000000000E+00 0.  1.
    9000007    1    1    2  502    0 -0.45655124604E+03 -0.44963637442E+01 -0.10078552101E+04  0.11765336298E+04  0.40000000000E+03 0. -1.
   -9000007    1    1    2    0  501  0.45655124604E+03  0.44963637442E+01 -0.42669615862E+02  0.60850633001E+03  0.40000000000E+03 0. -1.
<mgrwt>
<rscale>  2 0.60700845E+03</rscale>
<asrwt>0</asrwt>
<pdfrwt beam="1">  1        2 0.21812037E+00 0.60700845E+03</pdfrwt>
<pdfrwt beam="2">  1       -2 0.56501164E-01 0.60700845E+03</pdfrwt>
<totfact> 0.43134389E+01</totfact>
</mgrwt>
</event>
<event>
 4    1  0.2533915E-002  0.4251224E+03  0.7818608E-02  0.1035412E+00
         -2   -1    0    0    0  501 -0.00000000000E+00  0.00000000000E+00  0.17457357628E+03  0.17457357628E+03  0.00000000000E+00 0. -1.
          2   -1    0    0  502    0  0.00000000000E+00 -0.00000000000E+00 -0.11059234377E+04  0.11059234377E+04  0.00000000000E+00 0.  1.
    9000007    1    1    2  502    0 -0.60415476665E+02  0.13068669260E+03 -0.30383584773E+03  0.52253733246E+03  0.40000000000E+03 0. -1.
   -9000007    1    1    2    0  501  0.60415476665E+02 -0.13068669260E+03 -0.62751401367E+03  0.75795968151E+03  0.40000000000E+03 0.  1.
<mgrwt>
<rscale>  2 0.42512238E+03</rscale>
<asrwt>0</asrwt>
<pdfrwt beam="1">  1        2 0.17014207E+00 0.42512238E+03</pdfrwt>
<pdfrwt beam="2">  1       -2 0.26857473E-01 0.42512238E+03</pdfrwt>
<totfact> 0.28067298E+02</totfact>
</mgrwt>
</event>
<event>
 4    1  0.2533915E-002  0.5396709E+03  0.7818608E-02  0.1003913E+00
         -2   -1    0    0    0  501 -0.00000000000E+00  0.00000000000E+00  0.61824283203E+03  0.61824283203E+03  0.00000000000E+00 0.  1.
          2   -1    0    0  502    0  0.00000000000E+00 -0.00000000000E+00 -0.47277381188E+03  0.47277381188E+03  0.00000000000E+00 0. -1.
    9000007    1    1    2  502    0  0.12769614575E+03  0.33902554811E+03  0.10534272250E+03  0.54985608762E+03  0.40000000000E+03 0. -1.
   -9000007    1    1    2    0  501 -0.12769614575E+03 -0.33902554811E+03  0.40126297647E+02  0.54116055628E+03  0.40000000000E+03 0.  1.
<mgrwt>
<rscale>  2 0.53967085E+03</rscale>
<asrwt>0</asrwt>
<pdfrwt beam="1">  1        2 0.72734433E-01 0.53967085E+03</pdfrwt>
<pdfrwt beam="2">  1       -2 0.95114282E-01 0.53967085E+03</pdfrwt>
<totfact> 0.62700374E+01</totfact>
</mgrwt>
</event>
<event>
 4    1  0.2533915E-002  0.4291799E+03  0.7818608E-02  0.1034119E+00
          3   -1    0    0  502    0  0.00000000000E+00  0.00000000000E+00  0.11807939317E+03  0.11807939317E+03  0.00000000000E+00 0. -1.
         -3   -1    0    0    0  501 -0.00000000000E+00 -0.00000000000E+00 -0.15699652141E+04  0.15699652141E+04  0.00000000000E+00 0.  1.
    9000007    1    1    2  502    0  0.14378624859E+03 -0.59337098331E+02 -0.65845733727E+03  0.78597801593E+03  0.40000000000E+03 0.  1.
   -9000007    1    1    2    0  501 -0.14378624859E+03  0.59337098331E+02 -0.79342848368E+03  0.90206659136E+03  0.40000000000E+03 0. -1.
<mgrwt>
<rscale>  2 0.42917989E+03</rscale>
<asrwt>0</asrwt>
<pdfrwt beam="1">  1        3 0.18166062E-01 0.42917989E+03</pdfrwt>
<pdfrwt beam="2">  1       -3 0.24153310E+00 0.42917989E+03</pdfrwt>
<totfact> 0.59953995E+00</totfact>
</mgrwt>
</event>
<event>
 4    1  0.2533915E-002  0.4153561E+03  0.7818608E-02  0.1038588E+00
         -2   -1    0    0    0  501 -0.00000000000E+00  0.00000000000E+00  0.13273036623E+03  0.13273036623E+03  0.00000000000E+00 0.  1.
          2   -1    0    0  502    0  0.00000000000E+00 -0.00000000000E+00 -0.14545104130E+04  0.14545104130E+04  0.00000000000E+00 0. -1.
    9000007    1    1    2  502    0 -0.11160110395E+03  0.81144767472E+01 -0.40204592383E+03  0.57806710338E+03  0.40000000000E+03 0.  1.
   -9000007    1    1    2    0  501  0.11160110395E+03 -0.81144767472E+01 -0.91973412291E+03  0.10091736758E+04  0.40000000000E+03 0. -1.
<mgrwt>
<rscale>  2 0.41535605E+03</rscale>
<asrwt>0</asrwt>
<pdfrwt beam="1">  1        2 0.22377082E+00 0.41535605E+03</pdfrwt>
<pdfrwt beam="2">  1       -2 0.20420058E-01 0.41535605E+03</pdfrwt>
<totfact> 0.28892565E+02</totfact>
</mgrwt>
</event>
<event>
 4    1  0.2533915E-002  0.6999741E+03  0.7818608E-02  0.9717276E-01
         -2   -1    0    0    0  501 -0.00000000000E+00  0.00000000000E+00  0.10077284840E+04  0.10077284840E+04  0.00000000000E+00 0.  1.
          2   -1    0    0  502    0  0.00000000000E+00 -0.00000000000E+00 -0.57150460731E+03  0.57150460731E+03  0.00000000000E+00 0. -1.
    9000007    1    1    2  502    0  0.50978122253E+02  0.57215821759E+03  0.52316608935E+03  0.87388017024E+03  0.40000000000E+03 0.  1.
   -9000007    1    1    2    0  501 -0.50978122253E+02 -0.57215821759E+03 -0.86942212675E+02  0.70535292106E+03  0.40000000000E+03 0. -1.
<mgrwt>
<rscale>  2 0.69997414E+03</rscale>
<asrwt>0</asrwt>
<pdfrwt beam="1">  1        2 0.87923786E-01 0.69997414E+03</pdfrwt>
<pdfrwt beam="2">  1       -2 0.15503515E+00 0.69997414E+03</pdfrwt>
<totfact> 0.14712502E+01</totfact>
</mgrwt>
</event>
<event>
 4    1  0.2533915E-002  0.4831822E+03  0.7818608E-02  0.1018264E+00
          2   -1    0    0  502    0  0.00000000000E+00  0.00000000000E+00  0.43088665632E+04  0.43088665632E+04  0.00000000000E+00 0. -1.
         -2   -1    0    0    0  501 -0.00000000000E+00 -0.00000000000E+00 -0.54182465964E+02  0.54182465964E+02  0.00000000000E+00 0.  1.
    9000007    1    1    2  502    0  0.21437515272E+03 -0.16585629094E+03  0.21272351756E+04  0.21814202960E+04  0.40000000000E+03 0.  1.
   -9000007    1    1    2    0  501 -0.21437515272E+03  0.16585629094E+03  0.21274489216E+04  0.21816287332E+04  0.40000000000E+03 0.  1.
<mgrwt>
<rscale>  2 0.48318218E+03</rscale>
<asrwt>0</asrwt>
<pdfrwt beam="1">  1        2 0.66290228E+00 0.48318218E+03</pdfrwt>
<pdfrwt beam="2">  1       -2 0.83357674E-02 0.48318218E+03</pdfrwt>
<totfact> 0.20473635E+01</totfact>
</mgrwt>
</event>
<event>
 4    1  0.2533915E-002  0.4262300E+03  0.7818608E-02  0.1035058E+00
          2   -1    0    0  502    0  0.00000000000E+00  0.00000000000E+00  0.13057350645E+04  0.13057350645E+04  0.00000000000E+00 0.  1.
         -2   -1    0    0    0  501 -0.00000000000E+00 -0.00000000000E+00 -0.13992720046E+03  0.13992720046E+03  0.00000000000E+00 0. -1.
    9000007    1    1    2  502    0 -0.98245748723E+02  0.10963489559E+03  0.63732903608E+03  0.76672050821E+03  0.40000000000E+03 0. -1.
   -9000007    1    1    2    0  501  0.98245748723E+02 -0.10963489559E+03  0.52847882799E+03  0.67894175679E+03  0.40000000000E+03 0.  1.
<mgrwt>
<rscale>  2 0.42623003E+03</rscale>
<asrwt>0</asrwt>
<pdfrwt beam="1">  1        2 0.20088231E+00 0.42623003E+03</pdfrwt>
<pdfrwt beam="2">  1       -2 0.21527262E-01 0.42623003E+03</pdfrwt>
<totfact> 0.31843583E+02</totfact>
</mgrwt>
</event>
<event>
 4    1  0.2533915E-002  0.4755149E+03  0.7818608E-02  0.1020375E+00
         -1   -1    0    0    0  501 -0.00000000000E+00  0.00000000000E+00  0.15587529769E+04  0.15587529769E+04  0.00000000000E+00 0.  1.
          1   -1    0    0  502    0  0.00000000000E+00 -0.00000000000E+00 -0.17726396687E+03  0.17726396687E+03  0.00000000000E+00 0. -1.
    9000007    1    1    2  502    0  0.25611843594E+03 -0.22754305068E+02  0.32077916198E+03  0.57359714294E+03  0.40000000000E+03 0.  1.
   -9000007    1    1    2    0  501 -0.25611843594E+03  0.22754305068E+02  0.10607098480E+04  0.11624198008E+04  0.40000000000E+03 0.  1.
<mgrwt>
<rscale>  2 0.47551489E+03</rscale>
<asrwt>0</asrwt>
<pdfrwt beam="1">  1        1 0.27271381E-01 0.47551489E+03</pdfrwt>
<pdfrwt beam="2">  1       -1 0.23980814E+00 0.47551489E+03</pdfrwt>
<totfact> 0.15161769E+01</totfact>
</mgrwt>
</event>
<event>
 4    1  0.2533915E-002  0.4390499E+03  0.7818608E-02  0.1031039E+00
          2   -1    0    0  502    0  0.00000000000E+00  0.00000000000E+00  0.10344412575E+04  0.10344412575E+04  0.00000000000E+00 0. -1.
         -2   -1    0    0    0  501 -0.00000000000E+00 -0.00000000000E+00 -0.18635394203E+03  0.18635394203E+03  0.00000000000E+00 0.  1.
    9000007    1    1    2  502    0 -0.11957746570E+03  0.13588970051E+03  0.42783193969E+03  0.61302932199E+03  0.40000000000E+03 0.  1.
   -9000007    1    1    2    0  501  0.11957746570E+03 -0.13588970051E+03  0.42025537575E+03  0.60776587750E+03  0.40000000000E+03 0. -1.
<mgrwt>
<rscale>  2 0.43904986E+03</rscale>
<asrwt>0</asrwt>
<pdfrwt beam="1">  1        2 0.15914481E+00 0.43904986E+03</pdfrwt>
<pdfrwt beam="2">  1       -2 0.28669838E-01 0.43904986E+03</pdfrwt>
<totfact> 0.27513336E+02</totfact>
</mgrwt>
</event>
<event>
 4    1  0.2533915E-002  0.5077817E+03  0.7818608E-02  0.1011767E+00
         -2   -1    0    0    0  501 -0.00000000000E+00  0.00000000000E+00  0.88849789916E+02  0.88849789916E+02  0.00000000000E+00 0. -1.
          2   -1    0    0  502    0  0.00000000000E+00 -0.00000000000E+00 -0.29930486943E+04  0.29930486943E+04  0.00000000000E+00 0.  1.
    9000007    1    1    2  502    0 -0.21055917791E+03  0.23131604985E+03 -0.11833403697E+04  0.12876865740E+04  0.40000000000E+03 0. -1.
   -9000007    1    1    2    0  501  0.21055917791E+03 -0.23131604985E+03 -0.17208585347E+04  0.17942119102E+04  0.40000000000E+03 0.  1.
<mgrwt>
<rscale>  2 0.50778173E+03</rscale>
<asrwt>0</asrwt>
<pdfrwt beam="1">  1        2 0.46046905E+00 0.50778173E+03</pdfrwt>
<pdfrwt beam="2">  1       -2 0.13669198E-01 0.50778173E+03</pdfrwt>
<totfact> 0.79075717E+01</totfact>
</mgrwt>
</event>
<event>
 4    1  0.2533915E-002  0.5660266E+03  0.7818608E-02  0.9978510E-01
          2   -1    0    0  502    0  0.00000000000E+00  0.00000000000E+00  0.14113430037E+04  0.14113430037E+04  0.00000000000E+00 0. -1.
         -2   -1    0    0    0  501 -0.00000000000E+00 -0.00000000000E+00 -0.30432977655E+03  0.30432977655E+03  0.00000000000E+00 0.  1.
    9000007    1    1    2  502    0  0.35956476989E+03  0.17634984726E+03  0.12110901473E+03  0.57883804801E+03  0.40000000000E+03 0.  1.
   -9000007    1    1    2    0  501 -0.35956476989E+03 -0.17634984726E+03  0.98590421244E+03  0.11368347323E+04  0.40000000000E+03 0. -1.
<mgrwt>
<rscale>  2 0.56602658E+03</rscale>
<asrwt>0</asrwt>
<pdfrwt beam="1">  1        2 0.21712969E+00 0.56602658E+03</pdfrwt>
<pdfrwt beam="2">  1       -2 0.46819966E-01 0.56602658E+03</pdfrwt>
<totfact> 0.64156140E+01</totfact>
</mgrwt>
</event>
<event>
 4    1  0.2533915E-002  0.4090328E+03  0.7818608E-02  0.1040696E+00
         -2   -1    0    0    0  501 -0.00000000000E+00  0.00000000000E+00  0.11340864369E+03  0.11340864369E+03  0.00000000000E+00 0.  1.
          2   -1    0    0  502    0  0.00000000000E+00 -0.00000000000E+00 -0.18015751361E+04  0.18015751361E+04  0.00000000000E+00 0. -1.
    9000007    1    1    2  502    0  0.31976658863E+02  0.79279868438E+02 -0.43658646027E+03  0.59826042953E+03  0.40000000000E+03 0.  1.
   -9000007    1    1    2    0  501 -0.31976658863E+02 -0.79279868438E+02 -0.12515800322E+04  0.13167233503E+04  0.40000000000E+03 0. -1.
<mgrwt>
<rscale>  2 0.40903277E+03</rscale>
<asrwt>0</asrwt>
<pdfrwt beam="1">  1        2 0.27716539E+00 0.40903277E+03</pdfrwt>
<pdfrwt beam="2">  1       -2 0.17447485E-01 0.40903277E+03</pdfrwt>
<totfact> 0.24626013E+02</totfact>
</mgrwt>
</event>
<event>
 4    1  0.2533915E-002  0.4005664E+03  0.7818608E-02  0.1043584E+00
         -2   -1    0    0    0  501 -0.00000000000E+00  0.00000000000E+00  0.13567297743E+03  0.13567297743E+03  0.00000000000E+00 0.  1.
          2   -1    0    0  502    0  0.00000000000E+00 -0.00000000000E+00 -0.13006523931E+04  0.13006523931E+04  0.00000000000E+00 0. -1.
    9000007    1    1    2  502    0  0.10794859301E+01  0.21266610161E+02 -0.36617277964E+03  0.54271165323E+03  0.40000000000E+03 0.  1.
   -9000007    1    1    2    0  501 -0.10794859301E+01 -0.21266610161E+02 -0.79880663603E+03  0.89361371731E+03  0.40000000000E+03 0. -1.
<mgrwt>
<rscale>  2 0.40056639E+03</rscale>
<asrwt>0</asrwt>
<pdfrwt beam="1">  1        2 0.20010038E+00 0.40056639E+03</pdfrwt>
<pdfrwt beam="2">  1       -2 0.20872765E-01 0.40056639E+03</pdfrwt>
<totfact> 0.33917175E+02</totfact>
</mgrwt>
</event>
<event>
 4    1  0.2533915E-002  0.4156560E+03  0.7818608E-02  0.1038489E+00
          1   -1    0    0  502    0  0.00000000000E+00  0.00000000000E+00  0.20765490548E+04  0.20765490548E+04  0.00000000000E+00 0.  1.
         -1   -1    0    0    0  501 -0.00000000000E+00 -0.00000000000E+00 -0.95647506421E+02  0.95647506421E+02  0.00000000000E+00 0. -1.
    9000007    1    1    2  502    0 -0.10408864433E+03 -0.43993565556E+02  0.59865017805E+03  0.72880169825E+03  0.40000000000E+03 0. -1.
   -9000007    1    1    2    0  501  0.10408864433E+03  0.43993565556E+02  0.13822513704E+04  0.14433948630E+04  0.40000000000E+03 0.  1.
<mgrwt>
<rscale>  2 0.41565596E+03</rscale>
<asrwt>0</asrwt>
<pdfrwt beam="1">  1        1 0.31946905E+00 0.41565596E+03</pdfrwt>
<pdfrwt beam="2">  1       -1 0.14715002E-01 0.41565596E+03</pdfrwt>
<totfact> 0.96923708E+01</totfact>
</mgrwt>
</event>
<event>
 4    1  0.2533915E-002  0.4525883E+03  0.7818608E-02  0.1026953E+00
          2   -1    0    0  502    0  0.00000000000E+00  0.00000000000E+00  0.20623611872E+04  0.20623611872E+04  0.00000000000E+00 0. -1.
         -2   -1    0    0    0  501 -0.00000000000E+00 -0.00000000000E+00 -0.10118514502E+03  0.10118514502E+03  0.00000000000E+00 0.  1.
    9000007    1    1    2  502    0 -0.13764920803E+03 -0.16090027719E+03  0.11274108156E+04  0.12148626880E+04  0.40000000000E+03 0. -1.
   -9000007    1    1    2    0  501  0.13764920803E+03  0.16090027719E+03  0.83376522658E+03  0.94868364417E+03  0.40000000000E+03 0.  1.
<mgrwt>
<rscale>  2 0.45258834E+03</rscale>
<asrwt>0</asrwt>
<pdfrwt beam="1">  1        2 0.31728631E+00 0.45258834E+03</pdfrwt>
<pdfrwt beam="2">  1       -2 0.15566947E-01 0.45258834E+03</pdfrwt>
<totfact> 0.21522455E+02</totfact>
</mgrwt>
</event>
<event>
 4    1  0.2533915E-002  0.4372937E+03  0.7818608E-02  0.1031580E+00
         -1   -1    0    0    0  501 -0.00000000000E+00  0.00000000000E+00  0.41451213165E+03  0.41451213165E+03  0.00000000000E+00 0.  1.
          1   -1    0    0  502    0  0.00000000000E+00 -0.00000000000E+00 -0.47606975774E+03  0.47606975774E+03  0.00000000000E+00 0. -1.
    9000007    1    1    2  502    0 -0.17158152362E+03  0.42256187425E+02 -0.10913837793E+03  0.45070721113E+03  0.40000000000E+03 0. -1.
   -9000007    1    1    2    0  501  0.17158152362E+03 -0.42256187425E+02  0.47580751845E+02  0.43987467826E+03  0.40000000000E+03 0.  1.
<mgrwt>
<rscale>  2 0.43729373E+03</rscale>
<asrwt>0</asrwt>
<pdfrwt beam="1">  1        1 0.73241501E-01 0.43729373E+03</pdfrwt>
<pdfrwt beam="2">  1       -1 0.63771098E-01 0.43729373E+03</pdfrwt>
<totfact> 0.12321128E+02</totfact>
</mgrwt>
</event>
<event>
 4    1  0.2533915E-002  0.4633999E+03  0.7818608E-02  0.1023800E+00
          1   -1    0    0  502    0  0.00000000000E+00  0.00000000000E+00  0.11923371892E+04  0.11923371892E+04  0.00000000000E+00 0. -1.
         -1   -1    0    0    0  501 -0.00000000000E+00 -0.00000000000E+00 -0.65145461510E+03  0.65145461510E+03  0.00000000000E+00 0.  1.
    9000007    1    1    2  502    0 -0.22847168500E+03 -0.50399702777E+02 -0.51373530071E+03  0.69185504268E+03  0.40000000000E+03 0.  1.
   -9000007    1    1    2    0  501  0.22847168500E+03  0.50399702777E+02  0.10546178748E+04  0.11519367616E+04  0.40000000000E+03 0. -1.
<mgrwt>
<rscale>  2 0.46339987E+03</rscale>
<asrwt>0</asrwt>
<pdfrwt beam="1">  1        1 0.18343649E+00 0.46339987E+03</pdfrwt>
<pdfrwt beam="2">  1       -1 0.10022379E+00 0.46339987E+03</pdfrwt>
<totfact> 0.11178703E+01</totfact>
</mgrwt>
</event>
<event>
 4    1  0.2533915E-002  0.4654642E+03  0.7818608E-02  0.1023208E+00
         -1   -1    0    0    0  501 -0.00000000000E+00  0.00000000000E+00  0.20147029725E+03  0.20147029725E+03  0.00000000000E+00 0.  1.
          1   -1    0    0  502    0  0.00000000000E+00 -0.00000000000E+00 -0.12090162976E+04  0.12090162976E+04  0.00000000000E+00 0. -1.
    9000007    1    1    2  502    0 -0.23196452180E+03 -0.53379631359E+02 -0.26930328754E+03  0.53775569276E+03  0.40000000000E+03 0.  1.
   -9000007    1    1    2    0  501  0.23196452180E+03  0.53379631359E+02 -0.73824271278E+03  0.87273090205E+03  0.40000000000E+03 0. -1.
<mgrwt>
<rscale>  2 0.46546420E+03</rscale>
<asrwt>0</asrwt>
<pdfrwt beam="1">  1        1 0.18600251E+00 0.46546420E+03</pdfrwt>
<pdfrwt beam="2">  1       -1 0.30995430E-01 0.46546420E+03</pdfrwt>
<totfact> 0.10658106E+02</totfact>
</mgrwt>
</event>
<event>
 4    1  0.2533915E-002  0.4423017E+03  0.7818608E-02  0.1030043E+00
          2   -1    0    0  502    0  0.00000000000E+00  0.00000000000E+00  0.16960994342E+04  0.16960994342E+04  0.00000000000E+00 0. -1.
         -2   -1    0    0    0  501 -0.00000000000E+00 -0.00000000000E+00 -0.11834713927E+03  0.11834713927E+03  0.00000000000E+00 0.  1.
    9000007    1    1    2  502    0  0.21708495557E+02 -0.18750881839E+03  0.93345234493E+03  0.10329395413E+04  0.40000000000E+03 0. -1.
   -9000007    1    1    2    0  501 -0.21708495557E+02  0.18750881839E+03  0.64429995004E+03  0.78150703219E+03  0.40000000000E+03 0.  1.
<mgrwt>
<rscale>  2 0.44230172E+03</rscale>
<asrwt>0</asrwt>
<pdfrwt beam="1">  1        2 0.26093836E+00 0.44230172E+03</pdfrwt>
<pdfrwt beam="2">  1       -2 0.18207253E-01 0.44230172E+03</pdfrwt>
<totfact> 0.25962102E+02</totfact>
</mgrwt>
</event>
<event>
 4    1  0.2533915E-002  0.4734573E+03  0.7818608E-02  0.1020949E+00
          1   -1    0    0  502    0  0.00000000000E+00  0.00000000000E+00  0.61923841938E+03  0.61923841938E+03  0.00000000000E+00 0.  1.
         -1   -1    0    0    0  501 -0.00000000000E+00 -0.00000000000E+00 -0.36317390826E+03  0.36317390826E+03  0.00000000000E+00 0. -1.
    9000007    1    1    2  502    0  0.24099259414E+03 -0.78002547086E+02  0.15600680751E+03  0.49849769485E+03  0.40000000000E+03 0.  1.
   -9000007    1    1    2    0  501 -0.24099259414E+03  0.78002547086E+02  0.10005770361E+03  0.48391463280E+03  0.40000000000E+03 0. -1.
<mgrwt>
<rscale>  2 0.47345731E+03</rscale>
<asrwt>0</asrwt>
<pdfrwt beam="1">  1        1 0.95267449E-01 0.47345731E+03</pdfrwt>
<pdfrwt beam="2">  1       -1 0.55872909E-01 0.47345731E+03</pdfrwt>
<totfact> 0.11041659E+02</totfact>
</mgrwt>
</event>
<event>
 4    1  0.2533915E-002  0.4502567E+03  0.7818608E-02  0.1027646E+00
          2   -1    0    0  502    0  0.00000000000E+00  0.00000000000E+00  0.11315457382E+04  0.11315457382E+04  0.00000000000E+00 0. -1.
         -2   -1    0    0    0  501 -0.00000000000E+00 -0.00000000000E+00 -0.23285345187E+03  0.23285345187E+03  0.00000000000E+00 0.  1.
    9000007    1    1    2  502    0  0.10388755211E+03  0.17871345252E+03  0.77692711980E+03  0.89796819045E+03  0.40000000000E+03 0. -1.
   -9000007    1    1    2    0  501 -0.10388755211E+03 -0.17871345252E+03  0.12176516649E+03  0.46643099957E+03  0.40000000000E+03 0. -1.
<mgrwt>
<rscale>  2 0.45025673E+03</rscale>
<asrwt>0</asrwt>
<pdfrwt beam="1">  1        2 0.17408396E+00 0.45025673E+03</pdfrwt>
<pdfrwt beam="2">  1       -2 0.35823609E-01 0.45025673E+03</pdfrwt>
<totfact> 0.15861301E+02</totfact>
</mgrwt>
</event>
<event>
 4    1  0.2533915E-002  0.5314480E+03  0.7818608E-02  0.1005882E+00
         -1   -1    0    0    0  501 -0.00000000000E+00  0.00000000000E+00  0.18693641151E+03  0.18693641151E+03  0.00000000000E+00 0. -1.
          1   -1    0    0  502    0  0.00000000000E+00 -0.00000000000E+00 -0.15858122345E+04  0.15858122345E+04  0.00000000000E+00 0.  1.
    9000007    1    1    2  502    0  0.34974845243E+03 -0.10629179932E+02 -0.50675230198E+03  0.73432612305E+03  0.40000000000E+03 0.  1.
   -9000007    1    1    2    0  501 -0.34974845243E+03  0.10629179932E+02 -0.89212352099E+03  0.10384225229E+04  0.40000000000E+03 0. -1.
<mgrwt>
<rscale>  2 0.53144798E+03</rscale>
<asrwt>0</asrwt>
<pdfrwt beam="1">  1        1 0.24397112E+00 0.53144798E+03</pdfrwt>
<pdfrwt beam="2">  1       -1 0.28759447E-01 0.53144798E+03</pdfrwt>
<totfact> 0.66141355E+01</totfact>
</mgrwt>
</event>
<event>
 4    1  0.2533915E-002  0.4609558E+03  0.7818608E-02  0.1024504E+00
          1   -1    0    0  502    0  0.00000000000E+00  0.00000000000E+00  0.23292142949E+04  0.23292142949E+04  0.00000000000E+00 0.  1.
         -1   -1    0    0    0  501 -0.00000000000E+00 -0.00000000000E+00 -0.17077423627E+03  0.17077423627E+03  0.00000000000E+00 0. -1.
    9000007    1    1    2  502    0  0.95534581699E+02 -0.20821470370E+03  0.19323547396E+04  0.19865736983E+04  0.40000000000E+03 0.  1.
   -9000007    1    1    2    0  501 -0.95534581699E+02  0.20821470370E+03  0.22608531905E+03  0.51341483289E+03  0.40000000000E+03 0. -1.
<mgrwt>
<rscale>  2 0.46095577E+03</rscale>
<asrwt>0</asrwt>
<pdfrwt beam="1">  1        1 0.35834064E+00 0.46095577E+03</pdfrwt>
<pdfrwt beam="2">  1       -1 0.26272961E-01 0.46095577E+03</pdfrwt>
<totfact> 0.25115003E+01</totfact>
</mgrwt>
</event>
<event>
 4    1  0.2533915E-002  0.4175281E+03  0.7818608E-02  0.1037874E+00
         -3   -1    0    0    0  501 -0.00000000000E+00  0.00000000000E+00  0.36305693751E+03  0.36305693751E+03  0.00000000000E+00 0.  1.
          3   -1    0    0  502    0  0.00000000000E+00 -0.00000000000E+00 -0.57888955175E+03  0.57888955175E+03  0.00000000000E+00 0. -1.
    9000007    1    1    2  502    0 -0.11669004085E+03 -0.26704947682E+02  0.86573079867E+02  0.42640897976E+03  0.40000000000E+03 0.  1.
   -9000007    1    1    2    0  501  0.11669004085E+03  0.26704947682E+02 -0.30240569412E+03  0.51553750950E+03  0.40000000000E+03 0. -1.
<mgrwt>
<rscale>  2 0.41752811E+03</rscale>
<asrwt>0</asrwt>
<pdfrwt beam="1">  1        3 0.89059930E-01 0.41752811E+03</pdfrwt>
<pdfrwt beam="2">  1       -3 0.55854914E-01 0.41752811E+03</pdfrwt>
<totfact> 0.93843435E+00</totfact>
</mgrwt>
</event>
<event>
 4    1  0.2533915E-002  0.9409616E+03  0.7818608E-02  0.9375778E-01
          2   -1    0    0  502    0  0.00000000000E+00  0.00000000000E+00  0.15655328151E+04  0.15655328151E+04  0.00000000000E+00 0. -1.
         -2   -1    0    0    0  501 -0.00000000000E+00 -0.00000000000E+00 -0.59745210712E+03  0.59745210712E+03  0.00000000000E+00 0.  1.
    9000007    1    1    2  502    0 -0.78990250243E+03 -0.31853216000E+03  0.73389511306E+03  0.11933192101E+04  0.40000000000E+03 0. -1.
   -9000007    1    1    2    0  501  0.78990250243E+03  0.31853216000E+03  0.23418559490E+03  0.96966571207E+03  0.40000000000E+03 0.  1.
<mgrwt>
<rscale>  2 0.94096158E+03</rscale>
<asrwt>0</asrwt>
<pdfrwt beam="1">  1        2 0.24085120E+00 0.94096158E+03</pdfrwt>
<pdfrwt beam="2">  1       -2 0.91915709E-01 0.94096158E+03</pdfrwt>
<totfact> 0.11766752E+01</totfact>
</mgrwt>
</event>
<event>
 4    1  0.2533915E-002  0.5408809E+03  0.7818608E-02  0.1003627E+00
          2   -1    0    0  502    0  0.00000000000E+00  0.00000000000E+00  0.15735230629E+04  0.15735230629E+04  0.00000000000E+00 0.  1.
         -2   -1    0    0    0  501 -0.00000000000E+00 -0.00000000000E+00 -0.22063571026E+03  0.22063571026E+03  0.00000000000E+00 0. -1.
    9000007    1    1    2  502    0  0.28135125673E+03  0.23107061120E+03  0.32061161727E+03  0.62876383973E+03  0.40000000000E+03 0.  1.
   -9000007    1    1    2    0  501 -0.28135125673E+03 -0.23107061120E+03  0.10322757354E+04  0.11653949334E+04  0.40000000000E+03 0.  1.
<mgrwt>
<rscale>  2 0.54088091E+03</rscale>
<asrwt>0</asrwt>
<pdfrwt beam="1">  1        2 0.24208046E+00 0.54088091E+03</pdfrwt>
<pdfrwt beam="2">  1       -2 0.33943956E-01 0.54088091E+03</pdfrwt>
<totfact> 0.97767426E+01</totfact>
</mgrwt>
</event>
<event>
 4    1  0.2533915E-002  0.4927164E+03  0.7818608E-02  0.1015698E+00
         -2   -1    0    0    0  501 -0.00000000000E+00  0.00000000000E+00  0.86888542102E+03  0.86888542102E+03  0.00000000000E+00 0.  1.
          2   -1    0    0  502    0  0.00000000000E+00 -0.00000000000E+00 -0.50695440430E+03  0.50695440430E+03  0.00000000000E+00 0. -1.
    9000007    1    1    2  502    0 -0.28525956951E+03  0.37368816031E+02  0.64185086326E+03  0.80916128249E+03  0.40000000000E+03 0.  1.
   -9000007    1    1    2    0  501  0.28525956951E+03 -0.37368816031E+02 -0.27991984654E+03  0.56667854283E+03  0.40000000000E+03 0. -1.
<mgrwt>
<rscale>  2 0.49271640E+03</rscale>
<asrwt>0</asrwt>
<pdfrwt beam="1">  1        2 0.77992986E-01 0.49271640E+03</pdfrwt>
<pdfrwt beam="2">  1       -2 0.13367468E+00 0.49271640E+03</pdfrwt>
<totfact> 0.25475380E+01</totfact>
</mgrwt>
</event>
<event>
 4    1  0.2533915E-002  0.4577086E+03  0.7818608E-02  0.1025448E+00
          1   -1    0    0  502    0  0.00000000000E+00  0.00000000000E+00  0.69635725754E+03  0.69635725754E+03  0.00000000000E+00 0.  1.
         -1   -1    0    0    0  501 -0.00000000000E+00 -0.00000000000E+00 -0.30372752613E+03  0.30372752613E+03  0.00000000000E+00 0. -1.
    9000007    1    1    2  502    0  0.79696360145E+02 -0.20771534900E+03  0.14762027510E+03  0.48092506865E+03  0.40000000000E+03 0. -1.
   -9000007    1    1    2    0  501 -0.79696360145E+02  0.20771534900E+03  0.24500945630E+03  0.51915971503E+03  0.40000000000E+03 0.  1.
<mgrwt>
<rscale>  2 0.45770861E+03</rscale>
<asrwt>0</asrwt>
<pdfrwt beam="1">  1        1 0.10713189E+00 0.45770861E+03</pdfrwt>
<pdfrwt beam="2">  1       -1 0.46727312E-01 0.45770861E+03</pdfrwt>
<totfact> 0.13054054E+02</totfact>
</mgrwt>
</event>
<event>
 4    1  0.2533915E-002  0.4063616E+03  0.7818608E-02  0.1041599E+00
          1   -1    0    0  502    0  0.00000000000E+00  0.00000000000E+00  0.21606578234E+04  0.21606578234E+04  0.00000000000E+00 0.  1.
         -1   -1    0    0    0  501 -0.00000000000E+00 -0.00000000000E+00 -0.76501148250E+02  0.76501148250E+02  0.00000000000E+00 0. -1.
    9000007    1    1    2  502    0 -0.35336738874E+02 -0.62298377203E+02  0.10069485356E+04  0.10858522581E+04  0.40000000000E+03 0. -1.
   -9000007    1    1    2    0  501  0.35336738874E+02  0.62298377203E+02  0.10772081395E+04  0.11513067135E+04  0.40000000000E+03 0. -1.
<mgrwt>
<rscale>  2 0.40636163E+03</rscale>
<asrwt>0</asrwt>
<pdfrwt beam="1">  1        1 0.33240885E+00 0.40636163E+03</pdfrwt>
<pdfrwt beam="2">  1       -1 0.11769409E-01 0.40636163E+03</pdfrwt>
<totfact> 0.12196341E+02</totfact>
</mgrwt>
</event>
<event>
 4    1  0.2533915E-002  0.4515720E+03  0.7818608E-02  0.1027254E+00
         -2   -1    0    0    0  501 -0.00000000000E+00  0.00000000000E+00  0.15799079551E+03  0.15799079551E+03  0.00000000000E+00 0.  1.
          2   -1    0    0  502    0  0.00000000000E+00 -0.00000000000E+00 -0.14327196633E+04  0.14327196633E+04  0.00000000000E+00 0. -1.
    9000007    1    1    2  502    0 -0.11858114982E+03 -0.17278819797E+03 -0.38694444686E+03  0.59467911970E+03  0.40000000000E+03 0. -1.
   -9000007    1    1    2    0  501  0.11858114982E+03  0.17278819797E+03 -0.88778442098E+03  0.99603133916E+03  0.40000000000E+03 0.  1.
<mgrwt>
<rscale>  2 0.45157198E+03</rscale>
<asrwt>0</asrwt>
<pdfrwt beam="1">  1        2 0.22041840E+00 0.45157198E+03</pdfrwt>
<pdfrwt beam="2">  1       -2 0.24306277E-01 0.45157198E+03</pdfrwt>
<totfact> 0.21772054E+02</totfact>
</mgrwt>
</event>
<event>
 4    1  0.2533915E-002  0.4753363E+03  0.7818608E-02  0.1020425E+00
          2   -1    0    0  502    0  0.00000000000E+00  0.00000000000E+00  0.54190122438E+03  0.54190122438E+03  0.00000000000E+00 0. -1.
         -2   -1    0    0    0  501 -0.00000000000E+00 -0.00000000000E+00 -0.46636695095E+03  0.46636695095E+03  0.00000000000E+00 0.  1.
    9000007    1    1    2  502    0  0.88610355202E+02  0.24102443506E+03 -0.12634073556E+03  0.49183996870E+03  0.40000000000E+03 0.  1.
   -9000007    1    1    2    0  501 -0.88610355202E+02 -0.24102443506E+03  0.20187500899E+03  0.51642820663E+03  0.40000000000E+03 0. -1.
<mgrwt>
<rscale>  2 0.47533627E+03</rscale>
<asrwt>0</asrwt>
<pdfrwt beam="1">  1        2 0.83369420E-01 0.47533627E+03</pdfrwt>
<pdfrwt beam="2">  1       -2 0.71748761E-01 0.47533627E+03</pdfrwt>
<totfact> 0.10163881E+02</totfact>
</mgrwt>
</event>
<event>
 4    1  0.2533915E-002  0.5923357E+03  0.7818608E-02  0.9921436E-01
         -2   -1    0    0    0  501 -0.00000000000E+00  0.00000000000E+00  0.18558908603E+03  0.18558908603E+03  0.00000000000E+00 0.  1.
          2   -1    0    0  502    0  0.00000000000E+00 -0.00000000000E+00 -0.21437030137E+04  0.21437030137E+04  0.00000000000E+00 0. -1.
    9000007    1    1    2  502    0  0.38828708838E+02  0.43514819140E+03 -0.13792973404E+04  0.15011071815E+04  0.40000000000E+03 0.  1.
   -9000007    1    1    2    0  501 -0.38828708838E+02 -0.43514819140E+03 -0.57881658730E+03  0.82818491826E+03  0.40000000000E+03 0.  1.
<mgrwt>
<rscale>  2 0.59233573E+03</rscale>
<asrwt>0</asrwt>
<pdfrwt beam="1">  1        2 0.32980050E+00 0.59233573E+03</pdfrwt>
<pdfrwt beam="2">  1       -2 0.28552164E-01 0.59233573E+03</pdfrwt>
<totfact> 0.65737354E+01</totfact>
</mgrwt>
</event>
<event>
 4    1  0.2533915E-002  0.4044292E+03  0.7818608E-02  0.1042257E+00
          1   -1    0    0  502    0  0.00000000000E+00  0.00000000000E+00  0.95042638826E+02  0.95042638826E+02  0.00000000000E+00 0.  1.
         -1   -1    0    0    0  501 -0.00000000000E+00 -0.00000000000E+00 -0.18170888578E+04  0.18170888578E+04  0.00000000000E+00 0. -1.
    9000007    1    1    2  502    0 -0.47361645890E+02 -0.36329596426E+02 -0.10809432176E+04  0.11541235656E+04  0.40000000000E+03 0.  1.
   -9000007    1    1    2    0  501  0.47361645890E+02  0.36329596426E+02 -0.64110300138E+03  0.75800793100E+03  0.40000000000E+03 0.  1.
<mgrwt>
<rscale>  2 0.40442918E+03</rscale>
<asrwt>0</asrwt>
<pdfrwt beam="1">  1        1 0.14621945E-01 0.40442918E+03</pdfrwt>
<pdfrwt beam="2">  1       -1 0.27955212E+00 0.40442918E+03</pdfrwt>
<totfact> 0.19445252E+01</totfact>
</mgrwt>
</event>
<event>
 4    1  0.2533915E-002  0.4657881E+03  0.7818608E-02  0.1023116E+00
          1   -1    0    0  502    0  0.00000000000E+00  0.00000000000E+00  0.76775447860E+03  0.76775447860E+03  0.00000000000E+00 0.  1.
         -1   -1    0    0    0  501 -0.00000000000E+00 -0.00000000000E+00 -0.36397174799E+03  0.36397174799E+03  0.00000000000E+00 0. -1.
    9000007    1    1    2  502    0  0.21477275212E+03 -0.10407312306E+03 -0.65683418672E+02  0.47039649391E+03  0.40000000000E+03 0. -1.
   -9000007    1    1    2    0  501 -0.21477275212E+03  0.10407312306E+03  0.46946614928E+03  0.66132973267E+03  0.40000000000E+03 0.  1.
<mgrwt>
<rscale>  2 0.46578810E+03</rscale>
<asrwt>0</asrwt>
<pdfrwt beam="1">  1        1 0.11811607E+00 0.46578810E+03</pdfrwt>
<pdfrwt beam="2">  1       -1 0.55995654E-01 0.46578810E+03</pdfrwt>
<totfact> 0.79973492E+01</totfact>
</mgrwt>
</event>
<event>
 4    1  0.2533915E-002  0.5455375E+03  0.7818608E-02  0.1002532E+00
          1   -1    0    0  502    0  0.00000000000E+00  0.00000000000E+00  0.58052456887E+03  0.58052456887E+03  0.00000000000E+00 0.  1.
         -1   -1    0    0    0  501 -0.00000000000E+00 -0.00000000000E+00 -0.10301532767E+04  0.10301532767E+04  0.00000000000E+00 0. -1.
    9000007    1    1    2  502    0 -0.34281742658E+03 -0.14173010369E+03 -0.79560979219E+03  0.96467929992E+03  0.40000000000E+03 0. -1.
   -9000007    1    1    2    0  501  0.34281742658E+03  0.14173010369E+03  0.34598108436E+03  0.64599854566E+03  0.40000000000E+03 0.  1.
<mgrwt>
<rscale>  2 0.54553754E+03</rscale>
<asrwt>0</asrwt>
<pdfrwt beam="1">  1        1 0.89311473E-01 0.54553754E+03</pdfrwt>
<pdfrwt beam="2">  1       -1 0.15848512E+00 0.54553754E+03</pdfrwt>
<totfact> 0.11436292E+01</totfact>
</mgrwt>
</event>
<event>
 4    1  0.2533915E-002  0.4982558E+03  0.7818608E-02  0.1014235E+00
          2   -1    0    0  502    0  0.00000000000E+00  0.00000000000E+00  0.62938218751E+03  0.62938218751E+03  0.00000000000E+00 0. -1.
         -2   -1    0    0    0  501 -0.00000000000E+00 -0.00000000000E+00 -0.39445690426E+03  0.39445690426E+03  0.00000000000E+00 0.  1.
    9000007    1    1    2  502    0 -0.29706083002E+03 -0.36962018077E+01  0.11983919579E+03  0.51246485878E+03  0.40000000000E+03 0. -1.
   -9000007    1    1    2    0  501  0.29706083002E+03  0.36962018077E+01  0.11508608746E+03  0.51137423299E+03  0.40000000000E+03 0.  1.
<mgrwt>
<rscale>  2 0.49825576E+03</rscale>
<asrwt>0</asrwt>
<pdfrwt beam="1">  1        2 0.96828029E-01 0.49825576E+03</pdfrwt>
<pdfrwt beam="2">  1       -2 0.60685678E-01 0.49825576E+03</pdfrwt>
<totfact> 0.12163099E+02</totfact>
</mgrwt>
</event>
<event>
 4    1  0.2533915E-002  0.4433105E+03  0.7818608E-02  0.1029736E+00
         -2   -1    0    0    0  501 -0.00000000000E+00  0.00000000000E+00  0.93766022901E+02  0.93766022901E+02  0.00000000000E+00 0.  1.
          2   -1    0    0  502    0  0.00000000000E+00 -0.00000000000E+00 -0.28718030190E+04  0.28718030190E+04  0.00000000000E+00 0. -1.
    9000007    1    1    2  502    0  0.79073646214E+01 -0.19094946830E+03 -0.61828473266E+03  0.76078921950E+03  0.40000000000E+03 0.  1.
   -9000007    1    1    2    0  501 -0.79073646214E+01  0.19094946830E+03 -0.21597522635E+04  0.22047798224E+04  0.40000000000E+03 0. -1.
<mgrwt>
<rscale>  2 0.44331053E+03</rscale>
<asrwt>0</asrwt>
<pdfrwt beam="1">  1        2 0.44181582E+00 0.44331053E+03</pdfrwt>
<pdfrwt beam="2">  1       -2 0.14425543E-01 0.44331053E+03</pdfrwt>
<totfact> 0.86559133E+01</totfact>
</mgrwt>
</event>
<event>
 4    1  0.2533915E-002  0.6890369E+03  0.7818608E-02  0.9736166E-01
         -1   -1    0    0    0  501 -0.00000000000E+00  0.00000000000E+00  0.20214679846E+03  0.20214679846E+03  0.00000000000E+00 0.  1.
          1   -1    0    0  502    0  0.00000000000E+00 -0.00000000000E+00 -0.23501577898E+04  0.23501577898E+04  0.00000000000E+00 0. -1.
    9000007    1    1    2  502    0 -0.53044049196E+03  0.18276947868E+03 -0.10416666845E+04  0.12489360590E+04  0.40000000000E+03 0.  1.
   -9000007    1    1    2    0  501  0.53044049196E+03 -0.18276947868E+03 -0.11063443069E+04  0.13033685293E+04  0.40000000000E+03 0.  1.
<mgrwt>
<rscale>  2 0.68903686E+03</rscale>
<asrwt>0</asrwt>
<pdfrwt beam="1">  1        1 0.36156275E+00 0.68903686E+03</pdfrwt>
<pdfrwt beam="2">  1       -1 0.31099507E-01 0.68903686E+03</pdfrwt>
<totfact> 0.17398413E+01</totfact>
</mgrwt>
</event>
<event>
 4    1  0.2533915E-002  0.4387074E+03  0.7818608E-02  0.1031144E+00
         -2   -1    0    0    0  501 -0.00000000000E+00  0.00000000000E+00  0.18221625797E+03  0.18221625797E+03  0.00000000000E+00 0.  1.
          2   -1    0    0  502    0  0.00000000000E+00 -0.00000000000E+00 -0.20850014158E+04  0.20850014158E+04  0.00000000000E+00 0. -1.
    9000007    1    1    2  502    0 -0.10899434560E+03 -0.14347273528E+03 -0.17476752632E+04  0.18018970611E+04  0.40000000000E+03 0. -1.
   -9000007    1    1    2    0  501  0.10899434560E+03  0.14347273528E+03 -0.15510989456E+03  0.46532061262E+03  0.40000000000E+03 0.  1.
<mgrwt>
<rscale>  2 0.43870741E+03</rscale>
<asrwt>0</asrwt>
<pdfrwt beam="1">  1        2 0.32076943E+00 0.43870741E+03</pdfrwt>
<pdfrwt beam="2">  1       -2 0.28033272E-01 0.43870741E+03</pdfrwt>
<totfact> 0.75102140E+01</totfact>
</mgrwt>
</event>
<event>
 4    1  0.2533915E-002  0.6472753E+03  0.7818608E-02  0.9811905E-01
         -2   -1    0    0    0  501 -0.00000000000E+00  0.00000000000E+00  0.77666623841E+03  0.77666623841E+03  0.00000000000E+00 0.  1.
          2   -1    0    0  502    0  0.00000000000E+00 -0.00000000000E+00 -0.98051348915E+03  0.98051348915E+03  0.00000000000E+00 0. -1.
    9000007    1    1    2  502    0 -0.49696574781E+03 -0.10950063925E+03 -0.69119393157E+03  0.94695004912E+03  0.40000000000E+03 0. -1.
   -9000007    1    1    2    0  501  0.49696574781E+03  0.10950063925E+03  0.48734668084E+03  0.81022967843E+03  0.40000000000E+03 0.  1.
<mgrwt>
<rscale>  2 0.64727532E+03</rscale>
<asrwt>0</asrwt>
<pdfrwt beam="1">  1        2 0.15084823E+00 0.64727532E+03</pdfrwt>
<pdfrwt beam="2">  1       -2 0.11948711E+00 0.64727532E+03</pdfrwt>
<totfact> 0.14323396E+01</totfact>
</mgrwt>
</event>
<event>
 4    1  0.2533915E-002  0.4500762E+03  0.7818608E-02  0.1027699E+00
          1   -1    0    0  502    0  0.00000000000E+00  0.00000000000E+00  0.89056468023E+03  0.89056468023E+03  0.00000000000E+00 0. -1.
         -1   -1    0    0    0  501 -0.00000000000E+00 -0.00000000000E+00 -0.23458618567E+03  0.23458618567E+03  0.00000000000E+00 0.  1.
    9000007    1    1    2  502    0 -0.14257308408E+03 -0.14913582176E+03  0.42603593948E+03  0.61973800865E+03  0.40000000000E+03 0.  1.
   -9000007    1    1    2    0  501  0.14257308408E+03  0.14913582176E+03  0.22994255509E+03  0.50541285725E+03  0.40000000000E+03 0.  1.
<mgrwt>
<rscale>  2 0.45007619E+03</rscale>
<asrwt>0</asrwt>
<pdfrwt beam="1">  1        1 0.13700995E+00 0.45007619E+03</pdfrwt>
<pdfrwt beam="2">  1       -1 0.36090183E-01 0.45007619E+03</pdfrwt>
<totfact> 0.14195181E+02</totfact>
</mgrwt>
</event>
<event>
 4    1  0.2533915E-002  0.4234406E+03  0.7818608E-02  0.1035952E+00
         -1   -1    0    0    0  501 -0.00000000000E+00  0.00000000000E+00  0.12417226501E+03  0.12417226501E+03  0.00000000000E+00 0. -1.
          1   -1    0    0  502    0  0.00000000000E+00 -0.00000000000E+00 -0.17295589151E+04  0.17295589151E+04  0.00000000000E+00 0.  1.
    9000007    1    1    2  502    0 -0.15286769289E+00  0.13893122180E+03 -0.11793228392E+04  0.12530380149E+04  0.40000000000E+03 0.  1.
   -9000007    1    1    2    0  501  0.15286769289E+00 -0.13893122180E+03 -0.42606381091E+03  0.60069316521E+03  0.40000000000E+03 0. -1.
<mgrwt>
<rscale>  2 0.42344056E+03</rscale>
<asrwt>0</asrwt>
<pdfrwt beam="1">  1        1 0.26608599E+00 0.42344056E+03</pdfrwt>
<pdfrwt beam="2">  1       -1 0.19103425E-01 0.42344056E+03</pdfrwt>
<totfact> 0.10727014E+02</totfact>
</mgrwt>
</event>
<event>
 4    1  0.2533915E-002  0.4769314E+03  0.7818608E-02  0.1019982E+00
          1   -1    0    0  502    0  0.00000000000E+00  0.00000000000E+00  0.34754338439E+03  0.34754338439E+03  0.00000000000E+00 0. -1.
         -1   -1    0    0    0  501 -0.00000000000E+00 -0.00000000000E+00 -0.65826998261E+03  0.65826998261E+03  0.00000000000E+00 0.  1.
    9000007    1    1    2  502    0  0.15517461895E+03  0.20828926171E+03 -0.19347385478E+03  0.51468020303E+03  0.40000000000E+03 0.  1.
   -9000007    1    1    2    0  501 -0.15517461895E+03 -0.20828926171E+03 -0.11725274344E+03  0.49113316397E+03  0.40000000000E+03 0.  1.
<mgrwt>
<rscale>  2 0.47693142E+03</rscale>
<asrwt>0</asrwt>
<pdfrwt beam="1">  1        1 0.53468213E-01 0.47693142E+03</pdfrwt>
<pdfrwt beam="2">  1       -1 0.10127231E+00 0.47693142E+03</pdfrwt>
<totfact> 0.69860373E+01</totfact>
</mgrwt>
</event>
<event>
 4    1  0.2533915E-002  0.4021098E+03  0.7818608E-02  0.1043052E+00
         -2   -1    0    0    0  501 -0.00000000000E+00  0.00000000000E+00  0.16945499507E+03  0.16945499507E+03  0.00000000000E+00 0.  1.
          2   -1    0    0  502    0  0.00000000000E+00 -0.00000000000E+00 -0.95426154900E+03  0.95426154900E+03  0.00000000000E+00 0. -1.
    9000007    1    1    2  502    0 -0.24386155221E+02 -0.33130180937E+02 -0.38754450797E+03  0.55846489515E+03  0.40000000000E+03 0.  1.
   -9000007    1    1    2    0  501  0.24386155221E+02  0.33130180937E+02 -0.39726204595E+03  0.56525164892E+03  0.40000000000E+03 0.  1.
<mgrwt>
<rscale>  2 0.40210980E+03</rscale>
<asrwt>0</asrwt>
<pdfrwt beam="1">  1        2 0.14680947E+00 0.40210980E+03</pdfrwt>
<pdfrwt beam="2">  1       -2 0.26069999E-01 0.40210980E+03</pdfrwt>
<totfact> 0.36806137E+02</totfact>
</mgrwt>
</event>
<event>
 4    1  0.2533915E-002  0.6728959E+03  0.7818608E-02  0.9764740E-01
          2   -1    0    0  502    0  0.00000000000E+00  0.00000000000E+00  0.27501984211E+03  0.27501984211E+03  0.00000000000E+00 0.  1.
         -2   -1    0    0    0  501 -0.00000000000E+00 -0.00000000000E+00 -0.21506589403E+04  0.21506589403E+04  0.00000000000E+00 0. -1.
    9000007    1    1    2  502    0  0.17137979824E+03 -0.51324246178E+03 -0.35053268352E+03  0.75872394323E+03  0.40000000000E+03 0.  1.
   -9000007    1    1    2    0  501 -0.17137979824E+03  0.51324246178E+03 -0.15251064146E+04  0.16669548392E+04  0.40000000000E+03 0. -1.
<mgrwt>
<rscale>  2 0.67289588E+03</rscale>
<asrwt>0</asrwt>
<pdfrwt beam="1">  1        2 0.42310745E-01 0.67289588E+03</pdfrwt>
<pdfrwt beam="2">  1       -2 0.33087060E+00 0.67289588E+03</pdfrwt>
<totfact> 0.26283393E+00</totfact>
</mgrwt>
</event>
<event>
 4    1  0.2533915E-002  0.5105095E+03  0.7818608E-02  0.1011072E+00
          2   -1    0    0  502    0  0.00000000000E+00  0.00000000000E+00  0.16469007688E+04  0.16469007688E+04  0.00000000000E+00 0. -1.
         -2   -1    0    0    0  501 -0.00000000000E+00 -0.00000000000E+00 -0.16341443656E+03  0.16341443656E+03  0.00000000000E+00 0.  1.
    9000007    1    1    2  502    0  0.15287221481E+03 -0.27793893210E+03  0.58081071309E+03  0.77327941165E+03  0.40000000000E+03 0.  1.
   -9000007    1    1    2    0  501 -0.15287221481E+03  0.27793893210E+03  0.90267561912E+03  0.10370357937E+04  0.40000000000E+03 0.  1.
<mgrwt>
<rscale>  2 0.51050951E+03</rscale>
<asrwt>0</asrwt>
<pdfrwt beam="1">  1        2 0.25336934E+00 0.51050951E+03</pdfrwt>
<pdfrwt beam="2">  1       -2 0.25140684E-01 0.51050951E+03</pdfrwt>
<totfact> 0.15545331E+02</totfact>
</mgrwt>
</event>
<event>
 4    1  0.2533915E-002  0.5111323E+03  0.7818608E-02  0.1010913E+00
          1   -1    0    0  502    0  0.00000000000E+00  0.00000000000E+00  0.39017489864E+03  0.39017489864E+03  0.00000000000E+00 0.  1.
         -1   -1    0    0    0  501 -0.00000000000E+00 -0.00000000000E+00 -0.73625825633E+03  0.73625825633E+03  0.00000000000E+00 0. -1.
    9000007    1    1    2  502    0  0.19899516097E+03  0.24830854711E+03 -0.34252550140E+03  0.61528849150E+03  0.40000000000E+03 0. -1.
   -9000007    1    1    2    0  501 -0.19899516097E+03 -0.24830854711E+03 -0.35578562891E+01  0.51114466347E+03  0.40000000000E+03 0.  1.
<mgrwt>
<rscale>  2 0.51113228E+03</rscale>
<asrwt>0</asrwt>
<pdfrwt beam="1">  1        1 0.60026908E-01 0.51113228E+03</pdfrwt>
<pdfrwt beam="2">  1       -1 0.11327050E+00 0.51113228E+03</pdfrwt>
<totfact> 0.46175077E+01</totfact>
</mgrwt>
</event>
<event>
 4    1  0.2533915E-002  0.4594278E+03  0.7818608E-02  0.1024947E+00
          2   -1    0    0  502    0  0.00000000000E+00  0.00000000000E+00  0.51270596846E+03  0.51270596846E+03  0.00000000000E+00 0. -1.
         -2   -1    0    0    0  501 -0.00000000000E+00 -0.00000000000E+00 -0.41858741090E+03  0.41858741090E+03  0.00000000000E+00 0.  1.
    9000007    1    1    2  502    0  0.16770303694E+03  0.15149111380E+03 -0.12731274974E+02  0.45960412479E+03  0.40000000000E+03 0.  1.
   -9000007    1    1    2    0  501 -0.16770303694E+03 -0.15149111380E+03  0.10684983254E+03  0.47168925457E+03  0.40000000000E+03 0.  1.
<mgrwt>
<rscale>  2 0.45942776E+03</rscale>
<asrwt>0</asrwt>
<pdfrwt beam="1">  1        2 0.78877842E-01 0.45942776E+03</pdfrwt>
<pdfrwt beam="2">  1       -2 0.64398063E-01 0.45942776E+03</pdfrwt>
<totfact> 0.13694084E+02</totfact>
</mgrwt>
</event>
<event>
 4    1  0.2533915E-002  0.6244169E+03  0.7818608E-02  0.9856005E-01
          1   -1    0    0  502    0  0.00000000000E+00  0.00000000000E+00  0.24463186842E+04  0.24463186842E+04  0.00000000000E+00 0. -1.
         -1   -1    0    0    0  501 -0.00000000000E+00 -0.00000000000E+00 -0.17771949521E+03  0.17771949521E+03  0.00000000000E+00 0.  1.
    9000007    1    1    2  502    0 -0.47743647719E+03  0.44168158805E+02  0.71284001511E+03  0.94764830140E+03  0.40000000000E+03 0.  1.
   -9000007    1    1    2    0  501  0.47743647719E+03 -0.44168158805E+02  0.15557591739E+04  0.16763898780E+04  0.40000000000E+03 0. -1.
<mgrwt>
<rscale>  2 0.62441686E+03</rscale>
<asrwt>0</asrwt>
<pdfrwt beam="1">  1        1 0.37635670E+00 0.62441686E+03</pdfrwt>
<pdfrwt beam="2">  1       -1 0.27341463E-01 0.62441686E+03</pdfrwt>
<totfact> 0.18933392E+01</totfact>
</mgrwt>
</event>
<event>
 4    1  0.2533915E-002  0.4159826E+03  0.7818608E-02  0.1038382E+00
          4   -1    0    0  502    0  0.00000000000E+00  0.00000000000E+00  0.10743398079E+03  0.10743398079E+03  0.00000000000E+00 0.  1.
         -4   -1    0    0    0  501 -0.00000000000E+00 -0.00000000000E+00 -0.18544529991E+04  0.18544529991E+04  0.00000000000E+00 0. -1.
    9000007    1    1    2  502    0  0.10848430672E+03 -0.35675197748E+02 -0.12291658284E+04  0.12976479485E+04  0.40000000000E+03 0. -1.
   -9000007    1    1    2    0  501 -0.10848430672E+03  0.35675197748E+02 -0.51785318993E+03  0.66423903142E+03  0.40000000000E+03 0.  1.
<mgrwt>
<rscale>  2 0.41598265E+03</rscale>
<asrwt>0</asrwt>
<pdfrwt beam="1">  1        4 0.16528305E-01 0.41598265E+03</pdfrwt>
<pdfrwt beam="2">  1       -4 0.28530046E+00 0.41598265E+03</pdfrwt>
<totfact> 0.25590997E+00</totfact>
</mgrwt>
</event>
<event>
 4    1  0.2533915E-002  0.7370155E+03  0.7818608E-02  0.9655944E-01
          2   -1    0    0  502    0  0.00000000000E+00  0.00000000000E+00  0.28776892311E+04  0.28776892311E+04  0.00000000000E+00 0.  1.
         -2   -1    0    0    0  501 -0.00000000000E+00 -0.00000000000E+00 -0.25589361198E+03  0.25589361198E+03  0.00000000000E+00 0. -1.
    9000007    1    1    2  502    0 -0.42144455327E+03 -0.45340526451E+03  0.21134112963E+04  0.22382357232E+04  0.40000000000E+03 0.  1.
   -9000007    1    1    2    0  501  0.42144455327E+03  0.45340526451E+03  0.50838432285E+03  0.89534711988E+03  0.40000000000E+03 0. -1.
<mgrwt>
<rscale>  2 0.73701550E+03</rscale>
<asrwt>0</asrwt>
<pdfrwt beam="1">  1        2 0.44272140E+00 0.73701550E+03</pdfrwt>
<pdfrwt beam="2">  1       -2 0.39368250E-01 0.73701550E+03</pdfrwt>
<totfact> 0.13415109E+01</totfact>
</mgrwt>
</event>
<event>
 4    1  0.2533915E-002  0.5294998E+03  0.7818608E-02  0.1006354E+00
          2   -1    0    0  502    0  0.00000000000E+00  0.00000000000E+00  0.10351887015E+04  0.10351887015E+04  0.00000000000E+00 0.  1.
         -2   -1    0    0    0  501 -0.00000000000E+00 -0.00000000000E+00 -0.56685313457E+03  0.56685313457E+03  0.00000000000E+00 0. -1.
    9000007    1    1    2  502    0  0.25876025784E+03  0.23111277406E+03 -0.34468009038E+03  0.63180246128E+03  0.40000000000E+03 0. -1.
   -9000007    1    1    2    0  501 -0.25876025784E+03 -0.23111277406E+03  0.81301565730E+03  0.97023937479E+03  0.40000000000E+03 0.  1.
<mgrwt>
<rscale>  2 0.52949975E+03</rscale>
<asrwt>0</asrwt>
<pdfrwt beam="1">  1        2 0.15925980E+00 0.52949975E+03</pdfrwt>
<pdfrwt beam="2">  1       -2 0.87208174E-01 0.52949975E+03</pdfrwt>
<totfact> 0.28359522E+01</totfact>
</mgrwt>
</event>
<event>
 4    1  0.2533915E-002  0.4674242E+03  0.7818608E-02  0.1022650E+00
          1   -1    0    0  502    0  0.00000000000E+00  0.00000000000E+00  0.93298134246E+03  0.93298134246E+03  0.00000000000E+00 0. -1.
         -1   -1    0    0    0  501 -0.00000000000E+00 -0.00000000000E+00 -0.25432129748E+03  0.25432129748E+03  0.00000000000E+00 0.  1.
    9000007    1    1    2  502    0  0.23163547680E+03  0.69500939293E+02  0.50639524770E+03  0.68914550102E+03  0.40000000000E+03 0.  1.
   -9000007    1    1    2    0  501 -0.23163547680E+03 -0.69500939293E+02  0.17226479728E+03  0.49815713892E+03  0.40000000000E+03 0.  1.
<mgrwt>
<rscale>  2 0.46742419E+03</rscale>
<asrwt>0</asrwt>
<pdfrwt beam="1">  1        1 0.14353559E+00 0.46742419E+03</pdfrwt>
<pdfrwt beam="2">  1       -1 0.39126354E-01 0.46742419E+03</pdfrwt>
<totfact> 0.11347262E+02</totfact>
</mgrwt>
</event>
<event>
 4    1  0.2533915E-002  0.4650937E+03  0.7818608E-02  0.1023314E+00
         -2   -1    0    0    0  501 -0.00000000000E+00  0.00000000000E+00  0.22413647951E+03  0.22413647951E+03  0.00000000000E+00 0.  1.
          2   -1    0    0  502    0  0.00000000000E+00 -0.00000000000E+00 -0.10723724730E+04  0.10723724730E+04  0.00000000000E+00 0. -1.
    9000007    1    1    2  502    0 -0.10766493103E+03  0.21147201986E+03 -0.21907989277E+03  0.51410908567E+03  0.40000000000E+03 0.  1.
   -9000007    1    1    2    0  501  0.10766493103E+03 -0.21147201986E+03 -0.62915610075E+03  0.78239986686E+03  0.40000000000E+03 0. -1.
<mgrwt>
<rscale>  2 0.46509370E+03</rscale>
<asrwt>0</asrwt>
<pdfrwt beam="1">  1        2 0.16498038E+00 0.46509370E+03</pdfrwt>
<pdfrwt beam="2">  1       -2 0.34482535E-01 0.46509370E+03</pdfrwt>
<totfact> 0.18473047E+02</totfact>
</mgrwt>
</event>
<event>
 4    1  0.2533915E-002  0.6384706E+03  0.7818608E-02  0.9828657E-01
          1   -1    0    0  502    0  0.00000000000E+00  0.00000000000E+00  0.11271684815E+04  0.11271684815E+04  0.00000000000E+00 0. -1.
         -1   -1    0    0    0  501 -0.00000000000E+00 -0.00000000000E+00 -0.49758671119E+03  0.49758671119E+03  0.00000000000E+00 0.  1.
    9000007    1    1    2  502    0 -0.31953268141E+03  0.38150166761E+03 -0.10981500355E+03  0.64784565437E+03  0.40000000000E+03 0. -1.
   -9000007    1    1    2    0  501  0.31953268141E+03 -0.38150166761E+03  0.73939677387E+03  0.97690953833E+03  0.40000000000E+03 0. -1.
<mgrwt>
<rscale>  2 0.63847056E+03</rscale>
<asrwt>0</asrwt>
<pdfrwt beam="1">  1        1 0.17341053E+00 0.63847056E+03</pdfrwt>
<pdfrwt beam="2">  1       -1 0.76551802E-01 0.63847056E+03</pdfrwt>
<totfact> 0.21658229E+01</totfact>
</mgrwt>
</event>
<event>
 4    1  0.2533915E-002  0.4352484E+03  0.7818608E-02  0.1032215E+00
         -2   -1    0    0    0  501 -0.00000000000E+00  0.00000000000E+00  0.25770339059E+03  0.25770339059E+03  0.00000000000E+00 0.  1.
          2   -1    0    0  502    0  0.00000000000E+00 -0.00000000000E+00 -0.85159461467E+03  0.85159461467E+03  0.00000000000E+00 0. -1.
    9000007    1    1    2  502    0  0.53681934794E+02 -0.16297064811E+03 -0.50207598519E+03  0.66447082492E+03  0.40000000000E+03 0. -1.
   -9000007    1    1    2    0  501 -0.53681934794E+02  0.16297064811E+03 -0.91815238885E+02  0.44482718033E+03  0.40000000000E+03 0.  1.
<mgrwt>
<rscale>  2 0.43524841E+03</rscale>
<asrwt>0</asrwt>
<pdfrwt beam="1">  1        2 0.13101456E+00 0.43524841E+03</pdfrwt>
<pdfrwt beam="2">  1       -2 0.39646675E-01 0.43524841E+03</pdfrwt>
<totfact> 0.19662577E+02</totfact>
</mgrwt>
</event>
<event>
 4    1  0.2533915E-002  0.4034585E+03  0.7818608E-02  0.1042589E+00
          2   -1    0    0  502    0  0.00000000000E+00  0.00000000000E+00  0.76439899126E+03  0.76439899126E+03  0.00000000000E+00 0.  1.
         -2   -1    0    0    0  501 -0.00000000000E+00 -0.00000000000E+00 -0.21934160208E+03  0.21934160208E+03  0.00000000000E+00 0. -1.
    9000007    1    1    2  502    0 -0.46022492072E+01 -0.52513037557E+02  0.35649275203E+03  0.53839194093E+03  0.40000000000E+03 0. -1.
   -9000007    1    1    2    0  501  0.46022492072E+01  0.52513037557E+02  0.18856463716E+03  0.44534865240E+03  0.40000000000E+03 0. -1.
<mgrwt>
<rscale>  2 0.40345855E+03</rscale>
<asrwt>0</asrwt>
<pdfrwt beam="1">  1        2 0.11759984E+00 0.40345855E+03</pdfrwt>
<pdfrwt beam="2">  1       -2 0.33744862E-01 0.40345855E+03</pdfrwt>
<totfact> 0.30833429E+02</totfact>
</mgrwt>
</event>
<event>
 4    1  0.2533915E-002  0.4019682E+03  0.7818608E-02  0.1043100E+00
         -2   -1    0    0    0  501 -0.00000000000E+00  0.00000000000E+00  0.11030294437E+03  0.11030294437E+03  0.00000000000E+00 0.  1.
          2   -1    0    0  502    0  0.00000000000E+00 -0.00000000000E+00 -0.14771059161E+04  0.14771059161E+04  0.00000000000E+00 0. -1.
    9000007    1    1    2  502    0 -0.35341328738E+02  0.18150500600E+02 -0.75566780052E+03  0.85592772764E+03  0.40000000000E+03 0. -1.
   -9000007    1    1    2    0  501  0.35341328738E+02 -0.18150500600E+02 -0.61113517116E+03  0.73148113279E+03  0.40000000000E+03 0.  1.
<mgrwt>
<rscale>  2 0.40196822E+03</rscale>
<asrwt>0</asrwt>
<pdfrwt beam="1">  1        2 0.22724705E+00 0.40196822E+03</pdfrwt>
<pdfrwt beam="2">  1       -2 0.16969685E-01 0.40196822E+03</pdfrwt>
<totfact> 0.38633304E+02</totfact>
</mgrwt>
</event>
<event>
 4    1  0.2533915E-002  0.4031450E+03  0.7818608E-02  0.1042696E+00
         -2   -1    0    0    0  501 -0.00000000000E+00  0.00000000000E+00  0.25253771818E+03  0.25253771818E+03  0.00000000000E+00 0.  1.
          2   -1    0    0  502    0  0.00000000000E+00 -0.00000000000E+00 -0.66233926008E+03  0.66233926008E+03  0.00000000000E+00 0. -1.
    9000007    1    1    2  502    0 -0.17173896930E+02  0.47232857792E+02 -0.12789779754E+03  0.42294648858E+03  0.40000000000E+03 0.  1.
   -9000007    1    1    2    0  501  0.17173896930E+02 -0.47232857792E+02 -0.28190374436E+03  0.49193048968E+03  0.40000000000E+03 0. -1.
<mgrwt>
<rscale>  2 0.40314499E+03</rscale>
<asrwt>0</asrwt>
<pdfrwt beam="1">  1        2 0.10189835E+00 0.40314499E+03</pdfrwt>
<pdfrwt beam="2">  1       -2 0.38851957E-01 0.40314499E+03</pdfrwt>
<totfact> 0.28210766E+02</totfact>
</mgrwt>
</event>
<event>
 4    1  0.2533915E-002  0.4442889E+03  0.7818608E-02  0.1029439E+00
         -2   -1    0    0    0  501 -0.00000000000E+00  0.00000000000E+00  0.30670378222E+03  0.30670378222E+03  0.00000000000E+00 0.  1.
          2   -1    0    0  502    0  0.00000000000E+00 -0.00000000000E+00 -0.64361346493E+03  0.64361346493E+03  0.00000000000E+00 0. -1.
    9000007    1    1    2  502    0  0.45151684809E+02 -0.18802635459E+03 -0.16581360559E+03  0.47422224374E+03  0.40000000000E+03 0. -1.
   -9000007    1    1    2    0  501 -0.45151684809E+02  0.18802635459E+03 -0.17109607712E+03  0.47609500340E+03  0.40000000000E+03 0. -1.
<mgrwt>
<rscale>  2 0.44428885E+03</rscale>
<asrwt>0</asrwt>
<pdfrwt beam="1">  1        2 0.99017456E-01 0.44428885E+03</pdfrwt>
<pdfrwt beam="2">  1       -2 0.47185197E-01 0.44428885E+03</pdfrwt>
<totfact> 0.19909448E+02</totfact>
</mgrwt>
</event>
<event>
 4    1  0.2533915E-002  0.4949325E+03  0.7818608E-02  0.1015110E+00
          2   -1    0    0  502    0  0.00000000000E+00  0.00000000000E+00  0.88752884489E+03  0.88752884489E+03  0.00000000000E+00 0.  1.
         -2   -1    0    0    0  501 -0.00000000000E+00 -0.00000000000E+00 -0.30093412661E+03  0.30093412661E+03  0.00000000000E+00 0. -1.
    9000007    1    1    2  502    0  0.26492540701E+03 -0.12154308846E+03  0.46434407444E+03  0.67865573975E+03  0.40000000000E+03 0.  1.
   -9000007    1    1    2    0  501 -0.26492540701E+03  0.12154308846E+03  0.12225064384E+03  0.50980723176E+03  0.40000000000E+03 0. -1.
<mgrwt>
<rscale>  2 0.49493251E+03</rscale>
<asrwt>0</asrwt>
<pdfrwt beam="1">  1        2 0.13654290E+00 0.49493251E+03</pdfrwt>
<pdfrwt beam="2">  1       -2 0.46297558E-01 0.49493251E+03</pdfrwt>
<totfact> 0.13644567E+02</totfact>
</mgrwt>
</event>
<event>
 4    1  0.2533915E-002  0.4197032E+03  0.7818608E-02  0.1037163E+00
         -2   -1    0    0    0  501 -0.00000000000E+00  0.00000000000E+00  0.40124831173E+03  0.40124831173E+03  0.00000000000E+00 0.  1.
          2   -1    0    0  502    0  0.00000000000E+00 -0.00000000000E+00 -0.44571695587E+03  0.44571695587E+03  0.00000000000E+00 0. -1.
    9000007    1    1    2  502    0 -0.58005941870E+01  0.12695342091E+03  0.29725281440E+02  0.42075457256E+03  0.40000000000E+03 0.  1.
   -9000007    1    1    2    0  501  0.58005941870E+01 -0.12695342091E+03 -0.74193925585E+02  0.42621069504E+03  0.40000000000E+03 0.  1.
<mgrwt>
<rscale>  2 0.41970325E+03</rscale>
<asrwt>0</asrwt>
<pdfrwt beam="1">  1        2 0.68571839E-01 0.41970325E+03</pdfrwt>
<pdfrwt beam="2">  1       -2 0.61730510E-01 0.41970325E+03</pdfrwt>
<totfact> 0.17606314E+02</totfact>
</mgrwt>
</event>
<event>
 4    1  0.2533915E-002  0.4459256E+03  0.7818608E-02  0.1028944E+00
         -2   -1    0    0    0  501 -0.00000000000E+00  0.00000000000E+00  0.18100649950E+03  0.18100649950E+03  0.00000000000E+00 0. -1.
          2   -1    0    0  502    0  0.00000000000E+00 -0.00000000000E+00 -0.11023446051E+04  0.11023446051E+04  0.00000000000E+00 0.  1.
    9000007    1    1    2  502    0 -0.15302610426E+02 -0.19650825237E+03 -0.42315775178E+03  0.61474559455E+03  0.40000000000E+03 0. -1.
   -9000007    1    1    2    0  501  0.15302610426E+02  0.19650825237E+03 -0.49818035387E+03  0.66860551008E+03  0.40000000000E+03 0.  1.
<mgrwt>
<rscale>  2 0.44592563E+03</rscale>
<asrwt>0</asrwt>
<pdfrwt beam="1">  1        2 0.16959148E+00 0.44592563E+03</pdfrwt>
<pdfrwt beam="2">  1       -2 0.27847154E-01 0.44592563E+03</pdfrwt>
<totfact> 0.26364711E+02</totfact>
</mgrwt>
</event>
<event>
 4    1  0.2533915E-002  0.4568753E+03  0.7818608E-02  0.1025691E+00
         -1   -1    0    0    0  501 -0.00000000000E+00  0.00000000000E+00  0.12836235046E+03  0.12836235046E+03  0.00000000000E+00 0.  1.
          1   -1    0    0  502    0  0.00000000000E+00 -0.00000000000E+00 -0.20469230712E+04  0.20469230712E+04  0.00000000000E+00 0. -1.
    9000007    1    1    2  502    0 -0.16206751492E+03  0.14989707542E+03 -0.46614608944E+03  0.65270758331E+03  0.40000000000E+03 0.  1.
   -9000007    1    1    2    0  501  0.16206751492E+03 -0.14989707542E+03 -0.14524146313E+04  0.15225778384E+04  0.40000000000E+03 0. -1.
<mgrwt>
<rscale>  2 0.45687527E+03</rscale>
<asrwt>0</asrwt>
<pdfrwt beam="1">  1        1 0.31491124E+00 0.45687527E+03</pdfrwt>
<pdfrwt beam="2">  1       -1 0.19748054E-01 0.45687527E+03</pdfrwt>
<totfact> 0.62351435E+01</totfact>
</mgrwt>
</event>
<event>
 4    1  0.2533915E-002  0.4977310E+03  0.7818608E-02  0.1014373E+00
         -2   -1    0    0    0  501 -0.00000000000E+00  0.00000000000E+00  0.24516970220E+03  0.24516970220E+03  0.00000000000E+00 0.  1.
          2   -1    0    0  502    0  0.00000000000E+00 -0.00000000000E+00 -0.10556532590E+04  0.10556532590E+04  0.00000000000E+00 0. -1.
    9000007    1    1    2  502    0 -0.27254831796E+03 -0.11598930143E+03 -0.27067847948E+03  0.56657121611E+03  0.40000000000E+03 0. -1.
   -9000007    1    1    2    0  501  0.27254831796E+03  0.11598930143E+03 -0.53980507730E+03  0.73425174507E+03  0.40000000000E+03 0.  1.
<mgrwt>
<rscale>  2 0.49773096E+03</rscale>
<asrwt>0</asrwt>
<pdfrwt beam="1">  1        2 0.16240819E+00 0.49773096E+03</pdfrwt>
<pdfrwt beam="2">  1       -2 0.37718416E-01 0.49773096E+03</pdfrwt>
<totfact> 0.15896835E+02</totfact>
</mgrwt>
</event>
<event>
 4    1  0.2533915E-002  0.4453911E+03  0.7818608E-02  0.1029105E+00
         -2   -1    0    0    0  501 -0.00000000000E+00  0.00000000000E+00  0.16138473945E+03  0.16138473945E+03  0.00000000000E+00 0.  1.
          2   -1    0    0  502    0  0.00000000000E+00 -0.00000000000E+00 -0.20043254578E+04  0.20043254578E+04  0.00000000000E+00 0. -1.
    9000007    1    1    2  502    0  0.15051473342E+03  0.12537361545E+03 -0.24806933044E+03  0.50981528138E+03  0.40000000000E+03 0.  1.
   -9000007    1    1    2    0  501 -0.15051473342E+03 -0.12537361545E+03 -0.15948713879E+04  0.16558949158E+04  0.40000000000E+03 0. -1.
<mgrwt>
<rscale>  2 0.44539110E+03</rscale>
<asrwt>0</asrwt>
<pdfrwt beam="1">  1        2 0.30835775E+00 0.44539110E+03</pdfrwt>
<pdfrwt beam="2">  1       -2 0.24828422E-01 0.44539110E+03</pdfrwt>
<totfact> 0.10314971E+02</totfact>
</mgrwt>
</event>
<event>
 4    1  0.2533915E-002  0.4126090E+03  0.7818608E-02  0.1039499E+00
          2   -1    0    0  502    0  0.00000000000E+00  0.00000000000E+00  0.35336198531E+03  0.35336198531E+03  0.00000000000E+00 0. -1.
         -2   -1    0    0    0  501 -0.00000000000E+00 -0.00000000000E+00 -0.86021334594E+03  0.86021334594E+03  0.00000000000E+00 0.  1.
    9000007    1    1    2  502    0 -0.60268482098E+02 -0.81325988988E+02  0.14903431836E+03  0.43869970876E+03  0.40000000000E+03 0. -1.
   -9000007    1    1    2    0  501  0.60268482098E+02  0.81325988988E+02 -0.65588567900E+03  0.77487562249E+03  0.40000000000E+03 0.  1.
<mgrwt>
<rscale>  2 0.41260902E+03</rscale>
<asrwt>0</asrwt>
<pdfrwt beam="1">  1        2 0.54363383E-01 0.41260902E+03</pdfrwt>
<pdfrwt beam="2">  1       -2 0.13234051E+00 0.41260902E+03</pdfrwt>
<totfact> 0.39520919E+01</totfact>
</mgrwt>
</event>
<event>
 4    1  0.2533915E-002  0.4108077E+03  0.7818608E-02  0.1040100E+00
          2   -1    0    0  502    0  0.00000000000E+00  0.00000000000E+00  0.11364263554E+04  0.11364263554E+04  0.00000000000E+00 0.  1.
         -2   -1    0    0    0  501 -0.00000000000E+00 -0.00000000000E+00 -0.15173182145E+03  0.15173182145E+03  0.00000000000E+00 0. -1.
    9000007    1    1    2  502    0 -0.46428886518E+02  0.81285682791E+02  0.39839521551E+03  0.57226021308E+03  0.40000000000E+03 0. -1.
   -9000007    1    1    2    0  501  0.46428886518E+02 -0.81285682791E+02  0.58629931845E+03  0.71589796378E+03  0.40000000000E+03 0.  1.
<mgrwt>
<rscale>  2 0.41080775E+03</rscale>
<asrwt>0</asrwt>
<pdfrwt beam="1">  1        2 0.17483482E+00 0.41080775E+03</pdfrwt>
<pdfrwt beam="2">  1       -2 0.23343358E-01 0.41080775E+03</pdfrwt>
<totfact> 0.34628950E+02</totfact>
</mgrwt>
</event>
<event>
 4    1  0.2533915E-002  0.5014741E+03  0.7818608E-02  0.1013395E+00
          1   -1    0    0  502    0  0.00000000000E+00  0.00000000000E+00  0.24312757042E+04  0.24312757042E+04  0.00000000000E+00 0.  1.
         -1   -1    0    0    0  501 -0.00000000000E+00 -0.00000000000E+00 -0.10346016122E+03  0.10346016122E+03  0.00000000000E+00 0. -1.
    9000007    1    1    2  502    0  0.22613332757E+03 -0.20084820706E+03  0.11437090933E+04  0.12488181510E+04  0.40000000000E+03 0. -1.
   -9000007    1    1    2    0  501 -0.22613332757E+03  0.20084820706E+03  0.11841064496E+04  0.12859177144E+04  0.40000000000E+03 0. -1.
<mgrwt>
<rscale>  2 0.50147411E+03</rscale>
<asrwt>0</asrwt>
<pdfrwt beam="1">  1        1 0.37404237E+00 0.50147411E+03</pdfrwt>
<pdfrwt beam="2">  1       -1 0.15916950E-01 0.50147411E+03</pdfrwt>
<totfact> 0.48813631E+01</totfact>
</mgrwt>
</event>
<event>
 4    1  0.2533915E-002  0.4188075E+03  0.7818608E-02  0.1037455E+00
          2   -1    0    0  502    0  0.00000000000E+00  0.00000000000E+00  0.15721691149E+04  0.15721691149E+04  0.00000000000E+00 0.  1.
         -2   -1    0    0    0  501 -0.00000000000E+00 -0.00000000000E+00 -0.12249659613E+03  0.12249659613E+03  0.00000000000E+00 0. -1.
    9000007    1    1    2  502    0 -0.12346242804E+03  0.12520775671E+02  0.47171707598E+03  0.63080642096E+03  0.40000000000E+03 0. -1.
   -9000007    1    1    2    0  501  0.12346242804E+03 -0.12520775671E+02  0.97795544277E+03  0.10638592900E+04  0.40000000000E+03 0. -1.
<mgrwt>
<rscale>  2 0.41880752E+03</rscale>
<asrwt>0</asrwt>
<pdfrwt beam="1">  1        2 0.24187216E+00 0.41880752E+03</pdfrwt>
<pdfrwt beam="2">  1       -2 0.18845631E-01 0.41880752E+03</pdfrwt>
<totfact> 0.28624022E+02</totfact>
</mgrwt>
</event>
<event>
 4    1  0.2533915E-002  0.4051170E+03  0.7818608E-02  0.1042022E+00
         -1   -1    0    0    0  501 -0.00000000000E+00  0.00000000000E+00  0.20730719978E+03  0.20730719978E+03  0.00000000000E+00 0.  1.
          1   -1    0    0  502    0  0.00000000000E+00 -0.00000000000E+00 -0.13305513946E+04  0.13305513946E+04  0.00000000000E+00 0. -1.
    9000007    1    1    2  502    0 -0.13374792113E+02  0.62776885691E+02 -0.72276860931E+02  0.41151399377E+03  0.40000000000E+03 0.  1.
   -9000007    1    1    2    0  501  0.13374792113E+02 -0.62776885691E+02 -0.10509673339E+04  0.11263446006E+04  0.40000000000E+03 0. -1.
<mgrwt>
<rscale>  2 0.40511705E+03</rscale>
<asrwt>0</asrwt>
<pdfrwt beam="1">  1        1 0.20470021E+00 0.40511705E+03</pdfrwt>
<pdfrwt beam="2">  1       -1 0.31893415E-01 0.40511705E+03</pdfrwt>
<totfact> 0.84148944E+01</totfact>
</mgrwt>
</event>
<event>
 4    1  0.2533915E-002  0.4738511E+03  0.7818608E-02  0.1020839E+00
         -2   -1    0    0    0  501 -0.00000000000E+00  0.00000000000E+00  0.10792637556E+04  0.10792637556E+04  0.00000000000E+00 0.  1.
          2   -1    0    0  502    0  0.00000000000E+00 -0.00000000000E+00 -0.23552927370E+03  0.23552927370E+03  0.00000000000E+00 0. -1.
    9000007    1    1    2  502    0  0.18575070252E+03  0.17329622067E+03  0.19729766321E+03  0.51328478596E+03  0.40000000000E+03 0. -1.
   -9000007    1    1    2    0  501 -0.18575070252E+03 -0.17329622067E+03  0.64643681874E+03  0.80150824338E+03  0.40000000000E+03 0.  1.
<mgrwt>
<rscale>  2 0.47385114E+03</rscale>
<asrwt>0</asrwt>
<pdfrwt beam="1">  1        2 0.36235273E-01 0.47385114E+03</pdfrwt>
<pdfrwt beam="2">  1       -2 0.16604058E+00 0.47385114E+03</pdfrwt>
<totfact> 0.33899274E+01</totfact>
</mgrwt>
</event>
<event>
 4    1  0.2533915E-002  0.4022973E+03  0.7818608E-02  0.1042987E+00
          1   -1    0    0  502    0  0.00000000000E+00  0.00000000000E+00  0.45210189960E+03  0.45210189960E+03  0.00000000000E+00 0.  1.
         -1   -1    0    0    0  501 -0.00000000000E+00 -0.00000000000E+00 -0.47857251939E+03  0.47857251939E+03  0.00000000000E+00 0. -1.
    9000007    1    1    2  502    0  0.39543492554E+02 -0.16716677138E+02 -0.24682587290E+03  0.47198108715E+03  0.40000000000E+03 0. -1.
   -9000007    1    1    2    0  501 -0.39543492554E+02  0.16716677138E+02  0.22035525312E+03  0.45869333184E+03  0.40000000000E+03 0.  1.
<mgrwt>
<rscale>  2 0.40229732E+03</rscale>
<asrwt>0</asrwt>
<pdfrwt beam="1">  1        1 0.69554139E-01 0.40229732E+03</pdfrwt>
<pdfrwt beam="2">  1       -1 0.73626541E-01 0.40229732E+03</pdfrwt>
<totfact> 0.99231130E+01</totfact>
</mgrwt>
</event>
<event>
 4    1  0.2533915E-002  0.4461571E+03  0.7818608E-02  0.1028874E+00
         -2   -1    0    0    0  501 -0.00000000000E+00  0.00000000000E+00  0.11247298504E+03  0.11247298504E+03  0.00000000000E+00 0.  1.
          2   -1    0    0  502    0  0.00000000000E+00 -0.00000000000E+00 -0.17772900292E+04  0.17772900292E+04  0.00000000000E+00 0. -1.
    9000007    1    1    2  502    0  0.19704770099E+03  0.15110380681E+02 -0.77112118645E+03  0.89088944559E+03  0.40000000000E+03 0. -1.
   -9000007    1    1    2    0  501 -0.19704770099E+03 -0.15110380681E+02 -0.89369585775E+03  0.99887356869E+03  0.40000000000E+03 0. -1.
<mgrwt>
<rscale>  2 0.44615706E+03</rscale>
<asrwt>0</asrwt>
<pdfrwt beam="1">  1        2 0.27342925E+00 0.44615706E+03</pdfrwt>
<pdfrwt beam="2">  1       -2 0.17303535E-01 0.44615706E+03</pdfrwt>
<totfact> 0.25604614E+02</totfact>
</mgrwt>
</event>
<event>
 4    1  0.2533915E-002  0.4475162E+03  0.7818608E-02  0.1028465E+00
         -2   -1    0    0    0  501 -0.00000000000E+00  0.00000000000E+00  0.56214146949E+02  0.56214146949E+02  0.00000000000E+00 0. -1.
          2   -1    0    0  502    0  0.00000000000E+00 -0.00000000000E+00 -0.35740359818E+04  0.35740359818E+04  0.00000000000E+00 0.  1.
    9000007    1    1    2  502    0  0.12036066796E+02 -0.20031449098E+03 -0.16564153470E+04  0.17158037662E+04  0.40000000000E+03 0. -1.
   -9000007    1    1    2    0  501 -0.12036066796E+02  0.20031449098E+03 -0.18614064878E+04  0.19144463625E+04  0.40000000000E+03 0.  1.
<mgrwt>
<rscale>  2 0.44751621E+03</rscale>
<asrwt>0</asrwt>
<pdfrwt beam="1">  1        2 0.54985186E+00 0.44751621E+03</pdfrwt>
<pdfrwt beam="2">  1       -2 0.86483277E-02 0.44751621E+03</pdfrwt>
<totfact> 0.71582753E+01</totfact>
</mgrwt>
</event>
<event>
 4    1  0.2533915E-002  0.4140747E+03  0.7818608E-02  0.1039012E+00
         -2   -1    0    0    0  501 -0.00000000000E+00  0.00000000000E+00  0.33491750451E+03  0.33491750451E+03  0.00000000000E+00 0. -1.
          2   -1    0    0  502    0  0.00000000000E+00 -0.00000000000E+00 -0.64037845304E+03  0.64037845304E+03  0.00000000000E+00 0.  1.
    9000007    1    1    2  502    0  0.10617180264E+03  0.13615142046E+02 -0.37112151410E+03  0.55604766163E+03  0.40000000000E+03 0.  1.
   -9000007    1    1    2    0  501 -0.10617180264E+03 -0.13615142046E+02  0.65660565575E+02  0.41924829593E+03  0.40000000000E+03 0. -1.
<mgrwt>
<rscale>  2 0.41407466E+03</rscale>
<asrwt>0</asrwt>
<pdfrwt beam="1">  1        2 0.98519761E-01 0.41407466E+03</pdfrwt>
<pdfrwt beam="2">  1       -2 0.51525770E-01 0.41407466E+03</pdfrwt>
<totfact> 0.16820131E+02</totfact>
</mgrwt>
</event>
<event>
 4    1  0.2533915E-002  0.4479601E+03  0.7818608E-02  0.1028332E+00
          1   -1    0    0  502    0  0.00000000000E+00  0.00000000000E+00  0.70882684034E+03  0.70882684034E+03  0.00000000000E+00 0.  1.
         -1   -1    0    0    0  501 -0.00000000000E+00 -0.00000000000E+00 -0.45804484728E+03  0.45804484728E+03  0.00000000000E+00 0. -1.
    9000007    1    1    2  502    0  0.11936507055E+03  0.16254309721E+03 -0.23517995356E+03  0.50594257488E+03  0.40000000000E+03 0. -1.
   -9000007    1    1    2    0  501 -0.11936507055E+03 -0.16254309721E+03  0.48596194662E+03  0.66092911275E+03  0.40000000000E+03 0.  1.
<mgrwt>
<rscale>  2 0.44796013E+03</rscale>
<asrwt>0</asrwt>
<pdfrwt beam="1">  1        1 0.10905028E+00 0.44796013E+03</pdfrwt>
<pdfrwt beam="2">  1       -1 0.70468438E-01 0.44796013E+03</pdfrwt>
<totfact> 0.57494902E+01</totfact>
</mgrwt>
</event>
<event>
 4    1  0.2533915E-002  0.4183538E+03  0.7818608E-02  0.1037603E+00
         -2   -1    0    0    0  501 -0.00000000000E+00  0.00000000000E+00  0.92198648666E+02  0.92198648666E+02  0.00000000000E+00 0.  1.
          2   -1    0    0  502    0  0.00000000000E+00 -0.00000000000E+00 -0.20612619161E+04  0.20612619161E+04  0.00000000000E+00 0. -1.
    9000007    1    1    2  502    0  0.43922861102E+02 -0.11441469431E+03 -0.12872887130E+04  0.13535627694E+04  0.40000000000E+03 0. -1.
   -9000007    1    1    2    0  501 -0.43922861102E+02  0.11441469431E+03 -0.68177455439E+03  0.79989779535E+03  0.40000000000E+03 0.  1.
<mgrwt>
<rscale>  2 0.41835385E+03</rscale>
<asrwt>0</asrwt>
<pdfrwt beam="1">  1        2 0.31711718E+00 0.41835385E+03</pdfrwt>
<pdfrwt beam="2">  1       -2 0.14184409E-01 0.41835385E+03</pdfrwt>
<totfact> 0.25310051E+02</totfact>
</mgrwt>
</event>
<event>
 4    1  0.2533915E-002  0.6910741E+03  0.7818608E-02  0.9732620E-01
          2   -1    0    0  502    0  0.00000000000E+00  0.00000000000E+00  0.59522897489E+03  0.59522897489E+03  0.00000000000E+00 0. -1.
         -2   -1    0    0    0  501 -0.00000000000E+00 -0.00000000000E+00 -0.10802025901E+04  0.10802025901E+04  0.00000000000E+00 0.  1.
    9000007    1    1    2  502    0  0.26055540746E+03  0.49969424507E+03  0.18237662903E+03  0.71473400208E+03  0.40000000000E+03 0. -1.
   -9000007    1    1    2    0  501 -0.26055540746E+03 -0.49969424507E+03 -0.66735024429E+03  0.96069756295E+03  0.40000000000E+03 0.  1.
<mgrwt>
<rscale>  2 0.69107413E+03</rscale>
<asrwt>0</asrwt>
<pdfrwt beam="1">  1        2 0.91573688E-01 0.69107413E+03</pdfrwt>
<pdfrwt beam="2">  1       -2 0.16618501E+00 0.69107413E+03</pdfrwt>
<totfact> 0.11620266E+01</totfact>
</mgrwt>
</event>
<event>
 4    1  0.2533915E-002  0.4223766E+03  0.7818608E-02  0.1036296E+00
         -2   -1    0    0    0  501 -0.00000000000E+00  0.00000000000E+00  0.16233036073E+03  0.16233036073E+03  0.00000000000E+00 0.  1.
          2   -1    0    0  502    0  0.00000000000E+00 -0.00000000000E+00 -0.11062234948E+04  0.11062234948E+04  0.00000000000E+00 0. -1.
    9000007    1    1    2  502    0  0.92203487552E+02  0.99501471631E+02 -0.52317999213E+03  0.67239819314E+03  0.40000000000E+03 0.  1.
   -9000007    1    1    2    0  501 -0.92203487552E+02 -0.99501471631E+02 -0.42071314190E+03  0.59615566234E+03  0.40000000000E+03 0.  1.
<mgrwt>
<rscale>  2 0.42237664E+03</rscale>
<asrwt>0</asrwt>
<pdfrwt beam="1">  1        2 0.17018823E+00 0.42237664E+03</pdfrwt>
<pdfrwt beam="2">  1       -2 0.24973901E-01 0.42237664E+03</pdfrwt>
<totfact> 0.31977290E+02</totfact>
</mgrwt>
</event>
<event>
 4    1  0.2533915E-002  0.5833704E+03  0.7818608E-02  0.9940521E-01
         -2   -1    0    0    0  501 -0.00000000000E+00  0.00000000000E+00  0.39641792619E+03  0.39641792619E+03  0.00000000000E+00 0.  1.
          2   -1    0    0  502    0  0.00000000000E+00 -0.00000000000E+00 -0.12423304971E+04  0.12423304971E+04  0.00000000000E+00 0. -1.
    9000007    1    1    2  502    0  0.40548623851E+03  0.12610290547E+03  0.32491735338E+02  0.58427454613E+03  0.40000000000E+03 0.  1.
   -9000007    1    1    2    0  501 -0.40548623851E+03 -0.12610290547E+03 -0.87840430623E+03  0.10544738771E+04  0.40000000000E+03 0. -1.
<mgrwt>
<rscale>  2 0.58337041E+03</rscale>
<asrwt>0</asrwt>
<pdfrwt beam="1">  1        2 0.19112776E+00 0.58337041E+03</pdfrwt>
<pdfrwt beam="2">  1       -2 0.60987375E-01 0.58337041E+03</pdfrwt>
<totfact> 0.46387904E+01</totfact>
</mgrwt>
</event>
<event>
 4    1  0.2533915E-002  0.4646551E+03  0.7818608E-02  0.1023440E+00
          2   -1    0    0  502    0  0.00000000000E+00  0.00000000000E+00  0.16988135108E+03  0.16988135108E+03  0.00000000000E+00 0. -1.
         -2   -1    0    0    0  501 -0.00000000000E+00 -0.00000000000E+00 -0.13005092813E+04  0.13005092813E+04  0.00000000000E+00 0.  1.
    9000007    1    1    2  502    0  0.15051603201E+03  0.18234390396E+03 -0.45440506321E+03  0.64991409946E+03  0.40000000000E+03 0.  1.
   -9000007    1    1    2    0  501 -0.15051603201E+03 -0.18234390396E+03 -0.67622286698E+03  0.82047653289E+03  0.40000000000E+03 0.  1.
<mgrwt>
<rscale>  2 0.46465511E+03</rscale>
<asrwt>0</asrwt>
<pdfrwt beam="1">  1        2 0.26135593E-01 0.46465511E+03</pdfrwt>
<pdfrwt beam="2">  1       -2 0.20007834E+00 0.46465511E+03</pdfrwt>
<totfact> 0.28833965E+01</totfact>
</mgrwt>
</event>
<event>
 4    1  0.2533915E-002  0.4232219E+03  0.7818608E-02  0.1036023E+00
          2   -1    0    0  502    0  0.00000000000E+00  0.00000000000E+00  0.19389856630E+04  0.19389856630E+04  0.00000000000E+00 0. -1.
         -2   -1    0    0    0  501 -0.00000000000E+00 -0.00000000000E+00 -0.97327216200E+02  0.97327216200E+02  0.00000000000E+00 0.  1.
    9000007    1    1    2  502    0  0.76837296033E+02 -0.11494700495E+03  0.11504597822E+04  0.12258362429E+04  0.40000000000E+03 0. -1.
   -9000007    1    1    2    0  501 -0.76837296033E+02  0.11494700495E+03  0.69119866461E+03  0.81047663629E+03  0.40000000000E+03 0.  1.
<mgrwt>
<rscale>  2 0.42322191E+03</rscale>
<asrwt>0</asrwt>
<pdfrwt beam="1">  1        2 0.29830546E+00 0.42322191E+03</pdfrwt>
<pdfrwt beam="2">  1       -2 0.14973419E-01 0.42322191E+03</pdfrwt>
<totfact> 0.26865844E+02</totfact>
</mgrwt>
</event>
<event>
 4    1  0.2533915E-002  0.4537912E+03  0.7818608E-02  0.1026597E+00
         -2   -1    0    0    0  501 -0.00000000000E+00  0.00000000000E+00  0.24250709098E+03  0.24250709098E+03  0.00000000000E+00 0. -1.
          2   -1    0    0  502    0  0.00000000000E+00 -0.00000000000E+00 -0.13526638606E+04  0.13526638606E+04  0.00000000000E+00 0.  1.
    9000007    1    1    2  502    0  0.19687191498E+03  0.84663590704E+02 -0.10416930596E+04  0.11362442101E+04  0.40000000000E+03 0.  1.
   -9000007    1    1    2    0  501 -0.19687191498E+03 -0.84663590704E+02 -0.68463710040E+02  0.45892674153E+03  0.40000000000E+03 0. -1.
<mgrwt>
<rscale>  2 0.45379122E+03</rscale>
<asrwt>0</asrwt>
<pdfrwt beam="1">  1        2 0.20810213E+00 0.45379122E+03</pdfrwt>
<pdfrwt beam="2">  1       -2 0.37308783E-01 0.45379122E+03</pdfrwt>
<totfact> 0.10948152E+02</totfact>
</mgrwt>
</event>
<event>
 4    1  0.2533915E-002  0.4090644E+03  0.7818608E-02  0.1040685E+00
          2   -1    0    0  502    0  0.00000000000E+00  0.00000000000E+00  0.22227132222E+03  0.22227132222E+03  0.00000000000E+00 0. -1.
         -2   -1    0    0    0  501 -0.00000000000E+00 -0.00000000000E+00 -0.81169506226E+03  0.81169506226E+03  0.00000000000E+00 0.  1.
    9000007    1    1    2  502    0  0.74806319407E+02 -0.41686107263E+02 -0.43392778989E+03  0.59634473570E+03  0.40000000000E+03 0.  1.
   -9000007    1    1    2    0  501 -0.74806319407E+02  0.41686107263E+02 -0.15549595015E+03  0.43762164877E+03  0.40000000000E+03 0. -1.
<mgrwt>
<rscale>  2 0.40906444E+03</rscale>
<asrwt>0</asrwt>
<pdfrwt beam="1">  1        2 0.34195588E-01 0.40906444E+03</pdfrwt>
<pdfrwt beam="2">  1       -2 0.12487616E+00 0.40906444E+03</pdfrwt>
<totfact> 0.76041748E+01</totfact>
</mgrwt>
</event>
<event>
 4    1  0.2533915E-002  0.1494446E+04  0.7818608E-02  0.8888155E-01
          2   -1    0    0  502    0  0.00000000000E+00  0.00000000000E+00  0.31498126665E+04  0.31498126665E+04  0.00000000000E+00 0. -1.
         -2   -1    0    0    0  501 -0.00000000000E+00 -0.00000000000E+00 -0.71025354047E+03  0.71025354047E+03  0.00000000000E+00 0.  1.
    9000007    1    1    2  502    0  0.11102789591E+04  0.91686906353E+03  0.12992958508E+04  0.19802873414E+04  0.40000000000E+03 0.  1.
   -9000007    1    1    2    0  501 -0.11102789591E+04 -0.91686906353E+03  0.11402632752E+04  0.18797788655E+04  0.40000000000E+03 0. -1.
<mgrwt>
<rscale>  2 0.14944458E+04</rscale>
<asrwt>0</asrwt>
<pdfrwt beam="1">  1        2 0.48458655E+00 0.14944458E+04</pdfrwt>
<pdfrwt beam="2">  1       -2 0.10926978E+00 0.14944458E+04</pdfrwt>
<totfact> 0.89289081E-01</totfact>
</mgrwt>
</event>
<event>
 4    1  0.2533915E-002  0.4426896E+03  0.7818608E-02  0.1029925E+00
          2   -1    0    0  502    0  0.00000000000E+00  0.00000000000E+00  0.12658262176E+04  0.12658262176E+04  0.00000000000E+00 0.  1.
         -2   -1    0    0    0  501 -0.00000000000E+00 -0.00000000000E+00 -0.15507891533E+03  0.15507891533E+03  0.00000000000E+00 0. -1.
    9000007    1    1    2  502    0 -0.15218336500E+02 -0.18905686470E+03  0.52629476109E+03  0.68772107094E+03  0.40000000000E+03 0. -1.
   -9000007    1    1    2    0  501  0.15218336500E+02  0.18905686470E+03  0.58445254113E+03  0.73318406194E+03  0.40000000000E+03 0.  1.
<mgrwt>
<rscale>  2 0.44268962E+03</rscale>
<asrwt>0</asrwt>
<pdfrwt beam="1">  1        2 0.19474249E+00 0.44268962E+03</pdfrwt>
<pdfrwt beam="2">  1       -2 0.23858295E-01 0.44268962E+03</pdfrwt>
<totfact> 0.27941591E+02</totfact>
</mgrwt>
</event>
<event>
 4    1  0.2533915E-002  0.4259233E+03  0.7818608E-02  0.1035156E+00
         -1   -1    0    0    0  501 -0.00000000000E+00  0.00000000000E+00  0.26597046129E+03  0.26597046129E+03  0.00000000000E+00 0. -1.
          1   -1    0    0  502    0  0.00000000000E+00 -0.00000000000E+00 -0.97626603200E+03  0.97626603200E+03  0.00000000000E+00 0.  1.
    9000007    1    1    2  502    0 -0.97286857931E+02 -0.10929752253E+03 -0.69611139083E+03  0.81607704881E+03  0.40000000000E+03 0.  1.
   -9000007    1    1    2    0  501  0.97286857931E+02  0.10929752253E+03 -0.14184179875E+02  0.42615944448E+03  0.40000000000E+03 0. -1.
<mgrwt>
<rscale>  2 0.42592333E+03</rscale>
<asrwt>0</asrwt>
<pdfrwt beam="1">  1        1 0.15019477E+00 0.42592333E+03</pdfrwt>
<pdfrwt beam="2">  1       -1 0.40918533E-01 0.42592333E+03</pdfrwt>
<totfact> 0.97388606E+01</totfact>
</mgrwt>
</event>
<event>
 4    1  0.2533915E-002  0.4734366E+03  0.7818608E-02  0.1020955E+00
         -2   -1    0    0    0  501 -0.00000000000E+00  0.00000000000E+00  0.98893388707E+03  0.98893388707E+03  0.00000000000E+00 0. -1.
          2   -1    0    0  502    0  0.00000000000E+00 -0.00000000000E+00 -0.29500533128E+03  0.29500533128E+03  0.00000000000E+00 0.  1.
    9000007    1    1    2  502    0  0.30974306362E+02  0.25136192489E+03  0.37945707954E+02  0.47495484174E+03  0.40000000000E+03 0.  1.
   -9000007    1    1    2    0  501 -0.30974306362E+02 -0.25136192489E+03  0.65598284784E+03  0.80898437661E+03  0.40000000000E+03 0. -1.
<mgrwt>
<rscale>  2 0.47343661E+03</rscale>
<asrwt>0</asrwt>
<pdfrwt beam="1">  1        2 0.45385436E-01 0.47343661E+03</pdfrwt>
<pdfrwt beam="2">  1       -2 0.15214367E+00 0.47343661E+03</pdfrwt>
<totfact> 0.33430471E+01</totfact>
</mgrwt>
</event>
<event>
 4    1  0.2533915E-002  0.5609462E+03  0.7818608E-02  0.9989916E-01
          1   -1    0    0  502    0  0.00000000000E+00  0.00000000000E+00  0.29713781896E+03  0.29713781896E+03  0.00000000000E+00 0. -1.
         -1   -1    0    0    0  501 -0.00000000000E+00 -0.00000000000E+00 -0.10900657897E+04  0.10900657897E+04  0.00000000000E+00 0.  1.
    9000007    1    1    2  502    0 -0.27370821156E+03  0.28239058108E+03 -0.51360818964E+03  0.76056163315E+03  0.40000000000E+03 0. -1.
   -9000007    1    1    2    0  501  0.27370821156E+03 -0.28239058108E+03 -0.27931978112E+03  0.62664197552E+03  0.40000000000E+03 0. -1.
<mgrwt>
<rscale>  2 0.56094619E+03</rscale>
<asrwt>0</asrwt>
<pdfrwt beam="1">  1        1 0.45713512E-01 0.56094619E+03</pdfrwt>
<pdfrwt beam="2">  1       -1 0.16770242E+00 0.56094619E+03</pdfrwt>
<totfact> 0.23777578E+01</totfact>
</mgrwt>
</event>
<event>
 4    1  0.2533915E-002  0.5193735E+03  0.7818608E-02  0.1008842E+00
          2   -1    0    0  502    0  0.00000000000E+00  0.00000000000E+00  0.35182259154E+03  0.35182259154E+03  0.00000000000E+00 0.  1.
         -2   -1    0    0    0  501 -0.00000000000E+00 -0.00000000000E+00 -0.89791346920E+03  0.89791346920E+03  0.00000000000E+00 0. -1.
    9000007    1    1    2  502    0  0.30988426316E+03 -0.11713497091E+03 -0.51189794509E+03  0.72923820810E+03  0.40000000000E+03 0. -1.
   -9000007    1    1    2    0  501 -0.30988426316E+03  0.11713497091E+03 -0.34192932567E+02  0.52049785264E+03  0.40000000000E+03 0.  1.
<mgrwt>
<rscale>  2 0.51937352E+03</rscale>
<asrwt>0</asrwt>
<pdfrwt beam="1">  1        2 0.54126554E-01 0.51937352E+03</pdfrwt>
<pdfrwt beam="2">  1       -2 0.13814053E+00 0.51937352E+03</pdfrwt>
<totfact> 0.35217027E+01</totfact>
</mgrwt>
</event>
<event>
 4    1  0.2533915E-002  0.4994608E+03  0.7818608E-02  0.1013920E+00
          1   -1    0    0  502    0  0.00000000000E+00  0.00000000000E+00  0.21525642416E+04  0.21525642416E+04  0.00000000000E+00 0. -1.
         -1   -1    0    0    0  501 -0.00000000000E+00 -0.00000000000E+00 -0.11608109265E+03  0.11608109265E+03  0.00000000000E+00 0.  1.
    9000007    1    1    2  502    0  0.14393258572E+03  0.26219164212E+03  0.97223932939E+03  0.10930280692E+04  0.40000000000E+03 0.  1.
   -9000007    1    1    2    0  501 -0.14393258572E+03 -0.26219164212E+03  0.10642438195E+04  0.11756172650E+04  0.40000000000E+03 0.  1.
<mgrwt>
<rscale>  2 0.49946076E+03</rscale>
<asrwt>0</asrwt>
<pdfrwt beam="1">  1        1 0.33116370E+00 0.49946076E+03</pdfrwt>
<pdfrwt beam="2">  1       -1 0.17858631E-01 0.49946076E+03</pdfrwt>
<totfact> 0.62133576E+01</totfact>
</mgrwt>
</event>
<event>
 4    1  0.2533915E-002  0.5801692E+03  0.7818608E-02  0.9947425E-01
          2   -1    0    0  502    0  0.00000000000E+00  0.00000000000E+00  0.15887701127E+04  0.15887701127E+04  0.00000000000E+00 0. -1.
         -2   -1    0    0    0  501 -0.00000000000E+00 -0.00000000000E+00 -0.23790516573E+03  0.23790516573E+03  0.00000000000E+00 0.  1.
    9000007    1    1    2  502    0  0.20968497962E+03 -0.36418200341E+03  0.97763332128E+03  0.11368215485E+04  0.40000000000E+03 0. -1.
   -9000007    1    1    2    0  501 -0.20968497962E+03  0.36418200341E+03  0.37323162569E+03  0.68985372993E+03  0.40000000000E+03 0.  1.
<mgrwt>
<rscale>  2 0.58016922E+03</rscale>
<asrwt>0</asrwt>
<pdfrwt beam="1">  1        2 0.24442617E+00 0.58016922E+03</pdfrwt>
<pdfrwt beam="2">  1       -2 0.36600796E-01 0.58016922E+03</pdfrwt>
<totfact> 0.82710351E+01</totfact>
</mgrwt>
</event>
<event>
 4    1  0.2533915E-002  0.5660435E+03  0.7818608E-02  0.9978472E-01
          1   -1    0    0  502    0  0.00000000000E+00  0.00000000000E+00  0.10047344547E+04  0.10047344547E+04  0.00000000000E+00 0. -1.
         -1   -1    0    0    0  501 -0.00000000000E+00 -0.00000000000E+00 -0.31890791936E+03  0.31890791936E+03  0.00000000000E+00 0.  1.
    9000007    1    1    2  502    0  0.37477988642E+03  0.14122762939E+03  0.34705816312E+03  0.66396880586E+03  0.40000000000E+03 0.  1.
   -9000007    1    1    2    0  501 -0.37477988642E+03 -0.14122762939E+03  0.33876837224E+03  0.65967356821E+03  0.40000000000E+03 0.  1.
<mgrwt>
<rscale>  2 0.56604347E+03</rscale>
<asrwt>0</asrwt>
<pdfrwt beam="1">  1        1 0.15457453E+00 0.56604347E+03</pdfrwt>
<pdfrwt beam="2">  1       -1 0.49062757E-01 0.56604347E+03</pdfrwt>
<totfact> 0.65084064E+01</totfact>
</mgrwt>
</event>
<event>
 4    1  0.2533915E-002  0.4019681E+03  0.7818608E-02  0.1043100E+00
         -2   -1    0    0    0  501 -0.00000000000E+00  0.00000000000E+00  0.24398153160E+03  0.24398153160E+03  0.00000000000E+00 0.  1.
          2   -1    0    0  502    0  0.00000000000E+00 -0.00000000000E+00 -0.11141939506E+04  0.11141939506E+04  0.00000000000E+00 0. -1.
    9000007    1    1    2  502    0 -0.31828324641E+02 -0.23776427392E+02 -0.86760475107E+03  0.95619891489E+03  0.40000000000E+03 0. -1.
   -9000007    1    1    2    0  501  0.31828324641E+02  0.23776427392E+02 -0.26076679422E+01  0.40197656733E+03  0.40000000000E+03 0.  1.
<mgrwt>
<rscale>  2 0.40196811E+03</rscale>
<asrwt>0</asrwt>
<pdfrwt beam="1">  1        2 0.17141446E+00 0.40196811E+03</pdfrwt>
<pdfrwt beam="2">  1       -2 0.37535620E-01 0.40196811E+03</pdfrwt>
<totfact> 0.14948626E+02</totfact>
</mgrwt>
</event>
<event>
 4    1  0.2533915E-002  0.4084546E+03  0.7818608E-02  0.1040891E+00
         -2   -1    0    0    0  501 -0.00000000000E+00  0.00000000000E+00  0.71872864371E+02  0.71872864371E+02  0.00000000000E+00 0. -1.
          2   -1    0    0  502    0  0.00000000000E+00 -0.00000000000E+00 -0.24780145798E+04  0.24780145798E+04  0.00000000000E+00 0.  1.
    9000007    1    1    2  502    0 -0.82651528578E+02  0.19706103860E+01 -0.88240123994E+03  0.97235132886E+03  0.40000000000E+03 0. -1.
   -9000007    1    1    2    0  501  0.82651528578E+02 -0.19706103860E+01 -0.15237404755E+04  0.15775361153E+04  0.40000000000E+03 0.  1.
<mgrwt>
<rscale>  2 0.40845460E+03</rscale>
<asrwt>0</asrwt>
<pdfrwt beam="1">  1        2 0.38123293E+00 0.40845460E+03</pdfrwt>
<pdfrwt beam="2">  1       -2 0.11057366E-01 0.40845460E+03</pdfrwt>
<totfact> 0.22645677E+02</totfact>
</mgrwt>
</event>
<event>
 4    1  0.2533915E-002  0.6470351E+03  0.7818608E-02  0.9812359E-01
         -2   -1    0    0    0  501 -0.00000000000E+00  0.00000000000E+00  0.11511286106E+04  0.11511286106E+04  0.00000000000E+00 0.  1.
          2   -1    0    0  502    0  0.00000000000E+00 -0.00000000000E+00 -0.36901031670E+03  0.36901031670E+03  0.00000000000E+00 0. -1.
    9000007    1    1    2  502    0  0.60520402958E+02  0.50496701366E+03  0.48232055886E+03  0.80702386926E+03  0.40000000000E+03 0.  1.
   -9000007    1    1    2    0  501 -0.60520402958E+02 -0.50496701366E+03  0.29979773503E+03  0.71311505803E+03  0.40000000000E+03 0. -1.
<mgrwt>
<rscale>  2 0.64703509E+03</rscale>
<asrwt>0</asrwt>
<pdfrwt beam="1">  1        2 0.56770819E-01 0.64703509E+03</pdfrwt>
<pdfrwt beam="2">  1       -2 0.17709671E+00 0.64703509E+03</pdfrwt>
<totfact> 0.16955108E+01</totfact>
</mgrwt>
</event>
<event>
 4    1  0.2533915E-002  0.4229856E+03  0.7818608E-02  0.1036099E+00
         -1   -1    0    0    0  501 -0.00000000000E+00  0.00000000000E+00  0.61308751018E+03  0.61308751018E+03  0.00000000000E+00 0. -1.
          1   -1    0    0  502    0  0.00000000000E+00 -0.00000000000E+00 -0.29207126905E+03  0.29207126905E+03  0.00000000000E+00 0.  1.
    9000007    1    1    2  502    0 -0.11892144066E+03  0.69097943078E+02  0.17353751234E+03  0.45720028759E+03  0.40000000000E+03 0.  1.
   -9000007    1    1    2    0  501  0.11892144066E+03 -0.69097943078E+02  0.14747872880E+03  0.44795849164E+03  0.40000000000E+03 0.  1.
<mgrwt>
<rscale>  2 0.42298562E+03</rscale>
<asrwt>0</asrwt>
<pdfrwt beam="1">  1        1 0.44934041E-01 0.42298562E+03</pdfrwt>
<pdfrwt beam="2">  1       -1 0.94321155E-01 0.42298562E+03</pdfrwt>
<totfact> 0.10303075E+02</totfact>
</mgrwt>
</event>
<event>
 4    1  0.2533915E-002  0.5111382E+03  0.7818608E-02  0.1010912E+00
          1   -1    0    0  502    0  0.00000000000E+00  0.00000000000E+00  0.17924161095E+04  0.17924161095E+04  0.00000000000E+00 0.  1.
         -1   -1    0    0    0  501 -0.00000000000E+00 -0.00000000000E+00 -0.14597354311E+03  0.14597354311E+03  0.00000000000E+00 0. -1.
    9000007    1    1    2  502    0 -0.29956771327E+03 -0.10733795114E+03  0.78613621092E+03  0.93769525578E+03  0.40000000000E+03 0.  1.
   -9000007    1    1    2    0  501  0.29956771327E+03  0.10733795114E+03  0.86030635547E+03  0.10006943968E+04  0.40000000000E+03 0.  1.
<mgrwt>
<rscale>  2 0.51113819E+03</rscale>
<asrwt>0</asrwt>
<pdfrwt beam="1">  1        1 0.27575631E+00 0.51113819E+03</pdfrwt>
<pdfrwt beam="2">  1       -1 0.22457469E-01 0.51113819E+03</pdfrwt>
<totfact> 0.73498705E+01</totfact>
</mgrwt>
</event>
<event>
 4    1  0.2533915E-002  0.4634390E+03  0.7818608E-02  0.1023789E+00
          1   -1    0    0  502    0  0.00000000000E+00  0.00000000000E+00  0.89347222395E+03  0.89347222395E+03  0.00000000000E+00 0.  1.
         -1   -1    0    0    0  501 -0.00000000000E+00 -0.00000000000E+00 -0.32507610208E+03  0.32507610208E+03  0.00000000000E+00 0. -1.
    9000007    1    1    2  502    0  0.17866368555E+03 -0.15117854010E+03 -0.26790122310E+02  0.46421263896E+03  0.40000000000E+03 0. -1.
   -9000007    1    1    2    0  501 -0.17866368555E+03  0.15117854010E+03  0.59518624418E+03  0.75433568707E+03  0.40000000000E+03 0.  1.
<mgrwt>
<rscale>  2 0.46343895E+03</rscale>
<asrwt>0</asrwt>
<pdfrwt beam="1">  1        1 0.13745726E+00 0.46343895E+03</pdfrwt>
<pdfrwt beam="2">  1       -1 0.50011708E-01 0.46343895E+03</pdfrwt>
<totfact> 0.77801583E+01</totfact>
</mgrwt>
</event>
<event>
 4    1  0.2533915E-002  0.6473424E+03  0.7818608E-02  0.9811779E-01
          2   -1    0    0  502    0  0.00000000000E+00  0.00000000000E+00  0.18198351699E+04  0.18198351699E+04  0.00000000000E+00 0. -1.
         -2   -1    0    0    0  501 -0.00000000000E+00 -0.00000000000E+00 -0.24760268916E+03  0.24760268916E+03  0.00000000000E+00 0.  1.
    9000007    1    1    2  502    0 -0.26237013649E+03  0.43613534199E+03  0.10596222344E+04  0.12417130928E+04  0.40000000000E+03 0. -1.
   -9000007    1    1    2    0  501  0.26237013649E+03 -0.43613534199E+03  0.51261024633E+03  0.82572476631E+03  0.40000000000E+03 0. -1.
<mgrwt>
<rscale>  2 0.64734236E+03</rscale>
<asrwt>0</asrwt>
<pdfrwt beam="1">  1        2 0.27997463E+00 0.64734236E+03</pdfrwt>
<pdfrwt beam="2">  1       -2 0.38092722E-01 0.64734236E+03</pdfrwt>
<totfact> 0.56863482E+01</totfact>
</mgrwt>
</event>
<event>
 4    1  0.2533915E-002  0.4684381E+03  0.7818608E-02  0.1022362E+00
          2   -1    0    0  502    0  0.00000000000E+00  0.00000000000E+00  0.86832527145E+03  0.86832527145E+03  0.00000000000E+00 0. -1.
         -2   -1    0    0    0  501 -0.00000000000E+00 -0.00000000000E+00 -0.28670258534E+03  0.28670258534E+03  0.00000000000E+00 0.  1.
    9000007    1    1    2  502    0 -0.10563295738E+03  0.21971787621E+03  0.48966808522E+03  0.67764968862E+03  0.40000000000E+03 0. -1.
   -9000007    1    1    2    0  501  0.10563295738E+03 -0.21971787621E+03  0.91954600897E+02  0.47737816816E+03  0.40000000000E+03 0.  1.
<mgrwt>
<rscale>  2 0.46843811E+03</rscale>
<asrwt>0</asrwt>
<pdfrwt beam="1">  1        2 0.13358850E+00 0.46843811E+03</pdfrwt>
<pdfrwt beam="2">  1       -2 0.44108091E-01 0.46843811E+03</pdfrwt>
<totfact> 0.15510763E+02</totfact>
</mgrwt>
</event>
<event>
 4    1  0.2533915E-002  0.4003770E+03  0.7818608E-02  0.1043649E+00
         -2   -1    0    0    0  501 -0.00000000000E+00  0.00000000000E+00  0.38457195680E+03  0.38457195680E+03  0.00000000000E+00 0. -1.
          2   -1    0    0  502    0  0.00000000000E+00 -0.00000000000E+00 -0.42279931205E+03  0.42279931205E+03  0.00000000000E+00 0.  1.
    9000007    1    1    2  502    0 -0.15356192124E+02  0.81201776106E+01 -0.67073717459E+02  0.40595644285E+03  0.40000000000E+03 0.  1.
   -9000007    1    1    2    0  501  0.15356192124E+02 -0.81201776106E+01  0.28846362207E+02  0.40141482600E+03  0.40000000000E+03 0. -1.
<mgrwt>
<rscale>  2 0.40037701E+03</rscale>
<asrwt>0</asrwt>
<pdfrwt beam="1">  1        2 0.65046048E-01 0.40037701E+03</pdfrwt>
<pdfrwt beam="2">  1       -2 0.59164916E-01 0.40037701E+03</pdfrwt>
<totfact> 0.20438596E+02</totfact>
</mgrwt>
</event>
<event>
 4    1  0.2533915E-002  0.4683153E+03  0.7818608E-02  0.1022397E+00
          1   -1    0    0  502    0  0.00000000000E+00  0.00000000000E+00  0.25406176338E+03  0.25406176338E+03  0.00000000000E+00 0.  1.
         -1   -1    0    0    0  501 -0.00000000000E+00 -0.00000000000E+00 -0.93861784585E+03  0.93861784585E+03  0.00000000000E+00 0. -1.
    9000007    1    1    2  502    0 -0.92918677630E+02  0.22513406040E+03 -0.17329706570E+03  0.49935067716E+03  0.40000000000E+03 0.  1.
   -9000007    1    1    2    0  501  0.92918677630E+02 -0.22513406040E+03 -0.51125901677E+03  0.69332893206E+03  0.40000000000E+03 0. -1.
<mgrwt>
<rscale>  2 0.46831531E+03</rscale>
<asrwt>0</asrwt>
<pdfrwt beam="1">  1        1 0.39086426E-01 0.46831531E+03</pdfrwt>
<pdfrwt beam="2">  1       -1 0.14440274E+00 0.46831531E+03</pdfrwt>
<totfact> 0.44166664E+01</totfact>
</mgrwt>
</event>
<event>
 4    1  0.2533915E-002  0.4310864E+03  0.7818608E-02  0.1033517E+00
         -2   -1    0    0    0  501 -0.00000000000E+00  0.00000000000E+00  0.53201383731E+03  0.53201383731E+03  0.00000000000E+00 0. -1.
          2   -1    0    0  502    0  0.00000000000E+00 -0.00000000000E+00 -0.65412404358E+03  0.65412404358E+03  0.00000000000E+00 0.  1.
    9000007    1    1    2  502    0 -0.13676624923E+02 -0.16015119201E+03 -0.46590654339E+03  0.63474747856E+03  0.40000000000E+03 0.  1.
   -9000007    1    1    2    0  501  0.13676624923E+02  0.16015119201E+03  0.34379633712E+03  0.55139040233E+03  0.40000000000E+03 0. -1.
<mgrwt>
<rscale>  2 0.43108637E+03</rscale>
<asrwt>0</asrwt>
<pdfrwt beam="1">  1        2 0.10063447E+00 0.43108637E+03</pdfrwt>
<pdfrwt beam="2">  1       -2 0.81848282E-01 0.43108637E+03</pdfrwt>
<totfact> 0.61025924E+01</totfact>
</mgrwt>
</event>
<event>
 4    1  0.2533915E-002  0.4307796E+03  0.7818608E-02  0.1033614E+00
         -2   -1    0    0    0  501 -0.00000000000E+00  0.00000000000E+00  0.51938642445E+03  0.51938642445E+03  0.00000000000E+00 0.  1.
          2   -1    0    0  502    0  0.00000000000E+00 -0.00000000000E+00 -0.44166855392E+03  0.44166855392E+03  0.00000000000E+00 0. -1.
    9000007    1    1    2  502    0 -0.15978558912E+03 -0.62953446771E+01 -0.17117456119E+03  0.46354265850E+03  0.40000000000E+03 0. -1.
   -9000007    1    1    2    0  501  0.15978558912E+03  0.62953446771E+01  0.24889243172E+03  0.49751231987E+03  0.40000000000E+03 0.  1.
<mgrwt>
<rscale>  2 0.43077960E+03</rscale>
<asrwt>0</asrwt>
<pdfrwt beam="1">  1        2 0.67949009E-01 0.43077960E+03</pdfrwt>
<pdfrwt beam="2">  1       -2 0.79905603E-01 0.43077960E+03</pdfrwt>
<totfact> 0.10160186E+02</totfact>
</mgrwt>
</event>
<event>
 4    1  0.2533915E-002  0.4504902E+03  0.7818608E-02  0.1027576E+00
         -1   -1    0    0    0  501 -0.00000000000E+00  0.00000000000E+00  0.16977906516E+03  0.16977906516E+03  0.00000000000E+00 0.  1.
          1   -1    0    0  502    0  0.00000000000E+00 -0.00000000000E+00 -0.11995928078E+04  0.11995928078E+04  0.00000000000E+00 0. -1.
    9000007    1    1    2  502    0 -0.15757656793E+03  0.13457718038E+03 -0.55573952582E+03  0.71539346712E+03  0.40000000000E+03 0. -1.
   -9000007    1    1    2    0  501  0.15757656793E+03 -0.13457718038E+03 -0.47407421680E+03  0.65397840582E+03  0.40000000000E+03 0.  1.
<mgrwt>
<rscale>  2 0.45049017E+03</rscale>
<asrwt>0</asrwt>
<pdfrwt beam="1">  1        1 0.18455275E+00 0.45049017E+03</pdfrwt>
<pdfrwt beam="2">  1       -1 0.26119855E-01 0.45049017E+03</pdfrwt>
<totfact> 0.14546465E+02</totfact>
</mgrwt>
</event>
<event>
 4    1  0.2533915E-002  0.4966401E+03  0.7818608E-02  0.1014660E+00
          2   -1    0    0  502    0  0.00000000000E+00  0.00000000000E+00  0.17908703716E+04  0.17908703716E+04  0.00000000000E+00 0.  1.
         -2   -1    0    0    0  501 -0.00000000000E+00 -0.00000000000E+00 -0.13772803829E+03  0.13772803829E+03  0.00000000000E+00 0. -1.
    9000007    1    1    2  502    0  0.22241090155E+03 -0.19283345145E+03  0.82911314449E+03  0.96647811951E+03  0.40000000000E+03 0. -1.
   -9000007    1    1    2    0  501 -0.22241090155E+03  0.19283345145E+03  0.82402918878E+03  0.96212029034E+03  0.40000000000E+03 0. -1.
<mgrwt>
<rscale>  2 0.49664006E+03</rscale>
<asrwt>0</asrwt>
<pdfrwt beam="1">  1        2 0.27551850E+00 0.49664006E+03</pdfrwt>
<pdfrwt beam="2">  1       -2 0.21188930E-01 0.49664006E+03</pdfrwt>
<totfact> 0.17631599E+02</totfact>
</mgrwt>
</event>
<event>
 4    1  0.2533915E-002  0.4321815E+03  0.7818608E-02  0.1033173E+00
         -1   -1    0    0    0  501 -0.00000000000E+00  0.00000000000E+00  0.20624354965E+03  0.20624354965E+03  0.00000000000E+00 0.  1.
          1   -1    0    0  502    0  0.00000000000E+00 -0.00000000000E+00 -0.11787238351E+04  0.11787238351E+04  0.00000000000E+00 0. -1.
    9000007    1    1    2  502    0  0.14768155002E+03 -0.70505648480E+02 -0.81955707866E+03  0.92652830063E+03  0.40000000000E+03 0. -1.
   -9000007    1    1    2    0  501 -0.14768155002E+03  0.70505648480E+02 -0.15292320680E+03  0.45843908413E+03  0.40000000000E+03 0.  1.
<mgrwt>
<rscale>  2 0.43218154E+03</rscale>
<asrwt>0</asrwt>
<pdfrwt beam="1">  1        1 0.18134213E+00 0.43218154E+03</pdfrwt>
<pdfrwt beam="2">  1       -1 0.31729777E-01 0.43218154E+03</pdfrwt>
<totfact> 0.10806487E+02</totfact>
</mgrwt>
</event>
<event>
 4    1  0.2533915E-002  0.4259109E+03  0.7818608E-02  0.1035160E+00
         -1   -1    0    0    0  501 -0.00000000000E+00  0.00000000000E+00  0.10177115402E+04  0.10177115402E+04  0.00000000000E+00 0. -1.
          1   -1    0    0  502    0  0.00000000000E+00 -0.00000000000E+00 -0.25634500545E+03  0.25634500545E+03  0.00000000000E+00 0.  1.
    9000007    1    1    2  502    0  0.14618476254E+03 -0.54885541938E+01  0.73230601077E+03  0.84715535909E+03  0.40000000000E+03 0. -1.
   -9000007    1    1    2    0  501 -0.14618476254E+03  0.54885541938E+01  0.29060523965E+02  0.42690118655E+03  0.40000000000E+03 0.  1.
<mgrwt>
<rscale>  2 0.42591092E+03</rscale>
<asrwt>0</asrwt>
<pdfrwt beam="1">  1        1 0.39437694E-01 0.42591092E+03</pdfrwt>
<pdfrwt beam="2">  1       -1 0.15657100E+00 0.42591092E+03</pdfrwt>
<totfact> 0.35417180E+01</totfact>
</mgrwt>
</event>
<event>
 4    1  0.2533915E-002  0.4250778E+03  0.7818608E-02  0.1035426E+00
          2   -1    0    0  502    0  0.00000000000E+00  0.00000000000E+00  0.14032340412E+04  0.14032340412E+04  0.00000000000E+00 0. -1.
         -2   -1    0    0    0  501 -0.00000000000E+00 -0.00000000000E+00 -0.14047885200E+03  0.14047885200E+03  0.00000000000E+00 0.  1.
    9000007    1    1    2  502    0  0.12043511312E+03 -0.78654532583E+02  0.85423741148E+03  0.95415549421E+03  0.40000000000E+03 0. -1.
   -9000007    1    1    2    0  501 -0.12043511312E+03  0.78654532583E+02  0.40851777771E+03  0.58955739896E+03  0.40000000000E+03 0.  1.
<mgrwt>
<rscale>  2 0.42507782E+03</rscale>
<asrwt>0</asrwt>
<pdfrwt beam="1">  1        2 0.21588215E+00 0.42507782E+03</pdfrwt>
<pdfrwt beam="2">  1       -2 0.21612132E-01 0.42507782E+03</pdfrwt>
<totfact> 0.27900050E+02</totfact>
</mgrwt>
</event>
<event>
 4    1  0.2533915E-002  0.5510693E+03  0.7818608E-02  0.1001247E+00
         -2   -1    0    0    0  501 -0.00000000000E+00  0.00000000000E+00  0.83593367677E+03  0.83593367677E+03  0.00000000000E+00 0. -1.
          2   -1    0    0  502    0  0.00000000000E+00 -0.00000000000E+00 -0.41387265325E+03  0.41387265325E+03  0.00000000000E+00 0.  1.
    9000007    1    1    2  502    0  0.18840429444E+03 -0.32890913957E+03 -0.74567363046E+01  0.55111977208E+03  0.40000000000E+03 0. -1.
   -9000007    1    1    2    0  501 -0.18840429444E+03  0.32890913957E+03  0.42951775982E+03  0.69868655795E+03  0.40000000000E+03 0. -1.
<mgrwt>
<rscale>  2 0.55106932E+03</rscale>
<asrwt>0</asrwt>
<pdfrwt beam="1">  1        2 0.63672716E-01 0.55106932E+03</pdfrwt>
<pdfrwt beam="2">  1       -2 0.12860518E+00 0.55106932E+03</pdfrwt>
<totfact> 0.35120146E+01</totfact>
</mgrwt>
</event>
<event>
 4    1  0.2533915E-002  0.4138403E+03  0.7818608E-02  0.1039090E+00
          2   -1    0    0  502    0  0.00000000000E+00  0.00000000000E+00  0.24178296408E+04  0.24178296408E+04  0.00000000000E+00 0.  1.
         -2   -1    0    0    0  501 -0.00000000000E+00 -0.00000000000E+00 -0.72756535523E+02  0.72756535523E+02  0.00000000000E+00 0. -1.
    9000007    1    1    2  502    0 -0.37985793978E+02 -0.99100260267E+02  0.97009093377E+03  0.10546754012E+04  0.40000000000E+03 0. -1.
   -9000007    1    1    2    0  501  0.37985793978E+02  0.99100260267E+02  0.13749821715E+04  0.14359107751E+04  0.40000000000E+03 0.  1.
<mgrwt>
<rscale>  2 0.41384029E+03</rscale>
<asrwt>0</asrwt>
<pdfrwt beam="1">  1        2 0.37197373E+00 0.41384029E+03</pdfrwt>
<pdfrwt beam="2">  1       -2 0.11193315E-01 0.41384029E+03</pdfrwt>
<totfact> 0.23945548E+02</totfact>
</mgrwt>
</event>
<event>
 4    1  0.2533915E-002  0.4288114E+03  0.7818608E-02  0.1034236E+00
         -2   -1    0    0    0  501 -0.00000000000E+00  0.00000000000E+00  0.96686878433E+02  0.96686878433E+02  0.00000000000E+00 0.  1.
          2   -1    0    0  502    0  0.00000000000E+00 -0.00000000000E+00 -0.23543694136E+04  0.23543694136E+04  0.00000000000E+00 0. -1.
    9000007    1    1    2  502    0 -0.15428338078E+03  0.87078343576E+01 -0.16661552921E+04  0.17204512911E+04  0.40000000000E+03 0. -1.
   -9000007    1    1    2    0  501  0.15428338078E+03 -0.87078343576E+01 -0.59152724307E+03  0.73060500084E+03  0.40000000000E+03 0.  1.
<mgrwt>
<rscale>  2 0.42881137E+03</rscale>
<asrwt>0</asrwt>
<pdfrwt beam="1">  1        2 0.36221066E+00 0.42881137E+03</pdfrwt>
<pdfrwt beam="2">  1       -2 0.14874905E-01 0.42881137E+03</pdfrwt>
<totfact> 0.16195007E+02</totfact>
</mgrwt>
</event>
<event>
 4    1  0.2533915E-002  0.5839068E+03  0.7818608E-02  0.9939369E-01
         -1   -1    0    0    0  501 -0.00000000000E+00  0.00000000000E+00  0.14601921374E+03  0.14601921374E+03  0.00000000000E+00 0.  1.
          1   -1    0    0  502    0  0.00000000000E+00 -0.00000000000E+00 -0.24274797765E+04  0.24274797765E+04  0.00000000000E+00 0. -1.
    9000007    1    1    2  502    0 -0.42375326270E+03 -0.37152595818E+02 -0.13919557729E+04  0.15094661363E+04  0.40000000000E+03 0. -1.
   -9000007    1    1    2    0  501  0.42375326270E+03  0.37152595818E+02 -0.88950478984E+03  0.10640328539E+04  0.40000000000E+03 0.  1.
<mgrwt>
<rscale>  2 0.58390679E+03</rscale>
<asrwt>0</asrwt>
<pdfrwt beam="1">  1        1 0.37345843E+00 0.58390679E+03</pdfrwt>
<pdfrwt beam="2">  1       -1 0.22464494E-01 0.58390679E+03</pdfrwt>
<totfact> 0.27408173E+01</totfact>
</mgrwt>
</event>
<event>
 4    1  0.2533915E-002  0.5494501E+03  0.7818608E-02  0.1001621E+00
         -2   -1    0    0    0  501 -0.00000000000E+00  0.00000000000E+00  0.12795640126E+03  0.12795640126E+03  0.00000000000E+00 0.  1.
          2   -1    0    0  502    0  0.00000000000E+00 -0.00000000000E+00 -0.30636525761E+04  0.30636525761E+04  0.00000000000E+00 0. -1.
    9000007    1    1    2  502    0  0.10130850534E+03 -0.36281130719E+03 -0.70271691663E+03  0.89202383533E+03  0.40000000000E+03 0.  1.
   -9000007    1    1    2    0  501 -0.10130850534E+03  0.36281130719E+03 -0.22329792583E+04  0.22995851421E+04  0.40000000000E+03 0. -1.
<mgrwt>
<rscale>  2 0.54945014E+03</rscale>
<asrwt>0</asrwt>
<pdfrwt beam="1">  1        2 0.47133114E+00 0.54945014E+03</pdfrwt>
<pdfrwt beam="2">  1       -2 0.19685601E-01 0.54945014E+03</pdfrwt>
<totfact> 0.38219330E+01</totfact>
</mgrwt>
</event>
<event>
 4    1  0.2533915E-002  0.5888135E+03  0.7818608E-02  0.9928890E-01
         -1   -1    0    0    0  501 -0.00000000000E+00  0.00000000000E+00  0.32372491179E+03  0.32372491179E+03  0.00000000000E+00 0.  1.
          1   -1    0    0  502    0  0.00000000000E+00 -0.00000000000E+00 -0.12059835048E+04  0.12059835048E+04  0.00000000000E+00 0. -1.
    9000007    1    1    2  502    0 -0.32751577330E+03 -0.28184174312E+03 -0.69703986992E+03  0.91245050835E+03  0.40000000000E+03 0.  1.
   -9000007    1    1    2    0  501  0.32751577330E+03  0.28184174312E+03 -0.18521872310E+03  0.61725790826E+03  0.40000000000E+03 0. -1.
<mgrwt>
<rscale>  2 0.58881351E+03</rscale>
<asrwt>0</asrwt>
<pdfrwt beam="1">  1        1 0.18553592E+00 0.58881351E+03</pdfrwt>
<pdfrwt beam="2">  1       -1 0.49803833E-01 0.58881351E+03</pdfrwt>
<totfact> 0.44767917E+01</totfact>
</mgrwt>
</event>
<event>
 4    1  0.2533915E-002  0.4309087E+03  0.7818608E-02  0.1033573E+00
         -1   -1    0    0    0  501 -0.00000000000E+00  0.00000000000E+00  0.11914480503E+03  0.11914480503E+03  0.00000000000E+00 0.  1.
          1   -1    0    0  502    0  0.00000000000E+00 -0.00000000000E+00 -0.18422572182E+04  0.18422572182E+04  0.00000000000E+00 0. -1.
    9000007    1    1    2  502    0  0.49781895485E+02  0.15232873889E+03 -0.12464725916E+04  0.13188541252E+04  0.40000000000E+03 0. -1.
   -9000007    1    1    2    0  501 -0.49781895485E+02 -0.15232873889E+03 -0.47663982153E+03  0.64254789804E+03  0.40000000000E+03 0.  1.
<mgrwt>
<rscale>  2 0.43090867E+03</rscale>
<asrwt>0</asrwt>
<pdfrwt beam="1">  1        1 0.28342420E+00 0.43090867E+03</pdfrwt>
<pdfrwt beam="2">  1       -1 0.18329969E-01 0.43090867E+03</pdfrwt>
<totfact> 0.96592713E+01</totfact>
</mgrwt>
</event>
<event>
 4    1  0.2533915E-002  0.4390281E+03  0.7818608E-02  0.1031045E+00
         -2   -1    0    0    0  501 -0.00000000000E+00  0.00000000000E+00  0.37191060553E+03  0.37191060553E+03  0.00000000000E+00 0. -1.
          2   -1    0    0  502    0  0.00000000000E+00 -0.00000000000E+00 -0.56843048796E+03  0.56843048796E+03  0.00000000000E+00 0.  1.
    9000007    1    1    2  502    0 -0.22994535600E+02  0.17949081602E+03 -0.23794466570E+03  0.49936295982E+03  0.40000000000E+03 0.  1.
   -9000007    1    1    2    0  501  0.22994535600E+02 -0.17949081602E+03  0.41424783272E+02  0.44097813367E+03  0.40000000000E+03 0. -1.
<mgrwt>
<rscale>  2 0.43902813E+03</rscale>
<asrwt>0</asrwt>
<pdfrwt beam="1">  1        2 0.87450844E-01 0.43902813E+03</pdfrwt>
<pdfrwt beam="2">  1       -2 0.57217017E-01 0.43902813E+03</pdfrwt>
<totfact> 0.15598438E+02</totfact>
</mgrwt>
</event>
<event>
 4    1  0.2533915E-002  0.4559534E+03  0.7818608E-02  0.1025961E+00
          1   -1    0    0  502    0  0.00000000000E+00  0.00000000000E+00  0.18344763444E+04  0.18344763444E+04  0.00000000000E+00 0.  1.
         -1   -1    0    0    0  501 -0.00000000000E+00 -0.00000000000E+00 -0.11692823663E+03  0.11692823663E+03  0.00000000000E+00 0. -1.
    9000007    1    1    2  502    0 -0.29567672467E+02  0.21683915920E+03  0.68751370627E+03  0.82496579597E+03  0.40000000000E+03 0. -1.
   -9000007    1    1    2    0  501  0.29567672467E+02 -0.21683915920E+03  0.10300344015E+04  0.11264387851E+04  0.40000000000E+03 0.  1.
<mgrwt>
<rscale>  2 0.45595336E+03</rscale>
<asrwt>0</asrwt>
<pdfrwt beam="1">  1        1 0.28222711E+00 0.45595336E+03</pdfrwt>
<pdfrwt beam="2">  1       -1 0.17988961E-01 0.45595336E+03</pdfrwt>
<totfact> 0.10036656E+02</totfact>
</mgrwt>
</event>
<event>
 4    1  0.2533915E-002  0.5259033E+03  0.7818608E-02  0.1007231E+00
          1   -1    0    0  502    0  0.00000000000E+00  0.00000000000E+00  0.13321273248E+04  0.13321273248E+04  0.00000000000E+00 0. -1.
         -1   -1    0    0    0  501 -0.00000000000E+00 -0.00000000000E+00 -0.43877027054E+03  0.43877027054E+03  0.00000000000E+00 0.  1.
    9000007    1    1    2  502    0 -0.38774019307E+02  0.33922101404E+03 -0.19599947787E+03  0.56123980281E+03  0.40000000000E+03 0.  1.
   -9000007    1    1    2    0  501  0.38774019307E+02 -0.33922101404E+03  0.10893565322E+04  0.12096577926E+04  0.40000000000E+03 0. -1.
<mgrwt>
<rscale>  2 0.52590334E+03</rscale>
<asrwt>0</asrwt>
<pdfrwt beam="1">  1        1 0.20494266E+00 0.52590334E+03</pdfrwt>
<pdfrwt beam="2">  1       -1 0.67503119E-01 0.52590334E+03</pdfrwt>
<totfact> 0.20387464E+01</totfact>
</mgrwt>
</event>
<event>
 4    1  0.2533915E-002  0.4924554E+03  0.7818608E-02  0.1015767E+00
          3   -1    0    0  502    0  0.00000000000E+00  0.00000000000E+00  0.16246561742E+04  0.16246561742E+04  0.00000000000E+00 0. -1.
         -3   -1    0    0    0  501 -0.00000000000E+00 -0.00000000000E+00 -0.17505165433E+03  0.17505165433E+03  0.00000000000E+00 0.  1.
    9000007    1    1    2  502    0 -0.75677382389E+02 -0.27710157375E+03  0.37946399772E+03  0.62169548329E+03  0.40000000000E+03 0.  1.
   -9000007    1    1    2    0  501  0.75677382389E+02  0.27710157375E+03  0.10701405221E+04  0.11780123452E+04  0.40000000000E+03 0. -1.
<mgrwt>
<rscale>  2 0.49245543E+03</rscale>
<asrwt>0</asrwt>
<pdfrwt beam="1">  1        3 0.24994709E+00 0.49245543E+03</pdfrwt>
<pdfrwt beam="2">  1       -3 0.26931025E-01 0.49245543E+03</pdfrwt>
<totfact> 0.26401180E+00</totfact>
</mgrwt>
</event>
<event>
 4    1  0.2533915E-002  0.4878885E+03  0.7818608E-02  0.1016989E+00
         -2   -1    0    0    0  501 -0.00000000000E+00  0.00000000000E+00  0.25503149402E+03  0.25503149402E+03  0.00000000000E+00 0. -1.
          2   -1    0    0  502    0  0.00000000000E+00 -0.00000000000E+00 -0.19637997832E+04  0.19637997832E+04  0.00000000000E+00 0.  1.
    9000007    1    1    2  502    0 -0.11318354957E+03  0.25539120182E+03 -0.50751026730E+02  0.49052099708E+03  0.40000000000E+03 0. -1.
   -9000007    1    1    2    0  501  0.11318354957E+03 -0.25539120182E+03 -0.16580172624E+04  0.17283102801E+04  0.40000000000E+03 0.  1.
<mgrwt>
<rscale>  2 0.48788849E+03</rscale>
<asrwt>0</asrwt>
<pdfrwt beam="1">  1        2 0.30212304E+00 0.48788849E+03</pdfrwt>
<pdfrwt beam="2">  1       -2 0.39235615E-01 0.48788849E+03</pdfrwt>
<totfact> 0.46045341E+01</totfact>
</mgrwt>
</event>
<event>
 4    1  0.2533915E-002  0.5185690E+03  0.7818608E-02  0.1009043E+00
          2   -1    0    0  502    0  0.00000000000E+00  0.00000000000E+00  0.10123453044E+04  0.10123453044E+04  0.00000000000E+00 0. -1.
         -2   -1    0    0    0  501 -0.00000000000E+00 -0.00000000000E+00 -0.30697255273E+03  0.30697255273E+03  0.00000000000E+00 0.  1.
    9000007    1    1    2  502    0  0.30839427940E+03  0.11750228165E+03  0.11061424750E+03  0.53023516435E+03  0.40000000000E+03 0.  1.
   -9000007    1    1    2    0  501 -0.30839427940E+03 -0.11750228165E+03  0.59475850412E+03  0.78908269274E+03  0.40000000000E+03 0. -1.
<mgrwt>
<rscale>  2 0.51856901E+03</rscale>
<asrwt>0</asrwt>
<pdfrwt beam="1">  1        2 0.15574543E+00 0.51856901E+03</pdfrwt>
<pdfrwt beam="2">  1       -2 0.47226547E-01 0.51856901E+03</pdfrwt>
<totfact> 0.10865810E+02</totfact>
</mgrwt>
</event>
<event>
 4    1  0.2533915E-002  0.5205805E+03  0.7818608E-02  0.1008542E+00
         -2   -1    0    0    0  501 -0.00000000000E+00  0.00000000000E+00  0.14646466313E+03  0.14646466313E+03  0.00000000000E+00 0.  1.
          2   -1    0    0  502    0  0.00000000000E+00 -0.00000000000E+00 -0.22105218442E+04  0.22105218442E+04  0.00000000000E+00 0. -1.
    9000007    1    1    2  502    0  0.33077919180E+03  0.39864665483E+02 -0.15077609177E+04  0.15951009530E+04  0.40000000000E+03 0. -1.
   -9000007    1    1    2    0  501 -0.33077919180E+03 -0.39864665483E+02 -0.55629626339E+03  0.76188555436E+03  0.40000000000E+03 0.  1.
<mgrwt>
<rscale>  2 0.52058051E+03</rscale>
<asrwt>0</asrwt>
<pdfrwt beam="1">  1        2 0.34008026E+00 0.52058051E+03</pdfrwt>
<pdfrwt beam="2">  1       -2 0.22533027E-01 0.52058051E+03</pdfrwt>
<totfact> 0.93610590E+01</totfact>
</mgrwt>
</event>
<event>
 4    1  0.2533915E-002  0.4024947E+03  0.7818608E-02  0.1042919E+00
          4   -1    0    0  502    0  0.00000000000E+00  0.00000000000E+00  0.14543983418E+03  0.14543983418E+03  0.00000000000E+00 0. -1.
         -4   -1    0    0    0  501 -0.00000000000E+00 -0.00000000000E+00 -0.11709402270E+04  0.11709402270E+04  0.00000000000E+00 0.  1.
    9000007    1    1    2  502    0  0.44651623811E+02 -0.28641399428E+01 -0.65805003085E+03  0.77138305265E+03  0.40000000000E+03 0.  1.
   -9000007    1    1    2    0  501 -0.44651623811E+02  0.28641399428E+01 -0.36745036201E+03  0.54499700857E+03  0.40000000000E+03 0. -1.
<mgrwt>
<rscale>  2 0.40249468E+03</rscale>
<asrwt>0</asrwt>
<pdfrwt beam="1">  1        4 0.22375359E-01 0.40249468E+03</pdfrwt>
<pdfrwt beam="2">  1       -4 0.18014465E+00 0.40249468E+03</pdfrwt>
<totfact> 0.65981069E+00</totfact>
</mgrwt>
</event>
<event>
 4    1  0.2533915E-002  0.4331165E+03  0.7818608E-02  0.1032880E+00
         -2   -1    0    0    0  501 -0.00000000000E+00  0.00000000000E+00  0.17402699625E+04  0.17402699625E+04  0.00000000000E+00 0.  1.
          2   -1    0    0  502    0  0.00000000000E+00 -0.00000000000E+00 -0.41523951913E+03  0.41523951913E+03  0.00000000000E+00 0. -1.
    9000007    1    1    2  502    0  0.28284244861E+02  0.16367621819E+03  0.15898893876E+04  0.16478283186E+04  0.40000000000E+03 0.  1.
   -9000007    1    1    2    0  501 -0.28284244861E+02 -0.16367621819E+03 -0.26485894424E+03  0.50768116299E+03  0.40000000000E+03 0. -1.
<mgrwt>
<rscale>  2 0.43311650E+03</rscale>
<asrwt>0</asrwt>
<pdfrwt beam="1">  1        2 0.63883004E-01 0.43311650E+03</pdfrwt>
<pdfrwt beam="2">  1       -2 0.26773384E+00 0.43311650E+03</pdfrwt>
<totfact> 0.41643749E+00</totfact>
</mgrwt>
</event>
<event>
 4    1  0.2533915E-002  0.4063810E+03  0.7818608E-02  0.1041592E+00
         -1   -1    0    0    0  501 -0.00000000000E+00  0.00000000000E+00  0.63667208010E+02  0.63667208010E+02  0.00000000000E+00 0. -1.
          1   -1    0    0  502    0  0.00000000000E+00 -0.00000000000E+00 -0.25962245689E+04  0.25962245689E+04  0.00000000000E+00 0.  1.
    9000007    1    1    2  502    0 -0.74929404652E+01 -0.71339910357E+02 -0.13061874846E+04  0.13679441772E+04  0.40000000000E+03 0. -1.
   -9000007    1    1    2    0  501  0.74929404652E+01  0.71339910357E+02 -0.12263698762E+04  0.12919475997E+04  0.40000000000E+03 0.  1.
<mgrwt>
<rscale>  2 0.40638101E+03</rscale>
<asrwt>0</asrwt>
<pdfrwt beam="1">  1        1 0.39941912E+00 0.40638101E+03</pdfrwt>
<pdfrwt beam="2">  1       -1 0.97949561E-02 0.40638101E+03</pdfrwt>
<totfact> 0.83333956E+01</totfact>
</mgrwt>
</event>
<event>
 4    1  0.2533915E-002  0.6538487E+03  0.7818608E-02  0.9799584E-01
          2   -1    0    0  502    0  0.00000000000E+00  0.00000000000E+00  0.27295440945E+04  0.27295440945E+04  0.00000000000E+00 0. -1.
         -2   -1    0    0    0  501 -0.00000000000E+00 -0.00000000000E+00 -0.16161991946E+03  0.16161991946E+03  0.00000000000E+00 0.  1.
    9000007    1    1    2  502    0  0.33301480903E+03 -0.39575155692E+03  0.10298608695E+04  0.12198899821E+04  0.40000000000E+03 0. -1.
   -9000007    1    1    2    0  501 -0.33301480903E+03  0.39575155692E+03  0.15380633055E+04  0.16712740319E+04  0.40000000000E+03 0.  1.
<mgrwt>
<rscale>  2 0.65384873E+03</rscale>
<asrwt>0</asrwt>
<pdfrwt beam="1">  1        2 0.41992983E+00 0.65384873E+03</pdfrwt>
<pdfrwt beam="2">  1       -2 0.24864605E-01 0.65384873E+03</pdfrwt>
<totfact> 0.39265472E+01</totfact>
</mgrwt>
</event>
<event>
 4    1  0.2533915E-002  0.4541923E+03  0.7818608E-02  0.1026479E+00
         -2   -1    0    0    0  501 -0.00000000000E+00  0.00000000000E+00  0.12543686266E+03  0.12543686266E+03  0.00000000000E+00 0.  1.
          2   -1    0    0  502    0  0.00000000000E+00 -0.00000000000E+00 -0.17035824074E+04  0.17035824074E+04  0.00000000000E+00 0. -1.
    9000007    1    1    2  502    0 -0.19934795920E+03 -0.80938734584E+02 -0.95926880836E+03  0.10613610763E+04  0.40000000000E+03 0. -1.
   -9000007    1    1    2    0  501  0.19934795920E+03  0.80938734584E+02 -0.61887673634E+03  0.76765819372E+03  0.40000000000E+03 0.  1.
<mgrwt>
<rscale>  2 0.45419235E+03</rscale>
<asrwt>0</asrwt>
<pdfrwt beam="1">  1        2 0.26208959E+00 0.45419235E+03</pdfrwt>
<pdfrwt beam="2">  1       -2 0.19297980E-01 0.45419235E+03</pdfrwt>
<totfact> 0.23238491E+02</totfact>
</mgrwt>
</event>
<event>
 4    1  0.2533915E-002  0.4251484E+03  0.7818608E-02  0.1035404E+00
          2   -1    0    0  502    0  0.00000000000E+00  0.00000000000E+00  0.11022974745E+04  0.11022974745E+04  0.00000000000E+00 0.  1.
         -2   -1    0    0    0  501 -0.00000000000E+00 -0.00000000000E+00 -0.21006542415E+03  0.21006542415E+03  0.00000000000E+00 0. -1.
    9000007    1    1    2  502    0  0.59421771166E+02 -0.13122583050E+03  0.13875858280E+03  0.44721930837E+03  0.40000000000E+03 0. -1.
   -9000007    1    1    2    0  501 -0.59421771166E+02  0.13122583050E+03  0.75347346753E+03  0.86514359025E+03  0.40000000000E+03 0.  1.
<mgrwt>
<rscale>  2 0.42514840E+03</rscale>
<asrwt>0</asrwt>
<pdfrwt beam="1">  1        2 0.16958422E+00 0.42514840E+03</pdfrwt>
<pdfrwt beam="2">  1       -2 0.32317758E-01 0.42514840E+03</pdfrwt>
<totfact> 0.20091552E+02</totfact>
</mgrwt>
</event>
<event>
 4    1  0.2533915E-002  0.4048490E+03  0.7818608E-02  0.1042113E+00
         -2   -1    0    0    0  501 -0.00000000000E+00  0.00000000000E+00  0.16815250850E+03  0.16815250850E+03  0.00000000000E+00 0. -1.
          2   -1    0    0  502    0  0.00000000000E+00 -0.00000000000E+00 -0.11945272960E+04  0.11945272960E+04  0.00000000000E+00 0.  1.
    9000007    1    1    2  502    0 -0.12507213664E+02  0.61206674561E+02 -0.22091989361E+03  0.46120308628E+03  0.40000000000E+03 0. -1.
   -9000007    1    1    2    0  501  0.12507213664E+02 -0.61206674561E+02 -0.80545489393E+03  0.90147671826E+03  0.40000000000E+03 0.  1.
<mgrwt>
<rscale>  2 0.40484897E+03</rscale>
<asrwt>0</asrwt>
<pdfrwt beam="1">  1        2 0.18377343E+00 0.40484897E+03</pdfrwt>
<pdfrwt beam="2">  1       -2 0.25869617E-01 0.40484897E+03</pdfrwt>
<totfact> 0.26681372E+02</totfact>
</mgrwt>
</event>
<event>
 4    1  0.2533915E-002  0.1119376E+04  0.7818608E-02  0.9186510E-01
          2   -1    0    0  502    0  0.00000000000E+00  0.00000000000E+00  0.15043499076E+04  0.15043499076E+04  0.00000000000E+00 0.  1.
         -2   -1    0    0    0  501 -0.00000000000E+00 -0.00000000000E+00 -0.10054301862E+04  0.10054301862E+04  0.00000000000E+00 0. -1.
    9000007    1    1    2  502    0  0.61516942671E+02  0.10436563385E+04 -0.27034134890E+03  0.11515586533E+04  0.40000000000E+03 0. -1.
   -9000007    1    1    2    0  501 -0.61516942671E+02 -0.10436563385E+04  0.76926107028E+03  0.13582214405E+04  0.40000000000E+03 0.  1.
<mgrwt>
<rscale>  2 0.11193761E+04</rscale>
<asrwt>0</asrwt>
<pdfrwt beam="1">  1        2 0.23143845E+00 0.11193761E+04</pdfrwt>
<pdfrwt beam="2">  1       -2 0.15468157E+00 0.11193761E+04</pdfrwt>
<totfact> 0.34132310E+00</totfact>
</mgrwt>
</event>
<event>
 4    1  0.2533915E-002  0.5923261E+03  0.7818608E-02  0.9921456E-01
          2   -1    0    0  502    0  0.00000000000E+00  0.00000000000E+00  0.11611489125E+04  0.11611489125E+04  0.00000000000E+00 0. -1.
         -2   -1    0    0    0  501 -0.00000000000E+00 -0.00000000000E+00 -0.30327759753E+03  0.30327759753E+03  0.00000000000E+00 0.  1.
    9000007    1    1    2  502    0  0.11681251394E+03  0.42095724970E+03  0.38444258309E+03  0.70614890014E+03  0.40000000000E+03 0. -1.
   -9000007    1    1    2    0  501 -0.11681251394E+03 -0.42095724970E+03  0.47342873188E+03  0.75827760988E+03  0.40000000000E+03 0.  1.
<mgrwt>
<rscale>  2 0.59232607E+03</rscale>
<asrwt>0</asrwt>
<pdfrwt beam="1">  1        2 0.17863829E+00 0.59232607E+03</pdfrwt>
<pdfrwt beam="2">  1       -2 0.46658092E-01 0.59232607E+03</pdfrwt>
<totfact> 0.89665236E+01</totfact>
</mgrwt>
</event>
<event>
 4    1  0.2533915E-002  0.7576772E+03  0.7818608E-02  0.9623382E-01
         -1   -1    0    0    0  501 -0.00000000000E+00  0.00000000000E+00  0.12185343550E+04  0.12185343550E+04  0.00000000000E+00 0. -1.
          1   -1    0    0  502    0  0.00000000000E+00 -0.00000000000E+00 -0.59572557465E+03  0.59572557465E+03  0.00000000000E+00 0.  1.
    9000007    1    1    2  502    0  0.37086610899E+03 -0.52586418534E+03 -0.10347006022E+03  0.76470966097E+03  0.40000000000E+03 0.  1.
   -9000007    1    1    2    0  501 -0.37086610899E+03  0.52586418534E+03  0.72627884056E+03  0.10495502687E+04  0.40000000000E+03 0. -1.
<mgrwt>
<rscale>  2 0.75767725E+03</rscale>
<asrwt>0</asrwt>
<pdfrwt beam="1">  1        1 0.91650089E-01 0.75767725E+03</pdfrwt>
<pdfrwt beam="2">  1       -1 0.18746682E+00 0.75767725E+03</pdfrwt>
<totfact> 0.65797401E+00</totfact>
</mgrwt>
</event>
<event>
 4    1  0.2533915E-002  0.4910092E+03  0.7818608E-02  0.1016153E+00
          2   -1    0    0  502    0  0.00000000000E+00  0.00000000000E+00  0.22736136990E+04  0.22736136990E+04  0.00000000000E+00 0. -1.
         -2   -1    0    0    0  501 -0.00000000000E+00 -0.00000000000E+00 -0.17505556427E+03  0.17505556427E+03  0.00000000000E+00 0.  1.
    9000007    1    1    2  502    0  0.14554070829E+03 -0.24476091566E+03  0.28051828234E+03  0.56549138838E+03  0.40000000000E+03 0.  1.
   -9000007    1    1    2    0  501 -0.14554070829E+03  0.24476091566E+03  0.18180398524E+04  0.18831778749E+04  0.40000000000E+03 0. -1.
<mgrwt>
<rscale>  2 0.49100917E+03</rscale>
<asrwt>0</asrwt>
<pdfrwt beam="1">  1        2 0.34978670E+00 0.49100917E+03</pdfrwt>
<pdfrwt beam="2">  1       -2 0.26931627E-01 0.49100917E+03</pdfrwt>
<totfact> 0.63186583E+01</totfact>
</mgrwt>
</event>
<event>
 4    1  0.2533915E-002  0.4239904E+03  0.7818608E-02  0.1035775E+00
          1   -1    0    0  502    0  0.00000000000E+00  0.00000000000E+00  0.44555334939E+03  0.44555334939E+03  0.00000000000E+00 0.  1.
         -1   -1    0    0    0  501 -0.00000000000E+00 -0.00000000000E+00 -0.57392965889E+03  0.57392965889E+03  0.00000000000E+00 0. -1.
    9000007    1    1    2  502    0 -0.10024711683E+03  0.98581871390E+02 -0.34198681987E+03  0.54472273200E+03  0.40000000000E+03 0. -1.
   -9000007    1    1    2    0  501  0.10024711683E+03 -0.98581871390E+02  0.21361051036E+03  0.47476027628E+03  0.40000000000E+03 0.  1.
<mgrwt>
<rscale>  2 0.42399041E+03</rscale>
<asrwt>0</asrwt>
<pdfrwt beam="1">  1        1 0.68546669E-01 0.42399041E+03</pdfrwt>
<pdfrwt beam="2">  1       -1 0.88296871E-01 0.42399041E+03</pdfrwt>
<totfact> 0.68841345E+01</totfact>
</mgrwt>
</event>
<event>
 4    1  0.2533915E-002  0.5149769E+03  0.7818608E-02  0.1009942E+00
         -2   -1    0    0    0  501 -0.00000000000E+00  0.00000000000E+00  0.31953654122E+03  0.31953654122E+03  0.00000000000E+00 0.  1.
          2   -1    0    0  502    0  0.00000000000E+00 -0.00000000000E+00 -0.84650951778E+03  0.84650951778E+03  0.00000000000E+00 0. -1.
    9000007    1    1    2  502    0  0.22754959763E+03  0.23113294362E+03 -0.18195686158E+03  0.54617722077E+03  0.40000000000E+03 0. -1.
   -9000007    1    1    2    0  501 -0.22754959763E+03 -0.23113294362E+03 -0.34501611498E+03  0.61986883823E+03  0.40000000000E+03 0.  1.
<mgrwt>
<rscale>  2 0.51497695E+03</rscale>
<asrwt>0</asrwt>
<pdfrwt beam="1">  1        2 0.13023223E+00 0.51497695E+03</pdfrwt>
<pdfrwt beam="2">  1       -2 0.49159468E-01 0.51497695E+03</pdfrwt>
<totfact> 0.12874813E+02</totfact>
</mgrwt>
</event>
<event>
 4    1  0.2533915E-002  0.5403898E+03  0.7818608E-02  0.1003743E+00
          1   -1    0    0  502    0  0.00000000000E+00  0.00000000000E+00  0.15103330320E+04  0.15103330320E+04  0.00000000000E+00 0. -1.
         -1   -1    0    0    0  501 -0.00000000000E+00 -0.00000000000E+00 -0.28259485277E+03  0.28259485277E+03  0.00000000000E+00 0.  1.
    9000007    1    1    2  502    0 -0.18289679897E+03  0.31395845005E+03  0.11176539374E+04  0.12414392741E+04  0.40000000000E+03 0. -1.
   -9000007    1    1    2    0  501  0.18289679897E+03 -0.31395845005E+03  0.11008424185E+03  0.55148861071E+03  0.40000000000E+03 0.  1.
<mgrwt>
<rscale>  2 0.54038981E+03</rscale>
<asrwt>0</asrwt>
<pdfrwt beam="1">  1        1 0.23235892E+00 0.54038981E+03</pdfrwt>
<pdfrwt beam="2">  1       -1 0.43476132E-01 0.54038981E+03</pdfrwt>
<totfact> 0.35672871E+01</totfact>
</mgrwt>
</event>
<event>
 4    1  0.2533915E-002  0.4955685E+03  0.7818608E-02  0.1014942E+00
          2   -1    0    0  502    0  0.00000000000E+00  0.00000000000E+00  0.13340994544E+03  0.13340994544E+03  0.00000000000E+00 0.  1.
         -2   -1    0    0    0  501 -0.00000000000E+00 -0.00000000000E+00 -0.18442120149E+04  0.18442120149E+04  0.00000000000E+00 0. -1.
    9000007    1    1    2  502    0 -0.15799226659E+03 -0.24622464836E+03 -0.81320257143E+03  0.95230591511E+03  0.40000000000E+03 0.  1.
   -9000007    1    1    2    0  501  0.15799226659E+03  0.24622464836E+03 -0.89759949802E+03  0.10253160452E+04  0.40000000000E+03 0. -1.
<mgrwt>
<rscale>  2 0.49556850E+03</rscale>
<asrwt>0</asrwt>
<pdfrwt beam="1">  1        2 0.20524608E-01 0.49556850E+03</pdfrwt>
<pdfrwt beam="2">  1       -2 0.28372492E+00 0.49556850E+03</pdfrwt>
<totfact> 0.11762277E+01</totfact>
</mgrwt>
</event>
<event>
 4    1  0.2533915E-002  0.4900995E+03  0.7818608E-02  0.1016396E+00
          2   -1    0    0  502    0  0.00000000000E+00  0.00000000000E+00  0.17669240671E+04  0.17669240671E+04  0.00000000000E+00 0. -1.
         -2   -1    0    0    0  501 -0.00000000000E+00 -0.00000000000E+00 -0.13882899850E+03  0.13882899850E+03  0.00000000000E+00 0.  1.
    9000007    1    1    2  502    0 -0.36576009716E+02  0.28081980415E+03  0.95147988111E+03  0.10702857240E+04  0.40000000000E+03 0.  1.
   -9000007    1    1    2    0  501  0.36576009716E+02 -0.28081980415E+03  0.67661518750E+03  0.83546734158E+03  0.40000000000E+03 0.  1.
<mgrwt>
<rscale>  2 0.49009955E+03</rscale>
<asrwt>0</asrwt>
<pdfrwt beam="1">  1        2 0.27183446E+00 0.49009955E+03</pdfrwt>
<pdfrwt beam="2">  1       -2 0.21358309E-01 0.49009955E+03</pdfrwt>
<totfact> 0.17926146E+02</totfact>
</mgrwt>
</event>
<event>
 4    1  0.2533915E-002  0.4632695E+03  0.7818608E-02  0.1023837E+00
         -1   -1    0    0    0  501 -0.00000000000E+00  0.00000000000E+00  0.36052688184E+03  0.36052688184E+03  0.00000000000E+00 0. -1.
          1   -1    0    0  502    0  0.00000000000E+00 -0.00000000000E+00 -0.63377216312E+03  0.63377216312E+03  0.00000000000E+00 0.  1.
    9000007    1    1    2  502    0 -0.14083224287E+03 -0.18650712292E+03 -0.14121225439E+02  0.46348466700E+03  0.40000000000E+03 0. -1.
   -9000007    1    1    2    0  501  0.14083224287E+03  0.18650712292E+03 -0.25912405584E+03  0.53081437796E+03  0.40000000000E+03 0.  1.
<mgrwt>
<rscale>  2 0.46326950E+03</rscale>
<asrwt>0</asrwt>
<pdfrwt beam="1">  1        1 0.97503410E-01 0.46326950E+03</pdfrwt>
<pdfrwt beam="2">  1       -1 0.55465674E-01 0.46326950E+03</pdfrwt>
<totfact> 0.10842596E+02</totfact>
</mgrwt>
</event>
<event>
 4    1  0.2533915E-002  0.4424753E+03  0.7818608E-02  0.1029990E+00
          1   -1    0    0  502    0  0.00000000000E+00  0.00000000000E+00  0.65671670049E+03  0.65671670049E+03  0.00000000000E+00 0. -1.
         -1   -1    0    0    0  501 -0.00000000000E+00 -0.00000000000E+00 -0.29815327859E+03  0.29815327859E+03  0.00000000000E+00 0.  1.
    9000007    1    1    2  502    0  0.18799867501E+03 -0.20997952658E+02  0.18383660164E+03  0.47914539748E+03  0.40000000000E+03 0.  1.
   -9000007    1    1    2    0  501 -0.18799867501E+03  0.20997952658E+02  0.17472682027E+03  0.47572458160E+03  0.40000000000E+03 0.  1.
<mgrwt>
<rscale>  2 0.44247533E+03</rscale>
<asrwt>0</asrwt>
<pdfrwt beam="1">  1        1 0.10103334E+00 0.44247533E+03</pdfrwt>
<pdfrwt beam="2">  1       -1 0.45869735E-01 0.44247533E+03</pdfrwt>
<totfact> 0.14749304E+02</totfact>
</mgrwt>
</event>
<event>
 4    1  0.2533915E-002  0.4041613E+03  0.7818608E-02  0.1042348E+00
         -1   -1    0    0    0  501 -0.00000000000E+00  0.00000000000E+00  0.80605534148E+03  0.80605534148E+03  0.00000000000E+00 0.  1.
          1   -1    0    0  502    0  0.00000000000E+00 -0.00000000000E+00 -0.25677363715E+03  0.25677363715E+03  0.00000000000E+00 0. -1.
    9000007    1    1    2  502    0 -0.80824201127E+01 -0.57279995976E+02  0.30660079943E+02  0.40532254311E+03  0.40000000000E+03 0. -1.
   -9000007    1    1    2    0  501  0.80824201127E+01  0.57279995976E+02  0.51862162439E+03  0.65750643551E+03  0.40000000000E+03 0.  1.
<mgrwt>
<rscale>  2 0.40416126E+03</rscale>
<asrwt>0</asrwt>
<pdfrwt beam="1">  1        1 0.39503637E-01 0.40416126E+03</pdfrwt>
<pdfrwt beam="2">  1       -1 0.12400851E+00 0.40416126E+03</pdfrwt>
<totfact> 0.64517710E+01</totfact>
</mgrwt>
</event>
<event>
 4    1  0.2533915E-002  0.4027892E+03  0.7818608E-02  0.1042818E+00
          1   -1    0    0  502    0  0.00000000000E+00  0.00000000000E+00  0.29171105593E+04  0.29171105593E+04  0.00000000000E+00 0. -1.
         -1   -1    0    0    0  501 -0.00000000000E+00 -0.00000000000E+00 -0.14797688486E+03  0.14797688486E+03  0.00000000000E+00 0.  1.
    9000007    1    1    2  502    0 -0.31032711173E+01 -0.47217571695E+02  0.25953296740E+04  0.26263996737E+04  0.40000000000E+03 0. -1.
   -9000007    1    1    2    0  501  0.31032711173E+01  0.47217571695E+02  0.17380400045E+03  0.43868777045E+03  0.40000000000E+03 0.  1.
<mgrwt>
<rscale>  2 0.40278919E+03</rscale>
<asrwt>0</asrwt>
<pdfrwt beam="1">  1        1 0.44878619E+00 0.40278919E+03</pdfrwt>
<pdfrwt beam="2">  1       -1 0.22765677E-01 0.40278919E+03</pdfrwt>
<totfact> 0.12908182E+01</totfact>
</mgrwt>
</event>
<event>
 4    1  0.2533915E-002  0.4345881E+03  0.7818608E-02  0.1032420E+00
          2   -1    0    0  502    0  0.00000000000E+00  0.00000000000E+00  0.17611311392E+04  0.17611311392E+04  0.00000000000E+00 0. -1.
         -2   -1    0    0    0  501 -0.00000000000E+00 -0.00000000000E+00 -0.21290241162E+03  0.21290241162E+03  0.00000000000E+00 0.  1.
    9000007    1    1    2  502    0 -0.16989951633E+03 -0.99405173310E+00  0.78784551835E+02  0.44167164206E+03  0.40000000000E+03 0.  1.
   -9000007    1    1    2    0  501  0.16989951633E+03  0.99405173310E+00  0.14694441757E+04  0.15323619088E+04  0.40000000000E+03 0. -1.
<mgrwt>
<rscale>  2 0.43458812E+03</rscale>
<asrwt>0</asrwt>
<pdfrwt beam="1">  1        2 0.27094324E+00 0.43458812E+03</pdfrwt>
<pdfrwt beam="2">  1       -2 0.32754218E-01 0.43458812E+03</pdfrwt>
<totfact> 0.84119175E+01</totfact>
</mgrwt>
</event>
<event>
 4    1  0.2533915E-002  0.4059960E+03  0.7818608E-02  0.1041723E+00
         -2   -1    0    0    0  501 -0.00000000000E+00  0.00000000000E+00  0.72055557593E+02  0.72055557593E+02  0.00000000000E+00 0.  1.
          2   -1    0    0  502    0  0.00000000000E+00 -0.00000000000E+00 -0.22947370772E+04  0.22947370772E+04  0.00000000000E+00 0. -1.
    9000007    1    1    2  502    0 -0.35001933092E+01  0.69429756967E+02 -0.11774371711E+04  0.12454681989E+04  0.40000000000E+03 0. -1.
   -9000007    1    1    2    0  501  0.35001933092E+01 -0.69429756967E+02 -0.10452443485E+04  0.11213244359E+04  0.40000000000E+03 0. -1.
<mgrwt>
<rscale>  2 0.40599599E+03</rscale>
<asrwt>0</asrwt>
<pdfrwt beam="1">  1        2 0.35303639E+00 0.40599599E+03</pdfrwt>
<pdfrwt beam="2">  1       -2 0.11085473E-01 0.40599599E+03</pdfrwt>
<totfact> 0.28445924E+02</totfact>
</mgrwt>
</event>
<event>
 4    1  0.2533915E-002  0.4177474E+03  0.7818608E-02  0.1037802E+00
         -2   -1    0    0    0  501 -0.00000000000E+00  0.00000000000E+00  0.13900576760E+04  0.13900576760E+04  0.00000000000E+00 0.  1.
          2   -1    0    0  502    0  0.00000000000E+00 -0.00000000000E+00 -0.20579395143E+03  0.20579395143E+03  0.00000000000E+00 0. -1.
    9000007    1    1    2  502    0  0.30655413391E+02  0.11650368712E+03  0.93856231826E+02  0.42816101613E+03  0.40000000000E+03 0. -1.
   -9000007    1    1    2    0  501 -0.30655413391E+02 -0.11650368712E+03  0.10904074927E+04  0.11676906113E+04  0.40000000000E+03 0.  1.
<mgrwt>
<rscale>  2 0.41774737E+03</rscale>
<asrwt>0</asrwt>
<pdfrwt beam="1">  1        2 0.31660609E-01 0.41774737E+03</pdfrwt>
<pdfrwt beam="2">  1       -2 0.21385502E+00 0.41774737E+03</pdfrwt>
<totfact> 0.19136016E+01</totfact>
</mgrwt>
</event>
<event>
 4    1  0.2533915E-002  0.7503390E+03  0.7818608E-02  0.9634819E-01
         -2   -1    0    0    0  501 -0.00000000000E+00  0.00000000000E+00  0.10658020480E+04  0.10658020480E+04  0.00000000000E+00 0. -1.
          2   -1    0    0  502    0  0.00000000000E+00 -0.00000000000E+00 -0.67889840543E+03  0.67889840543E+03  0.00000000000E+00 0.  1.
    9000007    1    1    2  502    0  0.14759277117E+03  0.61743424588E+03 -0.21748253735E+03  0.78122168950E+03  0.40000000000E+03 0.  1.
   -9000007    1    1    2    0  501 -0.14759277117E+03 -0.61743424588E+03  0.60438617995E+03  0.96347876396E+03  0.40000000000E+03 0. -1.
<mgrwt>
<rscale>  2 0.75033904E+03</rscale>
<asrwt>0</asrwt>
<pdfrwt beam="1">  1        2 0.10444591E+00 0.75033904E+03</pdfrwt>
<pdfrwt beam="2">  1       -2 0.16396955E+00 0.75033904E+03</pdfrwt>
<totfact> 0.10193761E+01</totfact>
</mgrwt>
</event>
<event>
 4    1  0.2533915E-002  0.6311089E+03  0.7818608E-02  0.9842887E-01
          2   -1    0    0  502    0  0.00000000000E+00  0.00000000000E+00  0.73140670697E+03  0.73140670697E+03  0.00000000000E+00 0. -1.
         -2   -1    0    0    0  501 -0.00000000000E+00 -0.00000000000E+00 -0.54528855130E+03  0.54528855130E+03  0.00000000000E+00 0.  1.
    9000007    1    1    2  502    0  0.10615621912E+03 -0.47647585385E+03  0.11631450691E+03  0.64173783329E+03  0.40000000000E+03 0. -1.
   -9000007    1    1    2    0  501 -0.10615621912E+03  0.47647585385E+03  0.69803648769E+02  0.63495742498E+03  0.40000000000E+03 0.  1.
<mgrwt>
<rscale>  2 0.63110885E+03</rscale>
<asrwt>0</asrwt>
<pdfrwt beam="1">  1        2 0.11252411E+00 0.63110885E+03</pdfrwt>
<pdfrwt beam="2">  1       -2 0.83890546E-01 0.63110885E+03</pdfrwt>
<totfact> 0.49212171E+01</totfact>
</mgrwt>
</event>
<event>
 4    1  0.2533915E-002  0.4141072E+03  0.7818608E-02  0.1039001E+00
          2   -1    0    0  502    0  0.00000000000E+00  0.00000000000E+00  0.34763401603E+04  0.34763401603E+04  0.00000000000E+00 0. -1.
         -2   -1    0    0    0  501 -0.00000000000E+00 -0.00000000000E+00 -0.50720358431E+02  0.50720358431E+02  0.00000000000E+00 0.  1.
    9000007    1    1    2  502    0  0.11593980199E+02  0.10653793451E+03  0.20048851426E+04  0.20472052137E+04  0.40000000000E+03 0. -1.
   -9000007    1    1    2    0  501 -0.11593980199E+02 -0.10653793451E+03  0.14207346593E+04  0.14798553051E+04  0.40000000000E+03 0.  1.
<mgrwt>
<rscale>  2 0.41410717E+03</rscale>
<asrwt>0</asrwt>
<pdfrwt beam="1">  1        2 0.53482138E+00 0.41410717E+03</pdfrwt>
<pdfrwt beam="2">  1       -2 0.78031348E-02 0.41410717E+03</pdfrwt>
<totfact> 0.98949677E+01</totfact>
</mgrwt>
</event>
<event>
 4    1  0.2533915E-002  0.4802862E+03  0.7818608E-02  0.1019057E+00
         -1   -1    0    0    0  501 -0.00000000000E+00  0.00000000000E+00  0.38172918249E+03  0.38172918249E+03  0.00000000000E+00 0. -1.
          1   -1    0    0  502    0  0.00000000000E+00 -0.00000000000E+00 -0.60933560055E+03  0.60933560055E+03  0.00000000000E+00 0.  1.
    9000007    1    1    2  502    0 -0.25196739284E+03 -0.84778032793E+02 -0.15889815942E+03  0.50588882866E+03  0.40000000000E+03 0.  1.
   -9000007    1    1    2    0  501  0.25196739284E+03  0.84778032793E+02 -0.68708258635E+02  0.48517595437E+03  0.40000000000E+03 0. -1.
<mgrwt>
<rscale>  2 0.48028625E+03</rscale>
<asrwt>0</asrwt>
<pdfrwt beam="1">  1        1 0.93743938E-01 0.48028625E+03</pdfrwt>
<pdfrwt beam="2">  1       -1 0.58727567E-01 0.48028625E+03</pdfrwt>
<totfact> 0.10254177E+02</totfact>
</mgrwt>
</event>
<event>
 4    1  0.2533915E-002  0.4589449E+03  0.7818608E-02  0.1025088E+00
         -2   -1    0    0    0  501 -0.00000000000E+00  0.00000000000E+00  0.17598366721E+03  0.17598366721E+03  0.00000000000E+00 0. -1.
          2   -1    0    0  502    0  0.00000000000E+00 -0.00000000000E+00 -0.12282156937E+04  0.12282156937E+04  0.00000000000E+00 0.  1.
    9000007    1    1    2  502    0  0.13809868065E+03 -0.17764891217E+03 -0.41396104510E+03  0.61805673562E+03  0.40000000000E+03 0. -1.
   -9000007    1    1    2    0  501 -0.13809868065E+03  0.17764891217E+03 -0.63827098138E+03  0.78614262527E+03  0.40000000000E+03 0. -1.
<mgrwt>
<rscale>  2 0.45894486E+03</rscale>
<asrwt>0</asrwt>
<pdfrwt beam="1">  1        2 0.18895626E+00 0.45894486E+03</pdfrwt>
<pdfrwt beam="2">  1       -2 0.27074410E-01 0.45894486E+03</pdfrwt>
<totfact> 0.23369610E+02</totfact>
</mgrwt>
</event>
<event>
 4    1  0.2533915E-002  0.4077485E+03  0.7818608E-02  0.1041129E+00
         -1   -1    0    0    0  501 -0.00000000000E+00  0.00000000000E+00  0.21898524631E+03  0.21898524631E+03  0.00000000000E+00 0. -1.
          1   -1    0    0  502    0  0.00000000000E+00 -0.00000000000E+00 -0.83376751824E+03  0.83376751824E+03  0.00000000000E+00 0.  1.
    9000007    1    1    2  502    0  0.34139811275E+02  0.71367459998E+02 -0.15000044833E+03  0.43446400951E+03  0.40000000000E+03 0. -1.
   -9000007    1    1    2    0  501 -0.34139811275E+02 -0.71367459998E+02 -0.46478182360E+03  0.61828875504E+03  0.40000000000E+03 0.  1.
<mgrwt>
<rscale>  2 0.40774850E+03</rscale>
<asrwt>0</asrwt>
<pdfrwt beam="1">  1        1 0.12827192E+00 0.40774850E+03</pdfrwt>
<pdfrwt beam="2">  1       -1 0.33690039E-01 0.40774850E+03</pdfrwt>
<totfact> 0.17917975E+02</totfact>
</mgrwt>
</event>
<event>
 4    1  0.2533915E-002  0.5012907E+03  0.7818608E-02  0.1013443E+00
         -1   -1    0    0    0  501 -0.00000000000E+00  0.00000000000E+00  0.18434168983E+03  0.18434168983E+03  0.00000000000E+00 0. -1.
          1   -1    0    0  502    0  0.00000000000E+00 -0.00000000000E+00 -0.15672781044E+04  0.15672781044E+04  0.00000000000E+00 0.  1.
    9000007    1    1    2  502    0 -0.20856096575E+03  0.21862006171E+03 -0.37542415197E+03  0.62628723578E+03  0.40000000000E+03 0. -1.
   -9000007    1    1    2    0  501  0.20856096575E+03 -0.21862006171E+03 -0.10075122626E+04  0.11253325585E+04  0.40000000000E+03 0.  1.
<mgrwt>
<rscale>  2 0.50129074E+03</rscale>
<asrwt>0</asrwt>
<pdfrwt beam="1">  1        1 0.24111971E+00 0.50129074E+03</pdfrwt>
<pdfrwt beam="2">  1       -1 0.28360260E-01 0.50129074E+03</pdfrwt>
<totfact> 0.70039627E+01</totfact>
</mgrwt>
</event>
<event>
 4    1  0.2533915E-002  0.4442725E+03  0.7818608E-02  0.1029444E+00
          2   -1    0    0  502    0  0.00000000000E+00  0.00000000000E+00  0.16244617895E+03  0.16244617895E+03  0.00000000000E+00 0.  1.
         -2   -1    0    0    0  501 -0.00000000000E+00 -0.00000000000E+00 -0.12275704015E+04  0.12275704015E+04  0.00000000000E+00 0. -1.
    9000007    1    1    2  502    0 -0.11037599563E+03 -0.15873002411E+03 -0.60278928635E+03  0.74882107656E+03  0.40000000000E+03 0. -1.
   -9000007    1    1    2    0  501  0.11037599563E+03  0.15873002411E+03 -0.46233493619E+03  0.64119550388E+03  0.40000000000E+03 0.  1.
<mgrwt>
<rscale>  2 0.44427253E+03</rscale>
<asrwt>0</asrwt>
<pdfrwt beam="1">  1        2 0.24991720E-01 0.44427253E+03</pdfrwt>
<pdfrwt beam="2">  1       -2 0.18885698E+00 0.44427253E+03</pdfrwt>
<totfact> 0.35980942E+01</totfact>
</mgrwt>
</event>
<event>
 4    1  0.2533915E-002  0.4639518E+03  0.7818608E-02  0.1023641E+00
          1   -1    0    0  502    0  0.00000000000E+00  0.00000000000E+00  0.21239620474E+03  0.21239620474E+03  0.00000000000E+00 0.  1.
         -1   -1    0    0    0  501 -0.00000000000E+00 -0.00000000000E+00 -0.19841948471E+04  0.19841948471E+04  0.00000000000E+00 0. -1.
    9000007    1    1    2  502    0  0.23459742220E+03 -0.14675074772E+02 -0.11768691857E+03  0.47864550465E+03  0.40000000000E+03 0.  1.
   -9000007    1    1    2    0  501 -0.23459742220E+03  0.14675074772E+02 -0.16541117238E+04  0.17179455472E+04  0.40000000000E+03 0. -1.
<mgrwt>
<rscale>  2 0.46395184E+03</rscale>
<asrwt>0</asrwt>
<pdfrwt beam="1">  1        1 0.32676337E-01 0.46395184E+03</pdfrwt>
<pdfrwt beam="2">  1       -1 0.30526077E+00 0.46395184E+03</pdfrwt>
<totfact> 0.46264384E+00</totfact>
</mgrwt>
</event>
<event>
 4    1  0.2533915E-002  0.4221801E+03  0.7818608E-02  0.1036359E+00
         -1   -1    0    0    0  501 -0.00000000000E+00  0.00000000000E+00  0.36240659108E+03  0.36240659108E+03  0.00000000000E+00 0. -1.
          1   -1    0    0  502    0  0.00000000000E+00 -0.00000000000E+00 -0.50021251713E+03  0.50021251713E+03  0.00000000000E+00 0.  1.
    9000007    1    1    2  502    0  0.13385802141E+03  0.17834844589E+02 -0.13010308001E+02  0.42238053896E+03  0.40000000000E+03 0. -1.
   -9000007    1    1    2    0  501 -0.13385802141E+03 -0.17834844589E+02 -0.12479561805E+03  0.44023856926E+03  0.40000000000E+03 0.  1.
<mgrwt>
<rscale>  2 0.42218012E+03</rscale>
<asrwt>0</asrwt>
<pdfrwt beam="1">  1        1 0.76955772E-01 0.42218012E+03</pdfrwt>
<pdfrwt beam="2">  1       -1 0.55754860E-01 0.42218012E+03</pdfrwt>
<totfact> 0.14995155E+02</totfact>
</mgrwt>
</event>
<event>
 4    1  0.2533915E-002  0.4706711E+03  0.7818608E-02  0.1021731E+00
          2   -1    0    0  502    0  0.00000000000E+00  0.00000000000E+00  0.18766025401E+04  0.18766025401E+04  0.00000000000E+00 0. -1.
         -2   -1    0    0    0  501 -0.00000000000E+00 -0.00000000000E+00 -0.11809267146E+03  0.11809267146E+03  0.00000000000E+00 0.  1.
    9000007    1    1    2  502    0 -0.24762509817E+03 -0.14597744857E+02  0.89840733815E+03  0.10142322360E+04  0.40000000000E+03 0. -1.
   -9000007    1    1    2    0  501  0.24762509817E+03  0.14597744857E+02  0.86010253049E+03  0.98046297551E+03  0.40000000000E+03 0. -1.
<mgrwt>
<rscale>  2 0.47067110E+03</rscale>
<asrwt>0</asrwt>
<pdfrwt beam="1">  1        2 0.28870806E+00 0.47067110E+03</pdfrwt>
<pdfrwt beam="2">  1       -2 0.18168105E-01 0.47067110E+03</pdfrwt>
<totfact> 0.20773045E+02</totfact>
</mgrwt>
</event>
<event>
 4    1  0.2533915E-002  0.6021915E+03  0.7818608E-02  0.9900870E-01
          2   -1    0    0  502    0  0.00000000000E+00  0.00000000000E+00  0.23519963262E+04  0.23519963262E+04  0.00000000000E+00 0. -1.
         -2   -1    0    0    0  501 -0.00000000000E+00 -0.00000000000E+00 -0.15512927175E+03  0.15512927175E+03  0.00000000000E+00 0.  1.
    9000007    1    1    2  502    0  0.10498120419E+03 -0.43773690671E+03  0.11964093313E+04  0.13394140289E+04  0.40000000000E+03 0. -1.
   -9000007    1    1    2    0  501 -0.10498120419E+03  0.43773690671E+03  0.10004577231E+04  0.11677115690E+04  0.40000000000E+03 0.  1.
<mgrwt>
<rscale>  2 0.60219154E+03</rscale>
<asrwt>0</asrwt>
<pdfrwt beam="1">  1        2 0.36184556E+00 0.60219154E+03</pdfrwt>
<pdfrwt beam="2">  1       -2 0.23866043E-01 0.60219154E+03</pdfrwt>
<totfact> 0.69762427E+01</totfact>
</mgrwt>
</event>
<event>
 4    1  0.2533915E-002  0.4063370E+03  0.7818608E-02  0.1041607E+00
         -2   -1    0    0    0  501 -0.00000000000E+00  0.00000000000E+00  0.83341212937E+03  0.83341212937E+03  0.00000000000E+00 0.  1.
          2   -1    0    0  502    0  0.00000000000E+00 -0.00000000000E+00 -0.21964758496E+03  0.21964758496E+03  0.00000000000E+00 0. -1.
    9000007    1    1    2  502    0 -0.66022643195E+02  0.27400610082E+02  0.14201746033E+03  0.43044017225E+03  0.40000000000E+03 0. -1.
   -9000007    1    1    2    0  501  0.66022643195E+02 -0.27400610082E+02  0.47174708407E+03  0.62261954208E+03  0.40000000000E+03 0.  1.
<mgrwt>
<rscale>  2 0.40633703E+03</rscale>
<asrwt>0</asrwt>
<pdfrwt beam="1">  1        2 0.33791937E-01 0.40633703E+03</pdfrwt>
<pdfrwt beam="2">  1       -2 0.12821725E+00 0.40633703E+03</pdfrwt>
<totfact> 0.72164267E+01</totfact>
</mgrwt>
</event>
<event>
 4    1  0.2533915E-002  0.5867190E+03  0.7818608E-02  0.9933350E-01
         -1   -1    0    0    0  501 -0.00000000000E+00  0.00000000000E+00  0.45221446756E+03  0.45221446756E+03  0.00000000000E+00 0. -1.
          1   -1    0    0  502    0  0.00000000000E+00 -0.00000000000E+00 -0.87594378946E+03  0.87594378946E+03  0.00000000000E+00 0.  1.
    9000007    1    1    2  502    0 -0.39978510557E+03 -0.15624024424E+03 -0.45218461787E+03  0.74074966973E+03  0.40000000000E+03 0.  1.
   -9000007    1    1    2    0  501  0.39978510557E+03  0.15624024424E+03  0.28455295965E+02  0.58740858729E+03  0.40000000000E+03 0. -1.
<mgrwt>
<rscale>  2 0.58671897E+03</rscale>
<asrwt>0</asrwt>
<pdfrwt beam="1">  1        1 0.13476058E+00 0.58671897E+03</pdfrwt>
<pdfrwt beam="2">  1       -1 0.69571457E-01 0.58671897E+03</pdfrwt>
<totfact> 0.41533433E+01</totfact>
</mgrwt>
</event>
<event>
 4    1  0.2533915E-002  0.4130173E+03  0.7818608E-02  0.1039363E+00
         -1   -1    0    0    0  501 -0.00000000000E+00  0.00000000000E+00  0.87825273130E+02  0.87825273130E+02  0.00000000000E+00 0. -1.
          1   -1    0    0  502    0  0.00000000000E+00 -0.00000000000E+00 -0.20782717924E+04  0.20782717924E+04  0.00000000000E+00 0.  1.
    9000007    1    1    2  502    0 -0.53816934700E+02  0.87675867414E+02 -0.12722462703E+04  0.13376075256E+04  0.40000000000E+03 0.  1.
   -9000007    1    1    2    0  501  0.53816934700E+02 -0.87675867414E+02 -0.71820024896E+03  0.82848953994E+03  0.40000000000E+03 0. -1.
<mgrwt>
<rscale>  2 0.41301734E+03</rscale>
<asrwt>0</asrwt>
<pdfrwt beam="1">  1        1 0.31973410E+00 0.41301734E+03</pdfrwt>
<pdfrwt beam="2">  1       -1 0.13511581E-01 0.41301734E+03</pdfrwt>
<totfact> 0.11087051E+02</totfact>
</mgrwt>
</event>
<event>
 4    1  0.2533915E-002  0.4898690E+03  0.7818608E-02  0.1016458E+00
         -1   -1    0    0    0  501 -0.00000000000E+00  0.00000000000E+00  0.10569848963E+04  0.10569848963E+04  0.00000000000E+00 0.  1.
          1   -1    0    0  502    0  0.00000000000E+00 -0.00000000000E+00 -0.23231385189E+03  0.23231385189E+03  0.00000000000E+00 0. -1.
    9000007    1    1    2  502    0 -0.25742158119E+03 -0.11707160772E+03  0.31515211921E+03  0.58248818875E+03  0.40000000000E+03 0. -1.
   -9000007    1    1    2    0  501  0.25742158119E+03  0.11707160772E+03  0.50951892519E+03  0.70681055944E+03  0.40000000000E+03 0.  1.
<mgrwt>
<rscale>  2 0.48986899E+03</rscale>
<asrwt>0</asrwt>
<pdfrwt beam="1">  1        1 0.35740593E-01 0.48986899E+03</pdfrwt>
<pdfrwt beam="2">  1       -1 0.16261306E+00 0.48986899E+03</pdfrwt>
<totfact> 0.35881393E+01</totfact>
</mgrwt>
</event>
<event>
 4    1  0.2533915E-002  0.5822814E+03  0.7818608E-02  0.9942864E-01
          2   -1    0    0  502    0  0.00000000000E+00  0.00000000000E+00  0.32791653527E+03  0.32791653527E+03  0.00000000000E+00 0.  1.
         -2   -1    0    0    0  501 -0.00000000000E+00 -0.00000000000E+00 -0.14238314834E+04  0.14238314834E+04  0.00000000000E+00 0. -1.
    9000007    1    1    2  502    0  0.38591331611E+03  0.17355854574E+03 -0.89631311324E+02  0.58913956608E+03  0.40000000000E+03 0.  1.
   -9000007    1    1    2    0  501 -0.38591331611E+03 -0.17355854574E+03 -0.10062836369E+04  0.11626084526E+04  0.40000000000E+03 0. -1.
<mgrwt>
<rscale>  2 0.58228142E+03</rscale>
<asrwt>0</asrwt>
<pdfrwt beam="1">  1        2 0.50448698E-01 0.58228142E+03</pdfrwt>
<pdfrwt beam="2">  1       -2 0.21905100E+00 0.58228142E+03</pdfrwt>
<totfact> 0.10371928E+01</totfact>
</mgrwt>
</event>
<event>
 4    1  0.2533915E-002  0.4921970E+03  0.7818608E-02  0.1015836E+00
          2   -1    0    0  502    0  0.00000000000E+00  0.00000000000E+00  0.53103388026E+03  0.53103388026E+03  0.00000000000E+00 0.  1.
         -2   -1    0    0    0  501 -0.00000000000E+00 -0.00000000000E+00 -0.59063032015E+03  0.59063032015E+03  0.00000000000E+00 0. -1.
    9000007    1    1    2  502    0  0.28652197232E+03  0.12767271552E+02  0.23776292145E+03  0.54661599927E+03  0.40000000000E+03 0.  1.
   -9000007    1    1    2    0  501 -0.28652197232E+03 -0.12767271552E+02 -0.29735936134E+03  0.57504820113E+03  0.40000000000E+03 0. -1.
<mgrwt>
<rscale>  2 0.49219696E+03</rscale>
<asrwt>0</asrwt>
<pdfrwt beam="1">  1        2 0.81697521E-01 0.49219696E+03</pdfrwt>
<pdfrwt beam="2">  1       -2 0.90866202E-01 0.49219696E+03</pdfrwt>
<totfact> 0.61234311E+01</totfact>
</mgrwt>
</event>
<event>
 4    1  0.2533915E-002  0.6787776E+03  0.7818608E-02  0.9754230E-01
         -2   -1    0    0    0  501 -0.00000000000E+00  0.00000000000E+00  0.26040961398E+03  0.26040961398E+03  0.00000000000E+00 0.  1.
          2   -1    0    0  502    0  0.00000000000E+00 -0.00000000000E+00 -0.21279023438E+04  0.21279023438E+04  0.00000000000E+00 0. -1.
    9000007    1    1    2  502    0 -0.17092585942E+02 -0.54813030881E+03 -0.44351570999E+03  0.81082993096E+03  0.40000000000E+03 0.  1.
   -9000007    1    1    2    0  501  0.17092585942E+02  0.54813030881E+03 -0.14239770199E+04  0.15774820268E+04  0.40000000000E+03 0. -1.
<mgrwt>
<rscale>  2 0.67877757E+03</rscale>
<asrwt>0</asrwt>
<pdfrwt beam="1">  1        2 0.32736958E+00 0.67877757E+03</pdfrwt>
<pdfrwt beam="2">  1       -2 0.40063019E-01 0.67877757E+03</pdfrwt>
<totfact> 0.34913127E+01</totfact>
</mgrwt>
</event>
<event>
 4    1  0.2533915E-002  0.4820265E+03  0.7818608E-02  0.1018580E+00
         -1   -1    0    0    0  501 -0.00000000000E+00  0.00000000000E+00  0.32157559846E+03  0.32157559846E+03  0.00000000000E+00 0. -1.
          1   -1    0    0  502    0  0.00000000000E+00 -0.00000000000E+00 -0.80885577463E+03  0.80885577463E+03  0.00000000000E+00 0.  1.
    9000007    1    1    2  502    0  0.82890721726E+02 -0.25588793830E+03 -0.42828495362E+03  0.64480811891E+03  0.40000000000E+03 0.  1.
   -9000007    1    1    2    0  501 -0.82890721726E+02  0.25588793830E+03 -0.58995222546E+02  0.48562325418E+03  0.40000000000E+03 0. -1.
<mgrwt>
<rscale>  2 0.48202646E+03</rscale>
<asrwt>0</asrwt>
<pdfrwt beam="1">  1        1 0.12443935E+00 0.48202646E+03</pdfrwt>
<pdfrwt beam="2">  1       -1 0.49473169E-01 0.48202646E+03</pdfrwt>
<totfact> 0.93041866E+01</totfact>
</mgrwt>
</event>
<event>
 4    1  0.2533915E-002  0.4534151E+03  0.7818608E-02  0.1026708E+00
         -1   -1    0    0    0  501 -0.00000000000E+00  0.00000000000E+00  0.80735235368E+03  0.80735235368E+03  0.00000000000E+00 0. -1.
          1   -1    0    0  502    0  0.00000000000E+00 -0.00000000000E+00 -0.26374491096E+03  0.26374491096E+03  0.00000000000E+00 0.  1.
    9000007    1    1    2  502    0  0.16517521843E+03 -0.13528647986E+03  0.17230608036E+03  0.48505120322E+03  0.40000000000E+03 0.  1.
   -9000007    1    1    2    0  501 -0.16517521843E+03  0.13528647986E+03  0.37130136236E+03  0.58604606143E+03  0.40000000000E+03 0. -1.
<mgrwt>
<rscale>  2 0.45341513E+03</rscale>
<asrwt>0</asrwt>
<pdfrwt beam="1">  1        1 0.40576141E-01 0.45341513E+03</pdfrwt>
<pdfrwt beam="2">  1       -1 0.12420805E+00 0.45341513E+03</pdfrwt>
<totfact> 0.61727474E+01</totfact>
</mgrwt>
</event>
<event>
 4    1  0.2533915E-002  0.4936162E+03  0.7818608E-02  0.1015459E+00
         -2   -1    0    0    0  501 -0.00000000000E+00  0.00000000000E+00  0.47652569172E+03  0.47652569172E+03  0.00000000000E+00 0. -1.
          2   -1    0    0  502    0  0.00000000000E+00 -0.00000000000E+00 -0.52112661945E+03  0.52112661945E+03  0.00000000000E+00 0.  1.
    9000007    1    1    2  502    0  0.10231204414E+03 -0.27053495543E+03  0.46129538129E+02  0.49576693191E+03  0.40000000000E+03 0. -1.
   -9000007    1    1    2    0  501 -0.10231204414E+03  0.27053495543E+03 -0.90730465855E+02  0.50188537926E+03  0.40000000000E+03 0.  1.
<mgrwt>
<rscale>  2 0.49361616E+03</rscale>
<asrwt>0</asrwt>
<pdfrwt beam="1">  1        2 0.80173326E-01 0.49361616E+03</pdfrwt>
<pdfrwt beam="2">  1       -2 0.73311645E-01 0.49361616E+03</pdfrwt>
<totfact> 0.10130747E+02</totfact>
</mgrwt>
</event>
<event>
 4    1  0.2533915E-002  0.4363149E+03  0.7818608E-02  0.1031883E+00
         -2   -1    0    0    0  501 -0.00000000000E+00  0.00000000000E+00  0.14767465076E+04  0.14767465076E+04  0.00000000000E+00 0.  1.
          2   -1    0    0  502    0  0.00000000000E+00 -0.00000000000E+00 -0.13093059483E+03  0.13093059483E+03  0.00000000000E+00 0. -1.
    9000007    1    1    2  502    0  0.19160872229E+02 -0.17321543438E+03  0.57310459703E+03  0.72029133333E+03  0.40000000000E+03 0. -1.
   -9000007    1    1    2    0  501 -0.19160872229E+02  0.17321543438E+03  0.77271131569E+03  0.88738576906E+03  0.40000000000E+03 0. -1.
<mgrwt>
<rscale>  2 0.43631494E+03</rscale>
<asrwt>0</asrwt>
<pdfrwt beam="1">  1        2 0.20143170E-01 0.43631494E+03</pdfrwt>
<pdfrwt beam="2">  1       -2 0.22719176E+00 0.43631494E+03</pdfrwt>
<totfact> 0.26409028E+01</totfact>
</mgrwt>
</event>
<event>
 4    1  0.2533915E-002  0.4025527E+03  0.7818608E-02  0.1042899E+00
         -1   -1    0    0    0  501 -0.00000000000E+00  0.00000000000E+00  0.20987777246E+03  0.20987777246E+03  0.00000000000E+00 0. -1.
          1   -1    0    0  502    0  0.00000000000E+00 -0.00000000000E+00 -0.86406609500E+03  0.86406609500E+03  0.00000000000E+00 0.  1.
    9000007    1    1    2  502    0  0.94829508885E+01 -0.44257835952E+02 -0.15192047654E+03  0.43026563143E+03  0.40000000000E+03 0. -1.
   -9000007    1    1    2    0  501 -0.94829508885E+01  0.44257835952E+02 -0.50226784600E+03  0.64367823602E+03  0.40000000000E+03 0.  1.
<mgrwt>
<rscale>  2 0.40255271E+03</rscale>
<asrwt>0</asrwt>
<pdfrwt beam="1">  1        1 0.13293325E+00 0.40255271E+03</pdfrwt>
<pdfrwt beam="2">  1       -1 0.32288887E-01 0.40255271E+03</pdfrwt>
<totfact> 0.18230316E+02</totfact>
</mgrwt>
</event>
<event>
 4    1  0.2533915E-002  0.5008881E+03  0.7818608E-02  0.1013547E+00
         -3   -1    0    0    0  501 -0.00000000000E+00  0.00000000000E+00  0.10731687062E+04  0.10731687062E+04  0.00000000000E+00 0.  1.
          3   -1    0    0  502    0  0.00000000000E+00 -0.00000000000E+00 -0.25168747947E+03  0.25168747947E+03  0.00000000000E+00 0. -1.
    9000007    1    1    2  502    0 -0.10952933086E+03  0.28087765738E+03  0.23406157705E+03  0.55287770310E+03  0.40000000000E+03 0. -1.
   -9000007    1    1    2    0  501  0.10952933086E+03 -0.28087765738E+03  0.58741964972E+03  0.77197848261E+03  0.40000000000E+03 0. -1.
<mgrwt>
<rscale>  2 0.50088814E+03</rscale>
<asrwt>0</asrwt>
<pdfrwt beam="1">  1        3 0.38721151E-01 0.50088814E+03</pdfrwt>
<pdfrwt beam="2">  1       -3 0.16510288E+00 0.50088814E+03</pdfrwt>
<totfact> 0.43620896E+00</totfact>
</mgrwt>
</event>
<event>
 4    1  0.2533915E-002  0.4700500E+03  0.7818608E-02  0.1021906E+00
         -2   -1    0    0    0  501 -0.00000000000E+00  0.00000000000E+00  0.28066486946E+03  0.28066486946E+03  0.00000000000E+00 0. -1.
          2   -1    0    0  502    0  0.00000000000E+00 -0.00000000000E+00 -0.11121964792E+04  0.11121964792E+04  0.00000000000E+00 0.  1.
    9000007    1    1    2  502    0 -0.80797327362E+00 -0.24687309026E+03 -0.79221674953E+03  0.92117010033E+03  0.40000000000E+03 0.  1.
   -9000007    1    1    2    0  501  0.80797327362E+00  0.24687309026E+03 -0.39314860208E+02  0.47169124833E+03  0.40000000000E+03 0. -1.
<mgrwt>
<rscale>  2 0.47004997E+03</rscale>
<asrwt>0</asrwt>
<pdfrwt beam="1">  1        2 0.17110715E+00 0.47004997E+03</pdfrwt>
<pdfrwt beam="2">  1       -2 0.43179211E-01 0.47004997E+03</pdfrwt>
<totfact> 0.11334637E+02</totfact>
</mgrwt>
</event>
<event>
 4    1  0.2533915E-002  0.4252283E+03  0.7818608E-02  0.1035378E+00
          2   -1    0    0  502    0  0.00000000000E+00  0.00000000000E+00  0.31687841372E+04  0.31687841372E+04  0.00000000000E+00 0.  1.
         -2   -1    0    0    0  501 -0.00000000000E+00 -0.00000000000E+00 -0.57936682170E+02  0.57936682170E+02  0.00000000000E+00 0. -1.
    9000007    1    1    2  502    0  0.12310107580E+03 -0.75267562814E+02  0.13572576956E+04  0.14223106317E+04  0.40000000000E+03 0.  1.
   -9000007    1    1    2    0  501 -0.12310107580E+03  0.75267562814E+02  0.17535897595E+04  0.18044101877E+04  0.40000000000E+03 0.  1.
<mgrwt>
<rscale>  2 0.42522827E+03</rscale>
<asrwt>0</asrwt>
<pdfrwt beam="1">  1        2 0.48750512E+00 0.42522827E+03</pdfrwt>
<pdfrwt beam="2">  1       -2 0.89133382E-02 0.42522827E+03</pdfrwt>
<totfact> 0.12601629E+02</totfact>
</mgrwt>
</event>
<event>
 4    1  0.2533915E-002  0.7235809E+03  0.7818608E-02  0.9677734E-01
          1   -1    0    0  502    0  0.00000000000E+00  0.00000000000E+00  0.16179439335E+04  0.16179439335E+04  0.00000000000E+00 0.  1.
         -1   -1    0    0    0  501 -0.00000000000E+00 -0.00000000000E+00 -0.59277860987E+03  0.59277860987E+03  0.00000000000E+00 0. -1.
    9000007    1    1    2  502    0  0.34475026190E+03  0.49468840361E+03  0.12574465292E+04  0.14507725988E+04  0.40000000000E+03 0.  1.
   -9000007    1    1    2    0  501 -0.34475026190E+03 -0.49468840361E+03 -0.23228120556E+03  0.75994994454E+03  0.40000000000E+03 0. -1.
<mgrwt>
<rscale>  2 0.72358093E+03</rscale>
<asrwt>0</asrwt>
<pdfrwt beam="1">  1        1 0.24891445E+00 0.72358093E+03</pdfrwt>
<pdfrwt beam="2">  1       -1 0.91196710E-01 0.72358093E+03</pdfrwt>
<totfact> 0.66603333E+00</totfact>
</mgrwt>
</event>
<event>
 4    1  0.2533915E-002  0.5014424E+03  0.7818608E-02  0.1013403E+00
          1   -1    0    0  502    0  0.00000000000E+00  0.00000000000E+00  0.25867788476E+03  0.25867788476E+03  0.00000000000E+00 0.  1.
         -1   -1    0    0    0  501 -0.00000000000E+00 -0.00000000000E+00 -0.97430362524E+03  0.97430362524E+03  0.00000000000E+00 0. -1.
    9000007    1    1    2  502    0 -0.13512176066E+03  0.27053015155E+03 -0.38754851811E+03  0.63374940394E+03  0.40000000000E+03 0.  1.
   -9000007    1    1    2    0  501  0.13512176066E+03 -0.27053015155E+03 -0.32807722237E+03  0.59923210607E+03  0.40000000000E+03 0. -1.
<mgrwt>
<rscale>  2 0.50144237E+03</rscale>
<asrwt>0</asrwt>
<pdfrwt beam="1">  1        1 0.39796598E-01 0.50144237E+03</pdfrwt>
<pdfrwt beam="2">  1       -1 0.14989286E+00 0.50144237E+03</pdfrwt>
<totfact> 0.38949602E+01</totfact>
</mgrwt>
</event>
<event>
 4    1  0.2533915E-002  0.5568217E+03  0.7818608E-02  0.9999272E-01
          1   -1    0    0  502    0  0.00000000000E+00  0.00000000000E+00  0.16862482155E+04  0.16862482155E+04  0.00000000000E+00 0.  1.
         -1   -1    0    0    0  501 -0.00000000000E+00 -0.00000000000E+00 -0.18537759144E+03  0.18537759144E+03  0.00000000000E+00 0. -1.
    9000007    1    1    2  502    0 -0.17160560247E+03  0.34727786540E+03  0.66604211593E+03  0.86813737322E+03  0.40000000000E+03 0.  1.
   -9000007    1    1    2    0  501  0.17160560247E+03 -0.34727786540E+03  0.83482850810E+03  0.10034884337E+04  0.40000000000E+03 0. -1.
<mgrwt>
<rscale>  2 0.55682169E+03</rscale>
<asrwt>0</asrwt>
<pdfrwt beam="1">  1        1 0.25942279E+00 0.55682169E+03</pdfrwt>
<pdfrwt beam="2">  1       -1 0.28519631E-01 0.55682169E+03</pdfrwt>
<totfact> 0.57255568E+01</totfact>
</mgrwt>
</event>
<event>
 4    1  0.2533915E-002  0.5752234E+03  0.7818608E-02  0.9958186E-01
          1   -1    0    0  502    0  0.00000000000E+00  0.00000000000E+00  0.60166694251E+03  0.60166694251E+03  0.00000000000E+00 0. -1.
         -1   -1    0    0    0  501 -0.00000000000E+00 -0.00000000000E+00 -0.63267823776E+03  0.63267823776E+03  0.00000000000E+00 0.  1.
    9000007    1    1    2  502    0 -0.25322297710E+03 -0.32674165209E+03 -0.23868951413E+03  0.62277979053E+03  0.40000000000E+03 0. -1.
   -9000007    1    1    2    0  501  0.25322297710E+03  0.32674165209E+03  0.20767821887E+03  0.61156538974E+03  0.40000000000E+03 0.  1.
<mgrwt>
<rscale>  2 0.57522342E+03</rscale>
<asrwt>0</asrwt>
<pdfrwt beam="1">  1        1 0.92564145E-01 0.57522342E+03</pdfrwt>
<pdfrwt beam="2">  1       -1 0.97335114E-01 0.57522342E+03</pdfrwt>
<totfact> 0.36070717E+01</totfact>
</mgrwt>
</event>
<event>
 4    1  0.2533915E-002  0.4292887E+03  0.7818608E-02  0.1034085E+00
          2   -1    0    0  502    0  0.00000000000E+00  0.00000000000E+00  0.48811819522E+03  0.48811819522E+03  0.00000000000E+00 0.  1.
         -2   -1    0    0    0  501 -0.00000000000E+00 -0.00000000000E+00 -0.38214208677E+03  0.38214208677E+03  0.00000000000E+00 0. -1.
    9000007    1    1    2  502    0  0.12113784700E+03  0.98053056858E+02  0.10068993215E+03  0.44093904609E+03  0.40000000000E+03 0.  1.
   -9000007    1    1    2    0  501 -0.12113784700E+03 -0.98053056858E+02  0.52861762946E+01  0.42932123590E+03  0.40000000000E+03 0. -1.
<mgrwt>
<rscale>  2 0.42928869E+03</rscale>
<asrwt>0</asrwt>
<pdfrwt beam="1">  1        2 0.75095107E-01 0.42928869E+03</pdfrwt>
<pdfrwt beam="2">  1       -2 0.58791090E-01 0.42928869E+03</pdfrwt>
<totfact> 0.17587947E+02</totfact>
</mgrwt>
</event>
<event>
 4    1  0.2533915E-002  0.6202161E+03  0.7818608E-02  0.9864329E-01
          2   -1    0    0  502    0  0.00000000000E+00  0.00000000000E+00  0.61131212869E+03  0.61131212869E+03  0.00000000000E+00 0.  1.
         -2   -1    0    0    0  501 -0.00000000000E+00 -0.00000000000E+00 -0.65603918496E+03  0.65603918496E+03  0.00000000000E+00 0. -1.
    9000007    1    1    2  502    0 -0.46399736175E+03  0.96822045040E+02 -0.15041458529E+03  0.63819480379E+03  0.40000000000E+03 0. -1.
   -9000007    1    1    2    0  501  0.46399736175E+03 -0.96822045040E+02  0.10568752903E+03  0.62915650987E+03  0.40000000000E+03 0.  1.
<mgrwt>
<rscale>  2 0.62021614E+03</rscale>
<asrwt>0</asrwt>
<pdfrwt beam="1">  1        2 0.94048019E-01 0.62021614E+03</pdfrwt>
<pdfrwt beam="2">  1       -2 0.10092911E+00 0.62021614E+03</pdfrwt>
<totfact> 0.40099588E+01</totfact>
</mgrwt>
</event>
<event>
 4    1  0.2533915E-002  0.4635447E+03  0.7818608E-02  0.1023758E+00
         -2   -1    0    0    0  501 -0.00000000000E+00  0.00000000000E+00  0.27192887285E+03  0.27192887285E+03  0.00000000000E+00 0. -1.
          2   -1    0    0  502    0  0.00000000000E+00 -0.00000000000E+00 -0.83554964593E+03  0.83554964593E+03  0.00000000000E+00 0.  1.
    9000007    1    1    2  502    0 -0.22777803988E+03 -0.54688806833E+02 -0.41083877104E+03  0.61940471166E+03  0.40000000000E+03 0. -1.
   -9000007    1    1    2    0  501  0.22777803988E+03  0.54688806833E+02 -0.15278200204E+03  0.48807380711E+03  0.40000000000E+03 0. -1.
<mgrwt>
<rscale>  2 0.46354471E+03</rscale>
<asrwt>0</asrwt>
<pdfrwt beam="1">  1        2 0.12854610E+00 0.46354471E+03</pdfrwt>
<pdfrwt beam="2">  1       -2 0.41835211E-01 0.46354471E+03</pdfrwt>
<totfact> 0.18124324E+02</totfact>
</mgrwt>
</event>
<event>
 4    1  0.2533915E-002  0.5984351E+03  0.7818608E-02  0.9908658E-01
         -2   -1    0    0    0  501 -0.00000000000E+00  0.00000000000E+00  0.10411577720E+04  0.10411577720E+04  0.00000000000E+00 0. -1.
          2   -1    0    0  502    0  0.00000000000E+00 -0.00000000000E+00 -0.34541231840E+03  0.34541231840E+03  0.00000000000E+00 0.  1.
    9000007    1    1    2  502    0  0.10226374909E+03  0.43320512926E+03  0.30303620920E+03  0.67078722594E+03  0.40000000000E+03 0.  1.
   -9000007    1    1    2    0  501 -0.10226374909E+03 -0.43320512926E+03  0.39270924437E+03  0.71578286443E+03  0.40000000000E+03 0.  1.
<mgrwt>
<rscale>  2 0.59843509E+03</rscale>
<asrwt>0</asrwt>
<pdfrwt beam="1">  1        2 0.53140357E-01 0.59843509E+03</pdfrwt>
<pdfrwt beam="2">  1       -2 0.16017812E+00 0.59843509E+03</pdfrwt>
<totfact> 0.24177399E+01</totfact>
</mgrwt>
</event>
<event>
 4    1  0.2533915E-002  0.4525918E+03  0.7818608E-02  0.1026952E+00
         -2   -1    0    0    0  501 -0.00000000000E+00  0.00000000000E+00  0.20752606144E+03  0.20752606144E+03  0.00000000000E+00 0. -1.
          2   -1    0    0  502    0  0.00000000000E+00 -0.00000000000E+00 -0.99877701469E+03  0.99877701469E+03  0.00000000000E+00 0.  1.
    9000007    1    1    2  502    0 -0.19699430526E+03 -0.77669972426E+02 -0.33027991121E+03  0.56028939011E+03  0.40000000000E+03 0. -1.
   -9000007    1    1    2    0  501  0.19699430526E+03  0.77669972426E+02 -0.46097104204E+03  0.64601368602E+03  0.40000000000E+03 0. -1.
<mgrwt>
<rscale>  2 0.45259185E+03</rscale>
<asrwt>0</asrwt>
<pdfrwt beam="1">  1        2 0.15365800E+00 0.45259185E+03</pdfrwt>
<pdfrwt beam="2">  1       -2 0.31927086E-01 0.45259185E+03</pdfrwt>
<totfact> 0.23718506E+02</totfact>
</mgrwt>
</event>
<event>
 4    1  0.2533915E-002  0.4193469E+03  0.7818608E-02  0.1037279E+00
          2   -1    0    0  502    0  0.00000000000E+00  0.00000000000E+00  0.86608503238E+03  0.86608503238E+03  0.00000000000E+00 0. -1.
         -2   -1    0    0    0  501 -0.00000000000E+00 -0.00000000000E+00 -0.28049727162E+03  0.28049727162E+03  0.00000000000E+00 0.  1.
    9000007    1    1    2  502    0  0.12583214023E+03 -0.42561371228E+01  0.59404990805E+03  0.72715000892E+03  0.40000000000E+03 0. -1.
   -9000007    1    1    2    0  501 -0.12583214023E+03  0.42561371228E+01 -0.84621472865E+01  0.41943229508E+03  0.40000000000E+03 0.  1.
<mgrwt>
<rscale>  2 0.41934692E+03</rscale>
<asrwt>0</asrwt>
<pdfrwt beam="1">  1        2 0.13324385E+00 0.41934692E+03</pdfrwt>
<pdfrwt beam="2">  1       -2 0.43153427E-01 0.41934692E+03</pdfrwt>
<totfact> 0.16326775E+02</totfact>
</mgrwt>
</event>
<event>
 4    1  0.2533915E-002  0.4100834E+03  0.7818608E-02  0.1040343E+00
          2   -1    0    0  502    0  0.00000000000E+00  0.00000000000E+00  0.40416489824E+03  0.40416489824E+03  0.00000000000E+00 0.  1.
         -2   -1    0    0    0  501 -0.00000000000E+00 -0.00000000000E+00 -0.43570586416E+03  0.43570586416E+03  0.00000000000E+00 0. -1.
    9000007    1    1    2  502    0 -0.57948963138E+02  0.69356469143E+02 -0.10487610555E+03  0.42328170248E+03  0.40000000000E+03 0.  1.
   -9000007    1    1    2    0  501  0.57948963138E+02 -0.69356469143E+02  0.73335139631E+02  0.41658905992E+03  0.40000000000E+03 0.  1.
<mgrwt>
<rscale>  2 0.41008341E+03</rscale>
<asrwt>0</asrwt>
<pdfrwt beam="1">  1        2 0.62179215E-01 0.41008341E+03</pdfrwt>
<pdfrwt beam="2">  1       -2 0.67031672E-01 0.41008341E+03</pdfrwt>
<totfact> 0.16493851E+02</totfact>
</mgrwt>
</event>
<event>
 4    1  0.2533915E-002  0.4180712E+03  0.7818608E-02  0.1037696E+00
         -2   -1    0    0    0  501 -0.00000000000E+00  0.00000000000E+00  0.42051876266E+03  0.42051876266E+03  0.00000000000E+00 0. -1.
          2   -1    0    0  502    0  0.00000000000E+00 -0.00000000000E+00 -0.43512052470E+03  0.43512052470E+03  0.00000000000E+00 0.  1.
    9000007    1    1    2  502    0  0.10438756346E+03  0.62344138315E+02  0.83226332073E+02  0.42627476742E+03  0.40000000000E+03 0.  1.
   -9000007    1    1    2    0  501 -0.10438756346E+03 -0.62344138315E+02 -0.97828094108E+02  0.42936451994E+03  0.40000000000E+03 0.  1.
<mgrwt>
<rscale>  2 0.41807123E+03</rscale>
<asrwt>0</asrwt>
<pdfrwt beam="1">  1        2 0.66941619E-01 0.41807123E+03</pdfrwt>
<pdfrwt beam="2">  1       -2 0.64695194E-01 0.41807123E+03</pdfrwt>
<totfact> 0.16379488E+02</totfact>
</mgrwt>
</event>
<event>
 4    1  0.2533915E-002  0.4081235E+03  0.7818608E-02  0.1041003E+00
         -2   -1    0    0    0  501 -0.00000000000E+00  0.00000000000E+00  0.13947280069E+03  0.13947280069E+03  0.00000000000E+00 0. -1.
          2   -1    0    0  502    0  0.00000000000E+00 -0.00000000000E+00 -0.12191854352E+04  0.12191854352E+04  0.00000000000E+00 0.  1.
    9000007    1    1    2  502    0  0.73458533414E+02  0.34184902437E+02 -0.44269507366E+03  0.60211601202E+03  0.40000000000E+03 0. -1.
   -9000007    1    1    2    0  501 -0.73458533414E+02 -0.34184902437E+02 -0.63701756085E+03  0.75654222389E+03  0.40000000000E+03 0. -1.
<mgrwt>
<rscale>  2 0.40812347E+03</rscale>
<asrwt>0</asrwt>
<pdfrwt beam="1">  1        2 0.18756699E+00 0.40812347E+03</pdfrwt>
<pdfrwt beam="2">  1       -2 0.21457354E-01 0.40812347E+03</pdfrwt>
<totfact> 0.35940402E+02</totfact>
</mgrwt>
</event>
<event>
 4    1  0.2533915E-002  0.4021979E+03  0.7818608E-02  0.1043021E+00
          1   -1    0    0  502    0  0.00000000000E+00  0.00000000000E+00  0.18242660935E+03  0.18242660935E+03  0.00000000000E+00 0.  1.
         -1   -1    0    0    0  501 -0.00000000000E+00 -0.00000000000E+00 -0.26608218094E+04  0.26608218094E+04  0.00000000000E+00 0. -1.
    9000007    1    1    2  502    0  0.18563388464E+02  0.37663988410E+02 -0.78377441358E+02  0.40976358883E+03  0.40000000000E+03 0.  1.
   -9000007    1    1    2    0  501 -0.18563388464E+02 -0.37663988410E+02 -0.24000177587E+04  0.24334848299E+04  0.40000000000E+03 0. -1.
<mgrwt>
<rscale>  2 0.40219793E+03</rscale>
<asrwt>0</asrwt>
<pdfrwt beam="1">  1        1 0.28065634E-01 0.40219793E+03</pdfrwt>
<pdfrwt beam="2">  1       -1 0.40935717E+00 0.40219793E+03</pdfrwt>
<totfact> 0.11974553E+00</totfact>
</mgrwt>
</event>
<event>
 4    1  0.2533915E-002  0.4518768E+03  0.7818608E-02  0.1027164E+00
         -2   -1    0    0    0  501 -0.00000000000E+00  0.00000000000E+00  0.12410139663E+03  0.12410139663E+03  0.00000000000E+00 0. -1.
          2   -1    0    0  502    0  0.00000000000E+00 -0.00000000000E+00 -0.20665722129E+04  0.20665722129E+04  0.00000000000E+00 0.  1.
    9000007    1    1    2  502    0  0.10687187385E+03 -0.18102771496E+03 -0.14657374155E+04  0.15338118536E+04  0.40000000000E+03 0.  1.
   -9000007    1    1    2    0  501 -0.10687187385E+03  0.18102771496E+03 -0.47673340076E+03  0.65686175593E+03  0.40000000000E+03 0. -1.
<mgrwt>
<rscale>  2 0.45187679E+03</rscale>
<asrwt>0</asrwt>
<pdfrwt beam="1">  1        2 0.31793418E+00 0.45187679E+03</pdfrwt>
<pdfrwt beam="2">  1       -2 0.19092523E-01 0.45187679E+03</pdfrwt>
<totfact> 0.15125548E+02</totfact>
</mgrwt>
</event>
<event>
 4    1  0.2533915E-002  0.6338564E+03  0.7818608E-02  0.9837552E-01
          2   -1    0    0  502    0  0.00000000000E+00  0.00000000000E+00  0.53152441514E+03  0.53152441514E+03  0.00000000000E+00 0. -1.
         -2   -1    0    0    0  501 -0.00000000000E+00 -0.00000000000E+00 -0.76413336537E+03  0.76413336537E+03  0.00000000000E+00 0.  1.
    9000007    1    1    2  502    0  0.48831826595E+03 -0.57612146721E+02 -0.18359176740E+03  0.65990895233E+03  0.40000000000E+03 0. -1.
   -9000007    1    1    2    0  501 -0.48831826595E+03  0.57612146721E+02 -0.49017182827E+02  0.63574882817E+03  0.40000000000E+03 0. -1.
<mgrwt>
<rscale>  2 0.63385636E+03</rscale>
<asrwt>0</asrwt>
<pdfrwt beam="1">  1        2 0.81772987E-01 0.63385636E+03</pdfrwt>
<pdfrwt beam="2">  1       -2 0.11755898E+00 0.63385636E+03</pdfrwt>
<totfact> 0.32736935E+01</totfact>
</mgrwt>
</event>
<event>
 4    1  0.2533915E-002  0.4009181E+03  0.7818608E-02  0.1043462E+00
          2   -1    0    0  502    0  0.00000000000E+00  0.00000000000E+00  0.22641734940E+04  0.22641734940E+04  0.00000000000E+00 0. -1.
         -2   -1    0    0    0  501 -0.00000000000E+00 -0.00000000000E+00 -0.11365893235E+03  0.11365893235E+03  0.00000000000E+00 0.  1.
    9000007    1    1    2  502    0 -0.18504270104E+02  0.19821695916E+02  0.18037105302E+04  0.18477302251E+04  0.40000000000E+03 0. -1.
   -9000007    1    1    2    0  501  0.18504270104E+02 -0.19821695916E+02  0.34680403145E+03  0.53010220134E+03  0.40000000000E+03 0.  1.
<mgrwt>
<rscale>  2 0.40091808E+03</rscale>
<asrwt>0</asrwt>
<pdfrwt beam="1">  1        2 0.34833435E+00 0.40091808E+03</pdfrwt>
<pdfrwt beam="2">  1       -2 0.17485991E-01 0.40091808E+03</pdfrwt>
<totfact> 0.13879575E+02</totfact>
</mgrwt>
</event>
<event>
 4    1  0.2533915E-002  0.4100037E+03  0.7818608E-02  0.1040370E+00
          2   -1    0    0  502    0  0.00000000000E+00  0.00000000000E+00  0.18723031177E+04  0.18723031177E+04  0.00000000000E+00 0.  1.
         -2   -1    0    0    0  501 -0.00000000000E+00 -0.00000000000E+00 -0.89984787324E+02  0.89984787324E+02  0.00000000000E+00 0. -1.
    9000007    1    1    2  502    0  0.86864555257E+02  0.23613921794E+02  0.84482537773E+03  0.93905962916E+03  0.40000000000E+03 0.  1.
   -9000007    1    1    2    0  501 -0.86864555257E+02 -0.23613921794E+02  0.93749295262E+03  0.10232282758E+04  0.40000000000E+03 0. -1.
<mgrwt>
<rscale>  2 0.41000374E+03</rscale>
<asrwt>0</asrwt>
<pdfrwt beam="1">  1        2 0.28804661E+00 0.41000374E+03</pdfrwt>
<pdfrwt beam="2">  1       -2 0.13843815E-01 0.41000374E+03</pdfrwt>
<totfact> 0.33293427E+02</totfact>
</mgrwt>
</event>
<event>
 4    1  0.2533915E-002  0.4778654E+03  0.7818608E-02  0.1019723E+00
          2   -1    0    0  502    0  0.00000000000E+00  0.00000000000E+00  0.15234520594E+04  0.15234520594E+04  0.00000000000E+00 0.  1.
         -2   -1    0    0    0  501 -0.00000000000E+00 -0.00000000000E+00 -0.36470872659E+03  0.36470872659E+03  0.00000000000E+00 0. -1.
    9000007    1    1    2  502    0  0.25137997423E+03 -0.71857309117E+02 -0.14517866971E+03  0.49943188770E+03  0.40000000000E+03 0. -1.
   -9000007    1    1    2    0  501 -0.25137997423E+03  0.71857309117E+02  0.13039220026E+04  0.13887288983E+04  0.40000000000E+03 0.  1.
<mgrwt>
<rscale>  2 0.47786542E+03</rscale>
<asrwt>0</asrwt>
<pdfrwt beam="1">  1        2 0.23437724E+00 0.47786542E+03</pdfrwt>
<pdfrwt beam="2">  1       -2 0.56109036E-01 0.47786542E+03</pdfrwt>
<totfact> 0.39008310E+01</totfact>
</mgrwt>
</event>
<event>
 4    1  0.2533915E-002  0.4047605E+03  0.7818608E-02  0.1042144E+00
          2   -1    0    0  502    0  0.00000000000E+00  0.00000000000E+00  0.38419017531E+04  0.38419017531E+04  0.00000000000E+00 0.  1.
         -2   -1    0    0    0  501 -0.00000000000E+00 -0.00000000000E+00 -0.47860109307E+02  0.47860109307E+02  0.00000000000E+00 0. -1.
    9000007    1    1    2  502    0  0.24297121653E+02  0.56927066100E+02  0.12549067163E+04  0.13185681277E+04  0.40000000000E+03 0. -1.
   -9000007    1    1    2    0  501 -0.24297121653E+02 -0.56927066100E+02  0.25391349275E+04  0.25711937347E+04  0.40000000000E+03 0.  1.
<mgrwt>
<rscale>  2 0.40476047E+03</rscale>
<asrwt>0</asrwt>
<pdfrwt beam="1">  1        2 0.59106156E+00 0.40476047E+03</pdfrwt>
<pdfrwt beam="2">  1       -2 0.73630968E-02 0.40476047E+03</pdfrwt>
<totfact> 0.60290197E+01</totfact>
</mgrwt>
</event>
<event>
 4    1  0.2533915E-002  0.4197905E+03  0.7818608E-02  0.1037135E+00
          2   -1    0    0  502    0  0.00000000000E+00  0.00000000000E+00  0.33022113216E+04  0.33022113216E+04  0.00000000000E+00 0. -1.
         -2   -1    0    0    0  501 -0.00000000000E+00 -0.00000000000E+00 -0.99004085859E+02  0.99004085859E+02  0.00000000000E+00 0.  1.
    9000007    1    1    2  502    0  0.11839803999E+03 -0.46967750990E+02  0.44697104182E+03  0.61319424144E+03  0.40000000000E+03 0.  1.
   -9000007    1    1    2    0  501 -0.11839803999E+03  0.46967750990E+02  0.27562361939E+04  0.27880211660E+04  0.40000000000E+03 0. -1.
<mgrwt>
<rscale>  2 0.41979050E+03</rscale>
<asrwt>0</asrwt>
<pdfrwt beam="1">  1        2 0.50803243E+00 0.41979050E+03</pdfrwt>
<pdfrwt beam="2">  1       -2 0.15231400E-01 0.41979050E+03</pdfrwt>
<totfact> 0.43317587E+01</totfact>
</mgrwt>
</event>
<event>
 4    1  0.2533915E-002  0.4484643E+03  0.7818608E-02  0.1028181E+00
         -1   -1    0    0    0  501 -0.00000000000E+00  0.00000000000E+00  0.23448621066E+03  0.23448621066E+03  0.00000000000E+00 0. -1.
          1   -1    0    0  502    0  0.00000000000E+00 -0.00000000000E+00 -0.93585332316E+03  0.93585332316E+03  0.00000000000E+00 0.  1.
    9000007    1    1    2  502    0 -0.14209516475E+03 -0.14466923559E+03 -0.18158686350E+03  0.48383262867E+03  0.40000000000E+03 0. -1.
   -9000007    1    1    2    0  501  0.14209516475E+03  0.14466923559E+03 -0.51978024899E+03  0.68650690515E+03  0.40000000000E+03 0.  1.
<mgrwt>
<rscale>  2 0.44846429E+03</rscale>
<asrwt>0</asrwt>
<pdfrwt beam="1">  1        1 0.14397744E+00 0.44846429E+03</pdfrwt>
<pdfrwt beam="2">  1       -1 0.36074801E-01 0.44846429E+03</pdfrwt>
<totfact> 0.13076915E+02</totfact>
</mgrwt>
</event>
<event>
 4    1  0.2533915E-002  0.4349251E+03  0.7818608E-02  0.1032315E+00
          1   -1    0    0  502    0  0.00000000000E+00  0.00000000000E+00  0.14234535101E+04  0.14234535101E+04  0.00000000000E+00 0. -1.
         -1   -1    0    0    0  501 -0.00000000000E+00 -0.00000000000E+00 -0.15621935369E+03  0.15621935369E+03  0.00000000000E+00 0.  1.
    9000007    1    1    2  502    0 -0.10122425280E+03  0.13752638831E+03  0.93885601318E+03  0.10347030832E+04  0.40000000000E+03 0. -1.
   -9000007    1    1    2    0  501  0.10122425280E+03 -0.13752638831E+03  0.32837814322E+03  0.54496978061E+03  0.40000000000E+03 0.  1.
<mgrwt>
<rscale>  2 0.43492512E+03</rscale>
<asrwt>0</asrwt>
<pdfrwt beam="1">  1        1 0.21899284E+00 0.43492512E+03</pdfrwt>
<pdfrwt beam="2">  1       -1 0.24033748E-01 0.43492512E+03</pdfrwt>
<totfact> 0.11723616E+02</totfact>
</mgrwt>
</event>
<event>
 4    1  0.2533915E-002  0.4978420E+03  0.7818608E-02  0.1014344E+00
          2   -1    0    0  502    0  0.00000000000E+00  0.00000000000E+00  0.15356377214E+04  0.15356377214E+04  0.00000000000E+00 0.  1.
         -2   -1    0    0    0  501 -0.00000000000E+00 -0.00000000000E+00 -0.34073423092E+03  0.34073423092E+03  0.00000000000E+00 0. -1.
    9000007    1    1    2  502    0  0.27976064276E+03  0.97880603696E+02  0.12780907435E+04  0.13716277113E+04  0.40000000000E+03 0.  1.
   -9000007    1    1    2    0  501 -0.27976064276E+03 -0.97880603696E+02 -0.83187252972E+02  0.50474424105E+03  0.40000000000E+03 0. -1.
<mgrwt>
<rscale>  2 0.49784197E+03</rscale>
<asrwt>0</asrwt>
<pdfrwt beam="1">  1        2 0.23625195E+00 0.49784197E+03</pdfrwt>
<pdfrwt beam="2">  1       -2 0.52420652E-01 0.49784197E+03</pdfrwt>
<totfact> 0.44027151E+01</totfact>
</mgrwt>
</event>
<event>
 4    1  0.2533915E-002  0.5925901E+03  0.7818608E-02  0.9920900E-01
          1   -1    0    0  502    0  0.00000000000E+00  0.00000000000E+00  0.12994258841E+04  0.12994258841E+04  0.00000000000E+00 0. -1.
         -1   -1    0    0    0  501 -0.00000000000E+00 -0.00000000000E+00 -0.28356865415E+03  0.28356865415E+03  0.00000000000E+00 0.  1.
    9000007    1    1    2  502    0  0.75472652630E+02 -0.43065862037E+03  0.33636043494E+03  0.68139658848E+03  0.40000000000E+03 0.  1.
   -9000007    1    1    2    0  501 -0.75472652630E+02  0.43065862037E+03  0.67949679497E+03  0.90159794973E+03  0.40000000000E+03 0. -1.
<mgrwt>
<rscale>  2 0.59259005E+03</rscale>
<asrwt>0</asrwt>
<pdfrwt beam="1">  1        1 0.19991167E+00 0.59259005E+03</pdfrwt>
<pdfrwt beam="2">  1       -1 0.43625947E-01 0.59259005E+03</pdfrwt>
<totfact> 0.49141705E+01</totfact>
</mgrwt>
</event>
<event>
 4    1  0.2533915E-002  0.5377299E+03  0.7818608E-02  0.1004375E+00
         -2   -1    0    0    0  501 -0.00000000000E+00  0.00000000000E+00  0.22601102935E+03  0.22601102935E+03  0.00000000000E+00 0. -1.
          2   -1    0    0  502    0  0.00000000000E+00 -0.00000000000E+00 -0.18914982929E+04  0.18914982929E+04  0.00000000000E+00 0.  1.
    9000007    1    1    2  502    0  0.30558746073E+03 -0.18912883088E+03 -0.23044628797E+03  0.58502897574E+03  0.40000000000E+03 0. -1.
   -9000007    1    1    2    0  501 -0.30558746073E+03  0.18912883088E+03 -0.14350409756E+04  0.15324803465E+04  0.40000000000E+03 0. -1.
<mgrwt>
<rscale>  2 0.53772987E+03</rscale>
<asrwt>0</asrwt>
<pdfrwt beam="1">  1        2 0.29099974E+00 0.53772987E+03</pdfrwt>
<pdfrwt beam="2">  1       -2 0.34770928E-01 0.53772987E+03</pdfrwt>
<totfact> 0.62893791E+01</totfact>
</mgrwt>
</event>
<event>
 4    1  0.2533915E-002  0.4265217E+03  0.7818608E-02  0.1034964E+00
          1   -1    0    0  502    0  0.00000000000E+00  0.00000000000E+00  0.14584882907E+04  0.14584882907E+04  0.00000000000E+00 0. -1.
         -1   -1    0    0    0  501 -0.00000000000E+00 -0.00000000000E+00 -0.14664435347E+03  0.14664435347E+03  0.00000000000E+00 0.  1.
    9000007    1    1    2  502    0  0.14529011804E+03 -0.28487542910E+02  0.96615548468E+03  0.10561141885E+04  0.40000000000E+03 0. -1.
   -9000007    1    1    2    0  501 -0.14529011804E+03  0.28487542910E+02  0.34568845260E+03  0.54901845575E+03  0.40000000000E+03 0. -1.
<mgrwt>
<rscale>  2 0.42652170E+03</rscale>
<asrwt>0</asrwt>
<pdfrwt beam="1">  1        1 0.22438280E+00 0.42652170E+03</pdfrwt>
<pdfrwt beam="2">  1       -1 0.22560671E-01 0.42652170E+03</pdfrwt>
<totfact> 0.12353807E+02</totfact>
</mgrwt>
</event>
<event>
 4    1  0.2533915E-002  0.7056325E+03  0.7818608E-02  0.9707648E-01
         -2   -1    0    0    0  501 -0.00000000000E+00  0.00000000000E+00  0.21977910688E+03  0.21977910688E+03  0.00000000000E+00 0.  1.
          2   -1    0    0  502    0  0.00000000000E+00 -0.00000000000E+00 -0.25676296690E+04  0.25676296690E+04  0.00000000000E+00 0. -1.
    9000007    1    1    2  502    0  0.10030145524E+03  0.57258779861E+03 -0.16519785577E+04  0.17963714327E+04  0.40000000000E+03 0. -1.
   -9000007    1    1    2    0  501 -0.10030145524E+03 -0.57258779861E+03 -0.69587200438E+03  0.99103734315E+03  0.40000000000E+03 0. -1.
<mgrwt>
<rscale>  2 0.70563246E+03</rscale>
<asrwt>0</asrwt>
<pdfrwt beam="1">  1        2 0.39501999E+00 0.70563246E+03</pdfrwt>
<pdfrwt beam="2">  1       -2 0.33812166E-01 0.70563246E+03</pdfrwt>
<totfact> 0.27386281E+01</totfact>
</mgrwt>
</event>
<event>
 4    1  0.2533915E-002  0.4297988E+03  0.7818608E-02  0.1033924E+00
          2   -1    0    0  502    0  0.00000000000E+00  0.00000000000E+00  0.21400218634E+04  0.21400218634E+04  0.00000000000E+00 0. -1.
         -2   -1    0    0    0  501 -0.00000000000E+00 -0.00000000000E+00 -0.86844541884E+02  0.86844541884E+02  0.00000000000E+00 0.  1.
    9000007    1    1    2  502    0 -0.13350922405E+03 -0.83080062951E+02  0.94006784777E+03  0.10336607607E+04  0.40000000000E+03 0.  1.
   -9000007    1    1    2    0  501  0.13350922405E+03  0.83080062951E+02  0.11131094738E+04  0.11932056446E+04  0.40000000000E+03 0.  1.
<mgrwt>
<rscale>  2 0.42979880E+03</rscale>
<asrwt>0</asrwt>
<pdfrwt beam="1">  1        2 0.32923409E+00 0.42979880E+03</pdfrwt>
<pdfrwt beam="2">  1       -2 0.13360700E-01 0.42979880E+03</pdfrwt>
<totfact> 0.25311263E+02</totfact>
</mgrwt>
</event>
<event>
 4    1  0.2533915E-002  0.4001635E+03  0.7818608E-02  0.1043723E+00
          2   -1    0    0  502    0  0.00000000000E+00  0.00000000000E+00  0.23020976261E+03  0.23020976261E+03  0.00000000000E+00 0. -1.
         -2   -1    0    0    0  501 -0.00000000000E+00 -0.00000000000E+00 -0.75034804876E+03  0.75034804876E+03  0.00000000000E+00 0.  1.
    9000007    1    1    2  502    0 -0.83171179831E+01  0.78529662120E+01 -0.12762004874E+03  0.42002109515E+03  0.40000000000E+03 0. -1.
   -9000007    1    1    2    0  501  0.83171179831E+01 -0.78529662120E+01 -0.39251823741E+03  0.56053671622E+03  0.40000000000E+03 0.  1.
<mgrwt>
<rscale>  2 0.40016352E+03</rscale>
<asrwt>0</asrwt>
<pdfrwt beam="1">  1        2 0.35416886E-01 0.40016352E+03</pdfrwt>
<pdfrwt beam="2">  1       -2 0.11543816E+00 0.40016352E+03</pdfrwt>
<totfact> 0.88759447E+01</totfact>
</mgrwt>
</event>
<event>
 4    1  0.2533915E-002  0.4416348E+03  0.7818608E-02  0.1030246E+00
         -1   -1    0    0    0  501 -0.00000000000E+00  0.00000000000E+00  0.33124868312E+03  0.33124868312E+03  0.00000000000E+00 0. -1.
          1   -1    0    0  502    0  0.00000000000E+00 -0.00000000000E+00 -0.11352858836E+04  0.11352858836E+04  0.00000000000E+00 0.  1.
    9000007    1    1    2  502    0 -0.17946916733E+03  0.53217922121E+02 -0.91075948239E+03  0.10121878106E+04  0.40000000000E+03 0.  1.
   -9000007    1    1    2    0  501  0.17946916733E+03 -0.53217922121E+02  0.10672228196E+03  0.45434675604E+03  0.40000000000E+03 0. -1.
<mgrwt>
<rscale>  2 0.44163484E+03</rscale>
<asrwt>0</asrwt>
<pdfrwt beam="1">  1        1 0.17465936E+00 0.44163484E+03</pdfrwt>
<pdfrwt beam="2">  1       -1 0.50961336E-01 0.44163484E+03</pdfrwt>
<totfact> 0.49326224E+01</totfact>
</mgrwt>
</event>
<event>
 4    1  0.2533915E-002  0.4787825E+03  0.7818608E-02  0.1019470E+00
         -1   -1    0    0    0  501 -0.00000000000E+00  0.00000000000E+00  0.67887641556E+02  0.67887641556E+02  0.00000000000E+00 0. -1.
          1   -1    0    0  502    0  0.00000000000E+00 -0.00000000000E+00 -0.33779518540E+04  0.33779518540E+04  0.00000000000E+00 0.  1.
    9000007    1    1    2  502    0 -0.24859883349E+03 -0.86204906163E+02 -0.16888822649E+04  0.17554361198E+04  0.40000000000E+03 0.  1.
   -9000007    1    1    2    0  501  0.24859883349E+03  0.86204906163E+02 -0.16211819475E+04  0.16904033758E+04  0.40000000000E+03 0. -1.
<mgrwt>
<rscale>  2 0.47878248E+03</rscale>
<asrwt>0</asrwt>
<pdfrwt beam="1">  1        1 0.51968478E+00 0.47878248E+03</pdfrwt>
<pdfrwt beam="2">  1       -1 0.10444255E-01 0.47878248E+03</pdfrwt>
<totfact> 0.20663877E+01</totfact>
</mgrwt>
</event>
<event>
 4    1  0.2533915E-002  0.4161861E+03  0.7818608E-02  0.1038315E+00
          2   -1    0    0  502    0  0.00000000000E+00  0.00000000000E+00  0.53489017651E+03  0.53489017651E+03  0.00000000000E+00 0.  1.
         -2   -1    0    0    0  501 -0.00000000000E+00 -0.00000000000E+00 -0.33683222665E+03  0.33683222665E+03  0.00000000000E+00 0. -1.
    9000007    1    1    2  502    0  0.94342675762E+02 -0.65653340385E+02  0.18467967821E+03  0.45532129878E+03  0.40000000000E+03 0.  1.
   -9000007    1    1    2    0  501 -0.94342675762E+02  0.65653340385E+02  0.13378271646E+02  0.41640110438E+03  0.40000000000E+03 0. -1.
<mgrwt>
<rscale>  2 0.41618614E+03</rscale>
<asrwt>0</asrwt>
<pdfrwt beam="1">  1        2 0.82290796E-01 0.41618614E+03</pdfrwt>
<pdfrwt beam="2">  1       -2 0.51820343E-01 0.41618614E+03</pdfrwt>
<totfact> 0.20553269E+02</totfact>
</mgrwt>
</event>
<event>
 4    1  0.2533915E-002  0.4843010E+03  0.7818608E-02  0.1017960E+00
          2   -1    0    0  502    0  0.00000000000E+00  0.00000000000E+00  0.26726299842E+04  0.26726299842E+04  0.00000000000E+00 0. -1.
         -2   -1    0    0    0  501 -0.00000000000E+00 -0.00000000000E+00 -0.13642408741E+03  0.13642408741E+03  0.00000000000E+00 0.  1.
    9000007    1    1    2  502    0  0.19841318701E+03 -0.18756240409E+03  0.21069700046E+04  0.21619135155E+04  0.40000000000E+03 0. -1.
   -9000007    1    1    2    0  501 -0.19841318701E+03  0.18756240409E+03  0.42923589215E+03  0.64714055608E+03  0.40000000000E+03 0.  1.
<mgrwt>
<rscale>  2 0.48430099E+03</rscale>
<asrwt>0</asrwt>
<pdfrwt beam="1">  1        2 0.41117381E+00 0.48430099E+03</pdfrwt>
<pdfrwt beam="2">  1       -2 0.20988323E-01 0.48430099E+03</pdfrwt>
<totfact> 0.59033280E+01</totfact>
</mgrwt>
</event>
<event>
 4    1  0.2533915E-002  0.4463840E+03  0.7818608E-02  0.1028806E+00
         -2   -1    0    0    0  501 -0.00000000000E+00  0.00000000000E+00  0.10004089888E+03  0.10004089888E+03  0.00000000000E+00 0.  1.
          2   -1    0    0  502    0  0.00000000000E+00 -0.00000000000E+00 -0.19941011322E+04  0.19941011322E+04  0.00000000000E+00 0. -1.
    9000007    1    1    2  502    0  0.40315520453E+02  0.19399313185E+03 -0.98281383834E+03  0.10794358328E+04  0.40000000000E+03 0. -1.
   -9000007    1    1    2    0  501 -0.40315520453E+02 -0.19399313185E+03 -0.91124639497E+03  0.10147061982E+04  0.40000000000E+03 0. -1.
<mgrwt>
<rscale>  2 0.44638400E+03</rscale>
<asrwt>0</asrwt>
<pdfrwt beam="1">  1        2 0.30678477E+00 0.44638400E+03</pdfrwt>
<pdfrwt beam="2">  1       -2 0.15390909E-01 0.44638400E+03</pdfrwt>
<totfact> 0.23891359E+02</totfact>
</mgrwt>
</event>
<event>
 4    1  0.2533915E-002  0.5213296E+03  0.7818608E-02  0.1008357E+00
          1   -1    0    0  502    0  0.00000000000E+00  0.00000000000E+00  0.94197577893E+03  0.94197577893E+03  0.00000000000E+00 0.  1.
         -1   -1    0    0    0  501 -0.00000000000E+00 -0.00000000000E+00 -0.31394013871E+03  0.31394013871E+03  0.00000000000E+00 0. -1.
    9000007    1    1    2  502    0  0.20583351471E+03  0.26347118818E+03  0.49268502840E+03  0.71730261396E+03  0.40000000000E+03 0.  1.
   -9000007    1    1    2    0  501 -0.20583351471E+03 -0.26347118818E+03  0.13535061182E+03  0.53861330368E+03  0.40000000000E+03 0. -1.
<mgrwt>
<rscale>  2 0.52132955E+03</rscale>
<asrwt>0</asrwt>
<pdfrwt beam="1">  1        1 0.14491935E+00 0.52132955E+03</pdfrwt>
<pdfrwt beam="2">  1       -1 0.48298483E-01 0.52132955E+03</pdfrwt>
<totfact> 0.75408113E+01</totfact>
</mgrwt>
</event>
<event>
 4    1  0.2533915E-002  0.4058479E+03  0.7818608E-02  0.1041773E+00
         -1   -1    0    0    0  501 -0.00000000000E+00  0.00000000000E+00  0.18127105447E+03  0.18127105447E+03  0.00000000000E+00 0.  1.
          1   -1    0    0  502    0  0.00000000000E+00 -0.00000000000E+00 -0.25369248627E+04  0.25369248627E+04  0.00000000000E+00 0. -1.
    9000007    1    1    2  502    0 -0.54401178625E+02  0.41869037426E+02 -0.22666577215E+04  0.23027048728E+04  0.40000000000E+03 0. -1.
   -9000007    1    1    2    0  501  0.54401178625E+02 -0.41869037426E+02 -0.88996086719E+02  0.41549104441E+03  0.40000000000E+03 0.  1.
<mgrwt>
<rscale>  2 0.40584788E+03</rscale>
<asrwt>0</asrwt>
<pdfrwt beam="1">  1        1 0.39029613E+00 0.40584788E+03</pdfrwt>
<pdfrwt beam="2">  1       -1 0.27887855E-01 0.40584788E+03</pdfrwt>
<totfact> 0.16701528E+01</totfact>
</mgrwt>
</event>
<event>
 4    1  0.2533915E-002  0.4430096E+03  0.7818608E-02  0.1029827E+00
          1   -1    0    0  502    0  0.00000000000E+00  0.00000000000E+00  0.46524759628E+03  0.46524759628E+03  0.00000000000E+00 0. -1.
         -1   -1    0    0    0  501 -0.00000000000E+00 -0.00000000000E+00 -0.47542514356E+03  0.47542514356E+03  0.00000000000E+00 0.  1.
    9000007    1    1    2  502    0 -0.15910845509E+03  0.10460406512E+03  0.15282200282E+03  0.46862786459E+03  0.40000000000E+03 0. -1.
   -9000007    1    1    2    0  501  0.15910845509E+03 -0.10460406512E+03 -0.16299955010E+03  0.47204487525E+03  0.40000000000E+03 0.  1.
<mgrwt>
<rscale>  2 0.44300961E+03</rscale>
<asrwt>0</asrwt>
<pdfrwt beam="1">  1        1 0.71576553E-01 0.44300961E+03</pdfrwt>
<pdfrwt beam="2">  1       -1 0.73142330E-01 0.44300961E+03</pdfrwt>
<totfact> 0.96358457E+01</totfact>
</mgrwt>
</event>
<event>
 4    1  0.2533915E-002  0.8002387E+03  0.7818608E-02  0.9559672E-01
          1   -1    0    0  502    0  0.00000000000E+00  0.00000000000E+00  0.26918708301E+04  0.26918708301E+04  0.00000000000E+00 0. -1.
         -1   -1    0    0    0  501 -0.00000000000E+00 -0.00000000000E+00 -0.23793977173E+03  0.23793977173E+03  0.00000000000E+00 0.  1.
    9000007    1    1    2  502    0 -0.29149526804E+03 -0.62881827929E+03  0.12068134300E+04  0.14480264412E+04  0.40000000000E+03 0. -1.
   -9000007    1    1    2    0  501  0.29149526804E+03  0.62881827929E+03  0.12471176284E+04  0.14817841606E+04  0.40000000000E+03 0.  1.
<mgrwt>
<rscale>  2 0.80023866E+03</rscale>
<asrwt>0</asrwt>
<pdfrwt beam="1">  1        1 0.41413395E+00 0.80023866E+03</pdfrwt>
<pdfrwt beam="2">  1       -1 0.36606121E-01 0.80023866E+03</pdfrwt>
<totfact> 0.74742262E+00</totfact>
</mgrwt>
</event>
<event>
 4    1  0.2533915E-002  0.4062116E+03  0.7818608E-02  0.1041650E+00
         -3   -1    0    0    0  501 -0.00000000000E+00  0.00000000000E+00  0.16102066453E+03  0.16102066453E+03  0.00000000000E+00 0. -1.
          3   -1    0    0  502    0  0.00000000000E+00 -0.00000000000E+00 -0.10825253760E+04  0.10825253760E+04  0.00000000000E+00 0.  1.
    9000007    1    1    2  502    0  0.70127184781E+02  0.94874378065E+01 -0.60438054704E+03  0.72820579451E+03  0.40000000000E+03 0.  1.
   -9000007    1    1    2    0  501 -0.70127184781E+02 -0.94874378065E+01 -0.31712416448E+03  0.51534024607E+03  0.40000000000E+03 0. -1.
<mgrwt>
<rscale>  2 0.40621156E+03</rscale>
<asrwt>0</asrwt>
<pdfrwt beam="1">  1        3 0.16654236E+00 0.40621156E+03</pdfrwt>
<pdfrwt beam="2">  1       -3 0.24772411E-01 0.40621156E+03</pdfrwt>
<totfact> 0.10003841E+01</totfact>
</mgrwt>
</event>
<event>
 4    1  0.2533915E-002  0.4303281E+03  0.7818608E-02  0.1033756E+00
         -4   -1    0    0    0  501 -0.00000000000E+00  0.00000000000E+00  0.16824499069E+03  0.16824499069E+03  0.00000000000E+00 0. -1.
          4   -1    0    0  502    0  0.00000000000E+00 -0.00000000000E+00 -0.11046246345E+04  0.11046246345E+04  0.00000000000E+00 0.  1.
    9000007    1    1    2  502    0 -0.12913821649E+03  0.92225703370E+02 -0.50626876784E+03  0.66444738288E+03  0.40000000000E+03 0.  1.
   -9000007    1    1    2    0  501  0.12913821649E+03 -0.92225703370E+02 -0.43011087601E+03  0.60842224235E+03  0.40000000000E+03 0.  1.
<mgrwt>
<rscale>  2 0.43032808E+03</rscale>
<asrwt>0</asrwt>
<pdfrwt beam="1">  1        4 0.16994225E+00 0.43032808E+03</pdfrwt>
<pdfrwt beam="2">  1       -4 0.25883845E-01 0.43032808E+03</pdfrwt>
<totfact> 0.59208318E+00</totfact>
</mgrwt>
</event>
<event>
 4    1  0.2533915E-002  0.4207862E+03  0.7818608E-02  0.1036811E+00
          2   -1    0    0  502    0  0.00000000000E+00  0.00000000000E+00  0.18196528475E+03  0.18196528475E+03  0.00000000000E+00 0.  1.
         -2   -1    0    0    0  501 -0.00000000000E+00 -0.00000000000E+00 -0.10013745559E+04  0.10013745559E+04  0.00000000000E+00 0. -1.
    9000007    1    1    2  502    0 -0.13031667745E+03 -0.88636984156E+01 -0.50921680605E+03  0.66057759357E+03  0.40000000000E+03 0. -1.
   -9000007    1    1    2    0  501  0.13031667745E+03  0.88636984156E+01 -0.31019246514E+03  0.52276224711E+03  0.40000000000E+03 0. -1.
<mgrwt>
<rscale>  2 0.42078617E+03</rscale>
<asrwt>0</asrwt>
<pdfrwt beam="1">  1        2 0.27994659E-01 0.42078617E+03</pdfrwt>
<pdfrwt beam="2">  1       -2 0.15405762E+00 0.42078617E+03</pdfrwt>
<totfact> 0.55527592E+01</totfact>
</mgrwt>
</event>
<event>
 4    1  0.2533915E-002  0.4288429E+03  0.7818608E-02  0.1034226E+00
         -2   -1    0    0    0  501 -0.00000000000E+00  0.00000000000E+00  0.13637835341E+03  0.13637835341E+03  0.00000000000E+00 0.  1.
          2   -1    0    0  502    0  0.00000000000E+00 -0.00000000000E+00 -0.13485042391E+04  0.13485042391E+04  0.00000000000E+00 0. -1.
    9000007    1    1    2  502    0 -0.14759899535E+03  0.46052159750E+02 -0.60731478041E+03  0.74346318493E+03  0.40000000000E+03 0. -1.
   -9000007    1    1    2    0  501  0.14759899535E+03 -0.46052159750E+02 -0.60481110527E+03  0.74141940756E+03  0.40000000000E+03 0. -1.
<mgrwt>
<rscale>  2 0.42884294E+03</rscale>
<asrwt>0</asrwt>
<pdfrwt beam="1">  1        2 0.20746219E+00 0.42884294E+03</pdfrwt>
<pdfrwt beam="2">  1       -2 0.20981285E-01 0.42884294E+03</pdfrwt>
<totfact> 0.31503778E+02</totfact>
</mgrwt>
</event>
<event>
 4    1  0.2533915E-002  0.4282792E+03  0.7818608E-02  0.1034405E+00
         -2   -1    0    0    0  501 -0.00000000000E+00  0.00000000000E+00  0.41089909561E+03  0.41089909561E+03  0.00000000000E+00 0.  1.
          2   -1    0    0  502    0  0.00000000000E+00 -0.00000000000E+00 -0.45605566097E+03  0.45605566097E+03  0.00000000000E+00 0. -1.
    9000007    1    1    2  502    0  0.14022355060E+03  0.61322167161E+02  0.40513758629E+02  0.43019114004E+03  0.40000000000E+03 0.  1.
   -9000007    1    1    2    0  501 -0.14022355060E+03 -0.61322167161E+02 -0.85670323986E+02  0.43676361655E+03  0.40000000000E+03 0. -1.
<mgrwt>
<rscale>  2 0.42827918E+03</rscale>
<asrwt>0</asrwt>
<pdfrwt beam="1">  1        2 0.70162409E-01 0.42827918E+03</pdfrwt>
<pdfrwt beam="2">  1       -2 0.63215246E-01 0.42827918E+03</pdfrwt>
<totfact> 0.16308983E+02</totfact>
</mgrwt>
</event>
<event>
 4    1  0.2533915E-002  0.7260535E+03  0.7818608E-02  0.9673686E-01
         -2   -1    0    0    0  501 -0.00000000000E+00  0.00000000000E+00  0.44038713021E+03  0.44038713021E+03  0.00000000000E+00 0.  1.
          2   -1    0    0  502    0  0.00000000000E+00 -0.00000000000E+00 -0.16572172528E+04  0.16572172528E+04  0.00000000000E+00 0. -1.
    9000007    1    1    2  502    0  0.43237744692E+03  0.42450376024E+03 -0.55734397351E+02  0.72818955095E+03  0.40000000000E+03 0.  1.
   -9000007    1    1    2    0  501 -0.43237744692E+03 -0.42450376024E+03 -0.11610957252E+04  0.13694148320E+04  0.40000000000E+03 0.  1.
<mgrwt>
<rscale>  2 0.72605351E+03</rscale>
<asrwt>0</asrwt>
<pdfrwt beam="1">  1        2 0.25495650E+00 0.72605351E+03</pdfrwt>
<pdfrwt beam="2">  1       -2 0.67751866E-01 0.72605351E+03</pdfrwt>
<totfact> 0.21297989E+01</totfact>
</mgrwt>
</event>
<event>
 4    1  0.2533915E-002  0.4427914E+03  0.7818608E-02  0.1029894E+00
          2   -1    0    0  502    0  0.00000000000E+00  0.00000000000E+00  0.13220303835E+04  0.13220303835E+04  0.00000000000E+00 0. -1.
         -2   -1    0    0    0  501 -0.00000000000E+00 -0.00000000000E+00 -0.18737820680E+03  0.18737820680E+03  0.00000000000E+00 0.  1.
    9000007    1    1    2  502    0  0.11009528997E+03  0.15473621160E+03  0.22269496966E+03  0.49563829308E+03  0.40000000000E+03 0.  1.
   -9000007    1    1    2    0  501 -0.11009528997E+03 -0.15473621160E+03  0.91195720705E+03  0.10137702972E+04  0.40000000000E+03 0. -1.
<mgrwt>
<rscale>  2 0.44279145E+03</rscale>
<asrwt>0</asrwt>
<pdfrwt beam="1">  1        2 0.20338928E+00 0.44279145E+03</pdfrwt>
<pdfrwt beam="2">  1       -2 0.28827417E-01 0.44279145E+03</pdfrwt>
<totfact> 0.18466813E+02</totfact>
</mgrwt>
</event>
<event>
 4    1  0.2533915E-002  0.4235695E+03  0.7818608E-02  0.1035911E+00
          2   -1    0    0  502    0  0.00000000000E+00  0.00000000000E+00  0.16200635669E+04  0.16200635669E+04  0.00000000000E+00 0.  1.
         -2   -1    0    0    0  501 -0.00000000000E+00 -0.00000000000E+00 -0.11567687097E+03  0.11567687097E+03  0.00000000000E+00 0. -1.
    9000007    1    1    2  502    0  0.87570829520E+01  0.13904837087E+03  0.57296217017E+03  0.71252844461E+03  0.40000000000E+03 0. -1.
   -9000007    1    1    2    0  501 -0.87570829520E+01 -0.13904837087E+03  0.93142452572E+03  0.10232119932E+04  0.40000000000E+03 0.  1.
<mgrwt>
<rscale>  2 0.42356952E+03</rscale>
<asrwt>0</asrwt>
<pdfrwt beam="1">  1        2 0.24924053E+00 0.42356952E+03</pdfrwt>
<pdfrwt beam="2">  1       -2 0.17796443E-01 0.42356952E+03</pdfrwt>
<totfact> 0.29731186E+02</totfact>
</mgrwt>
</event>
<event>
 4    1  0.2533915E-002  0.4524415E+03  0.7818608E-02  0.1026996E+00
          2   -1    0    0  502    0  0.00000000000E+00  0.00000000000E+00  0.54124332510E+03  0.54124332510E+03  0.00000000000E+00 0. -1.
         -2   -1    0    0    0  501 -0.00000000000E+00 -0.00000000000E+00 -0.39026035599E+03  0.39026035599E+03  0.00000000000E+00 0.  1.
    9000007    1    1    2  502    0  0.87096977711E+02 -0.19265890501E+03  0.15733557262E+03  0.47901755669E+03  0.40000000000E+03 0.  1.
   -9000007    1    1    2    0  501 -0.87096977711E+02  0.19265890501E+03 -0.63526035018E+01  0.45248612440E+03  0.40000000000E+03 0.  1.
<mgrwt>
<rscale>  2 0.45244153E+03</rscale>
<asrwt>0</asrwt>
<pdfrwt beam="1">  1        2 0.83268205E-01 0.45244153E+03</pdfrwt>
<pdfrwt beam="2">  1       -2 0.60040054E-01 0.45244153E+03</pdfrwt>
<totfact> 0.14922887E+02</totfact>
</mgrwt>
</event>
<event>
 4    1  0.2533915E-002  0.4417338E+03  0.7818608E-02  0.1030216E+00
          1   -1    0    0  502    0  0.00000000000E+00  0.00000000000E+00  0.81775388921E+03  0.81775388921E+03  0.00000000000E+00 0. -1.
         -1   -1    0    0    0  501 -0.00000000000E+00 -0.00000000000E+00 -0.42481690965E+03  0.42481690965E+03  0.00000000000E+00 0.  1.
    9000007    1    1    2  502    0 -0.32518721443E+02  0.18458418343E+03 -0.21485326738E+03  0.49121351215E+03  0.40000000000E+03 0.  1.
   -9000007    1    1    2    0  501  0.32518721443E+02 -0.18458418343E+03  0.60779024694E+03  0.75135728671E+03  0.40000000000E+03 0. -1.
<mgrwt>
<rscale>  2 0.44173384E+03</rscale>
<asrwt>0</asrwt>
<pdfrwt beam="1">  1        1 0.12580829E+00 0.44173384E+03</pdfrwt>
<pdfrwt beam="2">  1       -1 0.65356447E-01 0.44173384E+03</pdfrwt>
<totfact> 0.53735220E+01</totfact>
</mgrwt>
</event>
<event>
 4    1  0.2533915E-002  0.4430353E+03  0.7818608E-02  0.1029820E+00
         -1   -1    0    0    0  501 -0.00000000000E+00  0.00000000000E+00  0.42267191319E+03  0.42267191319E+03  0.00000000000E+00 0.  1.
          1   -1    0    0  502    0  0.00000000000E+00 -0.00000000000E+00 -0.46691850271E+03  0.46691850271E+03  0.00000000000E+00 0. -1.
    9000007    1    1    2  502    0 -0.18995151923E+03 -0.14094530970E+02 -0.54922116381E+02  0.44642656096E+03  0.40000000000E+03 0.  1.
   -9000007    1    1    2    0  501  0.18995151923E+03  0.14094530970E+02  0.10675526861E+02  0.44316385495E+03  0.40000000000E+03 0. -1.
<mgrwt>
<rscale>  2 0.44303525E+03</rscale>
<asrwt>0</asrwt>
<pdfrwt beam="1">  1        1 0.71833615E-01 0.44303525E+03</pdfrwt>
<pdfrwt beam="2">  1       -1 0.65026449E-01 0.44303525E+03</pdfrwt>
<totfact> 0.12158892E+02</totfact>
</mgrwt>
</event>
<event>
 4    1  0.2533915E-002  0.5159003E+03  0.7818608E-02  0.1009710E+00
          1   -1    0    0  502    0  0.00000000000E+00  0.00000000000E+00  0.17881648313E+03  0.17881648313E+03  0.00000000000E+00 0.  1.
         -1   -1    0    0    0  501 -0.00000000000E+00 -0.00000000000E+00 -0.14889555159E+04  0.14889555159E+04  0.00000000000E+00 0. -1.
    9000007    1    1    2  502    0 -0.32564509699E+03 -0.10409513291E+02 -0.67096153802E+03  0.84637017472E+03  0.40000000000E+03 0.  1.
   -9000007    1    1    2    0  501  0.32564509699E+03  0.10409513291E+02 -0.63917749475E+03  0.82140182430E+03  0.40000000000E+03 0.  1.
<mgrwt>
<rscale>  2 0.51590027E+03</rscale>
<asrwt>0</asrwt>
<pdfrwt beam="1">  1        1 0.27510229E-01 0.51590027E+03</pdfrwt>
<pdfrwt beam="2">  1       -1 0.22907007E+00 0.51590027E+03</pdfrwt>
<totfact> 0.17480389E+01</totfact>
</mgrwt>
</event>
<event>
 4    1  0.2533915E-002  0.7926755E+03  0.7818608E-02  0.9570680E-01
         -1   -1    0    0    0  501 -0.00000000000E+00  0.00000000000E+00  0.98297536629E+03  0.98297536629E+03  0.00000000000E+00 0. -1.
          1   -1    0    0  502    0  0.00000000000E+00 -0.00000000000E+00 -0.97511819423E+03  0.97511819423E+03  0.00000000000E+00 0.  1.
    9000007    1    1    2  502    0  0.29338356821E+03 -0.61827226878E+03  0.57854842925E+03  0.98135253677E+03  0.40000000000E+03 0. -1.
   -9000007    1    1    2    0  501 -0.29338356821E+03  0.61827226878E+03 -0.57069125719E+03  0.97674102375E+03  0.40000000000E+03 0.  1.
<mgrwt>
<rscale>  2 0.79267554E+03</rscale>
<asrwt>0</asrwt>
<pdfrwt beam="1">  1        1 0.15001818E+00 0.79267554E+03</pdfrwt>
<pdfrwt beam="2">  1       -1 0.15122698E+00 0.79267554E+03</pdfrwt>
<totfact> 0.55602818E+00</totfact>
</mgrwt>
</event>
<event>
 4    1  0.2533915E-002  0.4168358E+03  0.7818608E-02  0.1038101E+00
         -1   -1    0    0    0  501 -0.00000000000E+00  0.00000000000E+00  0.41331834419E+03  0.41331834419E+03  0.00000000000E+00 0. -1.
          1   -1    0    0  502    0  0.00000000000E+00 -0.00000000000E+00 -0.52085291661E+03  0.52085291661E+03  0.00000000000E+00 0.  1.
    9000007    1    1    2  502    0  0.44903967591E+02  0.10833156363E+03  0.15137562511E+03  0.44347116463E+03  0.40000000000E+03 0. -1.
   -9000007    1    1    2    0  501 -0.44903967591E+02 -0.10833156363E+03 -0.25891019753E+03  0.49070009616E+03  0.40000000000E+03 0.  1.
<mgrwt>
<rscale>  2 0.41683581E+03</rscale>
<asrwt>0</asrwt>
<pdfrwt beam="1">  1        1 0.80131218E-01 0.41683581E+03</pdfrwt>
<pdfrwt beam="2">  1       -1 0.63587437E-01 0.41683581E+03</pdfrwt>
<totfact> 0.10997464E+02</totfact>
</mgrwt>
</event>
<event>
 4    1  0.2533915E-002  0.4713749E+03  0.7818608E-02  0.1021533E+00
         -2   -1    0    0    0  501 -0.00000000000E+00  0.00000000000E+00  0.75009436569E+03  0.75009436569E+03  0.00000000000E+00 0.  1.
          2   -1    0    0  502    0  0.00000000000E+00 -0.00000000000E+00 -0.54362960027E+03  0.54362960027E+03  0.00000000000E+00 0. -1.
    9000007    1    1    2  502    0  0.24284494076E+03  0.56751017158E+02 -0.33314951545E+03  0.57722001251E+03  0.40000000000E+03 0. -1.
   -9000007    1    1    2    0  501 -0.24284494076E+03 -0.56751017158E+02  0.53961428086E+03  0.71650395345E+03  0.40000000000E+03 0.  1.
<mgrwt>
<rscale>  2 0.47137495E+03</rscale>
<asrwt>0</asrwt>
<pdfrwt beam="1">  1        2 0.83635323E-01 0.47137495E+03</pdfrwt>
<pdfrwt beam="2">  1       -2 0.11539913E+00 0.47137495E+03</pdfrwt>
<totfact> 0.33932276E+01</totfact>
</mgrwt>
</event>
<event>
 4    1  0.2533915E-002  0.4143935E+03  0.7818608E-02  0.1038907E+00
         -2   -1    0    0    0  501 -0.00000000000E+00  0.00000000000E+00  0.21469648079E+03  0.21469648079E+03  0.00000000000E+00 0.  1.
          2   -1    0    0  502    0  0.00000000000E+00 -0.00000000000E+00 -0.80545069448E+03  0.80545069448E+03  0.00000000000E+00 0. -1.
    9000007    1    1    2  502    0 -0.22762898193E+02  0.10584812290E+03 -0.25279017280E+03  0.48541203747E+03  0.40000000000E+03 0.  1.
   -9000007    1    1    2    0  501  0.22762898193E+02 -0.10584812290E+03 -0.33796404090E+03  0.53473513780E+03  0.40000000000E+03 0. -1.
<mgrwt>
<rscale>  2 0.41439350E+03</rscale>
<asrwt>0</asrwt>
<pdfrwt beam="1">  1        2 0.12391549E+00 0.41439350E+03</pdfrwt>
<pdfrwt beam="2">  1       -2 0.33030228E-01 0.41439350E+03</pdfrwt>
<totfact> 0.29976899E+02</totfact>
</mgrwt>
</event>
<event>
 4    1  0.2533915E-002  0.4801345E+03  0.7818608E-02  0.1019098E+00
          1   -1    0    0  502    0  0.00000000000E+00  0.00000000000E+00  0.11748155672E+04  0.11748155672E+04  0.00000000000E+00 0.  1.
         -1   -1    0    0    0  501 -0.00000000000E+00 -0.00000000000E+00 -0.21062966633E+03  0.21062966633E+03  0.00000000000E+00 0. -1.
    9000007    1    1    2  502    0 -0.14056637554E+03 -0.22532255061E+03  0.66324310642E+03  0.81879214454E+03  0.40000000000E+03 0.  1.
   -9000007    1    1    2    0  501  0.14056637554E+03  0.22532255061E+03  0.30094279446E+03  0.56665308901E+03  0.40000000000E+03 0. -1.
<mgrwt>
<rscale>  2 0.48013452E+03</rscale>
<asrwt>0</asrwt>
<pdfrwt beam="1">  1        1 0.18074085E+00 0.48013452E+03</pdfrwt>
<pdfrwt beam="2">  1       -1 0.32404565E-01 0.48013452E+03</pdfrwt>
<totfact> 0.10415758E+02</totfact>
</mgrwt>
</event>
<event>
 4    1  0.2533915E-002  0.6887670E+03  0.7818608E-02  0.9736637E-01
         -2   -1    0    0    0  501 -0.00000000000E+00  0.00000000000E+00  0.55343006659E+03  0.55343006659E+03  0.00000000000E+00 0.  1.
          2   -1    0    0  502    0  0.00000000000E+00 -0.00000000000E+00 -0.86351026359E+03  0.86351026359E+03  0.00000000000E+00 0. -1.
    9000007    1    1    2  502    0  0.41931289634E+03 -0.37225889159E+03 -0.21560598568E+03  0.72172427455E+03  0.40000000000E+03 0. -1.
   -9000007    1    1    2    0  501 -0.41931289634E+03  0.37225889159E+03 -0.94474211317E+02  0.69521605563E+03  0.40000000000E+03 0.  1.
<mgrwt>
<rscale>  2 0.68876701E+03</rscale>
<asrwt>0</asrwt>
<pdfrwt beam="1">  1        2 0.13284773E+00 0.68876701E+03</pdfrwt>
<pdfrwt beam="2">  1       -2 0.85143088E-01 0.68876701E+03</pdfrwt>
<totfact> 0.38031558E+01</totfact>
</mgrwt>
</event>
<event>
 4    1  0.2533915E-002  0.4467903E+03  0.7818608E-02  0.1028684E+00
          1   -1    0    0  502    0  0.00000000000E+00  0.00000000000E+00  0.16348209128E+04  0.16348209128E+04  0.00000000000E+00 0. -1.
         -1   -1    0    0    0  501 -0.00000000000E+00 -0.00000000000E+00 -0.12268021019E+03  0.12268021019E+03  0.00000000000E+00 0.  1.
    9000007    1    1    2  502    0  0.14397686099E+02 -0.19853031550E+03  0.69595545831E+03  0.82702816125E+03  0.40000000000E+03 0.  1.
   -9000007    1    1    2    0  501 -0.14397686099E+02  0.19853031550E+03  0.81618524432E+03  0.93047296177E+03  0.40000000000E+03 0. -1.
<mgrwt>
<rscale>  2 0.44679031E+03</rscale>
<asrwt>0</asrwt>
<pdfrwt beam="1">  1        1 0.25151089E+00 0.44679031E+03</pdfrwt>
<pdfrwt beam="2">  1       -1 0.18873880E-01 0.44679031E+03</pdfrwt>
<totfact> 0.12599598E+02</totfact>
</mgrwt>
</event>
<event>
 4    1  0.2533915E-002  0.4857900E+03  0.7818608E-02  0.1017556E+00
          1   -1    0    0  502    0  0.00000000000E+00  0.00000000000E+00  0.10851007343E+04  0.10851007343E+04  0.00000000000E+00 0.  1.
         -1   -1    0    0    0  501 -0.00000000000E+00 -0.00000000000E+00 -0.21889371787E+03  0.21889371787E+03  0.00000000000E+00 0. -1.
    9000007    1    1    2  502    0  0.21833778542E+03  0.16828694784E+03  0.38077741604E+03  0.61723846763E+03  0.40000000000E+03 0. -1.
   -9000007    1    1    2    0  501 -0.21833778542E+03 -0.16828694784E+03  0.48542960038E+03  0.68675598453E+03  0.40000000000E+03 0.  1.
<mgrwt>
<rscale>  2 0.48578996E+03</rscale>
<asrwt>0</asrwt>
<pdfrwt beam="1">  1        1 0.16693857E+00 0.48578996E+03</pdfrwt>
<pdfrwt beam="2">  1       -1 0.33675957E-01 0.48578996E+03</pdfrwt>
<totfact> 0.11312163E+02</totfact>
</mgrwt>
</event>
<event>
 4    1  0.2533915E-002  0.4235644E+03  0.7818608E-02  0.1035912E+00
         -1   -1    0    0    0  501 -0.00000000000E+00  0.00000000000E+00  0.97716388506E+02  0.97716388506E+02  0.00000000000E+00 0.  1.
          1   -1    0    0  502    0  0.00000000000E+00 -0.00000000000E+00 -0.22827305119E+04  0.22827305119E+04  0.00000000000E+00 0. -1.
    9000007    1    1    2  502    0  0.13905857567E+03  0.83353991019E+01 -0.16190412677E+04  0.16735296211E+04  0.40000000000E+03 0. -1.
   -9000007    1    1    2    0  501 -0.13905857567E+03 -0.83353991019E+01 -0.56597285575E+03  0.70691727932E+03  0.40000000000E+03 0.  1.
<mgrwt>
<rscale>  2 0.42356436E+03</rscale>
<asrwt>0</asrwt>
<pdfrwt beam="1">  1        1 0.35118932E+00 0.42356436E+03</pdfrwt>
<pdfrwt beam="2">  1       -1 0.15033290E-01 0.42356436E+03</pdfrwt>
<totfact> 0.68316702E+01</totfact>
</mgrwt>
</event>
<event>
 4    1  0.2533915E-002  0.5345827E+03  0.7818608E-02  0.1005127E+00
          2   -1    0    0  502    0  0.00000000000E+00  0.00000000000E+00  0.29420784271E+04  0.29420784271E+04  0.00000000000E+00 0.  1.
         -2   -1    0    0    0  501 -0.00000000000E+00 -0.00000000000E+00 -0.13436766110E+03  0.13436766110E+03  0.00000000000E+00 0. -1.
    9000007    1    1    2  502    0  0.30009252132E+03  0.18900569500E+03  0.22135741384E+04  0.22772108248E+04  0.40000000000E+03 0.  1.
   -9000007    1    1    2    0  501 -0.30009252132E+03 -0.18900569500E+03  0.59413662754E+03  0.79923526341E+03  0.40000000000E+03 0. -1.
<mgrwt>
<rscale>  2 0.53458271E+03</rscale>
<asrwt>0</asrwt>
<pdfrwt beam="1">  1        2 0.45262740E+00 0.53458271E+03</pdfrwt>
<pdfrwt beam="2">  1       -2 0.20671950E-01 0.53458271E+03</pdfrwt>
<totfact> 0.41722408E+01</totfact>
</mgrwt>
</event>
<event>
 4    1  0.2533915E-002  0.5262701E+03  0.7818608E-02  0.1007141E+00
          2   -1    0    0  502    0  0.00000000000E+00  0.00000000000E+00  0.84153444573E+03  0.84153444573E+03  0.00000000000E+00 0. -1.
         -2   -1    0    0    0  501 -0.00000000000E+00 -0.00000000000E+00 -0.33130378275E+03  0.33130378275E+03  0.00000000000E+00 0.  1.
    9000007    1    1    2  502    0 -0.28410057445E+03 -0.19038656750E+03  0.30279843193E+03  0.60716313448E+03  0.40000000000E+03 0. -1.
   -9000007    1    1    2    0  501  0.28410057445E+03  0.19038656750E+03  0.20743223105E+03  0.56567509400E+03  0.40000000000E+03 0. -1.
<mgrwt>
<rscale>  2 0.52627007E+03</rscale>
<asrwt>0</asrwt>
<pdfrwt beam="1">  1        2 0.12946684E+00 0.52627007E+03</pdfrwt>
<pdfrwt beam="2">  1       -2 0.50969813E-01 0.52627007E+03</pdfrwt>
<totfact> 0.12048337E+02</totfact>
</mgrwt>
</event>
<event>
 4    1  0.2533915E-002  0.4030216E+03  0.7818608E-02  0.1042738E+00
          2   -1    0    0  502    0  0.00000000000E+00  0.00000000000E+00  0.62753091117E+03  0.62753091117E+03  0.00000000000E+00 0.  1.
         -2   -1    0    0    0  501 -0.00000000000E+00 -0.00000000000E+00 -0.27652766858E+03  0.27652766858E+03  0.00000000000E+00 0. -1.
    9000007    1    1    2  502    0 -0.26162332663E+02  0.41736322294E+02  0.61159775136E+02  0.40763575204E+03  0.40000000000E+03 0. -1.
   -9000007    1    1    2    0  501  0.26162332663E+02 -0.41736322294E+02  0.28984346745E+03  0.49642282771E+03  0.40000000000E+03 0.  1.
<mgrwt>
<rscale>  2 0.40302157E+03</rscale>
<asrwt>0</asrwt>
<pdfrwt beam="1">  1        2 0.96543217E-01 0.40302157E+03</pdfrwt>
<pdfrwt beam="2">  1       -2 0.42542718E-01 0.40302157E+03</pdfrwt>
<totfact> 0.25257168E+02</totfact>
</mgrwt>
</event>
<event>
 4    1  0.2533915E-002  0.5686691E+03  0.7818608E-02  0.9972628E-01
         -2   -1    0    0    0  501 -0.00000000000E+00  0.00000000000E+00  0.23774061478E+03  0.23774061478E+03  0.00000000000E+00 0.  1.
          2   -1    0    0  502    0  0.00000000000E+00 -0.00000000000E+00 -0.14659054379E+04  0.14659054379E+04  0.00000000000E+00 0. -1.
    9000007    1    1    2  502    0  0.11786653067E+03 -0.38664203324E+03 -0.84277937330E+03  0.10166915230E+04  0.40000000000E+03 0. -1.
   -9000007    1    1    2    0  501 -0.11786653067E+03  0.38664203324E+03 -0.38538544985E+03  0.68695452970E+03  0.40000000000E+03 0.  1.
<mgrwt>
<rscale>  2 0.56866913E+03</rscale>
<asrwt>0</asrwt>
<pdfrwt beam="1">  1        2 0.22552391E+00 0.56866913E+03</pdfrwt>
<pdfrwt beam="2">  1       -2 0.36575480E-01 0.56866913E+03</pdfrwt>
<totfact> 0.96904804E+01</totfact>
</mgrwt>
</event>
<event>
 4    1  0.2533915E-002  0.4715251E+03  0.7818608E-02  0.1021491E+00
          2   -1    0    0  502    0  0.00000000000E+00  0.00000000000E+00  0.64195805817E+03  0.64195805817E+03  0.00000000000E+00 0. -1.
         -2   -1    0    0    0  501 -0.00000000000E+00 -0.00000000000E+00 -0.35575527528E+03  0.35575527528E+03  0.00000000000E+00 0.  1.
    9000007    1    1    2  502    0 -0.15954589996E+03 -0.19204421912E+03  0.22425581905E+03  0.52213652302E+03  0.40000000000E+03 0. -1.
   -9000007    1    1    2    0  501  0.15954589996E+03  0.19204421912E+03  0.61946963842E+02  0.47557681043E+03  0.40000000000E+03 0. -1.
<mgrwt>
<rscale>  2 0.47152505E+03</rscale>
<asrwt>0</asrwt>
<pdfrwt beam="1">  1        2 0.98762778E-01 0.47152505E+03</pdfrwt>
<pdfrwt beam="2">  1       -2 0.54731581E-01 0.47152505E+03</pdfrwt>
<totfact> 0.14754090E+02</totfact>
</mgrwt>
</event>
<event>
 4    1  0.2533915E-002  0.5335477E+03  0.7818608E-02  0.1005375E+00
          2   -1    0    0  502    0  0.00000000000E+00  0.00000000000E+00  0.38159994439E+03  0.38159994439E+03  0.00000000000E+00 0. -1.
         -2   -1    0    0    0  501 -0.00000000000E+00 -0.00000000000E+00 -0.74689343671E+03  0.74689343671E+03  0.00000000000E+00 0.  1.
    9000007    1    1    2  502    0 -0.59174874049E+01 -0.35304122404E+03 -0.16311913560E+03  0.55792559982E+03  0.40000000000E+03 0.  1.
   -9000007    1    1    2    0  501  0.59174874049E+01  0.35304122404E+03 -0.20217435672E+03  0.57056778129E+03  0.40000000000E+03 0. -1.
<mgrwt>
<rscale>  2 0.53354768E+03</rscale>
<asrwt>0</asrwt>
<pdfrwt beam="1">  1        2 0.58707684E-01 0.53354768E+03</pdfrwt>
<pdfrwt beam="2">  1       -2 0.11490668E+00 0.53354768E+03</pdfrwt>
<totfact> 0.50881454E+01</totfact>
</mgrwt>
</event>
<event>
 4    1  0.2533915E-002  0.4175227E+03  0.7818608E-02  0.1037876E+00
          2   -1    0    0  502    0  0.00000000000E+00  0.00000000000E+00  0.17440290129E+04  0.17440290129E+04  0.00000000000E+00 0. -1.
         -2   -1    0    0    0  501 -0.00000000000E+00 -0.00000000000E+00 -0.10968642678E+03  0.10968642678E+03  0.00000000000E+00 0.  1.
    9000007    1    1    2  502    0  0.11873983215E+03  0.15034634805E+02  0.10932386520E+04  0.11702546468E+04  0.40000000000E+03 0.  1.
   -9000007    1    1    2    0  501 -0.11873983215E+03 -0.15034634805E+02  0.54110393414E+03  0.68346079296E+03  0.40000000000E+03 0.  1.
<mgrwt>
<rscale>  2 0.41752268E+03</rscale>
<asrwt>0</asrwt>
<pdfrwt beam="1">  1        2 0.26831214E+00 0.41752268E+03</pdfrwt>
<pdfrwt beam="2">  1       -2 0.16874836E-01 0.41752268E+03</pdfrwt>
<totfact> 0.27942442E+02</totfact>
</mgrwt>
</event>
<event>
 4    1  0.2533915E-002  0.4130124E+03  0.7818608E-02  0.1039365E+00
          2   -1    0    0  502    0  0.00000000000E+00  0.00000000000E+00  0.18866652543E+04  0.18866652543E+04  0.00000000000E+00 0.  1.
         -2   -1    0    0    0  501 -0.00000000000E+00 -0.00000000000E+00 -0.23927958162E+03  0.23927958162E+03  0.00000000000E+00 0. -1.
    9000007    1    1    2  502    0 -0.82705759563E+02 -0.61147244615E+02 -0.14738800869E+02  0.41327528409E+03  0.40000000000E+03 0. -1.
   -9000007    1    1    2    0  501  0.82705759563E+02  0.61147244615E+02  0.16621244736E+04  0.17126695518E+04  0.40000000000E+03 0.  1.
<mgrwt>
<rscale>  2 0.41301238E+03</rscale>
<asrwt>0</asrwt>
<pdfrwt beam="1">  1        2 0.29025618E+00 0.41301238E+03</pdfrwt>
<pdfrwt beam="2">  1       -2 0.36812245E-01 0.41301238E+03</pdfrwt>
<totfact> 0.58081147E+01</totfact>
</mgrwt>
</event>
<event>
 4    1  0.2533915E-002  0.4797600E+03  0.7818608E-02  0.1019201E+00
         -2   -1    0    0    0  501 -0.00000000000E+00  0.00000000000E+00  0.16352906802E+03  0.16352906802E+03  0.00000000000E+00 0.  1.
          2   -1    0    0  502    0  0.00000000000E+00 -0.00000000000E+00 -0.14894811747E+04  0.14894811747E+04  0.00000000000E+00 0. -1.
    9000007    1    1    2  502    0 -0.11305564901E+03 -0.23955809763E+03 -0.85686124153E+03  0.98202894517E+03  0.40000000000E+03 0. -1.
   -9000007    1    1    2    0  501  0.11305564901E+03  0.23955809763E+03 -0.46909086520E+03  0.67098129760E+03  0.40000000000E+03 0.  1.
<mgrwt>
<rscale>  2 0.47976000E+03</rscale>
<asrwt>0</asrwt>
<pdfrwt beam="1">  1        2 0.22915095E+00 0.47976000E+03</pdfrwt>
<pdfrwt beam="2">  1       -2 0.25158319E-01 0.47976000E+03</pdfrwt>
<totfact> 0.18987614E+02</totfact>
</mgrwt>
</event>
<event>
 4    1  0.2533915E-002  0.5429225E+03  0.7818608E-02  0.1003145E+00
          2   -1    0    0  502    0  0.00000000000E+00  0.00000000000E+00  0.32849148340E+04  0.32849148340E+04  0.00000000000E+00 0.  1.
         -2   -1    0    0    0  501 -0.00000000000E+00 -0.00000000000E+00 -0.19485055683E+03  0.19485055683E+03  0.00000000000E+00 0. -1.
    9000007    1    1    2  502    0 -0.35039166234E+03  0.10950135866E+03  0.26710226460E+03  0.60506899139E+03  0.40000000000E+03 0. -1.
   -9000007    1    1    2    0  501  0.35039166234E+03 -0.10950135866E+03  0.28229620125E+04  0.28746963994E+04  0.40000000000E+03 0.  1.
<mgrwt>
<rscale>  2 0.54292252E+03</rscale>
<asrwt>0</asrwt>
<pdfrwt beam="1">  1        2 0.50537147E+00 0.54292252E+03</pdfrwt>
<pdfrwt beam="2">  1       -2 0.29977011E-01 0.54292252E+03</pdfrwt>
<totfact> 0.13103721E+01</totfact>
</mgrwt>
</event>
<event>
 4    1  0.2533915E-002  0.4355980E+03  0.7818608E-02  0.1032106E+00
          2   -1    0    0  502    0  0.00000000000E+00  0.00000000000E+00  0.13668556894E+04  0.13668556894E+04  0.00000000000E+00 0. -1.
         -2   -1    0    0    0  501 -0.00000000000E+00 -0.00000000000E+00 -0.24779910630E+03  0.24779910630E+03  0.00000000000E+00 0.  1.
    9000007    1    1    2  502    0 -0.42797024613E+02  0.16707493708E+03  0.10949220702E+04  0.11783887133E+04  0.40000000000E+03 0. -1.
   -9000007    1    1    2    0  501  0.42797024613E+02 -0.16707493708E+03  0.24134512918E+02  0.43626608237E+03  0.40000000000E+03 0.  1.
<mgrwt>
<rscale>  2 0.43559800E+03</rscale>
<asrwt>0</asrwt>
<pdfrwt beam="1">  1        2 0.21028549E+00 0.43559800E+03</pdfrwt>
<pdfrwt beam="2">  1       -2 0.38122940E-01 0.43559800E+03</pdfrwt>
<totfact> 0.10341900E+02</totfact>
</mgrwt>
</event>
<event>
 4    1  0.2533915E-002  0.4403027E+03  0.7818608E-02  0.1030654E+00
          1   -1    0    0  502    0  0.00000000000E+00  0.00000000000E+00  0.10172021412E+04  0.10172021412E+04  0.00000000000E+00 0.  1.
         -1   -1    0    0    0  501 -0.00000000000E+00 -0.00000000000E+00 -0.32785758243E+03  0.32785758243E+03  0.00000000000E+00 0. -1.
    9000007    1    1    2  502    0 -0.16816540015E+03 -0.74745455747E+02 -0.90494937016E+02  0.44950619416E+03  0.40000000000E+03 0. -1.
   -9000007    1    1    2    0  501  0.16816540015E+03  0.74745455747E+02  0.77983949575E+03  0.89555352944E+03  0.40000000000E+03 0.  1.
<mgrwt>
<rscale>  2 0.44030272E+03</rscale>
<asrwt>0</asrwt>
<pdfrwt beam="1">  1        1 0.15649264E+00 0.44030272E+03</pdfrwt>
<pdfrwt beam="2">  1       -1 0.50439628E-01 0.44030272E+03</pdfrwt>
<totfact> 0.61525350E+01</totfact>
</mgrwt>
</event>
<event>
 4    1  0.2533915E-002  0.5829681E+03  0.7818608E-02  0.9941386E-01
          3   -1    0    0  502    0  0.00000000000E+00  0.00000000000E+00  0.89694060016E+03  0.89694060016E+03  0.00000000000E+00 0. -1.
         -3   -1    0    0    0  501 -0.00000000000E+00 -0.00000000000E+00 -0.55048201520E+03  0.55048201520E+03  0.00000000000E+00 0.  1.
    9000007    1    1    2  502    0  0.29087742812E+03 -0.30861327728E+03  0.57727286840E+03  0.82042415719E+03  0.40000000000E+03 0. -1.
   -9000007    1    1    2    0  501 -0.29087742812E+03  0.30861327728E+03 -0.23081428343E+03  0.62699845817E+03  0.40000000000E+03 0.  1.
<mgrwt>
<rscale>  2 0.58296812E+03</rscale>
<asrwt>0</asrwt>
<pdfrwt beam="1">  1        3 0.13799086E+00 0.58296812E+03</pdfrwt>
<pdfrwt beam="2">  1       -3 0.84689541E-01 0.58296812E+03</pdfrwt>
<totfact> 0.13409184E+00</totfact>
</mgrwt>
</event>
<event>
 4    1  0.2533915E-002  0.4216739E+03  0.7818608E-02  0.1036523E+00
         -2   -1    0    0    0  501 -0.00000000000E+00  0.00000000000E+00  0.15094984299E+04  0.15094984299E+04  0.00000000000E+00 0. -1.
          2   -1    0    0  502    0  0.00000000000E+00 -0.00000000000E+00 -0.14271071086E+03  0.14271071086E+03  0.00000000000E+00 0.  1.
    9000007    1    1    2  502    0 -0.27874406095E+02  0.13050630151E+03  0.33820421479E+03  0.54054691577E+03  0.40000000000E+03 0.  1.
   -9000007    1    1    2    0  501  0.27874406095E+02 -0.13050630151E+03  0.10285835042E+04  0.11116622250E+04  0.40000000000E+03 0. -1.
<mgrwt>
<rscale>  2 0.42167390E+03</rscale>
<asrwt>0</asrwt>
<pdfrwt beam="1">  1        2 0.21955495E-01 0.42167390E+03</pdfrwt>
<pdfrwt beam="2">  1       -2 0.23223052E+00 0.42167390E+03</pdfrwt>
<totfact> 0.22313137E+01</totfact>
</mgrwt>
</event>
<event>
 4    1  0.2533915E-002  0.4708622E+03  0.7818608E-02  0.1021677E+00
         -3   -1    0    0    0  501 -0.00000000000E+00  0.00000000000E+00  0.12241265003E+04  0.12241265003E+04  0.00000000000E+00 0. -1.
          3   -1    0    0  502    0  0.00000000000E+00 -0.00000000000E+00 -0.18112169068E+03  0.18112169068E+03  0.00000000000E+00 0.  1.
    9000007    1    1    2  502    0  0.18802164554E+03 -0.16235474756E+03  0.52472294632E+03  0.70501444924E+03  0.40000000000E+03 0. -1.
   -9000007    1    1    2    0  501 -0.18802164554E+03  0.16235474756E+03  0.51828186327E+03  0.70023374172E+03  0.40000000000E+03 0.  1.
<mgrwt>
<rscale>  2 0.47086219E+03</rscale>
<asrwt>0</asrwt>
<pdfrwt beam="1">  1        3 0.27864876E-01 0.47086219E+03</pdfrwt>
<pdfrwt beam="2">  1       -3 0.18832715E+00 0.47086219E+03</pdfrwt>
<totfact> 0.57336062E+00</totfact>
</mgrwt>
</event>
<event>
 4    1  0.2533915E-002  0.4901011E+03  0.7818608E-02  0.1016395E+00
          4   -1    0    0  502    0  0.00000000000E+00  0.00000000000E+00  0.13653503548E+03  0.13653503548E+03  0.00000000000E+00 0.  1.
         -4   -1    0    0    0  501 -0.00000000000E+00 -0.00000000000E+00 -0.19017187394E+04  0.19017187394E+04  0.00000000000E+00 0. -1.
    9000007    1    1    2  502    0 -0.18045232567E+03 -0.21825680195E+03 -0.11615358384E+04  0.12607000346E+04  0.40000000000E+03 0. -1.
   -9000007    1    1    2    0  501  0.18045232567E+03  0.21825680195E+03 -0.60364786557E+03  0.77755374029E+03  0.40000000000E+03 0.  1.
<mgrwt>
<rscale>  2 0.49010108E+03</rscale>
<asrwt>0</asrwt>
<pdfrwt beam="1">  1        4 0.21005390E-01 0.49010108E+03</pdfrwt>
<pdfrwt beam="2">  1       -4 0.29257211E+00 0.49010108E+03</pdfrwt>
<totfact> 0.14914836E+00</totfact>
</mgrwt>
</event>
<event>
 4    1  0.2533915E-002  0.4667320E+03  0.7818608E-02  0.1022847E+00
          2   -1    0    0  502    0  0.00000000000E+00  0.00000000000E+00  0.22842462386E+04  0.22842462386E+04  0.00000000000E+00 0.  1.
         -2   -1    0    0    0  501 -0.00000000000E+00 -0.00000000000E+00 -0.99419645265E+02  0.99419645265E+02  0.00000000000E+00 0. -1.
    9000007    1    1    2  502    0  0.49533125119E+02  0.23534057930E+03  0.13330815214E+04  0.14124252411E+04  0.40000000000E+03 0.  1.
   -9000007    1    1    2    0  501 -0.49533125119E+02 -0.23534057930E+03  0.85174507185E+03  0.97124064277E+03  0.40000000000E+03 0. -1.
<mgrwt>
<rscale>  2 0.46673196E+03</rscale>
<asrwt>0</asrwt>
<pdfrwt beam="1">  1        2 0.35142246E+00 0.46673196E+03</pdfrwt>
<pdfrwt beam="2">  1       -2 0.15295332E-01 0.46673196E+03</pdfrwt>
<totfact> 0.16773448E+02</totfact>
</mgrwt>
</event>
<event>
 4    1  0.2533915E-002  0.4467780E+03  0.7818608E-02  0.1028687E+00
         -1   -1    0    0    0  501 -0.00000000000E+00  0.00000000000E+00  0.81268111017E+03  0.81268111017E+03  0.00000000000E+00 0.  1.
          1   -1    0    0  502    0  0.00000000000E+00 -0.00000000000E+00 -0.25095473824E+03  0.25095473824E+03  0.00000000000E+00 0. -1.
    9000007    1    1    2  502    0 -0.10088311082E+03  0.17156098700E+03  0.35840390794E+03  0.57276865795E+03  0.40000000000E+03 0. -1.
   -9000007    1    1    2    0  501  0.10088311082E+03 -0.17156098700E+03  0.20332246399E+03  0.49086719046E+03  0.40000000000E+03 0.  1.
<mgrwt>
<rscale>  2 0.44677799E+03</rscale>
<asrwt>0</asrwt>
<pdfrwt beam="1">  1        1 0.38608422E-01 0.44677799E+03</pdfrwt>
<pdfrwt beam="2">  1       -1 0.12502786E+00 0.44677799E+03</pdfrwt>
<totfact> 0.64774791E+01</totfact>
</mgrwt>
</event>
<event>
 4    1  0.2533915E-002  0.4649172E+03  0.7818608E-02  0.1023365E+00
          1   -1    0    0  502    0  0.00000000000E+00  0.00000000000E+00  0.10559660743E+04  0.10559660743E+04  0.00000000000E+00 0. -1.
         -1   -1    0    0    0  501 -0.00000000000E+00 -0.00000000000E+00 -0.20482909306E+03  0.20482909306E+03  0.00000000000E+00 0.  1.
    9000007    1    1    2  502    0 -0.20455517027E+02 -0.23607111926E+03  0.44186653501E+03  0.64140005947E+03  0.40000000000E+03 0.  1.
   -9000007    1    1    2    0  501  0.20455517027E+02  0.23607111926E+03  0.40927044627E+03  0.61939510792E+03  0.40000000000E+03 0.  1.
<mgrwt>
<rscale>  2 0.46491720E+03</rscale>
<asrwt>0</asrwt>
<pdfrwt beam="1">  1        1 0.16245632E+00 0.46491720E+03</pdfrwt>
<pdfrwt beam="2">  1       -1 0.31512169E-01 0.46491720E+03</pdfrwt>
<totfact> 0.13388129E+02</totfact>
</mgrwt>
</event>
<event>
 4    1  0.2533915E-002  0.4171256E+03  0.7818608E-02  0.1038006E+00
         -1   -1    0    0    0  501 -0.00000000000E+00  0.00000000000E+00  0.62879532937E+03  0.62879532937E+03  0.00000000000E+00 0.  1.
          1   -1    0    0  502    0  0.00000000000E+00 -0.00000000000E+00 -0.30012466062E+03  0.30012466062E+03  0.00000000000E+00 0. -1.
    9000007    1    1    2  502    0 -0.79271059832E+02 -0.87805828308E+02  0.29406647170E+03  0.51036149364E+03  0.40000000000E+03 0.  1.
   -9000007    1    1    2    0  501  0.79271059832E+02  0.87805828308E+02  0.34604197049E+02  0.41855849635E+03  0.40000000000E+03 0. -1.
<mgrwt>
<rscale>  2 0.41712560E+03</rscale>
<asrwt>0</asrwt>
<pdfrwt beam="1">  1        1 0.46173025E-01 0.41712560E+03</pdfrwt>
<pdfrwt beam="2">  1       -1 0.96737743E-01 0.41712560E+03</pdfrwt>
<totfact> 0.94139394E+01</totfact>
</mgrwt>
</event>
<event>
 4    1  0.2533915E-002  0.4529552E+03  0.7818608E-02  0.1026844E+00
          1   -1    0    0  502    0  0.00000000000E+00  0.00000000000E+00  0.61326174199E+03  0.61326174199E+03  0.00000000000E+00 0.  1.
         -1   -1    0    0    0  501 -0.00000000000E+00 -0.00000000000E+00 -0.38657345712E+03  0.38657345712E+03  0.00000000000E+00 0. -1.
    9000007    1    1    2  502    0 -0.20839714693E+03 -0.41702022747E+02  0.29673190444E+03  0.54149630900E+03  0.40000000000E+03 0.  1.
   -9000007    1    1    2    0  501  0.20839714693E+03  0.41702022747E+02 -0.70043619563E+02  0.45833889011E+03  0.40000000000E+03 0. -1.
<mgrwt>
<rscale>  2 0.45295522E+03</rscale>
<asrwt>0</asrwt>
<pdfrwt beam="1">  1        1 0.94347960E-01 0.45295522E+03</pdfrwt>
<pdfrwt beam="2">  1       -1 0.59472840E-01 0.45295522E+03</pdfrwt>
<totfact> 0.99446913E+01</totfact>
</mgrwt>
</event>
<event>
 4    1  0.2533915E-002  0.4605399E+03  0.7818608E-02  0.1024625E+00
          2   -1    0    0  502    0  0.00000000000E+00  0.00000000000E+00  0.25607903797E+04  0.25607903797E+04  0.00000000000E+00 0.  1.
         -2   -1    0    0    0  501 -0.00000000000E+00 -0.00000000000E+00 -0.86960143263E+02  0.86960143263E+02  0.00000000000E+00 0. -1.
    9000007    1    1    2  502    0 -0.13056996838E+03 -0.18721241438E+03  0.15256116887E+04  0.15936084932E+04  0.40000000000E+03 0.  1.
   -9000007    1    1    2    0  501  0.13056996838E+03  0.18721241438E+03  0.94821854771E+03  0.10541420298E+04  0.40000000000E+03 0.  1.
<mgrwt>
<rscale>  2 0.46053991E+03</rscale>
<asrwt>0</asrwt>
<pdfrwt beam="1">  1        2 0.39396769E+00 0.46053991E+03</pdfrwt>
<pdfrwt beam="2">  1       -2 0.13378485E-01 0.46053991E+03</pdfrwt>
<totfact> 0.14756603E+02</totfact>
</mgrwt>
</event>
<event>
 4    1  0.2533915E-002  0.4085804E+03  0.7818608E-02  0.1040848E+00
         -2   -1    0    0    0  501 -0.00000000000E+00  0.00000000000E+00  0.52752434811E+02  0.52752434811E+02  0.00000000000E+00 0.  1.
          2   -1    0    0  502    0  0.00000000000E+00 -0.00000000000E+00 -0.31685632430E+04  0.31685632430E+04  0.00000000000E+00 0. -1.
    9000007    1    1    2  502    0 -0.83261832725E+02 -0.23180218755E+01 -0.15006091181E+04  0.15552381269E+04  0.40000000000E+03 0. -1.
   -9000007    1    1    2    0  501  0.83261832725E+02  0.23180218755E+01 -0.16152016902E+04  0.16660775510E+04  0.40000000000E+03 0. -1.
<mgrwt>
<rscale>  2 0.40858035E+03</rscale>
<asrwt>0</asrwt>
<pdfrwt beam="1">  1        2 0.48747126E+00 0.40858035E+03</pdfrwt>
<pdfrwt beam="2">  1       -2 0.81157593E-02 0.40858035E+03</pdfrwt>
<totfact> 0.14686864E+02</totfact>
</mgrwt>
</event>
<event>
 4    1  0.2533915E-002  0.7822695E+03  0.7818608E-02  0.9586042E-01
         -1   -1    0    0    0  501 -0.00000000000E+00  0.00000000000E+00  0.92946547302E+03  0.92946547302E+03  0.00000000000E+00 0.  1.
          1   -1    0    0  502    0  0.00000000000E+00 -0.00000000000E+00 -0.66341539357E+03  0.66341539357E+03  0.00000000000E+00 0. -1.
    9000007    1    1    2  502    0  0.66881865855E+03  0.68023007230E+02  0.20238187641E+03  0.80802472205E+03  0.40000000000E+03 0. -1.
   -9000007    1    1    2    0  501 -0.66881865855E+03 -0.68023007230E+02  0.63668203037E+02  0.78485614454E+03  0.40000000000E+03 0. -1.
<mgrwt>
<rscale>  2 0.78226947E+03</rscale>
<asrwt>0</asrwt>
<pdfrwt beam="1">  1        1 0.10206391E+00 0.78226947E+03</pdfrwt>
<pdfrwt beam="2">  1       -1 0.14299469E+00 0.78226947E+03</pdfrwt>
<totfact> 0.12010781E+01</totfact>
</mgrwt>
</event>
<event>
 4    1  0.2533915E-002  0.4653341E+03  0.7818608E-02  0.1023245E+00
          1   -1    0    0  502    0  0.00000000000E+00  0.00000000000E+00  0.13349737970E+04  0.13349737970E+04  0.00000000000E+00 0. -1.
         -1   -1    0    0    0  501 -0.00000000000E+00 -0.00000000000E+00 -0.19431017853E+03  0.19431017853E+03  0.00000000000E+00 0.  1.
    9000007    1    1    2  502    0  0.15976288411E+03 -0.17610125902E+03  0.25950668901E+03  0.53280348554E+03  0.40000000000E+03 0.  1.
   -9000007    1    1    2    0  501 -0.15976288411E+03  0.17610125902E+03  0.88115692945E+03  0.99648048997E+03  0.40000000000E+03 0. -1.
<mgrwt>
<rscale>  2 0.46533411E+03</rscale>
<asrwt>0</asrwt>
<pdfrwt beam="1">  1        1 0.20538058E+00 0.46533411E+03</pdfrwt>
<pdfrwt beam="2">  1       -1 0.29893874E-01 0.46533411E+03</pdfrwt>
<totfact> 0.92578559E+01</totfact>
</mgrwt>
</event>
<event>
 4    1  0.2533915E-002  0.5262903E+03  0.7818608E-02  0.1007136E+00
          2   -1    0    0  502    0  0.00000000000E+00  0.00000000000E+00  0.13190318881E+04  0.13190318881E+04  0.00000000000E+00 0.  1.
         -2   -1    0    0    0  501 -0.00000000000E+00 -0.00000000000E+00 -0.22748130933E+03  0.22748130933E+03  0.00000000000E+00 0. -1.
    9000007    1    1    2  502    0  0.24913662113E+03  0.23433390307E+03  0.33134731825E+03  0.62191034677E+03  0.40000000000E+03 0. -1.
   -9000007    1    1    2    0  501 -0.24913662113E+03 -0.23433390307E+03  0.76020326051E+03  0.92460285064E+03  0.40000000000E+03 0. -1.
<mgrwt>
<rscale>  2 0.52629026E+03</rscale>
<asrwt>0</asrwt>
<pdfrwt beam="1">  1        2 0.20292798E+00 0.52629026E+03</pdfrwt>
<pdfrwt beam="2">  1       -2 0.34997125E-01 0.52629026E+03</pdfrwt>
<totfact> 0.12799301E+02</totfact>
</mgrwt>
</event>
<event>
 4    1  0.2533915E-002  0.7586463E+03  0.7818608E-02  0.9621882E-01
         -1   -1    0    0    0  501 -0.00000000000E+00  0.00000000000E+00  0.51406436885E+03  0.51406436885E+03  0.00000000000E+00 0. -1.
          1   -1    0    0  502    0  0.00000000000E+00 -0.00000000000E+00 -0.11360317703E+04  0.11360317703E+04  0.00000000000E+00 0.  1.
    9000007    1    1    2  502    0  0.29081302393E+03  0.57530171211E+03 -0.21174466227E+03  0.78764209946E+03  0.40000000000E+03 0.  1.
   -9000007    1    1    2    0  501 -0.29081302393E+03 -0.57530171211E+03 -0.41022273919E+03  0.86245403970E+03  0.40000000000E+03 0.  1.
<mgrwt>
<rscale>  2 0.75864634E+03</rscale>
<asrwt>0</asrwt>
<pdfrwt beam="1">  1        1 0.17477411E+00 0.75864634E+03</pdfrwt>
<pdfrwt beam="2">  1       -1 0.79086828E-01 0.75864634E+03</pdfrwt>
<totfact> 0.19605744E+01</totfact>
</mgrwt>
</event>
<event>
 4    1  0.2533915E-002  0.4043868E+03  0.7818608E-02  0.1042271E+00
         -1   -1    0    0    0  501 -0.00000000000E+00  0.00000000000E+00  0.22539255245E+03  0.22539255245E+03  0.00000000000E+00 0.  1.
          1   -1    0    0  502    0  0.00000000000E+00 -0.00000000000E+00 -0.82391992758E+03  0.82391992758E+03  0.00000000000E+00 0. -1.
    9000007    1    1    2  502    0  0.21356659495E+02  0.55430922678E+02 -0.11795808337E+03  0.42123960346E+03  0.40000000000E+03 0.  1.
   -9000007    1    1    2    0  501 -0.21356659495E+02 -0.55430922678E+02 -0.48056929176E+03  0.62807287657E+03  0.40000000000E+03 0. -1.
<mgrwt>
<rscale>  2 0.40438681E+03</rscale>
<asrwt>0</asrwt>
<pdfrwt beam="1">  1        1 0.12675691E+00 0.40438681E+03</pdfrwt>
<pdfrwt beam="2">  1       -1 0.34675777E-01 0.40438681E+03</pdfrwt>
<totfact> 0.17365941E+02</totfact>
</mgrwt>
</event>
<event>
 4    1  0.2533915E-002  0.4360986E+03  0.7818608E-02  0.1031951E+00
          2   -1    0    0  502    0  0.00000000000E+00  0.00000000000E+00  0.26823784957E+03  0.26823784957E+03  0.00000000000E+00 0.  1.
         -2   -1    0    0    0  501 -0.00000000000E+00 -0.00000000000E+00 -0.72367048992E+03  0.72367048992E+03  0.00000000000E+00 0. -1.
    9000007    1    1    2  502    0  0.14579116837E+03 -0.94482623777E+02 -0.29831822157E+03  0.52837088516E+03  0.40000000000E+03 0. -1.
   -9000007    1    1    2    0  501 -0.14579116837E+03  0.94482623777E+02 -0.15711441878E+03  0.46353745432E+03  0.40000000000E+03 0.  1.
<mgrwt>
<rscale>  2 0.43609865E+03</rscale>
<asrwt>0</asrwt>
<pdfrwt beam="1">  1        2 0.41267361E-01 0.43609865E+03</pdfrwt>
<pdfrwt beam="2">  1       -2 0.11133392E+00 0.43609865E+03</pdfrwt>
<totfact> 0.81638771E+01</totfact>
</mgrwt>
</event>
<event>
 4    1  0.2533915E-002  0.8927206E+03  0.7818608E-02  0.9434727E-01
         -2   -1    0    0    0  501 -0.00000000000E+00  0.00000000000E+00  0.70106751820E+03  0.70106751820E+03  0.00000000000E+00 0.  1.
          2   -1    0    0  502    0  0.00000000000E+00 -0.00000000000E+00 -0.13596332211E+04  0.13596332211E+04  0.00000000000E+00 0. -1.
    9000007    1    1    2  502    0 -0.31519431835E+03 -0.73321389732E+03  0.87871374297E+02  0.89703481313E+03  0.40000000000E+03 0.  1.
   -9000007    1    1    2    0  501  0.31519431835E+03  0.73321389732E+03 -0.74643707722E+03  0.11636659262E+04  0.40000000000E+03 0. -1.
<mgrwt>
<rscale>  2 0.89272060E+03</rscale>
<asrwt>0</asrwt>
<pdfrwt beam="1">  1        2 0.20917434E+00 0.89272060E+03</pdfrwt>
<pdfrwt beam="2">  1       -2 0.10785654E+00 0.89272060E+03</pdfrwt>
<totfact> 0.10571461E+01</totfact>
</mgrwt>
</event>
<event>
 4    1  0.2533915E-002  0.4377124E+03  0.7818608E-02  0.1031451E+00
         -2   -1    0    0    0  501 -0.00000000000E+00  0.00000000000E+00  0.12442270177E+03  0.12442270177E+03  0.00000000000E+00 0.  1.
          2   -1    0    0  502    0  0.00000000000E+00 -0.00000000000E+00 -0.16685714465E+04  0.16685714465E+04  0.00000000000E+00 0. -1.
    9000007    1    1    2  502    0  0.15542923074E+03  0.86219869312E+02 -0.52307144889E+03  0.68205267559E+03  0.40000000000E+03 0. -1.
   -9000007    1    1    2    0  501 -0.15542923074E+03 -0.86219869312E+02 -0.10210772958E+04  0.11109414727E+04  0.40000000000E+03 0. -1.
<mgrwt>
<rscale>  2 0.43771236E+03</rscale>
<asrwt>0</asrwt>
<pdfrwt beam="1">  1        2 0.25670327E+00 0.43771236E+03</pdfrwt>
<pdfrwt beam="2">  1       -2 0.19141956E-01 0.43771236E+03</pdfrwt>
<totfact> 0.24662504E+02</totfact>
</mgrwt>
</event>
<event>
 4    1  0.2533915E-002  0.4131002E+03  0.7818608E-02  0.1039336E+00
         -2   -1    0    0    0  501 -0.00000000000E+00  0.00000000000E+00  0.26152529200E+03  0.26152529200E+03  0.00000000000E+00 0.  1.
          2   -1    0    0  502    0  0.00000000000E+00 -0.00000000000E+00 -0.97784959330E+03  0.97784959330E+03  0.00000000000E+00 0. -1.
    9000007    1    1    2  502    0 -0.25156630344E+02  0.10009465759E+03 -0.72877719065E+00  0.41310086861E+03  0.40000000000E+03 0.  1.
   -9000007    1    1    2    0  501  0.25156630344E+02 -0.10009465759E+03 -0.71559552411E+03  0.82627401669E+03  0.40000000000E+03 0. -1.
<mgrwt>
<rscale>  2 0.41310023E+03</rscale>
<asrwt>0</asrwt>
<pdfrwt beam="1">  1        2 0.15043839E+00 0.41310023E+03</pdfrwt>
<pdfrwt beam="2">  1       -2 0.40234661E-01 0.41310023E+03</pdfrwt>
<totfact> 0.15833922E+02</totfact>
</mgrwt>
</event>
<event>
 4    1  0.2533915E-002  0.4743970E+03  0.7818608E-02  0.1020686E+00
         -1   -1    0    0    0  501 -0.00000000000E+00  0.00000000000E+00  0.62065627040E+03  0.62065627040E+03  0.00000000000E+00 0.  1.
          1   -1    0    0  502    0  0.00000000000E+00 -0.00000000000E+00 -0.60548310565E+03  0.60548310565E+03  0.00000000000E+00 0. -1.
    9000007    1    1    2  502    0 -0.22507496974E+03 -0.11997423271E+03  0.39587438195E+03  0.61787465137E+03  0.40000000000E+03 0.  1.
   -9000007    1    1    2    0  501  0.22507496974E+03  0.11997423271E+03 -0.38070121720E+03  0.60826472469E+03  0.40000000000E+03 0.  1.
<mgrwt>
<rscale>  2 0.47439705E+03</rscale>
<asrwt>0</asrwt>
<pdfrwt beam="1">  1        1 0.93151248E-01 0.47439705E+03</pdfrwt>
<pdfrwt beam="2">  1       -1 0.95485579E-01 0.47439705E+03</pdfrwt>
<totfact> 0.37832684E+01</totfact>
</mgrwt>
</event>
<event>
 4    1  0.2533915E-002  0.4174261E+03  0.7818608E-02  0.1037907E+00
         -2   -1    0    0    0  501 -0.00000000000E+00  0.00000000000E+00  0.30779113333E+03  0.30779113333E+03  0.00000000000E+00 0. -1.
          2   -1    0    0  502    0  0.00000000000E+00 -0.00000000000E+00 -0.92796654827E+03  0.92796654827E+03  0.00000000000E+00 0.  1.
    9000007    1    1    2  502    0  0.11011681688E+03  0.46031210630E+02 -0.69592440701E+03  0.81151424262E+03  0.40000000000E+03 0.  1.
   -9000007    1    1    2    0  501 -0.11011681688E+03 -0.46031210630E+02  0.75748992068E+02  0.42424343897E+03  0.40000000000E+03 0. -1.
<mgrwt>
<rscale>  2 0.41742614E+03</rscale>
<asrwt>0</asrwt>
<pdfrwt beam="1">  1        2 0.14276408E+00 0.41742614E+03</pdfrwt>
<pdfrwt beam="2">  1       -2 0.47352482E-01 0.41742614E+03</pdfrwt>
<totfact> 0.12369601E+02</totfact>
</mgrwt>
</event>
<event>
 4    1  0.2533915E-002  0.4346277E+03  0.7818608E-02  0.1032408E+00
         -2   -1    0    0    0  501 -0.00000000000E+00  0.00000000000E+00  0.32751746353E+03  0.32751746353E+03  0.00000000000E+00 0.  1.
          2   -1    0    0  502    0  0.00000000000E+00 -0.00000000000E+00 -0.83994418579E+03  0.83994418579E+03  0.00000000000E+00 0. -1.
    9000007    1    1    2  502    0  0.16437165111E+03 -0.43396004526E+02  0.70533604252E+02  0.44031379972E+03  0.40000000000E+03 0.  1.
   -9000007    1    1    2    0  501 -0.16437165111E+03  0.43396004526E+02 -0.58296032651E+03  0.72714784960E+03  0.40000000000E+03 0. -1.
<mgrwt>
<rscale>  2 0.43462772E+03</rscale>
<asrwt>0</asrwt>
<pdfrwt beam="1">  1        2 0.12922218E+00 0.43462772E+03</pdfrwt>
<pdfrwt beam="2">  1       -2 0.50387302E-01 0.43462772E+03</pdfrwt>
<totfact> 0.12474511E+02</totfact>
</mgrwt>
</event>
<event>
 4    1  0.2533915E-002  0.4400741E+03  0.7818608E-02  0.1030724E+00
          1   -1    0    0  502    0  0.00000000000E+00  0.00000000000E+00  0.19847399266E+03  0.19847399266E+03  0.00000000000E+00 0.  1.
         -1   -1    0    0    0  501 -0.00000000000E+00 -0.00000000000E+00 -0.10785399376E+04  0.10785399376E+04  0.00000000000E+00 0. -1.
    9000007    1    1    2  502    0  0.88000356711E+02 -0.16100045517E+03 -0.63712905785E+03  0.77433755282E+03  0.40000000000E+03 0. -1.
   -9000007    1    1    2    0  501 -0.88000356711E+02  0.16100045517E+03 -0.24293688713E+03  0.50267637748E+03  0.40000000000E+03 0. -1.
<mgrwt>
<rscale>  2 0.44007410E+03</rscale>
<asrwt>0</asrwt>
<pdfrwt beam="1">  1        1 0.30534460E-01 0.44007410E+03</pdfrwt>
<pdfrwt beam="2">  1       -1 0.16592922E+00 0.44007410E+03</pdfrwt>
<totfact> 0.41784572E+01</totfact>
</mgrwt>
</event>
<event>
 4    1  0.2533915E-002  0.4829008E+03  0.7818608E-02  0.1018341E+00
          2   -1    0    0  502    0  0.00000000000E+00  0.00000000000E+00  0.47048564551E+03  0.47048564551E+03  0.00000000000E+00 0.  1.
         -2   -1    0    0    0  501 -0.00000000000E+00 -0.00000000000E+00 -0.54648358879E+03  0.54648358879E+03  0.00000000000E+00 0. -1.
    9000007    1    1    2  502    0  0.22140021728E+03  0.15548359664E+03  0.11709393164E+03  0.49689455005E+03  0.40000000000E+03 0.  1.
   -9000007    1    1    2    0  501 -0.22140021728E+03 -0.15548359664E+03 -0.19309187492E+03  0.52007468425E+03  0.40000000000E+03 0. -1.
<mgrwt>
<rscale>  2 0.48290082E+03</rscale>
<asrwt>0</asrwt>
<pdfrwt beam="1">  1        2 0.72382407E-01 0.48290082E+03</pdfrwt>
<pdfrwt beam="2">  1       -2 0.84074398E-01 0.48290082E+03</pdfrwt>
<totfact> 0.84040648E+01</totfact>
</mgrwt>
</event>
<event>
 4    1  0.2533915E-002  0.5894166E+03  0.7818608E-02  0.9927610E-01
          1   -1    0    0  502    0  0.00000000000E+00  0.00000000000E+00  0.14098300698E+04  0.14098300698E+04  0.00000000000E+00 0.  1.
         -1   -1    0    0    0  501 -0.00000000000E+00 -0.00000000000E+00 -0.26570725680E+03  0.26570725680E+03  0.00000000000E+00 0. -1.
    9000007    1    1    2  502    0  0.28092325251E+03 -0.32938437241E+03  0.34635454830E+03  0.68364713977E+03  0.40000000000E+03 0. -1.
   -9000007    1    1    2    0  501 -0.28092325251E+03  0.32938437241E+03  0.79776826471E+03  0.99189018684E+03  0.40000000000E+03 0.  1.
<mgrwt>
<rscale>  2 0.58941661E+03</rscale>
<asrwt>0</asrwt>
<pdfrwt beam="1">  1        1 0.21689693E+00 0.58941661E+03</pdfrwt>
<pdfrwt beam="2">  1       -1 0.40878040E-01 0.58941661E+03</pdfrwt>
<totfact> 0.46403905E+01</totfact>
</mgrwt>
</event>
<event>
 4    1  0.2533915E-002  0.6375787E+03  0.7818608E-02  0.9830370E-01
          1   -1    0    0  502    0  0.00000000000E+00  0.00000000000E+00  0.18327465172E+04  0.18327465172E+04  0.00000000000E+00 0.  1.
         -1   -1    0    0    0  501 -0.00000000000E+00 -0.00000000000E+00 -0.45468707486E+03  0.45468707486E+03  0.00000000000E+00 0. -1.
    9000007    1    1    2  502    0 -0.41119305239E+03 -0.27825676210E+03  0.15075570248E+04  0.16368368076E+04  0.40000000000E+03 0.  1.
   -9000007    1    1    2    0  501  0.41119305239E+03  0.27825676210E+03 -0.12949758245E+03  0.65059678438E+03  0.40000000000E+03 0. -1.
<mgrwt>
<rscale>  2 0.63757866E+03</rscale>
<asrwt>0</asrwt>
<pdfrwt beam="1">  1        1 0.28196100E+00 0.63757866E+03</pdfrwt>
<pdfrwt beam="2">  1       -1 0.69951859E-01 0.63757866E+03</pdfrwt>
<totfact> 0.85164329E+00</totfact>
</mgrwt>
</event>
<event>
 4    1  0.2533915E-002  0.4230850E+03  0.7818608E-02  0.1036067E+00
         -2   -1    0    0    0  501 -0.00000000000E+00  0.00000000000E+00  0.11755294645E+03  0.11755294645E+03  0.00000000000E+00 0.  1.
          2   -1    0    0  502    0  0.00000000000E+00 -0.00000000000E+00 -0.19390935910E+04  0.19390935910E+04  0.00000000000E+00 0. -1.
    9000007    1    1    2  502    0 -0.13626058650E+03 -0.20832455248E+02 -0.13872766684E+04  0.14503577122E+04  0.40000000000E+03 0. -1.
   -9000007    1    1    2    0  501  0.13626058650E+03  0.20832455248E+02 -0.43426397610E+03  0.60628882520E+03  0.40000000000E+03 0.  1.
<mgrwt>
<rscale>  2 0.42308503E+03</rscale>
<asrwt>0</asrwt>
<pdfrwt beam="1">  1        2 0.29832208E+00 0.42308503E+03</pdfrwt>
<pdfrwt beam="2">  1       -2 0.18085069E-01 0.42308503E+03</pdfrwt>
<totfact> 0.19519093E+02</totfact>
</mgrwt>
</event>
<event>
 4    1  0.2533915E-002  0.4812972E+03  0.7818608E-02  0.1018779E+00
          2   -1    0    0  502    0  0.00000000000E+00  0.00000000000E+00  0.42972406193E+03  0.42972406193E+03  0.00000000000E+00 0.  1.
         -2   -1    0    0    0  501 -0.00000000000E+00 -0.00000000000E+00 -0.77541125969E+03  0.77541125969E+03  0.00000000000E+00 0. -1.
    9000007    1    1    2  502    0 -0.22143943749E+03 -0.15037130178E+03 -0.50551766211E+03  0.69799359566E+03  0.40000000000E+03 0. -1.
   -9000007    1    1    2    0  501  0.22143943749E+03  0.15037130178E+03  0.15983046436E+03  0.50714172596E+03  0.40000000000E+03 0.  1.
<mgrwt>
<rscale>  2 0.48129716E+03</rscale>
<asrwt>0</asrwt>
<pdfrwt beam="1">  1        2 0.66111395E-01 0.48129716E+03</pdfrwt>
<pdfrwt beam="2">  1       -2 0.11929404E+00 0.48129716E+03</pdfrwt>
<totfact> 0.40873139E+01</totfact>
</mgrwt>
</event>
<event>
 4    1  0.2533915E-002  0.6037989E+03  0.7818608E-02  0.9897556E-01
         -2   -1    0    0    0  501 -0.00000000000E+00  0.00000000000E+00  0.80802037744E+03  0.80802037744E+03  0.00000000000E+00 0. -1.
          2   -1    0    0  502    0  0.00000000000E+00 -0.00000000000E+00 -0.50258452521E+03  0.50258452521E+03  0.00000000000E+00 0.  1.
    9000007    1    1    2  502    0 -0.19733675410E+03 -0.40697830599E+03  0.36226567554E+03  0.70413745515E+03  0.40000000000E+03 0. -1.
   -9000007    1    1    2    0  501  0.19733675410E+03  0.40697830599E+03 -0.56829823312E+02  0.60646744751E+03  0.40000000000E+03 0.  1.
<mgrwt>
<rscale>  2 0.60379892E+03</rscale>
<asrwt>0</asrwt>
<pdfrwt beam="1">  1        2 0.77320696E-01 0.60379892E+03</pdfrwt>
<pdfrwt beam="2">  1       -2 0.12431083E+00 0.60379892E+03</pdfrwt>
<totfact> 0.30507814E+01</totfact>
</mgrwt>
</event>
<event>
 4    1  0.2533915E-002  0.4085785E+03  0.7818608E-02  0.1040849E+00
          1   -1    0    0  502    0  0.00000000000E+00  0.00000000000E+00  0.50527586157E+03  0.50527586157E+03  0.00000000000E+00 0.  1.
         -1   -1    0    0    0  501 -0.00000000000E+00 -0.00000000000E+00 -0.33206197117E+03  0.33206197117E+03  0.00000000000E+00 0. -1.
    9000007    1    1    2  502    0  0.63191275223E+02  0.54251902614E+02  0.11634471513E+03  0.42482054910E+03  0.40000000000E+03 0. -1.
   -9000007    1    1    2    0  501 -0.63191275223E+02 -0.54251902614E+02  0.56869175272E+02  0.41251728364E+03  0.40000000000E+03 0.  1.
<mgrwt>
<rscale>  2 0.40857852E+03</rscale>
<asrwt>0</asrwt>
<pdfrwt beam="1">  1        1 0.77734748E-01 0.40857852E+03</pdfrwt>
<pdfrwt beam="2">  1       -1 0.51086457E-01 0.40857852E+03</pdfrwt>
<totfact> 0.17484477E+02</totfact>
</mgrwt>
</event>
<event>
 4    1  0.2533915E-002  0.4230647E+03  0.7818608E-02  0.1036073E+00
          2   -1    0    0  502    0  0.00000000000E+00  0.00000000000E+00  0.79871532673E+03  0.79871532673E+03  0.00000000000E+00 0. -1.
         -2   -1    0    0    0  501 -0.00000000000E+00 -0.00000000000E+00 -0.29477689003E+03  0.29477689003E+03  0.00000000000E+00 0.  1.
    9000007    1    1    2  502    0 -0.42748234734E+02  0.13098205994E+03 -0.15768761947E+02  0.42335843614E+03  0.40000000000E+03 0.  1.
   -9000007    1    1    2    0  501  0.42748234734E+02 -0.13098205994E+03  0.51970719864E+03  0.67013378062E+03  0.40000000000E+03 0. -1.
<mgrwt>
<rscale>  2 0.42306467E+03</rscale>
<asrwt>0</asrwt>
<pdfrwt beam="1">  1        2 0.12287928E+00 0.42306467E+03</pdfrwt>
<pdfrwt beam="2">  1       -2 0.45350291E-01 0.42306467E+03</pdfrwt>
<totfact> 0.16470852E+02</totfact>
</mgrwt>
</event>
<event>
 4    1  0.2533915E-002  0.4404304E+03  0.7818608E-02  0.1030615E+00
         -2   -1    0    0    0  501 -0.00000000000E+00  0.00000000000E+00  0.14273114059E+03  0.14273114059E+03  0.00000000000E+00 0. -1.
          2   -1    0    0  502    0  0.00000000000E+00 -0.00000000000E+00 -0.13619669426E+04  0.13619669426E+04  0.00000000000E+00 0.  1.
    9000007    1    1    2  502    0 -0.18433295475E+03  0.55986514015E+00 -0.57480836132E+03  0.72414335867E+03  0.40000000000E+03 0. -1.
   -9000007    1    1    2    0  501  0.18433295475E+03 -0.55986514015E+00 -0.64442744070E+03  0.78055472453E+03  0.40000000000E+03 0.  1.
<mgrwt>
<rscale>  2 0.44043042E+03</rscale>
<asrwt>0</asrwt>
<pdfrwt beam="1">  1        2 0.20953339E+00 0.44043042E+03</pdfrwt>
<pdfrwt beam="2">  1       -2 0.21958636E-01 0.44043042E+03</pdfrwt>
<totfact> 0.28557493E+02</totfact>
</mgrwt>
</event>
<event>
 4    1  0.2533915E-002  0.4342127E+03  0.7818608E-02  0.1032537E+00
         -4   -1    0    0    0  501 -0.00000000000E+00  0.00000000000E+00  0.44293082514E+03  0.44293082514E+03  0.00000000000E+00 0. -1.
          4   -1    0    0  502    0  0.00000000000E+00 -0.00000000000E+00 -0.44558543727E+03  0.44558543727E+03  0.00000000000E+00 0.  1.
    9000007    1    1    2  502    0  0.12368530461E+03 -0.11507645665E+03 -0.95257911857E+02  0.44453876684E+03  0.40000000000E+03 0. -1.
   -9000007    1    1    2    0  501 -0.12368530461E+03  0.11507645665E+03  0.92603299730E+02  0.44397749557E+03  0.40000000000E+03 0. -1.
<mgrwt>
<rscale>  2 0.43421267E+03</rscale>
<asrwt>0</asrwt>
<pdfrwt beam="1">  1        4 0.68551606E-01 0.43421267E+03</pdfrwt>
<pdfrwt beam="2">  1       -4 0.68143203E-01 0.43421267E+03</pdfrwt>
<totfact> 0.75249955E+00</totfact>
</mgrwt>
</event>
<event>
 4    1  0.2533915E-002  0.4031224E+03  0.7818608E-02  0.1042704E+00
         -1   -1    0    0    0  501 -0.00000000000E+00  0.00000000000E+00  0.98825956266E+03  0.98825956266E+03  0.00000000000E+00 0.  1.
          1   -1    0    0  502    0  0.00000000000E+00 -0.00000000000E+00 -0.24385587219E+03  0.24385587219E+03  0.00000000000E+00 0. -1.
    9000007    1    1    2  502    0 -0.49822528527E+01  0.49828522654E+02  0.20630762739E+02  0.40365001286E+03  0.40000000000E+03 0. -1.
   -9000007    1    1    2    0  501  0.49822528527E+01 -0.49828522654E+02  0.72377292773E+03  0.82846542198E+03  0.40000000000E+03 0.  1.
<mgrwt>
<rscale>  2 0.40312244E+03</rscale>
<asrwt>0</asrwt>
<pdfrwt beam="1">  1        1 0.37516289E-01 0.40312244E+03</pdfrwt>
<pdfrwt beam="2">  1       -1 0.15203993E+00 0.40312244E+03</pdfrwt>
<totfact> 0.40992042E+01</totfact>
</mgrwt>
</event>
<event>
 4    1  0.2533915E-002  0.4592819E+03  0.7818608E-02  0.1024990E+00
         -1   -1    0    0    0  501 -0.00000000000E+00  0.00000000000E+00  0.43363228684E+03  0.43363228684E+03  0.00000000000E+00 0. -1.
          1   -1    0    0  502    0  0.00000000000E+00 -0.00000000000E+00 -0.48790724925E+03  0.48790724925E+03  0.00000000000E+00 0.  1.
    9000007    1    1    2  502    0 -0.21052563562E+03  0.81356252769E+02 -0.19451294254E+01  0.45928604012E+03  0.40000000000E+03 0. -1.
   -9000007    1    1    2    0  501  0.21052563562E+03 -0.81356252769E+02 -0.52329832992E+02  0.46225349597E+03  0.40000000000E+03 0. -1.
<mgrwt>
<rscale>  2 0.45928192E+03</rscale>
<asrwt>0</asrwt>
<pdfrwt beam="1">  1        1 0.75062654E-01 0.45928192E+03</pdfrwt>
<pdfrwt beam="2">  1       -1 0.66712660E-01 0.45928192E+03</pdfrwt>
<totfact> 0.10872520E+02</totfact>
</mgrwt>
</event>
<event>
 4    1  0.2533915E-002  0.4164804E+03  0.7818608E-02  0.1038218E+00
         -2   -1    0    0    0  501 -0.00000000000E+00  0.00000000000E+00  0.26721377006E+03  0.26721377006E+03  0.00000000000E+00 0. -1.
          2   -1    0    0  502    0  0.00000000000E+00 -0.00000000000E+00 -0.71411680375E+03  0.71411680375E+03  0.00000000000E+00 0.  1.
    9000007    1    1    2  502    0  0.34891798786E+02 -0.11062786422E+03 -0.75431753247E+02  0.42325631875E+03  0.40000000000E+03 0. -1.
   -9000007    1    1    2    0  501 -0.34891798786E+02  0.11062786422E+03 -0.37147128045E+03  0.55807425506E+03  0.40000000000E+03 0.  1.
<mgrwt>
<rscale>  2 0.41648045E+03</rscale>
<asrwt>0</asrwt>
<pdfrwt beam="1">  1        2 0.10986412E+00 0.41648045E+03</pdfrwt>
<pdfrwt beam="2">  1       -2 0.41109812E-01 0.41648045E+03</pdfrwt>
<totfact> 0.23034553E+02</totfact>
</mgrwt>
</event>
<event>
 4    1  0.2533915E-002  0.7389895E+03  0.7818608E-02  0.9652784E-01
         -1   -1    0    0    0  501 -0.00000000000E+00  0.00000000000E+00  0.15502942290E+04  0.15502942290E+04  0.00000000000E+00 0. -1.
          1   -1    0    0  502    0  0.00000000000E+00 -0.00000000000E+00 -0.52845086783E+03  0.52845086783E+03  0.00000000000E+00 0.  1.
    9000007    1    1    2  502    0 -0.31383308445E+01  0.62136590586E+03  0.11110741417E+04  0.13343879445E+04  0.40000000000E+03 0. -1.
   -9000007    1    1    2    0  501  0.31383308445E+01 -0.62136590586E+03 -0.89230780493E+02  0.74435715236E+03  0.40000000000E+03 0.  1.
<mgrwt>
<rscale>  2 0.73898947E+03</rscale>
<asrwt>0</asrwt>
<pdfrwt beam="1">  1        1 0.81300134E-01 0.73898947E+03</pdfrwt>
<pdfrwt beam="2">  1       -1 0.23850680E+00 0.73898947E+03</pdfrwt>
<totfact> 0.35485613E+00</totfact>
</mgrwt>
</event>
<event>
 4    1  0.2533915E-002  0.4759504E+03  0.7818608E-02  0.1020254E+00
         -2   -1    0    0    0  501 -0.00000000000E+00  0.00000000000E+00  0.19795328189E+03  0.19795328189E+03  0.00000000000E+00 0. -1.
          2   -1    0    0  502    0  0.00000000000E+00 -0.00000000000E+00 -0.12066824048E+04  0.12066824048E+04  0.00000000000E+00 0.  1.
    9000007    1    1    2  502    0 -0.24602908684E+03  0.77449791979E+02 -0.34474814921E+03  0.58769045273E+03  0.40000000000E+03 0.  1.
   -9000007    1    1    2    0  501  0.24602908684E+03 -0.77449791979E+02 -0.66398097375E+03  0.81694523400E+03  0.40000000000E+03 0.  1.
<mgrwt>
<rscale>  2 0.47595040E+03</rscale>
<asrwt>0</asrwt>
<pdfrwt beam="1">  1        2 0.18564345E+00 0.47595040E+03</pdfrwt>
<pdfrwt beam="2">  1       -2 0.30454350E-01 0.47595040E+03</pdfrwt>
<totfact> 0.19361127E+02</totfact>
</mgrwt>
</event>
<event>
 4    1  0.2533915E-002  0.5016548E+03  0.7818608E-02  0.1013348E+00
         -1   -1    0    0    0  501 -0.00000000000E+00  0.00000000000E+00  0.31148762996E+03  0.31148762996E+03  0.00000000000E+00 0.  1.
          1   -1    0    0  502    0  0.00000000000E+00 -0.00000000000E+00 -0.88102091648E+03  0.88102091648E+03  0.00000000000E+00 0. -1.
    9000007    1    1    2  502    0  0.18143450599E+03 -0.24236144323E+03 -0.11301717975E+03  0.51422799617E+03  0.40000000000E+03 0.  1.
   -9000007    1    1    2    0  501 -0.18143450599E+03  0.24236144323E+03 -0.45651610677E+03  0.67828055027E+03  0.40000000000E+03 0. -1.
<mgrwt>
<rscale>  2 0.50165481E+03</rscale>
<asrwt>0</asrwt>
<pdfrwt beam="1">  1        1 0.13554168E+00 0.50165481E+03</pdfrwt>
<pdfrwt beam="2">  1       -1 0.47921174E-01 0.50165481E+03</pdfrwt>
<totfact> 0.85820149E+01</totfact>
</mgrwt>
</event>
<event>
 4    1  0.2533915E-002  0.4260038E+03  0.7818608E-02  0.1035130E+00
         -1   -1    0    0    0  501 -0.00000000000E+00  0.00000000000E+00  0.13713890533E+03  0.13713890533E+03  0.00000000000E+00 0. -1.
          1   -1    0    0  502    0  0.00000000000E+00 -0.00000000000E+00 -0.13439407597E+04  0.13439407597E+04  0.00000000000E+00 0.  1.
    9000007    1    1    2  502    0  0.56232956018E+02  0.13534067527E+03 -0.51168060495E+03  0.66580499037E+03  0.40000000000E+03 0.  1.
   -9000007    1    1    2    0  501 -0.56232956018E+02 -0.13534067527E+03 -0.69512124941E+03  0.81527467464E+03  0.40000000000E+03 0.  1.
<mgrwt>
<rscale>  2 0.42600381E+03</rscale>
<asrwt>0</asrwt>
<pdfrwt beam="1">  1        1 0.20676012E+00 0.42600381E+03</pdfrwt>
<pdfrwt beam="2">  1       -1 0.21098292E-01 0.42600381E+03</pdfrwt>
<totfact> 0.16536171E+02</totfact>
</mgrwt>
</event>
<event>
 4    1  0.2533915E-002  0.4287012E+03  0.7818608E-02  0.1034271E+00
          3   -1    0    0  502    0  0.00000000000E+00  0.00000000000E+00  0.22533683070E+03  0.22533683070E+03  0.00000000000E+00 0.  1.
         -3   -1    0    0    0  501 -0.00000000000E+00 -0.00000000000E+00 -0.83067715128E+03  0.83067715128E+03  0.00000000000E+00 0. -1.
    9000007    1    1    2  502    0  0.18599596734E+02 -0.15309731791E+03 -0.23153533787E+03  0.48723028070E+03  0.40000000000E+03 0.  1.
   -9000007    1    1    2    0  501 -0.18599596734E+02  0.15309731791E+03 -0.37380498271E+03  0.56878370129E+03  0.40000000000E+03 0. -1.
<mgrwt>
<rscale>  2 0.42870122E+03</rscale>
<asrwt>0</asrwt>
<pdfrwt beam="1">  1        3 0.34667205E-01 0.42870122E+03</pdfrwt>
<pdfrwt beam="2">  1       -3 0.12779648E+00 0.42870122E+03</pdfrwt>
<totfact> 0.10384418E+01</totfact>
</mgrwt>
</event>
<event>
 4    1  0.2533915E-002  0.4450411E+03  0.7818608E-02  0.1029211E+00
         -2   -1    0    0    0  501 -0.00000000000E+00  0.00000000000E+00  0.24445051152E+03  0.24445051152E+03  0.00000000000E+00 0. -1.
          2   -1    0    0  502    0  0.00000000000E+00 -0.00000000000E+00 -0.90667442745E+03  0.90667442745E+03  0.00000000000E+00 0.  1.
    9000007    1    1    2  502    0 -0.18920149687E+03 -0.47585098715E+02 -0.51882808113E+03  0.68355257721E+03  0.40000000000E+03 0.  1.
   -9000007    1    1    2    0  501  0.18920149687E+03  0.47585098715E+02 -0.14339583479E+03  0.46757236175E+03  0.40000000000E+03 0. -1.
<mgrwt>
<rscale>  2 0.44504106E+03</rscale>
<asrwt>0</asrwt>
<pdfrwt beam="1">  1        2 0.13948837E+00 0.44504106E+03</pdfrwt>
<pdfrwt beam="2">  1       -2 0.37607771E-01 0.44504106E+03</pdfrwt>
<totfact> 0.19972876E+02</totfact>
</mgrwt>
</event>
<event>
 4    1  0.2533915E-002  0.4000031E+03  0.7818608E-02  0.1043779E+00
         -1   -1    0    0    0  501 -0.00000000000E+00  0.00000000000E+00  0.29703889667E+03  0.29703889667E+03  0.00000000000E+00 0. -1.
          1   -1    0    0  502    0  0.00000000000E+00 -0.00000000000E+00 -0.80561113357E+03  0.80561113357E+03  0.00000000000E+00 0.  1.
    9000007    1    1    2  502    0  0.14119707498E+01  0.67899073906E+00  0.63081249290E+02  0.40494653808E+03  0.40000000000E+03 0. -1.
   -9000007    1    1    2    0  501 -0.14119707498E+01 -0.67899073906E+00 -0.57165348619E+03  0.69770349215E+03  0.40000000000E+03 0.  1.
<mgrwt>
<rscale>  2 0.40000307E+03</rscale>
<asrwt>0</asrwt>
<pdfrwt beam="1">  1        1 0.12394017E+00 0.40000307E+03</pdfrwt>
<pdfrwt beam="2">  1       -1 0.45698293E-01 0.40000307E+03</pdfrwt>
<totfact> 0.10964929E+02</totfact>
</mgrwt>
</event>
<event>
 4    1  0.2533915E-002  0.4564992E+03  0.7818608E-02  0.1025801E+00
          1   -1    0    0  502    0  0.00000000000E+00  0.00000000000E+00  0.96833619970E+03  0.96833619970E+03  0.00000000000E+00 0. -1.
         -1   -1    0    0    0  501 -0.00000000000E+00 -0.00000000000E+00 -0.21717933819E+03  0.21717933819E+03  0.00000000000E+00 0.  1.
    9000007    1    1    2  502    0  0.21066014127E+02 -0.21896982403E+03  0.43208402171E+03  0.62856038899E+03  0.40000000000E+03 0.  1.
   -9000007    1    1    2    0  501 -0.21066014127E+02  0.21896982403E+03  0.31907283980E+03  0.55695514890E+03  0.40000000000E+03 0. -1.
<mgrwt>
<rscale>  2 0.45649925E+03</rscale>
<asrwt>0</asrwt>
<pdfrwt beam="1">  1        1 0.14897480E+00 0.45649925E+03</pdfrwt>
<pdfrwt beam="2">  1       -1 0.33412207E-01 0.45649925E+03</pdfrwt>
<totfact> 0.14105830E+02</totfact>
</mgrwt>
</event>
<event>
 4    1  0.2533915E-002  0.5197358E+03  0.7818608E-02  0.1008752E+00
          1   -1    0    0  502    0  0.00000000000E+00  0.00000000000E+00  0.10233339174E+04  0.10233339174E+04  0.00000000000E+00 0.  1.
         -1   -1    0    0    0  501 -0.00000000000E+00 -0.00000000000E+00 -0.34182080660E+03  0.34182080660E+03  0.00000000000E+00 0. -1.
    9000007    1    1    2  502    0 -0.31266497809E+03  0.11120224858E+03  0.66651481511E+03  0.84520253631E+03  0.40000000000E+03 0.  1.
   -9000007    1    1    2    0  501  0.31266497809E+03 -0.11120224858E+03  0.14998295679E+02  0.51995218769E+03  0.40000000000E+03 0. -1.
<mgrwt>
<rscale>  2 0.51973583E+03</rscale>
<asrwt>0</asrwt>
<pdfrwt beam="1">  1        1 0.15743599E+00 0.51973583E+03</pdfrwt>
<pdfrwt beam="2">  1       -1 0.52587817E-01 0.51973583E+03</pdfrwt>
<totfact> 0.55590980E+01</totfact>
</mgrwt>
</event>
<event>
 4    1  0.2533915E-002  0.4086285E+03  0.7818608E-02  0.1040832E+00
          2   -1    0    0  502    0  0.00000000000E+00  0.00000000000E+00  0.11392815001E+04  0.11392815001E+04  0.00000000000E+00 0.  1.
         -2   -1    0    0    0  501 -0.00000000000E+00 -0.00000000000E+00 -0.38368934439E+03  0.38368934439E+03  0.00000000000E+00 0. -1.
    9000007    1    1    2  502    0 -0.55003176283E+01  0.83348628065E+02  0.97642960803E+03  0.10584857234E+04  0.40000000000E+03 0.  1.
   -9000007    1    1    2    0  501  0.55003176283E+01 -0.83348628065E+02 -0.22083745234E+03  0.46448512102E+03  0.40000000000E+03 0. -1.
<mgrwt>
<rscale>  2 0.40862850E+03</rscale>
<asrwt>0</asrwt>
<pdfrwt beam="1">  1        2 0.17527408E+00 0.40862850E+03</pdfrwt>
<pdfrwt beam="2">  1       -2 0.59029130E-01 0.40862850E+03</pdfrwt>
<totfact> 0.58517074E+01</totfact>
</mgrwt>
</event>
<event>
 4    1  0.2533915E-002  0.4533217E+03  0.7818608E-02  0.1026736E+00
         -2   -1    0    0    0  501 -0.00000000000E+00  0.00000000000E+00  0.59304746675E+03  0.59304746675E+03  0.00000000000E+00 0. -1.
          2   -1    0    0  502    0  0.00000000000E+00 -0.00000000000E+00 -0.66401480081E+03  0.66401480081E+03  0.00000000000E+00 0.  1.
    9000007    1    1    2  502    0 -0.41236725101E+02 -0.20928481089E+03 -0.47010272993E+03  0.65306751279E+03  0.40000000000E+03 0.  1.
   -9000007    1    1    2    0  501  0.41236725101E+02  0.20928481089E+03  0.39913539586E+03  0.60399475478E+03  0.40000000000E+03 0. -1.
<mgrwt>
<rscale>  2 0.45332174E+03</rscale>
<asrwt>0</asrwt>
<pdfrwt beam="1">  1        2 0.10215612E+00 0.45332174E+03</pdfrwt>
<pdfrwt beam="2">  1       -2 0.91238072E-01 0.45332174E+03</pdfrwt>
<totfact> 0.46711023E+01</totfact>
</mgrwt>
</event>
<event>
 4    1  0.2533915E-002  0.4231782E+03  0.7818608E-02  0.1036037E+00
          2   -1    0    0  502    0  0.00000000000E+00  0.00000000000E+00  0.23227679670E+04  0.23227679670E+04  0.00000000000E+00 0. -1.
         -2   -1    0    0    0  501 -0.00000000000E+00 -0.00000000000E+00 -0.77419578013E+02  0.77419578013E+02  0.00000000000E+00 0.  1.
    9000007    1    1    2  502    0 -0.40465489246E+02 -0.13206934451E+03  0.10452774590E+04  0.11276899990E+04  0.40000000000E+03 0. -1.
   -9000007    1    1    2    0  501  0.40465489246E+02  0.13206934451E+03  0.12000709300E+04  0.12724975460E+04  0.40000000000E+03 0.  1.
<mgrwt>
<rscale>  2 0.42317817E+03</rscale>
<asrwt>0</asrwt>
<pdfrwt beam="1">  1        2 0.35734887E+00 0.42317817E+03</pdfrwt>
<pdfrwt beam="2">  1       -2 0.11910706E-01 0.42317817E+03</pdfrwt>
<totfact> 0.24361914E+02</totfact>
</mgrwt>
</event>
<event>
 4    1  0.2533915E-002  0.4402072E+03  0.7818608E-02  0.1030683E+00
         -1   -1    0    0    0  501 -0.00000000000E+00  0.00000000000E+00  0.30070146157E+03  0.30070146157E+03  0.00000000000E+00 0. -1.
          1   -1    0    0  502    0  0.00000000000E+00 -0.00000000000E+00 -0.72286815485E+03  0.72286815485E+03  0.00000000000E+00 0.  1.
    9000007    1    1    2  502    0  0.89511476943E+02 -0.16053049727E+03 -0.37966470135E+03  0.58131543116E+03  0.40000000000E+03 0.  1.
   -9000007    1    1    2    0  501 -0.89511476943E+02  0.16053049727E+03 -0.42501991930E+02  0.44225418526E+03  0.40000000000E+03 0. -1.
<mgrwt>
<rscale>  2 0.44020716E+03</rscale>
<asrwt>0</asrwt>
<pdfrwt beam="1">  1        1 0.11121049E+00 0.44020716E+03</pdfrwt>
<pdfrwt beam="2">  1       -1 0.46261763E-01 0.44020716E+03</pdfrwt>
<totfact> 0.12599214E+02</totfact>
</mgrwt>
</event>
<event>
 4    1  0.2533915E-002  0.4261260E+03  0.7818608E-02  0.1035091E+00
          2   -1    0    0  502    0  0.00000000000E+00  0.00000000000E+00  0.49238158700E+03  0.49238158700E+03  0.00000000000E+00 0.  1.
         -2   -1    0    0    0  501 -0.00000000000E+00 -0.00000000000E+00 -0.50233229102E+03  0.50233229102E+03  0.00000000000E+00 0. -1.
    9000007    1    1    2  502    0 -0.65722268352E+02  0.13139241917E+03  0.25146639036E+03  0.49479160245E+03  0.40000000000E+03 0.  1.
   -9000007    1    1    2    0  501  0.65722268352E+02 -0.13139241917E+03 -0.26141709438E+03  0.49992227556E+03  0.40000000000E+03 0. -1.
<mgrwt>
<rscale>  2 0.42612602E+03</rscale>
<asrwt>0</asrwt>
<pdfrwt beam="1">  1        2 0.75751014E-01 0.42612602E+03</pdfrwt>
<pdfrwt beam="2">  1       -2 0.77281891E-01 0.42612602E+03</pdfrwt>
<totfact> 0.96817141E+01</totfact>
</mgrwt>
</event>
<event>
 4    1  0.2533915E-002  0.4876566E+03  0.7818608E-02  0.1017052E+00
          2   -1    0    0  502    0  0.00000000000E+00  0.00000000000E+00  0.21919629827E+04  0.21919629827E+04  0.00000000000E+00 0. -1.
         -2   -1    0    0    0  501 -0.00000000000E+00 -0.00000000000E+00 -0.15401311089E+03  0.15401311089E+03  0.00000000000E+00 0.  1.
    9000007    1    1    2  502    0  0.27753711782E+03  0.27965611565E+02  0.38126310327E+03  0.61900765837E+03  0.40000000000E+03 0.  1.
   -9000007    1    1    2    0  501 -0.27753711782E+03 -0.27965611565E+02  0.16566867685E+04  0.17269684352E+04  0.40000000000E+03 0. -1.
<mgrwt>
<rscale>  2 0.48765657E+03</rscale>
<asrwt>0</asrwt>
<pdfrwt beam="1">  1        2 0.33722505E+00 0.48765657E+03</pdfrwt>
<pdfrwt beam="2">  1       -2 0.23694326E-01 0.48765657E+03</pdfrwt>
<totfact> 0.88137459E+01</totfact>
</mgrwt>
</event>
<event>
 4    1  0.2533915E-002  0.4154571E+03  0.7818608E-02  0.1038555E+00
         -2   -1    0    0    0  501 -0.00000000000E+00  0.00000000000E+00  0.30071601459E+03  0.30071601459E+03  0.00000000000E+00 0. -1.
          2   -1    0    0  502    0  0.00000000000E+00 -0.00000000000E+00 -0.58605765637E+03  0.58605765637E+03  0.00000000000E+00 0.  1.
    9000007    1    1    2  502    0  0.43609541097E+02 -0.10345449868E+03 -0.20632472446E+03  0.46386907344E+03  0.40000000000E+03 0.  1.
   -9000007    1    1    2    0  501 -0.43609541097E+02  0.10345449868E+03 -0.79016917319E+02  0.42290459751E+03  0.40000000000E+03 0. -1.
<mgrwt>
<rscale>  2 0.41545713E+03</rscale>
<asrwt>0</asrwt>
<pdfrwt beam="1">  1        2 0.90162717E-01 0.41545713E+03</pdfrwt>
<pdfrwt beam="2">  1       -2 0.46264002E-01 0.41545713E+03</pdfrwt>
<totfact> 0.23204136E+02</totfact>
</mgrwt>
</event>
<event>
 4    1  0.2533915E-002  0.4129743E+03  0.7818608E-02  0.1039377E+00
         -2   -1    0    0    0  501 -0.00000000000E+00  0.00000000000E+00  0.11802048606E+03  0.11802048606E+03  0.00000000000E+00 0.  1.
          2   -1    0    0  502    0  0.00000000000E+00 -0.00000000000E+00 -0.16044622797E+04  0.16044622797E+04  0.00000000000E+00 0. -1.
    9000007    1    1    2  502    0 -0.10202734698E+03  0.11756640411E+02 -0.10146738263E+04  0.10954956741E+04  0.40000000000E+03 0. -1.
   -9000007    1    1    2    0  501  0.10202734698E+03 -0.11756640411E+02 -0.47176796732E+03  0.62698709167E+03  0.40000000000E+03 0.  1.
<mgrwt>
<rscale>  2 0.41297433E+03</rscale>
<asrwt>0</asrwt>
<pdfrwt beam="1">  1        2 0.24684034E+00 0.41297433E+03</pdfrwt>
<pdfrwt beam="2">  1       -2 0.18156998E-01 0.41297433E+03</pdfrwt>
<totfact> 0.29329610E+02</totfact>
</mgrwt>
</event>
<event>
 4    1  0.2533915E-002  0.5124019E+03  0.7818608E-02  0.1010592E+00
          2   -1    0    0  502    0  0.00000000000E+00  0.00000000000E+00  0.21608780983E+04  0.21608780983E+04  0.00000000000E+00 0. -1.
         -2   -1    0    0    0  501 -0.00000000000E+00 -0.00000000000E+00 -0.15555975026E+03  0.15555975026E+03  0.00000000000E+00 0.  1.
    9000007    1    1    2  502    0  0.22592939170E+03  0.22696160018E+03  0.46073777103E+03  0.68908268854E+03  0.40000000000E+03 0.  1.
   -9000007    1    1    2    0  501 -0.22592939170E+03 -0.22696160018E+03  0.15445805770E+04  0.16273551600E+04  0.40000000000E+03 0. -1.
<mgrwt>
<rscale>  2 0.51240185E+03</rscale>
<asrwt>0</asrwt>
<pdfrwt beam="1">  1        2 0.33244276E+00 0.51240185E+03</pdfrwt>
<pdfrwt beam="2">  1       -2 0.23932271E-01 0.51240185E+03</pdfrwt>
<totfact> 0.89638352E+01</totfact>
</mgrwt>
</event>
<event>
 4    1  0.2533915E-002  0.5102037E+03  0.7818608E-02  0.1011149E+00
         -2   -1    0    0    0  501 -0.00000000000E+00  0.00000000000E+00  0.43667258397E+03  0.43667258397E+03  0.00000000000E+00 0.  1.
          2   -1    0    0  502    0  0.00000000000E+00 -0.00000000000E+00 -0.64934636145E+03  0.64934636145E+03  0.00000000000E+00 0. -1.
    9000007    1    1    2  502    0 -0.31144429129E+03 -0.57535345413E+02  0.49132772477E+02  0.51256403686E+03  0.40000000000E+03 0.  1.
   -9000007    1    1    2    0  501  0.31144429129E+03  0.57535345413E+02 -0.26180654996E+03  0.57345490856E+03  0.40000000000E+03 0. -1.
<mgrwt>
<rscale>  2 0.51020375E+03</rscale>
<asrwt>0</asrwt>
<pdfrwt beam="1">  1        2 0.99899440E-01 0.51020375E+03</pdfrwt>
<pdfrwt beam="2">  1       -2 0.67180397E-01 0.51020375E+03</pdfrwt>
<totfact> 0.94235183E+01</totfact>
</mgrwt>
</event>
<event>
 4    1  0.2533915E-002  0.4004739E+03  0.7818608E-02  0.1043616E+00
         -1   -1    0    0    0  501 -0.00000000000E+00  0.00000000000E+00  0.59256818574E+03  0.59256818574E+03  0.00000000000E+00 0.  1.
          1   -1    0    0  502    0  0.00000000000E+00 -0.00000000000E+00 -0.40236950458E+03  0.40236950458E+03  0.00000000000E+00 0. -1.
    9000007    1    1    2  502    0 -0.75539546845E+01  0.17952249266E+02 -0.18952777492E+03  0.44305769709E+03  0.40000000000E+03 0. -1.
   -9000007    1    1    2    0  501  0.75539546845E+01 -0.17952249266E+02  0.37972645608E+03  0.55187999323E+03  0.40000000000E+03 0.  1.
<mgrwt>
<rscale>  2 0.40047390E+03</rscale>
<asrwt>0</asrwt>
<pdfrwt beam="1">  1        1 0.61903001E-01 0.40047390E+03</pdfrwt>
<pdfrwt beam="2">  1       -1 0.91164336E-01 0.40047390E+03</pdfrwt>
<totfact> 0.73664686E+01</totfact>
</mgrwt>
</event>
<event>
 4    1  0.2533915E-002  0.4190391E+03  0.7818608E-02  0.1037380E+00
          2   -1    0    0  502    0  0.00000000000E+00  0.00000000000E+00  0.13720358367E+04  0.13720358367E+04  0.00000000000E+00 0. -1.
         -2   -1    0    0    0  501 -0.00000000000E+00 -0.00000000000E+00 -0.13087863309E+03  0.13087863309E+03  0.00000000000E+00 0.  1.
    9000007    1    1    2  502    0 -0.45254594496E+02  0.11638632465E+03  0.50875504799E+03  0.65910959160E+03  0.40000000000E+03 0.  1.
   -9000007    1    1    2    0  501  0.45254594496E+02 -0.11638632465E+03  0.73240215564E+03  0.84380487820E+03  0.40000000000E+03 0. -1.
<mgrwt>
<rscale>  2 0.41903909E+03</rscale>
<asrwt>0</asrwt>
<pdfrwt beam="1">  1        2 0.21108243E+00 0.41903909E+03</pdfrwt>
<pdfrwt beam="2">  1       -2 0.20135175E-01 0.41903909E+03</pdfrwt>
<totfact> 0.32866735E+02</totfact>
</mgrwt>
</event>
<event>
 4    1  0.2533915E-002  0.4771449E+03  0.7818608E-02  0.1019923E+00
          1   -1    0    0  502    0  0.00000000000E+00  0.00000000000E+00  0.51609122732E+03  0.51609122732E+03  0.00000000000E+00 0. -1.
         -1   -1    0    0    0  501 -0.00000000000E+00 -0.00000000000E+00 -0.45025995830E+03  0.45025995830E+03  0.00000000000E+00 0.  1.
    9000007    1    1    2  502    0  0.16622747579E+03  0.20008917031E+03  0.10169001478E+03  0.48786074744E+03  0.40000000000E+03 0.  1.
   -9000007    1    1    2    0  501 -0.16622747579E+03 -0.20008917031E+03 -0.35858745769E+02  0.47849043818E+03  0.40000000000E+03 0.  1.
<mgrwt>
<rscale>  2 0.47714489E+03</rscale>
<asrwt>0</asrwt>
<pdfrwt beam="1">  1        1 0.79398650E-01 0.47714489E+03</pdfrwt>
<pdfrwt beam="2">  1       -1 0.69270763E-01 0.47714489E+03</pdfrwt>
<totfact> 0.93217002E+01</totfact>
</mgrwt>
</event>
<event>
 4    1  0.2533915E-002  0.4048902E+03  0.7818608E-02  0.1042099E+00
         -1   -1    0    0    0  501 -0.00000000000E+00  0.00000000000E+00  0.89052389701E+03  0.89052389701E+03  0.00000000000E+00 0. -1.
          1   -1    0    0  502    0  0.00000000000E+00 -0.00000000000E+00 -0.26394778143E+03  0.26394778143E+03  0.00000000000E+00 0.  1.
    9000007    1    1    2  502    0  0.32429930690E+02 -0.53706141810E+02  0.63079586507E+03  0.74955951962E+03  0.40000000000E+03 0. -1.
   -9000007    1    1    2    0  501 -0.32429930690E+02  0.53706141810E+02 -0.42197494925E+01  0.40491215882E+03  0.40000000000E+03 0.  1.
<mgrwt>
<rscale>  2 0.40489017E+03</rscale>
<asrwt>0</asrwt>
<pdfrwt beam="1">  1        1 0.40607351E-01 0.40489017E+03</pdfrwt>
<pdfrwt beam="2">  1       -1 0.13700368E+00 0.40489017E+03</pdfrwt>
<totfact> 0.48600413E+01</totfact>
</mgrwt>
</event>
<event>
 4    1  0.2533915E-002  0.5304373E+03  0.7818608E-02  0.1006126E+00
          2   -1    0    0  502    0  0.00000000000E+00  0.00000000000E+00  0.26319229578E+04  0.26319229578E+04  0.00000000000E+00 0. -1.
         -2   -1    0    0    0  501 -0.00000000000E+00 -0.00000000000E+00 -0.12548666347E+03  0.12548666347E+03  0.00000000000E+00 0.  1.
    9000007    1    1    2  502    0  0.34826995059E+03 -0.84742600229E+01  0.72267162980E+03  0.89644746421E+03  0.40000000000E+03 0.  1.
   -9000007    1    1    2    0  501 -0.34826995059E+03  0.84742600229E+01  0.17837646646E+04  0.18609621571E+04  0.40000000000E+03 0. -1.
<mgrwt>
<rscale>  2 0.53043734E+03</rscale>
<asrwt>0</asrwt>
<pdfrwt beam="1">  1        2 0.40491118E+00 0.53043734E+03</pdfrwt>
<pdfrwt beam="2">  1       -2 0.19305643E-01 0.53043734E+03</pdfrwt>
<totfact> 0.71377079E+01</totfact>
</mgrwt>
</event>
<event>
 4    1  0.2533915E-002  0.7162338E+03  0.7818608E-02  0.9689866E-01
          2   -1    0    0  502    0  0.00000000000E+00  0.00000000000E+00  0.83857921319E+03  0.83857921319E+03  0.00000000000E+00 0.  1.
         -2   -1    0    0    0  501 -0.00000000000E+00 -0.00000000000E+00 -0.15847447540E+04  0.15847447540E+04  0.00000000000E+00 0. -1.
    9000007    1    1    2  502    0 -0.20422050814E+02  0.59377919486E+03  0.57634021605E+03  0.91932520744E+03  0.40000000000E+03 0.  1.
   -9000007    1    1    2    0  501  0.20422050814E+02 -0.59377919486E+03 -0.13225057569E+04  0.15039987598E+04  0.40000000000E+03 0.  1.
<mgrwt>
<rscale>  2 0.71623376E+03</rscale>
<asrwt>0</asrwt>
<pdfrwt beam="1">  1        2 0.12901219E+00 0.71623376E+03</pdfrwt>
<pdfrwt beam="2">  1       -2 0.24380688E+00 0.71623376E+03</pdfrwt>
<totfact> 0.23508361E+00</totfact>
</mgrwt>
</event>
<event>
 4    1  0.2533915E-002  0.5126397E+03  0.7818608E-02  0.1010531E+00
          1   -1    0    0  502    0  0.00000000000E+00  0.00000000000E+00  0.23650990151E+03  0.23650990151E+03  0.00000000000E+00 0. -1.
         -1   -1    0    0    0  501 -0.00000000000E+00 -0.00000000000E+00 -0.11787018153E+04  0.11787018153E+04  0.00000000000E+00 0.  1.
    9000007    1    1    2  502    0  0.31961596452E+03  0.25398080216E+02 -0.64048614280E+03  0.82037913575E+03  0.40000000000E+03 0.  1.
   -9000007    1    1    2    0  501 -0.31961596452E+03 -0.25398080216E+02 -0.30170577103E+03  0.59483258109E+03  0.40000000000E+03 0. -1.
<mgrwt>
<rscale>  2 0.51263967E+03</rscale>
<asrwt>0</asrwt>
<pdfrwt beam="1">  1        1 0.36386140E-01 0.51263967E+03</pdfrwt>
<pdfrwt beam="2">  1       -1 0.18133873E+00 0.51263967E+03</pdfrwt>
<totfact> 0.25606806E+01</totfact>
</mgrwt>
</event>
<event>
 4    1  0.2533915E-002  0.4537537E+03  0.7818608E-02  0.1026609E+00
         -2   -1    0    0    0  501 -0.00000000000E+00  0.00000000000E+00  0.22272165107E+03  0.22272165107E+03  0.00000000000E+00 0.  1.
          2   -1    0    0  502    0  0.00000000000E+00 -0.00000000000E+00 -0.11026720520E+04  0.11026720520E+04  0.00000000000E+00 0. -1.
    9000007    1    1    2  502    0  0.21025272512E+03 -0.41062968716E+02 -0.17354284479E+03  0.48580808433E+03  0.40000000000E+03 0.  1.
   -9000007    1    1    2    0  501 -0.21025272512E+03  0.41062968716E+02 -0.70640755612E+03  0.83958561872E+03  0.40000000000E+03 0.  1.
<mgrwt>
<rscale>  2 0.45375365E+03</rscale>
<asrwt>0</asrwt>
<pdfrwt beam="1">  1        2 0.16964186E+00 0.45375365E+03</pdfrwt>
<pdfrwt beam="2">  1       -2 0.34264869E-01 0.45375365E+03</pdfrwt>
<totfact> 0.17943814E+02</totfact>
</mgrwt>
</event>
<event>
 4    1  0.2533915E-002  0.5227910E+03  0.7818608E-02  0.1007996E+00
         -2   -1    0    0    0  501 -0.00000000000E+00  0.00000000000E+00  0.16938853146E+03  0.16938853146E+03  0.00000000000E+00 0. -1.
          2   -1    0    0  502    0  0.00000000000E+00 -0.00000000000E+00 -0.16942464965E+04  0.16942464965E+04  0.00000000000E+00 0.  1.
    9000007    1    1    2  502    0  0.19274492796E+03  0.27597072856E+03 -0.55901922103E+03  0.76538417789E+03  0.40000000000E+03 0. -1.
   -9000007    1    1    2    0  501 -0.19274492796E+03 -0.27597072856E+03 -0.96583874405E+03  0.10982508501E+04  0.40000000000E+03 0.  1.
<mgrwt>
<rscale>  2 0.52279102E+03</rscale>
<asrwt>0</asrwt>
<pdfrwt beam="1">  1        2 0.26065331E+00 0.52279102E+03</pdfrwt>
<pdfrwt beam="2">  1       -2 0.26059774E-01 0.52279102E+03</pdfrwt>
<totfact> 0.13716588E+02</totfact>
</mgrwt>
</event>
<event>
 4    1  0.2533915E-002  0.5138702E+03  0.7818608E-02  0.1010221E+00
         -2   -1    0    0    0  501 -0.00000000000E+00  0.00000000000E+00  0.18095097993E+04  0.18095097993E+04  0.00000000000E+00 0. -1.
          2   -1    0    0  502    0  0.00000000000E+00 -0.00000000000E+00 -0.19310207051E+03  0.19310207051E+03  0.00000000000E+00 0.  1.
    9000007    1    1    2  502    0 -0.31841469653E+03 -0.51717089718E+02  0.13030996217E+04  0.14007609362E+04  0.40000000000E+03 0. -1.
   -9000007    1    1    2    0  501  0.31841469653E+03  0.51717089718E+02  0.31330810713E+03  0.60185093364E+03  0.40000000000E+03 0.  1.
<mgrwt>
<rscale>  2 0.51387019E+03</rscale>
<asrwt>0</asrwt>
<pdfrwt beam="1">  1        2 0.29708012E-01 0.51387019E+03</pdfrwt>
<pdfrwt beam="2">  1       -2 0.27838611E+00 0.51387019E+03</pdfrwt>
<totfact> 0.82656601E+00</totfact>
</mgrwt>
</event>
<event>
 4    1  0.2533915E-002  0.4029484E+03  0.7818608E-02  0.1042763E+00
          2   -1    0    0  502    0  0.00000000000E+00  0.00000000000E+00  0.70989821855E+03  0.70989821855E+03  0.00000000000E+00 0. -1.
         -2   -1    0    0    0  501 -0.00000000000E+00 -0.00000000000E+00 -0.23274625212E+03  0.23274625212E+03  0.00000000000E+00 0.  1.
    9000007    1    1    2  502    0 -0.42425318529E+02 -0.23822770754E+02  0.30057205499E+03  0.50270368240E+03  0.40000000000E+03 0.  1.
   -9000007    1    1    2    0  501  0.42425318529E+02  0.23822770754E+02  0.17657991144E+03  0.43994078827E+03  0.40000000000E+03 0.  1.
<mgrwt>
<rscale>  2 0.40294842E+03</rscale>
<asrwt>0</asrwt>
<pdfrwt beam="1">  1        2 0.10921511E+00 0.40294842E+03</pdfrwt>
<pdfrwt beam="2">  1       -2 0.35807116E-01 0.40294842E+03</pdfrwt>
<totfact> 0.30266710E+02</totfact>
</mgrwt>
</event>
<event>
 4    1  0.2533915E-002  0.4673643E+03  0.7818608E-02  0.1022667E+00
          2   -1    0    0  502    0  0.00000000000E+00  0.00000000000E+00  0.64168162265E+03  0.64168162265E+03  0.00000000000E+00 0.  1.
         -2   -1    0    0    0  501 -0.00000000000E+00 -0.00000000000E+00 -0.34746014524E+03  0.34746014524E+03  0.00000000000E+00 0. -1.
    9000007    1    1    2  502    0  0.93561823957E+02 -0.22288023788E+03  0.21760201270E+03  0.51553860308E+03  0.40000000000E+03 0. -1.
   -9000007    1    1    2    0  501 -0.93561823957E+02  0.22288023788E+03  0.76619464709E+02  0.47360316480E+03  0.40000000000E+03 0.  1.
<mgrwt>
<rscale>  2 0.46736433E+03</rscale>
<asrwt>0</asrwt>
<pdfrwt beam="1">  1        2 0.98720250E-01 0.46736433E+03</pdfrwt>
<pdfrwt beam="2">  1       -2 0.53455407E-01 0.46736433E+03</pdfrwt>
<totfact> 0.15499647E+02</totfact>
</mgrwt>
</event>
<event>
 4    1  0.2533915E-002  0.4007339E+03  0.7818608E-02  0.1043526E+00
         -2   -1    0    0    0  501 -0.00000000000E+00  0.00000000000E+00  0.41001506826E+02  0.41001506826E+02  0.00000000000E+00 0.  1.
          2   -1    0    0  502    0  0.00000000000E+00 -0.00000000000E+00 -0.45913342977E+04  0.45913342977E+04  0.00000000000E+00 0. -1.
    9000007    1    1    2  502    0 -0.19649001983E+02  0.14197820883E+02 -0.13872790400E+04  0.14439981981E+04  0.40000000000E+03 0.  1.
   -9000007    1    1    2    0  501  0.19649001983E+02 -0.14197820883E+02 -0.31630537508E+04  0.31883376064E+04  0.40000000000E+03 0. -1.
<mgrwt>
<rscale>  2 0.40073390E+03</rscale>
<asrwt>0</asrwt>
<pdfrwt beam="1">  1        2 0.70635933E+00 0.40073390E+03</pdfrwt>
<pdfrwt beam="2">  1       -2 0.63079223E-02 0.40073390E+03</pdfrwt>
<totfact> 0.17945801E+01</totfact>
</mgrwt>
</event>
<event>
 4    1  0.2533915E-002  0.4663814E+03  0.7818608E-02  0.1022947E+00
         -2   -1    0    0    0  501 -0.00000000000E+00  0.00000000000E+00  0.16080062953E+03  0.16080062953E+03  0.00000000000E+00 0.  1.
          2   -1    0    0  502    0  0.00000000000E+00 -0.00000000000E+00 -0.14739305615E+04  0.14739305615E+04  0.00000000000E+00 0. -1.
    9000007    1    1    2  502    0  0.14678780273E+03  0.18964428959E+03 -0.89099957436E+03  0.10056797985E+04  0.40000000000E+03 0. -1.
   -9000007    1    1    2    0  501 -0.14678780273E+03 -0.18964428959E+03 -0.42213035758E+03  0.62905139249E+03  0.40000000000E+03 0.  1.
<mgrwt>
<rscale>  2 0.46638141E+03</rscale>
<asrwt>0</asrwt>
<pdfrwt beam="1">  1        2 0.22675856E+00 0.46638141E+03</pdfrwt>
<pdfrwt beam="2">  1       -2 0.24738557E-01 0.46638141E+03</pdfrwt>
<totfact> 0.19988465E+02</totfact>
</mgrwt>
</event>
<event>
 4    1  0.2533915E-002  0.4341863E+03  0.7818608E-02  0.1032546E+00
         -2   -1    0    0    0  501 -0.00000000000E+00  0.00000000000E+00  0.64851845805E+02  0.64851845805E+02  0.00000000000E+00 0.  1.
          2   -1    0    0  502    0  0.00000000000E+00 -0.00000000000E+00 -0.30124836536E+04  0.30124836536E+04  0.00000000000E+00 0. -1.
    9000007    1    1    2  502    0 -0.15843261767E+03  0.58453593995E+02 -0.11857549155E+04  0.12627479703E+04  0.40000000000E+03 0.  1.
   -9000007    1    1    2    0  501  0.15843261767E+03 -0.58453593995E+02 -0.17618768924E+04  0.18145875291E+04  0.40000000000E+03 0.  1.
<mgrwt>
<rscale>  2 0.43418627E+03</rscale>
<asrwt>0</asrwt>
<pdfrwt beam="1">  1        2 0.46345900E+00 0.43418627E+03</pdfrwt>
<pdfrwt beam="2">  1       -2 0.99772076E-02 0.43418627E+03</pdfrwt>
<totfact> 0.13084059E+02</totfact>
</mgrwt>
</event>
<event>
 4    1  0.2533915E-002  0.4048718E+03  0.7818608E-02  0.1042106E+00
          2   -1    0    0  502    0  0.00000000000E+00  0.00000000000E+00  0.10934140120E+04  0.10934140120E+04  0.00000000000E+00 0. -1.
         -2   -1    0    0    0  501 -0.00000000000E+00 -0.00000000000E+00 -0.15091984902E+03  0.15091984902E+03  0.00000000000E+00 0.  1.
    9000007    1    1    2  502    0  0.56272877193E+02  0.27469273096E+02  0.42052683291E+03  0.58374995920E+03  0.40000000000E+03 0.  1.
   -9000007    1    1    2    0  501 -0.56272877193E+02 -0.27469273096E+02  0.52196733004E+03  0.66058390178E+03  0.40000000000E+03 0.  1.
<mgrwt>
<rscale>  2 0.40487183E+03</rscale>
<asrwt>0</asrwt>
<pdfrwt beam="1">  1        2 0.16821754E+00 0.40487183E+03</pdfrwt>
<pdfrwt beam="2">  1       -2 0.23218439E-01 0.40487183E+03</pdfrwt>
<totfact> 0.37101955E+02</totfact>
</mgrwt>
</event>
<event>
 4    1  0.2533915E-002  0.4975271E+03  0.7818608E-02  0.1014426E+00
         -1   -1    0    0    0  501 -0.00000000000E+00  0.00000000000E+00  0.23619357583E+03  0.23619357583E+03  0.00000000000E+00 0.  1.
          1   -1    0    0  502    0  0.00000000000E+00 -0.00000000000E+00 -0.10788181197E+04  0.10788181197E+04  0.00000000000E+00 0. -1.
    9000007    1    1    2  502    0  0.28877016838E+03 -0.64381657580E+02 -0.31020084133E+03  0.58630859617E+03  0.40000000000E+03 0.  1.
   -9000007    1    1    2    0  501 -0.28877016838E+03  0.64381657580E+02 -0.53242370249E+03  0.72870309932E+03  0.40000000000E+03 0. -1.
<mgrwt>
<rscale>  2 0.49752709E+03</rscale>
<asrwt>0</asrwt>
<pdfrwt beam="1">  1        1 0.16597202E+00 0.49752709E+03</pdfrwt>
<pdfrwt beam="2">  1       -1 0.36337472E-01 0.49752709E+03</pdfrwt>
<totfact> 0.99819314E+01</totfact>
</mgrwt>
</event>
<event>
 4    1  0.2533915E-002  0.4045156E+03  0.7818608E-02  0.1042227E+00
         -1   -1    0    0    0  501 -0.00000000000E+00  0.00000000000E+00  0.34927151965E+03  0.34927151965E+03  0.00000000000E+00 0. -1.
          1   -1    0    0  502    0  0.00000000000E+00 -0.00000000000E+00 -0.53221289632E+03  0.53221289632E+03  0.00000000000E+00 0.  1.
    9000007    1    1    2  502    0  0.60158414295E+02 -0.37245277132E+01  0.61027058432E+02  0.40909315416E+03  0.40000000000E+03 0. -1.
   -9000007    1    1    2    0  501 -0.60158414295E+02  0.37245277132E+01 -0.24396843510E+03  0.47239126182E+03  0.40000000000E+03 0. -1.
<mgrwt>
<rscale>  2 0.40451564E+03</rscale>
<asrwt>0</asrwt>
<pdfrwt beam="1">  1        1 0.81878906E-01 0.40451564E+03</pdfrwt>
<pdfrwt beam="2">  1       -1 0.53734080E-01 0.40451564E+03</pdfrwt>
<totfact> 0.14813246E+02</totfact>
</mgrwt>
</event>
<event>
 4    1  0.2533915E-002  0.4070208E+03  0.7818608E-02  0.1041375E+00
         -1   -1    0    0    0  501 -0.00000000000E+00  0.00000000000E+00  0.39852684816E+03  0.39852684816E+03  0.00000000000E+00 0. -1.
          1   -1    0    0  502    0  0.00000000000E+00 -0.00000000000E+00 -0.41665081128E+03  0.41665081128E+03  0.00000000000E+00 0.  1.
    9000007    1    1    2  502    0  0.73989483134E+02 -0.13838647612E+02  0.10451373939E+02  0.40715498646E+03  0.40000000000E+03 0. -1.
   -9000007    1    1    2    0  501 -0.73989483134E+02  0.13838647612E+02 -0.28575337063E+02  0.40802267299E+03  0.40000000000E+03 0.  1.
<mgrwt>
<rscale>  2 0.40702082E+03</rscale>
<asrwt>0</asrwt>
<pdfrwt beam="1">  1        1 0.64100125E-01 0.40702082E+03</pdfrwt>
<pdfrwt beam="2">  1       -1 0.61311822E-01 0.40702082E+03</pdfrwt>
<totfact> 0.15933045E+02</totfact>
</mgrwt>
</event>
<event>
 4    1  0.2533915E-002  0.4855329E+03  0.7818608E-02  0.1017626E+00
         -1   -1    0    0    0  501 -0.00000000000E+00  0.00000000000E+00  0.43020315785E+03  0.43020315785E+03  0.00000000000E+00 0.  1.
          1   -1    0    0  502    0  0.00000000000E+00 -0.00000000000E+00 -0.60021129502E+03  0.60021129502E+03  0.00000000000E+00 0. -1.
    9000007    1    1    2  502    0 -0.26792778248E+03  0.62904032277E+02  0.66980751560E+02  0.49013124261E+03  0.40000000000E+03 0. -1.
   -9000007    1    1    2    0  501  0.26792778248E+03 -0.62904032277E+02 -0.23698888873E+03  0.54028321026E+03  0.40000000000E+03 0. -1.
<mgrwt>
<rscale>  2 0.48553292E+03</rscale>
<asrwt>0</asrwt>
<pdfrwt beam="1">  1        1 0.92340199E-01 0.48553292E+03</pdfrwt>
<pdfrwt beam="2">  1       -1 0.66185101E-01 0.48553292E+03</pdfrwt>
<totfact> 0.82715133E+01</totfact>
</mgrwt>
</event>
<event>
 4    1  0.2533915E-002  0.4160733E+03  0.7818608E-02  0.1038352E+00
          1   -1    0    0  502    0  0.00000000000E+00  0.00000000000E+00  0.25443976268E+03  0.25443976268E+03  0.00000000000E+00 0.  1.
         -1   -1    0    0    0  501 -0.00000000000E+00 -0.00000000000E+00 -0.85388249118E+03  0.85388249118E+03  0.00000000000E+00 0. -1.
    9000007    1    1    2  502    0  0.93857225974E+02 -0.65633820459E+02 -0.49926385100E+02  0.41905801649E+03  0.40000000000E+03 0.  1.
   -9000007    1    1    2    0  501 -0.93857225974E+02  0.65633820459E+02 -0.54951634340E+03  0.68926423737E+03  0.40000000000E+03 0. -1.
<mgrwt>
<rscale>  2 0.41607328E+03</rscale>
<asrwt>0</asrwt>
<pdfrwt beam="1">  1        1 0.39144579E-01 0.41607328E+03</pdfrwt>
<pdfrwt beam="2">  1       -1 0.13136654E+00 0.41607328E+03</pdfrwt>
<totfact> 0.56524430E+01</totfact>
</mgrwt>
</event>
<event>
 4    1  0.2533915E-002  0.4053804E+03  0.7818608E-02  0.1041932E+00
         -2   -1    0    0    0  501 -0.00000000000E+00  0.00000000000E+00  0.57990037948E+02  0.57990037948E+02  0.00000000000E+00 0. -1.
          2   -1    0    0  502    0  0.00000000000E+00 -0.00000000000E+00 -0.28760156545E+04  0.28760156545E+04  0.00000000000E+00 0.  1.
    9000007    1    1    2  502    0 -0.40404785786E+02 -0.51968111413E+02 -0.15867089082E+04  0.16376746901E+04  0.40000000000E+03 0.  1.
   -9000007    1    1    2    0  501  0.40404785786E+02  0.51968111413E+02 -0.12313167084E+04  0.12963310023E+04  0.40000000000E+03 0. -1.
<mgrwt>
<rscale>  2 0.40538035E+03</rscale>
<asrwt>0</asrwt>
<pdfrwt beam="1">  1        2 0.44246391E+00 0.40538035E+03</pdfrwt>
<pdfrwt beam="2">  1       -2 0.89215451E-02 0.40538035E+03</pdfrwt>
<totfact> 0.18987361E+02</totfact>
</mgrwt>
</event>
<event>
 4    1  0.2533915E-002  0.4955910E+03  0.7818608E-02  0.1014936E+00
         -2   -1    0    0    0  501 -0.00000000000E+00  0.00000000000E+00  0.12890122493E+03  0.12890122493E+03  0.00000000000E+00 0.  1.
          2   -1    0    0  502    0  0.00000000000E+00 -0.00000000000E+00 -0.20008881680E+04  0.20008881680E+04  0.00000000000E+00 0. -1.
    9000007    1    1    2  502    0 -0.29009391952E+03  0.38157277813E+02 -0.11686062587E+04  0.12693506403E+04  0.40000000000E+03 0. -1.
   -9000007    1    1    2    0  501  0.29009391952E+03 -0.38157277813E+02 -0.70338068435E+03  0.86043875267E+03  0.40000000000E+03 0.  1.
<mgrwt>
<rscale>  2 0.49559102E+03</rscale>
<asrwt>0</asrwt>
<pdfrwt beam="1">  1        2 0.30782893E+00 0.49559102E+03</pdfrwt>
<pdfrwt beam="2">  1       -2 0.19830959E-01 0.49559102E+03</pdfrwt>
<totfact> 0.15261681E+02</totfact>
</mgrwt>
</event>
<event>
 4    1  0.2533915E-002  0.4399377E+03  0.7818608E-02  0.1030766E+00
         -2   -1    0    0    0  501 -0.00000000000E+00  0.00000000000E+00  0.20831672484E+03  0.20831672484E+03  0.00000000000E+00 0. -1.
          2   -1    0    0  502    0  0.00000000000E+00 -0.00000000000E+00 -0.12689830013E+04  0.12689830013E+04  0.00000000000E+00 0.  1.
    9000007    1    1    2  502    0 -0.14401939884E+03  0.11315282226E+03 -0.14805335419E+03  0.46418201615E+03  0.40000000000E+03 0. -1.
   -9000007    1    1    2    0  501  0.14401939884E+03 -0.11315282226E+03 -0.91261292231E+03  0.10131177100E+04  0.40000000000E+03 0.  1.
<mgrwt>
<rscale>  2 0.43993766E+03</rscale>
<asrwt>0</asrwt>
<pdfrwt beam="1">  1        2 0.19522816E+00 0.43993766E+03</pdfrwt>
<pdfrwt beam="2">  1       -2 0.32048726E-01 0.43993766E+03</pdfrwt>
<totfact> 0.16284493E+02</totfact>
</mgrwt>
</event>
<event>
 4    1  0.2533915E-002  0.4609546E+03  0.7818608E-02  0.1024505E+00
         -2   -1    0    0    0  501 -0.00000000000E+00  0.00000000000E+00  0.24085792530E+03  0.24085792530E+03  0.00000000000E+00 0.  1.
          2   -1    0    0  502    0  0.00000000000E+00 -0.00000000000E+00 -0.89605566078E+03  0.89605566078E+03  0.00000000000E+00 0. -1.
    9000007    1    1    2  502    0  0.23648802330E+02  0.22785942177E+03 -0.39834665203E+03  0.60922839488E+03  0.40000000000E+03 0. -1.
   -9000007    1    1    2    0  501 -0.23648802330E+02 -0.22785942177E+03 -0.25685108345E+03  0.52768519120E+03  0.40000000000E+03 0. -1.
<mgrwt>
<rscale>  2 0.46095464E+03</rscale>
<asrwt>0</asrwt>
<pdfrwt beam="1">  1        2 0.13785472E+00 0.46095464E+03</pdfrwt>
<pdfrwt beam="2">  1       -2 0.37055065E-01 0.46095464E+03</pdfrwt>
<totfact> 0.20851100E+02</totfact>
</mgrwt>
</event>
<event>
 4    1  0.2533915E-002  0.5556369E+03  0.7818608E-02  0.1000198E+00
          1   -1    0    0  502    0  0.00000000000E+00  0.00000000000E+00  0.14143685097E+04  0.14143685097E+04  0.00000000000E+00 0.  1.
         -1   -1    0    0    0  501 -0.00000000000E+00 -0.00000000000E+00 -0.21949276341E+03  0.21949276341E+03  0.00000000000E+00 0. -1.
    9000007    1    1    2  502    0 -0.38006043417E+03 -0.65470452324E+02  0.53678354395E+03  0.77257290064E+03  0.40000000000E+03 0.  1.
   -9000007    1    1    2    0  501  0.38006043417E+03  0.65470452324E+02  0.65809220231E+03  0.86128837243E+03  0.40000000000E+03 0. -1.
<mgrwt>
<rscale>  2 0.55563685E+03</rscale>
<asrwt>0</asrwt>
<pdfrwt beam="1">  1        1 0.21759515E+00 0.55563685E+03</pdfrwt>
<pdfrwt beam="2">  1       -1 0.33768118E-01 0.55563685E+03</pdfrwt>
<totfact> 0.65147603E+01</totfact>
</mgrwt>
</event>
<event>
 4    1  0.2533915E-002  0.4765670E+03  0.7818608E-02  0.1020083E+00
          1   -1    0    0  502    0  0.00000000000E+00  0.00000000000E+00  0.18793909767E+04  0.18793909767E+04  0.00000000000E+00 0.  1.
         -1   -1    0    0    0  501 -0.00000000000E+00 -0.00000000000E+00 -0.13283378061E+03  0.13283378061E+03  0.00000000000E+00 0. -1.
    9000007    1    1    2  502    0 -0.22005169194E+03 -0.13672351245E+03  0.57102638920E+03  0.74376555658E+03  0.40000000000E+03 0. -1.
   -9000007    1    1    2    0  501  0.22005169194E+03  0.13672351245E+03  0.11755308069E+04  0.12684592007E+04  0.40000000000E+03 0.  1.
<mgrwt>
<rscale>  2 0.47656696E+03</rscale>
<asrwt>0</asrwt>
<pdfrwt beam="1">  1        1 0.28913705E+00 0.47656696E+03</pdfrwt>
<pdfrwt beam="2">  1       -1 0.20435968E-01 0.47656696E+03</pdfrwt>
<totfact> 0.75739921E+01</totfact>
</mgrwt>
</event>
<event>
 4    1  0.2533915E-002  0.4216703E+03  0.7818608E-02  0.1036524E+00
          2   -1    0    0  502    0  0.00000000000E+00  0.00000000000E+00  0.14888247551E+04  0.14888247551E+04  0.00000000000E+00 0. -1.
         -2   -1    0    0    0  501 -0.00000000000E+00 -0.00000000000E+00 -0.28591674164E+03  0.28591674164E+03  0.00000000000E+00 0.  1.
    9000007    1    1    2  502    0 -0.12548326197E+03 -0.45385138738E+02 -0.75686926171E+02  0.42840911597E+03  0.40000000000E+03 0.  1.
   -9000007    1    1    2    0  501  0.12548326197E+03  0.45385138738E+02  0.12785949396E+04  0.13463323808E+04  0.40000000000E+03 0. -1.
<mgrwt>
<rscale>  2 0.42167032E+03</rscale>
<asrwt>0</asrwt>
<pdfrwt beam="1">  1        2 0.22904996E+00 0.42167032E+03</pdfrwt>
<pdfrwt beam="2">  1       -2 0.43987192E-01 0.42167032E+03</pdfrwt>
<totfact> 0.67242201E+01</totfact>
</mgrwt>
</event>
<event>
 4    1  0.2533915E-002  0.4235327E+03  0.7818608E-02  0.1035923E+00
         -2   -1    0    0    0  501 -0.00000000000E+00  0.00000000000E+00  0.27918774685E+03  0.27918774685E+03  0.00000000000E+00 0. -1.
          2   -1    0    0  502    0  0.00000000000E+00 -0.00000000000E+00 -0.98736518296E+03  0.98736518296E+03  0.00000000000E+00 0.  1.
    9000007    1    1    2  502    0 -0.29121716629E+01 -0.13918144048E+03  0.20172648701E+02  0.42401284164E+03  0.40000000000E+03 0. -1.
   -9000007    1    1    2    0  501  0.29121716629E+01  0.13918144048E+03 -0.72835008482E+03  0.84254008817E+03  0.40000000000E+03 0.  1.
<mgrwt>
<rscale>  2 0.42353271E+03</rscale>
<asrwt>0</asrwt>
<pdfrwt beam="1">  1        2 0.15190233E+00 0.42353271E+03</pdfrwt>
<pdfrwt beam="2">  1       -2 0.42951962E-01 0.42353271E+03</pdfrwt>
<totfact> 0.13735321E+02</totfact>
</mgrwt>
</event>
<event>
 4    1  0.2533915E-002  0.4305750E+03  0.7818608E-02  0.1033678E+00
          2   -1    0    0  502    0  0.00000000000E+00  0.00000000000E+00  0.16321923387E+04  0.16321923387E+04  0.00000000000E+00 0.  1.
         -2   -1    0    0    0  501 -0.00000000000E+00 -0.00000000000E+00 -0.38962558597E+03  0.38962558597E+03  0.00000000000E+00 0. -1.
    9000007    1    1    2  502    0 -0.81820803997E+02 -0.13674861079E+03 -0.22960716081E+03  0.48796954292E+03  0.40000000000E+03 0. -1.
   -9000007    1    1    2    0  501  0.81820803997E+02  0.13674861079E+03  0.14721739136E+04  0.15338483818E+04  0.40000000000E+03 0.  1.
<mgrwt>
<rscale>  2 0.43057500E+03</rscale>
<asrwt>0</asrwt>
<pdfrwt beam="1">  1        2 0.25110651E+00 0.43057500E+03</pdfrwt>
<pdfrwt beam="2">  1       -2 0.59942399E-01 0.43057500E+03</pdfrwt>
<totfact> 0.29949187E+01</totfact>
</mgrwt>
</event>
<event>
 4    1  0.2533915E-002  0.5904349E+03  0.7818608E-02  0.9925452E-01
         -2   -1    0    0    0  501 -0.00000000000E+00  0.00000000000E+00  0.23116757376E+03  0.23116757376E+03  0.00000000000E+00 0. -1.
          2   -1    0    0  502    0  0.00000000000E+00 -0.00000000000E+00 -0.15104548361E+04  0.15104548361E+04  0.00000000000E+00 0.  1.
    9000007    1    1    2  502    0 -0.78312490089E+02  0.42717733871E+03 -0.60493029078E+03  0.84531294887E+03  0.40000000000E+03 0. -1.
   -9000007    1    1    2    0  501  0.78312490089E+02 -0.42717733871E+03 -0.67435697158E+03  0.89630946103E+03  0.40000000000E+03 0. -1.
<mgrwt>
<rscale>  2 0.59043486E+03</rscale>
<asrwt>0</asrwt>
<pdfrwt beam="1">  1        2 0.23237766E+00 0.59043486E+03</pdfrwt>
<pdfrwt beam="2">  1       -2 0.35564244E-01 0.59043486E+03</pdfrwt>
<totfact> 0.96341000E+01</totfact>
</mgrwt>
</event>
<event>
 4    1  0.2533915E-002  0.4005618E+03  0.7818608E-02  0.1043585E+00
          2   -1    0    0  502    0  0.00000000000E+00  0.00000000000E+00  0.18784591581E+04  0.18784591581E+04  0.00000000000E+00 0.  1.
         -2   -1    0    0    0  501 -0.00000000000E+00 -0.00000000000E+00 -0.85776827904E+02  0.85776827904E+02  0.00000000000E+00 0. -1.
    9000007    1    1    2  502    0 -0.12747846618E+02 -0.16947430978E+02  0.96007456680E+03  0.10402850075E+04  0.40000000000E+03 0.  1.
   -9000007    1    1    2    0  501  0.12747846618E+02  0.16947430978E+02  0.83260776337E+03  0.92395097848E+03  0.40000000000E+03 0. -1.
<mgrwt>
<rscale>  2 0.40056176E+03</rscale>
<asrwt>0</asrwt>
<pdfrwt beam="1">  1        2 0.28899369E+00 0.40056176E+03</pdfrwt>
<pdfrwt beam="2">  1       -2 0.13196436E-01 0.40056176E+03</pdfrwt>
<totfact> 0.35813100E+02</totfact>
</mgrwt>
</event>
<event>
 4    1  0.2533915E-002  0.5177793E+03  0.7818608E-02  0.1009240E+00
         -2   -1    0    0    0  501 -0.00000000000E+00  0.00000000000E+00  0.31126889897E+03  0.31126889897E+03  0.00000000000E+00 0.  1.
          2   -1    0    0  502    0  0.00000000000E+00 -0.00000000000E+00 -0.86503122366E+03  0.86503122366E+03  0.00000000000E+00 0. -1.
    9000007    1    1    2  502    0  0.26917881749E+03  0.18878082942E+03 -0.31551651513E+03  0.60633827906E+03  0.40000000000E+03 0. -1.
   -9000007    1    1    2    0  501 -0.26917881749E+03 -0.18878082942E+03 -0.23824580956E+03  0.56996184356E+03  0.40000000000E+03 0. -1.
<mgrwt>
<rscale>  2 0.51777933E+03</rscale>
<asrwt>0</asrwt>
<pdfrwt beam="1">  1        2 0.13308173E+00 0.51777933E+03</pdfrwt>
<pdfrwt beam="2">  1       -2 0.47887522E-01 0.51777933E+03</pdfrwt>
<totfact> 0.13179031E+02</totfact>
</mgrwt>
</event>
<event>
 4    1  0.2533915E-002  0.4605160E+03  0.7818608E-02  0.1024632E+00
         -2   -1    0    0    0  501 -0.00000000000E+00  0.00000000000E+00  0.49277214094E+03  0.49277214094E+03  0.00000000000E+00 0. -1.
          2   -1    0    0  502    0  0.00000000000E+00 -0.00000000000E+00 -0.62728070447E+03  0.62728070447E+03  0.00000000000E+00 0.  1.
    9000007    1    1    2  502    0 -0.17538051299E+03 -0.14600229219E+03 -0.38102381232E+03  0.59770740268E+03  0.40000000000E+03 0.  1.
   -9000007    1    1    2    0  501  0.17538051299E+03  0.14600229219E+03  0.24651524879E+03  0.52234544274E+03  0.40000000000E+03 0. -1.
<mgrwt>
<rscale>  2 0.46051601E+03</rscale>
<asrwt>0</asrwt>
<pdfrwt beam="1">  1        2 0.96504723E-01 0.46051601E+03</pdfrwt>
<pdfrwt beam="2">  1       -2 0.75811099E-01 0.46051601E+03</pdfrwt>
<totfact> 0.75874725E+01</totfact>
</mgrwt>
</event>
<event>
 4    1  0.2533915E-002  0.4018941E+03  0.7818608E-02  0.1043126E+00
         -2   -1    0    0    0  501 -0.00000000000E+00  0.00000000000E+00  0.82344444405E+02  0.82344444405E+02  0.00000000000E+00 0.  1.
          2   -1    0    0  502    0  0.00000000000E+00 -0.00000000000E+00 -0.22559957035E+04  0.22559957035E+04  0.00000000000E+00 0. -1.
    9000007    1    1    2  502    0  0.29688307812E+01  0.38859833758E+02 -0.15092467208E+04  0.15618401214E+04  0.40000000000E+03 0. -1.
   -9000007    1    1    2    0  501 -0.29688307812E+01 -0.38859833758E+02 -0.66440453836E+03  0.77650002655E+03  0.40000000000E+03 0.  1.
<mgrwt>
<rscale>  2 0.40189414E+03</rscale>
<asrwt>0</asrwt>
<pdfrwt beam="1">  1        2 0.34707626E+00 0.40189414E+03</pdfrwt>
<pdfrwt beam="2">  1       -2 0.12668376E-01 0.40189414E+03</pdfrwt>
<totfact> 0.24026185E+02</totfact>
</mgrwt>
</event>
<event>
 4    1  0.2533915E-002  0.4312782E+03  0.7818608E-02  0.1033457E+00
          1   -1    0    0  502    0  0.00000000000E+00  0.00000000000E+00  0.13472647213E+04  0.13472647213E+04  0.00000000000E+00 0.  1.
         -1   -1    0    0    0  501 -0.00000000000E+00 -0.00000000000E+00 -0.24571991123E+03  0.24571991123E+03  0.00000000000E+00 0. -1.
    9000007    1    1    2  502    0 -0.13099808937E+03 -0.94023298271E+02  0.10779927344E+04  0.11610638292E+04  0.40000000000E+03 0.  1.
   -9000007    1    1    2    0  501  0.13099808937E+03  0.94023298271E+02  0.23552075602E+02  0.43192080327E+03  0.40000000000E+03 0. -1.
<mgrwt>
<rscale>  2 0.43127819E+03</rscale>
<asrwt>0</asrwt>
<pdfrwt beam="1">  1        1 0.20727149E+00 0.43127819E+03</pdfrwt>
<pdfrwt beam="2">  1       -1 0.37803064E-01 0.43127819E+03</pdfrwt>
<totfact> 0.60487018E+01</totfact>
</mgrwt>
</event>
<event>
 4    1  0.2533915E-002  0.4042279E+03  0.7818608E-02  0.1042325E+00
          1   -1    0    0  502    0  0.00000000000E+00  0.00000000000E+00  0.18483513135E+04  0.18483513135E+04  0.00000000000E+00 0. -1.
         -1   -1    0    0    0  501 -0.00000000000E+00 -0.00000000000E+00 -0.88623300849E+02  0.88623300849E+02  0.00000000000E+00 0.  1.
    9000007    1    1    2  502    0  0.28311729733E+02 -0.50976736378E+02  0.83159981440E+03  0.92463962332E+03  0.40000000000E+03 0.  1.
   -9000007    1    1    2    0  501 -0.28311729733E+02  0.50976736378E+02  0.92812819829E+03  0.10123349911E+04  0.40000000000E+03 0. -1.
<mgrwt>
<rscale>  2 0.40422788E+03</rscale>
<asrwt>0</asrwt>
<pdfrwt beam="1">  1        1 0.28436171E+00 0.40422788E+03</pdfrwt>
<pdfrwt beam="2">  1       -1 0.13634355E-01 0.40422788E+03</pdfrwt>
<totfact> 0.15503549E+02</totfact>
</mgrwt>
</event>
<event>
 4    1  0.2533915E-002  0.6803428E+03  0.7818608E-02  0.9751452E-01
         -1   -1    0    0    0  501 -0.00000000000E+00  0.00000000000E+00  0.60591103218E+03  0.60591103218E+03  0.00000000000E+00 0.  1.
          1   -1    0    0  502    0  0.00000000000E+00 -0.00000000000E+00 -0.13066613263E+04  0.13066613263E+04  0.00000000000E+00 0. -1.
    9000007    1    1    2  502    0  0.24818101213E+03 -0.49119497801E+03  0.26594110694E+03  0.73047312994E+03  0.40000000000E+03 0.  1.
   -9000007    1    1    2    0  501 -0.24818101213E+03  0.49119497801E+03 -0.96669140102E+03  0.11820992285E+04  0.40000000000E+03 0. -1.
<mgrwt>
<rscale>  2 0.68034280E+03</rscale>
<asrwt>0</asrwt>
<pdfrwt beam="1">  1        1 0.20102482E+00 0.68034280E+03</pdfrwt>
<pdfrwt beam="2">  1       -1 0.93217081E-01 0.68034280E+03</pdfrwt>
<totfact> 0.10463108E+01</totfact>
</mgrwt>
</event>
<event>
 4    1  0.2533915E-002  0.4415803E+03  0.7818608E-02  0.1030263E+00
          1   -1    0    0  502    0  0.00000000000E+00  0.00000000000E+00  0.10686133072E+04  0.10686133072E+04  0.00000000000E+00 0. -1.
         -1   -1    0    0    0  501 -0.00000000000E+00 -0.00000000000E+00 -0.18884056321E+03  0.18884056321E+03  0.00000000000E+00 0.  1.
    9000007    1    1    2  502    0 -0.27208449479E+02 -0.18507525800E+03  0.55533762921E+03  0.70950196142E+03  0.40000000000E+03 0. -1.
   -9000007    1    1    2    0  501  0.27208449479E+02  0.18507525800E+03  0.32443511476E+03  0.54795190896E+03  0.40000000000E+03 0.  1.
<mgrwt>
<rscale>  2 0.44158029E+03</rscale>
<asrwt>0</asrwt>
<pdfrwt beam="1">  1        1 0.16440204E+00 0.44158029E+03</pdfrwt>
<pdfrwt beam="2">  1       -1 0.29052395E-01 0.44158029E+03</pdfrwt>
<totfact> 0.15119540E+02</totfact>
</mgrwt>
</event>
<event>
 4    1  0.2533915E-002  0.5889314E+03  0.7818608E-02  0.9928640E-01
          2   -1    0    0  502    0  0.00000000000E+00  0.00000000000E+00  0.77475020385E+03  0.77475020385E+03  0.00000000000E+00 0.  1.
         -2   -1    0    0    0  501 -0.00000000000E+00 -0.00000000000E+00 -0.53160730388E+03  0.53160730388E+03  0.00000000000E+00 0. -1.
    9000007    1    1    2  502    0 -0.26411824725E+03  0.34217203403E+03 -0.13795898176E+03  0.60487422664E+03  0.40000000000E+03 0. -1.
   -9000007    1    1    2    0  501  0.26411824725E+03 -0.34217203403E+03  0.38110188172E+03  0.70148328109E+03  0.40000000000E+03 0.  1.
<mgrwt>
<rscale>  2 0.58893136E+03</rscale>
<asrwt>0</asrwt>
<pdfrwt beam="1">  1        2 0.11919234E+00 0.58893136E+03</pdfrwt>
<pdfrwt beam="2">  1       -2 0.81785739E-01 0.58893136E+03</pdfrwt>
<totfact> 0.48594403E+01</totfact>
</mgrwt>
</event>
<event>
 4    1  0.2533915E-002  0.4562581E+03  0.7818608E-02  0.1025872E+00
          2   -1    0    0  502    0  0.00000000000E+00  0.00000000000E+00  0.14935197045E+04  0.14935197045E+04  0.00000000000E+00 0. -1.
         -2   -1    0    0    0  501 -0.00000000000E+00 -0.00000000000E+00 -0.14586172854E+03  0.14586172854E+03  0.00000000000E+00 0.  1.
    9000007    1    1    2  502    0  0.51751794602E+02  0.21329128181E+03  0.50107797971E+03  0.67768027925E+03  0.40000000000E+03 0. -1.
   -9000007    1    1    2    0  501 -0.51751794602E+02 -0.21329128181E+03  0.84657999623E+03  0.96170115377E+03  0.40000000000E+03 0. -1.
<mgrwt>
<rscale>  2 0.45625806E+03</rscale>
<asrwt>0</asrwt>
<pdfrwt beam="1">  1        2 0.22977225E+00 0.45625806E+03</pdfrwt>
<pdfrwt beam="2">  1       -2 0.22440267E-01 0.45625806E+03</pdfrwt>
<totfact> 0.23210212E+02</totfact>
</mgrwt>
</event>
<event>
 4    1  0.2533915E-002  0.5101763E+03  0.7818608E-02  0.1011156E+00
          2   -1    0    0  502    0  0.00000000000E+00  0.00000000000E+00  0.17182078495E+04  0.17182078495E+04  0.00000000000E+00 0. -1.
         -2   -1    0    0    0  501 -0.00000000000E+00 -0.00000000000E+00 -0.20505305119E+03  0.20505305119E+03  0.00000000000E+00 0.  1.
    9000007    1    1    2  502    0  0.56246647410E+02 -0.31163463810E+03  0.26506461952E+03  0.57492528691E+03  0.40000000000E+03 0.  1.
   -9000007    1    1    2    0  501 -0.56246647410E+02  0.31163463810E+03  0.12480901788E+04  0.13483356138E+04  0.40000000000E+03 0. -1.
<mgrwt>
<rscale>  2 0.51017628E+03</rscale>
<asrwt>0</asrwt>
<pdfrwt beam="1">  1        2 0.26433966E+00 0.51017628E+03</pdfrwt>
<pdfrwt beam="2">  1       -2 0.31546624E-01 0.51017628E+03</pdfrwt>
<totfact> 0.93986519E+01</totfact>
</mgrwt>
</event>
<event>
 4    1  0.2533915E-002  0.4169018E+03  0.7818608E-02  0.1038079E+00
         -2   -1    0    0    0  501 -0.00000000000E+00  0.00000000000E+00  0.14435136193E+03  0.14435136193E+03  0.00000000000E+00 0. -1.
          2   -1    0    0  502    0  0.00000000000E+00 -0.00000000000E+00 -0.14048739627E+04  0.14048739627E+04  0.00000000000E+00 0.  1.
    9000007    1    1    2  502    0 -0.41443884651E+02 -0.10995229161E+03 -0.33739638370E+03  0.53632398952E+03  0.40000000000E+03 0. -1.
   -9000007    1    1    2    0  501  0.41443884651E+02  0.10995229161E+03 -0.92312621707E+03  0.10129013351E+04  0.40000000000E+03 0.  1.
<mgrwt>
<rscale>  2 0.41690179E+03</rscale>
<asrwt>0</asrwt>
<pdfrwt beam="1">  1        2 0.21613446E+00 0.41690179E+03</pdfrwt>
<pdfrwt beam="2">  1       -2 0.22207902E-01 0.41690179E+03</pdfrwt>
<totfact> 0.26570170E+02</totfact>
</mgrwt>
</event>
<event>
 4    1  0.2533915E-002  0.4335434E+03  0.7818608E-02  0.1032746E+00
          1   -1    0    0  502    0  0.00000000000E+00  0.00000000000E+00  0.18541397191E+04  0.18541397191E+04  0.00000000000E+00 0. -1.
         -1   -1    0    0    0  501 -0.00000000000E+00 -0.00000000000E+00 -0.10442135740E+03  0.10442135740E+03  0.00000000000E+00 0.  1.
    9000007    1    1    2  502    0 -0.11300923085E+03  0.12324296932E+03  0.70754323610E+03  0.82980560778E+03  0.40000000000E+03 0.  1.
   -9000007    1    1    2    0  501  0.11300923085E+03 -0.12324296932E+03  0.10421751256E+04  0.11287554688E+04  0.40000000000E+03 0. -1.
<mgrwt>
<rscale>  2 0.43354344E+03</rscale>
<asrwt>0</asrwt>
<pdfrwt beam="1">  1        1 0.28525224E+00 0.43354344E+03</pdfrwt>
<pdfrwt beam="2">  1       -1 0.16064826E-01 0.43354344E+03</pdfrwt>
<totfact> 0.11751427E+02</totfact>
</mgrwt>
</event>
<event>
 4    1  0.2533915E-002  0.7943928E+03  0.7818608E-02  0.9568169E-01
          2   -1    0    0  502    0  0.00000000000E+00  0.00000000000E+00  0.12144924041E+04  0.12144924041E+04  0.00000000000E+00 0.  1.
         -2   -1    0    0    0  501 -0.00000000000E+00 -0.00000000000E+00 -0.62301050996E+03  0.62301050996E+03  0.00000000000E+00 0. -1.
    9000007    1    1    2  502    0  0.61841886508E+03 -0.29768770113E+03 -0.78555826231E+02  0.79826742256E+03  0.40000000000E+03 0. -1.
   -9000007    1    1    2    0  501 -0.61841886508E+03  0.29768770113E+03  0.67003772042E+03  0.10392354915E+04  0.40000000000E+03 0.  1.
<mgrwt>
<rscale>  2 0.79439276E+03</rscale>
<asrwt>0</asrwt>
<pdfrwt beam="1">  1        2 0.18684499E+00 0.79439276E+03</pdfrwt>
<pdfrwt beam="2">  1       -2 0.95847771E-01 0.79439276E+03</pdfrwt>
<totfact> 0.17192545E+01</totfact>
</mgrwt>
</event>
<event>
 4    1  0.2533915E-002  0.4553542E+03  0.7818608E-02  0.1026137E+00
         -1   -1    0    0    0  501 -0.00000000000E+00  0.00000000000E+00  0.38332877622E+03  0.38332877622E+03  0.00000000000E+00 0.  1.
          1   -1    0    0  502    0  0.00000000000E+00 -0.00000000000E+00 -0.55938840283E+03  0.55938840283E+03  0.00000000000E+00 0. -1.
    9000007    1    1    2  502    0 -0.94197953659E+02  0.19614844308E+03 -0.17369280804E+03  0.48735680744E+03  0.40000000000E+03 0. -1.
   -9000007    1    1    2    0  501  0.94197953659E+02 -0.19614844308E+03 -0.23668185597E+01  0.45536037160E+03  0.40000000000E+03 0.  1.
<mgrwt>
<rscale>  2 0.45535422E+03</rscale>
<asrwt>0</asrwt>
<pdfrwt beam="1">  1        1 0.86059754E-01 0.45535422E+03</pdfrwt>
<pdfrwt beam="2">  1       -1 0.58973658E-01 0.45535422E+03</pdfrwt>
<totfact> 0.11503828E+02</totfact>
</mgrwt>
</event>
<event>
 4    1  0.2533915E-002  0.5153864E+03  0.7818608E-02  0.1009839E+00
          2   -1    0    0  502    0  0.00000000000E+00  0.00000000000E+00  0.28951501217E+04  0.28951501217E+04  0.00000000000E+00 0. -1.
         -2   -1    0    0    0  501 -0.00000000000E+00 -0.00000000000E+00 -0.13024932446E+03  0.13024932446E+03  0.00000000000E+00 0.  1.
    9000007    1    1    2  502    0  0.20126326077E+03  0.25517882016E+03  0.56000898446E+03  0.76107371067E+03  0.40000000000E+03 0.  1.
   -9000007    1    1    2    0  501 -0.20126326077E+03 -0.25517882016E+03  0.22048918128E+04  0.22643257355E+04  0.40000000000E+03 0. -1.
<mgrwt>
<rscale>  2 0.51538639E+03</rscale>
<asrwt>0</asrwt>
<pdfrwt beam="1">  1        2 0.44540766E+00 0.51538639E+03</pdfrwt>
<pdfrwt beam="2">  1       -2 0.20038360E-01 0.51538639E+03</pdfrwt>
<totfact> 0.47172563E+01</totfact>
</mgrwt>
</event>
<event>
 4    1  0.2533915E-002  0.5578603E+03  0.7818608E-02  0.9996908E-01
         -2   -1    0    0    0  501 -0.00000000000E+00  0.00000000000E+00  0.12862603045E+03  0.12862603045E+03  0.00000000000E+00 0. -1.
          2   -1    0    0  502    0  0.00000000000E+00 -0.00000000000E+00 -0.24209584121E+04  0.24209584121E+04  0.00000000000E+00 0.  1.
    9000007    1    1    2  502    0  0.18973887409E+03  0.33942192549E+03 -0.11146617886E+04  0.12464666007E+04  0.40000000000E+03 0.  1.
   -9000007    1    1    2    0  501 -0.18973887409E+03 -0.33942192549E+03 -0.11776705931E+04  0.13031178418E+04  0.40000000000E+03 0. -1.
<mgrwt>
<rscale>  2 0.55786027E+03</rscale>
<asrwt>0</asrwt>
<pdfrwt beam="1">  1        2 0.37245514E+00 0.55786027E+03</pdfrwt>
<pdfrwt beam="2">  1       -2 0.19788620E-01 0.55786027E+03</pdfrwt>
<totfact> 0.89476354E+01</totfact>
</mgrwt>
</event>
<event>
 4    1  0.2533915E-002  0.4736834E+03  0.7818608E-02  0.1020886E+00
         -2   -1    0    0    0  501 -0.00000000000E+00  0.00000000000E+00  0.16753401029E+03  0.16753401029E+03  0.00000000000E+00 0. -1.
          2   -1    0    0  502    0  0.00000000000E+00 -0.00000000000E+00 -0.14451001804E+04  0.14451001804E+04  0.00000000000E+00 0.  1.
    9000007    1    1    2  502    0  0.16929721861E+03 -0.18898260534E+03 -0.42059622338E+03  0.63346440822E+03  0.40000000000E+03 0. -1.
   -9000007    1    1    2    0  501 -0.16929721861E+03  0.18898260534E+03 -0.85696994677E+03  0.97916978253E+03  0.40000000000E+03 0.  1.
<mgrwt>
<rscale>  2 0.47368341E+03</rscale>
<asrwt>0</asrwt>
<pdfrwt beam="1">  1        2 0.22232310E+00 0.47368341E+03</pdfrwt>
<pdfrwt beam="2">  1       -2 0.25774464E-01 0.47368341E+03</pdfrwt>
<totfact> 0.19246528E+02</totfact>
</mgrwt>
</event>
<event>
 4    1  0.2533915E-002  0.6238452E+03  0.7818608E-02  0.9857134E-01
         -2   -1    0    0    0  501 -0.00000000000E+00  0.00000000000E+00  0.13388851550E+04  0.13388851550E+04  0.00000000000E+00 0.  1.
          2   -1    0    0  502    0  0.00000000000E+00 -0.00000000000E+00 -0.30300123963E+03  0.30300123963E+03  0.00000000000E+00 0. -1.
    9000007    1    1    2  502    0  0.28091817813E+03  0.38764385961E+03  0.35237434454E+03  0.71648479634E+03  0.40000000000E+03 0.  1.
   -9000007    1    1    2    0  501 -0.28091817813E+03 -0.38764385961E+03  0.68350957080E+03  0.92540159827E+03  0.40000000000E+03 0.  1.
<mgrwt>
<rscale>  2 0.62384516E+03</rscale>
<asrwt>0</asrwt>
<pdfrwt beam="1">  1        2 0.46615576E-01 0.62384516E+03</pdfrwt>
<pdfrwt beam="2">  1       -2 0.20598233E+00 0.62384516E+03</pdfrwt>
<totfact> 0.13617430E+01</totfact>
</mgrwt>
</event>
<event>
 4    1  0.2533915E-002  0.4346603E+03  0.7818608E-02  0.1032398E+00
          2   -1    0    0  502    0  0.00000000000E+00  0.00000000000E+00  0.18504180459E+04  0.18504180459E+04  0.00000000000E+00 0.  1.
         -2   -1    0    0    0  501 -0.00000000000E+00 -0.00000000000E+00 -0.21090985010E+03  0.21090985010E+03  0.00000000000E+00 0. -1.
    9000007    1    1    2  502    0 -0.16207217871E+03  0.51596404576E+02  0.79466092218E+02  0.44186473031E+03  0.40000000000E+03 0. -1.
   -9000007    1    1    2    0  501  0.16207217871E+03 -0.51596404576E+02  0.15600421035E+04  0.16194631656E+04  0.40000000000E+03 0.  1.
<mgrwt>
<rscale>  2 0.43466030E+03</rscale>
<asrwt>0</asrwt>
<pdfrwt beam="1">  1        2 0.28467969E+00 0.43466030E+03</pdfrwt>
<pdfrwt beam="2">  1       -2 0.32447670E-01 0.43466030E+03</pdfrwt>
<totfact> 0.76687693E+01</totfact>
</mgrwt>
</event>
<event>
 4    1  0.2533915E-002  0.4100428E+03  0.7818608E-02  0.1040357E+00
          2   -1    0    0  502    0  0.00000000000E+00  0.00000000000E+00  0.11866839221E+04  0.11866839221E+04  0.00000000000E+00 0.  1.
         -2   -1    0    0    0  501 -0.00000000000E+00 -0.00000000000E+00 -0.15093384349E+03  0.15093384349E+03  0.00000000000E+00 0. -1.
    9000007    1    1    2  502    0 -0.13601776419E+01  0.90184496818E+02  0.68343554497E+03  0.79700642260E+03  0.40000000000E+03 0.  1.
   -9000007    1    1    2    0  501  0.13601776419E+01 -0.90184496818E+02  0.35231453362E+03  0.54061134297E+03  0.40000000000E+03 0. -1.
<mgrwt>
<rscale>  2 0.41004279E+03</rscale>
<asrwt>0</asrwt>
<pdfrwt beam="1">  1        2 0.18256675E+00 0.41004279E+03</pdfrwt>
<pdfrwt beam="2">  1       -2 0.23220592E-01 0.41004279E+03</pdfrwt>
<totfact> 0.32662920E+02</totfact>
</mgrwt>
</event>
<event>
 4    1  0.2533915E-002  0.4760652E+03  0.7818608E-02  0.1020222E+00
         -2   -1    0    0    0  501 -0.00000000000E+00  0.00000000000E+00  0.44689086485E+03  0.44689086485E+03  0.00000000000E+00 0.  1.
          2   -1    0    0  502    0  0.00000000000E+00 -0.00000000000E+00 -0.53892938399E+03  0.53892938399E+03  0.00000000000E+00 0. -1.
    9000007    1    1    2  502    0  0.66745551759E+02  0.24936549798E+03 -0.16572473537E+03  0.50408611187E+03  0.40000000000E+03 0.  1.
   -9000007    1    1    2    0  501 -0.66745551759E+02 -0.24936549798E+03  0.73686216234E+02  0.48173413697E+03  0.40000000000E+03 0.  1.
<mgrwt>
<rscale>  2 0.47606525E+03</rscale>
<asrwt>0</asrwt>
<pdfrwt beam="1">  1        2 0.82912212E-01 0.47606525E+03</pdfrwt>
<pdfrwt beam="2">  1       -2 0.68752441E-01 0.47606525E+03</pdfrwt>
<totfact> 0.11220504E+02</totfact>
</mgrwt>
</event>
<event>
 4    1  0.2533915E-002  0.4498814E+03  0.7818608E-02  0.1027757E+00
          2   -1    0    0  502    0  0.00000000000E+00  0.00000000000E+00  0.14258780858E+04  0.14258780858E+04  0.00000000000E+00 0. -1.
         -2   -1    0    0    0  501 -0.00000000000E+00 -0.00000000000E+00 -0.14198349493E+03  0.14198349493E+03  0.00000000000E+00 0.  1.
    9000007    1    1    2  502    0  0.30070477419E+02  0.20368861422E+03  0.62869351375E+03  0.77307749897E+03  0.40000000000E+03 0. -1.
   -9000007    1    1    2    0  501 -0.30070477419E+02 -0.20368861422E+03  0.65520107711E+03  0.79478408176E+03  0.40000000000E+03 0. -1.
<mgrwt>
<rscale>  2 0.44988141E+03</rscale>
<asrwt>0</asrwt>
<pdfrwt beam="1">  1        2 0.21936585E+00 0.44988141E+03</pdfrwt>
<pdfrwt beam="2">  1       -2 0.21843616E-01 0.44988141E+03</pdfrwt>
<totfact> 0.26532621E+02</totfact>
</mgrwt>
</event>
