<event>
 4    1  0.4758602E-002  0.5688550E+03  0.7818608E-02  0.9972215E-01
         21   -1    0    0  503  502  0.00000000000E+00  0.00000000000E+00  0.37413936012E+03  0.37413936012E+03  0.00000000000E+00 0. -1.
         21   -1    0    0  501  503 -0.00000000000E+00 -0.00000000000E+00 -0.10202186514E+04  0.10202186514E+04  0.00000000000E+00 0.  1.
    9000007    1    1    2  501    0  0.12921540789E+03  0.38327459414E+03 -0.59505826146E+03  0.82321951549E+03  0.40000000000E+03 0.  1.
   -9000007    1    1    2    0  502 -0.12921540789E+03 -0.38327459414E+03 -0.51021029811E+02  0.57113849602E+03  0.40000000000E+03 0. -1.
<mgrwt>
<rscale>  2 0.56885502E+03</rscale>
<asrwt>0</asrwt>
<pdfrwt beam="1">  1       21 0.57559902E-01 0.56885502E+03</pdfrwt>
<pdfrwt beam="2">  1       21 0.15695671E+00 0.56885502E+03</pdfrwt>
<totfact> 0.59801904E+02</totfact>
</mgrwt>
</event>
<event>
 4    1  0.4758602E-002  0.4133354E+03  0.7818608E-02  0.1039257E+00
         21   -1    0    0  503  502  0.00000000000E+00  0.00000000000E+00  0.20316371970E+03  0.20316371970E+03  0.00000000000E+00 0.  1.
         21   -1    0    0  501  503 -0.00000000000E+00 -0.00000000000E+00 -0.16256785965E+04  0.16256785965E+04  0.00000000000E+00 0.  1.
    9000007    1    1    2  501    0  0.10252230562E+03  0.18311715843E+02 -0.13465805269E+04  0.14085898117E+04  0.40000000000E+03 0.  1.
   -9000007    1    1    2    0  502 -0.10252230562E+03 -0.18311715843E+02 -0.75934349917E+02  0.42025250455E+03  0.40000000000E+03 0.  1.
<mgrwt>
<rscale>  2 0.41333539E+03</rscale>
<asrwt>0</asrwt>
<pdfrwt beam="1">  1       21 0.31255957E-01 0.41333539E+03</pdfrwt>
<pdfrwt beam="2">  1       21 0.25010440E+00 0.41333539E+03</pdfrwt>
<totfact> 0.54072518E+02</totfact>
</mgrwt>
</event>
<event>
 4    1  0.4758602E-002  0.4557157E+03  0.7818608E-02  0.1026031E+00
         21   -1    0    0  503  502  0.00000000000E+00  0.00000000000E+00  0.35649583239E+03  0.35649583239E+03  0.00000000000E+00 0. -1.
         21   -1    0    0  501  503 -0.00000000000E+00 -0.00000000000E+00 -0.61884118457E+03  0.61884118457E+03  0.00000000000E+00 0. -1.
    9000007    1    1    2  501    0  0.28369393733E+02  0.21649929543E+03 -0.13077091373E+02  0.45590325480E+03  0.40000000000E+03 0. -1.
   -9000007    1    1    2    0  502 -0.28369393733E+02 -0.21649929543E+03 -0.24926826081E+03  0.51943376216E+03  0.40000000000E+03 0. -1.
<mgrwt>
<rscale>  2 0.45571567E+03</rscale>
<asrwt>0</asrwt>
<pdfrwt beam="1">  1       21 0.54845513E-01 0.45571567E+03</pdfrwt>
<pdfrwt beam="2">  1       21 0.95206335E-01 0.45571567E+03</pdfrwt>
<totfact> 0.25014337E+03</totfact>
</mgrwt>
</event>
<event>
 4    1  0.4758602E-002  0.4261534E+03  0.7818608E-02  0.1035082E+00
         21   -1    0    0  501  502  0.00000000000E+00  0.00000000000E+00  0.33183551421E+03  0.33183551421E+03  0.00000000000E+00 0.  1.
         21   -1    0    0  502  503 -0.00000000000E+00 -0.00000000000E+00 -0.85628181624E+03  0.85628181624E+03  0.00000000000E+00 0.  1.
    9000007    1    1    2  501    0 -0.10312068645E+03 -0.10475127661E+03  0.94640230620E+02  0.43653577079E+03  0.40000000000E+03 0.  1.
   -9000007    1    1    2    0  503  0.10312068645E+03  0.10475127661E+03 -0.61908653264E+03  0.75158155966E+03  0.40000000000E+03 0.  1.
<mgrwt>
<rscale>  2 0.42615338E+03</rscale>
<asrwt>0</asrwt>
<pdfrwt beam="1">  1       21 0.51051619E-01 0.42615338E+03</pdfrwt>
<pdfrwt beam="2">  1       21 0.13173566E+00 0.42615338E+03</pdfrwt>
<totfact> 0.13120592E+03</totfact>
</mgrwt>
</event>
<event>
 4    1  0.4758602E-002  0.4647423E+03  0.7818608E-02  0.1023415E+00
         21   -1    0    0  501  502  0.00000000000E+00  0.00000000000E+00  0.38770926897E+03  0.38770926897E+03  0.00000000000E+00 0.  1.
         21   -1    0    0  502  503 -0.00000000000E+00 -0.00000000000E+00 -0.55710677109E+03  0.55710677109E+03  0.00000000000E+00 0.  1.
    9000007    1    1    2  501    0  0.19463697548E+03 -0.13454297386E+03 -0.81469169066E+02  0.47182898337E+03  0.40000000000E+03 0.  1.
   -9000007    1    1    2    0  503 -0.19463697548E+03  0.13454297386E+03 -0.87928333058E+02  0.47298705669E+03  0.40000000000E+03 0.  1.
<mgrwt>
<rscale>  2 0.46474226E+03</rscale>
<asrwt>0</asrwt>
<pdfrwt beam="1">  1       21 0.59647580E-01 0.46474226E+03</pdfrwt>
<pdfrwt beam="2">  1       21 0.85708734E-01 0.46474226E+03</pdfrwt>
<totfact> 0.26655431E+03</totfact>
</mgrwt>
</event>
<event>
 4    1  0.4758602E-002  0.4642731E+03  0.7818608E-02  0.1023549E+00
         21   -1    0    0  503  502  0.00000000000E+00  0.00000000000E+00  0.18616476398E+03  0.18616476398E+03  0.00000000000E+00 0. -1.
         21   -1    0    0  501  503 -0.00000000000E+00 -0.00000000000E+00 -0.19186603411E+04  0.19186603411E+04  0.00000000000E+00 0.  1.
    9000007    1    1    2  501    0  0.23263134280E+03 -0.37844139359E+02 -0.15289634675E+04  0.15978982463E+04  0.40000000000E+03 0. -1.
   -9000007    1    1    2    0  502 -0.23263134280E+03  0.37844139359E+02 -0.20353210964E+03  0.50692685882E+03  0.40000000000E+03 0.  1.
<mgrwt>
<rscale>  2 0.46427311E+03</rscale>
<asrwt>0</asrwt>
<pdfrwt beam="1">  1       21 0.28640734E-01 0.46427311E+03</pdfrwt>
<pdfrwt beam="2">  1       21 0.29517850E+00 0.46427311E+03</pdfrwt>
<totfact> 0.33351255E+02</totfact>
</mgrwt>
</event>
<event>
 4    1  0.4758602E-002  0.4361168E+03  0.7818608E-02  0.1031945E+00
         21   -1    0    0  503  502  0.00000000000E+00  0.00000000000E+00  0.11105957616E+04  0.11105957616E+04  0.00000000000E+00 0. -1.
         21   -1    0    0  501  503 -0.00000000000E+00 -0.00000000000E+00 -0.18599895239E+03  0.18599895239E+03  0.00000000000E+00 0. -1.
    9000007    1    1    2  501    0  0.89249795343E+02 -0.14910499358E+03  0.27978720576E+03  0.51814930820E+03  0.40000000000E+03 0.  1.
   -9000007    1    1    2    0  502 -0.89249795343E+02  0.14910499358E+03  0.64480960344E+03  0.77844540577E+03  0.40000000000E+03 0.  1.
<mgrwt>
<rscale>  2 0.43611676E+03</rscale>
<asrwt>0</asrwt>
<pdfrwt beam="1">  1       21 0.17086088E+00 0.43611676E+03</pdfrwt>
<pdfrwt beam="2">  1       21 0.28615224E-01 0.43611676E+03</pdfrwt>
<totfact> 0.21086324E+03</totfact>
</mgrwt>
</event>
<event>
 4    1  0.4758602E-002  0.4804918E+03  0.7818608E-02  0.1019000E+00
         21   -1    0    0  501  502  0.00000000000E+00  0.00000000000E+00  0.59457156094E+03  0.59457156094E+03  0.00000000000E+00 0.  1.
         21   -1    0    0  502  503 -0.00000000000E+00 -0.00000000000E+00 -0.38831114381E+03  0.38831114381E+03  0.00000000000E+00 0. -1.
    9000007    1    1    2  501    0  0.15810207404E+03 -0.21418698879E+03  0.10053652799E+03  0.49089706196E+03  0.40000000000E+03 0. -1.
   -9000007    1    1    2    0  503 -0.15810207404E+03  0.21418698879E+03  0.10572388915E+03  0.49198564280E+03  0.40000000000E+03 0.  1.
<mgrwt>
<rscale>  2 0.48049176E+03</rscale>
<asrwt>0</asrwt>
<pdfrwt beam="1">  1       21 0.91472549E-01 0.48049176E+03</pdfrwt>
<pdfrwt beam="2">  1       21 0.59740175E-01 0.48049176E+03</pdfrwt>
<totfact> 0.22652909E+03</totfact>
</mgrwt>
</event>
<event>
 4    1  0.4758602E-002  0.4045953E+03  0.7818608E-02  0.1042200E+00
         21   -1    0    0  503  502  0.00000000000E+00  0.00000000000E+00  0.46090603565E+03  0.46090603565E+03  0.00000000000E+00 0.  1.
         21   -1    0    0  501  503 -0.00000000000E+00 -0.00000000000E+00 -0.35520307003E+03  0.35520307003E+03  0.00000000000E+00 0.  1.
    9000007    1    1    2  501    0 -0.16550929127E+02 -0.58509693399E+02  0.57120809596E+02  0.40860751873E+03  0.40000000000E+03 0. -1.
   -9000007    1    1    2    0  502  0.16550929127E+02  0.58509693399E+02  0.48582156030E+02  0.40750158694E+03  0.40000000000E+03 0. -1.
<mgrwt>
<rscale>  2 0.40459525E+03</rscale>
<asrwt>0</asrwt>
<pdfrwt beam="1">  1       21 0.70908620E-01 0.40459525E+03</pdfrwt>
<pdfrwt beam="2">  1       21 0.54646626E-01 0.40459525E+03</pdfrwt>
<totfact> 0.50906900E+03</totfact>
</mgrwt>
</event>
<event>
 4    1  0.4758602E-002  0.5112044E+03  0.7818608E-02  0.1010895E+00
         21   -1    0    0  503  502  0.00000000000E+00  0.00000000000E+00  0.23224794272E+03  0.23224794272E+03  0.00000000000E+00 0.  1.
         21   -1    0    0  501  503 -0.00000000000E+00 -0.00000000000E+00 -0.12159374903E+04  0.12159374903E+04  0.00000000000E+00 0.  1.
    9000007    1    1    2  501    0  0.28092033232E+03 -0.14971191711E+03 -0.68962619774E+03  0.85843705875E+03  0.40000000000E+03 0.  1.
   -9000007    1    1    2    0  502 -0.28092033232E+03  0.14971191711E+03 -0.29406334984E+03  0.58974837427E+03  0.40000000000E+03 0.  1.
<mgrwt>
<rscale>  2 0.51120435E+03</rscale>
<asrwt>0</asrwt>
<pdfrwt beam="1">  1       21 0.35730453E-01 0.51120435E+03</pdfrwt>
<pdfrwt beam="2">  1       21 0.18706731E+00 0.51120435E+03</pdfrwt>
<totfact> 0.10060188E+03</totfact>
</mgrwt>
</event>
<event>
 4    1  0.4758602E-002  0.5226923E+03  0.7818608E-02  0.1008020E+00
         21   -1    0    0  503  502  0.00000000000E+00  0.00000000000E+00  0.19193662547E+03  0.19193662547E+03  0.00000000000E+00 0.  1.
         21   -1    0    0  501  503 -0.00000000000E+00 -0.00000000000E+00 -0.14683941675E+04  0.14683941675E+04  0.00000000000E+00 0. -1.
    9000007    1    1    2  501    0 -0.31421981140E+03 -0.12030424004E+03 -0.78350867103E+03  0.94185616610E+03  0.40000000000E+03 0.  1.
   -9000007    1    1    2    0  502  0.31421981140E+03  0.12030424004E+03 -0.49294887102E+03  0.71847462689E+03  0.40000000000E+03 0.  1.
<mgrwt>
<rscale>  2 0.52269226E+03</rscale>
<asrwt>0</asrwt>
<pdfrwt beam="1">  1       21 0.29528712E-01 0.52269226E+03</pdfrwt>
<pdfrwt beam="2">  1       21 0.22590679E+00 0.52269226E+03</pdfrwt>
<totfact> 0.81266589E+02</totfact>
</mgrwt>
</event>
<event>
 4    1  0.4758602E-002  0.4384593E+03  0.7818608E-02  0.1031221E+00
         21   -1    0    0  501  502  0.00000000000E+00  0.00000000000E+00  0.46266235997E+03  0.46266235997E+03  0.00000000000E+00 0. -1.
         21   -1    0    0  502  503 -0.00000000000E+00 -0.00000000000E+00 -0.52125174986E+03  0.52125174986E+03  0.00000000000E+00 0. -1.
    9000007    1    1    2  501    0 -0.79576957645E+02  0.16097850958E+03 -0.25085972564E+03  0.50515064553E+03  0.40000000000E+03 0. -1.
   -9000007    1    1    2    0  503  0.79576957645E+02 -0.16097850958E+03  0.19227033575E+03  0.47876346430E+03  0.40000000000E+03 0. -1.
<mgrwt>
<rscale>  2 0.43845932E+03</rscale>
<asrwt>0</asrwt>
<pdfrwt beam="1">  1       21 0.71178825E-01 0.43845932E+03</pdfrwt>
<pdfrwt beam="2">  1       21 0.80192576E-01 0.43845932E+03</pdfrwt>
<totfact> 0.21208800E+03</totfact>
</mgrwt>
</event>
<event>
 4    1  0.4758602E-002  0.4830520E+03  0.7818608E-02  0.1018300E+00
         21   -1    0    0  503  502  0.00000000000E+00  0.00000000000E+00  0.23849289855E+04  0.23849289855E+04  0.00000000000E+00 0.  1.
         21   -1    0    0  501  503 -0.00000000000E+00 -0.00000000000E+00 -0.21832559363E+03  0.21832559363E+03  0.00000000000E+00 0. -1.
    9000007    1    1    2  501    0 -0.21045726539E+03  0.17043183625E+03  0.11635278367E+03  0.49686742862E+03  0.40000000000E+03 0. -1.
   -9000007    1    1    2    0  502  0.21045726539E+03 -0.17043183625E+03  0.20502506082E+04  0.21063871505E+04  0.40000000000E+03 0.  1.
<mgrwt>
<rscale>  2 0.48305204E+03</rscale>
<asrwt>0</asrwt>
<pdfrwt beam="1">  1       21 0.36691213E+00 0.48305204E+03</pdfrwt>
<pdfrwt beam="2">  1       21 0.33588554E-01 0.48305204E+03</pdfrwt>
<totfact> 0.87628666E+01</totfact>
</mgrwt>
</event>
<event>
 4    1  0.4758602E-002  0.4042716E+03  0.7818608E-02  0.1042311E+00
         21   -1    0    0  503  502  0.00000000000E+00  0.00000000000E+00  0.86175474206E+02  0.86175474206E+02  0.00000000000E+00 0. -1.
         21   -1    0    0  501  503 -0.00000000000E+00 -0.00000000000E+00 -0.19560758034E+04  0.19560758034E+04  0.00000000000E+00 0. -1.
    9000007    1    1    2  501    0  0.34196055353E+02  0.47604108923E+02 -0.75680941340E+03  0.85801865341E+03  0.40000000000E+03 0. -1.
   -9000007    1    1    2    0  502 -0.34196055353E+02 -0.47604108923E+02 -0.11130909158E+04  0.11842326242E+04  0.40000000000E+03 0. -1.
<mgrwt>
<rscale>  2 0.40427159E+03</rscale>
<asrwt>0</asrwt>
<pdfrwt beam="1">  1       21 0.13257765E-01 0.40427159E+03</pdfrwt>
<pdfrwt beam="2">  1       21 0.30093475E+00 0.40427159E+03</pdfrwt>
<totfact> 0.13770704E+03</totfact>
</mgrwt>
</event>
<event>
 4    1  0.4758602E-002  0.4368857E+03  0.7818608E-02  0.1031707E+00
         21   -1    0    0  503  502  0.00000000000E+00  0.00000000000E+00  0.62141125767E+03  0.62141125767E+03  0.00000000000E+00 0.  1.
         21   -1    0    0  501  503 -0.00000000000E+00 -0.00000000000E+00 -0.32847212233E+03  0.32847212233E+03  0.00000000000E+00 0.  1.
    9000007    1    1    2  501    0  0.13102081243E+03  0.11705843774E+03  0.25475912380E+02  0.43762787074E+03  0.40000000000E+03 0.  1.
   -9000007    1    1    2    0  502 -0.13102081243E+03 -0.11705843774E+03  0.26746322296E+03  0.51225550926E+03  0.40000000000E+03 0.  1.
<mgrwt>
<rscale>  2 0.43688572E+03</rscale>
<asrwt>0</asrwt>
<pdfrwt beam="1">  1       21 0.95601732E-01 0.43688572E+03</pdfrwt>
<pdfrwt beam="2">  1       21 0.50534173E-01 0.43688572E+03</pdfrwt>
<totfact> 0.29721510E+03</totfact>
</mgrwt>
</event>
<event>
 4    1  0.4758602E-002  0.6186222E+03  0.7818608E-02  0.9867507E-01
         21   -1    0    0  501  502  0.00000000000E+00  0.00000000000E+00  0.24630764673E+03  0.24630764673E+03  0.00000000000E+00 0. -1.
         21   -1    0    0  502  503 -0.00000000000E+00 -0.00000000000E+00 -0.17195747750E+04  0.17195747750E+04  0.00000000000E+00 0. -1.
    9000007    1    1    2  501    0  0.45149279264E+03 -0.13728671773E+03 -0.10419003662E+04  0.12117135626E+04  0.40000000000E+03 0. -1.
   -9000007    1    1    2    0  503 -0.45149279264E+03  0.13728671773E+03 -0.43136676207E+03  0.75416885913E+03  0.40000000000E+03 0. -1.
<mgrwt>
<rscale>  2 0.61862217E+03</rscale>
<asrwt>0</asrwt>
<pdfrwt beam="1">  1       21 0.37893484E-01 0.61862217E+03</pdfrwt>
<pdfrwt beam="2">  1       21 0.26454996E+00 0.61862217E+03</pdfrwt>
<totfact> 0.27063438E+02</totfact>
</mgrwt>
</event>
<event>
 4    1  0.4758602E-002  0.6523104E+03  0.7818608E-02  0.9802454E-01
         21   -1    0    0  501  502  0.00000000000E+00  0.00000000000E+00  0.18676832296E+03  0.18676832296E+03  0.00000000000E+00 0.  1.
         21   -1    0    0  502  503 -0.00000000000E+00 -0.00000000000E+00 -0.22808875943E+04  0.22808875943E+04  0.00000000000E+00 0. -1.
    9000007    1    1    2  501    0  0.32157266945E+03 -0.40261623211E+03 -0.10052679925E+04  0.11983624447E+04  0.40000000000E+03 0. -1.
   -9000007    1    1    2    0  503 -0.32157266945E+03  0.40261623211E+03 -0.10888512789E+04  0.12692934726E+04  0.40000000000E+03 0. -1.
<mgrwt>
<rscale>  2 0.65231036E+03</rscale>
<asrwt>0</asrwt>
<pdfrwt beam="1">  1       21 0.28733588E-01 0.65231036E+03</pdfrwt>
<pdfrwt beam="2">  1       21 0.35090578E+00 0.65231036E+03</pdfrwt>
<totfact> 0.13790034E+02</totfact>
</mgrwt>
</event>
<event>
 4    1  0.4758602E-002  0.4938827E+03  0.7818608E-02  0.1015388E+00
         21   -1    0    0  501  502  0.00000000000E+00  0.00000000000E+00  0.10852128963E+04  0.10852128963E+04  0.00000000000E+00 0.  1.
         21   -1    0    0  502  503 -0.00000000000E+00 -0.00000000000E+00 -0.42297816310E+03  0.42297816310E+03  0.00000000000E+00 0.  1.
    9000007    1    1    2  501    0 -0.93158991561E+02  0.27430185989E+03  0.84733327745E+03  0.98076184220E+03  0.40000000000E+03 0.  1.
   -9000007    1    1    2    0  503  0.93158991561E+02 -0.27430185989E+03 -0.18509854426E+03  0.52742921718E+03  0.40000000000E+03 0.  1.
<mgrwt>
<rscale>  2 0.49388269E+03</rscale>
<asrwt>0</asrwt>
<pdfrwt beam="1">  1       21 0.16695583E+00 0.49388269E+03</pdfrwt>
<pdfrwt beam="2">  1       21 0.65073564E-01 0.49388269E+03</pdfrwt>
<totfact> 0.39478264E+02</totfact>
</mgrwt>
</event>
<event>
 4    1  0.4758602E-002  0.5171168E+03  0.7818608E-02  0.1009405E+00
         21   -1    0    0  501  502  0.00000000000E+00  0.00000000000E+00  0.79946681466E+03  0.79946681466E+03  0.00000000000E+00 0. -1.
         21   -1    0    0  502  503 -0.00000000000E+00 -0.00000000000E+00 -0.47584530670E+03  0.47584530670E+03  0.00000000000E+00 0. -1.
    9000007    1    1    2  501    0  0.61953211002E+02  0.32182533218E+03  0.50936065440E+03  0.72584986123E+03  0.40000000000E+03 0. -1.
   -9000007    1    1    2    0  503 -0.61953211002E+02 -0.32182533218E+03 -0.18573914644E+03  0.54946226013E+03  0.40000000000E+03 0. -1.
<mgrwt>
<rscale>  2 0.51711676E+03</rscale>
<asrwt>0</asrwt>
<pdfrwt beam="1">  1       21 0.12299489E+00 0.51711676E+03</pdfrwt>
<pdfrwt beam="2">  1       21 0.73206970E-01 0.51711676E+03</pdfrwt>
<totfact> 0.68304140E+02</totfact>
</mgrwt>
</event>
<event>
 4    1  0.4758602E-002  0.5504923E+03  0.7818608E-02  0.1001380E+00
         21   -1    0    0  503  502  0.00000000000E+00  0.00000000000E+00  0.97785365036E+03  0.97785365036E+03  0.00000000000E+00 0. -1.
         21   -1    0    0  501  503 -0.00000000000E+00 -0.00000000000E+00 -0.31198420009E+03  0.31198420009E+03  0.00000000000E+00 0. -1.
    9000007    1    1    2  501    0 -0.24504057170E+03 -0.28809174956E+03  0.28028613992E+03  0.61773947435E+03  0.40000000000E+03 0. -1.
   -9000007    1    1    2    0  502  0.24504057170E+03  0.28809174956E+03  0.38558331034E+03  0.67209837610E+03  0.40000000000E+03 0. -1.
<mgrwt>
<rscale>  2 0.55049227E+03</rscale>
<asrwt>0</asrwt>
<pdfrwt beam="1">  1       21 0.15043902E+00 0.55049227E+03</pdfrwt>
<pdfrwt beam="2">  1       21 0.47997570E-01 0.55049227E+03</pdfrwt>
<totfact> 0.10006844E+03</totfact>
</mgrwt>
</event>
<event>
 4    1  0.4758602E-002  0.4032083E+03  0.7818608E-02  0.1042674E+00
         21   -1    0    0  501  502  0.00000000000E+00  0.00000000000E+00  0.40120274927E+03  0.40120274927E+03  0.00000000000E+00 0. -1.
         21   -1    0    0  502  503 -0.00000000000E+00 -0.00000000000E+00 -0.41655438799E+03  0.41655438799E+03  0.00000000000E+00 0. -1.
    9000007    1    1    2  501    0 -0.17532468687E+02  0.47640100760E+02 -0.75110243956E+02  0.41014450552E+03  0.40000000000E+03 0. -1.
   -9000007    1    1    2    0  503  0.17532468687E+02 -0.47640100760E+02  0.59758605242E+02  0.40761263175E+03  0.40000000000E+03 0. -1.
<mgrwt>
<rscale>  2 0.40320834E+03</rscale>
<asrwt>0</asrwt>
<pdfrwt beam="1">  1       21 0.61723500E-01 0.40320834E+03</pdfrwt>
<pdfrwt beam="2">  1       21 0.64085290E-01 0.40320834E+03</pdfrwt>
<totfact> 0.48984701E+03</totfact>
</mgrwt>
</event>
<event>
 4    1  0.4758602E-002  0.5266362E+03  0.7818608E-02  0.1007051E+00
         21   -1    0    0  501  502  0.00000000000E+00  0.00000000000E+00  0.25354579857E+03  0.25354579857E+03  0.00000000000E+00 0.  1.
         21   -1    0    0  502  503 -0.00000000000E+00 -0.00000000000E+00 -0.16845467908E+04  0.16845467908E+04  0.00000000000E+00 0. -1.
    9000007    1    1    2  501    0  0.11744740286E+03  0.32179462847E+03 -0.14167661720E+03  0.54536037554E+03  0.40000000000E+03 0.  1.
   -9000007    1    1    2    0  503 -0.11744740286E+03 -0.32179462847E+03 -0.12893243751E+04  0.13927322139E+04  0.40000000000E+03 0. -1.
<mgrwt>
<rscale>  2 0.52663619E+03</rscale>
<asrwt>0</asrwt>
<pdfrwt beam="1">  1       21 0.39007046E-01 0.52663619E+03</pdfrwt>
<pdfrwt beam="2">  1       21 0.25916104E+00 0.52663619E+03</pdfrwt>
<totfact> 0.28643268E+02</totfact>
</mgrwt>
</event>
<event>
 4    1  0.4758602E-002  0.6113411E+03  0.7818608E-02  0.9882152E-01
         21   -1    0    0  501  502  0.00000000000E+00  0.00000000000E+00  0.68377128196E+03  0.68377128196E+03  0.00000000000E+00 0.  1.
         21   -1    0    0  502  503 -0.00000000000E+00 -0.00000000000E+00 -0.14051745225E+04  0.14051745225E+04  0.00000000000E+00 0. -1.
    9000007    1    1    2  501    0  0.44908995966E+03 -0.10980038850E+03  0.45574027662E+03  0.76252024033E+03  0.40000000000E+03 0.  1.
   -9000007    1    1    2    0  503 -0.44908995966E+03  0.10980038850E+03 -0.11771435172E+04  0.13264255641E+04  0.40000000000E+03 0. -1.
<mgrwt>
<rscale>  2 0.61134108E+03</rscale>
<asrwt>0</asrwt>
<pdfrwt beam="1">  1       21 0.10519558E+00 0.61134108E+03</pdfrwt>
<pdfrwt beam="2">  1       21 0.21618070E+00 0.61134108E+03</pdfrwt>
<totfact> 0.55678428E+01</totfact>
</mgrwt>
</event>
<event>
 4    1  0.4758602E-002  0.4032096E+03  0.7818608E-02  0.1042674E+00
         21   -1    0    0  503  502  0.00000000000E+00  0.00000000000E+00  0.98709918887E+03  0.98709918887E+03  0.00000000000E+00 0. -1.
         21   -1    0    0  501  503 -0.00000000000E+00 -0.00000000000E+00 -0.20264178835E+03  0.20264178835E+03  0.00000000000E+00 0. -1.
    9000007    1    1    2  501    0 -0.21591945688E+02  0.45953978175E+02  0.13483322462E+03  0.42515641673E+03  0.40000000000E+03 0.  1.
   -9000007    1    1    2    0  502  0.21591945688E+02 -0.45953978175E+02  0.64962417589E+03  0.76458456049E+03  0.40000000000E+03 0.  1.
<mgrwt>
<rscale>  2 0.40320960E+03</rscale>
<asrwt>0</asrwt>
<pdfrwt beam="1">  1       21 0.15186141E+00 0.40320960E+03</pdfrwt>
<pdfrwt beam="2">  1       21 0.31175660E-01 0.40320960E+03</pdfrwt>
<totfact> 0.25050125E+03</totfact>
</mgrwt>
</event>
<event>
 4    1  0.4758602E-002  0.5016654E+03  0.7818608E-02  0.1013345E+00
         21   -1    0    0  501  502  0.00000000000E+00  0.00000000000E+00  0.10249619371E+04  0.10249619371E+04  0.00000000000E+00 0.  1.
         21   -1    0    0  502  503 -0.00000000000E+00 -0.00000000000E+00 -0.25735921174E+03  0.25735921174E+03  0.00000000000E+00 0. -1.
    9000007    1    1    2  501    0  0.22814503973E+03 -0.19904263627E+03  0.52120858441E+03  0.72341310374E+03  0.40000000000E+03 0.  1.
   -9000007    1    1    2    0  503 -0.22814503973E+03  0.19904263627E+03  0.24639414099E+03  0.55890804514E+03  0.40000000000E+03 0.  1.
<mgrwt>
<rscale>  2 0.50166536E+03</rscale>
<asrwt>0</asrwt>
<pdfrwt beam="1">  1       21 0.15768645E+00 0.50166536E+03</pdfrwt>
<pdfrwt beam="2">  1       21 0.39593725E-01 0.50166536E+03</pdfrwt>
<totfact> 0.13379809E+03</totfact>
</mgrwt>
</event>
<event>
 4    1  0.4758602E-002  0.4142940E+03  0.7818608E-02  0.1038940E+00
         21   -1    0    0  503  502  0.00000000000E+00  0.00000000000E+00  0.20054805161E+03  0.20054805161E+03  0.00000000000E+00 0.  1.
         21   -1    0    0  501  503 -0.00000000000E+00 -0.00000000000E+00 -0.95296731334E+03  0.95296731334E+03  0.00000000000E+00 0.  1.
    9000007    1    1    2  501    0  0.99860536283E+02  0.40833427910E+02 -0.56032826639E+03  0.69685526593E+03  0.40000000000E+03 0.  1.
   -9000007    1    1    2    0  502 -0.99860536283E+02 -0.40833427910E+02 -0.19209099533E+03  0.45666009901E+03  0.40000000000E+03 0.  1.
<mgrwt>
<rscale>  2 0.41429397E+03</rscale>
<asrwt>0</asrwt>
<pdfrwt beam="1">  1       21 0.30853546E-01 0.41429397E+03</pdfrwt>
<pdfrwt beam="2">  1       21 0.14661036E+00 0.41429397E+03</pdfrwt>
<totfact> 0.27991951E+03</totfact>
</mgrwt>
</event>
<event>
 4    1  0.4758602E-002  0.4093628E+03  0.7818608E-02  0.1040585E+00
         21   -1    0    0  501  502  0.00000000000E+00  0.00000000000E+00  0.30162404517E+03  0.30162404517E+03  0.00000000000E+00 0. -1.
         21   -1    0    0  502  503 -0.00000000000E+00 -0.00000000000E+00 -0.56619282297E+03  0.56619282297E+03  0.00000000000E+00 0. -1.
    9000007    1    1    2  501    0 -0.21837662464E+02  0.84267402451E+02 -0.19167576359E+03  0.45201490790E+03  0.40000000000E+03 0. -1.
   -9000007    1    1    2    0  503  0.21837662464E+02 -0.84267402451E+02 -0.72893014214E+02  0.41580196024E+03  0.40000000000E+03 0. -1.
<mgrwt>
<rscale>  2 0.40936277E+03</rscale>
<asrwt>0</asrwt>
<pdfrwt beam="1">  1       21 0.46403699E-01 0.40936277E+03</pdfrwt>
<pdfrwt beam="2">  1       21 0.87106589E-01 0.40936277E+03</pdfrwt>
<totfact> 0.44836050E+03</totfact>
</mgrwt>
</event>
<event>
 4    1  0.4758602E-002  0.5369382E+03  0.7818608E-02  0.1004563E+00
         21   -1    0    0  503  502  0.00000000000E+00  0.00000000000E+00  0.11418341822E+04  0.11418341822E+04  0.00000000000E+00 0.  1.
         21   -1    0    0  501  503 -0.00000000000E+00 -0.00000000000E+00 -0.26348490533E+03  0.26348490533E+03  0.00000000000E+00 0.  1.
    9000007    1    1    2  501    0 -0.27495062387E+03 -0.22957520954E+03  0.29564318235E+03  0.61294984596E+03  0.40000000000E+03 0.  1.
   -9000007    1    1    2    0  502  0.27495062387E+03  0.22957520954E+03  0.58270609456E+03  0.79236924160E+03  0.40000000000E+03 0.  1.
<mgrwt>
<rscale>  2 0.53693819E+03</rscale>
<asrwt>0</asrwt>
<pdfrwt beam="1">  1       21 0.17566679E+00 0.53693819E+03</pdfrwt>
<pdfrwt beam="2">  1       21 0.40536140E-01 0.53693819E+03</pdfrwt>
<totfact> 0.92560104E+02</totfact>
</mgrwt>
</event>
<event>
 4    1  0.4758602E-002  0.9724225E+03  0.7818608E-02  0.9339319E-01
         21   -1    0    0  503  502  0.00000000000E+00  0.00000000000E+00  0.13110897727E+04  0.13110897727E+04  0.00000000000E+00 0.  1.
         21   -1    0    0  501  503 -0.00000000000E+00 -0.00000000000E+00 -0.13255318609E+04  0.13255318609E+04  0.00000000000E+00 0. -1.
    9000007    1    1    2  501    0  0.61390374537E+03  0.63931818169E+03 -0.89733872832E+03  0.13231864341E+04  0.40000000000E+03 0. -1.
   -9000007    1    1    2    0  502 -0.61390374537E+03 -0.63931818169E+03  0.88289664018E+03  0.13134351995E+04  0.40000000000E+03 0.  1.
<mgrwt>
<rscale>  2 0.97242251E+03</rscale>
<asrwt>0</asrwt>
<pdfrwt beam="1">  1       21 0.20170612E+00 0.97242251E+03</pdfrwt>
<pdfrwt beam="2">  1       21 0.20392798E+00 0.97242251E+03</pdfrwt>
<totfact> 0.97252084E+00</totfact>
</mgrwt>
</event>
<event>
 4    1  0.4758602E-002  0.5529630E+03  0.7818608E-02  0.1000810E+00
         21   -1    0    0  501  502  0.00000000000E+00  0.00000000000E+00  0.37219459933E+03  0.37219459933E+03  0.00000000000E+00 0. -1.
         21   -1    0    0  502  503 -0.00000000000E+00 -0.00000000000E+00 -0.13657218506E+04  0.13657218506E+04  0.00000000000E+00 0.  1.
    9000007    1    1    2  501    0  0.87233227708E+02 -0.37169664708E+03  0.51759388509E+02  0.55538011106E+03  0.40000000000E+03 0. -1.
   -9000007    1    1    2    0  503 -0.87233227708E+02  0.37169664708E+03 -0.10452866398E+04  0.11825363389E+04  0.40000000000E+03 0.  1.
<mgrwt>
<rscale>  2 0.55296296E+03</rscale>
<asrwt>0</asrwt>
<pdfrwt beam="1">  1       21 0.57260707E-01 0.55296296E+03</pdfrwt>
<pdfrwt beam="2">  1       21 0.21011106E+00 0.55296296E+03</pdfrwt>
<totfact> 0.25626131E+02</totfact>
</mgrwt>
</event>
<event>
 4    1  0.4758602E-002  0.6690155E+03  0.7818608E-02  0.9771738E-01
         21   -1    0    0  501  502  0.00000000000E+00  0.00000000000E+00  0.20854699249E+04  0.20854699249E+04  0.00000000000E+00 0. -1.
         21   -1    0    0  502  503 -0.00000000000E+00 -0.00000000000E+00 -0.25761419439E+03  0.25761419439E+03  0.00000000000E+00 0.  1.
    9000007    1    1    2  501    0 -0.24605762969E+03 -0.47648435692E+03  0.13925385531E+04  0.15449094865E+04  0.40000000000E+03 0. -1.
   -9000007    1    1    2    0  503  0.24605762969E+03  0.47648435692E+03  0.43531717739E+03  0.79817463280E+03  0.40000000000E+03 0.  1.
<mgrwt>
<rscale>  2 0.66901547E+03</rscale>
<asrwt>0</asrwt>
<pdfrwt beam="1">  1       21 0.32084152E+00 0.66901547E+03</pdfrwt>
<pdfrwt beam="2">  1       21 0.39632954E-01 0.66901547E+03</pdfrwt>
<totfact> 0.10927229E+02</totfact>
</mgrwt>
</event>
<event>
 4    1  0.4758602E-002  0.4050534E+03  0.7818608E-02  0.1042044E+00
         21   -1    0    0  501  502  0.00000000000E+00  0.00000000000E+00  0.93336514353E+03  0.93336514353E+03  0.00000000000E+00 0. -1.
         21   -1    0    0  502  503 -0.00000000000E+00 -0.00000000000E+00 -0.19697583144E+03  0.19697583144E+03  0.00000000000E+00 0. -1.
    9000007    1    1    2  501    0 -0.63378469194E+02  0.71712164601E+01  0.55358350780E+03  0.68594675946E+03  0.40000000000E+03 0. -1.
   -9000007    1    1    2    0  503  0.63378469194E+02 -0.71712164601E+01  0.18280580429E+03  0.44439421552E+03  0.40000000000E+03 0. -1.
<mgrwt>
<rscale>  2 0.40505340E+03</rscale>
<asrwt>0</asrwt>
<pdfrwt beam="1">  1       21 0.14359464E+00 0.40505340E+03</pdfrwt>
<pdfrwt beam="2">  1       21 0.30303975E-01 0.40505340E+03</pdfrwt>
<totfact> 0.30790405E+03</totfact>
</mgrwt>
</event>
<event>
 4    1  0.4758602E-002  0.4971088E+03  0.7818608E-02  0.1014536E+00
         21   -1    0    0  503  502  0.00000000000E+00  0.00000000000E+00  0.45735806576E+03  0.45735806576E+03  0.00000000000E+00 0. -1.
         21   -1    0    0  501  503 -0.00000000000E+00 -0.00000000000E+00 -0.70831539705E+03  0.70831539705E+03  0.00000000000E+00 0. -1.
    9000007    1    1    2  501    0 -0.54710254058E+02 -0.29004127785E+03 -0.40932904943E+03  0.64394675670E+03  0.40000000000E+03 0. -1.
   -9000007    1    1    2    0  502  0.54710254058E+02  0.29004127785E+03  0.15837171814E+03  0.52172670611E+03  0.40000000000E+03 0. -1.
<mgrwt>
<rscale>  2 0.49710880E+03</rscale>
<asrwt>0</asrwt>
<pdfrwt beam="1">  1       21 0.70362780E-01 0.49710880E+03</pdfrwt>
<pdfrwt beam="2">  1       21 0.10897160E+00 0.49710880E+03</pdfrwt>
<totfact> 0.10215714E+03</totfact>
</mgrwt>
</event>
<event>
 4    1  0.4758602E-002  0.5785393E+03  0.7818608E-02  0.9950958E-01
         21   -1    0    0  501  502  0.00000000000E+00  0.00000000000E+00  0.55452530744E+03  0.55452530744E+03  0.00000000000E+00 0.  1.
         21   -1    0    0  502  503 -0.00000000000E+00 -0.00000000000E+00 -0.99728801273E+03  0.99728801273E+03  0.00000000000E+00 0. -1.
    9000007    1    1    2  501    0  0.39290252995E+03 -0.14260189066E+03  0.26612360217E+03  0.63681195725E+03  0.40000000000E+03 0.  1.
   -9000007    1    1    2    0  503 -0.39290252995E+03  0.14260189066E+03 -0.70888630745E+03  0.91500136293E+03  0.40000000000E+03 0. -1.
<mgrwt>
<rscale>  2 0.57853928E+03</rscale>
<asrwt>0</asrwt>
<pdfrwt beam="1">  1       21 0.85311587E-01 0.57853928E+03</pdfrwt>
<pdfrwt beam="2">  1       21 0.15342892E+00 0.57853928E+03</pdfrwt>
<totfact> 0.26008344E+02</totfact>
</mgrwt>
</event>
<event>
 4    1  0.4758602E-002  0.4965273E+03  0.7818608E-02  0.1014689E+00
         21   -1    0    0  501  502  0.00000000000E+00  0.00000000000E+00  0.11919822683E+04  0.11919822683E+04  0.00000000000E+00 0. -1.
         21   -1    0    0  502  503 -0.00000000000E+00 -0.00000000000E+00 -0.20874675790E+03  0.20874675790E+03  0.00000000000E+00 0.  1.
    9000007    1    1    2  501    0  0.24421855015E+03  0.16400211354E+03  0.55870441554E+03  0.74745569596E+03  0.40000000000E+03 0. -1.
   -9000007    1    1    2    0  503 -0.24421855015E+03 -0.16400211354E+03  0.42453109483E+03  0.65327333021E+03  0.40000000000E+03 0.  1.
<mgrwt>
<rscale>  2 0.49652733E+03</rscale>
<asrwt>0</asrwt>
<pdfrwt beam="1">  1       21 0.18338188E+00 0.49652733E+03</pdfrwt>
<pdfrwt beam="2">  1       21 0.32114887E-01 0.49652733E+03</pdfrwt>
<totfact> 0.13315260E+03</totfact>
</mgrwt>
</event>
<event>
 4    1  0.4758602E-002  0.4241480E+03  0.7818608E-02  0.1035725E+00
         21   -1    0    0  501  502  0.00000000000E+00  0.00000000000E+00  0.19141206225E+04  0.19141206225E+04  0.00000000000E+00 0.  1.
         21   -1    0    0  502  503 -0.00000000000E+00 -0.00000000000E+00 -0.95446799472E+02  0.95446799472E+02  0.00000000000E+00 0.  1.
    9000007    1    1    2  501    0 -0.61521502924E+01  0.14093849358E+03  0.10336200138E+04  0.11172608652E+04  0.40000000000E+03 0.  1.
   -9000007    1    1    2    0  503  0.61521502924E+01 -0.14093849358E+03  0.78505380929E+03  0.89230655685E+03  0.40000000000E+03 0.  1.
<mgrwt>
<rscale>  2 0.42414798E+03</rscale>
<asrwt>0</asrwt>
<pdfrwt beam="1">  1       21 0.29448007E+00 0.42414798E+03</pdfrwt>
<pdfrwt beam="2">  1       21 0.14684124E-01 0.42414798E+03</pdfrwt>
<totfact> 0.12330156E+03</totfact>
</mgrwt>
</event>
<event>
 4    1  0.4758602E-002  0.4512519E+03  0.7818608E-02  0.1027349E+00
         21   -1    0    0  503  502  0.00000000000E+00  0.00000000000E+00  0.10480059431E+04  0.10480059431E+04  0.00000000000E+00 0. -1.
         21   -1    0    0  501  503 -0.00000000000E+00 -0.00000000000E+00 -0.20365701332E+03  0.20365701332E+03  0.00000000000E+00 0. -1.
    9000007    1    1    2  501    0 -0.10360274353E+03  0.18136902672E+03  0.55631526579E+03  0.71632040825E+03  0.40000000000E+03 0. -1.
   -9000007    1    1    2    0  502  0.10360274353E+03 -0.18136902672E+03  0.28803366404E+03  0.53534254823E+03  0.40000000000E+03 0. -1.
<mgrwt>
<rscale>  2 0.45125187E+03</rscale>
<asrwt>0</asrwt>
<pdfrwt beam="1">  1       21 0.16123168E+00 0.45125187E+03</pdfrwt>
<pdfrwt beam="2">  1       21 0.31331849E-01 0.45125187E+03</pdfrwt>
<totfact> 0.20613766E+03</totfact>
</mgrwt>
</event>
<event>
 4    1  0.4758602E-002  0.1128337E+04  0.7818608E-02  0.9178004E-01
         21   -1    0    0  503  502  0.00000000000E+00  0.00000000000E+00  0.93310636069E+03  0.93310636069E+03  0.00000000000E+00 0. -1.
         21   -1    0    0  501  503 -0.00000000000E+00 -0.00000000000E+00 -0.21854724653E+04  0.21854724653E+04  0.00000000000E+00 0.  1.
    9000007    1    1    2  501    0 -0.75364978931E+03 -0.73834776719E+03 -0.15819247226E+04  0.19430983656E+04  0.40000000000E+03 0.  1.
   -9000007    1    1    2    0  502  0.75364978931E+03  0.73834776719E+03  0.32955861797E+03  0.11754804605E+04  0.40000000000E+03 0. -1.
<mgrwt>
<rscale>  2 0.11283375E+04</rscale>
<asrwt>0</asrwt>
<pdfrwt beam="1">  1       21 0.14355482E+00 0.11283375E+04</pdfrwt>
<pdfrwt beam="2">  1       21 0.33622653E+00 0.11283375E+04</pdfrwt>
<totfact> 0.36321238E+00</totfact>
</mgrwt>
</event>
<event>
 4    1  0.4758602E-002  0.5471595E+03  0.7818608E-02  0.1002154E+00
         21   -1    0    0  501  502  0.00000000000E+00  0.00000000000E+00  0.20159229292E+04  0.20159229292E+04  0.00000000000E+00 0. -1.
         21   -1    0    0  502  503 -0.00000000000E+00 -0.00000000000E+00 -0.20928630697E+03  0.20928630697E+03  0.00000000000E+00 0. -1.
    9000007    1    1    2  501    0 -0.35471132480E+03  0.11646200308E+03  0.15028880665E+04  0.15993924042E+04  0.40000000000E+03 0. -1.
   -9000007    1    1    2    0  503  0.35471132480E+03 -0.11646200308E+03  0.30374855574E+03  0.62581683200E+03  0.40000000000E+03 0. -1.
<mgrwt>
<rscale>  2 0.54715950E+03</rscale>
<asrwt>0</asrwt>
<pdfrwt beam="1">  1       21 0.31014198E+00 0.54715950E+03</pdfrwt>
<pdfrwt beam="2">  1       21 0.32197895E-01 0.54715950E+03</pdfrwt>
<totfact> 0.20520907E+02</totfact>
</mgrwt>
</event>
<event>
 4    1  0.4758602E-002  0.4275575E+03  0.7818608E-02  0.1034634E+00
         21   -1    0    0  501  502  0.00000000000E+00  0.00000000000E+00  0.12409571043E+04  0.12409571043E+04  0.00000000000E+00 0. -1.
         21   -1    0    0  502  503 -0.00000000000E+00 -0.00000000000E+00 -0.19410406005E+03  0.19410406005E+03  0.00000000000E+00 0.  1.
    9000007    1    1    2  501    0 -0.71929970740E+00  0.15101291643E+03  0.87573116637E+03  0.97453090976E+03  0.40000000000E+03 0. -1.
   -9000007    1    1    2    0  503  0.71929970740E+00 -0.15101291643E+03  0.17112187792E+03  0.46053025462E+03  0.40000000000E+03 0.  1.
<mgrwt>
<rscale>  2 0.42755750E+03</rscale>
<asrwt>0</asrwt>
<pdfrwt beam="1">  1       21 0.19091647E+00 0.42755750E+03</pdfrwt>
<pdfrwt beam="2">  1       21 0.29862164E-01 0.42755750E+03</pdfrwt>
<totfact> 0.14065353E+03</totfact>
</mgrwt>
</event>
<event>
 4    1  0.4758602E-002  0.5517420E+03  0.7818608E-02  0.1001092E+00
         21   -1    0    0  503  502  0.00000000000E+00  0.00000000000E+00  0.12737255182E+04  0.12737255182E+04  0.00000000000E+00 0. -1.
         21   -1    0    0  501  503 -0.00000000000E+00 -0.00000000000E+00 -0.40168813488E+03  0.40168813488E+03  0.00000000000E+00 0.  1.
    9000007    1    1    2  501    0 -0.26191982136E+03  0.27534923940E+03 -0.97103490265E+02  0.56022163853E+03  0.40000000000E+03 0. -1.
   -9000007    1    1    2    0  502  0.26191982136E+03 -0.27534923940E+03  0.96914087353E+03  0.11151920145E+04  0.40000000000E+03 0.  1.
<mgrwt>
<rscale>  2 0.55174197E+03</rscale>
<asrwt>0</asrwt>
<pdfrwt beam="1">  1       21 0.19595777E+00 0.55174197E+03</pdfrwt>
<pdfrwt beam="2">  1       21 0.61798175E-01 0.55174197E+03</pdfrwt>
<totfact> 0.26952847E+02</totfact>
</mgrwt>
</event>
<event>
 4    1  0.4758602E-002  0.4813494E+03  0.7818608E-02  0.1018765E+00
         21   -1    0    0  501  502  0.00000000000E+00  0.00000000000E+00  0.13114250864E+04  0.13114250864E+04  0.00000000000E+00 0. -1.
         21   -1    0    0  502  503 -0.00000000000E+00 -0.00000000000E+00 -0.49150689736E+03  0.49150689736E+03  0.00000000000E+00 0. -1.
    9000007    1    1    2  501    0 -0.20985909779E+03  0.16630207302E+03  0.11314373971E+04  0.12295722037E+04  0.40000000000E+03 0. -1.
   -9000007    1    1    2    0  503  0.20985909779E+03 -0.16630207302E+03 -0.31151920809E+03  0.57335978009E+03  0.40000000000E+03 0. -1.
<mgrwt>
<rscale>  2 0.48134937E+03</rscale>
<asrwt>0</asrwt>
<pdfrwt beam="1">  1       21 0.20175770E+00 0.48134937E+03</pdfrwt>
<pdfrwt beam="2">  1       21 0.75616446E-01 0.48134937E+03</pdfrwt>
<totfact> 0.16159985E+02</totfact>
</mgrwt>
</event>
<event>
 4    1  0.4758602E-002  0.6148005E+03  0.7818608E-02  0.9875167E-01
         21   -1    0    0  501  502  0.00000000000E+00  0.00000000000E+00  0.22363136882E+04  0.22363136882E+04  0.00000000000E+00 0. -1.
         21   -1    0    0  502  503 -0.00000000000E+00 -0.00000000000E+00 -0.16977335439E+03  0.16977335439E+03  0.00000000000E+00 0.  1.
    9000007    1    1    2  501    0 -0.44923401690E+03  0.12715543187E+03  0.11134579510E+04  0.12719152151E+04  0.40000000000E+03 0.  1.
   -9000007    1    1    2    0  503  0.44923401690E+03 -0.12715543187E+03  0.95308238279E+03  0.11341718274E+04  0.40000000000E+03 0. -1.
<mgrwt>
<rscale>  2 0.61480054E+03</rscale>
<asrwt>0</asrwt>
<pdfrwt beam="1">  1       21 0.34404824E+00 0.61480054E+03</pdfrwt>
<pdfrwt beam="2">  1       21 0.26118979E-01 0.61480054E+03</pdfrwt>
<totfact> 0.18678605E+02</totfact>
</mgrwt>
</event>
<event>
 4    1  0.4758602E-002  0.9012310E+03  0.7818608E-02  0.9424044E-01
         21   -1    0    0  503  502  0.00000000000E+00  0.00000000000E+00  0.67539308265E+03  0.67539308265E+03  0.00000000000E+00 0.  1.
         21   -1    0    0  501  503 -0.00000000000E+00 -0.00000000000E+00 -0.12215902410E+04  0.12215902410E+04  0.00000000000E+00 0. -1.
    9000007    1    1    2  501    0 -0.60702551175E+03 -0.53267009730E+03 -0.39140561514E+03  0.98255572871E+03  0.40000000000E+03 0. -1.
   -9000007    1    1    2    0  502  0.60702551175E+03  0.53267009730E+03 -0.15479154318E+03  0.91442759490E+03  0.40000000000E+03 0.  1.
<mgrwt>
<rscale>  2 0.90123105E+03</rscale>
<asrwt>0</asrwt>
<pdfrwt beam="1">  1       21 0.10390663E+00 0.90123105E+03</pdfrwt>
<pdfrwt beam="2">  1       21 0.18793696E+00 0.90123105E+03</pdfrwt>
<totfact> 0.80810661E+01</totfact>
</mgrwt>
</event>
<event>
 4    1  0.4758602E-002  0.4154535E+03  0.7818608E-02  0.1038556E+00
         21   -1    0    0  503  502  0.00000000000E+00  0.00000000000E+00  0.19468621593E+03  0.19468621593E+03  0.00000000000E+00 0. -1.
         21   -1    0    0  501  503 -0.00000000000E+00 -0.00000000000E+00 -0.22564992661E+04  0.22564992661E+04  0.00000000000E+00 0. -1.
    9000007    1    1    2  501    0  0.11170675702E+03  0.11101277166E+02 -0.19858523378E+04  0.20288447810E+04  0.40000000000E+03 0.  1.
   -9000007    1    1    2    0  502 -0.11170675702E+03 -0.11101277166E+02 -0.75960712381E+02  0.42234070103E+03  0.40000000000E+03 0.  1.
<mgrwt>
<rscale>  2 0.41545353E+03</rscale>
<asrwt>0</asrwt>
<pdfrwt beam="1">  1       21 0.29951727E-01 0.41545353E+03</pdfrwt>
<pdfrwt beam="2">  1       21 0.34715371E+00 0.41545353E+03</pdfrwt>
<totfact> 0.15275416E+02</totfact>
</mgrwt>
</event>
<event>
 4    1  0.4758602E-002  0.5038268E+03  0.7818608E-02  0.1012785E+00
         21   -1    0    0  503  502  0.00000000000E+00  0.00000000000E+00  0.26806580431E+03  0.26806580431E+03  0.00000000000E+00 0. -1.
         21   -1    0    0  501  503 -0.00000000000E+00 -0.00000000000E+00 -0.98480686863E+03  0.98480686863E+03  0.00000000000E+00 0. -1.
    9000007    1    1    2  501    0 -0.20401671085E+02  0.30565542042E+03 -0.48121271999E+03  0.69671166640E+03  0.40000000000E+03 0. -1.
   -9000007    1    1    2    0  502  0.20401671085E+02 -0.30565542042E+03 -0.23552834433E+03  0.55616100654E+03  0.40000000000E+03 0. -1.
<mgrwt>
<rscale>  2 0.50382682E+03</rscale>
<asrwt>0</asrwt>
<pdfrwt beam="1">  1       21 0.41240893E-01 0.50382682E+03</pdfrwt>
<pdfrwt beam="2">  1       21 0.15150875E+00 0.50382682E+03</pdfrwt>
<totfact> 0.13719447E+03</totfact>
</mgrwt>
</event>
<event>
 4    1  0.4758602E-002  0.5833060E+03  0.7818608E-02  0.9940659E-01
         21   -1    0    0  503  502  0.00000000000E+00  0.00000000000E+00  0.72724502242E+03  0.72724502242E+03  0.00000000000E+00 0. -1.
         21   -1    0    0  501  503 -0.00000000000E+00 -0.00000000000E+00 -0.63532963494E+03  0.63532963494E+03  0.00000000000E+00 0. -1.
    9000007    1    1    2  501    0  0.17463339961E+03  0.38697428502E+03 -0.30382959557E+03  0.65769167903E+03  0.40000000000E+03 0. -1.
   -9000007    1    1    2    0  502 -0.17463339961E+03 -0.38697428502E+03  0.39574498305E+03  0.70488297833E+03  0.40000000000E+03 0. -1.
<mgrwt>
<rscale>  2 0.58330603E+03</rscale>
<asrwt>0</asrwt>
<pdfrwt beam="1">  1       21 0.11188385E+00 0.58330603E+03</pdfrwt>
<pdfrwt beam="2">  1       21 0.97743021E-01 0.58330603E+03</pdfrwt>
<totfact> 0.42982680E+02</totfact>
</mgrwt>
</event>
<event>
 4    1  0.4758602E-002  0.4027393E+03  0.7818608E-02  0.1042835E+00
         21   -1    0    0  501  502  0.00000000000E+00  0.00000000000E+00  0.16257474147E+04  0.16257474147E+04  0.00000000000E+00 0.  1.
         21   -1    0    0  502  503 -0.00000000000E+00 -0.00000000000E+00 -0.10636065031E+03  0.10636065031E+03  0.00000000000E+00 0.  1.
    9000007    1    1    2  501    0  0.46658361498E+02  0.46829145986E+01  0.97529741183E+03  0.10551795932E+04  0.40000000000E+03 0.  1.
   -9000007    1    1    2    0  503 -0.46658361498E+02 -0.46829145986E+01  0.54408935260E+03  0.67692847185E+03  0.40000000000E+03 0.  1.
<mgrwt>
<rscale>  2 0.40273929E+03</rscale>
<asrwt>0</asrwt>
<pdfrwt beam="1">  1       21 0.25011497E+00 0.40273929E+03</pdfrwt>
<pdfrwt beam="2">  1       21 0.16363178E-01 0.40273929E+03</pdfrwt>
<totfact> 0.18894786E+03</totfact>
</mgrwt>
</event>
<event>
 4    1  0.4758602E-002  0.4160887E+03  0.7818608E-02  0.1038347E+00
         21   -1    0    0  503  502  0.00000000000E+00  0.00000000000E+00  0.25355567439E+03  0.25355567439E+03  0.00000000000E+00 0.  1.
         21   -1    0    0  501  503 -0.00000000000E+00 -0.00000000000E+00 -0.83899777733E+03  0.83899777733E+03  0.00000000000E+00 0.  1.
    9000007    1    1    2  501    0  0.99368769377E+02  0.57058629392E+02 -0.52842052591E+03  0.67257571449E+03  0.40000000000E+03 0.  1.
   -9000007    1    1    2    0  502 -0.99368769377E+02 -0.57058629392E+02 -0.57021577029E+02  0.41997773722E+03  0.40000000000E+03 0.  1.
<mgrwt>
<rscale>  2 0.41608874E+03</rscale>
<asrwt>0</asrwt>
<pdfrwt beam="1">  1       21 0.39008564E-01 0.41608874E+03</pdfrwt>
<pdfrwt beam="2">  1       21 0.12907658E+00 0.41608874E+03</pdfrwt>
<totfact> 0.24373150E+03</totfact>
</mgrwt>
</event>
<event>
 4    1  0.4758602E-002  0.4560775E+03  0.7818608E-02  0.1025925E+00
         21   -1    0    0  503  502  0.00000000000E+00  0.00000000000E+00  0.15182341349E+03  0.15182341349E+03  0.00000000000E+00 0. -1.
         21   -1    0    0  501  503 -0.00000000000E+00 -0.00000000000E+00 -0.25040637986E+04  0.25040637986E+04  0.00000000000E+00 0.  1.
    9000007    1    1    2  501    0 -0.11298396648E+03  0.18772676323E+03 -0.20697646925E+04  0.21194179854E+04  0.40000000000E+03 0.  1.
   -9000007    1    1    2    0  502  0.11298396648E+03 -0.18772676323E+03 -0.28247569259E+03  0.53646922672E+03  0.40000000000E+03 0. -1.
<mgrwt>
<rscale>  2 0.45607753E+03</rscale>
<asrwt>0</asrwt>
<pdfrwt beam="1">  1       21 0.23357451E-01 0.45607753E+03</pdfrwt>
<pdfrwt beam="2">  1       21 0.38524054E+00 0.45607753E+03</pdfrwt>
<totfact> 0.14018500E+02</totfact>
</mgrwt>
</event>
<event>
 4    1  0.4758602E-002  0.4538176E+03  0.7818608E-02  0.1026590E+00
         21   -1    0    0  503  502  0.00000000000E+00  0.00000000000E+00  0.35314695385E+03  0.35314695385E+03  0.00000000000E+00 0. -1.
         21   -1    0    0  501  503 -0.00000000000E+00 -0.00000000000E+00 -0.59334408183E+03  0.59334408183E+03  0.00000000000E+00 0. -1.
    9000007    1    1    2  501    0  0.93497103647E+02  0.19289550551E+03 -0.18201950413E+03  0.48895959375E+03  0.40000000000E+03 0. -1.
   -9000007    1    1    2    0  502 -0.93497103647E+02 -0.19289550551E+03 -0.58177623847E+02  0.45753144193E+03  0.40000000000E+03 0. -1.
<mgrwt>
<rscale>  2 0.45381757E+03</rscale>
<asrwt>0</asrwt>
<pdfrwt beam="1">  1       21 0.54330301E-01 0.45381757E+03</pdfrwt>
<pdfrwt beam="2">  1       21 0.91283703E-01 0.45381757E+03</pdfrwt>
<totfact> 0.28245570E+03</totfact>
</mgrwt>
</event>
<event>
 4    1  0.4758602E-002  0.4425594E+03  0.7818608E-02  0.1029964E+00
         21   -1    0    0  503  502  0.00000000000E+00  0.00000000000E+00  0.91997212421E+02  0.91997212421E+02  0.00000000000E+00 0.  1.
         21   -1    0    0  501  503 -0.00000000000E+00 -0.00000000000E+00 -0.39036507358E+04  0.39036507358E+04  0.00000000000E+00 0.  1.
    9000007    1    1    2  501    0 -0.10267560718E+03  0.15911183153E+03 -0.32528728640E+04  0.32828403440E+04  0.40000000000E+03 0.  1.
   -9000007    1    1    2    0  502  0.10267560718E+03 -0.15911183153E+03 -0.55878065936E+03  0.71280760414E+03  0.40000000000E+03 0.  1.
<mgrwt>
<rscale>  2 0.44255944E+03</rscale>
<asrwt>0</asrwt>
<pdfrwt beam="1">  1       21 0.14153414E-01 0.44255944E+03</pdfrwt>
<pdfrwt beam="2">  1       21 0.60056179E+00 0.44255944E+03</pdfrwt>
<totfact> 0.10883331E+01</totfact>
</mgrwt>
</event>
<event>
 4    1  0.4758602E-002  0.4235708E+03  0.7818608E-02  0.1035910E+00
         21   -1    0    0  503  502  0.00000000000E+00  0.00000000000E+00  0.13496770636E+04  0.13496770636E+04  0.00000000000E+00 0. -1.
         21   -1    0    0  501  503 -0.00000000000E+00 -0.00000000000E+00 -0.35874067964E+03  0.35874067964E+03  0.00000000000E+00 0. -1.
    9000007    1    1    2  501    0 -0.75304931599E+02  0.11722373633E+03 -0.18224547200E+03  0.46111348836E+03  0.40000000000E+03 0. -1.
   -9000007    1    1    2    0  502  0.75304931599E+02 -0.11722373633E+03  0.11731818559E+04  0.12473042548E+04  0.40000000000E+03 0. -1.
<mgrwt>
<rscale>  2 0.42357082E+03</rscale>
<asrwt>0</asrwt>
<pdfrwt beam="1">  1       21 0.20764262E+00 0.42357082E+03</pdfrwt>
<pdfrwt beam="2">  1       21 0.55190875E-01 0.42357082E+03</pdfrwt>
<totfact> 0.30672202E+02</totfact>
</mgrwt>
</event>
<event>
 4    1  0.4758602E-002  0.4204385E+03  0.7818608E-02  0.1036924E+00
         21   -1    0    0  503  502  0.00000000000E+00  0.00000000000E+00  0.38981804089E+03  0.38981804089E+03  0.00000000000E+00 0. -1.
         21   -1    0    0  501  503 -0.00000000000E+00 -0.00000000000E+00 -0.45446218780E+03  0.45446218780E+03  0.00000000000E+00 0. -1.
    9000007    1    1    2  501    0  0.38722115196E+02  0.12356835278E+03 -0.12540420767E+02  0.42062548920E+03  0.40000000000E+03 0. -1.
   -9000007    1    1    2    0  502 -0.38722115196E+02 -0.12356835278E+03 -0.52103726134E+02  0.42365473949E+03  0.40000000000E+03 0. -1.
<mgrwt>
<rscale>  2 0.42043851E+03</rscale>
<asrwt>0</asrwt>
<pdfrwt beam="1">  1       21 0.59972007E-01 0.42043851E+03</pdfrwt>
<pdfrwt beam="2">  1       21 0.69917259E-01 0.42043851E+03</pdfrwt>
<totfact> 0.42698855E+03</totfact>
</mgrwt>
</event>
<event>
 4    1  0.4758602E-002  0.4095208E+03  0.7818608E-02  0.1040532E+00
         21   -1    0    0  503  502  0.00000000000E+00  0.00000000000E+00  0.15725293192E+04  0.15725293192E+04  0.00000000000E+00 0. -1.
         21   -1    0    0  501  503 -0.00000000000E+00 -0.00000000000E+00 -0.10892168473E+03  0.10892168473E+03  0.00000000000E+00 0. -1.
    9000007    1    1    2  501    0 -0.48528140339E+02 -0.73159554466E+02  0.61033903182E+03  0.73499730243E+03  0.40000000000E+03 0. -1.
   -9000007    1    1    2    0  502  0.48528140339E+02  0.73159554466E+02  0.85326860261E+03  0.94645370146E+03  0.40000000000E+03 0. -1.
<mgrwt>
<rscale>  2 0.40952082E+03</rscale>
<asrwt>0</asrwt>
<pdfrwt beam="1">  1       21 0.24192757E+00 0.40952082E+03</pdfrwt>
<pdfrwt beam="2">  1       21 0.16757183E-01 0.40952082E+03</pdfrwt>
<totfact> 0.20217812E+03</totfact>
</mgrwt>
</event>
<event>
 4    1  0.4758602E-002  0.4548407E+03  0.7818608E-02  0.1026288E+00
         21   -1    0    0  501  502  0.00000000000E+00  0.00000000000E+00  0.94521814196E+03  0.94521814196E+03  0.00000000000E+00 0.  1.
         21   -1    0    0  502  503 -0.00000000000E+00 -0.00000000000E+00 -0.47185363302E+03  0.47185363302E+03  0.00000000000E+00 0.  1.
    9000007    1    1    2  501    0  0.14036142190E+03 -0.16485973132E+03  0.75548738627E+03  0.88183969665E+03  0.40000000000E+03 0.  1.
   -9000007    1    1    2    0  503 -0.14036142190E+03  0.16485973132E+03 -0.28212287733E+03  0.53523207834E+03  0.40000000000E+03 0.  1.
<mgrwt>
<rscale>  2 0.45484070E+03</rscale>
<asrwt>0</asrwt>
<pdfrwt beam="1">  1       21 0.14541818E+00 0.45484070E+03</pdfrwt>
<pdfrwt beam="2">  1       21 0.72592866E-01 0.45484070E+03</pdfrwt>
<totfact> 0.46024504E+02</totfact>
</mgrwt>
</event>
<event>
 4    1  0.4758602E-002  0.4484034E+03  0.7818608E-02  0.1028199E+00
         21   -1    0    0  501  502  0.00000000000E+00  0.00000000000E+00  0.16252541063E+04  0.16252541063E+04  0.00000000000E+00 0.  1.
         21   -1    0    0  502  503 -0.00000000000E+00 -0.00000000000E+00 -0.12937604493E+03  0.12937604493E+03  0.00000000000E+00 0. -1.
    9000007    1    1    2  501    0 -0.17786820278E+03  0.97100596298E+02  0.56439494342E+03  0.72083789822E+03  0.40000000000E+03 0.  1.
   -9000007    1    1    2    0  503  0.17786820278E+03 -0.97100596298E+02  0.93148311797E+03  0.10337922530E+04  0.40000000000E+03 0. -1.
<mgrwt>
<rscale>  2 0.44840342E+03</rscale>
<asrwt>0</asrwt>
<pdfrwt beam="1">  1       21 0.25003908E+00 0.44840342E+03</pdfrwt>
<pdfrwt beam="2">  1       21 0.19904008E-01 0.44840342E+03</pdfrwt>
<totfact> 0.12782546E+03</totfact>
</mgrwt>
</event>
<event>
 4    1  0.4758602E-002  0.4317043E+03  0.7818608E-02  0.1033323E+00
         21   -1    0    0  501  502  0.00000000000E+00  0.00000000000E+00  0.64743530854E+03  0.64743530854E+03  0.00000000000E+00 0.  1.
         21   -1    0    0  502  503 -0.00000000000E+00 -0.00000000000E+00 -0.29051339098E+03  0.29051339098E+03  0.00000000000E+00 0.  1.
    9000007    1    1    2  501    0 -0.98520954627E+02 -0.12908235115E+03  0.22330775468E+03  0.48604010655E+03  0.40000000000E+03 0.  1.
   -9000007    1    1    2    0  503  0.98520954627E+02  0.12908235115E+03  0.13361416288E+03  0.45190859297E+03  0.40000000000E+03 0.  1.
<mgrwt>
<rscale>  2 0.43170433E+03</rscale>
<asrwt>0</asrwt>
<pdfrwt beam="1">  1       21 0.99605432E-01 0.43170433E+03</pdfrwt>
<pdfrwt beam="2">  1       21 0.44694368E-01 0.43170433E+03</pdfrwt>
<totfact> 0.34953303E+03</totfact>
</mgrwt>
</event>
<event>
 4    1  0.4758602E-002  0.5859592E+03  0.7818608E-02  0.9934972E-01
         21   -1    0    0  501  502  0.00000000000E+00  0.00000000000E+00  0.26748560301E+03  0.26748560301E+03  0.00000000000E+00 0. -1.
         21   -1    0    0  502  503 -0.00000000000E+00 -0.00000000000E+00 -0.18132815463E+04  0.18132815463E+04  0.00000000000E+00 0. -1.
    9000007    1    1    2  501    0 -0.48634718730E+02 -0.42542076976E+03 -0.21060494496E+03  0.62265769894E+03  0.40000000000E+03 0. -1.
   -9000007    1    1    2    0  503  0.48634718730E+02  0.42542076976E+03 -0.13351909984E+04  0.14581094504E+04  0.40000000000E+03 0. -1.
<mgrwt>
<rscale>  2 0.58595919E+03</rscale>
<asrwt>0</asrwt>
<pdfrwt beam="1">  1       21 0.41151632E-01 0.58595919E+03</pdfrwt>
<pdfrwt beam="2">  1       21 0.27896639E+00 0.58595919E+03</pdfrwt>
<totfact> 0.18873667E+02</totfact>
</mgrwt>
</event>
<event>
 4    1  0.4758602E-002  0.4803965E+03  0.7818608E-02  0.1019026E+00
         21   -1    0    0  503  502  0.00000000000E+00  0.00000000000E+00  0.32062246925E+03  0.32062246925E+03  0.00000000000E+00 0. -1.
         21   -1    0    0  501  503 -0.00000000000E+00 -0.00000000000E+00 -0.71984147778E+03  0.71984147778E+03  0.00000000000E+00 0. -1.
    9000007    1    1    2  501    0 -0.23162514584E+03  0.13088395521E+03 -0.20401274748E+03  0.52192146828E+03  0.40000000000E+03 0. -1.
   -9000007    1    1    2    0  502  0.23162514584E+03 -0.13088395521E+03 -0.19520626105E+03  0.51854247875E+03  0.40000000000E+03 0. -1.
<mgrwt>
<rscale>  2 0.48039652E+03</rscale>
<asrwt>0</asrwt>
<pdfrwt beam="1">  1       21 0.49326534E-01 0.48039652E+03</pdfrwt>
<pdfrwt beam="2">  1       21 0.11074484E+00 0.48039652E+03</pdfrwt>
<totfact> 0.21492442E+03</totfact>
</mgrwt>
</event>
<event>
 4    1  0.4758602E-002  0.4707036E+03  0.7818608E-02  0.1021722E+00
         21   -1    0    0  501  502  0.00000000000E+00  0.00000000000E+00  0.89707407272E+03  0.89707407272E+03  0.00000000000E+00 0. -1.
         21   -1    0    0  502  503 -0.00000000000E+00 -0.00000000000E+00 -0.24698525600E+03  0.24698525600E+03  0.00000000000E+00 0.  1.
    9000007    1    1    2  501    0 -0.23145347362E+03 -0.89393394988E+02  0.32325010597E+03  0.57101008794E+03  0.40000000000E+03 0. -1.
   -9000007    1    1    2    0  503  0.23145347362E+03  0.89393394988E+02  0.32683871075E+03  0.57304924078E+03  0.40000000000E+03 0.  1.
<mgrwt>
<rscale>  2 0.47070361E+03</rscale>
<asrwt>0</asrwt>
<pdfrwt beam="1">  1       21 0.13801139E+00 0.47070361E+03</pdfrwt>
<pdfrwt beam="2">  1       21 0.37997732E-01 0.47070361E+03</pdfrwt>
<totfact> 0.21140823E+03</totfact>
</mgrwt>
</event>
<event>
 4    1  0.4758602E-002  0.4220440E+03  0.7818608E-02  0.1036403E+00
         21   -1    0    0  503  502  0.00000000000E+00  0.00000000000E+00  0.10086800118E+03  0.10086800118E+03  0.00000000000E+00 0. -1.
         21   -1    0    0  501  503 -0.00000000000E+00 -0.00000000000E+00 -0.17926630974E+04  0.17926630974E+04  0.00000000000E+00 0.  1.
    9000007    1    1    2  501    0 -0.11386292368E+03 -0.71808079445E+02 -0.73018166261E+03  0.84337798530E+03  0.40000000000E+03 0. -1.
   -9000007    1    1    2    0  502  0.11386292368E+03  0.71808079445E+02 -0.96161343358E+03  0.10501531133E+04  0.40000000000E+03 0.  1.
<mgrwt>
<rscale>  2 0.42204403E+03</rscale>
<asrwt>0</asrwt>
<pdfrwt beam="1">  1       21 0.15518156E-01 0.42204403E+03</pdfrwt>
<pdfrwt beam="2">  1       21 0.27579429E+00 0.42204403E+03</pdfrwt>
<totfact> 0.14427253E+03</totfact>
</mgrwt>
</event>
<event>
 4    1  0.4758602E-002  0.5149056E+03  0.7818608E-02  0.1009960E+00
         21   -1    0    0  501  502  0.00000000000E+00  0.00000000000E+00  0.73971219050E+03  0.73971219050E+03  0.00000000000E+00 0.  1.
         21   -1    0    0  502  503 -0.00000000000E+00 -0.00000000000E+00 -0.15030381563E+04  0.15030381563E+04  0.00000000000E+00 0.  1.
    9000007    1    1    2  501    0  0.32411569240E+03 -0.87604482488E+01  0.59691677404E+03  0.78831298521E+03  0.40000000000E+03 0.  1.
   -9000007    1    1    2    0  503 -0.32411569240E+03  0.87604482488E+01 -0.13602427399E+04  0.14544373616E+04  0.40000000000E+03 0.  1.
<mgrwt>
<rscale>  2 0.51490555E+03</rscale>
<asrwt>0</asrwt>
<pdfrwt beam="1">  1       21 0.11380188E+00 0.51490555E+03</pdfrwt>
<pdfrwt beam="2">  1       21 0.23123664E+00 0.51490555E+03</pdfrwt>
<totfact> 0.38429708E+01</totfact>
</mgrwt>
</event>
<event>
 4    1  0.4758602E-002  0.4294216E+03  0.7818608E-02  0.1034043E+00
         21   -1    0    0  501  502  0.00000000000E+00  0.00000000000E+00  0.73030921079E+03  0.73030921079E+03  0.00000000000E+00 0.  1.
         21   -1    0    0  502  503 -0.00000000000E+00 -0.00000000000E+00 -0.39832305181E+03  0.39832305181E+03  0.00000000000E+00 0.  1.
    9000007    1    1    2  501    0  0.14969794436E+03 -0.44648215462E+02  0.50743600404E+03  0.66475125866E+03  0.40000000000E+03 0.  1.
   -9000007    1    1    2    0  503 -0.14969794436E+03  0.44648215462E+02 -0.17544984506E+03  0.46388100395E+03  0.40000000000E+03 0.  1.
<mgrwt>
<rscale>  2 0.42942163E+03</rscale>
<asrwt>0</asrwt>
<pdfrwt beam="1">  1       21 0.11235526E+00 0.42942163E+03</pdfrwt>
<pdfrwt beam="2">  1       21 0.61280469E-01 0.42942163E+03</pdfrwt>
<totfact> 0.13232496E+03</totfact>
</mgrwt>
</event>
<event>
 4    1  0.4758602E-002  0.5284120E+03  0.7818608E-02  0.1006618E+00
         21   -1    0    0  503  502  0.00000000000E+00  0.00000000000E+00  0.33182233092E+03  0.33182233092E+03  0.00000000000E+00 0. -1.
         21   -1    0    0  501  503 -0.00000000000E+00 -0.00000000000E+00 -0.94148425445E+03  0.94148425445E+03  0.00000000000E+00 0. -1.
    9000007    1    1    2  501    0  0.32640933499E+03 -0.11258847865E+03 -0.51233327513E+03  0.73600584529E+03  0.40000000000E+03 0. -1.
   -9000007    1    1    2    0  502 -0.32640933499E+03  0.11258847865E+03 -0.97328648393E+02  0.53730074008E+03  0.40000000000E+03 0. -1.
<mgrwt>
<rscale>  2 0.52841198E+03</rscale>
<asrwt>0</asrwt>
<pdfrwt beam="1">  1       21 0.51049590E-01 0.52841198E+03</pdfrwt>
<pdfrwt beam="2">  1       21 0.14484373E+00 0.52841198E+03</pdfrwt>
<totfact> 0.98023729E+02</totfact>
</mgrwt>
</event>
<event>
 4    1  0.4758602E-002  0.4310421E+03  0.7818608E-02  0.1033531E+00
         21   -1    0    0  503  502  0.00000000000E+00  0.00000000000E+00  0.55316586283E+03  0.55316586283E+03  0.00000000000E+00 0. -1.
         21   -1    0    0  501  503 -0.00000000000E+00 -0.00000000000E+00 -0.48318641760E+03  0.48318641760E+03  0.00000000000E+00 0. -1.
    9000007    1    1    2  501    0  0.16028547470E+03 -0.10289037110E+02 -0.25111895246E+03  0.49885671888E+03  0.40000000000E+03 0. -1.
   -9000007    1    1    2    0  502 -0.16028547470E+03  0.10289037110E+02  0.32109839770E+03  0.53749556155E+03  0.40000000000E+03 0. -1.
<mgrwt>
<rscale>  2 0.43104211E+03</rscale>
<asrwt>0</asrwt>
<pdfrwt beam="1">  1       21 0.85102440E-01 0.43104211E+03</pdfrwt>
<pdfrwt beam="2">  1       21 0.74336372E-01 0.43104211E+03</pdfrwt>
<totfact> 0.16791279E+03</totfact>
</mgrwt>
</event>
<event>
 4    1  0.4758602E-002  0.4445858E+03  0.7818608E-02  0.1029349E+00
         21   -1    0    0  503  502  0.00000000000E+00  0.00000000000E+00  0.12996430086E+04  0.12996430086E+04  0.00000000000E+00 0.  1.
         21   -1    0    0  501  503 -0.00000000000E+00 -0.00000000000E+00 -0.31350479876E+03  0.31350479876E+03  0.00000000000E+00 0.  1.
    9000007    1    1    2  501    0 -0.19295844459E+03  0.20581726004E+02 -0.85693011784E+02  0.45276910346E+03  0.40000000000E+03 0.  1.
   -9000007    1    1    2    0  502  0.19295844459E+03 -0.20581726004E+02  0.10718312216E+04  0.11603787039E+04  0.40000000000E+03 0.  1.
<mgrwt>
<rscale>  2 0.44458584E+03</rscale>
<asrwt>0</asrwt>
<pdfrwt beam="1">  1       21 0.19994508E+00 0.44458584E+03</pdfrwt>
<pdfrwt beam="2">  1       21 0.48231508E-01 0.44458584E+03</pdfrwt>
<totfact> 0.45473160E+02</totfact>
</mgrwt>
</event>
<event>
 4    1  0.4758602E-002  0.4115188E+03  0.7818608E-02  0.1039863E+00
         21   -1    0    0  503  502  0.00000000000E+00  0.00000000000E+00  0.15744765868E+03  0.15744765868E+03  0.00000000000E+00 0.  1.
         21   -1    0    0  501  503 -0.00000000000E+00 -0.00000000000E+00 -0.11994060343E+04  0.11994060343E+04  0.00000000000E+00 0.  1.
    9000007    1    1    2  501    0 -0.51280017105E+02  0.81963840954E+02 -0.73896294083E+03  0.84582145829E+03  0.40000000000E+03 0.  1.
   -9000007    1    1    2    0  502  0.51280017105E+02 -0.81963840954E+02 -0.30299543475E+03  0.51103223466E+03  0.40000000000E+03 0.  1.
<mgrwt>
<rscale>  2 0.41151879E+03</rscale>
<asrwt>0</asrwt>
<pdfrwt beam="1">  1       21 0.24222717E-01 0.41151879E+03</pdfrwt>
<pdfrwt beam="2">  1       21 0.18452400E+00 0.41151879E+03</pdfrwt>
<totfact> 0.23618152E+03</totfact>
</mgrwt>
</event>
<event>
 4    1  0.4758602E-002  0.4469936E+03  0.7818608E-02  0.1028622E+00
         21   -1    0    0  503  502  0.00000000000E+00  0.00000000000E+00  0.21627670852E+03  0.21627670852E+03  0.00000000000E+00 0.  1.
         21   -1    0    0  501  503 -0.00000000000E+00 -0.00000000000E+00 -0.14043463850E+04  0.14043463850E+04  0.00000000000E+00 0.  1.
    9000007    1    1    2  501    0  0.15381428045E+03 -0.12706076736E+03 -0.10680238305E+04  0.11577902115E+04  0.40000000000E+03 0.  1.
   -9000007    1    1    2    0  502 -0.15381428045E+03  0.12706076736E+03 -0.12004584598E+03  0.46283288195E+03  0.40000000000E+03 0.  1.
<mgrwt>
<rscale>  2 0.44699359E+03</rscale>
<asrwt>0</asrwt>
<pdfrwt beam="1">  1       21 0.33273340E-01 0.44699359E+03</pdfrwt>
<pdfrwt beam="2">  1       21 0.21605329E+00 0.44699359E+03</pdfrwt>
<totfact> 0.76574004E+02</totfact>
</mgrwt>
</event>
<event>
 4    1  0.4758602E-002  0.4933312E+03  0.7818608E-02  0.1015534E+00
         21   -1    0    0  501  502  0.00000000000E+00  0.00000000000E+00  0.13117184775E+04  0.13117184775E+04  0.00000000000E+00 0.  1.
         21   -1    0    0  502  503 -0.00000000000E+00 -0.00000000000E+00 -0.19280166182E+03  0.19280166182E+03  0.00000000000E+00 0. -1.
    9000007    1    1    2  501    0  0.12958974332E+03 -0.25803525124E+03  0.41346163399E+03  0.64368176550E+03  0.40000000000E+03 0.  1.
   -9000007    1    1    2    0  503 -0.12958974332E+03  0.25803525124E+03  0.70545518167E+03  0.86083837379E+03  0.40000000000E+03 0.  1.
<mgrwt>
<rscale>  2 0.49333122E+03</rscale>
<asrwt>0</asrwt>
<pdfrwt beam="1">  1       21 0.20180284E+00 0.49333122E+03</pdfrwt>
<pdfrwt beam="2">  1       21 0.29661795E-01 0.49333122E+03</pdfrwt>
<totfact> 0.11697435E+03</totfact>
</mgrwt>
</event>
<event>
 4    1  0.4758602E-002  0.4163323E+03  0.7818608E-02  0.1038267E+00
         21   -1    0    0  503  502  0.00000000000E+00  0.00000000000E+00  0.18352535664E+04  0.18352535664E+04  0.00000000000E+00 0.  1.
         21   -1    0    0  501  503 -0.00000000000E+00 -0.00000000000E+00 -0.10452264194E+03  0.10452264194E+03  0.00000000000E+00 0.  1.
    9000007    1    1    2  501    0  0.58214637678E+02  0.99717748481E+02  0.11665078097E+04  0.12385770236E+04  0.40000000000E+03 0.  1.
   -9000007    1    1    2    0  502 -0.58214637678E+02 -0.99717748481E+02  0.56422311479E+03  0.70119918473E+03  0.40000000000E+03 0.  1.
<mgrwt>
<rscale>  2 0.41633229E+03</rscale>
<asrwt>0</asrwt>
<pdfrwt beam="1">  1       21 0.28234668E+00 0.41633229E+03</pdfrwt>
<pdfrwt beam="2">  1       21 0.16080408E-01 0.41633229E+03</pdfrwt>
<totfact> 0.12370793E+03</totfact>
</mgrwt>
</event>
<event>
 4    1  0.4758602E-002  0.5572362E+03  0.7818608E-02  0.9998328E-01
         21   -1    0    0  501  502  0.00000000000E+00  0.00000000000E+00  0.62555255922E+03  0.62555255922E+03  0.00000000000E+00 0.  1.
         21   -1    0    0  502  503 -0.00000000000E+00 -0.00000000000E+00 -0.63077942786E+03  0.63077942786E+03  0.00000000000E+00 0.  1.
    9000007    1    1    2  501    0  0.27412786131E+03 -0.27452888255E+03 -0.29257023965E+03  0.62937233561E+03  0.40000000000E+03 0.  1.
   -9000007    1    1    2    0  503 -0.27412786131E+03  0.27452888255E+03  0.28734337101E+03  0.62695965147E+03  0.40000000000E+03 0.  1.
<mgrwt>
<rscale>  2 0.55723621E+03</rscale>
<asrwt>0</asrwt>
<pdfrwt beam="1">  1       21 0.96238855E-01 0.55723621E+03</pdfrwt>
<pdfrwt beam="2">  1       21 0.97042989E-01 0.55723621E+03</pdfrwt>
<totfact> 0.64001859E+02</totfact>
</mgrwt>
</event>
<event>
 4    1  0.4758602E-002  0.5547111E+03  0.7818608E-02  0.1000409E+00
         21   -1    0    0  503  502  0.00000000000E+00  0.00000000000E+00  0.66376279140E+03  0.66376279140E+03  0.00000000000E+00 0.  1.
         21   -1    0    0  501  503 -0.00000000000E+00 -0.00000000000E+00 -0.13823429541E+04  0.13823429541E+04  0.00000000000E+00 0. -1.
    9000007    1    1    2  501    0  0.26457011412E+03 -0.27875985618E+03 -0.11933416342E+04  0.13159668152E+04  0.40000000000E+03 0. -1.
   -9000007    1    1    2    0  502 -0.26457011412E+03  0.27875985618E+03  0.47476147153E+03  0.73013893031E+03  0.40000000000E+03 0.  1.
<mgrwt>
<rscale>  2 0.55471110E+03</rscale>
<asrwt>0</asrwt>
<pdfrwt beam="1">  1       21 0.10211735E+00 0.55471110E+03</pdfrwt>
<pdfrwt beam="2">  1       21 0.21266814E+00 0.55471110E+03</pdfrwt>
<totfact> 0.64849058E+01</totfact>
</mgrwt>
</event>
<event>
 4    1  0.4758602E-002  0.4040849E+03  0.7818608E-02  0.1042374E+00
         21   -1    0    0  503  502  0.00000000000E+00  0.00000000000E+00  0.70334499734E+03  0.70334499734E+03  0.00000000000E+00 0.  1.
         21   -1    0    0  501  503 -0.00000000000E+00 -0.00000000000E+00 -0.13450197594E+04  0.13450197594E+04  0.00000000000E+00 0.  1.
    9000007    1    1    2  501    0  0.51796450848E+02 -0.24530344778E+02 -0.12524476912E+04  0.13160204517E+04  0.40000000000E+03 0.  1.
   -9000007    1    1    2    0  502 -0.51796450848E+02  0.24530344778E+02  0.61077292914E+03  0.73234430503E+03  0.40000000000E+03 0.  1.
<mgrwt>
<rscale>  2 0.40408490E+03</rscale>
<asrwt>0</asrwt>
<pdfrwt beam="1">  1       21 0.10820692E+00 0.40408490E+03</pdfrwt>
<pdfrwt beam="2">  1       21 0.20692612E+00 0.40408490E+03</pdfrwt>
<totfact> 0.66778720E+01</totfact>
</mgrwt>
</event>
<event>
 4    1  0.4758602E-002  0.5704349E+03  0.7818608E-02  0.9968717E-01
         21   -1    0    0  503  502  0.00000000000E+00  0.00000000000E+00  0.11227105033E+04  0.11227105033E+04  0.00000000000E+00 0.  1.
         21   -1    0    0  501  503 -0.00000000000E+00 -0.00000000000E+00 -0.41275407947E+03  0.41275407947E+03  0.00000000000E+00 0.  1.
    9000007    1    1    2  501    0 -0.19055276350E+03 -0.35928490023E+03 -0.63990246090E+02  0.57401284551E+03  0.40000000000E+03 0.  1.
   -9000007    1    1    2    0  502  0.19055276350E+03  0.35928490023E+03  0.77394666989E+03  0.96145173724E+03  0.40000000000E+03 0.  1.
<mgrwt>
<rscale>  2 0.57043492E+03</rscale>
<asrwt>0</asrwt>
<pdfrwt beam="1">  1       21 0.17272469E+00 0.57043492E+03</pdfrwt>
<pdfrwt beam="2">  1       21 0.63500628E-01 0.57043492E+03</pdfrwt>
<totfact> 0.36671608E+02</totfact>
</mgrwt>
</event>
<event>
 4    1  0.4758602E-002  0.4353548E+03  0.7818608E-02  0.1032182E+00
         21   -1    0    0  501  502  0.00000000000E+00  0.00000000000E+00  0.35223753832E+03  0.35223753832E+03  0.00000000000E+00 0.  1.
         21   -1    0    0  502  503 -0.00000000000E+00 -0.00000000000E+00 -0.88230239135E+03  0.88230239135E+03  0.00000000000E+00 0.  1.
    9000007    1    1    2  501    0 -0.17165731133E+03  0.82181272582E+01  0.12051939599E+03  0.45172856336E+03  0.40000000000E+03 0.  1.
   -9000007    1    1    2    0  503  0.17165731133E+03 -0.82181272582E+01 -0.65058424901E+03  0.78281136630E+03  0.40000000000E+03 0.  1.
<mgrwt>
<rscale>  2 0.43535476E+03</rscale>
<asrwt>0</asrwt>
<pdfrwt beam="1">  1       21 0.54190390E-01 0.43535476E+03</pdfrwt>
<pdfrwt beam="2">  1       21 0.13573883E+00 0.43535476E+03</pdfrwt>
<totfact> 0.10637187E+03</totfact>
</mgrwt>
</event>
<event>
 4    1  0.4758602E-002  0.5215389E+03  0.7818608E-02  0.1008305E+00
         21   -1    0    0  503  502  0.00000000000E+00  0.00000000000E+00  0.40822452212E+03  0.40822452212E+03  0.00000000000E+00 0.  1.
         21   -1    0    0  501  503 -0.00000000000E+00 -0.00000000000E+00 -0.71075268632E+03  0.71075268632E+03  0.00000000000E+00 0. -1.
    9000007    1    1    2  501    0 -0.31606334621E+03  0.11003070630E+03 -0.29117368852E+03  0.59731475123E+03  0.40000000000E+03 0. -1.
   -9000007    1    1    2    0  502  0.31606334621E+03 -0.11003070630E+03 -0.11354475675E+02  0.52166245721E+03  0.40000000000E+03 0.  1.
<mgrwt>
<rscale>  2 0.52153887E+03</rscale>
<asrwt>0</asrwt>
<pdfrwt beam="1">  1       21 0.62803773E-01 0.52153887E+03</pdfrwt>
<pdfrwt beam="2">  1       21 0.10934657E+00 0.52153887E+03</pdfrwt>
<totfact> 0.12949552E+03</totfact>
</mgrwt>
</event>
<event>
 4    1  0.4758602E-002  0.6099015E+03  0.7818608E-02  0.9885074E-01
         21   -1    0    0  501  502  0.00000000000E+00  0.00000000000E+00  0.58373916861E+03  0.58373916861E+03  0.00000000000E+00 0.  1.
         21   -1    0    0  502  503 -0.00000000000E+00 -0.00000000000E+00 -0.68324172746E+03  0.68324172746E+03  0.00000000000E+00 0.  1.
    9000007    1    1    2  501    0 -0.41017509070E+03 -0.20913203478E+03  0.11463183810E+03  0.62058059211E+03  0.40000000000E+03 0.  1.
   -9000007    1    1    2    0  503  0.41017509070E+03  0.20913203478E+03 -0.21413439695E+03  0.64640030396E+03  0.40000000000E+03 0.  1.
<mgrwt>
<rscale>  2 0.60990148E+03</rscale>
<asrwt>0</asrwt>
<pdfrwt beam="1">  1       21 0.89806026E-01 0.60990148E+03</pdfrwt>
<pdfrwt beam="2">  1       21 0.10511411E+00 0.60990148E+03</pdfrwt>
<totfact> 0.61037580E+02</totfact>
</mgrwt>
</event>
<event>
 4    1  0.4758602E-002  0.4132184E+03  0.7818608E-02  0.1039296E+00
         21   -1    0    0  501  502  0.00000000000E+00  0.00000000000E+00  0.37936151211E+03  0.37936151211E+03  0.00000000000E+00 0.  1.
         21   -1    0    0  502  503 -0.00000000000E+00 -0.00000000000E+00 -0.52646117121E+03  0.52646117121E+03  0.00000000000E+00 0.  1.
    9000007    1    1    2  501    0  0.51554404160E+02 -0.89953238198E+02  0.98944618423E+02  0.42489937534E+03  0.40000000000E+03 0.  1.
   -9000007    1    1    2    0  503 -0.51554404160E+02  0.89953238198E+02 -0.24604427753E+03  0.48092330798E+03  0.40000000000E+03 0.  1.
<mgrwt>
<rscale>  2 0.41321839E+03</rscale>
<asrwt>0</asrwt>
<pdfrwt beam="1">  1       21 0.58363310E-01 0.41321839E+03</pdfrwt>
<pdfrwt beam="2">  1       21 0.80994026E-01 0.41321839E+03</pdfrwt>
<totfact> 0.32493898E+03</totfact>
</mgrwt>
</event>
<event>
 4    1  0.4758602E-002  0.4334447E+03  0.7818608E-02  0.1032777E+00
         21   -1    0    0  501  502  0.00000000000E+00  0.00000000000E+00  0.57552562311E+03  0.57552562311E+03  0.00000000000E+00 0.  1.
         21   -1    0    0  502  503 -0.00000000000E+00 -0.00000000000E+00 -0.32660453286E+03  0.32660453286E+03  0.00000000000E+00 0.  1.
    9000007    1    1    2  501    0  0.73176118990E+02  0.15006533723E+03  0.13459713075E+03  0.45386202467E+03  0.40000000000E+03 0.  1.
   -9000007    1    1    2    0  503 -0.73176118990E+02 -0.15006533723E+03  0.11432395950E+03  0.44826813131E+03  0.40000000000E+03 0.  1.
<mgrwt>
<rscale>  2 0.43344475E+03</rscale>
<asrwt>0</asrwt>
<pdfrwt beam="1">  1       21 0.88542403E-01 0.43344475E+03</pdfrwt>
<pdfrwt beam="2">  1       21 0.50246851E-01 0.43344475E+03</pdfrwt>
<totfact> 0.36149643E+03</totfact>
</mgrwt>
</event>
<event>
 4    1  0.4758602E-002  0.4032450E+03  0.7818608E-02  0.1042662E+00
         21   -1    0    0  503  502  0.00000000000E+00  0.00000000000E+00  0.32940193729E+03  0.32940193729E+03  0.00000000000E+00 0. -1.
         21   -1    0    0  501  503 -0.00000000000E+00 -0.00000000000E+00 -0.84151964059E+03  0.84151964059E+03  0.00000000000E+00 0. -1.
    9000007    1    1    2  501    0  0.21661498327E+02 -0.46230715686E+02 -0.63248448739E+03  0.75009541151E+03  0.40000000000E+03 0. -1.
   -9000007    1    1    2    0  502 -0.21661498327E+02  0.46230715686E+02  0.12036678410E+03  0.42082616636E+03  0.40000000000E+03 0. -1.
<mgrwt>
<rscale>  2 0.40324496E+03</rscale>
<asrwt>0</asrwt>
<pdfrwt beam="1">  1       21 0.50677223E-01 0.40324496E+03</pdfrwt>
<pdfrwt beam="2">  1       21 0.12946456E+00 0.40324496E+03</pdfrwt>
<totfact> 0.14083880E+03</totfact>
</mgrwt>
</event>
<event>
 4    1  0.4758602E-002  0.4991100E+03  0.7818608E-02  0.1014011E+00
         21   -1    0    0  503  502  0.00000000000E+00  0.00000000000E+00  0.13047850100E+04  0.13047850100E+04  0.00000000000E+00 0.  1.
         21   -1    0    0  501  503 -0.00000000000E+00 -0.00000000000E+00 -0.19717122428E+03  0.19717122428E+03  0.00000000000E+00 0. -1.
    9000007    1    1    2  501    0 -0.14214129657E+03 -0.26250069065E+03  0.42009934349E+03  0.65237582664E+03  0.40000000000E+03 0.  1.
   -9000007    1    1    2    0  502  0.14214129657E+03  0.26250069065E+03  0.68751444220E+03  0.84958040762E+03  0.40000000000E+03 0.  1.
<mgrwt>
<rscale>  2 0.49910997E+03</rscale>
<asrwt>0</asrwt>
<pdfrwt beam="1">  1       21 0.20073615E+00 0.49910997E+03</pdfrwt>
<pdfrwt beam="2">  1       21 0.30334035E-01 0.49910997E+03</pdfrwt>
<totfact> 0.11345505E+03</totfact>
</mgrwt>
</event>
<event>
 4    1  0.4758602E-002  0.4998960E+03  0.7818608E-02  0.1013806E+00
         21   -1    0    0  503  502  0.00000000000E+00  0.00000000000E+00  0.14712071932E+04  0.14712071932E+04  0.00000000000E+00 0.  1.
         21   -1    0    0  501  503 -0.00000000000E+00 -0.00000000000E+00 -0.18552654065E+03  0.18552654065E+03  0.00000000000E+00 0.  1.
    9000007    1    1    2  501    0 -0.28536909280E+03  0.91980664553E+02  0.40210641934E+03  0.64154932332E+03  0.40000000000E+03 0.  1.
   -9000007    1    1    2    0  502  0.28536909280E+03 -0.91980664553E+02  0.88357423324E+03  0.10151844106E+04  0.40000000000E+03 0.  1.
<mgrwt>
<rscale>  2 0.49989595E+03</rscale>
<asrwt>0</asrwt>
<pdfrwt beam="1">  1       21 0.22633956E+00 0.49989595E+03</pdfrwt>
<pdfrwt beam="2">  1       21 0.28542546E-01 0.49989595E+03</pdfrwt>
<totfact> 0.87211108E+02</totfact>
</mgrwt>
</event>
<event>
 4    1  0.4758602E-002  0.4413058E+03  0.7818608E-02  0.1030347E+00
         21   -1    0    0  501  502  0.00000000000E+00  0.00000000000E+00  0.73022073143E+03  0.73022073143E+03  0.00000000000E+00 0. -1.
         21   -1    0    0  502  503 -0.00000000000E+00 -0.00000000000E+00 -0.16970609145E+04  0.16970609145E+04  0.00000000000E+00 0. -1.
    9000007    1    1    2  501    0 -0.28660527858E+02 -0.18419940373E+03  0.63078227015E+03  0.76982927882E+03  0.40000000000E+03 0. -1.
   -9000007    1    1    2    0  503  0.28660527858E+02  0.18419940373E+03 -0.15976224533E+04  0.16574523671E+04  0.40000000000E+03 0. -1.
<mgrwt>
<rscale>  2 0.44130584E+03</rscale>
<asrwt>0</asrwt>
<pdfrwt beam="1">  1       21 0.11234165E+00 0.44130584E+03</pdfrwt>
<pdfrwt beam="2">  1       21 0.26108629E+00 0.44130584E+03</pdfrwt>
<totfact> 0.27167881E+01</totfact>
</mgrwt>
</event>
<event>
 4    1  0.4758602E-002  0.4046281E+03  0.7818608E-02  0.1042189E+00
         21   -1    0    0  503  502  0.00000000000E+00  0.00000000000E+00  0.38156984664E+03  0.38156984664E+03  0.00000000000E+00 0. -1.
         21   -1    0    0  501  503 -0.00000000000E+00 -0.00000000000E+00 -0.64200324939E+03  0.64200324939E+03  0.00000000000E+00 0. -1.
    9000007    1    1    2  501    0  0.13867278690E+02 -0.59426921227E+02 -0.42495199338E+03  0.58677768964E+03  0.40000000000E+03 0. -1.
   -9000007    1    1    2    0  502 -0.13867278690E+02  0.59426921227E+02  0.16451859063E+03  0.43679540640E+03  0.40000000000E+03 0. -1.
<mgrwt>
<rscale>  2 0.40462805E+03</rscale>
<asrwt>0</asrwt>
<pdfrwt beam="1">  1       21 0.58703053E-01 0.40462805E+03</pdfrwt>
<pdfrwt beam="2">  1       21 0.98769731E-01 0.40462805E+03</pdfrwt>
<totfact> 0.20157473E+03</totfact>
</mgrwt>
</event>
<event>
 4    1  0.4758602E-002  0.4469829E+03  0.7818608E-02  0.1028626E+00
         21   -1    0    0  503  502  0.00000000000E+00  0.00000000000E+00  0.25951339958E+03  0.25951339958E+03  0.00000000000E+00 0. -1.
         21   -1    0    0  501  503 -0.00000000000E+00 -0.00000000000E+00 -0.20368860149E+04  0.20368860149E+04  0.00000000000E+00 0.  1.
    9000007    1    1    2  501    0  0.15398984049E+03  0.12681039667E+03 -0.17942597757E+04  0.18490975881E+04  0.40000000000E+03 0.  1.
   -9000007    1    1    2    0  502 -0.15398984049E+03 -0.12681039667E+03  0.16887160393E+02  0.44730182636E+03  0.40000000000E+03 0. -1.
<mgrwt>
<rscale>  2 0.44698294E+03</rscale>
<asrwt>0</asrwt>
<pdfrwt beam="1">  1       21 0.39925139E-01 0.44698294E+03</pdfrwt>
<pdfrwt beam="2">  1       21 0.31336708E+00 0.44698294E+03</pdfrwt>
<totfact> 0.13405511E+02</totfact>
</mgrwt>
</event>
<event>
 4    1  0.4758602E-002  0.4999011E+03  0.7818608E-02  0.1013805E+00
         21   -1    0    0  501  502  0.00000000000E+00  0.00000000000E+00  0.33266215632E+03  0.33266215632E+03  0.00000000000E+00 0.  1.
         21   -1    0    0  502  503 -0.00000000000E+00 -0.00000000000E+00 -0.75698089020E+03  0.75698089020E+03  0.00000000000E+00 0. -1.
    9000007    1    1    2  501    0 -0.28074460586E+03 -0.10527856912E+03 -0.25970492933E+03  0.56333627715E+03  0.40000000000E+03 0. -1.
   -9000007    1    1    2    0  503  0.28074460586E+03  0.10527856912E+03 -0.16461380456E+03  0.52630676937E+03  0.40000000000E+03 0.  1.
<mgrwt>
<rscale>  2 0.49990110E+03</rscale>
<asrwt>0</asrwt>
<pdfrwt beam="1">  1       21 0.51178793E-01 0.49990110E+03</pdfrwt>
<pdfrwt beam="2">  1       21 0.11645860E+00 0.49990110E+03</pdfrwt>
<totfact> 0.17398821E+03</totfact>
</mgrwt>
</event>
<event>
 4    1  0.4758602E-002  0.6741791E+03  0.7818608E-02  0.9762438E-01
         21   -1    0    0  501  502  0.00000000000E+00  0.00000000000E+00  0.21502877345E+03  0.21502877345E+03  0.00000000000E+00 0.  1.
         21   -1    0    0  502  503 -0.00000000000E+00 -0.00000000000E+00 -0.22554767050E+04  0.22554767050E+04  0.00000000000E+00 0. -1.
    9000007    1    1    2  501    0  0.15330008505E+03  0.52059250619E+03 -0.71058213874E+03  0.97951235289E+03  0.40000000000E+03 0.  1.
   -9000007    1    1    2    0  503 -0.15330008505E+03 -0.52059250619E+03 -0.13298657928E+04  0.14909931256E+04  0.40000000000E+03 0.  1.
<mgrwt>
<rscale>  2 0.67417911E+03</rscale>
<asrwt>0</asrwt>
<pdfrwt beam="1">  1       21 0.33081350E-01 0.67417911E+03</pdfrwt>
<pdfrwt beam="2">  1       21 0.34699641E+00 0.67417911E+03</pdfrwt>
<totfact> 0.10885136E+02</totfact>
</mgrwt>
</event>
<event>
 4    1  0.4758602E-002  0.4406560E+03  0.7818608E-02  0.1030546E+00
         21   -1    0    0  501  502  0.00000000000E+00  0.00000000000E+00  0.41288976892E+03  0.41288976892E+03  0.00000000000E+00 0.  1.
         21   -1    0    0  502  503 -0.00000000000E+00 -0.00000000000E+00 -0.65167803783E+03  0.65167803783E+03  0.00000000000E+00 0. -1.
    9000007    1    1    2  501    0 -0.46728392934E+02 -0.17886908304E+03  0.16142830102E+03  0.46929392490E+03  0.40000000000E+03 0.  1.
   -9000007    1    1    2    0  503  0.46728392934E+02  0.17886908304E+03 -0.40021656993E+03  0.59527388186E+03  0.40000000000E+03 0. -1.
<mgrwt>
<rscale>  2 0.44065598E+03</rscale>
<asrwt>0</asrwt>
<pdfrwt beam="1">  1       21 0.63521503E-01 0.44065598E+03</pdfrwt>
<pdfrwt beam="2">  1       21 0.10025816E+00 0.44065598E+03</pdfrwt>
<totfact> 0.16110902E+03</totfact>
</mgrwt>
</event>
<event>
 4    1  0.4758602E-002  0.4736547E+03  0.7818608E-02  0.1020894E+00
         21   -1    0    0  501  502  0.00000000000E+00  0.00000000000E+00  0.46666237242E+03  0.46666237242E+03  0.00000000000E+00 0.  1.
         21   -1    0    0  502  503 -0.00000000000E+00 -0.00000000000E+00 -0.50649786025E+03  0.50649786025E+03  0.00000000000E+00 0. -1.
    9000007    1    1    2  501    0  0.21705699419E+02  0.25274025247E+03  0.89785884996E+02  0.48208949143E+03  0.40000000000E+03 0.  1.
   -9000007    1    1    2    0  503 -0.21705699419E+02 -0.25274025247E+03 -0.12962137283E+03  0.49107074124E+03  0.40000000000E+03 0. -1.
<mgrwt>
<rscale>  2 0.47365470E+03</rscale>
<asrwt>0</asrwt>
<pdfrwt beam="1">  1       21 0.71794211E-01 0.47365470E+03</pdfrwt>
<pdfrwt beam="2">  1       21 0.77922748E-01 0.47365470E+03</pdfrwt>
<totfact> 0.21938545E+03</totfact>
</mgrwt>
</event>
<event>
 4    1  0.4758602E-002  0.7508055E+03  0.7818608E-02  0.9634088E-01
         21   -1    0    0  501  502  0.00000000000E+00  0.00000000000E+00  0.28349850680E+04  0.28349850680E+04  0.00000000000E+00 0. -1.
         21   -1    0    0  502  503 -0.00000000000E+00 -0.00000000000E+00 -0.24546723880E+03  0.24546723880E+03  0.00000000000E+00 0.  1.
    9000007    1    1    2  501    0 -0.49374806255E+03  0.39990208261E+03  0.19660438893E+04  0.21045278329E+04  0.40000000000E+03 0. -1.
   -9000007    1    1    2    0  503  0.49374806255E+03 -0.39990208261E+03  0.62347393989E+03  0.97592447385E+03  0.40000000000E+03 0.  1.
<mgrwt>
<rscale>  2 0.75080545E+03</rscale>
<asrwt>0</asrwt>
<pdfrwt beam="1">  1       21 0.43615153E+00 0.75080545E+03</pdfrwt>
<pdfrwt beam="2">  1       21 0.37764192E-01 0.75080545E+03</pdfrwt>
<totfact> 0.21312900E+01</totfact>
</mgrwt>
</event>
<event>
 4    1  0.4758602E-002  0.5919431E+03  0.7818608E-02  0.9922264E-01
         21   -1    0    0  501  502  0.00000000000E+00  0.00000000000E+00  0.36502213352E+03  0.36502213352E+03  0.00000000000E+00 0.  1.
         21   -1    0    0  502  503 -0.00000000000E+00 -0.00000000000E+00 -0.99766805573E+03  0.99766805573E+03  0.00000000000E+00 0.  1.
    9000007    1    1    2  501    0 -0.24144832101E+03 -0.36345477948E+03 -0.18381299552E+03  0.61982568982E+03  0.40000000000E+03 0.  1.
   -9000007    1    1    2    0  503  0.24144832101E+03  0.36345477948E+03 -0.44883292669E+03  0.74286449944E+03  0.40000000000E+03 0.  1.
<mgrwt>
<rscale>  2 0.59194313E+03</rscale>
<asrwt>0</asrwt>
<pdfrwt beam="1">  1       21 0.56157251E-01 0.59194313E+03</pdfrwt>
<pdfrwt beam="2">  1       21 0.15348739E+00 0.59194313E+03</pdfrwt>
<totfact> 0.66611464E+02</totfact>
</mgrwt>
</event>
<event>
 4    1  0.4758602E-002  0.4919062E+03  0.7818608E-02  0.1015913E+00
         21   -1    0    0  503  502  0.00000000000E+00  0.00000000000E+00  0.39816206564E+03  0.39816206564E+03  0.00000000000E+00 0. -1.
         21   -1    0    0  501  503 -0.00000000000E+00 -0.00000000000E+00 -0.67203727788E+03  0.67203727788E+03  0.00000000000E+00 0. -1.
    9000007    1    1    2  501    0 -0.18713473135E+03 -0.21668478121E+03 -0.30247507308E+03  0.57746244200E+03  0.40000000000E+03 0. -1.
   -9000007    1    1    2    0  502  0.18713473135E+03  0.21668478121E+03  0.28599860840E+02  0.49273690153E+03  0.40000000000E+03 0. -1.
<mgrwt>
<rscale>  2 0.49190619E+03</rscale>
<asrwt>0</asrwt>
<pdfrwt beam="1">  1       21 0.61255702E-01 0.49190619E+03</pdfrwt>
<pdfrwt beam="2">  1       21 0.10339035E+00 0.49190619E+03</pdfrwt>
<totfact> 0.15879889E+03</totfact>
</mgrwt>
</event>
<event>
 4    1  0.4758602E-002  0.4692342E+03  0.7818608E-02  0.1022137E+00
         21   -1    0    0  503  502  0.00000000000E+00  0.00000000000E+00  0.37632540617E+03  0.37632540617E+03  0.00000000000E+00 0.  1.
         21   -1    0    0  501  503 -0.00000000000E+00 -0.00000000000E+00 -0.58755485740E+03  0.58755485740E+03  0.00000000000E+00 0.  1.
    9000007    1    1    2  501    0 -0.23966669064E+03 -0.52351103233E+02 -0.13688818234E+03  0.48879355057E+03  0.40000000000E+03 0.  1.
   -9000007    1    1    2    0  502  0.23966669064E+03  0.52351103233E+02 -0.74341268884E+02  0.47508671300E+03  0.40000000000E+03 0.  1.
<mgrwt>
<rscale>  2 0.46923423E+03</rscale>
<asrwt>0</asrwt>
<pdfrwt beam="1">  1       21 0.57896217E-01 0.46923423E+03</pdfrwt>
<pdfrwt beam="2">  1       21 0.90393055E-01 0.46923423E+03</pdfrwt>
<totfact> 0.25053479E+03</totfact>
</mgrwt>
</event>
<event>
 4    1  0.4758602E-002  0.7605827E+03  0.7818608E-02  0.9618892E-01
         21   -1    0    0  501  502  0.00000000000E+00  0.00000000000E+00  0.25554860094E+04  0.25554860094E+04  0.00000000000E+00 0.  1.
         21   -1    0    0  502  503 -0.00000000000E+00 -0.00000000000E+00 -0.33842992523E+03  0.33842992523E+03  0.00000000000E+00 0. -1.
    9000007    1    1    2  501    0  0.62636921315E+03 -0.16170246648E+03  0.19411467440E+04  0.20848349481E+04  0.40000000000E+03 0.  1.
   -9000007    1    1    2    0  503 -0.62636921315E+03  0.16170246648E+03  0.27590934014E+03  0.80908098656E+03  0.40000000000E+03 0. -1.
<mgrwt>
<rscale>  2 0.76058272E+03</rscale>
<asrwt>0</asrwt>
<pdfrwt beam="1">  1       21 0.39315168E+00 0.76058272E+03</pdfrwt>
<pdfrwt beam="2">  1       21 0.52066144E-01 0.76058272E+03</pdfrwt>
<totfact> 0.20704823E+01</totfact>
</mgrwt>
</event>
<event>
 4    1  0.4758602E-002  0.4905968E+03  0.7818608E-02  0.1016263E+00
         21   -1    0    0  503  502  0.00000000000E+00  0.00000000000E+00  0.21097038701E+03  0.21097038701E+03  0.00000000000E+00 0.  1.
         21   -1    0    0  501  503 -0.00000000000E+00 -0.00000000000E+00 -0.11429814531E+04  0.11429814531E+04  0.00000000000E+00 0.  1.
    9000007    1    1    2  501    0 -0.16552973084E+03  0.23083573407E+03 -0.49525074194E+03  0.69710725524E+03  0.40000000000E+03 0.  1.
   -9000007    1    1    2    0  502  0.16552973084E+03 -0.23083573407E+03 -0.43676032414E+03  0.65684458486E+03  0.40000000000E+03 0.  1.
<mgrwt>
<rscale>  2 0.49059681E+03</rscale>
<asrwt>0</asrwt>
<pdfrwt beam="1">  1       21 0.32456982E-01 0.49059681E+03</pdfrwt>
<pdfrwt beam="2">  1       21 0.17584330E+00 0.49059681E+03</pdfrwt>
<totfact> 0.14775356E+03</totfact>
</mgrwt>
</event>
<event>
 4    1  0.4758602E-002  0.4889242E+03  0.7818608E-02  0.1016711E+00
         21   -1    0    0  501  502  0.00000000000E+00  0.00000000000E+00  0.16627074899E+03  0.16627074899E+03  0.00000000000E+00 0.  1.
         21   -1    0    0  502  503 -0.00000000000E+00 -0.00000000000E+00 -0.16043691459E+04  0.16043691459E+04  0.00000000000E+00 0.  1.
    9000007    1    1    2  501    0  0.28077668922E+03  0.14536509095E+02 -0.10044008418E+04  0.11170800823E+04  0.40000000000E+03 0. -1.
   -9000007    1    1    2    0  503 -0.28077668922E+03 -0.14536509095E+02 -0.43369755512E+03  0.65355981258E+03  0.40000000000E+03 0. -1.
<mgrwt>
<rscale>  2 0.48892419E+03</rscale>
<asrwt>0</asrwt>
<pdfrwt beam="1">  1       21 0.25580114E-01 0.48892419E+03</pdfrwt>
<pdfrwt beam="2">  1       21 0.24682603E+00 0.48892419E+03</pdfrwt>
<totfact> 0.80900676E+02</totfact>
</mgrwt>
</event>
<event>
 4    1  0.4758602E-002  0.4555339E+03  0.7818608E-02  0.1026085E+00
         21   -1    0    0  503  502  0.00000000000E+00  0.00000000000E+00  0.54290347724E+03  0.54290347724E+03  0.00000000000E+00 0. -1.
         21   -1    0    0  501  503 -0.00000000000E+00 -0.00000000000E+00 -0.40246919533E+03  0.40246919533E+03  0.00000000000E+00 0. -1.
    9000007    1    1    2  501    0  0.10178742715E+03  0.19274444971E+03 -0.35796197118E+02  0.45693814783E+03  0.40000000000E+03 0. -1.
   -9000007    1    1    2    0  502 -0.10178742715E+03 -0.19274444971E+03  0.17623047902E+03  0.48843452474E+03  0.40000000000E+03 0. -1.
<mgrwt>
<rscale>  2 0.45553387E+03</rscale>
<asrwt>0</asrwt>
<pdfrwt beam="1">  1       21 0.83523612E-01 0.45553387E+03</pdfrwt>
<pdfrwt beam="2">  1       21 0.61918338E-01 0.45553387E+03</pdfrwt>
<totfact> 0.26168149E+03</totfact>
</mgrwt>
</event>
<event>
 4    1  0.4758602E-002  0.4721600E+03  0.7818608E-02  0.1021312E+00
         21   -1    0    0  501  502  0.00000000000E+00  0.00000000000E+00  0.70918013666E+03  0.70918013666E+03  0.00000000000E+00 0. -1.
         21   -1    0    0  502  503 -0.00000000000E+00 -0.00000000000E+00 -0.32861082166E+03  0.32861082166E+03  0.00000000000E+00 0.  1.
    9000007    1    1    2  501    0  0.15001347285E+03  0.20107462877E+03  0.29835822261E+03  0.55852723960E+03  0.40000000000E+03 0. -1.
   -9000007    1    1    2    0  503 -0.15001347285E+03 -0.20107462877E+03  0.82211092385E+02  0.47926371872E+03  0.40000000000E+03 0.  1.
<mgrwt>
<rscale>  2 0.47215998E+03</rscale>
<asrwt>0</asrwt>
<pdfrwt beam="1">  1       21 0.10910464E+00 0.47215998E+03</pdfrwt>
<pdfrwt beam="2">  1       21 0.50555511E-01 0.47215998E+03</pdfrwt>
<totfact> 0.21228055E+03</totfact>
</mgrwt>
</event>
<event>
 4    1  0.4758602E-002  0.4013181E+03  0.7818608E-02  0.1043324E+00
         21   -1    0    0  501  502  0.00000000000E+00  0.00000000000E+00  0.74386655416E+03  0.74386655416E+03  0.00000000000E+00 0. -1.
         21   -1    0    0  502  503 -0.00000000000E+00 -0.00000000000E+00 -0.36422799478E+03  0.36422799478E+03  0.00000000000E+00 0. -1.
    9000007    1    1    2  501    0 -0.22145368877E+02 -0.23787310231E+02  0.54265576887E+03  0.67493076458E+03  0.40000000000E+03 0. -1.
   -9000007    1    1    2    0  503  0.22145368877E+02  0.23787310231E+02 -0.16301720949E+03  0.43316378436E+03  0.40000000000E+03 0. -1.
<mgrwt>
<rscale>  2 0.40131814E+03</rscale>
<asrwt>0</asrwt>
<pdfrwt beam="1">  1       21 0.11444101E+00 0.40131814E+03</pdfrwt>
<pdfrwt beam="2">  1       21 0.56035076E-01 0.40131814E+03</pdfrwt>
<totfact> 0.15549390E+03</totfact>
</mgrwt>
</event>
<event>
 4    1  0.4758602E-002  0.4547233E+03  0.7818608E-02  0.1026323E+00
         21   -1    0    0  501  502  0.00000000000E+00  0.00000000000E+00  0.16442515674E+04  0.16442515674E+04  0.00000000000E+00 0. -1.
         21   -1    0    0  502  503 -0.00000000000E+00 -0.00000000000E+00 -0.16617621663E+03  0.16617621663E+03  0.00000000000E+00 0. -1.
    9000007    1    1    2  501    0  0.77341676007E+01 -0.21613302771E+03  0.11854847755E+04  0.12697036883E+04  0.40000000000E+03 0. -1.
   -9000007    1    1    2    0  503 -0.77341676007E+01  0.21613302771E+03  0.29259057524E+03  0.54072409576E+03  0.40000000000E+03 0. -1.
<mgrwt>
<rscale>  2 0.45472333E+03</rscale>
<asrwt>0</asrwt>
<pdfrwt beam="1">  1       21 0.25296177E+00 0.45472333E+03</pdfrwt>
<pdfrwt beam="2">  1       21 0.25565573E-01 0.45472333E+03</pdfrwt>
<totfact> 0.75494127E+02</totfact>
</mgrwt>
</event>
<event>
 4    1  0.4758602E-002  0.4457473E+03  0.7818608E-02  0.1028998E+00
         21   -1    0    0  503  502  0.00000000000E+00  0.00000000000E+00  0.73299339031E+03  0.73299339031E+03  0.00000000000E+00 0. -1.
         21   -1    0    0  501  503 -0.00000000000E+00 -0.00000000000E+00 -0.31070727917E+03  0.31070727917E+03  0.00000000000E+00 0. -1.
    9000007    1    1    2  501    0  0.12837573152E+02  0.19628014799E+03  0.24747410492E+02  0.44643379588E+03  0.40000000000E+03 0. -1.
   -9000007    1    1    2    0  502 -0.12837573152E+02 -0.19628014799E+03  0.39753870065E+03  0.59726687360E+03  0.40000000000E+03 0. -1.
<mgrwt>
<rscale>  2 0.44574735E+03</rscale>
<asrwt>0</asrwt>
<pdfrwt beam="1">  1       21 0.11276821E+00 0.44574735E+03</pdfrwt>
<pdfrwt beam="2">  1       21 0.47801120E-01 0.44574735E+03</pdfrwt>
<totfact> 0.22240237E+03</totfact>
</mgrwt>
</event>
<event>
 4    1  0.4758602E-002  0.4448906E+03  0.7818608E-02  0.1029257E+00
         21   -1    0    0  501  502  0.00000000000E+00  0.00000000000E+00  0.78097159704E+02  0.78097159704E+02  0.00000000000E+00 0. -1.
         21   -1    0    0  502  503 -0.00000000000E+00 -0.00000000000E+00 -0.25354437282E+04  0.25354437282E+04  0.00000000000E+00 0. -1.
    9000007    1    1    2  501    0 -0.10299501686E+03 -0.16528652061E+03 -0.12554833595E+04  0.13319782556E+04  0.40000000000E+03 0. -1.
   -9000007    1    1    2    0  503  0.10299501686E+03  0.16528652061E+03 -0.12018632090E+04  0.12815626323E+04  0.40000000000E+03 0. -1.
<mgrwt>
<rscale>  2 0.44489056E+03</rscale>
<asrwt>0</asrwt>
<pdfrwt beam="1">  1       21 0.12014946E-01 0.44489056E+03</pdfrwt>
<pdfrwt beam="2">  1       21 0.39006834E+00 0.44489056E+03</pdfrwt>
<totfact> 0.45752164E+02</totfact>
</mgrwt>
</event>
<event>
 4    1  0.4758602E-002  0.8667836E+03  0.7818608E-02  0.9468083E-01
         21   -1    0    0  501  502  0.00000000000E+00  0.00000000000E+00  0.76706323284E+03  0.76706323284E+03  0.00000000000E+00 0.  1.
         21   -1    0    0  502  503 -0.00000000000E+00 -0.00000000000E+00 -0.99031921054E+03  0.99031921054E+03  0.00000000000E+00 0. -1.
    9000007    1    1    2  501    0 -0.10362470129E+03  0.76195518788E+03 -0.19648608266E+02  0.86700625999E+03  0.40000000000E+03 0.  1.
   -9000007    1    1    2    0  503  0.10362470129E+03 -0.76195518788E+03 -0.20360736943E+03  0.89037618339E+03  0.40000000000E+03 0. -1.
<mgrwt>
<rscale>  2 0.86678359E+03</rscale>
<asrwt>0</asrwt>
<pdfrwt beam="1">  1       21 0.11800973E+00 0.86678359E+03</pdfrwt>
<pdfrwt beam="2">  1       21 0.15235680E+00 0.86678359E+03</pdfrwt>
<totfact> 0.10902217E+02</totfact>
</mgrwt>
</event>
<event>
 4    1  0.4758602E-002  0.4245927E+03  0.7818608E-02  0.1035582E+00
         21   -1    0    0  503  502  0.00000000000E+00  0.00000000000E+00  0.12290591458E+03  0.12290591458E+03  0.00000000000E+00 0. -1.
         21   -1    0    0  501  503 -0.00000000000E+00 -0.00000000000E+00 -0.20485425269E+04  0.20485425269E+04  0.00000000000E+00 0. -1.
    9000007    1    1    2  501    0  0.13920440383E+03 -0.30018387632E+02 -0.15413946825E+04  0.15988047213E+04  0.40000000000E+03 0. -1.
   -9000007    1    1    2    0  502 -0.13920440383E+03  0.30018387632E+02 -0.38424192989E+03  0.57264372024E+03  0.40000000000E+03 0. -1.
<mgrwt>
<rscale>  2 0.42459271E+03</rscale>
<asrwt>0</asrwt>
<pdfrwt beam="1">  1       21 0.18908604E-01 0.42459271E+03</pdfrwt>
<pdfrwt beam="2">  1       21 0.31516037E+00 0.42459271E+03</pdfrwt>
<totfact> 0.57741122E+02</totfact>
</mgrwt>
</event>
<event>
 4    1  0.4758602E-002  0.4154731E+03  0.7818608E-02  0.1038550E+00
         21   -1    0    0  501  502  0.00000000000E+00  0.00000000000E+00  0.99552811725E+03  0.99552811725E+03  0.00000000000E+00 0. -1.
         21   -1    0    0  502  503 -0.00000000000E+00 -0.00000000000E+00 -0.20158375355E+03  0.20158375355E+03  0.00000000000E+00 0.  1.
    9000007    1    1    2  501    0 -0.10958152042E+03  0.24693265504E+02  0.62080734237E+03  0.74700711062E+03  0.40000000000E+03 0. -1.
   -9000007    1    1    2    0  503  0.10958152042E+03 -0.24693265504E+02  0.17313702133E+03  0.45010476018E+03  0.40000000000E+03 0.  1.
<mgrwt>
<rscale>  2 0.41547306E+03</rscale>
<asrwt>0</asrwt>
<pdfrwt beam="1">  1       21 0.15315817E+00 0.41547306E+03</pdfrwt>
<pdfrwt beam="2">  1       21 0.31012886E-01 0.41547306E+03</pdfrwt>
<totfact> 0.24603891E+03</totfact>
</mgrwt>
</event>
<event>
 4    1  0.4758602E-002  0.4262424E+03  0.7818608E-02  0.1035054E+00
         21   -1    0    0  501  502  0.00000000000E+00  0.00000000000E+00  0.30250252390E+03  0.30250252390E+03  0.00000000000E+00 0.  1.
         21   -1    0    0  502  503 -0.00000000000E+00 -0.00000000000E+00 -0.69445453473E+03  0.69445453473E+03  0.00000000000E+00 0. -1.
    9000007    1    1    2  501    0 -0.14011562024E+03  0.45279501124E+02 -0.12721270793E+02  0.42643223493E+03  0.40000000000E+03 0.  1.
   -9000007    1    1    2    0  503  0.14011562024E+03 -0.45279501124E+02 -0.37923074004E+03  0.57052482369E+03  0.40000000000E+03 0. -1.
<mgrwt>
<rscale>  2 0.42624244E+03</rscale>
<asrwt>0</asrwt>
<pdfrwt beam="1">  1       21 0.46538851E-01 0.42624244E+03</pdfrwt>
<pdfrwt beam="2">  1       21 0.10683916E+00 0.42624244E+03</pdfrwt>
<totfact> 0.27101920E+03</totfact>
</mgrwt>
</event>
<event>
 4    1  0.4758602E-002  0.4677805E+03  0.7818608E-02  0.1022549E+00
         21   -1    0    0  503  502  0.00000000000E+00  0.00000000000E+00  0.15835694508E+03  0.15835694508E+03  0.00000000000E+00 0.  1.
         21   -1    0    0  501  503 -0.00000000000E+00 -0.00000000000E+00 -0.13881368839E+04  0.13881368839E+04  0.00000000000E+00 0.  1.
    9000007    1    1    2  501    0 -0.20679153460E+03 -0.12671173217E+03 -0.66710900035E+03  0.81477175958E+03  0.40000000000E+03 0.  1.
   -9000007    1    1    2    0  502  0.20679153460E+03  0.12671173217E+03 -0.56267093842E+03  0.73172206936E+03  0.40000000000E+03 0.  1.
<mgrwt>
<rscale>  2 0.46778051E+03</rscale>
<asrwt>0</asrwt>
<pdfrwt beam="1">  1       21 0.24362607E-01 0.46778051E+03</pdfrwt>
<pdfrwt beam="2">  1       21 0.21355952E+00 0.46778051E+03</pdfrwt>
<totfact> 0.14571484E+03</totfact>
</mgrwt>
</event>
<event>
 4    1  0.4758602E-002  0.4285237E+03  0.7818608E-02  0.1034327E+00
         21   -1    0    0  501  502  0.00000000000E+00  0.00000000000E+00  0.67394376865E+03  0.67394376865E+03  0.00000000000E+00 0.  1.
         21   -1    0    0  502  503 -0.00000000000E+00 -0.00000000000E+00 -0.27377904281E+03  0.27377904281E+03  0.00000000000E+00 0.  1.
    9000007    1    1    2  501    0 -0.11471470754E+03  0.10233830868E+03  0.23279045204E+03  0.48767200874E+03  0.40000000000E+03 0.  1.
   -9000007    1    1    2    0  503  0.11471470754E+03 -0.10233830868E+03  0.16737427381E+03  0.46005080272E+03  0.40000000000E+03 0.  1.
<mgrwt>
<rscale>  2 0.42852374E+03</rscale>
<asrwt>0</asrwt>
<pdfrwt beam="1">  1       21 0.10368366E+00 0.42852374E+03</pdfrwt>
<pdfrwt beam="2">  1       21 0.42119853E-01 0.42852374E+03</pdfrwt>
<totfact> 0.35900340E+03</totfact>
</mgrwt>
</event>
<event>
 4    1  0.4758602E-002  0.4636494E+03  0.7818608E-02  0.1023728E+00
         21   -1    0    0  501  502  0.00000000000E+00  0.00000000000E+00  0.34967922356E+03  0.34967922356E+03  0.00000000000E+00 0. -1.
         21   -1    0    0  502  503 -0.00000000000E+00 -0.00000000000E+00 -0.84006674441E+03  0.84006674441E+03  0.00000000000E+00 0. -1.
    9000007    1    1    2  501    0 -0.23054213008E+03  0.42674705279E+02  0.62875893166E+02  0.46789334485E+03  0.40000000000E+03 0. -1.
   -9000007    1    1    2    0  503  0.23054213008E+03 -0.42674705279E+02 -0.55326341402E+03  0.72185262312E+03  0.40000000000E+03 0. -1.
<mgrwt>
<rscale>  2 0.46364944E+03</rscale>
<asrwt>0</asrwt>
<pdfrwt beam="1">  1       21 0.53796805E-01 0.46364944E+03</pdfrwt>
<pdfrwt beam="2">  1       21 0.12924103E+00 0.46364944E+03</pdfrwt>
<totfact> 0.12134860E+03</totfact>
</mgrwt>
</event>
<event>
 4    1  0.4758602E-002  0.5508914E+03  0.7818608E-02  0.1001288E+00
         21   -1    0    0  501  502  0.00000000000E+00  0.00000000000E+00  0.34306051310E+03  0.34306051310E+03  0.00000000000E+00 0. -1.
         21   -1    0    0  502  503 -0.00000000000E+00 -0.00000000000E+00 -0.90641299535E+03  0.90641299535E+03  0.00000000000E+00 0.  1.
    9000007    1    1    2  501    0 -0.17378393731E+03 -0.33657169668E+03 -0.37852638867E+03  0.66840376330E+03  0.40000000000E+03 0.  1.
   -9000007    1    1    2    0  503  0.17378393731E+03  0.33657169668E+03 -0.18482609358E+03  0.58106974516E+03  0.40000000000E+03 0. -1.
<mgrwt>
<rscale>  2 0.55089143E+03</rscale>
<asrwt>0</asrwt>
<pdfrwt beam="1">  1       21 0.52778540E-01 0.55089143E+03</pdfrwt>
<pdfrwt beam="2">  1       21 0.13944815E+00 0.55089143E+03</pdfrwt>
<totfact> 0.10027499E+03</totfact>
</mgrwt>
</event>
<event>
 4    1  0.4758602E-002  0.6453550E+03  0.7818608E-02  0.9815534E-01
         21   -1    0    0  503  502  0.00000000000E+00  0.00000000000E+00  0.19522571303E+04  0.19522571303E+04  0.00000000000E+00 0. -1.
         21   -1    0    0  501  503 -0.00000000000E+00 -0.00000000000E+00 -0.21489708221E+03  0.21489708221E+03  0.00000000000E+00 0.  1.
    9000007    1    1    2  501    0 -0.19600713063E+03  0.46697350393E+03  0.77626993492E+03  0.10094939626E+04  0.40000000000E+03 0.  1.
   -9000007    1    1    2    0  502  0.19600713063E+03 -0.46697350393E+03  0.96109011315E+03  0.11576602499E+04  0.40000000000E+03 0. -1.
<mgrwt>
<rscale>  2 0.64535498E+03</rscale>
<asrwt>0</asrwt>
<pdfrwt beam="1">  1       21 0.30034724E+00 0.64535498E+03</pdfrwt>
<pdfrwt beam="2">  1       21 0.33061091E-01 0.64535498E+03</pdfrwt>
<totfact> 0.21354728E+02</totfact>
</mgrwt>
</event>
<event>
 4    1  0.4758602E-002  0.4386585E+03  0.7818608E-02  0.1031159E+00
         21   -1    0    0  503  502  0.00000000000E+00  0.00000000000E+00  0.30164092615E+03  0.30164092615E+03  0.00000000000E+00 0.  1.
         21   -1    0    0  501  503 -0.00000000000E+00 -0.00000000000E+00 -0.94311010355E+03  0.94311010355E+03  0.00000000000E+00 0.  1.
    9000007    1    1    2  501    0  0.21415360019E+02 -0.17878109985E+03 -0.67478085178E+03  0.80482948333E+03  0.40000000000E+03 0.  1.
   -9000007    1    1    2    0  502 -0.21415360019E+02  0.17878109985E+03  0.33311674386E+02  0.43992154637E+03  0.40000000000E+03 0.  1.
<mgrwt>
<rscale>  2 0.43865852E+03</rscale>
<asrwt>0</asrwt>
<pdfrwt beam="1">  1       21 0.46406296E-01 0.43865852E+03</pdfrwt>
<pdfrwt beam="2">  1       21 0.14509386E+00 0.43865852E+03</pdfrwt>
<totfact> 0.12372998E+03</totfact>
</mgrwt>
</event>
<event>
 4    1  0.4758602E-002  0.4369821E+03  0.7818608E-02  0.1031677E+00
         21   -1    0    0  501  502  0.00000000000E+00  0.00000000000E+00  0.14027769039E+04  0.14027769039E+04  0.00000000000E+00 0. -1.
         21   -1    0    0  502  503 -0.00000000000E+00 -0.00000000000E+00 -0.13842651473E+03  0.13842651473E+03  0.00000000000E+00 0. -1.
    9000007    1    1    2  501    0  0.17562785153E+03  0.10403057498E+02  0.73153323196E+03  0.85211163312E+03  0.40000000000E+03 0. -1.
   -9000007    1    1    2    0  503 -0.17562785153E+03 -0.10403057498E+02  0.53281715723E+03  0.68909178552E+03  0.40000000000E+03 0. -1.
<mgrwt>
<rscale>  2 0.43698211E+03</rscale>
<asrwt>0</asrwt>
<pdfrwt beam="1">  1       21 0.21581182E+00 0.43698211E+03</pdfrwt>
<pdfrwt beam="2">  1       21 0.21296388E-01 0.43698211E+03</pdfrwt>
<totfact> 0.18514952E+03</totfact>
</mgrwt>
</event>
<event>
 4    1  0.4758602E-002  0.4279738E+03  0.7818608E-02  0.1034502E+00
         21   -1    0    0  501  502  0.00000000000E+00  0.00000000000E+00  0.25507052547E+03  0.25507052547E+03  0.00000000000E+00 0.  1.
         21   -1    0    0  502  503 -0.00000000000E+00 -0.00000000000E+00 -0.15853060049E+04  0.15853060049E+04  0.00000000000E+00 0.  1.
    9000007    1    1    2  501    0 -0.12333874757E+03  0.89157960838E+02  0.15472550223E+02  0.42825341615E+03  0.40000000000E+03 0.  1.
   -9000007    1    1    2    0  503  0.12333874757E+03 -0.89157960838E+02 -0.13457080297E+04  0.14121231142E+04  0.40000000000E+03 0.  1.
<mgrwt>
<rscale>  2 0.42797382E+03</rscale>
<asrwt>0</asrwt>
<pdfrwt beam="1">  1       21 0.39241619E-01 0.42797382E+03</pdfrwt>
<pdfrwt beam="2">  1       21 0.24389324E+00 0.42797382E+03</pdfrwt>
<totfact> 0.36964733E+02</totfact>
</mgrwt>
</event>
<event>
 4    1  0.4758602E-002  0.4709938E+03  0.7818608E-02  0.1021640E+00
         21   -1    0    0  503  502  0.00000000000E+00  0.00000000000E+00  0.36215319951E+03  0.36215319951E+03  0.00000000000E+00 0. -1.
         21   -1    0    0  501  503 -0.00000000000E+00 -0.00000000000E+00 -0.79274258334E+03  0.79274258334E+03  0.00000000000E+00 0.  1.
    9000007    1    1    2  501    0 -0.22288265620E+03 -0.11026533657E+03 -0.49060420364E+03  0.68009382258E+03  0.40000000000E+03 0.  1.
   -9000007    1    1    2    0  502  0.22288265620E+03  0.11026533657E+03  0.60014819808E+02  0.47480196028E+03  0.40000000000E+03 0. -1.
<mgrwt>
<rscale>  2 0.47099376E+03</rscale>
<asrwt>0</asrwt>
<pdfrwt beam="1">  1       21 0.55715878E-01 0.47099376E+03</pdfrwt>
<pdfrwt beam="2">  1       21 0.12196040E+00 0.47099376E+03</pdfrwt>
<totfact> 0.13026017E+03</totfact>
</mgrwt>
</event>
<event>
 4    1  0.4758602E-002  0.4177365E+03  0.7818608E-02  0.1037806E+00
         21   -1    0    0  503  502  0.00000000000E+00  0.00000000000E+00  0.44817874087E+03  0.44817874087E+03  0.00000000000E+00 0.  1.
         21   -1    0    0  501  503 -0.00000000000E+00 -0.00000000000E+00 -0.42435393522E+03  0.42435393522E+03  0.00000000000E+00 0.  1.
    9000007    1    1    2  501    0 -0.12034980930E+03 -0.44376734700E+01 -0.11336466708E+03  0.43284560444E+03  0.40000000000E+03 0. -1.
   -9000007    1    1    2    0  502  0.12034980930E+03  0.44376734700E+01  0.13718947272E+03  0.43968707164E+03  0.40000000000E+03 0. -1.
<mgrwt>
<rscale>  2 0.41773648E+03</rscale>
<asrwt>0</asrwt>
<pdfrwt beam="1">  1       21 0.68950576E-01 0.41773648E+03</pdfrwt>
<pdfrwt beam="2">  1       21 0.65285220E-01 0.41773648E+03</pdfrwt>
<totfact> 0.36572878E+03</totfact>
</mgrwt>
</event>
<event>
 4    1  0.4758602E-002  0.5618674E+03  0.7818608E-02  0.9987838E-01
         21   -1    0    0  501  502  0.00000000000E+00  0.00000000000E+00  0.55720015379E+03  0.55720015379E+03  0.00000000000E+00 0.  1.
         21   -1    0    0  502  503 -0.00000000000E+00 -0.00000000000E+00 -0.57153571676E+03  0.57153571676E+03  0.00000000000E+00 0.  1.
    9000007    1    1    2  501    0 -0.34362011732E+03  0.19395918164E+03  0.45418206756E+02  0.56370006446E+03  0.40000000000E+03 0.  1.
   -9000007    1    1    2    0  503  0.34362011732E+03 -0.19395918164E+03 -0.59753769720E+02  0.56503580609E+03  0.40000000000E+03 0.  1.
<mgrwt>
<rscale>  2 0.56186738E+03</rscale>
<asrwt>0</asrwt>
<pdfrwt beam="1">  1       21 0.85723100E-01 0.56186738E+03</pdfrwt>
<pdfrwt beam="2">  1       21 0.87928573E-01 0.56186738E+03</pdfrwt>
<totfact> 0.10667146E+03</totfact>
</mgrwt>
</event>
<event>
 4    1  0.4758602E-002  0.4642458E+03  0.7818608E-02  0.1023557E+00
         21   -1    0    0  501  502  0.00000000000E+00  0.00000000000E+00  0.64590946527E+03  0.64590946527E+03  0.00000000000E+00 0. -1.
         21   -1    0    0  502  503 -0.00000000000E+00 -0.00000000000E+00 -0.41802393716E+03  0.41802393716E+03  0.00000000000E+00 0. -1.
    9000007    1    1    2  501    0 -0.23430918326E+03  0.24967162896E+02  0.35290123866E+03  0.58314958358E+03  0.40000000000E+03 0.  1.
   -9000007    1    1    2    0  503  0.23430918326E+03 -0.24967162896E+02 -0.12501571056E+03  0.48078381885E+03  0.40000000000E+03 0.  1.
<mgrwt>
<rscale>  2 0.46424579E+03</rscale>
<asrwt>0</asrwt>
<pdfrwt beam="1">  1       21 0.99370687E-01 0.46424579E+03</pdfrwt>
<pdfrwt beam="2">  1       21 0.64311375E-01 0.46424579E+03</pdfrwt>
<totfact> 0.15872144E+03</totfact>
</mgrwt>
</event>
<event>
 4    1  0.4758602E-002  0.4649425E+03  0.7818608E-02  0.1023357E+00
         21   -1    0    0  501  502  0.00000000000E+00  0.00000000000E+00  0.78625399940E+03  0.78625399940E+03  0.00000000000E+00 0. -1.
         21   -1    0    0  502  503 -0.00000000000E+00 -0.00000000000E+00 -0.50990175517E+03  0.50990175517E+03  0.00000000000E+00 0.  1.
    9000007    1    1    2  501    0  0.11041285575E+03 -0.20971530297E+03  0.57810645214E+03  0.74187504138E+03  0.40000000000E+03 0. -1.
   -9000007    1    1    2    0  503 -0.11041285575E+03  0.20971530297E+03 -0.30175420792E+03  0.55428071319E+03  0.40000000000E+03 0.  1.
<mgrwt>
<rscale>  2 0.46494248E+03</rscale>
<asrwt>0</asrwt>
<pdfrwt beam="1">  1       21 0.12096215E+00 0.46494248E+03</pdfrwt>
<pdfrwt beam="2">  1       21 0.78446423E-01 0.46494248E+03</pdfrwt>
<totfact> 0.62134476E+02</totfact>
</mgrwt>
</event>
<event>
 4    1  0.4758602E-002  0.5567613E+03  0.7818608E-02  0.9999410E-01
         21   -1    0    0  501  502  0.00000000000E+00  0.00000000000E+00  0.17116911675E+04  0.17116911675E+04  0.00000000000E+00 0. -1.
         21   -1    0    0  502  503 -0.00000000000E+00 -0.00000000000E+00 -0.19908267096E+03  0.19908267096E+03  0.00000000000E+00 0.  1.
    9000007    1    1    2  501    0  0.31129182746E+03  0.23039203629E+03  0.10434610674E+04  0.11827062575E+04  0.40000000000E+03 0. -1.
   -9000007    1    1    2    0  503 -0.31129182746E+03 -0.23039203629E+03  0.46914742909E+03  0.72806758096E+03  0.40000000000E+03 0.  1.
<mgrwt>
<rscale>  2 0.55676125E+03</rscale>
<asrwt>0</asrwt>
<pdfrwt beam="1">  1       21 0.26333709E+00 0.55676125E+03</pdfrwt>
<pdfrwt beam="2">  1       21 0.30628104E-01 0.55676125E+03</pdfrwt>
<totfact> 0.43507596E+02</totfact>
</mgrwt>
</event>
<event>
 4    1  0.4758602E-002  0.7722711E+03  0.7818608E-02  0.9601044E-01
         21   -1    0    0  501  502  0.00000000000E+00  0.00000000000E+00  0.66793439435E+03  0.66793439435E+03  0.00000000000E+00 0. -1.
         21   -1    0    0  502  503 -0.00000000000E+00 -0.00000000000E+00 -0.89827300426E+03  0.89827300426E+03  0.00000000000E+00 0.  1.
    9000007    1    1    2  501    0  0.61283542838E+03  0.24664827068E+03 -0.17570072553E+03  0.79200591959E+03  0.40000000000E+03 0. -1.
   -9000007    1    1    2    0  503 -0.61283542838E+03 -0.24664827068E+03 -0.54637884380E+02  0.77420147902E+03  0.40000000000E+03 0.  1.
<mgrwt>
<rscale>  2 0.77227109E+03</rscale>
<asrwt>0</asrwt>
<pdfrwt beam="1">  1       21 0.10275914E+00 0.77227109E+03</pdfrwt>
<pdfrwt beam="2">  1       21 0.13819585E+00 0.77227109E+03</pdfrwt>
<totfact> 0.20723830E+02</totfact>
</mgrwt>
</event>
<event>
 4    1  0.4758602E-002  0.4101735E+03  0.7818608E-02  0.1040313E+00
         21   -1    0    0  503  502  0.00000000000E+00  0.00000000000E+00  0.89735873272E+03  0.89735873272E+03  0.00000000000E+00 0.  1.
         21   -1    0    0  501  503 -0.00000000000E+00 -0.00000000000E+00 -0.19013625315E+03  0.19013625315E+03  0.00000000000E+00 0.  1.
    9000007    1    1    2  501    0  0.84725337765E+02  0.32617200995E+02  0.41780643438E+03  0.58549507365E+03  0.40000000000E+03 0. -1.
   -9000007    1    1    2    0  502 -0.84725337765E+02 -0.32617200995E+02  0.28941604518E+03  0.50199991222E+03  0.40000000000E+03 0. -1.
<mgrwt>
<rscale>  2 0.41017346E+03</rscale>
<asrwt>0</asrwt>
<pdfrwt beam="1">  1       21 0.13805519E+00 0.41017346E+03</pdfrwt>
<pdfrwt beam="2">  1       21 0.29251732E-01 0.41017346E+03</pdfrwt>
<totfact> 0.36586001E+03</totfact>
</mgrwt>
</event>
<event>
 4    1  0.4758602E-002  0.4358692E+03  0.7818608E-02  0.1032022E+00
         21   -1    0    0  501  502  0.00000000000E+00  0.00000000000E+00  0.54927367297E+03  0.54927367297E+03  0.00000000000E+00 0.  1.
         21   -1    0    0  502  503 -0.00000000000E+00 -0.00000000000E+00 -0.34671999372E+03  0.34671999372E+03  0.00000000000E+00 0.  1.
    9000007    1    1    2  501    0 -0.16139245354E+03 -0.62725343091E+02  0.12334635475E+03  0.45298599973E+03  0.40000000000E+03 0. -1.
   -9000007    1    1    2    0  503  0.16139245354E+03  0.62725343091E+02  0.79207324507E+02  0.44300766696E+03  0.40000000000E+03 0. -1.
<mgrwt>
<rscale>  2 0.43586924E+03</rscale>
<asrwt>0</asrwt>
<pdfrwt beam="1">  1       21 0.84503642E-01 0.43586924E+03</pdfrwt>
<pdfrwt beam="2">  1       21 0.53341537E-01 0.43586924E+03</pdfrwt>
<totfact> 0.35468216E+03</totfact>
</mgrwt>
</event>
<event>
 4    1  0.4758602E-002  0.4415303E+03  0.7818608E-02  0.1030278E+00
         21   -1    0    0  501  502  0.00000000000E+00  0.00000000000E+00  0.18144126387E+03  0.18144126387E+03  0.00000000000E+00 0.  1.
         21   -1    0    0  502  503 -0.00000000000E+00 -0.00000000000E+00 -0.11904058032E+04  0.11904058032E+04  0.00000000000E+00 0.  1.
    9000007    1    1    2  501    0 -0.13998363915E+03  0.12390941650E+03 -0.71856451746E+03  0.84337650459E+03  0.40000000000E+03 0.  1.
   -9000007    1    1    2    0  503  0.13998363915E+03 -0.12390941650E+03 -0.29040002188E+03  0.52847056251E+03  0.40000000000E+03 0.  1.
<mgrwt>
<rscale>  2 0.44153025E+03</rscale>
<asrwt>0</asrwt>
<pdfrwt beam="1">  1       21 0.27914041E-01 0.44153025E+03</pdfrwt>
<pdfrwt beam="2">  1       21 0.18313935E+00 0.44153025E+03</pdfrwt>
<totfact> 0.18069392E+03</totfact>
</mgrwt>
</event>
<event>
 4    1  0.4758602E-002  0.4506732E+03  0.7818608E-02  0.1027521E+00
         21   -1    0    0  503  502  0.00000000000E+00  0.00000000000E+00  0.28143312404E+03  0.28143312404E+03  0.00000000000E+00 0.  1.
         21   -1    0    0  501  503 -0.00000000000E+00 -0.00000000000E+00 -0.73493044979E+03  0.73493044979E+03  0.00000000000E+00 0. -1.
    9000007    1    1    2  501    0 -0.11933824351E+03  0.16989617677E+03 -0.15852830353E+03  0.47774213784E+03  0.40000000000E+03 0.  1.
   -9000007    1    1    2    0  502  0.11933824351E+03 -0.16989617677E+03 -0.29496902222E+03  0.53862143600E+03  0.40000000000E+03 0.  1.
<mgrwt>
<rscale>  2 0.45067319E+03</rscale>
<asrwt>0</asrwt>
<pdfrwt beam="1">  1       21 0.43297404E-01 0.45067319E+03</pdfrwt>
<pdfrwt beam="2">  1       21 0.11306622E+00 0.45067319E+03</pdfrwt>
<totfact> 0.27142306E+03</totfact>
</mgrwt>
</event>
<event>
 4    1  0.4758602E-002  0.4870624E+03  0.7818608E-02  0.1017212E+00
         21   -1    0    0  501  502  0.00000000000E+00  0.00000000000E+00  0.22262504727E+04  0.22262504727E+04  0.00000000000E+00 0.  1.
         21   -1    0    0  502  503 -0.00000000000E+00 -0.00000000000E+00 -0.11780038151E+03  0.11780038151E+03  0.00000000000E+00 0.  1.
    9000007    1    1    2  501    0  0.25270126364E+03 -0.11563683180E+03  0.69219101619E+03  0.84637947069E+03  0.40000000000E+03 0.  1.
   -9000007    1    1    2    0  503 -0.25270126364E+03  0.11563683180E+03  0.14162590750E+04  0.14976713835E+04  0.40000000000E+03 0.  1.
<mgrwt>
<rscale>  2 0.48706242E+03</rscale>
<asrwt>0</asrwt>
<pdfrwt beam="1">  1       21 0.34250004E+00 0.48706242E+03</pdfrwt>
<pdfrwt beam="2">  1       21 0.18123137E-01 0.48706242E+03</pdfrwt>
<totfact> 0.41169845E+02</totfact>
</mgrwt>
</event>
<event>
 4    1  0.4758602E-002  0.6561428E+03  0.7818608E-02  0.9795320E-01
         21   -1    0    0  503  502  0.00000000000E+00  0.00000000000E+00  0.72318364123E+03  0.72318364123E+03  0.00000000000E+00 0.  1.
         21   -1    0    0  501  503 -0.00000000000E+00 -0.00000000000E+00 -0.62206555598E+03  0.62206555598E+03  0.00000000000E+00 0. -1.
    9000007    1    1    2  501    0  0.16060196395E+03 -0.49470233617E+03  0.19003720781E+03  0.68310872677E+03  0.40000000000E+03 0. -1.
   -9000007    1    1    2    0  502 -0.16060196395E+03  0.49470233617E+03 -0.88919122560E+02  0.66214047044E+03  0.40000000000E+03 0. -1.
<mgrwt>
<rscale>  2 0.65614281E+03</rscale>
<asrwt>0</asrwt>
<pdfrwt beam="1">  1       21 0.11125902E+00 0.65614281E+03</pdfrwt>
<pdfrwt beam="2">  1       21 0.95702393E-01 0.65614281E+03</pdfrwt>
<totfact> 0.44813486E+02</totfact>
</mgrwt>
</event>
<event>
 4    1  0.4758602E-002  0.4382627E+03  0.7818608E-02  0.1031281E+00
         21   -1    0    0  501  502  0.00000000000E+00  0.00000000000E+00  0.61122255132E+03  0.61122255132E+03  0.00000000000E+00 0. -1.
         21   -1    0    0  502  503 -0.00000000000E+00 -0.00000000000E+00 -0.31425068667E+03  0.31425068667E+03  0.00000000000E+00 0. -1.
    9000007    1    1    2  501    0 -0.16549791085E+03  0.68444558106E+02  0.15028098533E+03  0.46331262726E+03  0.40000000000E+03 0. -1.
   -9000007    1    1    2    0  503  0.16549791085E+03 -0.68444558106E+02  0.14669087933E+03  0.46216061073E+03  0.40000000000E+03 0. -1.
<mgrwt>
<rscale>  2 0.43826272E+03</rscale>
<asrwt>0</asrwt>
<pdfrwt beam="1">  1       21 0.94034238E-01 0.43826272E+03</pdfrwt>
<pdfrwt beam="2">  1       21 0.48346260E-01 0.43826272E+03</pdfrwt>
<totfact> 0.33949861E+03</totfact>
</mgrwt>
</event>
<event>
 4    1  0.4758602E-002  0.1043510E+04  0.7818608E-02  0.9262070E-01
         21   -1    0    0  501  502  0.00000000000E+00  0.00000000000E+00  0.12645357988E+04  0.12645357988E+04  0.00000000000E+00 0. -1.
         21   -1    0    0  502  503 -0.00000000000E+00 -0.00000000000E+00 -0.11600167714E+04  0.11600167714E+04  0.00000000000E+00 0.  1.
    9000007    1    1    2  501    0 -0.95361221834E+03 -0.13977526368E+03  0.66762367780E+03  0.12388037627E+04  0.40000000000E+03 0. -1.
   -9000007    1    1    2    0  503  0.95361221834E+03  0.13977526368E+03 -0.56310465042E+03  0.11857488076E+04  0.40000000000E+03 0.  1.
<mgrwt>
<rscale>  2 0.10435101E+04</rscale>
<asrwt>0</asrwt>
<pdfrwt beam="1">  1       21 0.19454397E+00 0.10435101E+04</pdfrwt>
<pdfrwt beam="2">  1       21 0.17846412E+00 0.10435101E+04</pdfrwt>
<totfact> 0.16125375E+01</totfact>
</mgrwt>
</event>
<event>
 4    1  0.4758602E-002  0.4838066E+03  0.7818608E-02  0.1018094E+00
         21   -1    0    0  501  502  0.00000000000E+00  0.00000000000E+00  0.68420135563E+03  0.68420135563E+03  0.00000000000E+00 0.  1.
         21   -1    0    0  502  503 -0.00000000000E+00 -0.00000000000E+00 -0.47276888708E+03  0.47276888708E+03  0.00000000000E+00 0.  1.
    9000007    1    1    2  501    0 -0.25330159722E+03  0.99534638094E+02 -0.19840391833E+03  0.52290817372E+03  0.40000000000E+03 0.  1.
   -9000007    1    1    2    0  503  0.25330159722E+03 -0.99534638094E+02  0.40983638687E+03  0.63406206899E+03  0.40000000000E+03 0.  1.
<mgrwt>
<rscale>  2 0.48380662E+03</rscale>
<asrwt>0</asrwt>
<pdfrwt beam="1">  1       21 0.10526175E+00 0.48380662E+03</pdfrwt>
<pdfrwt beam="2">  1       21 0.72733675E-01 0.48380662E+03</pdfrwt>
<totfact> 0.10377518E+03</totfact>
</mgrwt>
</event>
<event>
 4    1  0.4758602E-002  0.4454318E+03  0.7818608E-02  0.1029093E+00
         21   -1    0    0  503  502  0.00000000000E+00  0.00000000000E+00  0.11642491557E+03  0.11642491557E+03  0.00000000000E+00 0.  1.
         21   -1    0    0  501  503 -0.00000000000E+00 -0.00000000000E+00 -0.24227509228E+04  0.24227509228E+04  0.00000000000E+00 0.  1.
    9000007    1    1    2  501    0  0.63953735261E+02 -0.18525490631E+03 -0.46174281803E+03  0.64157298148E+03  0.40000000000E+03 0.  1.
   -9000007    1    1    2    0  502 -0.63953735261E+02  0.18525490631E+03 -0.18445831893E+04  0.18976028569E+04  0.40000000000E+03 0.  1.
<mgrwt>
<rscale>  2 0.44543177E+03</rscale>
<asrwt>0</asrwt>
<pdfrwt beam="1">  1       21 0.17911526E-01 0.44543177E+03</pdfrwt>
<pdfrwt beam="2">  1       21 0.37273091E+00 0.44543177E+03</pdfrwt>
<totfact> 0.28076972E+02</totfact>
</mgrwt>
</event>
<event>
 4    1  0.4758602E-002  0.4396107E+03  0.7818608E-02  0.1030866E+00
         21   -1    0    0  501  502  0.00000000000E+00  0.00000000000E+00  0.41013059069E+03  0.41013059069E+03  0.00000000000E+00 0.  1.
         21   -1    0    0  502  503 -0.00000000000E+00 -0.00000000000E+00 -0.47414709139E+03  0.47414709139E+03  0.00000000000E+00 0.  1.
    9000007    1    1    2  501    0 -0.17150514708E+03 -0.61996732717E+02 -0.66807142112E+02  0.44465807603E+03  0.40000000000E+03 0.  1.
   -9000007    1    1    2    0  503  0.17150514708E+03  0.61996732717E+02  0.27906414147E+01  0.43961960605E+03  0.40000000000E+03 0.  1.
<mgrwt>
<rscale>  2 0.43961075E+03</rscale>
<asrwt>0</asrwt>
<pdfrwt beam="1">  1       21 0.63097014E-01 0.43961075E+03</pdfrwt>
<pdfrwt beam="2">  1       21 0.72945706E-01 0.43961075E+03</pdfrwt>
<totfact> 0.34463701E+03</totfact>
</mgrwt>
</event>
<event>
 4    1  0.4758602E-002  0.4315101E+03  0.7818608E-02  0.1033384E+00
         21   -1    0    0  501  502  0.00000000000E+00  0.00000000000E+00  0.60012113244E+03  0.60012113244E+03  0.00000000000E+00 0.  1.
         21   -1    0    0  502  503 -0.00000000000E+00 -0.00000000000E+00 -0.44179397903E+03  0.44179397903E+03  0.00000000000E+00 0.  1.
    9000007    1    1    2  501    0 -0.15493169326E+03  0.46873187960E+02 -0.20508036930E+03  0.47776446414E+03  0.40000000000E+03 0.  1.
   -9000007    1    1    2    0  503  0.15493169326E+03 -0.46873187960E+02  0.36340752270E+03  0.56415064733E+03  0.40000000000E+03 0.  1.
<mgrwt>
<rscale>  2 0.43151005E+03</rscale>
<asrwt>0</asrwt>
<pdfrwt beam="1">  1       21 0.92326327E-01 0.43151005E+03</pdfrwt>
<pdfrwt beam="2">  1       21 0.67968305E-01 0.43151005E+03</pdfrwt>
<totfact> 0.16955435E+03</totfact>
</mgrwt>
</event>
<event>
 4    1  0.4758602E-002  0.4048618E+03  0.7818608E-02  0.1042109E+00
         21   -1    0    0  503  502  0.00000000000E+00  0.00000000000E+00  0.13663606431E+04  0.13663606431E+04  0.00000000000E+00 0. -1.
         21   -1    0    0  501  503 -0.00000000000E+00 -0.00000000000E+00 -0.13083512952E+03  0.13083512952E+03  0.00000000000E+00 0. -1.
    9000007    1    1    2  501    0 -0.71384433182E+01 -0.62145874132E+02  0.40196909994E+03  0.57051925852E+03  0.40000000000E+03 0. -1.
   -9000007    1    1    2    0  502  0.71384433182E+01  0.62145874132E+02  0.83355641363E+03  0.92667651408E+03  0.40000000000E+03 0. -1.
<mgrwt>
<rscale>  2 0.40486179E+03</rscale>
<asrwt>0</asrwt>
<pdfrwt beam="1">  1       21 0.21020932E+00 0.40486179E+03</pdfrwt>
<pdfrwt beam="2">  1       21 0.20128482E-01 0.40486179E+03</pdfrwt>
<totfact> 0.22748765E+03</totfact>
</mgrwt>
</event>
<event>
 4    1  0.4758602E-002  0.4439803E+03  0.7818608E-02  0.1029533E+00
         21   -1    0    0  501  502  0.00000000000E+00  0.00000000000E+00  0.14976110323E+03  0.14976110323E+03  0.00000000000E+00 0. -1.
         21   -1    0    0  502  503 -0.00000000000E+00 -0.00000000000E+00 -0.15186889785E+04  0.15186889785E+04  0.00000000000E+00 0. -1.
    9000007    1    1    2  501    0  0.24337243500E+01  0.19264621322E+03 -0.37986487075E+03  0.58430797232E+03  0.40000000000E+03 0. -1.
   -9000007    1    1    2    0  503 -0.24337243500E+01 -0.19264621322E+03 -0.98906300448E+03  0.10841421094E+04  0.40000000000E+03 0. -1.
<mgrwt>
<rscale>  2 0.44398028E+03</rscale>
<asrwt>0</asrwt>
<pdfrwt beam="1">  1       21 0.23040169E-01 0.44398028E+03</pdfrwt>
<pdfrwt beam="2">  1       21 0.23364447E+00 0.44398028E+03</pdfrwt>
<totfact> 0.12228123E+03</totfact>
</mgrwt>
</event>
<event>
 4    1  0.4758602E-002  0.4112178E+03  0.7818608E-02  0.1039963E+00
         21   -1    0    0  501  502  0.00000000000E+00  0.00000000000E+00  0.25396300093E+03  0.25396300093E+03  0.00000000000E+00 0. -1.
         21   -1    0    0  502  503 -0.00000000000E+00 -0.00000000000E+00 -0.84360823896E+03  0.84360823896E+03  0.00000000000E+00 0. -1.
    9000007    1    1    2  501    0  0.95384883070E+02  0.13290670421E+01 -0.42908178575E+02  0.41345030430E+03  0.40000000000E+03 0. -1.
   -9000007    1    1    2    0  503 -0.95384883070E+02 -0.13290670421E+01 -0.54673705945E+03  0.68412093559E+03  0.40000000000E+03 0. -1.
<mgrwt>
<rscale>  2 0.41121776E+03</rscale>
<asrwt>0</asrwt>
<pdfrwt beam="1">  1       21 0.39071231E-01 0.41121776E+03</pdfrwt>
<pdfrwt beam="2">  1       21 0.12978588E+00 0.41121776E+03</pdfrwt>
<totfact> 0.23999112E+03</totfact>
</mgrwt>
</event>
<event>
 4    1  0.4758602E-002  0.4497670E+03  0.7818608E-02  0.1027792E+00
         21   -1    0    0  501  502  0.00000000000E+00  0.00000000000E+00  0.43299047197E+03  0.43299047197E+03  0.00000000000E+00 0.  1.
         21   -1    0    0  502  503 -0.00000000000E+00 -0.00000000000E+00 -0.54949824853E+03  0.54949824853E+03  0.00000000000E+00 0. -1.
    9000007    1    1    2  501    0  0.18426688979E+02 -0.20481901363E+03  0.13186560191E+03  0.46869916597E+03  0.40000000000E+03 0.  1.
   -9000007    1    1    2    0  503 -0.18426688979E+02  0.20481901363E+03 -0.24837337847E+03  0.51378955453E+03  0.40000000000E+03 0. -1.
<mgrwt>
<rscale>  2 0.44976702E+03</rscale>
<asrwt>0</asrwt>
<pdfrwt beam="1">  1       21 0.66613919E-01 0.44976702E+03</pdfrwt>
<pdfrwt beam="2">  1       21 0.84538192E-01 0.44976702E+03</pdfrwt>
<totfact> 0.21678705E+03</totfact>
</mgrwt>
</event>
<event>
 4    1  0.4758602E-002  0.4105590E+03  0.7818608E-02  0.1040184E+00
         21   -1    0    0  501  502  0.00000000000E+00  0.00000000000E+00  0.37274312071E+03  0.37274312071E+03  0.00000000000E+00 0.  1.
         21   -1    0    0  502  503 -0.00000000000E+00 -0.00000000000E+00 -0.45474007797E+03  0.45474007797E+03  0.00000000000E+00 0.  1.
    9000007    1    1    2  501    0 -0.84808313456E+02  0.36963177374E+02 -0.10146319144E+02  0.41068439745E+03  0.40000000000E+03 0.  1.
   -9000007    1    1    2    0  503  0.84808313456E+02 -0.36963177374E+02 -0.71850638109E+02  0.41679880123E+03  0.40000000000E+03 0.  1.
<mgrwt>
<rscale>  2 0.41055904E+03</rscale>
<asrwt>0</asrwt>
<pdfrwt beam="1">  1       21 0.57345095E-01 0.41055904E+03</pdfrwt>
<pdfrwt beam="2">  1       21 0.69960012E-01 0.41055904E+03</pdfrwt>
<totfact> 0.47180239E+03</totfact>
</mgrwt>
</event>
<event>
 4    1  0.4758602E-002  0.4589213E+03  0.7818608E-02  0.1025095E+00
         21   -1    0    0  501  502  0.00000000000E+00  0.00000000000E+00  0.63161417315E+02  0.63161417315E+02  0.00000000000E+00 0. -1.
         21   -1    0    0  502  503 -0.00000000000E+00 -0.00000000000E+00 -0.33939967265E+04  0.33939967265E+04  0.00000000000E+00 0. -1.
    9000007    1    1    2  501    0  0.96641383443E+01  0.22475626432E+03 -0.14364618015E+04  0.15079891515E+04  0.40000000000E+03 0. -1.
   -9000007    1    1    2    0  503 -0.96641383443E+01 -0.22475626432E+03 -0.18943735077E+04  0.19491689923E+04  0.40000000000E+03 0. -1.
<mgrwt>
<rscale>  2 0.45892132E+03</rscale>
<asrwt>0</asrwt>
<pdfrwt beam="1">  1       21 0.97171400E-02 0.45892132E+03</pdfrwt>
<pdfrwt beam="2">  1       21 0.52215340E+00 0.45892132E+03</pdfrwt>
<totfact> 0.83691365E+01</totfact>
</mgrwt>
</event>
<event>
 4    1  0.4758602E-002  0.4508600E+03  0.7818608E-02  0.1027466E+00
         21   -1    0    0  501  502  0.00000000000E+00  0.00000000000E+00  0.38094010956E+03  0.38094010956E+03  0.00000000000E+00 0. -1.
         21   -1    0    0  502  503 -0.00000000000E+00 -0.00000000000E+00 -0.94466276892E+03  0.94466276892E+03  0.00000000000E+00 0. -1.
    9000007    1    1    2  501    0 -0.19291129055E+03 -0.77845944943E+02  0.15535061864E+03  0.47687374836E+03  0.40000000000E+03 0. -1.
   -9000007    1    1    2    0  503  0.19291129055E+03  0.77845944943E+02 -0.71907327800E+03  0.84872913012E+03  0.40000000000E+03 0. -1.
<mgrwt>
<rscale>  2 0.45086002E+03</rscale>
<asrwt>0</asrwt>
<pdfrwt beam="1">  1       21 0.58606172E-01 0.45086002E+03</pdfrwt>
<pdfrwt beam="2">  1       21 0.14533273E+00 0.45086002E+03</pdfrwt>
<totfact> 0.74339517E+02</totfact>
</mgrwt>
</event>
<event>
 4    1  0.4758602E-002  0.4720786E+03  0.7818608E-02  0.1021335E+00
         21   -1    0    0  503  502  0.00000000000E+00  0.00000000000E+00  0.35550661104E+03  0.35550661104E+03  0.00000000000E+00 0. -1.
         21   -1    0    0  501  503 -0.00000000000E+00 -0.00000000000E+00 -0.83833154283E+03  0.83833154283E+03  0.00000000000E+00 0.  1.
    9000007    1    1    2  501    0  0.18709306354E+03 -0.16689641938E+03 -0.54120309544E+03  0.71816364413E+03  0.40000000000E+03 0.  1.
   -9000007    1    1    2    0  502 -0.18709306354E+03  0.16689641938E+03  0.58378163654E+02  0.47567450974E+03  0.40000000000E+03 0. -1.
<mgrwt>
<rscale>  2 0.47207863E+03</rscale>
<asrwt>0</asrwt>
<pdfrwt beam="1">  1       21 0.54693325E-01 0.47207863E+03</pdfrwt>
<pdfrwt beam="2">  1       21 0.12897408E+00 0.47207863E+03</pdfrwt>
<totfact> 0.11733682E+03</totfact>
</mgrwt>
</event>
<event>
 4    1  0.4758602E-002  0.4266426E+03  0.7818608E-02  0.1034926E+00
         21   -1    0    0  503  502  0.00000000000E+00  0.00000000000E+00  0.16754359409E+04  0.16754359409E+04  0.00000000000E+00 0. -1.
         21   -1    0    0  501  503 -0.00000000000E+00 -0.00000000000E+00 -0.10864376898E+03  0.10864376898E+03  0.00000000000E+00 0.  1.
    9000007    1    1    2  501    0  0.10981434330E+02  0.14799766817E+03  0.78618058945E+03  0.89448522677E+03  0.40000000000E+03 0.  1.
   -9000007    1    1    2    0  502 -0.10981434330E+02 -0.14799766817E+03  0.78061158246E+03  0.88959448309E+03  0.40000000000E+03 0. -1.
<mgrwt>
<rscale>  2 0.42664259E+03</rscale>
<asrwt>0</asrwt>
<pdfrwt beam="1">  1       21 0.25775936E+00 0.42664259E+03</pdfrwt>
<pdfrwt beam="2">  1       21 0.16714427E-01 0.42664259E+03</pdfrwt>
<totfact> 0.16111313E+03</totfact>
</mgrwt>
</event>
<event>
 4    1  0.4758602E-002  0.5513063E+03  0.7818608E-02  0.1001192E+00
         21   -1    0    0  503  502  0.00000000000E+00  0.00000000000E+00  0.80308429736E+03  0.80308429736E+03  0.00000000000E+00 0.  1.
         21   -1    0    0  501  503 -0.00000000000E+00 -0.00000000000E+00 -0.12562686897E+04  0.12562686897E+04  0.00000000000E+00 0. -1.
    9000007    1    1    2  501    0 -0.88464384296E+00  0.37939146174E+03 -0.10873053239E+04  0.12190863510E+04  0.40000000000E+03 0. -1.
   -9000007    1    1    2    0  502  0.88464384296E+00 -0.37939146174E+03  0.63412093155E+03  0.84026663606E+03  0.40000000000E+03 0.  1.
<mgrwt>
<rscale>  2 0.55130632E+03</rscale>
<asrwt>0</asrwt>
<pdfrwt beam="1">  1       21 0.12355143E+00 0.55130632E+03</pdfrwt>
<pdfrwt beam="2">  1       21 0.19327210E+00 0.55130632E+03</pdfrwt>
<totfact> 0.54254455E+01</totfact>
</mgrwt>
</event>
<event>
 4    1  0.4758602E-002  0.4230258E+03  0.7818608E-02  0.1036086E+00
         21   -1    0    0  501  502  0.00000000000E+00  0.00000000000E+00  0.12574974346E+04  0.12574974346E+04  0.00000000000E+00 0. -1.
         21   -1    0    0  502  503 -0.00000000000E+00 -0.00000000000E+00 -0.16474527568E+03  0.16474527568E+03  0.00000000000E+00 0. -1.
    9000007    1    1    2  501    0 -0.39927144220E+02  0.13174463749E+03  0.80881660981E+03  0.91276236483E+03  0.40000000000E+03 0. -1.
   -9000007    1    1    2    0  503  0.39927144220E+02 -0.13174463749E+03  0.28393554910E+03  0.50948034545E+03  0.40000000000E+03 0. -1.
<mgrwt>
<rscale>  2 0.42302580E+03</rscale>
<asrwt>0</asrwt>
<pdfrwt beam="1">  1       21 0.19346114E+00 0.42302580E+03</pdfrwt>
<pdfrwt beam="2">  1       21 0.25345428E-01 0.42302580E+03</pdfrwt>
<totfact> 0.18693820E+03</totfact>
</mgrwt>
</event>
<event>
 4    1  0.4758602E-002  0.4394270E+03  0.7818608E-02  0.1030923E+00
         21   -1    0    0  503  502  0.00000000000E+00  0.00000000000E+00  0.22755366632E+03  0.22755366632E+03  0.00000000000E+00 0.  1.
         21   -1    0    0  501  503 -0.00000000000E+00 -0.00000000000E+00 -0.85842743062E+03  0.85842743062E+03  0.00000000000E+00 0.  1.
    9000007    1    1    2  501    0  0.18158356393E+03  0.11111533724E+02 -0.37361247139E+03  0.57678621313E+03  0.40000000000E+03 0.  1.
   -9000007    1    1    2    0  502 -0.18158356393E+03 -0.11111533724E+02 -0.25726129291E+03  0.50919488381E+03  0.40000000000E+03 0.  1.
<mgrwt>
<rscale>  2 0.43942696E+03</rscale>
<asrwt>0</asrwt>
<pdfrwt beam="1">  1       21 0.35008256E-01 0.43942696E+03</pdfrwt>
<pdfrwt beam="2">  1       21 0.13206576E+00 0.43942696E+03</pdfrwt>
<totfact> 0.28365881E+03</totfact>
</mgrwt>
</event>
<event>
 4    1  0.4758602E-002  0.4557265E+03  0.7818608E-02  0.1026028E+00
         21   -1    0    0  501  502  0.00000000000E+00  0.00000000000E+00  0.16127164954E+03  0.16127164954E+03  0.00000000000E+00 0.  1.
         21   -1    0    0  502  503 -0.00000000000E+00 -0.00000000000E+00 -0.13628087861E+04  0.13628087861E+04  0.00000000000E+00 0.  1.
    9000007    1    1    2  501    0 -0.16315286919E+03  0.14514745053E+03 -0.42199704011E+03  0.62110236112E+03  0.40000000000E+03 0.  1.
   -9000007    1    1    2    0  503  0.16315286919E+03 -0.14514745053E+03 -0.77954009647E+03  0.90297807456E+03  0.40000000000E+03 0.  1.
<mgrwt>
<rscale>  2 0.45572650E+03</rscale>
<asrwt>0</asrwt>
<pdfrwt beam="1">  1       21 0.24811024E-01 0.45572650E+03</pdfrwt>
<pdfrwt beam="2">  1       21 0.20966288E+00 0.45572650E+03</pdfrwt>
<totfact> 0.14989252E+03</totfact>
</mgrwt>
</event>
<event>
 4    1  0.4758602E-002  0.4805624E+03  0.7818608E-02  0.1018981E+00
         21   -1    0    0  503  502  0.00000000000E+00  0.00000000000E+00  0.42359763122E+03  0.42359763122E+03  0.00000000000E+00 0. -1.
         21   -1    0    0  501  503 -0.00000000000E+00 -0.00000000000E+00 -0.89456752057E+03  0.89456752057E+03  0.00000000000E+00 0. -1.
    9000007    1    1    2  501    0  0.23609207066E+03 -0.12329126808E+03 -0.64737584659E+03  0.80624790813E+03  0.40000000000E+03 0. -1.
   -9000007    1    1    2    0  502 -0.23609207066E+03  0.12329126808E+03  0.17640595723E+03  0.51191724367E+03  0.40000000000E+03 0. -1.
<mgrwt>
<rscale>  2 0.48056238E+03</rscale>
<asrwt>0</asrwt>
<pdfrwt beam="1">  1       21 0.65168867E-01 0.48056238E+03</pdfrwt>
<pdfrwt beam="2">  1       21 0.13762577E+00 0.48056238E+03</pdfrwt>
<totfact> 0.67189369E+02</totfact>
</mgrwt>
</event>
<event>
 4    1  0.4758602E-002  0.4542815E+03  0.7818608E-02  0.1026453E+00
         21   -1    0    0  503  502  0.00000000000E+00  0.00000000000E+00  0.82017240530E+03  0.82017240530E+03  0.00000000000E+00 0. -1.
         21   -1    0    0  501  503 -0.00000000000E+00 -0.00000000000E+00 -0.25170862651E+03  0.25170862651E+03  0.00000000000E+00 0.  1.
    9000007    1    1    2  501    0  0.19742221597E+03  0.86001008798E+02  0.27417009275E+03  0.53060432022E+03  0.40000000000E+03 0. -1.
   -9000007    1    1    2    0  502 -0.19742221597E+03 -0.86001008798E+02  0.29429368604E+03  0.54127671160E+03  0.40000000000E+03 0. -1.
<mgrwt>
<rscale>  2 0.45428153E+03</rscale>
<asrwt>0</asrwt>
<pdfrwt beam="1">  1       21 0.12618037E+00 0.45428153E+03</pdfrwt>
<pdfrwt beam="2">  1       21 0.38724404E-01 0.45428153E+03</pdfrwt>
<totfact> 0.25848084E+03</totfact>
</mgrwt>
</event>
<event>
 4    1  0.4758602E-002  0.4232043E+03  0.7818608E-02  0.1036028E+00
         21   -1    0    0  501  502  0.00000000000E+00  0.00000000000E+00  0.38673865352E+03  0.38673865352E+03  0.00000000000E+00 0. -1.
         21   -1    0    0  502  503 -0.00000000000E+00 -0.00000000000E+00 -0.48358660725E+03  0.48358660725E+03  0.00000000000E+00 0. -1.
    9000007    1    1    2  501    0  0.13812723103E+03  0.47721513519E+01  0.41125035956E+02  0.42519780569E+03  0.40000000000E+03 0. -1.
   -9000007    1    1    2    0  503 -0.13812723103E+03 -0.47721513519E+01 -0.13797298969E+03  0.44512745508E+03  0.40000000000E+03 0. -1.
<mgrwt>
<rscale>  2 0.42320433E+03</rscale>
<asrwt>0</asrwt>
<pdfrwt beam="1">  1       21 0.59498254E-01 0.42320433E+03</pdfrwt>
<pdfrwt beam="2">  1       21 0.74397940E-01 0.42320433E+03</pdfrwt>
<totfact> 0.37715624E+03</totfact>
</mgrwt>
</event>
<event>
 4    1  0.4758602E-002  0.4060375E+03  0.7818608E-02  0.1041709E+00
         21   -1    0    0  501  502  0.00000000000E+00  0.00000000000E+00  0.50308699192E+03  0.50308699192E+03  0.00000000000E+00 0.  1.
         21   -1    0    0  502  503 -0.00000000000E+00 -0.00000000000E+00 -0.39839376451E+03  0.39839376451E+03  0.00000000000E+00 0.  1.
    9000007    1    1    2  501    0  0.65490997162E+02  0.24029000998E+02 -0.13751234732E+03  0.42869115837E+03  0.40000000000E+03 0.  1.
   -9000007    1    1    2    0  503 -0.65490997162E+02 -0.24029000998E+02  0.24220557473E+03  0.47278959806E+03  0.40000000000E+03 0.  1.
<mgrwt>
<rscale>  2 0.40603752E+03</rscale>
<asrwt>0</asrwt>
<pdfrwt beam="1">  1       21 0.77397999E-01 0.40603752E+03</pdfrwt>
<pdfrwt beam="2">  1       21 0.61291349E-01 0.40603752E+03</pdfrwt>
<totfact> 0.32501557E+03</totfact>
</mgrwt>
</event>
<event>
 4    1  0.4758602E-002  0.4800515E+03  0.7818608E-02  0.1019121E+00
         21   -1    0    0  501  502  0.00000000000E+00  0.00000000000E+00  0.86423248657E+03  0.86423248657E+03  0.00000000000E+00 0. -1.
         21   -1    0    0  502  503 -0.00000000000E+00 -0.00000000000E+00 -0.67097462306E+03  0.67097462306E+03  0.00000000000E+00 0. -1.
    9000007    1    1    2  501    0  0.19588644104E+03 -0.17910308621E+03  0.69249395505E+03  0.84261336985E+03  0.40000000000E+03 0. -1.
   -9000007    1    1    2    0  503 -0.19588644104E+03  0.17910308621E+03 -0.49923609154E+03  0.69259373977E+03  0.40000000000E+03 0. -1.
<mgrwt>
<rscale>  2 0.48005147E+03</rscale>
<asrwt>0</asrwt>
<pdfrwt beam="1">  1       21 0.13295884E+00 0.48005147E+03</pdfrwt>
<pdfrwt beam="2">  1       21 0.10322687E+00 0.48005147E+03</pdfrwt>
<totfact> 0.25191716E+02</totfact>
</mgrwt>
</event>
<event>
 4    1  0.4758602E-002  0.6284694E+03  0.7818608E-02  0.9848040E-01
         21   -1    0    0  501  502  0.00000000000E+00  0.00000000000E+00  0.49870501612E+03  0.49870501612E+03  0.00000000000E+00 0.  1.
         21   -1    0    0  502  503 -0.00000000000E+00 -0.00000000000E+00 -0.79298037166E+03  0.79298037166E+03  0.00000000000E+00 0.  1.
    9000007    1    1    2  501    0  0.44631579190E+03 -0.18914533521E+03 -0.12441445022E+03  0.64066582503E+03  0.40000000000E+03 0.  1.
   -9000007    1    1    2    0  503 -0.44631579190E+03  0.18914533521E+03 -0.16986090532E+03  0.65101956276E+03  0.40000000000E+03 0.  1.
<mgrwt>
<rscale>  2 0.62846937E+03</rscale>
<asrwt>0</asrwt>
<pdfrwt beam="1">  1       21 0.76723849E-01 0.62846937E+03</pdfrwt>
<pdfrwt beam="2">  1       21 0.12199698E+00 0.62846937E+03</pdfrwt>
<totfact> 0.60310836E+02</totfact>
</mgrwt>
</event>
<event>
 4    1  0.4758602E-002  0.4554480E+03  0.7818608E-02  0.1026110E+00
         21   -1    0    0  501  502  0.00000000000E+00  0.00000000000E+00  0.90619894232E+03  0.90619894232E+03  0.00000000000E+00 0. -1.
         21   -1    0    0  502  503 -0.00000000000E+00 -0.00000000000E+00 -0.28125239481E+03  0.28125239481E+03  0.00000000000E+00 0. -1.
    9000007    1    1    2  501    0 -0.12697100803E+02  0.21742057891E+03  0.56327178923E+02  0.45891793993E+03  0.40000000000E+03 0. -1.
   -9000007    1    1    2    0  503  0.12697100803E+02 -0.21742057891E+03  0.56861936859E+03  0.72853339720E+03  0.40000000000E+03 0. -1.
<mgrwt>
<rscale>  2 0.45544805E+03</rscale>
<asrwt>0</asrwt>
<pdfrwt beam="1">  1       21 0.13941522E+00 0.45544805E+03</pdfrwt>
<pdfrwt beam="2">  1       21 0.43269600E-01 0.45544805E+03</pdfrwt>
<totfact> 0.15828805E+03</totfact>
</mgrwt>
</event>
<event>
 4    1  0.4758602E-002  0.4289304E+03  0.7818608E-02  0.1034198E+00
         21   -1    0    0  501  502  0.00000000000E+00  0.00000000000E+00  0.16843867813E+04  0.16843867813E+04  0.00000000000E+00 0. -1.
         21   -1    0    0  502  503 -0.00000000000E+00 -0.00000000000E+00 -0.53040602567E+03  0.53040602567E+03  0.00000000000E+00 0.  1.
    9000007    1    1    2  501    0 -0.15415705246E+03  0.14727000614E+02  0.15637969138E+04  0.16215554474E+04  0.40000000000E+03 0. -1.
   -9000007    1    1    2    0  503  0.15415705246E+03 -0.14727000614E+02 -0.40981615814E+03  0.59323735961E+03  0.40000000000E+03 0.  1.
<mgrwt>
<rscale>  2 0.42893039E+03</rscale>
<asrwt>0</asrwt>
<pdfrwt beam="1">  1       21 0.25913643E+00 0.42893039E+03</pdfrwt>
<pdfrwt beam="2">  1       21 0.81600928E-01 0.42893039E+03</pdfrwt>
<totfact> 0.60708137E+01</totfact>
</mgrwt>
</event>
<event>
 4    1  0.4758602E-002  0.6527803E+03  0.7818608E-02  0.9801576E-01
         21   -1    0    0  503  502  0.00000000000E+00  0.00000000000E+00  0.84254425358E+03  0.84254425358E+03  0.00000000000E+00 0.  1.
         21   -1    0    0  501  503 -0.00000000000E+00 -0.00000000000E+00 -0.50579158128E+03  0.50579158128E+03  0.00000000000E+00 0. -1.
    9000007    1    1    2  501    0  0.11372071112E+03 -0.50317958234E+03  0.17400428634E+03  0.67557352219E+03  0.40000000000E+03 0.  1.
   -9000007    1    1    2    0  502 -0.11372071112E+03  0.50317958234E+03  0.16274838596E+03  0.67276231267E+03  0.40000000000E+03 0. -1.
<mgrwt>
<rscale>  2 0.65278028E+03</rscale>
<asrwt>0</asrwt>
<pdfrwt beam="1">  1       21 0.12962219E+00 0.65278028E+03</pdfrwt>
<pdfrwt beam="2">  1       21 0.77814089E-01 0.65278028E+03</pdfrwt>
<totfact> 0.49487046E+02</totfact>
</mgrwt>
</event>
<event>
 4    1  0.4758602E-002  0.4578100E+03  0.7818608E-02  0.1025418E+00
         21   -1    0    0  503  502  0.00000000000E+00  0.00000000000E+00  0.12848269347E+04  0.12848269347E+04  0.00000000000E+00 0.  1.
         21   -1    0    0  501  503 -0.00000000000E+00 -0.00000000000E+00 -0.45297161773E+03  0.45297161773E+03  0.00000000000E+00 0.  1.
    9000007    1    1    2  501    0  0.13090765231E+03 -0.18014763137E+03 -0.27912314374E+03  0.53618999608E+03  0.40000000000E+03 0.  1.
   -9000007    1    1    2    0  502 -0.13090765231E+03  0.18014763137E+03  0.11109784607E+04  0.12016085564E+04  0.40000000000E+03 0.  1.
<mgrwt>
<rscale>  2 0.45780999E+03</rscale>
<asrwt>0</asrwt>
<pdfrwt beam="1">  1       21 0.19766568E+00 0.45780999E+03</pdfrwt>
<pdfrwt beam="2">  1       21 0.69687942E-01 0.45780999E+03</pdfrwt>
<totfact> 0.20971056E+02</totfact>
</mgrwt>
</event>
<event>
 4    1  0.4758602E-002  0.4576451E+03  0.7818608E-02  0.1025466E+00
         21   -1    0    0  503  502  0.00000000000E+00  0.00000000000E+00  0.50397527071E+03  0.50397527071E+03  0.00000000000E+00 0. -1.
         21   -1    0    0  501  503 -0.00000000000E+00 -0.00000000000E+00 -0.41760756678E+03  0.41760756678E+03  0.00000000000E+00 0.  1.
    9000007    1    1    2  501    0  0.20225431721E+03 -0.92370165696E+02  0.11029368120E+02  0.45777800657E+03  0.40000000000E+03 0.  1.
   -9000007    1    1    2    0  502 -0.20225431721E+03  0.92370165696E+02  0.75338335809E+02  0.46380483092E+03  0.40000000000E+03 0.  1.
<mgrwt>
<rscale>  2 0.45764512E+03</rscale>
<asrwt>0</asrwt>
<pdfrwt beam="1">  1       21 0.77534657E-01 0.45764512E+03</pdfrwt>
<pdfrwt beam="2">  1       21 0.64247318E-01 0.45764512E+03</pdfrwt>
<totfact> 0.28625789E+03</totfact>
</mgrwt>
</event>
<event>
 4    1  0.4758602E-002  0.5157108E+03  0.7818608E-02  0.1009758E+00
         21   -1    0    0  501  502  0.00000000000E+00  0.00000000000E+00  0.12121365393E+04  0.12121365393E+04  0.00000000000E+00 0.  1.
         21   -1    0    0  502  503 -0.00000000000E+00 -0.00000000000E+00 -0.10655956402E+04  0.10655956402E+04  0.00000000000E+00 0.  1.
    9000007    1    1    2  501    0 -0.31522662076E+03  0.81177316268E+02  0.10881364379E+04  0.12041588295E+04  0.40000000000E+03 0.  1.
   -9000007    1    1    2    0  503  0.31522662076E+03 -0.81177316268E+02 -0.94159553877E+03  0.10735733500E+04  0.40000000000E+03 0.  1.
<mgrwt>
<rscale>  2 0.51571075E+03</rscale>
<asrwt>0</asrwt>
<pdfrwt beam="1">  1       21 0.18648255E+00 0.51571075E+03</pdfrwt>
<pdfrwt beam="2">  1       21 0.16393779E+00 0.51571075E+03</pdfrwt>
<totfact> 0.28762738E+01</totfact>
</mgrwt>
</event>
<event>
 4    1  0.4758602E-002  0.4357759E+03  0.7818608E-02  0.1032051E+00
         21   -1    0    0  501  502  0.00000000000E+00  0.00000000000E+00  0.61785443998E+03  0.61785443998E+03  0.00000000000E+00 0.  1.
         21   -1    0    0  502  503 -0.00000000000E+00 -0.00000000000E+00 -0.76371639918E+03  0.76371639918E+03  0.00000000000E+00 0. -1.
    9000007    1    1    2  501    0  0.11087283854E+03  0.13269470751E+03  0.46105707272E+03  0.63440861913E+03  0.40000000000E+03 0.  1.
   -9000007    1    1    2    0  503 -0.11087283854E+03 -0.13269470751E+03 -0.60691903192E+03  0.74716222003E+03  0.40000000000E+03 0. -1.
<mgrwt>
<rscale>  2 0.43577594E+03</rscale>
<asrwt>0</asrwt>
<pdfrwt beam="1">  1       21 0.95054530E-01 0.43577594E+03</pdfrwt>
<pdfrwt beam="2">  1       21 0.11749483E+00 0.43577594E+03</pdfrwt>
<totfact> 0.43179928E+02</totfact>
</mgrwt>
</event>
<event>
 4    1  0.4758602E-002  0.4967275E+03  0.7818608E-02  0.1014637E+00
         21   -1    0    0  501  502  0.00000000000E+00  0.00000000000E+00  0.18255649909E+03  0.18255649909E+03  0.00000000000E+00 0.  1.
         21   -1    0    0  502  503 -0.00000000000E+00 -0.00000000000E+00 -0.14537575988E+04  0.14537575988E+04  0.00000000000E+00 0.  1.
    9000007    1    1    2  501    0  0.52361128979E+02 -0.28982158880E+03 -0.41868751144E+03  0.64964411288E+03  0.40000000000E+03 0.  1.
   -9000007    1    1    2    0  503 -0.52361128979E+02  0.28982158880E+03 -0.85251358829E+03  0.98666998504E+03  0.40000000000E+03 0.  1.
<mgrwt>
<rscale>  2 0.49672753E+03</rscale>
<asrwt>0</asrwt>
<pdfrwt beam="1">  1       21 0.28085616E-01 0.49672753E+03</pdfrwt>
<pdfrwt beam="2">  1       21 0.22365501E+00 0.49672753E+03</pdfrwt>
<totfact> 0.93779477E+02</totfact>
</mgrwt>
</event>
<event>
 4    1  0.4758602E-002  0.4302839E+03  0.7818608E-02  0.1033770E+00
         21   -1    0    0  503  502  0.00000000000E+00  0.00000000000E+00  0.15973569376E+03  0.15973569376E+03  0.00000000000E+00 0. -1.
         21   -1    0    0  501  503 -0.00000000000E+00 -0.00000000000E+00 -0.12498108742E+04  0.12498108742E+04  0.00000000000E+00 0. -1.
    9000007    1    1    2  501    0 -0.11927434866E+03  0.10448861224E+03 -0.73494324844E+03  0.85163714032E+03  0.40000000000E+03 0. -1.
   -9000007    1    1    2    0  502  0.11927434866E+03 -0.10448861224E+03 -0.35513193203E+03  0.55790942767E+03  0.40000000000E+03 0. -1.
<mgrwt>
<rscale>  2 0.43028391E+03</rscale>
<asrwt>0</asrwt>
<pdfrwt beam="1">  1       21 0.24574722E-01 0.43028391E+03</pdfrwt>
<pdfrwt beam="2">  1       21 0.19227860E+00 0.43028391E+03</pdfrwt>
<totfact> 0.20154932E+03</totfact>
</mgrwt>
</event>
<event>
 4    1  0.4758602E-002  0.4851982E+03  0.7818608E-02  0.1017716E+00
         21   -1    0    0  503  502  0.00000000000E+00  0.00000000000E+00  0.13436505109E+04  0.13436505109E+04  0.00000000000E+00 0. -1.
         21   -1    0    0  501  503 -0.00000000000E+00 -0.00000000000E+00 -0.18495118107E+03  0.18495118107E+03  0.00000000000E+00 0.  1.
    9000007    1    1    2  501    0  0.23627434321E+03  0.13997049798E+03  0.40392002294E+03  0.63132296845E+03  0.40000000000E+03 0.  1.
   -9000007    1    1    2    0  502 -0.23627434321E+03 -0.13997049798E+03  0.75477930684E+03  0.89727872347E+03  0.40000000000E+03 0.  1.
<mgrwt>
<rscale>  2 0.48519821E+03</rscale>
<asrwt>0</asrwt>
<pdfrwt beam="1">  1       21 0.20671546E+00 0.48519821E+03</pdfrwt>
<pdfrwt beam="2">  1       21 0.28454029E-01 0.48519821E+03</pdfrwt>
<totfact> 0.11826294E+03</totfact>
</mgrwt>
</event>
<event>
 4    1  0.4758602E-002  0.5696197E+03  0.7818608E-02  0.9970521E-01
         21   -1    0    0  503  502  0.00000000000E+00  0.00000000000E+00  0.29983925221E+03  0.29983925221E+03  0.00000000000E+00 0.  1.
         21   -1    0    0  501  503 -0.00000000000E+00 -0.00000000000E+00 -0.16187552588E+04  0.16187552588E+04  0.00000000000E+00 0. -1.
    9000007    1    1    2  501    0  0.40143093618E+03 -0.57617539406E+02 -0.12117847822E+04  0.13389880267E+04  0.40000000000E+03 0. -1.
   -9000007    1    1    2    0  502 -0.40143093618E+03  0.57617539406E+02 -0.10713122438E+03  0.57960648427E+03  0.40000000000E+03 0.  1.
<mgrwt>
<rscale>  2 0.56961968E+03</rscale>
<asrwt>0</asrwt>
<pdfrwt beam="1">  1       21 0.46129117E-01 0.56961968E+03</pdfrwt>
<pdfrwt beam="2">  1       21 0.24903927E+00 0.56961968E+03</pdfrwt>
<totfact> 0.22861030E+02</totfact>
</mgrwt>
</event>
<event>
 4    1  0.4758602E-002  0.5183535E+03  0.7818608E-02  0.1009096E+00
         21   -1    0    0  503  502  0.00000000000E+00  0.00000000000E+00  0.15002993876E+04  0.15002993876E+04  0.00000000000E+00 0.  1.
         21   -1    0    0  501  503 -0.00000000000E+00 -0.00000000000E+00 -0.26449642532E+03  0.26449642532E+03  0.00000000000E+00 0. -1.
    9000007    1    1    2  501    0  0.92199129885E+02 -0.31652758029E+03  0.11648704186E+03  0.53128111161E+03  0.40000000000E+03 0. -1.
   -9000007    1    1    2    0  502 -0.92199129885E+02  0.31652758029E+03  0.11193159204E+04  0.12335147013E+04  0.40000000000E+03 0.  1.
<mgrwt>
<rscale>  2 0.51835354E+03</rscale>
<asrwt>0</asrwt>
<pdfrwt beam="1">  1       21 0.23081529E+00 0.51835354E+03</pdfrwt>
<pdfrwt beam="2">  1       21 0.40691758E-01 0.51835354E+03</pdfrwt>
<totfact> 0.39543981E+02</totfact>
</mgrwt>
</event>
<event>
 4    1  0.4758602E-002  0.4123940E+03  0.7818608E-02  0.1039571E+00
         21   -1    0    0  501  502  0.00000000000E+00  0.00000000000E+00  0.44231250249E+03  0.44231250249E+03  0.00000000000E+00 0. -1.
         21   -1    0    0  502  503 -0.00000000000E+00 -0.00000000000E+00 -0.44790651536E+03  0.44790651536E+03  0.00000000000E+00 0. -1.
    9000007    1    1    2  501    0 -0.50853868824E+02 -0.86502791040E+02  0.16467511167E+03  0.44405713735E+03  0.40000000000E+03 0.  1.
   -9000007    1    1    2    0  503  0.50853868824E+02  0.86502791040E+02 -0.17026912454E+03  0.44616188049E+03  0.40000000000E+03 0.  1.
<mgrwt>
<rscale>  2 0.41239405E+03</rscale>
<asrwt>0</asrwt>
<pdfrwt beam="1">  1       21 0.68048077E-01 0.41239405E+03</pdfrwt>
<pdfrwt beam="2">  1       21 0.68908695E-01 0.41239405E+03</pdfrwt>
<totfact> 0.33458800E+03</totfact>
</mgrwt>
</event>
<event>
 4    1  0.4758602E-002  0.4189029E+03  0.7818608E-02  0.1037424E+00
         21   -1    0    0  501  502  0.00000000000E+00  0.00000000000E+00  0.45418674118E+03  0.45418674118E+03  0.00000000000E+00 0.  1.
         21   -1    0    0  502  503 -0.00000000000E+00 -0.00000000000E+00 -0.39583093414E+03  0.39583093414E+03  0.00000000000E+00 0.  1.
    9000007    1    1    2  501    0 -0.88075278478E+02  0.87876995094E+02 -0.36563338836E+02  0.42049553944E+03  0.40000000000E+03 0.  1.
   -9000007    1    1    2    0  503  0.88075278478E+02 -0.87876995094E+02  0.94919145877E+02  0.42952213587E+03  0.40000000000E+03 0.  1.
<mgrwt>
<rscale>  2 0.41890288E+03</rscale>
<asrwt>0</asrwt>
<pdfrwt beam="1">  1       21 0.69874883E-01 0.41890288E+03</pdfrwt>
<pdfrwt beam="2">  1       21 0.60897067E-01 0.41890288E+03</pdfrwt>
<totfact> 0.41369665E+03</totfact>
</mgrwt>
</event>
<event>
 4    1  0.4758602E-002  0.4898968E+03  0.7818608E-02  0.1016450E+00
         21   -1    0    0  503  502  0.00000000000E+00  0.00000000000E+00  0.89613228492E+03  0.89613228492E+03  0.00000000000E+00 0. -1.
         21   -1    0    0  501  503 -0.00000000000E+00 -0.00000000000E+00 -0.28064127948E+03  0.28064127948E+03  0.00000000000E+00 0. -1.
    9000007    1    1    2  501    0 -0.24274575671E+03 -0.14516672420E+03  0.18196463781E+03  0.52259928208E+03  0.40000000000E+03 0. -1.
   -9000007    1    1    2    0  502  0.24274575671E+03  0.14516672420E+03  0.43352636763E+03  0.65417428232E+03  0.40000000000E+03 0. -1.
<mgrwt>
<rscale>  2 0.48989681E+03</rscale>
<asrwt>0</asrwt>
<pdfrwt beam="1">  1       21 0.13786650E+00 0.48989681E+03</pdfrwt>
<pdfrwt beam="2">  1       21 0.43175582E-01 0.48989681E+03</pdfrwt>
<totfact> 0.16164810E+03</totfact>
</mgrwt>
</event>
<event>
 4    1  0.4758602E-002  0.4478735E+03  0.7818608E-02  0.1028358E+00
         21   -1    0    0  503  502  0.00000000000E+00  0.00000000000E+00  0.23931619539E+03  0.23931619539E+03  0.00000000000E+00 0.  1.
         21   -1    0    0  501  503 -0.00000000000E+00 -0.00000000000E+00 -0.94005406557E+03  0.94005406557E+03  0.00000000000E+00 0. -1.
    9000007    1    1    2  501    0  0.12683904784E+02 -0.20107158696E+03 -0.15624901923E+03  0.47434630865E+03  0.40000000000E+03 0. -1.
   -9000007    1    1    2    0  502 -0.12683904784E+02  0.20107158696E+03 -0.54448885095E+03  0.70502395231E+03  0.40000000000E+03 0.  1.
<mgrwt>
<rscale>  2 0.44787349E+03</rscale>
<asrwt>0</asrwt>
<pdfrwt beam="1">  1       21 0.36817876E-01 0.44787349E+03</pdfrwt>
<pdfrwt beam="2">  1       21 0.14462370E+00 0.44787349E+03</pdfrwt>
<totfact> 0.20072891E+03</totfact>
</mgrwt>
</event>
<event>
 4    1  0.4758602E-002  0.6414482E+03  0.7818608E-02  0.9822960E-01
         21   -1    0    0  501  502  0.00000000000E+00  0.00000000000E+00  0.43404517231E+03  0.43404517231E+03  0.00000000000E+00 0.  1.
         21   -1    0    0  502  503 -0.00000000000E+00 -0.00000000000E+00 -0.10383360812E+04  0.10383360812E+04  0.00000000000E+00 0. -1.
    9000007    1    1    2  501    0  0.42457528866E+03  0.26681760221E+03 -0.84946758343E+02  0.64704849922E+03  0.40000000000E+03 0.  1.
   -9000007    1    1    2    0  503 -0.42457528866E+03 -0.26681760221E+03 -0.51934415056E+03  0.82533275429E+03  0.40000000000E+03 0.  1.
<mgrwt>
<rscale>  2 0.64144821E+03</rscale>
<asrwt>0</asrwt>
<pdfrwt beam="1">  1       21 0.66776181E-01 0.64144821E+03</pdfrwt>
<pdfrwt beam="2">  1       21 0.15974401E+00 0.64144821E+03</pdfrwt>
<totfact> 0.39946049E+02</totfact>
</mgrwt>
</event>
<event>
 4    1  0.4758602E-002  0.4688244E+03  0.7818608E-02  0.1022253E+00
         21   -1    0    0  503  502  0.00000000000E+00  0.00000000000E+00  0.43286926765E+03  0.43286926765E+03  0.00000000000E+00 0. -1.
         21   -1    0    0  501  503 -0.00000000000E+00 -0.00000000000E+00 -0.57937348528E+03  0.57937348528E+03  0.00000000000E+00 0.  1.
    9000007    1    1    2  501    0  0.20675774527E+03 -0.13056611434E+03 -0.25118438382E+03  0.53187392314E+03  0.40000000000E+03 0.  1.
   -9000007    1    1    2    0  502 -0.20675774527E+03  0.13056611434E+03  0.10468016619E+03  0.48036882979E+03  0.40000000000E+03 0. -1.
<mgrwt>
<rscale>  2 0.46882435E+03</rscale>
<asrwt>0</asrwt>
<pdfrwt beam="1">  1       21 0.66595272E-01 0.46882435E+03</pdfrwt>
<pdfrwt beam="2">  1       21 0.89134382E-01 0.46882435E+03</pdfrwt>
<totfact> 0.19019292E+03</totfact>
</mgrwt>
</event>
<event>
 4    1  0.4758602E-002  0.5187509E+03  0.7818608E-02  0.1008997E+00
         21   -1    0    0  501  502  0.00000000000E+00  0.00000000000E+00  0.13879726462E+04  0.13879726462E+04  0.00000000000E+00 0. -1.
         21   -1    0    0  502  503 -0.00000000000E+00 -0.00000000000E+00 -0.23033860857E+03  0.23033860857E+03  0.00000000000E+00 0.  1.
    9000007    1    1    2  501    0  0.20636066804E+03  0.25791047828E+03  0.90072994838E+03  0.10394310848E+04  0.40000000000E+03 0. -1.
   -9000007    1    1    2    0  503 -0.20636066804E+03 -0.25791047828E+03  0.25690408925E+03  0.57888016998E+03  0.40000000000E+03 0. -1.
<mgrwt>
<rscale>  2 0.51875094E+03</rscale>
<asrwt>0</asrwt>
<pdfrwt beam="1">  1       21 0.21353425E+00 0.51875094E+03</pdfrwt>
<pdfrwt beam="2">  1       21 0.35436710E-01 0.51875094E+03</pdfrwt>
<totfact> 0.67768879E+02</totfact>
</mgrwt>
</event>
<event>
 4    1  0.4758602E-002  0.4429655E+03  0.7818608E-02  0.1029841E+00
         21   -1    0    0  501  502  0.00000000000E+00  0.00000000000E+00  0.13329274703E+04  0.13329274703E+04  0.00000000000E+00 0. -1.
         21   -1    0    0  502  503 -0.00000000000E+00 -0.00000000000E+00 -0.21561553672E+03  0.21561553672E+03  0.00000000000E+00 0.  1.
    9000007    1    1    2  501    0 -0.17689888049E+03  0.70179801685E+02  0.12253873596E+03  0.45960217612E+03  0.40000000000E+03 0.  1.
   -9000007    1    1    2    0  503  0.17689888049E+03 -0.70179801685E+02  0.99477319759E+03  0.10889408309E+04  0.40000000000E+03 0. -1.
<mgrwt>
<rscale>  2 0.44296548E+03</rscale>
<asrwt>0</asrwt>
<pdfrwt beam="1">  1       21 0.20506576E+00 0.44296548E+03</pdfrwt>
<pdfrwt beam="2">  1       21 0.33171622E-01 0.44296548E+03</pdfrwt>
<totfact> 0.91018706E+02</totfact>
</mgrwt>
</event>
<event>
 4    1  0.4758602E-002  0.4314344E+03  0.7818608E-02  0.1033408E+00
         21   -1    0    0  501  502  0.00000000000E+00  0.00000000000E+00  0.52914154894E+03  0.52914154894E+03  0.00000000000E+00 0. -1.
         21   -1    0    0  502  503 -0.00000000000E+00 -0.00000000000E+00 -0.39730343084E+03  0.39730343084E+03  0.00000000000E+00 0. -1.
    9000007    1    1    2  501    0  0.97574085827E+02  0.12889911166E+03  0.22273767876E+03  0.48553862540E+03  0.40000000000E+03 0.  1.
   -9000007    1    1    2    0  503 -0.97574085827E+02 -0.12889911166E+03 -0.90899560663E+02  0.44090635439E+03  0.40000000000E+03 0.  1.
<mgrwt>
<rscale>  2 0.43143445E+03</rscale>
<asrwt>0</asrwt>
<pdfrwt beam="1">  1       21 0.81406392E-01 0.43143445E+03</pdfrwt>
<pdfrwt beam="2">  1       21 0.61123605E-01 0.43143445E+03</pdfrwt>
<totfact> 0.28829624E+03</totfact>
</mgrwt>
</event>
<event>
 4    1  0.4758602E-002  0.6439984E+03  0.7818608E-02  0.9818106E-01
         21   -1    0    0  501  502  0.00000000000E+00  0.00000000000E+00  0.40577975478E+03  0.40577975478E+03  0.00000000000E+00 0. -1.
         21   -1    0    0  502  503 -0.00000000000E+00 -0.00000000000E+00 -0.11302207545E+04  0.11302207545E+04  0.00000000000E+00 0. -1.
    9000007    1    1    2  501    0 -0.49581618416E+03 -0.94340802943E+02 -0.12464501791E+03  0.65594988838E+03  0.40000000000E+03 0. -1.
   -9000007    1    1    2    0  503  0.49581618416E+03  0.94340802943E+02 -0.59979598186E+03  0.88005062095E+03  0.40000000000E+03 0. -1.
<mgrwt>
<rscale>  2 0.64399835E+03</rscale>
<asrwt>0</asrwt>
<pdfrwt beam="1">  1       21 0.62427655E-01 0.64399835E+03</pdfrwt>
<pdfrwt beam="2">  1       21 0.17388012E+00 0.64399835E+03</pdfrwt>
<totfact> 0.36399984E+02</totfact>
</mgrwt>
</event>
<event>
 4    1  0.4758602E-002  0.4327562E+03  0.7818608E-02  0.1032993E+00
         21   -1    0    0  503  502  0.00000000000E+00  0.00000000000E+00  0.68708483361E+03  0.68708483361E+03  0.00000000000E+00 0. -1.
         21   -1    0    0  501  503 -0.00000000000E+00 -0.00000000000E+00 -0.42292924320E+03  0.42292924320E+03  0.00000000000E+00 0. -1.
    9000007    1    1    2  501    0 -0.11146054854E+03  0.12187909922E+03 -0.19884848934E+03  0.47625485868E+03  0.40000000000E+03 0. -1.
   -9000007    1    1    2    0  502  0.11146054854E+03 -0.12187909922E+03  0.46300407974E+03  0.63375921813E+03  0.40000000000E+03 0. -1.
<mgrwt>
<rscale>  2 0.43275625E+03</rscale>
<asrwt>0</asrwt>
<pdfrwt beam="1">  1       21 0.10570536E+00 0.43275625E+03</pdfrwt>
<pdfrwt beam="2">  1       21 0.65066037E-01 0.43275625E+03</pdfrwt>
<totfact> 0.13461728E+03</totfact>
</mgrwt>
</event>
<event>
 4    1  0.4758602E-002  0.4123735E+03  0.7818608E-02  0.1039577E+00
         21   -1    0    0  503  502  0.00000000000E+00  0.00000000000E+00  0.17555503925E+04  0.17555503925E+04  0.00000000000E+00 0. -1.
         21   -1    0    0  501  503 -0.00000000000E+00 -0.00000000000E+00 -0.10423968898E+03  0.10423968898E+03  0.00000000000E+00 0. -1.
    9000007    1    1    2  501    0 -0.69989472016E+02  0.71787011450E+02  0.10729875388E+04  0.11495017005E+04  0.40000000000E+03 0.  1.
   -9000007    1    1    2    0  502  0.69989472016E+02 -0.71787011450E+02  0.57832316475E+03  0.71028838094E+03  0.40000000000E+03 0.  1.
<mgrwt>
<rscale>  2 0.41237350E+03</rscale>
<asrwt>0</asrwt>
<pdfrwt beam="1">  1       21 0.27008466E+00 0.41237350E+03</pdfrwt>
<pdfrwt beam="2">  1       21 0.16036876E-01 0.41237350E+03</pdfrwt>
<totfact> 0.14765718E+03</totfact>
</mgrwt>
</event>
<event>
 4    1  0.4758602E-002  0.4570248E+03  0.7818608E-02  0.1025648E+00
         21   -1    0    0  503  502  0.00000000000E+00  0.00000000000E+00  0.37704855245E+03  0.37704855245E+03  0.00000000000E+00 0.  1.
         21   -1    0    0  501  503 -0.00000000000E+00 -0.00000000000E+00 -0.56190371830E+03  0.56190371830E+03  0.00000000000E+00 0.  1.
    9000007    1    1    2  501    0 -0.19458445770E+03  0.10492160887E+03 -0.14823104109E+03  0.48046237806E+03  0.40000000000E+03 0.  1.
   -9000007    1    1    2    0  502  0.19458445770E+03 -0.10492160887E+03 -0.36624124757E+02  0.45848989269E+03  0.40000000000E+03 0.  1.
<mgrwt>
<rscale>  2 0.45702479E+03</rscale>
<asrwt>0</asrwt>
<pdfrwt beam="1">  1       21 0.58007470E-01 0.45702479E+03</pdfrwt>
<pdfrwt beam="2">  1       21 0.86446725E-01 0.45702479E+03</pdfrwt>
<totfact> 0.27841395E+03</totfact>
</mgrwt>
</event>
<event>
 4    1  0.4758602E-002  0.4201447E+03  0.7818608E-02  0.1037019E+00
         21   -1    0    0  501  502  0.00000000000E+00  0.00000000000E+00  0.47961943450E+03  0.47961943450E+03  0.00000000000E+00 0.  1.
         21   -1    0    0  502  503 -0.00000000000E+00 -0.00000000000E+00 -0.44685309195E+03  0.44685309195E+03  0.00000000000E+00 0.  1.
    9000007    1    1    2  501    0  0.41010654534E+02 -0.12181837634E+03  0.21092153185E+03  0.47011645706E+03  0.40000000000E+03 0.  1.
   -9000007    1    1    2    0  503 -0.41010654534E+02  0.12181837634E+03 -0.17815518930E+03  0.45635606940E+03  0.40000000000E+03 0.  1.
<mgrwt>
<rscale>  2 0.42014473E+03</rscale>
<asrwt>0</asrwt>
<pdfrwt beam="1">  1       21 0.73787605E-01 0.42014473E+03</pdfrwt>
<pdfrwt beam="2">  1       21 0.68746630E-01 0.42014473E+03</pdfrwt>
<totfact> 0.27944174E+03</totfact>
</mgrwt>
</event>
<event>
 4    1  0.4758602E-002  0.5677188E+03  0.7818608E-02  0.9974739E-01
         21   -1    0    0  503  502  0.00000000000E+00  0.00000000000E+00  0.56241439929E+03  0.56241439929E+03  0.00000000000E+00 0. -1.
         21   -1    0    0  501  503 -0.00000000000E+00 -0.00000000000E+00 -0.60424255743E+03  0.60424255743E+03  0.00000000000E+00 0.  1.
    9000007    1    1    2  501    0  0.33965071222E+03  0.21666122041E+03 -0.15340025564E+03  0.58807850596E+03  0.40000000000E+03 0. -1.
   -9000007    1    1    2    0  502 -0.33965071222E+03 -0.21666122041E+03  0.11157209750E+03  0.57857845076E+03  0.40000000000E+03 0. -1.
<mgrwt>
<rscale>  2 0.56771885E+03</rscale>
<asrwt>0</asrwt>
<pdfrwt beam="1">  1       21 0.86525292E-01 0.56771885E+03</pdfrwt>
<pdfrwt beam="2">  1       21 0.92960394E-01 0.56771885E+03</pdfrwt>
<totfact> 0.91212114E+02</totfact>
</mgrwt>
</event>
<event>
 4    1  0.4758602E-002  0.4846713E+03  0.7818608E-02  0.1017859E+00
         21   -1    0    0  501  502  0.00000000000E+00  0.00000000000E+00  0.34078454490E+03  0.34078454490E+03  0.00000000000E+00 0.  1.
         21   -1    0    0  502  503 -0.00000000000E+00 -0.00000000000E+00 -0.85592643747E+03  0.85592643747E+03  0.00000000000E+00 0.  1.
    9000007    1    1    2  501    0 -0.51973305448E+02  0.26870996127E+03  0.64264861358E+01  0.48471390272E+03  0.40000000000E+03 0.  1.
   -9000007    1    1    2    0  503  0.51973305448E+02 -0.26870996127E+03 -0.52156837871E+03  0.71199707965E+03  0.40000000000E+03 0.  1.
<mgrwt>
<rscale>  2 0.48467130E+03</rscale>
<asrwt>0</asrwt>
<pdfrwt beam="1">  1       21 0.52428392E-01 0.48467130E+03</pdfrwt>
<pdfrwt beam="2">  1       21 0.13168099E+00 0.48467130E+03</pdfrwt>
<totfact> 0.12116535E+03</totfact>
</mgrwt>
</event>
<event>
 4    1  0.4758602E-002  0.6254967E+03  0.7818608E-02  0.9853876E-01
         21   -1    0    0  501  502  0.00000000000E+00  0.00000000000E+00  0.19123788039E+03  0.19123788039E+03  0.00000000000E+00 0.  1.
         21   -1    0    0  502  503 -0.00000000000E+00 -0.00000000000E+00 -0.24092201384E+04  0.24092201384E+04  0.00000000000E+00 0. -1.
    9000007    1    1    2  501    0 -0.13961257766E+03  0.46016784897E+03 -0.60403964487E+03  0.86954586633E+03  0.40000000000E+03 0.  1.
   -9000007    1    1    2    0  503  0.13961257766E+03 -0.46016784897E+03 -0.16139426131E+04  0.17309121524E+04  0.40000000000E+03 0. -1.
<mgrwt>
<rscale>  2 0.62549670E+03</rscale>
<asrwt>0</asrwt>
<pdfrwt beam="1">  1       21 0.29421212E-01 0.62549670E+03</pdfrwt>
<pdfrwt beam="2">  1       21 0.37064926E+00 0.62549670E+03</pdfrwt>
<totfact> 0.10013631E+02</totfact>
</mgrwt>
</event>
<event>
 4    1  0.4758602E-002  0.4235002E+03  0.7818608E-02  0.1035933E+00
         21   -1    0    0  501  502  0.00000000000E+00  0.00000000000E+00  0.71990419028E+03  0.71990419028E+03  0.00000000000E+00 0. -1.
         21   -1    0    0  502  503 -0.00000000000E+00 -0.00000000000E+00 -0.24962843330E+03  0.24962843330E+03  0.00000000000E+00 0. -1.
    9000007    1    1    2  501    0 -0.70668140162E+02  0.11982668218E+03  0.25671808504E+03  0.49523387908E+03  0.40000000000E+03 0. -1.
   -9000007    1    1    2    0  503  0.70668140162E+02 -0.11982668218E+03  0.21355767194E+03  0.47429874451E+03  0.40000000000E+03 0. -1.
<mgrwt>
<rscale>  2 0.42350020E+03</rscale>
<asrwt>0</asrwt>
<pdfrwt beam="1">  1       21 0.11075449E+00 0.42350020E+03</pdfrwt>
<pdfrwt beam="2">  1       21 0.38404375E-01 0.42350020E+03</pdfrwt>
<totfact> 0.36968829E+03</totfact>
</mgrwt>
</event>
<event>
 4    1  0.4758602E-002  0.4089779E+03  0.7818608E-02  0.1040715E+00
         21   -1    0    0  503  502  0.00000000000E+00  0.00000000000E+00  0.97883829377E+03  0.97883829377E+03  0.00000000000E+00 0. -1.
         21   -1    0    0  501  503 -0.00000000000E+00 -0.00000000000E+00 -0.25159468824E+03  0.25159468824E+03  0.00000000000E+00 0. -1.
    9000007    1    1    2  501    0 -0.82166420453E+02  0.22619164438E+02  0.15159256461E+02  0.40925878159E+03  0.40000000000E+03 0. -1.
   -9000007    1    1    2    0  502  0.82166420453E+02 -0.22619164438E+02  0.71208434906E+03  0.82117420042E+03  0.40000000000E+03 0. -1.
<mgrwt>
<rscale>  2 0.40897793E+03</rscale>
<asrwt>0</asrwt>
<pdfrwt beam="1">  1       21 0.15059050E+00 0.40897793E+03</pdfrwt>
<pdfrwt beam="2">  1       21 0.38706876E-01 0.40897793E+03</pdfrwt>
<totfact> 0.16518278E+03</totfact>
</mgrwt>
</event>
<event>
 4    1  0.4758602E-002  0.4274310E+03  0.7818608E-02  0.1034675E+00
         21   -1    0    0  503  502  0.00000000000E+00  0.00000000000E+00  0.11498966181E+04  0.11498966181E+04  0.00000000000E+00 0. -1.
         21   -1    0    0  501  503 -0.00000000000E+00 -0.00000000000E+00 -0.29129883093E+03  0.29129883093E+03  0.00000000000E+00 0. -1.
    9000007    1    1    2  501    0 -0.12673469919E+03  0.81458831934E+02 -0.56544203189E+02  0.43115481233E+03  0.40000000000E+03 0. -1.
   -9000007    1    1    2    0  502  0.12673469919E+03 -0.81458831934E+02  0.91514199039E+03  0.10100406367E+04  0.40000000000E+03 0. -1.
<mgrwt>
<rscale>  2 0.42743096E+03</rscale>
<asrwt>0</asrwt>
<pdfrwt beam="1">  1       21 0.17690717E+00 0.42743096E+03</pdfrwt>
<pdfrwt beam="2">  1       21 0.44815205E-01 0.42743096E+03</pdfrwt>
<totfact> 0.77062324E+02</totfact>
</mgrwt>
</event>
<event>
 4    1  0.4758602E-002  0.4721872E+03  0.7818608E-02  0.1021305E+00
         21   -1    0    0  501  502  0.00000000000E+00  0.00000000000E+00  0.15912283858E+04  0.15912283858E+04  0.00000000000E+00 0. -1.
         21   -1    0    0  502  503 -0.00000000000E+00 -0.00000000000E+00 -0.14315394769E+03  0.14315394769E+03  0.00000000000E+00 0.  1.
    9000007    1    1    2  501    0  0.81334150043E+02  0.23737206215E+03  0.59776281475E+03  0.76176185422E+03  0.40000000000E+03 0.  1.
   -9000007    1    1    2    0  503 -0.81334150043E+02 -0.23737206215E+03  0.85031162333E+03  0.97262047923E+03  0.40000000000E+03 0. -1.
<mgrwt>
<rscale>  2 0.47218719E+03</rscale>
<asrwt>0</asrwt>
<pdfrwt beam="1">  1       21 0.24480435E+00 0.47218719E+03</pdfrwt>
<pdfrwt beam="2">  1       21 0.22023685E-01 0.47218719E+03</pdfrwt>
<totfact> 0.11216992E+03</totfact>
</mgrwt>
</event>
<event>
 4    1  0.4758602E-002  0.5247963E+03  0.7818608E-02  0.1007502E+00
         21   -1    0    0  503  502  0.00000000000E+00  0.00000000000E+00  0.31033188476E+03  0.31033188476E+03  0.00000000000E+00 0. -1.
         21   -1    0    0  501  503 -0.00000000000E+00 -0.00000000000E+00 -0.90627682126E+03  0.90627682126E+03  0.00000000000E+00 0. -1.
    9000007    1    1    2  501    0  0.29170571396E+03  0.17412325344E+03 -0.21035010700E+03  0.56538331993E+03  0.40000000000E+03 0. -1.
   -9000007    1    1    2    0  502 -0.29170571396E+03 -0.17412325344E+03 -0.38559482951E+03  0.65122538609E+03  0.40000000000E+03 0. -1.
<mgrwt>
<rscale>  2 0.52479628E+03</rscale>
<asrwt>0</asrwt>
<pdfrwt beam="1">  1       21 0.47743367E-01 0.52479628E+03</pdfrwt>
<pdfrwt beam="2">  1       21 0.13942720E+00 0.52479628E+03</pdfrwt>
<totfact> 0.12540563E+03</totfact>
</mgrwt>
</event>
<event>
 4    1  0.4758602E-002  0.4206059E+03  0.7818608E-02  0.1036869E+00
         21   -1    0    0  501  502  0.00000000000E+00  0.00000000000E+00  0.23716459554E+03  0.23716459554E+03  0.00000000000E+00 0. -1.
         21   -1    0    0  502  503 -0.00000000000E+00 -0.00000000000E+00 -0.20026643714E+04  0.20026643714E+04  0.00000000000E+00 0. -1.
    9000007    1    1    2  501    0  0.48872684937E+02 -0.12050216142E+03  0.44096039912E+01  0.42062899906E+03  0.40000000000E+03 0. -1.
   -9000007    1    1    2    0  503 -0.48872684937E+02  0.12050216142E+03 -0.17699093798E+04  0.18191999679E+04  0.40000000000E+03 0. -1.
<mgrwt>
<rscale>  2 0.42060588E+03</rscale>
<asrwt>0</asrwt>
<pdfrwt beam="1">  1       21 0.36486861E-01 0.42060588E+03</pdfrwt>
<pdfrwt beam="2">  1       21 0.30810221E+00 0.42060588E+03</pdfrwt>
<totfact> 0.17635165E+02</totfact>
</mgrwt>
</event>
<event>
 4    1  0.4758602E-002  0.4076297E+03  0.7818608E-02  0.1041169E+00
         21   -1    0    0  501  502  0.00000000000E+00  0.00000000000E+00  0.14129701410E+03  0.14129701410E+03  0.00000000000E+00 0. -1.
         21   -1    0    0  502  503 -0.00000000000E+00 -0.00000000000E+00 -0.21061654337E+04  0.21061654337E+04  0.00000000000E+00 0. -1.
    9000007    1    1    2  501    0 -0.65433378635E+02  0.43363995299E+02 -0.23563852412E+03  0.47083699640E+03  0.40000000000E+03 0. -1.
   -9000007    1    1    2    0  503  0.65433378635E+02 -0.43363995299E+02 -0.17292298954E+04  0.17766254514E+04  0.40000000000E+03 0. -1.
<mgrwt>
<rscale>  2 0.40762969E+03</rscale>
<asrwt>0</asrwt>
<pdfrwt beam="1">  1       21 0.21738003E-01 0.40762969E+03</pdfrwt>
<pdfrwt beam="2">  1       21 0.32402544E+00 0.40762969E+03</pdfrwt>
<totfact> 0.39587188E+02</totfact>
</mgrwt>
</event>
<event>
 4    1  0.4758602E-002  0.4374535E+03  0.7818608E-02  0.1031531E+00
         21   -1    0    0  503  502  0.00000000000E+00  0.00000000000E+00  0.32923211073E+03  0.32923211073E+03  0.00000000000E+00 0. -1.
         21   -1    0    0  501  503 -0.00000000000E+00 -0.00000000000E+00 -0.68112151969E+03  0.68112151969E+03  0.00000000000E+00 0.  1.
    9000007    1    1    2  501    0 -0.48981425819E+02  0.17019523411E+03  0.17499481128E+02  0.43780341436E+03  0.40000000000E+03 0. -1.
   -9000007    1    1    2    0  502  0.48981425819E+02 -0.17019523411E+03 -0.36938889009E+03  0.57255021606E+03  0.40000000000E+03 0.  1.
<mgrwt>
<rscale>  2 0.43745354E+03</rscale>
<asrwt>0</asrwt>
<pdfrwt beam="1">  1       21 0.50651095E-01 0.43745354E+03</pdfrwt>
<pdfrwt beam="2">  1       21 0.10478792E+00 0.43745354E+03</pdfrwt>
<totfact> 0.23661858E+03</totfact>
</mgrwt>
</event>
<event>
 4    1  0.4758602E-002  0.4433954E+03  0.7818608E-02  0.1029710E+00
         21   -1    0    0  503  502  0.00000000000E+00  0.00000000000E+00  0.35258961511E+03  0.35258961511E+03  0.00000000000E+00 0.  1.
         21   -1    0    0  501  503 -0.00000000000E+00 -0.00000000000E+00 -0.98255184846E+03  0.98255184846E+03  0.00000000000E+00 0.  1.
    9000007    1    1    2  501    0 -0.71619504410E+02  0.17739816751E+03 -0.75401287901E+03  0.87471988943E+03  0.40000000000E+03 0.  1.
   -9000007    1    1    2    0  502  0.71619504410E+02 -0.17739816751E+03  0.12405064566E+03  0.46042157414E+03  0.40000000000E+03 0.  1.
<mgrwt>
<rscale>  2 0.44339538E+03</rscale>
<asrwt>0</asrwt>
<pdfrwt beam="1">  1       21 0.54244557E-01 0.44339538E+03</pdfrwt>
<pdfrwt beam="2">  1       21 0.15116182E+00 0.44339538E+03</pdfrwt>
<totfact> 0.79299271E+02</totfact>
</mgrwt>
</event>
<event>
 4    1  0.4758602E-002  0.5066797E+03  0.7818608E-02  0.1012050E+00
         21   -1    0    0  501  502  0.00000000000E+00  0.00000000000E+00  0.16718121024E+04  0.16718121024E+04  0.00000000000E+00 0. -1.
         21   -1    0    0  502  503 -0.00000000000E+00 -0.00000000000E+00 -0.15458085938E+03  0.15458085938E+03  0.00000000000E+00 0.  1.
    9000007    1    1    2  501    0  0.30442738784E+03 -0.63626468736E+02  0.83280732767E+03  0.97482942457E+03  0.40000000000E+03 0. -1.
   -9000007    1    1    2    0  503 -0.30442738784E+03  0.63626468736E+02  0.68442391537E+03  0.85156353722E+03  0.40000000000E+03 0.  1.
<mgrwt>
<rscale>  2 0.50667974E+03</rscale>
<asrwt>0</asrwt>
<pdfrwt beam="1">  1       21 0.25720185E+00 0.50667974E+03</pdfrwt>
<pdfrwt beam="2">  1       21 0.23781672E-01 0.50667974E+03</pdfrwt>
<totfact> 0.79830830E+02</totfact>
</mgrwt>
</event>
<event>
 4    1  0.4758602E-002  0.4001587E+03  0.7818608E-02  0.1043725E+00
         21   -1    0    0  503  502  0.00000000000E+00  0.00000000000E+00  0.22897994279E+03  0.22897994279E+03  0.00000000000E+00 0.  1.
         21   -1    0    0  501  503 -0.00000000000E+00 -0.00000000000E+00 -0.14815998524E+04  0.14815998524E+04  0.00000000000E+00 0.  1.
    9000007    1    1    2  501    0  0.64006804358E+01 -0.92729998248E+01 -0.12477982416E+04  0.13103920821E+04  0.40000000000E+03 0.  1.
   -9000007    1    1    2    0  502 -0.64006804358E+01  0.92729998248E+01 -0.48216680852E+01  0.40018771310E+03  0.40000000000E+03 0.  1.
<mgrwt>
<rscale>  2 0.40015867E+03</rscale>
<asrwt>0</asrwt>
<pdfrwt beam="1">  1       21 0.35227685E-01 0.40015867E+03</pdfrwt>
<pdfrwt beam="2">  1       21 0.22793843E+00 0.40015867E+03</pdfrwt>
<totfact> 0.58790225E+02</totfact>
</mgrwt>
</event>
<event>
 4    1  0.4758602E-002  0.4304238E+03  0.7818608E-02  0.1033726E+00
         21   -1    0    0  501  502  0.00000000000E+00  0.00000000000E+00  0.20622387036E+03  0.20622387036E+03  0.00000000000E+00 0.  1.
         21   -1    0    0  502  503 -0.00000000000E+00 -0.00000000000E+00 -0.19641058483E+04  0.19641058483E+04  0.00000000000E+00 0.  1.
    9000007    1    1    2  501    0 -0.12420571952E+03 -0.99184815967E+02 -0.79587809706E+02  0.43772012512E+03  0.40000000000E+03 0.  1.
   -9000007    1    1    2    0  503  0.12420571952E+03  0.99184815967E+02 -0.16782941682E+04  0.17326095935E+04  0.40000000000E+03 0.  1.
<mgrwt>
<rscale>  2 0.43042385E+03</rscale>
<asrwt>0</asrwt>
<pdfrwt beam="1">  1       21 0.31726750E-01 0.43042385E+03</pdfrwt>
<pdfrwt beam="2">  1       21 0.30217013E+00 0.43042385E+03</pdfrwt>
<totfact> 0.25208182E+02</totfact>
</mgrwt>
</event>
<event>
 4    1  0.4758602E-002  0.4322524E+03  0.7818608E-02  0.1033151E+00
         21   -1    0    0  503  502  0.00000000000E+00  0.00000000000E+00  0.84471914936E+03  0.84471914936E+03  0.00000000000E+00 0. -1.
         21   -1    0    0  501  503 -0.00000000000E+00 -0.00000000000E+00 -0.23980636905E+03  0.23980636905E+03  0.00000000000E+00 0. -1.
    9000007    1    1    2  501    0 -0.47809381591E+02  0.15670482985E+03  0.15136326739E+03  0.45798796860E+03  0.40000000000E+03 0. -1.
   -9000007    1    1    2    0  502  0.47809381591E+02 -0.15670482985E+03  0.45354951292E+03  0.62653754982E+03  0.40000000000E+03 0. -1.
<mgrwt>
<rscale>  2 0.43225240E+03</rscale>
<asrwt>0</asrwt>
<pdfrwt beam="1">  1       21 0.12995679E+00 0.43225240E+03</pdfrwt>
<pdfrwt beam="2">  1       21 0.36893288E-01 0.43225240E+03</pdfrwt>
<totfact> 0.26664234E+03</totfact>
</mgrwt>
</event>
<event>
 4    1  0.4758602E-002  0.7207883E+03  0.7818608E-02  0.9682327E-01
         21   -1    0    0  501  502  0.00000000000E+00  0.00000000000E+00  0.78487527548E+03  0.78487527548E+03  0.00000000000E+00 0.  1.
         21   -1    0    0  502  503 -0.00000000000E+00 -0.00000000000E+00 -0.74926476793E+03  0.74926476793E+03  0.00000000000E+00 0. -1.
    9000007    1    1    2  501    0  0.46921776670E+03 -0.37332345488E+03  0.27968428638E+03  0.77314876615E+03  0.40000000000E+03 0.  1.
   -9000007    1    1    2    0  503 -0.46921776670E+03  0.37332345488E+03 -0.24407377883E+03  0.76099127726E+03  0.40000000000E+03 0. -1.
<mgrwt>
<rscale>  2 0.72078826E+03</rscale>
<asrwt>0</asrwt>
<pdfrwt beam="1">  1       21 0.12075004E+00 0.72078826E+03</pdfrwt>
<pdfrwt beam="2">  1       21 0.11527150E+00 0.72078826E+03</pdfrwt>
<totfact> 0.22481846E+02</totfact>
</mgrwt>
</event>
<event>
 4    1  0.4758602E-002  0.4442504E+03  0.7818608E-02  0.1029451E+00
         21   -1    0    0  503  502  0.00000000000E+00  0.00000000000E+00  0.10038817722E+04  0.10038817722E+04  0.00000000000E+00 0. -1.
         21   -1    0    0  501  503 -0.00000000000E+00 -0.00000000000E+00 -0.27148049029E+03  0.27148049029E+03  0.00000000000E+00 0. -1.
    9000007    1    1    2  501    0  0.19112261469E+03  0.28819550808E+02  0.70111384842E+03  0.83001147510E+03  0.40000000000E+03 0. -1.
   -9000007    1    1    2    0  502 -0.19112261469E+03 -0.28819550808E+02  0.31287433522E+02  0.44535078741E+03  0.40000000000E+03 0. -1.
<mgrwt>
<rscale>  2 0.44425040E+03</rscale>
<asrwt>0</asrwt>
<pdfrwt beam="1">  1       21 0.15444335E+00 0.44425040E+03</pdfrwt>
<pdfrwt beam="2">  1       21 0.41766230E-01 0.44425040E+03</pdfrwt>
<totfact> 0.12983803E+03</totfact>
</mgrwt>
</event>
<event>
 4    1  0.4758602E-002  0.4571683E+03  0.7818608E-02  0.1025606E+00
         21   -1    0    0  501  502  0.00000000000E+00  0.00000000000E+00  0.43846055822E+03  0.43846055822E+03  0.00000000000E+00 0. -1.
         21   -1    0    0  502  503 -0.00000000000E+00 -0.00000000000E+00 -0.49538308981E+03  0.49538308981E+03  0.00000000000E+00 0. -1.
    9000007    1    1    2  501    0  0.28980146619E+02 -0.21946081756E+03  0.62278135982E+02  0.46139079484E+03  0.40000000000E+03 0. -1.
   -9000007    1    1    2    0  503 -0.28980146619E+02  0.21946081756E+03 -0.11920066757E+03  0.47245285320E+03  0.40000000000E+03 0. -1.
<mgrwt>
<rscale>  2 0.45716835E+03</rscale>
<asrwt>0</asrwt>
<pdfrwt beam="1">  1       21 0.67455471E-01 0.45716835E+03</pdfrwt>
<pdfrwt beam="2">  1       21 0.76212783E-01 0.45716835E+03</pdfrwt>
<totfact> 0.26717965E+03</totfact>
</mgrwt>
</event>
<event>
 4    1  0.4758602E-002  0.4999961E+03  0.7818608E-02  0.1013780E+00
         21   -1    0    0  501  502  0.00000000000E+00  0.00000000000E+00  0.11964341809E+04  0.11964341809E+04  0.00000000000E+00 0. -1.
         21   -1    0    0  502  503 -0.00000000000E+00 -0.00000000000E+00 -0.20928232058E+03  0.20928232058E+03  0.00000000000E+00 0.  1.
    9000007    1    1    2  501    0  0.29757953329E+03 -0.37980218097E+02  0.52154314360E+03  0.72249797663E+03  0.40000000000E+03 0. -1.
   -9000007    1    1    2    0  503 -0.29757953329E+03  0.37980218097E+02  0.46560871668E+03  0.68321852481E+03  0.40000000000E+03 0.  1.
<mgrwt>
<rscale>  2 0.49999608E+03</rscale>
<asrwt>0</asrwt>
<pdfrwt beam="1">  1       21 0.18406679E+00 0.49999608E+03</pdfrwt>
<pdfrwt beam="2">  1       21 0.32197281E-01 0.49999608E+03</pdfrwt>
<totfact> 0.13084202E+03</totfact>
</mgrwt>
</event>
<event>
 4    1  0.4758602E-002  0.4231940E+03  0.7818608E-02  0.1036032E+00
         21   -1    0    0  501  502  0.00000000000E+00  0.00000000000E+00  0.21071185332E+03  0.21071185332E+03  0.00000000000E+00 0.  1.
         21   -1    0    0  502  503 -0.00000000000E+00 -0.00000000000E+00 -0.85129198410E+03  0.85129198410E+03  0.00000000000E+00 0.  1.
    9000007    1    1    2  501    0  0.10999800663E+03 -0.83627668549E+02 -0.29915535444E+03  0.51825387071E+03  0.40000000000E+03 0.  1.
   -9000007    1    1    2    0  503 -0.10999800663E+03  0.83627668549E+02 -0.34142477634E+03  0.54374996672E+03  0.40000000000E+03 0.  1.
<mgrwt>
<rscale>  2 0.42319398E+03</rscale>
<asrwt>0</asrwt>
<pdfrwt beam="1">  1       21 0.32417208E-01 0.42319398E+03</pdfrwt>
<pdfrwt beam="2">  1       21 0.13096800E+00 0.42319398E+03</pdfrwt>
<totfact> 0.34049728E+03</totfact>
</mgrwt>
</event>
<event>
 4    1  0.4758602E-002  0.4344431E+03  0.7818608E-02  0.1032466E+00
         21   -1    0    0  503  502  0.00000000000E+00  0.00000000000E+00  0.16287582083E+03  0.16287582083E+03  0.00000000000E+00 0.  1.
         21   -1    0    0  501  503 -0.00000000000E+00 -0.00000000000E+00 -0.13605798313E+04  0.13605798313E+04  0.00000000000E+00 0.  1.
    9000007    1    1    2  501    0 -0.11823429676E+03 -0.12149674809E+03 -0.89219427730E+03  0.99234643002E+03  0.40000000000E+03 0.  1.
   -9000007    1    1    2    0  502  0.11823429676E+03  0.12149674809E+03 -0.30550973313E+03  0.53110922207E+03  0.40000000000E+03 0.  1.
<mgrwt>
<rscale>  2 0.43444310E+03</rscale>
<asrwt>0</asrwt>
<pdfrwt beam="1">  1       21 0.25057818E-01 0.43444310E+03</pdfrwt>
<pdfrwt beam="2">  1       21 0.20931998E+00 0.43444310E+03</pdfrwt>
<totfact> 0.14922267E+03</totfact>
</mgrwt>
</event>
<event>
 4    1  0.4758602E-002  0.4276459E+03  0.7818608E-02  0.1034606E+00
         21   -1    0    0  503  502  0.00000000000E+00  0.00000000000E+00  0.57782934357E+03  0.57782934357E+03  0.00000000000E+00 0. -1.
         21   -1    0    0  501  503 -0.00000000000E+00 -0.00000000000E+00 -0.73984115585E+03  0.73984115585E+03  0.00000000000E+00 0. -1.
    9000007    1    1    2  501    0 -0.10493972133E+03 -0.10894337719E+03 -0.57937900222E+03  0.72011181963E+03  0.40000000000E+03 0. -1.
   -9000007    1    1    2    0  502  0.10493972133E+03  0.10894337719E+03  0.41736718994E+03  0.59755867979E+03  0.40000000000E+03 0. -1.
<mgrwt>
<rscale>  2 0.42764589E+03</rscale>
<asrwt>0</asrwt>
<pdfrwt beam="1">  1       21 0.88896823E-01 0.42764589E+03</pdfrwt>
<pdfrwt beam="2">  1       21 0.11382172E+00 0.42764589E+03</pdfrwt>
<totfact> 0.55027909E+02</totfact>
</mgrwt>
</event>
<event>
 4    1  0.4758602E-002  0.4296346E+03  0.7818608E-02  0.1033975E+00
         21   -1    0    0  501  502  0.00000000000E+00  0.00000000000E+00  0.61637508860E+03  0.61637508860E+03  0.00000000000E+00 0.  1.
         21   -1    0    0  502  503 -0.00000000000E+00 -0.00000000000E+00 -0.30016940734E+03  0.30016940734E+03  0.00000000000E+00 0. -1.
    9000007    1    1    2  501    0 -0.10523355121E+03  0.11624032380E+03  0.18022219749E+03  0.46590337372E+03  0.40000000000E+03 0. -1.
   -9000007    1    1    2    0  503  0.10523355121E+03 -0.11624032380E+03  0.13598348376E+03  0.45064112222E+03  0.40000000000E+03 0.  1.
<mgrwt>
<rscale>  2 0.42963463E+03</rscale>
<asrwt>0</asrwt>
<pdfrwt beam="1">  1       21 0.94826937E-01 0.42963463E+03</pdfrwt>
<pdfrwt beam="2">  1       21 0.46179909E-01 0.42963463E+03</pdfrwt>
<totfact> 0.36765428E+03</totfact>
</mgrwt>
</event>
<event>
 4    1  0.4758602E-002  0.4295566E+03  0.7818608E-02  0.1034000E+00
         21   -1    0    0  503  502  0.00000000000E+00  0.00000000000E+00  0.58263648560E+03  0.58263648560E+03  0.00000000000E+00 0. -1.
         21   -1    0    0  501  503 -0.00000000000E+00 -0.00000000000E+00 -0.93134559807E+03  0.93134559807E+03  0.00000000000E+00 0. -1.
    9000007    1    1    2  501    0  0.43019756725E+02 -0.15055945347E+03 -0.78931755277E+03  0.89863287699E+03  0.40000000000E+03 0. -1.
   -9000007    1    1    2    0  502 -0.43019756725E+02  0.15055945347E+03  0.44060844030E+03  0.61534920668E+03  0.40000000000E+03 0. -1.
<mgrwt>
<rscale>  2 0.42955657E+03</rscale>
<asrwt>0</asrwt>
<pdfrwt beam="1">  1       21 0.89636384E-01 0.42955657E+03</pdfrwt>
<pdfrwt beam="2">  1       21 0.14328394E+00 0.42955657E+03</pdfrwt>
<totfact> 0.29757971E+02</totfact>
</mgrwt>
</event>
<event>
 4    1  0.4758602E-002  0.4564898E+03  0.7818608E-02  0.1025804E+00
         21   -1    0    0  503  502  0.00000000000E+00  0.00000000000E+00  0.24070646462E+04  0.24070646462E+04  0.00000000000E+00 0. -1.
         21   -1    0    0  501  503 -0.00000000000E+00 -0.00000000000E+00 -0.21133510881E+03  0.21133510881E+03  0.00000000000E+00 0. -1.
    9000007    1    1    2  501    0 -0.95301485888E+02  0.19824372506E+03  0.91942842759E+02  0.46565699187E+03  0.40000000000E+03 0. -1.
   -9000007    1    1    2    0  502  0.95301485888E+02 -0.19824372506E+03  0.21037866946E+04  0.21527427631E+04  0.40000000000E+03 0. -1.
<mgrwt>
<rscale>  2 0.45648981E+03</rscale>
<asrwt>0</asrwt>
<pdfrwt beam="1">  1       21 0.37031762E+00 0.45648981E+03</pdfrwt>
<pdfrwt beam="2">  1       21 0.32513095E-01 0.45648981E+03</pdfrwt>
<totfact> 0.90698004E+01</totfact>
</mgrwt>
</event>
<event>
 4    1  0.4758602E-002  0.4167190E+03  0.7818608E-02  0.1038139E+00
         21   -1    0    0  501  502  0.00000000000E+00  0.00000000000E+00  0.30207507803E+03  0.30207507803E+03  0.00000000000E+00 0.  1.
         21   -1    0    0  502  503 -0.00000000000E+00 -0.00000000000E+00 -0.67424262213E+03  0.67424262213E+03  0.00000000000E+00 0.  1.
    9000007    1    1    2  501    0 -0.10874767854E+03  0.42763134324E+02  0.13208687487E+01  0.41672111530E+03  0.40000000000E+03 0.  1.
   -9000007    1    1    2    0  503  0.10874767854E+03 -0.42763134324E+02 -0.37348841285E+03  0.55959658485E+03  0.40000000000E+03 0.  1.
<mgrwt>
<rscale>  2 0.41671902E+03</rscale>
<asrwt>0</asrwt>
<pdfrwt beam="1">  1       21 0.46473089E-01 0.41671902E+03</pdfrwt>
<pdfrwt beam="2">  1       21 0.10372963E+00 0.41671902E+03</pdfrwt>
<totfact> 0.29336818E+03</totfact>
</mgrwt>
</event>
<event>
 4    1  0.4758602E-002  0.5060732E+03  0.7818608E-02  0.1012206E+00
         21   -1    0    0  501  502  0.00000000000E+00  0.00000000000E+00  0.90887235544E+03  0.90887235544E+03  0.00000000000E+00 0.  1.
         21   -1    0    0  502  503 -0.00000000000E+00 -0.00000000000E+00 -0.40087304246E+03  0.40087304246E+03  0.00000000000E+00 0. -1.
    9000007    1    1    2  501    0  0.12048218998E+03 -0.28564677297E+03  0.61092767037E+03  0.79331119709E+03  0.40000000000E+03 0.  1.
   -9000007    1    1    2    0  503 -0.12048218998E+03  0.28564677297E+03 -0.10292835739E+03  0.51643420081E+03  0.40000000000E+03 0. -1.
<mgrwt>
<rscale>  2 0.50607315E+03</rscale>
<asrwt>0</asrwt>
<pdfrwt beam="1">  1       21 0.13982652E+00 0.50607315E+03</pdfrwt>
<pdfrwt beam="2">  1       21 0.61672776E-01 0.50607315E+03</pdfrwt>
<totfact> 0.72045609E+02</totfact>
</mgrwt>
</event>
<event>
 4    1  0.4758602E-002  0.4490601E+03  0.7818608E-02  0.1028003E+00
         21   -1    0    0  501  502  0.00000000000E+00  0.00000000000E+00  0.13920066393E+04  0.13920066393E+04  0.00000000000E+00 0. -1.
         21   -1    0    0  502  503 -0.00000000000E+00 -0.00000000000E+00 -0.14672619351E+03  0.14672619351E+03  0.00000000000E+00 0. -1.
    9000007    1    1    2  501    0  0.18324516053E+03 -0.89867762369E+02  0.70925872647E+03  0.83946586866E+03  0.40000000000E+03 0. -1.
   -9000007    1    1    2    0  503 -0.18324516053E+03  0.89867762369E+02  0.53602171935E+03  0.69926696418E+03  0.40000000000E+03 0. -1.
<mgrwt>
<rscale>  2 0.44906013E+03</rscale>
<asrwt>0</asrwt>
<pdfrwt beam="1">  1       21 0.21415486E+00 0.44906013E+03</pdfrwt>
<pdfrwt beam="2">  1       21 0.22573261E-01 0.44906013E+03</pdfrwt>
<totfact> 0.16877496E+03</totfact>
</mgrwt>
</event>
<event>
 4    1  0.4758602E-002  0.7868497E+03  0.7818608E-02  0.9579249E-01
         21   -1    0    0  503  502  0.00000000000E+00  0.00000000000E+00  0.87663528309E+03  0.87663528309E+03  0.00000000000E+00 0. -1.
         21   -1    0    0  501  503 -0.00000000000E+00 -0.00000000000E+00 -0.70708022320E+03  0.70708022320E+03  0.00000000000E+00 0. -1.
    9000007    1    1    2  501    0  0.55341228982E+03 -0.39098242124E+03  0.11174775223E+03  0.79474522734E+03  0.40000000000E+03 0. -1.
   -9000007    1    1    2    0  502 -0.55341228982E+03  0.39098242124E+03  0.57807307657E+02  0.78897027895E+03  0.40000000000E+03 0. -1.
<mgrwt>
<rscale>  2 0.78684968E+03</rscale>
<asrwt>0</asrwt>
<pdfrwt beam="1">  1       21 0.13486697E+00 0.78684968E+03</pdfrwt>
<pdfrwt beam="2">  1       21 0.10878157E+00 0.78684968E+03</pdfrwt>
<totfact> 0.19108787E+02</totfact>
</mgrwt>
</event>
<event>
 4    1  0.4758602E-002  0.6050280E+03  0.7818608E-02  0.9895029E-01
         21   -1    0    0  501  502  0.00000000000E+00  0.00000000000E+00  0.24491472877E+03  0.24491472877E+03  0.00000000000E+00 0. -1.
         21   -1    0    0  502  503 -0.00000000000E+00 -0.00000000000E+00 -0.21042205382E+04  0.21042205382E+04  0.00000000000E+00 0.  1.
    9000007    1    1    2  501    0  0.93588762562E+02  0.44418464601E+03 -0.29746138395E+03  0.67419739778E+03  0.40000000000E+03 0. -1.
   -9000007    1    1    2    0  503 -0.93588762562E+02 -0.44418464601E+03 -0.15618444255E+04  0.16749378692E+04  0.40000000000E+03 0.  1.
<mgrwt>
<rscale>  2 0.60502798E+03</rscale>
<asrwt>0</asrwt>
<pdfrwt beam="1">  1       21 0.37679189E-01 0.60502798E+03</pdfrwt>
<pdfrwt beam="2">  1       21 0.32372624E+00 0.60502798E+03</pdfrwt>
<totfact> 0.11977016E+02</totfact>
</mgrwt>
</event>
<event>
 4    1  0.4758602E-002  0.4999364E+03  0.7818608E-02  0.1013796E+00
         21   -1    0    0  503  502  0.00000000000E+00  0.00000000000E+00  0.78102876372E+03  0.78102876372E+03  0.00000000000E+00 0.  1.
         21   -1    0    0  501  503 -0.00000000000E+00 -0.00000000000E+00 -0.37463115126E+03  0.37463115126E+03  0.00000000000E+00 0.  1.
    9000007    1    1    2  501    0 -0.12341110205E+02 -0.29963999381E+03 -0.17439805905E+02  0.50024051787E+03  0.40000000000E+03 0.  1.
   -9000007    1    1    2    0  502  0.12341110205E+02  0.29963999381E+03  0.42383741837E+03  0.65541939711E+03  0.40000000000E+03 0.  1.
<mgrwt>
<rscale>  2 0.49993642E+03</rscale>
<asrwt>0</asrwt>
<pdfrwt beam="1">  1       21 0.12015827E+00 0.49993642E+03</pdfrwt>
<pdfrwt beam="2">  1       21 0.57635562E-01 0.49993642E+03</pdfrwt>
<totfact> 0.12435198E+03</totfact>
</mgrwt>
</event>
<event>
 4    1  0.4758602E-002  0.6110107E+03  0.7818608E-02  0.9882822E-01
         21   -1    0    0  501  502  0.00000000000E+00  0.00000000000E+00  0.31160960966E+03  0.31160960966E+03  0.00000000000E+00 0.  1.
         21   -1    0    0  502  503 -0.00000000000E+00 -0.00000000000E+00 -0.18554725451E+04  0.18554725451E+04  0.00000000000E+00 0. -1.
    9000007    1    1    2  501    0 -0.61411187422E+02  0.45778025505E+03 -0.12697619843E+03  0.62406494119E+03  0.40000000000E+03 0. -1.
   -9000007    1    1    2    0  503  0.61411187422E+02 -0.45778025505E+03 -0.14168867370E+04  0.15430172136E+04  0.40000000000E+03 0. -1.
<mgrwt>
<rscale>  2 0.61101072E+03</rscale>
<asrwt>0</asrwt>
<pdfrwt beam="1">  1       21 0.47939939E-01 0.61101072E+03</pdfrwt>
<pdfrwt beam="2">  1       21 0.28545732E+00 0.61101072E+03</pdfrwt>
<totfact> 0.12357380E+02</totfact>
</mgrwt>
</event>
<event>
 4    1  0.4758602E-002  0.5407774E+03  0.7818608E-02  0.1003651E+00
         21   -1    0    0  501  502  0.00000000000E+00  0.00000000000E+00  0.44503111185E+03  0.44503111185E+03  0.00000000000E+00 0.  1.
         21   -1    0    0  502  503 -0.00000000000E+00 -0.00000000000E+00 -0.66092325477E+03  0.66092325477E+03  0.00000000000E+00 0.  1.
    9000007    1    1    2  501    0 -0.31498294644E+03 -0.18227981967E+03 -0.14987722228E+03  0.56116251742E+03  0.40000000000E+03 0.  1.
   -9000007    1    1    2    0  503  0.31498294644E+03  0.18227981967E+03 -0.66014920643E+02  0.54479184920E+03  0.40000000000E+03 0.  1.
<mgrwt>
<rscale>  2 0.54077739E+03</rscale>
<asrwt>0</asrwt>
<pdfrwt beam="1">  1       21 0.68466325E-01 0.54077739E+03</pdfrwt>
<pdfrwt beam="2">  1       21 0.10168050E+00 0.54077739E+03</pdfrwt>
<totfact> 0.12699757E+03</totfact>
</mgrwt>
</event>
<event>
 4    1  0.4758602E-002  0.4213075E+03  0.7818608E-02  0.1036642E+00
         21   -1    0    0  501  502  0.00000000000E+00  0.00000000000E+00  0.13972682154E+04  0.13972682154E+04  0.00000000000E+00 0.  1.
         21   -1    0    0  502  503 -0.00000000000E+00 -0.00000000000E+00 -0.20937632691E+03  0.20937632691E+03  0.00000000000E+00 0. -1.
    9000007    1    1    2  501    0  0.13112900034E+03 -0.17468830499E+02  0.10977233796E+04  0.11757961528E+04  0.40000000000E+03 0.  1.
   -9000007    1    1    2    0  503 -0.13112900034E+03  0.17468830499E+02  0.90168508887E+02  0.43084838954E+03  0.40000000000E+03 0. -1.
<mgrwt>
<rscale>  2 0.42130746E+03</rscale>
<asrwt>0</asrwt>
<pdfrwt beam="1">  1       21 0.21496433E+00 0.42130746E+03</pdfrwt>
<pdfrwt beam="2">  1       21 0.32211744E-01 0.42130746E+03</pdfrwt>
<totfact> 0.84117275E+02</totfact>
</mgrwt>
</event>
<event>
 4    1  0.4758602E-002  0.5286076E+03  0.7818608E-02  0.1006570E+00
         21   -1    0    0  501  502  0.00000000000E+00  0.00000000000E+00  0.50669736350E+03  0.50669736350E+03  0.00000000000E+00 0. -1.
         21   -1    0    0  502  503 -0.00000000000E+00 -0.00000000000E+00 -0.92408120012E+03  0.92408120012E+03  0.00000000000E+00 0. -1.
    9000007    1    1    2  501    0 -0.97135811242E+02  0.33164841782E+03  0.24558223132E+03  0.58286934317E+03  0.40000000000E+03 0. -1.
   -9000007    1    1    2    0  503  0.97135811242E+02 -0.33164841782E+03 -0.66296606794E+03  0.84790922044E+03  0.40000000000E+03 0. -1.
<mgrwt>
<rscale>  2 0.52860764E+03</rscale>
<asrwt>0</asrwt>
<pdfrwt beam="1">  1       21 0.77953441E-01 0.52860764E+03</pdfrwt>
<pdfrwt beam="2">  1       21 0.14216634E+00 0.52860764E+03</pdfrwt>
<totfact> 0.40268598E+02</totfact>
</mgrwt>
</event>
<event>
 4    1  0.4758602E-002  0.4082011E+03  0.7818608E-02  0.1040976E+00
         21   -1    0    0  501  502  0.00000000000E+00  0.00000000000E+00  0.29700101714E+03  0.29700101714E+03  0.00000000000E+00 0. -1.
         21   -1    0    0  502  503 -0.00000000000E+00 -0.00000000000E+00 -0.63069149122E+03  0.63069149122E+03  0.00000000000E+00 0. -1.
    9000007    1    1    2  501    0  0.80741184529E+02  0.10439256008E+02 -0.12694794134E+02  0.40839842647E+03  0.40000000000E+03 0. -1.
   -9000007    1    1    2    0  503 -0.80741184529E+02 -0.10439256008E+02 -0.32099567995E+03  0.51929408190E+03  0.40000000000E+03 0. -1.
<mgrwt>
<rscale>  2 0.40820107E+03</rscale>
<asrwt>0</asrwt>
<pdfrwt beam="1">  1       21 0.45692464E-01 0.40820107E+03</pdfrwt>
<pdfrwt beam="2">  1       21 0.97029461E-01 0.40820107E+03</pdfrwt>
<totfact> 0.35864629E+03</totfact>
</mgrwt>
</event>
<event>
 4    1  0.4758602E-002  0.4132111E+03  0.7818608E-02  0.1039299E+00
         21   -1    0    0  501  502  0.00000000000E+00  0.00000000000E+00  0.25577782285E+03  0.25577782285E+03  0.00000000000E+00 0.  1.
         21   -1    0    0  502  503 -0.00000000000E+00 -0.00000000000E+00 -0.94360916032E+03  0.94360916032E+03  0.00000000000E+00 0.  1.
    9000007    1    1    2  501    0 -0.10210261770E+03  0.17846391335E+02 -0.19547996772E+02  0.41367325560E+03  0.40000000000E+03 0.  1.
   -9000007    1    1    2    0  503  0.10210261770E+03 -0.17846391335E+02 -0.66828334070E+03  0.78571372756E+03  0.40000000000E+03 0.  1.
<mgrwt>
<rscale>  2 0.41321113E+03</rscale>
<asrwt>0</asrwt>
<pdfrwt beam="1">  1       21 0.39350434E-01 0.41321113E+03</pdfrwt>
<pdfrwt beam="2">  1       21 0.14517064E+00 0.41321113E+03</pdfrwt>
<totfact> 0.17595424E+03</totfact>
</mgrwt>
</event>
<event>
 4    1  0.4758602E-002  0.6003830E+03  0.7818608E-02  0.9904612E-01
         21   -1    0    0  501  502  0.00000000000E+00  0.00000000000E+00  0.11521728978E+04  0.11521728978E+04  0.00000000000E+00 0. -1.
         21   -1    0    0  502  503 -0.00000000000E+00 -0.00000000000E+00 -0.31863343780E+03  0.31863343780E+03  0.00000000000E+00 0. -1.
    9000007    1    1    2  501    0 -0.40300447935E+03  0.19505665463E+03  0.51582875553E+03  0.79154217445E+03  0.40000000000E+03 0. -1.
   -9000007    1    1    2    0  503  0.40300447935E+03 -0.19505665463E+03  0.31771070446E+03  0.67926416115E+03  0.40000000000E+03 0. -1.
<mgrwt>
<rscale>  2 0.60038297E+03</rscale>
<asrwt>0</asrwt>
<pdfrwt beam="1">  1       21 0.17725737E+00 0.60038297E+03</pdfrwt>
<pdfrwt beam="2">  1       21 0.49020529E-01 0.60038297E+03</pdfrwt>
<totfact> 0.59098719E+02</totfact>
</mgrwt>
</event>
<event>
 4    1  0.4758602E-002  0.6182150E+03  0.7818608E-02  0.9868320E-01
         21   -1    0    0  503  502  0.00000000000E+00  0.00000000000E+00  0.37049524149E+03  0.37049524149E+03  0.00000000000E+00 0.  1.
         21   -1    0    0  501  503 -0.00000000000E+00 -0.00000000000E+00 -0.11160759031E+04  0.11160759031E+04  0.00000000000E+00 0. -1.
    9000007    1    1    2  501    0  0.32702899144E+03  0.33947285870E+03 -0.57732464770E+03  0.84586850744E+03  0.40000000000E+03 0.  1.
   -9000007    1    1    2    0  502 -0.32702899144E+03 -0.33947285870E+03 -0.16825601390E+03  0.64070263715E+03  0.40000000000E+03 0. -1.
<mgrwt>
<rscale>  2 0.61821500E+03</rscale>
<asrwt>0</asrwt>
<pdfrwt beam="1">  1       21 0.56999268E-01 0.61821500E+03</pdfrwt>
<pdfrwt beam="2">  1       21 0.17170399E+00 0.61821500E+03</pdfrwt>
<totfact> 0.46541861E+02</totfact>
</mgrwt>
</event>
<event>
 4    1  0.4758602E-002  0.4123695E+03  0.7818608E-02  0.1039579E+00
         21   -1    0    0  501  502  0.00000000000E+00  0.00000000000E+00  0.95466510711E+03  0.95466510711E+03  0.00000000000E+00 0. -1.
         21   -1    0    0  502  503 -0.00000000000E+00 -0.00000000000E+00 -0.17829136501E+03  0.17829136501E+03  0.00000000000E+00 0. -1.
    9000007    1    1    2  501    0  0.89992511327E+02 -0.44158592522E+02  0.40555018648E+03  0.57837668274E+03  0.40000000000E+03 0.  1.
   -9000007    1    1    2    0  503 -0.89992511327E+02  0.44158592522E+02  0.37082355562E+03  0.55457978938E+03  0.40000000000E+03 0.  1.
<mgrwt>
<rscale>  2 0.41236953E+03</rscale>
<asrwt>0</asrwt>
<pdfrwt beam="1">  1       21 0.14687155E+00 0.41236953E+03</pdfrwt>
<pdfrwt beam="2">  1       21 0.27429441E-01 0.41236953E+03</pdfrwt>
<totfact> 0.35177763E+03</totfact>
</mgrwt>
</event>
<event>
 4    1  0.4758602E-002  0.4216143E+03  0.7818608E-02  0.1036542E+00
         21   -1    0    0  503  502  0.00000000000E+00  0.00000000000E+00  0.41017025608E+03  0.41017025608E+03  0.00000000000E+00 0. -1.
         21   -1    0    0  501  503 -0.00000000000E+00 -0.00000000000E+00 -0.43762511895E+03  0.43762511895E+03  0.00000000000E+00 0. -1.
    9000007    1    1    2  501    0  0.12241670182E+03  0.52656903512E+02 -0.55489109240E+02  0.42525009067E+03  0.40000000000E+03 0.  1.
   -9000007    1    1    2    0  502 -0.12241670182E+03 -0.52656903512E+02  0.28034246369E+02  0.42254528437E+03  0.40000000000E+03 0.  1.
<mgrwt>
<rscale>  2 0.42161428E+03</rscale>
<asrwt>0</asrwt>
<pdfrwt beam="1">  1       21 0.63103117E-01 0.42161428E+03</pdfrwt>
<pdfrwt beam="2">  1       21 0.67326941E-01 0.42161428E+03</pdfrwt>
<totfact> 0.41532316E+03</totfact>
</mgrwt>
</event>
<event>
 4    1  0.4758602E-002  0.5557156E+03  0.7818608E-02  0.1000180E+00
         21   -1    0    0  501  502  0.00000000000E+00  0.00000000000E+00  0.92809131173E+03  0.92809131173E+03  0.00000000000E+00 0.  1.
         21   -1    0    0  502  503 -0.00000000000E+00 -0.00000000000E+00 -0.35377212841E+03  0.35377212841E+03  0.00000000000E+00 0. -1.
    9000007    1    1    2  501    0 -0.12898660810E+02 -0.38555601063E+03  0.44340847259E+03  0.71093662612E+03  0.40000000000E+03 0.  1.
   -9000007    1    1    2    0  503  0.12898660810E+02  0.38555601063E+03  0.13091071073E+03  0.57092681402E+03  0.40000000000E+03 0. -1.
<mgrwt>
<rscale>  2 0.55571559E+03</rscale>
<asrwt>0</asrwt>
<pdfrwt beam="1">  1       21 0.14278328E+00 0.55571559E+03</pdfrwt>
<pdfrwt beam="2">  1       21 0.54426482E-01 0.55571559E+03</pdfrwt>
<totfact> 0.87915710E+02</totfact>
</mgrwt>
</event>
<event>
 4    1  0.4758602E-002  0.7956602E+03  0.7818608E-02  0.9566320E-01
         21   -1    0    0  501  502  0.00000000000E+00  0.00000000000E+00  0.23397036448E+04  0.23397036448E+04  0.00000000000E+00 0. -1.
         21   -1    0    0  502  503 -0.00000000000E+00 -0.00000000000E+00 -0.56046768419E+03  0.56046768419E+03  0.00000000000E+00 0.  1.
    9000007    1    1    2  501    0  0.61889656076E+03 -0.30007022188E+03  0.19324968504E+04  0.20898849652E+04  0.40000000000E+03 0. -1.
   -9000007    1    1    2    0  503 -0.61889656076E+03  0.30007022188E+03 -0.15326088980E+03  0.81028636377E+03  0.40000000000E+03 0.  1.
<mgrwt>
<rscale>  2 0.79566016E+03</rscale>
<asrwt>0</asrwt>
<pdfrwt beam="1">  1       21 0.35995440E+00 0.79566016E+03</pdfrwt>
<pdfrwt beam="2">  1       21 0.86225799E-01 0.79566016E+03</pdfrwt>
<totfact> 0.10608734E+01</totfact>
</mgrwt>
</event>
<event>
 4    1  0.4758602E-002  0.4111396E+03  0.7818608E-02  0.1039989E+00
         21   -1    0    0  501  502  0.00000000000E+00  0.00000000000E+00  0.20273609709E+03  0.20273609709E+03  0.00000000000E+00 0.  1.
         21   -1    0    0  502  503 -0.00000000000E+00 -0.00000000000E+00 -0.15763202223E+04  0.15763202223E+04  0.00000000000E+00 0.  1.
    9000007    1    1    2  501    0  0.91046730033E+00  0.95052178558E+02 -0.76272315160E+02  0.41815453084E+03  0.40000000000E+03 0.  1.
   -9000007    1    1    2    0  503 -0.91046730033E+00 -0.95052178558E+02 -0.12973118101E+04  0.13609017886E+04  0.40000000000E+03 0.  1.
<mgrwt>
<rscale>  2 0.41113957E+03</rscale>
<asrwt>0</asrwt>
<pdfrwt beam="1">  1       21 0.31190168E-01 0.41113957E+03</pdfrwt>
<pdfrwt beam="2">  1       21 0.24251081E+00 0.41113957E+03</pdfrwt>
<totfact> 0.60527806E+02</totfact>
</mgrwt>
</event>
<event>
 4    1  0.4758602E-002  0.4018352E+03  0.7818608E-02  0.1043146E+00
         21   -1    0    0  503  502  0.00000000000E+00  0.00000000000E+00  0.17456681055E+04  0.17456681055E+04  0.00000000000E+00 0.  1.
         21   -1    0    0  501  503 -0.00000000000E+00 -0.00000000000E+00 -0.45653802933E+03  0.45653802933E+03  0.00000000000E+00 0.  1.
    9000007    1    1    2  501    0  0.34616154335E+02 -0.16529847852E+02 -0.33868466018E+03  0.52552717632E+03  0.40000000000E+03 0.  1.
   -9000007    1    1    2    0  502 -0.34616154335E+02  0.16529847852E+02  0.16278147364E+04  0.16766789585E+04  0.40000000000E+03 0.  1.
<mgrwt>
<rscale>  2 0.40183518E+03</rscale>
<asrwt>0</asrwt>
<pdfrwt beam="1">  1       21 0.26856432E+00 0.40183518E+03</pdfrwt>
<pdfrwt beam="2">  1       21 0.70236621E-01 0.40183518E+03</pdfrwt>
<totfact> 0.76375126E+01</totfact>
</mgrwt>
</event>
<event>
 4    1  0.4758602E-002  0.4008255E+03  0.7818608E-02  0.1043494E+00
         21   -1    0    0  503  502  0.00000000000E+00  0.00000000000E+00  0.41511933423E+03  0.41511933423E+03  0.00000000000E+00 0.  1.
         21   -1    0    0  501  503 -0.00000000000E+00 -0.00000000000E+00 -0.39871811336E+03  0.39871811336E+03  0.00000000000E+00 0.  1.
    9000007    1    1    2  501    0 -0.25686914244E+02 -0.11097641134E+01  0.77889354529E+02  0.40832315718E+03  0.40000000000E+03 0.  1.
   -9000007    1    1    2    0  502  0.25686914244E+02  0.11097641134E+01 -0.61488133659E+02  0.40551429040E+03  0.40000000000E+03 0.  1.
<mgrwt>
<rscale>  2 0.40082546E+03</rscale>
<asrwt>0</asrwt>
<pdfrwt beam="1">  1       21 0.63864513E-01 0.40082546E+03</pdfrwt>
<pdfrwt beam="2">  1       21 0.61341248E-01 0.40082546E+03</pdfrwt>
<totfact> 0.50082269E+03</totfact>
</mgrwt>
</event>
<event>
 4    1  0.4758602E-002  0.5403960E+03  0.7818608E-02  0.1003742E+00
         21   -1    0    0  501  502  0.00000000000E+00  0.00000000000E+00  0.15235590045E+03  0.15235590045E+03  0.00000000000E+00 0. -1.
         21   -1    0    0  502  503 -0.00000000000E+00 -0.00000000000E+00 -0.19454410913E+04  0.19454410913E+04  0.00000000000E+00 0. -1.
    9000007    1    1    2  501    0  0.36334712744E+03 -0.25886784498E+01 -0.10239265246E+04  0.11577794971E+04  0.40000000000E+03 0. -1.
   -9000007    1    1    2    0  503 -0.36334712744E+03  0.25886784498E+01 -0.76915866627E+03  0.94001749461E+03  0.40000000000E+03 0. -1.
<mgrwt>
<rscale>  2 0.54039600E+03</rscale>
<asrwt>0</asrwt>
<pdfrwt beam="1">  1       21 0.23439370E-01 0.54039600E+03</pdfrwt>
<pdfrwt beam="2">  1       21 0.29929862E+00 0.54039600E+03</pdfrwt>
<totfact> 0.44841674E+02</totfact>
</mgrwt>
</event>
<event>
 4    1  0.4758602E-002  0.5113488E+03  0.7818608E-02  0.1010858E+00
         21   -1    0    0  503  502  0.00000000000E+00  0.00000000000E+00  0.10201733802E+04  0.10201733802E+04  0.00000000000E+00 0.  1.
         21   -1    0    0  501  503 -0.00000000000E+00 -0.00000000000E+00 -0.61698014233E+03  0.61698014233E+03  0.00000000000E+00 0. -1.
    9000007    1    1    2  501    0  0.25222427879E+03 -0.19457786624E+03 -0.42426841340E+03  0.66444060641E+03  0.40000000000E+03 0. -1.
   -9000007    1    1    2    0  502 -0.25222427879E+03  0.19457786624E+03  0.82746165125E+03  0.97271291609E+03  0.40000000000E+03 0.  1.
<mgrwt>
<rscale>  2 0.51134884E+03</rscale>
<asrwt>0</asrwt>
<pdfrwt beam="1">  1       21 0.15694975E+00 0.51134884E+03</pdfrwt>
<pdfrwt beam="2">  1       21 0.94920022E-01 0.51134884E+03</pdfrwt>
<totfact> 0.19478826E+02</totfact>
</mgrwt>
</event>
<event>
 4    1  0.4758602E-002  0.5450676E+03  0.7818608E-02  0.1002642E+00
         21   -1    0    0  501  502  0.00000000000E+00  0.00000000000E+00  0.50292020061E+03  0.50292020061E+03  0.00000000000E+00 0.  1.
         21   -1    0    0  502  503 -0.00000000000E+00 -0.00000000000E+00 -0.60577273368E+03  0.60577273368E+03  0.00000000000E+00 0. -1.
    9000007    1    1    2  501    0 -0.15157497432E+02 -0.36995796728E+03 -0.13873202727E+03  0.56244575087E+03  0.40000000000E+03 0. -1.
   -9000007    1    1    2    0  503  0.15157497432E+02  0.36995796728E+03  0.35879494194E+02  0.54624718341E+03  0.40000000000E+03 0.  1.
<mgrwt>
<rscale>  2 0.54506756E+03</rscale>
<asrwt>0</asrwt>
<pdfrwt beam="1">  1       21 0.77372339E-01 0.54506756E+03</pdfrwt>
<pdfrwt beam="2">  1       21 0.93195805E-01 0.54506756E+03</pdfrwt>
<totfact> 0.11855578E+03</totfact>
</mgrwt>
</event>
<event>
 4    1  0.4758602E-002  0.4187282E+03  0.7818608E-02  0.1037481E+00
         21   -1    0    0  503  502  0.00000000000E+00  0.00000000000E+00  0.11417380429E+04  0.11417380429E+04  0.00000000000E+00 0. -1.
         21   -1    0    0  501  503 -0.00000000000E+00 -0.00000000000E+00 -0.16310428491E+03  0.16310428491E+03  0.00000000000E+00 0. -1.
    9000007    1    1    2  501    0 -0.90600192863E+01 -0.12349583075E+03  0.33155307395E+03  0.53409806684E+03  0.40000000000E+03 0. -1.
   -9000007    1    1    2    0  502  0.90600192863E+01  0.12349583075E+03  0.64708068405E+03  0.77074426098E+03  0.40000000000E+03 0. -1.
<mgrwt>
<rscale>  2 0.41872820E+03</rscale>
<asrwt>0</asrwt>
<pdfrwt beam="1">  1       21 0.17565200E+00 0.41872820E+03</pdfrwt>
<pdfrwt beam="2">  1       21 0.25092968E-01 0.41872820E+03</pdfrwt>
<totfact> 0.25380835E+03</totfact>
</mgrwt>
</event>
<event>
 4    1  0.4758602E-002  0.4277415E+03  0.7818608E-02  0.1034576E+00
         21   -1    0    0  501  502  0.00000000000E+00  0.00000000000E+00  0.13441277391E+03  0.13441277391E+03  0.00000000000E+00 0. -1.
         21   -1    0    0  502  503 -0.00000000000E+00 -0.00000000000E+00 -0.13641557661E+04  0.13641557661E+04  0.00000000000E+00 0.  1.
    9000007    1    1    2  501    0 -0.13074639148E+03 -0.76603771271E+02 -0.64974544434E+03  0.77790224264E+03  0.40000000000E+03 0.  1.
   -9000007    1    1    2    0  503  0.13074639148E+03  0.76603771271E+02 -0.57999754781E+03  0.72066629734E+03  0.40000000000E+03 0. -1.
<mgrwt>
<rscale>  2 0.42774146E+03</rscale>
<asrwt>0</asrwt>
<pdfrwt beam="1">  1       21 0.20678889E-01 0.42774146E+03</pdfrwt>
<pdfrwt beam="2">  1       21 0.20987011E+00 0.42774146E+03</pdfrwt>
<totfact> 0.21489891E+03</totfact>
</mgrwt>
</event>
<event>
 4    1  0.4758602E-002  0.4625048E+03  0.7818608E-02  0.1024057E+00
         21   -1    0    0  501  502  0.00000000000E+00  0.00000000000E+00  0.18460619777E+03  0.18460619777E+03  0.00000000000E+00 0.  1.
         21   -1    0    0  502  503 -0.00000000000E+00 -0.00000000000E+00 -0.13515057460E+04  0.13515057460E+04  0.00000000000E+00 0.  1.
    9000007    1    1    2  501    0 -0.20111763440E+03  0.11602748219E+03 -0.29338280250E+03  0.54770808675E+03  0.40000000000E+03 0.  1.
   -9000007    1    1    2    0  503  0.20111763440E+03 -0.11602748219E+03 -0.87351674569E+03  0.98840385698E+03  0.40000000000E+03 0.  1.
<mgrwt>
<rscale>  2 0.46250479E+03</rscale>
<asrwt>0</asrwt>
<pdfrwt beam="1">  1       21 0.28400953E-01 0.46250479E+03</pdfrwt>
<pdfrwt beam="2">  1       21 0.20792396E+00 0.46250479E+03</pdfrwt>
<totfact> 0.11771284E+03</totfact>
</mgrwt>
</event>
<event>
 4    1  0.4758602E-002  0.5861020E+03  0.7818608E-02  0.9934667E-01
         21   -1    0    0  503  502  0.00000000000E+00  0.00000000000E+00  0.57227823687E+03  0.57227823687E+03  0.00000000000E+00 0.  1.
         21   -1    0    0  501  503 -0.00000000000E+00 -0.00000000000E+00 -0.67275277549E+03  0.67275277549E+03  0.00000000000E+00 0. -1.
    9000007    1    1    2  501    0  0.22478011466E+03 -0.36467724886E+03 -0.25458532710E+03  0.63900648241E+03  0.40000000000E+03 0.  1.
   -9000007    1    1    2    0  502 -0.22478011466E+03  0.36467724886E+03  0.15411078848E+03  0.60602452995E+03  0.40000000000E+03 0. -1.
<mgrwt>
<rscale>  2 0.58610204E+03</rscale>
<asrwt>0</asrwt>
<pdfrwt beam="1">  1       21 0.88042806E-01 0.58610204E+03</pdfrwt>
<pdfrwt beam="2">  1       21 0.10350043E+00 0.58610204E+03</pdfrwt>
<totfact> 0.66994251E+02</totfact>
</mgrwt>
</event>
<event>
 4    1  0.4758602E-002  0.4809648E+03  0.7818608E-02  0.1018870E+00
         21   -1    0    0  501  502  0.00000000000E+00  0.00000000000E+00  0.57035345674E+03  0.57035345674E+03  0.00000000000E+00 0. -1.
         21   -1    0    0  502  503 -0.00000000000E+00 -0.00000000000E+00 -0.73148929599E+03  0.73148929599E+03  0.00000000000E+00 0. -1.
    9000007    1    1    2  501    0 -0.21334182714E+03 -0.16066232682E+03  0.35391151521E+03  0.59714360004E+03  0.40000000000E+03 0. -1.
   -9000007    1    1    2    0  503  0.21334182714E+03  0.16066232682E+03 -0.51504735446E+03  0.70469915270E+03  0.40000000000E+03 0. -1.
<mgrwt>
<rscale>  2 0.48096478E+03</rscale>
<asrwt>0</asrwt>
<pdfrwt beam="1">  1       21 0.87746686E-01 0.48096478E+03</pdfrwt>
<pdfrwt beam="2">  1       21 0.11253681E+00 0.48096478E+03</pdfrwt>
<totfact> 0.57010694E+02</totfact>
</mgrwt>
</event>
<event>
 4    1  0.4758602E-002  0.7543378E+03  0.7818608E-02  0.9628569E-01
         21   -1    0    0  501  502  0.00000000000E+00  0.00000000000E+00  0.56434223298E+03  0.56434223298E+03  0.00000000000E+00 0. -1.
         21   -1    0    0  502  503 -0.00000000000E+00 -0.00000000000E+00 -0.10101635271E+04  0.10101635271E+04  0.00000000000E+00 0. -1.
    9000007    1    1    2  501    0  0.63954050369E+03 -0.36715135454E+01 -0.25673570310E+03  0.79683044440E+03  0.40000000000E+03 0. -1.
   -9000007    1    1    2    0  503 -0.63954050369E+03  0.36715135454E+01 -0.18908559099E+03  0.77767531566E+03  0.40000000000E+03 0. -1.
<mgrwt>
<rscale>  2 0.75433781E+03</rscale>
<asrwt>0</asrwt>
<pdfrwt beam="1">  1       21 0.86821882E-01 0.75433781E+03</pdfrwt>
<pdfrwt beam="2">  1       21 0.15540977E+00 0.75433781E+03</pdfrwt>
<totfact> 0.22724098E+02</totfact>
</mgrwt>
</event>
<event>
 4    1  0.4758602E-002  0.4230822E+03  0.7818608E-02  0.1036068E+00
         21   -1    0    0  501  502  0.00000000000E+00  0.00000000000E+00  0.93895520272E+03  0.93895520272E+03  0.00000000000E+00 0.  1.
         21   -1    0    0  502  503 -0.00000000000E+00 -0.00000000000E+00 -0.21836326967E+03  0.21836326967E+03  0.00000000000E+00 0.  1.
    9000007    1    1    2  501    0 -0.95036813406E+02  0.99832552354E+02  0.56649552421E+03  0.70704717902E+03  0.40000000000E+03 0.  1.
   -9000007    1    1    2    0  503  0.95036813406E+02 -0.99832552354E+02  0.15409640884E+03  0.45027129337E+03  0.40000000000E+03 0.  1.
<mgrwt>
<rscale>  2 0.42308218E+03</rscale>
<asrwt>0</asrwt>
<pdfrwt beam="1">  1       21 0.14445464E+00 0.42308218E+03</pdfrwt>
<pdfrwt beam="2">  1       21 0.33594350E-01 0.42308218E+03</pdfrwt>
<totfact> 0.24480125E+03</totfact>
</mgrwt>
</event>
<event>
 4    1  0.4758602E-002  0.4515340E+03  0.7818608E-02  0.1027266E+00
         21   -1    0    0  501  502  0.00000000000E+00  0.00000000000E+00  0.15722092889E+04  0.15722092889E+04  0.00000000000E+00 0. -1.
         21   -1    0    0  502  503 -0.00000000000E+00 -0.00000000000E+00 -0.31034281057E+03  0.31034281057E+03  0.00000000000E+00 0. -1.
    9000007    1    1    2  501    0 -0.14718756731E+02 -0.20896489566E+03  0.13491101025E+04  0.14226668753E+04  0.40000000000E+03 0. -1.
   -9000007    1    1    2    0  503  0.14718756731E+02  0.20896489566E+03 -0.87243624202E+02  0.45988522414E+03  0.40000000000E+03 0. -1.
<mgrwt>
<rscale>  2 0.45153402E+03</rscale>
<asrwt>0</asrwt>
<pdfrwt beam="1">  1       21 0.24187835E+00 0.45153402E+03</pdfrwt>
<pdfrwt beam="2">  1       21 0.47745049E-01 0.45153402E+03</pdfrwt>
<totfact> 0.24952797E+02</totfact>
</mgrwt>
</event>
<event>
 4    1  0.4758602E-002  0.6103131E+03  0.7818608E-02  0.9884238E-01
         21   -1    0    0  503  502  0.00000000000E+00  0.00000000000E+00  0.36567935277E+03  0.36567935277E+03  0.00000000000E+00 0.  1.
         21   -1    0    0  501  503 -0.00000000000E+00 -0.00000000000E+00 -0.10828341454E+04  0.10828341454E+04  0.00000000000E+00 0. -1.
    9000007    1    1    2  501    0  0.44871483934E+03 -0.10553247083E+03 -0.53497155303E+03  0.81158897971E+03  0.40000000000E+03 0. -1.
   -9000007    1    1    2    0  502 -0.44871483934E+03  0.10553247083E+03 -0.18218323963E+03  0.63692451848E+03  0.40000000000E+03 0.  1.
<mgrwt>
<rscale>  2 0.61031312E+03</rscale>
<asrwt>0</asrwt>
<pdfrwt beam="1">  1       21 0.56258361E-01 0.61031312E+03</pdfrwt>
<pdfrwt beam="2">  1       21 0.16658987E+00 0.61031312E+03</pdfrwt>
<totfact> 0.52375042E+02</totfact>
</mgrwt>
</event>
<event>
 4    1  0.4758602E-002  0.4224292E+03  0.7818608E-02  0.1036279E+00
         21   -1    0    0  501  502  0.00000000000E+00  0.00000000000E+00  0.10201843629E+03  0.10201843629E+03  0.00000000000E+00 0. -1.
         21   -1    0    0  502  503 -0.00000000000E+00 -0.00000000000E+00 -0.17800066623E+04  0.17800066623E+04  0.00000000000E+00 0. -1.
    9000007    1    1    2  501    0 -0.72288350780E+02 -0.11498185032E+03 -0.71511499432E+03  0.83056359580E+03  0.40000000000E+03 0. -1.
   -9000007    1    1    2    0  503  0.72288350780E+02  0.11498185032E+03 -0.96287323168E+03  0.10514615028E+04  0.40000000000E+03 0. -1.
<mgrwt>
<rscale>  2 0.42242920E+03</rscale>
<asrwt>0</asrwt>
<pdfrwt beam="1">  1       21 0.15695145E-01 0.42242920E+03</pdfrwt>
<pdfrwt beam="2">  1       21 0.27384717E+00 0.42242920E+03</pdfrwt>
<totfact> 0.14509933E+03</totfact>
</mgrwt>
</event>
<event>
 4    1  0.4758602E-002  0.5562262E+03  0.7818608E-02  0.1000063E+00
         21   -1    0    0  501  502  0.00000000000E+00  0.00000000000E+00  0.20927719432E+04  0.20927719432E+04  0.00000000000E+00 0. -1.
         21   -1    0    0  502  503 -0.00000000000E+00 -0.00000000000E+00 -0.18302495315E+03  0.18302495315E+03  0.00000000000E+00 0.  1.
    9000007    1    1    2  501    0  0.32304186523E+03 -0.21220638206E+03  0.14538152709E+04  0.15565880756E+04  0.40000000000E+03 0. -1.
   -9000007    1    1    2    0  503 -0.32304186523E+03  0.21220638206E+03  0.45593171915E+03  0.71920882072E+03  0.40000000000E+03 0.  1.
<mgrwt>
<rscale>  2 0.55622621E+03</rscale>
<asrwt>0</asrwt>
<pdfrwt beam="1">  1       21 0.32196490E+00 0.55622621E+03</pdfrwt>
<pdfrwt beam="2">  1       21 0.28157687E-01 0.55622621E+03</pdfrwt>
<totfact> 0.22624381E+02</totfact>
</mgrwt>
</event>
<event>
 4    1  0.4758602E-002  0.5370465E+03  0.7818608E-02  0.1004537E+00
         21   -1    0    0  503  502  0.00000000000E+00  0.00000000000E+00  0.79073696618E+03  0.79073696618E+03  0.00000000000E+00 0. -1.
         21   -1    0    0  501  503 -0.00000000000E+00 -0.00000000000E+00 -0.37781409090E+03  0.37781409090E+03  0.00000000000E+00 0. -1.
    9000007    1    1    2  501    0  0.32863025711E+03 -0.14290225500E+03  0.97801655375E+02  0.54587916627E+03  0.40000000000E+03 0. -1.
   -9000007    1    1    2    0  502 -0.32863025711E+03  0.14290225500E+03  0.31512121991E+03  0.62267189081E+03  0.40000000000E+03 0. -1.
<mgrwt>
<rscale>  2 0.53704646E+03</rscale>
<asrwt>0</asrwt>
<pdfrwt beam="1">  1       21 0.12165184E+00 0.53704646E+03</pdfrwt>
<pdfrwt beam="2">  1       21 0.58125245E-01 0.53704646E+03</pdfrwt>
<totfact> 0.11675394E+03</totfact>
</mgrwt>
</event>
<event>
 4    1  0.4758602E-002  0.4221656E+03  0.7818608E-02  0.1036364E+00
         21   -1    0    0  503  502  0.00000000000E+00  0.00000000000E+00  0.12669395608E+04  0.12669395608E+04  0.00000000000E+00 0.  1.
         21   -1    0    0  501  503 -0.00000000000E+00 -0.00000000000E+00 -0.19636505903E+03  0.19636505903E+03  0.00000000000E+00 0.  1.
    9000007    1    1    2  501    0  0.26842117418E+02 -0.13230009424E+03  0.14564106256E+03  0.44658160879E+03  0.40000000000E+03 0.  1.
   -9000007    1    1    2    0  502 -0.26842117418E+02  0.13230009424E+03  0.92493343921E+03  0.10167230110E+04  0.40000000000E+03 0.  1.
<mgrwt>
<rscale>  2 0.42216562E+03</rscale>
<asrwt>0</asrwt>
<pdfrwt beam="1">  1       21 0.19491377E+00 0.42216562E+03</pdfrwt>
<pdfrwt beam="2">  1       21 0.30210010E-01 0.42216562E+03</pdfrwt>
<totfact> 0.12946761E+03</totfact>
</mgrwt>
</event>
<event>
 4    1  0.4758602E-002  0.4875502E+03  0.7818608E-02  0.1017081E+00
         21   -1    0    0  501  502  0.00000000000E+00  0.00000000000E+00  0.62485140058E+03  0.62485140058E+03  0.00000000000E+00 0. -1.
         21   -1    0    0  502  503 -0.00000000000E+00 -0.00000000000E+00 -0.63618384761E+03  0.63618384761E+03  0.00000000000E+00 0.  1.
    9000007    1    1    2  501    0  0.23769394621E+03 -0.14562556657E+03  0.39411879137E+03  0.62692490731E+03  0.40000000000E+03 0. -1.
   -9000007    1    1    2    0  503 -0.23769394621E+03  0.14562556657E+03 -0.40545123839E+03  0.63411034088E+03  0.40000000000E+03 0.  1.
<mgrwt>
<rscale>  2 0.48755022E+03</rscale>
<asrwt>0</asrwt>
<pdfrwt beam="1">  1       21 0.96130985E-01 0.48755022E+03</pdfrwt>
<pdfrwt beam="2">  1       21 0.97874438E-01 0.48755022E+03</pdfrwt>
<totfact> 0.64509854E+02</totfact>
</mgrwt>
</event>
<event>
 4    1  0.4758602E-002  0.4124425E+03  0.7818608E-02  0.1039554E+00
         21   -1    0    0  501  502  0.00000000000E+00  0.00000000000E+00  0.14579430173E+03  0.14579430173E+03  0.00000000000E+00 0. -1.
         21   -1    0    0  502  503 -0.00000000000E+00 -0.00000000000E+00 -0.13043999038E+04  0.13043999038E+04  0.00000000000E+00 0. -1.
    9000007    1    1    2  501    0 -0.13086137101E+02 -0.99687537370E+02 -0.34377483042E+03  0.53692642524E+03  0.40000000000E+03 0.  1.
   -9000007    1    1    2    0  503  0.13086137101E+02  0.99687537370E+02 -0.81483077160E+03  0.91326778024E+03  0.40000000000E+03 0.  1.
<mgrwt>
<rscale>  2 0.41244254E+03</rscale>
<asrwt>0</asrwt>
<pdfrwt beam="1">  1       21 0.22429892E-01 0.41244254E+03</pdfrwt>
<pdfrwt beam="2">  1       21 0.20067691E+00 0.41244254E+03</pdfrwt>
<totfact> 0.21283353E+03</totfact>
</mgrwt>
</event>
<event>
 4    1  0.4758602E-002  0.4422911E+03  0.7818608E-02  0.1030046E+00
         21   -1    0    0  501  502  0.00000000000E+00  0.00000000000E+00  0.35037126442E+03  0.35037126442E+03  0.00000000000E+00 0. -1.
         21   -1    0    0  502  503 -0.00000000000E+00 -0.00000000000E+00 -0.70037515009E+03  0.70037515009E+03  0.00000000000E+00 0. -1.
    9000007    1    1    2  501    0 -0.20202975310E+02 -0.18765187932E+03  0.61601941554E+02  0.44656039594E+03  0.40000000000E+03 0. -1.
   -9000007    1    1    2    0  503  0.20202975310E+02  0.18765187932E+03 -0.41160582723E+03  0.60418601857E+03  0.40000000000E+03 0. -1.
<mgrwt>
<rscale>  2 0.44229107E+03</rscale>
<asrwt>0</asrwt>
<pdfrwt beam="1">  1       21 0.53903271E-01 0.44229107E+03</pdfrwt>
<pdfrwt beam="2">  1       21 0.10775002E+00 0.44229107E+03</pdfrwt>
<totfact> 0.19299770E+03</totfact>
</mgrwt>
</event>
<event>
 4    1  0.4758602E-002  0.4872730E+03  0.7818608E-02  0.1017155E+00
         21   -1    0    0  503  502  0.00000000000E+00  0.00000000000E+00  0.14792025031E+04  0.14792025031E+04  0.00000000000E+00 0. -1.
         21   -1    0    0  501  503 -0.00000000000E+00 -0.00000000000E+00 -0.18862536924E+03  0.18862536924E+03  0.00000000000E+00 0. -1.
    9000007    1    1    2  501    0 -0.15333278096E+03 -0.23221552625E+03  0.32336685826E+03  0.58480861602E+03  0.40000000000E+03 0. -1.
   -9000007    1    1    2    0  502  0.15333278096E+03  0.23221552625E+03  0.96721027563E+03  0.10830192564E+04  0.40000000000E+03 0. -1.
<mgrwt>
<rscale>  2 0.48727302E+03</rscale>
<asrwt>0</asrwt>
<pdfrwt beam="1">  1       21 0.22756961E+00 0.48727302E+03</pdfrwt>
<pdfrwt beam="2">  1       21 0.29019288E-01 0.48727302E+03</pdfrwt>
<totfact> 0.83355564E+02</totfact>
</mgrwt>
</event>
<event>
 4    1  0.4758602E-002  0.4552751E+03  0.7818608E-02  0.1026161E+00
         21   -1    0    0  501  502  0.00000000000E+00  0.00000000000E+00  0.14402405067E+04  0.14402405067E+04  0.00000000000E+00 0.  1.
         21   -1    0    0  502  503 -0.00000000000E+00 -0.00000000000E+00 -0.59441458182E+03  0.59441458182E+03  0.00000000000E+00 0.  1.
    9000007    1    1    2  501    0 -0.19385128689E+02 -0.21656332809E+03  0.13085630822E+04  0.13855009196E+04  0.40000000000E+03 0.  1.
   -9000007    1    1    2    0  503  0.19385128689E+02  0.21656332809E+03 -0.46273715727E+03  0.64915416890E+03  0.40000000000E+03 0.  1.
<mgrwt>
<rscale>  2 0.45527515E+03</rscale>
<asrwt>0</asrwt>
<pdfrwt beam="1">  1       21 0.22157546E+00 0.45527515E+03</pdfrwt>
<pdfrwt beam="2">  1       21 0.91448398E-01 0.45527515E+03</pdfrwt>
<totfact> 0.78192564E+01</totfact>
</mgrwt>
</event>
<event>
 4    1  0.4758602E-002  0.4406135E+03  0.7818608E-02  0.1030559E+00
         21   -1    0    0  501  502  0.00000000000E+00  0.00000000000E+00  0.70998495922E+03  0.70998495922E+03  0.00000000000E+00 0.  1.
         21   -1    0    0  502  503 -0.00000000000E+00 -0.00000000000E+00 -0.72110143294E+03  0.72110143294E+03  0.00000000000E+00 0.  1.
    9000007    1    1    2  501    0 -0.18470212996E+03  0.50383531484E+01  0.55822371443E+03  0.71116381879E+03  0.40000000000E+03 0.  1.
   -9000007    1    1    2    0  503  0.18470212996E+03 -0.50383531484E+01 -0.56934018815E+03  0.71992257337E+03  0.40000000000E+03 0.  1.
<mgrwt>
<rscale>  2 0.44061351E+03</rscale>
<asrwt>0</asrwt>
<pdfrwt beam="1">  1       21 0.10922845E+00 0.44061351E+03</pdfrwt>
<pdfrwt beam="2">  1       21 0.11093868E+00 0.44061351E+03</pdfrwt>
<totfact> 0.35420890E+02</totfact>
</mgrwt>
</event>
<event>
 4    1  0.4758602E-002  0.4182747E+03  0.7818608E-02  0.1037629E+00
         21   -1    0    0  503  502  0.00000000000E+00  0.00000000000E+00  0.45639438403E+03  0.45639438403E+03  0.00000000000E+00 0.  1.
         21   -1    0    0  501  503 -0.00000000000E+00 -0.00000000000E+00 -0.82384007509E+03  0.82384007509E+03  0.00000000000E+00 0.  1.
    9000007    1    1    2  501    0 -0.12174241709E+03  0.11510842964E+02 -0.65179370204E+03  0.77446029314E+03  0.40000000000E+03 0.  1.
   -9000007    1    1    2    0  502  0.12174241709E+03 -0.11510842964E+02  0.28434801098E+03  0.50577416598E+03  0.40000000000E+03 0.  1.
<mgrwt>
<rscale>  2 0.41827469E+03</rscale>
<asrwt>0</asrwt>
<pdfrwt beam="1">  1       21 0.70214522E-01 0.41827469E+03</pdfrwt>
<pdfrwt beam="2">  1       21 0.12674462E+00 0.41827469E+03</pdfrwt>
<totfact> 0.72436740E+02</totfact>
</mgrwt>
</event>
<event>
 4    1  0.4758602E-002  0.4083315E+03  0.7818608E-02  0.1040932E+00
         21   -1    0    0  503  502  0.00000000000E+00  0.00000000000E+00  0.47915344311E+03  0.47915344311E+03  0.00000000000E+00 0.  1.
         21   -1    0    0  501  503 -0.00000000000E+00 -0.00000000000E+00 -0.42973199610E+03  0.42973199610E+03  0.00000000000E+00 0.  1.
    9000007    1    1    2  501    0 -0.63594909037E+02 -0.51868343370E+02 -0.17350404776E+03  0.44366461667E+03  0.40000000000E+03 0.  1.
   -9000007    1    1    2    0  502  0.63594909037E+02  0.51868343370E+02  0.22292549477E+03  0.46522082253E+03  0.40000000000E+03 0.  1.
<mgrwt>
<rscale>  2 0.40833153E+03</rscale>
<asrwt>0</asrwt>
<pdfrwt beam="1">  1       21 0.73715914E-01 0.40833153E+03</pdfrwt>
<pdfrwt beam="2">  1       21 0.66112615E-01 0.40833153E+03</pdfrwt>
<totfact> 0.30697415E+03</totfact>
</mgrwt>
</event>
<event>
 4    1  0.4758602E-002  0.4424519E+03  0.7818608E-02  0.1029997E+00
         21   -1    0    0  503  502  0.00000000000E+00  0.00000000000E+00  0.22936553860E+03  0.22936553860E+03  0.00000000000E+00 0. -1.
         21   -1    0    0  501  503 -0.00000000000E+00 -0.00000000000E+00 -0.12884858896E+04  0.12884858896E+04  0.00000000000E+00 0.  1.
    9000007    1    1    2  501    0  0.15219035521E+03  0.11225784193E+03 -0.97051743475E+03  0.10666151220E+04  0.40000000000E+03 0.  1.
   -9000007    1    1    2    0  502 -0.15219035521E+03 -0.11225784193E+03 -0.88602916269E+02  0.45123630624E+03  0.40000000000E+03 0. -1.
<mgrwt>
<rscale>  2 0.44245195E+03</rscale>
<asrwt>0</asrwt>
<pdfrwt beam="1">  1       21 0.35287006E-01 0.44245195E+03</pdfrwt>
<pdfrwt beam="2">  1       21 0.19822860E+00 0.44245195E+03</pdfrwt>
<totfact> 0.89220078E+02</totfact>
</mgrwt>
</event>
<event>
 4    1  0.4758602E-002  0.4019297E+03  0.7818608E-02  0.1043114E+00
         21   -1    0    0  501  502  0.00000000000E+00  0.00000000000E+00  0.40813348534E+03  0.40813348534E+03  0.00000000000E+00 0.  1.
         21   -1    0    0  502  503 -0.00000000000E+00 -0.00000000000E+00 -0.61919876762E+03  0.61919876762E+03  0.00000000000E+00 0. -1.
    9000007    1    1    2  501    0  0.23764406597E+01  0.39266226608E+02  0.20298970245E+03  0.45028024976E+03  0.40000000000E+03 0.  1.
   -9000007    1    1    2    0  503 -0.23764406597E+01 -0.39266226608E+02 -0.41405498473E+03  0.57705200320E+03  0.40000000000E+03 0. -1.
<mgrwt>
<rscale>  2 0.40192970E+03</rscale>
<asrwt>0</asrwt>
<pdfrwt beam="1">  1       21 0.62789767E-01 0.40192970E+03</pdfrwt>
<pdfrwt beam="2">  1       21 0.95261349E-01 0.40192970E+03</pdfrwt>
<totfact> 0.18994405E+03</totfact>
</mgrwt>
</event>
<event>
 4    1  0.4758602E-002  0.4065389E+03  0.7818608E-02  0.1041539E+00
         21   -1    0    0  503  502  0.00000000000E+00  0.00000000000E+00  0.36630889410E+03  0.36630889410E+03  0.00000000000E+00 0.  1.
         21   -1    0    0  501  503 -0.00000000000E+00 -0.00000000000E+00 -0.46549300915E+03  0.46549300915E+03  0.00000000000E+00 0.  1.
    9000007    1    1    2  501    0 -0.11431280200E+02 -0.71716344408E+02 -0.12250230180E+03  0.42459477407E+03  0.40000000000E+03 0.  1.
   -9000007    1    1    2    0  502  0.11431280200E+02  0.71716344408E+02  0.23318186748E+02  0.40720712918E+03  0.40000000000E+03 0.  1.
<mgrwt>
<rscale>  2 0.40653894E+03</rscale>
<asrwt>0</asrwt>
<pdfrwt beam="1">  1       21 0.56355215E-01 0.40653894E+03</pdfrwt>
<pdfrwt beam="2">  1       21 0.71614309E-01 0.40653894E+03</pdfrwt>
<totfact> 0.46551188E+03</totfact>
</mgrwt>
</event>
<event>
 4    1  0.4758602E-002  0.4831503E+03  0.7818608E-02  0.1018273E+00
         21   -1    0    0  503  502  0.00000000000E+00  0.00000000000E+00  0.64034383516E+03  0.64034383516E+03  0.00000000000E+00 0. -1.
         21   -1    0    0  501  503 -0.00000000000E+00 -0.00000000000E+00 -0.36542279854E+03  0.36542279854E+03  0.00000000000E+00 0.  1.
    9000007    1    1    2  501    0  0.18041804457E+03 -0.20219689520E+03  0.16210522336E+03  0.50961981778E+03  0.40000000000E+03 0.  1.
   -9000007    1    1    2    0  502 -0.18041804457E+03  0.20219689520E+03  0.11281581326E+03  0.49614681593E+03  0.40000000000E+03 0. -1.
<mgrwt>
<rscale>  2 0.48315034E+03</rscale>
<asrwt>0</asrwt>
<pdfrwt beam="1">  1       21 0.98514436E-01 0.48315034E+03</pdfrwt>
<pdfrwt beam="2">  1       21 0.56218892E-01 0.48315034E+03</pdfrwt>
<totfact> 0.21625207E+03</totfact>
</mgrwt>
</event>
<event>
 4    1  0.4758602E-002  0.4857808E+03  0.7818608E-02  0.1017558E+00
         21   -1    0    0  501  502  0.00000000000E+00  0.00000000000E+00  0.15934729949E+04  0.15934729949E+04  0.00000000000E+00 0.  1.
         21   -1    0    0  502  503 -0.00000000000E+00 -0.00000000000E+00 -0.19194808241E+03  0.19194808241E+03  0.00000000000E+00 0. -1.
    9000007    1    1    2  501    0 -0.16386438405E+03  0.22165625519E+03  0.27405901819E+03  0.55775566091E+03  0.40000000000E+03 0. -1.
   -9000007    1    1    2    0  503  0.16386438405E+03 -0.22165625519E+03  0.11274658943E+04  0.12276654164E+04  0.40000000000E+03 0.  1.
<mgrwt>
<rscale>  2 0.48578085E+03</rscale>
<asrwt>0</asrwt>
<pdfrwt beam="1">  1       21 0.24514968E+00 0.48578085E+03</pdfrwt>
<pdfrwt beam="2">  1       21 0.29530475E-01 0.48578085E+03</pdfrwt>
<totfact> 0.62531924E+02</totfact>
</mgrwt>
</event>
<event>
 4    1  0.4758602E-002  0.4355441E+03  0.7818608E-02  0.1032123E+00
         21   -1    0    0  501  502  0.00000000000E+00  0.00000000000E+00  0.62603266881E+03  0.62603266881E+03  0.00000000000E+00 0. -1.
         21   -1    0    0  502  503 -0.00000000000E+00 -0.00000000000E+00 -0.55259952170E+03  0.55259952170E+03  0.00000000000E+00 0. -1.
    9000007    1    1    2  501    0  0.12822230775E+03  0.11514225487E+03  0.43276648003E+03  0.61399147005E+03  0.40000000000E+03 0. -1.
   -9000007    1    1    2    0  503 -0.12822230775E+03 -0.11514225487E+03 -0.35933333292E+03  0.56464072047E+03  0.40000000000E+03 0. -1.
<mgrwt>
<rscale>  2 0.43554414E+03</rscale>
<asrwt>0</asrwt>
<pdfrwt beam="1">  1       21 0.96312718E-01 0.43554414E+03</pdfrwt>
<pdfrwt beam="2">  1       21 0.85015312E-01 0.43554414E+03</pdfrwt>
<totfact> 0.91731505E+02</totfact>
</mgrwt>
</event>
<event>
 4    1  0.4758602E-002  0.4873696E+03  0.7818608E-02  0.1017129E+00
         21   -1    0    0  501  502  0.00000000000E+00  0.00000000000E+00  0.88279141005E+03  0.88279141005E+03  0.00000000000E+00 0. -1.
         21   -1    0    0  502  503 -0.00000000000E+00 -0.00000000000E+00 -0.26968054362E+03  0.26968054362E+03  0.00000000000E+00 0. -1.
    9000007    1    1    2  501    0 -0.13577276659E+03  0.24309439884E+03  0.33406355782E+03  0.59087019857E+03  0.40000000000E+03 0. -1.
   -9000007    1    1    2    0  503  0.13577276659E+03 -0.24309439884E+03  0.27904730861E+03  0.56160175510E+03  0.40000000000E+03 0. -1.
<mgrwt>
<rscale>  2 0.48736960E+03</rscale>
<asrwt>0</asrwt>
<pdfrwt beam="1">  1       21 0.13581406E+00 0.48736960E+03</pdfrwt>
<pdfrwt beam="2">  1       21 0.41489315E-01 0.48736960E+03</pdfrwt>
<totfact> 0.18289187E+03</totfact>
</mgrwt>
</event>
<event>
 4    1  0.4758602E-002  0.4007467E+03  0.7818608E-02  0.1043521E+00
         21   -1    0    0  503  502  0.00000000000E+00  0.00000000000E+00  0.29987604296E+03  0.29987604296E+03  0.00000000000E+00 0.  1.
         21   -1    0    0  501  503 -0.00000000000E+00 -0.00000000000E+00 -0.11042611796E+04  0.11042611796E+04  0.00000000000E+00 0.  1.
    9000007    1    1    2  501    0  0.21972960621E+02 -0.10728668929E+02 -0.90602999787E+03  0.99070089955E+03  0.40000000000E+03 0.  1.
   -9000007    1    1    2    0  502 -0.21972960621E+02  0.10728668929E+02  0.10164486126E+03  0.41343632298E+03  0.40000000000E+03 0.  1.
<mgrwt>
<rscale>  2 0.40074670E+03</rscale>
<asrwt>0</asrwt>
<pdfrwt beam="1">  1       21 0.46134776E-01 0.40074670E+03</pdfrwt>
<pdfrwt beam="2">  1       21 0.16988633E+00 0.40074670E+03</pdfrwt>
<totfact> 0.82519951E+02</totfact>
</mgrwt>
</event>
<event>
 4    1  0.4758602E-002  0.4895661E+03  0.7818608E-02  0.1016539E+00
         21   -1    0    0  503  502  0.00000000000E+00  0.00000000000E+00  0.64389677471E+03  0.64389677471E+03  0.00000000000E+00 0.  1.
         21   -1    0    0  501  503 -0.00000000000E+00 -0.00000000000E+00 -0.64566900146E+03  0.64566900146E+03  0.00000000000E+00 0.  1.
    9000007    1    1    2  501    0 -0.19071519971E+03  0.20809292228E+03 -0.42049255803E+03  0.64535954557E+03  0.40000000000E+03 0.  1.
   -9000007    1    1    2    0  502  0.19071519971E+03 -0.20809292228E+03  0.41872033129E+03  0.64420623059E+03  0.40000000000E+03 0.  1.
<mgrwt>
<rscale>  2 0.48956609E+03</rscale>
<asrwt>0</asrwt>
<pdfrwt beam="1">  1       21 0.99061043E-01 0.48956609E+03</pdfrwt>
<pdfrwt beam="2">  1       21 0.99333692E-01 0.48956609E+03</pdfrwt>
<totfact> 0.57834086E+02</totfact>
</mgrwt>
</event>
<event>
 4    1  0.4758602E-002  0.5228691E+03  0.7818608E-02  0.1007976E+00
         21   -1    0    0  501  502  0.00000000000E+00  0.00000000000E+00  0.75919406101E+03  0.75919406101E+03  0.00000000000E+00 0. -1.
         21   -1    0    0  502  503 -0.00000000000E+00 -0.00000000000E+00 -0.36063379006E+03  0.36063379006E+03  0.00000000000E+00 0.  1.
    9000007    1    1    2  501    0  0.23382630254E+02 -0.33592454832E+03  0.22065426024E+03  0.56752123496E+03  0.40000000000E+03 0. -1.
   -9000007    1    1    2    0  503 -0.23382630254E+02  0.33592454832E+03  0.17790601071E+03  0.55230661612E+03  0.40000000000E+03 0.  1.
<mgrwt>
<rscale>  2 0.52286906E+03</rscale>
<asrwt>0</asrwt>
<pdfrwt beam="1">  1       21 0.11679909E+00 0.52286906E+03</pdfrwt>
<pdfrwt beam="2">  1       21 0.55482122E-01 0.52286906E+03</pdfrwt>
<totfact> 0.14401740E+03</totfact>
</mgrwt>
</event>
<event>
 4    1  0.4758602E-002  0.4088670E+03  0.7818608E-02  0.1040752E+00
         21   -1    0    0  501  502  0.00000000000E+00  0.00000000000E+00  0.10444068447E+04  0.10444068447E+04  0.00000000000E+00 0. -1.
         21   -1    0    0  502  503 -0.00000000000E+00 -0.00000000000E+00 -0.19885712977E+03  0.19885712977E+03  0.00000000000E+00 0. -1.
    9000007    1    1    2  501    0  0.26652658229E+02 -0.80385729370E+02  0.69733570854E+03  0.80836212187E+03  0.40000000000E+03 0. -1.
   -9000007    1    1    2    0  503 -0.26652658229E+02  0.80385729370E+02  0.14821400635E+03  0.43490185256E+03  0.40000000000E+03 0. -1.
<mgrwt>
<rscale>  2 0.40886701E+03</rscale>
<asrwt>0</asrwt>
<pdfrwt beam="1">  1       21 0.16067797E+00 0.40886701E+03</pdfrwt>
<pdfrwt beam="2">  1       21 0.30593405E-01 0.40886701E+03</pdfrwt>
<totfact> 0.22214068E+03</totfact>
</mgrwt>
</event>
<event>
 4    1  0.4758602E-002  0.4185717E+03  0.7818608E-02  0.1037532E+00
         21   -1    0    0  501  502  0.00000000000E+00  0.00000000000E+00  0.49985897743E+03  0.49985897743E+03  0.00000000000E+00 0.  1.
         21   -1    0    0  502  503 -0.00000000000E+00 -0.00000000000E+00 -0.40331524227E+03  0.40331524227E+03  0.00000000000E+00 0.  1.
    9000007    1    1    2  501    0 -0.12048732051E+03 -0.26173500155E+02  0.21168429462E+03  0.46905488709E+03  0.40000000000E+03 0.  1.
   -9000007    1    1    2    0  503  0.12048732051E+03  0.26173500155E+02 -0.11514055945E+03  0.43411933261E+03  0.40000000000E+03 0.  1.
<mgrwt>
<rscale>  2 0.41857167E+03</rscale>
<asrwt>0</asrwt>
<pdfrwt beam="1">  1       21 0.76901381E-01 0.41857167E+03</pdfrwt>
<pdfrwt beam="2">  1       21 0.62048499E-01 0.41857167E+03</pdfrwt>
<totfact> 0.31951985E+03</totfact>
</mgrwt>
</event>
<event>
 4    1  0.4758602E-002  0.5105932E+03  0.7818608E-02  0.1011050E+00
         21   -1    0    0  501  502  0.00000000000E+00  0.00000000000E+00  0.67960683357E+03  0.67960683357E+03  0.00000000000E+00 0.  1.
         21   -1    0    0  502  503 -0.00000000000E+00 -0.00000000000E+00 -0.39340691044E+03  0.39340691044E+03  0.00000000000E+00 0.  1.
    9000007    1    1    2  501    0 -0.31291385787E+03  0.52823160231E+02  0.22775513146E+03  0.55908654841E+03  0.40000000000E+03 0.  1.
   -9000007    1    1    2    0  503  0.31291385787E+03 -0.52823160231E+02  0.58444791661E+02  0.51392719560E+03  0.40000000000E+03 0.  1.
<mgrwt>
<rscale>  2 0.51059315E+03</rscale>
<asrwt>0</asrwt>
<pdfrwt beam="1">  1       21 0.10455490E+00 0.51059315E+03</pdfrwt>
<pdfrwt beam="2">  1       21 0.60524140E-01 0.51059315E+03</pdfrwt>
<totfact> 0.15760240E+03</totfact>
</mgrwt>
</event>
<event>
 4    1  0.4758602E-002  0.4065650E+03  0.7818608E-02  0.1041530E+00
         21   -1    0    0  503  502  0.00000000000E+00  0.00000000000E+00  0.38867157285E+03  0.38867157285E+03  0.00000000000E+00 0.  1.
         21   -1    0    0  501  503 -0.00000000000E+00 -0.00000000000E+00 -0.13986538406E+04  0.13986538406E+04  0.00000000000E+00 0.  1.
    9000007    1    1    2  501    0  0.28878532963E+02  0.66791531055E+02 -0.12505086839E+04  0.13149399404E+04  0.40000000000E+03 0.  1.
   -9000007    1    1    2    0  502 -0.28878532963E+02 -0.66791531055E+02  0.24052641616E+03  0.47238547306E+03  0.40000000000E+03 0.  1.
<mgrwt>
<rscale>  2 0.40656497E+03</rscale>
<asrwt>0</asrwt>
<pdfrwt beam="1">  1       21 0.59795627E-01 0.40656497E+03</pdfrwt>
<pdfrwt beam="2">  1       21 0.21517751E+00 0.40656497E+03</pdfrwt>
<totfact> 0.23259375E+02</totfact>
</mgrwt>
</event>
<event>
 4    1  0.4758602E-002  0.4273853E+03  0.7818608E-02  0.1034689E+00
         21   -1    0    0  503  502  0.00000000000E+00  0.00000000000E+00  0.12127110242E+03  0.12127110242E+03  0.00000000000E+00 0. -1.
         21   -1    0    0  501  503 -0.00000000000E+00 -0.00000000000E+00 -0.20330657766E+04  0.20330657766E+04  0.00000000000E+00 0. -1.
    9000007    1    1    2  501    0 -0.11691390507E+03 -0.94812096533E+02 -0.15042488604E+04  0.15637847770E+04  0.40000000000E+03 0. -1.
   -9000007    1    1    2    0  502  0.11691390507E+03  0.94812096533E+02 -0.40754581379E+03  0.59055210201E+03  0.40000000000E+03 0. -1.
<mgrwt>
<rscale>  2 0.42738530E+03</rscale>
<asrwt>0</asrwt>
<pdfrwt beam="1">  1       21 0.18657093E-01 0.42738530E+03</pdfrwt>
<pdfrwt beam="2">  1       21 0.31277935E+00 0.42738530E+03</pdfrwt>
<totfact> 0.61102564E+02</totfact>
</mgrwt>
</event>
<event>
 4    1  0.4758602E-002  0.5424705E+03  0.7818608E-02  0.1003252E+00
         21   -1    0    0  503  502  0.00000000000E+00  0.00000000000E+00  0.82124330856E+03  0.82124330856E+03  0.00000000000E+00 0.  1.
         21   -1    0    0  501  503 -0.00000000000E+00 -0.00000000000E+00 -0.37523539554E+03  0.37523539554E+03  0.00000000000E+00 0.  1.
    9000007    1    1    2  501    0  0.26629899442E+02 -0.36546561507E+03  0.96015384495E+02  0.55090218860E+03  0.40000000000E+03 0.  1.
   -9000007    1    1    2    0  502 -0.26629899442E+02  0.36546561507E+03  0.34999252853E+03  0.64557651550E+03  0.40000000000E+03 0.  1.
<mgrwt>
<rscale>  2 0.54247052E+03</rscale>
<asrwt>0</asrwt>
<pdfrwt beam="1">  1       21 0.12634512E+00 0.54247052E+03</pdfrwt>
<pdfrwt beam="2">  1       21 0.57728522E-01 0.54247052E+03</pdfrwt>
<totfact> 0.10728860E+03</totfact>
</mgrwt>
</event>
<event>
 4    1  0.4758602E-002  0.4023747E+03  0.7818608E-02  0.1042960E+00
         21   -1    0    0  503  502  0.00000000000E+00  0.00000000000E+00  0.23509649700E+03  0.23509649700E+03  0.00000000000E+00 0.  1.
         21   -1    0    0  501  503 -0.00000000000E+00 -0.00000000000E+00 -0.91076412367E+03  0.91076412367E+03  0.00000000000E+00 0.  1.
    9000007    1    1    2  501    0  0.19308633420E+02  0.39148314833E+02 -0.62075215146E+03  0.73975580256E+03  0.40000000000E+03 0.  1.
   -9000007    1    1    2    0  502 -0.19308633420E+02 -0.39148314833E+02 -0.54915475207E+02  0.40610481811E+03  0.40000000000E+03 0.  1.
<mgrwt>
<rscale>  2 0.40237472E+03</rscale>
<asrwt>0</asrwt>
<pdfrwt beam="1">  1       21 0.36168692E-01 0.40237472E+03</pdfrwt>
<pdfrwt beam="2">  1       21 0.14011756E+00 0.40237472E+03</pdfrwt>
<totfact> 0.23076137E+03</totfact>
</mgrwt>
</event>
<event>
 4    1  0.4758602E-002  0.5083150E+03  0.7818608E-02  0.1011631E+00
         21   -1    0    0  501  502  0.00000000000E+00  0.00000000000E+00  0.10758651225E+04  0.10758651225E+04  0.00000000000E+00 0.  1.
         21   -1    0    0  502  503 -0.00000000000E+00 -0.00000000000E+00 -0.27218485368E+03  0.27218485368E+03  0.00000000000E+00 0.  1.
    9000007    1    1    2  501    0 -0.11274707006E+03  0.29269812910E+03  0.63302548656E+03  0.81185304287E+03  0.40000000000E+03 0.  1.
   -9000007    1    1    2    0  503  0.11274707006E+03 -0.29269812910E+03  0.17065478226E+03  0.53619693331E+03  0.40000000000E+03 0.  1.
<mgrwt>
<rscale>  2 0.50831496E+03</rscale>
<asrwt>0</asrwt>
<pdfrwt beam="1">  1       21 0.16551771E+00 0.50831496E+03</pdfrwt>
<pdfrwt beam="2">  1       21 0.41874594E-01 0.50831496E+03</pdfrwt>
<totfact> 0.10372863E+03</totfact>
</mgrwt>
</event>
<event>
 4    1  0.4758602E-002  0.4229300E+03  0.7818608E-02  0.1036117E+00
         21   -1    0    0  501  502  0.00000000000E+00  0.00000000000E+00  0.17027295153E+04  0.17027295153E+04  0.00000000000E+00 0.  1.
         21   -1    0    0  502  503 -0.00000000000E+00 -0.00000000000E+00 -0.13097788041E+03  0.13097788041E+03  0.00000000000E+00 0.  1.
    9000007    1    1    2  501    0  0.13227285969E+03  0.37063682023E+02  0.11938136292E+04  0.12665152219E+04  0.40000000000E+03 0.  1.
   -9000007    1    1    2    0  503 -0.13227285969E+03 -0.37063682023E+02  0.37793800566E+03  0.56719217383E+03  0.40000000000E+03 0.  1.
<mgrwt>
<rscale>  2 0.42293005E+03</rscale>
<asrwt>0</asrwt>
<pdfrwt beam="1">  1       21 0.26195837E+00 0.42293005E+03</pdfrwt>
<pdfrwt beam="2">  1       21 0.20150444E-01 0.42293005E+03</pdfrwt>
<totfact> 0.10699560E+03</totfact>
</mgrwt>
</event>
<event>
 4    1  0.4758602E-002  0.5873615E+03  0.7818608E-02  0.9931979E-01
         21   -1    0    0  501  502  0.00000000000E+00  0.00000000000E+00  0.14326415739E+04  0.14326415739E+04  0.00000000000E+00 0. -1.
         21   -1    0    0  502  503 -0.00000000000E+00 -0.00000000000E+00 -0.39100337720E+03  0.39100337720E+03  0.00000000000E+00 0. -1.
    9000007    1    1    2  501    0 -0.35020972484E+03 -0.24969314635E+03  0.10859464627E+04  0.12346146113E+04  0.40000000000E+03 0. -1.
   -9000007    1    1    2    0  503  0.35020972484E+03  0.24969314635E+03 -0.44308266006E+02  0.58903033975E+03  0.40000000000E+03 0. -1.
<mgrwt>
<rscale>  2 0.58736149E+03</rscale>
<asrwt>0</asrwt>
<pdfrwt beam="1">  1       21 0.22040639E+00 0.58736149E+03</pdfrwt>
<pdfrwt beam="2">  1       21 0.60154366E-01 0.58736149E+03</pdfrwt>
<totfact> 0.19419150E+02</totfact>
</mgrwt>
</event>
<event>
 4    1  0.4758602E-002  0.5819410E+03  0.7818608E-02  0.9943598E-01
         21   -1    0    0  503  502  0.00000000000E+00  0.00000000000E+00  0.63206861789E+03  0.63206861789E+03  0.00000000000E+00 0. -1.
         21   -1    0    0  501  503 -0.00000000000E+00 -0.00000000000E+00 -0.56063665341E+03  0.56063665341E+03  0.00000000000E+00 0. -1.
    9000007    1    1    2  501    0 -0.12087974488E+03 -0.40502277653E+03 -0.89830858147E+02  0.58883354635E+03  0.40000000000E+03 0. -1.
   -9000007    1    1    2    0  502  0.12087974488E+03  0.40502277653E+03  0.16126282263E+03  0.60387172495E+03  0.40000000000E+03 0. -1.
<mgrwt>
<rscale>  2 0.58194103E+03</rscale>
<asrwt>0</asrwt>
<pdfrwt beam="1">  1       21 0.97241326E-01 0.58194103E+03</pdfrwt>
<pdfrwt beam="2">  1       21 0.86251793E-01 0.58194103E+03</pdfrwt>
<totfact> 0.82058713E+02</totfact>
</mgrwt>
</event>
<event>
 4    1  0.4758602E-002  0.5352399E+03  0.7818608E-02  0.1004969E+00
         21   -1    0    0  501  502  0.00000000000E+00  0.00000000000E+00  0.10373596611E+04  0.10373596611E+04  0.00000000000E+00 0.  1.
         21   -1    0    0  502  503 -0.00000000000E+00 -0.00000000000E+00 -0.44979597045E+03  0.44979597045E+03  0.00000000000E+00 0. -1.
    9000007    1    1    2  501    0  0.17492970115E+03  0.30964707297E+03  0.75577241350E+03  0.92610671694E+03  0.40000000000E+03 0.  1.
   -9000007    1    1    2    0  503 -0.17492970115E+03 -0.30964707297E+03 -0.16820872285E+03  0.56104891461E+03  0.40000000000E+03 0. -1.
<mgrwt>
<rscale>  2 0.53523986E+03</rscale>
<asrwt>0</asrwt>
<pdfrwt beam="1">  1       21 0.15959379E+00 0.53523986E+03</pdfrwt>
<pdfrwt beam="2">  1       21 0.69199380E-01 0.53523986E+03</pdfrwt>
<totfact> 0.38398721E+02</totfact>
</mgrwt>
</event>
<event>
 4    1  0.4758602E-002  0.6779865E+03  0.7818608E-02  0.9755637E-01
         21   -1    0    0  503  502  0.00000000000E+00  0.00000000000E+00  0.48436981465E+03  0.48436981465E+03  0.00000000000E+00 0.  1.
         21   -1    0    0  501  503 -0.00000000000E+00 -0.00000000000E+00 -0.17507321929E+04  0.17507321929E+04  0.00000000000E+00 0. -1.
    9000007    1    1    2  501    0  0.54678847756E+03 -0.26230750872E+02 -0.13894442036E+04  0.15460339215E+04  0.40000000000E+03 0. -1.
   -9000007    1    1    2    0  502 -0.54678847756E+03  0.26230750872E+02  0.12308182536E+03  0.68906808605E+03  0.40000000000E+03 0.  1.
<mgrwt>
<rscale>  2 0.67798650E+03</rscale>
<asrwt>0</asrwt>
<pdfrwt beam="1">  1       21 0.74518433E-01 0.67798650E+03</pdfrwt>
<pdfrwt beam="2">  1       21 0.26934341E+00 0.67798650E+03</pdfrwt>
<totfact> 0.56909681E+01</totfact>
</mgrwt>
</event>
<event>
 4    1  0.4758602E-002  0.5131378E+03  0.7818608E-02  0.1010406E+00
         21   -1    0    0  501  502  0.00000000000E+00  0.00000000000E+00  0.40630077437E+03  0.40630077437E+03  0.00000000000E+00 0. -1.
         21   -1    0    0  502  503 -0.00000000000E+00 -0.00000000000E+00 -0.66580792539E+03  0.66580792539E+03  0.00000000000E+00 0. -1.
    9000007    1    1    2  501    0 -0.80249509677E+02 -0.31124010035E+03 -0.42252246646E+02  0.51487438878E+03  0.40000000000E+03 0. -1.
   -9000007    1    1    2    0  503  0.80249509677E+02  0.31124010035E+03 -0.21725490437E+03  0.55723431099E+03  0.40000000000E+03 0. -1.
<mgrwt>
<rscale>  2 0.51313778E+03</rscale>
<asrwt>0</asrwt>
<pdfrwt beam="1">  1       21 0.62507812E-01 0.51313778E+03</pdfrwt>
<pdfrwt beam="2">  1       21 0.10243199E+00 0.51313778E+03</pdfrwt>
<totfact> 0.15424577E+03</totfact>
</mgrwt>
</event>
<event>
 4    1  0.4758602E-002  0.4946549E+03  0.7818608E-02  0.1015184E+00
         21   -1    0    0  501  502  0.00000000000E+00  0.00000000000E+00  0.64797506078E+03  0.64797506078E+03  0.00000000000E+00 0.  1.
         21   -1    0    0  502  503 -0.00000000000E+00 -0.00000000000E+00 -0.42674619136E+03  0.42674619136E+03  0.00000000000E+00 0.  1.
    9000007    1    1    2  501    0  0.59732431462E+01 -0.29094293803E+03 -0.71720874566E+02  0.49982732685E+03  0.40000000000E+03 0.  1.
   -9000007    1    1    2    0  503 -0.59732431462E+01  0.29094293803E+03  0.29294974399E+03  0.57489392528E+03  0.40000000000E+03 0.  1.
<mgrwt>
<rscale>  2 0.49465490E+03</rscale>
<asrwt>0</asrwt>
<pdfrwt beam="1">  1       21 0.99688471E-01 0.49465490E+03</pdfrwt>
<pdfrwt beam="2">  1       21 0.65653260E-01 0.49465490E+03</pdfrwt>
<totfact> 0.14874649E+03</totfact>
</mgrwt>
</event>
<event>
 4    1  0.4758602E-002  0.4282131E+03  0.7818608E-02  0.1034426E+00
         21   -1    0    0  501  502  0.00000000000E+00  0.00000000000E+00  0.20710450918E+03  0.20710450918E+03  0.00000000000E+00 0.  1.
         21   -1    0    0  502  503 -0.00000000000E+00 -0.00000000000E+00 -0.11719152237E+04  0.11719152237E+04  0.00000000000E+00 0.  1.
    9000007    1    1    2  501    0  0.12586287216E+03  0.86746689454E+02 -0.14146340558E+03  0.45097488382E+03  0.40000000000E+03 0.  1.
   -9000007    1    1    2    0  503 -0.12586287216E+03 -0.86746689454E+02 -0.82334730898E+03  0.92804484909E+03  0.40000000000E+03 0.  1.
<mgrwt>
<rscale>  2 0.42821309E+03</rscale>
<asrwt>0</asrwt>
<pdfrwt beam="1">  1       21 0.31862231E-01 0.42821309E+03</pdfrwt>
<pdfrwt beam="2">  1       21 0.18029465E+00 0.42821309E+03</pdfrwt>
<totfact> 0.14635068E+03</totfact>
</mgrwt>
</event>
<event>
 4    1  0.4758602E-002  0.4037734E+03  0.7818608E-02  0.1042481E+00
         21   -1    0    0  503  502  0.00000000000E+00  0.00000000000E+00  0.11860044755E+04  0.11860044755E+04  0.00000000000E+00 0.  1.
         21   -1    0    0  501  503 -0.00000000000E+00 -0.00000000000E+00 -0.20146283670E+03  0.20146283670E+03  0.00000000000E+00 0.  1.
    9000007    1    1    2  501    0  0.38844206299E+02  0.39039544202E+02  0.10126680153E+03  0.41627866084E+03  0.40000000000E+03 0.  1.
   -9000007    1    1    2    0  502 -0.38844206299E+02 -0.39039544202E+02  0.88327483730E+03  0.97118865139E+03  0.40000000000E+03 0.  1.
<mgrwt>
<rscale>  2 0.40377340E+03</rscale>
<asrwt>0</asrwt>
<pdfrwt beam="1">  1       21 0.18246222E+00 0.40377340E+03</pdfrwt>
<pdfrwt beam="2">  1       21 0.30994283E-01 0.40377340E+03</pdfrwt>
<totfact> 0.15103385E+03</totfact>
</mgrwt>
</event>
<event>
 4    1  0.4758602E-002  0.4026660E+03  0.7818608E-02  0.1042860E+00
         21   -1    0    0  501  502  0.00000000000E+00  0.00000000000E+00  0.43040771703E+03  0.43040771703E+03  0.00000000000E+00 0. -1.
         21   -1    0    0  502  503 -0.00000000000E+00 -0.00000000000E+00 -0.91162832477E+03  0.91162832477E+03  0.00000000000E+00 0. -1.
    9000007    1    1    2  501    0  0.27474296280E-01  0.46259031179E+02  0.27339555118E+03  0.48670835839E+03  0.40000000000E+03 0. -1.
   -9000007    1    1    2    0  503 -0.27474296280E-01 -0.46259031179E+02 -0.75461615891E+03  0.85532768341E+03  0.40000000000E+03 0. -1.
<mgrwt>
<rscale>  2 0.40266599E+03</rscale>
<asrwt>0</asrwt>
<pdfrwt beam="1">  1       21 0.66216572E-01 0.40266599E+03</pdfrwt>
<pdfrwt beam="2">  1       21 0.14025051E+00 0.40266599E+03</pdfrwt>
<totfact> 0.63905188E+02</totfact>
</mgrwt>
</event>
<event>
 4    1  0.4758602E-002  0.5207884E+03  0.7818608E-02  0.1008491E+00
         21   -1    0    0  503  502  0.00000000000E+00  0.00000000000E+00  0.17269831933E+04  0.17269831933E+04  0.00000000000E+00 0. -1.
         21   -1    0    0  501  503 -0.00000000000E+00 -0.00000000000E+00 -0.24132372882E+03  0.24132372882E+03  0.00000000000E+00 0.  1.
    9000007    1    1    2  501    0  0.33035096381E+03  0.45703883533E+02  0.16124625699E+03  0.54517974986E+03  0.40000000000E+03 0.  1.
   -9000007    1    1    2    0  502 -0.33035096381E+03 -0.45703883533E+02  0.13244132075E+04  0.14231271723E+04  0.40000000000E+03 0. -1.
<mgrwt>
<rscale>  2 0.52078844E+03</rscale>
<asrwt>0</asrwt>
<pdfrwt beam="1">  1       21 0.26568971E+00 0.52078844E+03</pdfrwt>
<pdfrwt beam="2">  1       21 0.37126729E-01 0.52078844E+03</pdfrwt>
<totfact> 0.28992914E+02</totfact>
</mgrwt>
</event>
<event>
 4    1  0.4758602E-002  0.4010684E+03  0.7818608E-02  0.1043410E+00
         21   -1    0    0  503  502  0.00000000000E+00  0.00000000000E+00  0.35776897166E+03  0.35776897166E+03  0.00000000000E+00 0.  1.
         21   -1    0    0  501  503 -0.00000000000E+00 -0.00000000000E+00 -0.62033789187E+03  0.62033789187E+03  0.00000000000E+00 0.  1.
    9000007    1    1    2  501    0 -0.25969226915E+02 -0.13470173257E+02 -0.38784906672E+03  0.55792718599E+03  0.40000000000E+03 0.  1.
   -9000007    1    1    2    0  502  0.25969226915E+02  0.13470173257E+02  0.12528014650E+03  0.42017967754E+03  0.40000000000E+03 0.  1.
<mgrwt>
<rscale>  2 0.40106838E+03</rscale>
<asrwt>0</asrwt>
<pdfrwt beam="1">  1       21 0.55041381E-01 0.40106838E+03</pdfrwt>
<pdfrwt beam="2">  1       21 0.95436598E-01 0.40106838E+03</pdfrwt>
<totfact> 0.25204381E+03</totfact>
</mgrwt>
</event>
<event>
 4    1  0.4758602E-002  0.5603469E+03  0.7818608E-02  0.9991270E-01
         21   -1    0    0  501  502  0.00000000000E+00  0.00000000000E+00  0.62397998518E+03  0.62397998518E+03  0.00000000000E+00 0. -1.
         21   -1    0    0  502  503 -0.00000000000E+00 -0.00000000000E+00 -0.59935220464E+03  0.59935220464E+03  0.00000000000E+00 0. -1.
    9000007    1    1    2  501    0 -0.32728241794E+03 -0.21650605321E+03  0.25730256889E+03  0.61659813828E+03  0.40000000000E+03 0. -1.
   -9000007    1    1    2    0  503  0.32728241794E+03  0.21650605321E+03 -0.23267478835E+03  0.60673405154E+03  0.40000000000E+03 0. -1.
<mgrwt>
<rscale>  2 0.56034690E+03</rscale>
<asrwt>0</asrwt>
<pdfrwt beam="1">  1       21 0.95996921E-01 0.56034690E+03</pdfrwt>
<pdfrwt beam="2">  1       21 0.92208032E-01 0.56034690E+03</pdfrwt>
<totfact> 0.72746768E+02</totfact>
</mgrwt>
</event>
<event>
 4    1  0.4758602E-002  0.4286828E+03  0.7818608E-02  0.1034277E+00
         21   -1    0    0  501  502  0.00000000000E+00  0.00000000000E+00  0.33343441676E+03  0.33343441676E+03  0.00000000000E+00 0. -1.
         21   -1    0    0  502  503 -0.00000000000E+00 -0.00000000000E+00 -0.62356787262E+03  0.62356787262E+03  0.00000000000E+00 0. -1.
    9000007    1    1    2  501    0 -0.13798538276E+03 -0.68767608762E+02  0.18011066953E+02  0.42906100779E+03  0.40000000000E+03 0. -1.
   -9000007    1    1    2    0  503  0.13798538276E+03  0.68767608762E+02 -0.30814452281E+03  0.52794128159E+03  0.40000000000E+03 0. -1.
<mgrwt>
<rscale>  2 0.42868281E+03</rscale>
<asrwt>0</asrwt>
<pdfrwt beam="1">  1       21 0.51297603E-01 0.42868281E+03</pdfrwt>
<pdfrwt beam="2">  1       21 0.95933517E-01 0.42868281E+03</pdfrwt>
<totfact> 0.28635677E+03</totfact>
</mgrwt>
</event>
<event>
 4    1  0.4758602E-002  0.4026566E+03  0.7818608E-02  0.1042864E+00
         21   -1    0    0  503  502  0.00000000000E+00  0.00000000000E+00  0.30235903763E+04  0.30235903763E+04  0.00000000000E+00 0. -1.
         21   -1    0    0  501  503 -0.00000000000E+00 -0.00000000000E+00 -0.56776071299E+02  0.56776071299E+02  0.00000000000E+00 0. -1.
    9000007    1    1    2  501    0  0.61844789410E+01  0.45760968595E+02  0.11204171099E+04  0.11905741532E+04  0.40000000000E+03 0. -1.
   -9000007    1    1    2    0  502 -0.61844789410E+01 -0.45760968595E+02  0.18463971951E+04  0.18897922944E+04  0.40000000000E+03 0. -1.
<mgrwt>
<rscale>  2 0.40265657E+03</rscale>
<asrwt>0</asrwt>
<pdfrwt beam="1">  1       21 0.46516763E+00 0.40265657E+03</pdfrwt>
<pdfrwt beam="2">  1       21 0.87347825E-02 0.40265657E+03</pdfrwt>
<totfact> 0.26714710E+02</totfact>
</mgrwt>
</event>
<event>
 4    1  0.4758602E-002  0.4877868E+03  0.7818608E-02  0.1017017E+00
         21   -1    0    0  501  502  0.00000000000E+00  0.00000000000E+00  0.61824722981E+03  0.61824722981E+03  0.00000000000E+00 0.  1.
         21   -1    0    0  502  503 -0.00000000000E+00 -0.00000000000E+00 -0.39146909625E+03  0.39146909625E+03  0.00000000000E+00 0.  1.
    9000007    1    1    2  501    0  0.24036261063E+03 -0.14199233267E+03  0.17900827155E+03  0.51959596651E+03  0.40000000000E+03 0.  1.
   -9000007    1    1    2    0  503 -0.24036261063E+03  0.14199233267E+03  0.47769862012E+02  0.49012035955E+03  0.40000000000E+03 0.  1.
<mgrwt>
<rscale>  2 0.48778685E+03</rscale>
<asrwt>0</asrwt>
<pdfrwt beam="1">  1       21 0.95114959E-01 0.48778685E+03</pdfrwt>
<pdfrwt beam="2">  1       21 0.60226014E-01 0.48778685E+03</pdfrwt>
<totfact> 0.20218075E+03</totfact>
</mgrwt>
</event>
<event>
 4    1  0.4758602E-002  0.4106000E+03  0.7818608E-02  0.1040170E+00
         21   -1    0    0  501  502  0.00000000000E+00  0.00000000000E+00  0.70988616129E+03  0.70988616129E+03  0.00000000000E+00 0. -1.
         21   -1    0    0  502  503 -0.00000000000E+00 -0.00000000000E+00 -0.34199807196E+03  0.34199807196E+03  0.00000000000E+00 0. -1.
    9000007    1    1    2  501    0 -0.84891782896E+02  0.37225636355E+02  0.47467860007E+03  0.62762419980E+03  0.40000000000E+03 0. -1.
   -9000007    1    1    2    0  503  0.84891782896E+02 -0.37225636355E+02 -0.10679051074E+03  0.42426003346E+03  0.40000000000E+03 0. -1.
<mgrwt>
<rscale>  2 0.41060000E+03</rscale>
<asrwt>0</asrwt>
<pdfrwt beam="1">  1       21 0.10921326E+00 0.41060000E+03</pdfrwt>
<pdfrwt beam="2">  1       21 0.52615088E-01 0.41060000E+03</pdfrwt>
<totfact> 0.19912402E+03</totfact>
</mgrwt>
</event>
<event>
 4    1  0.4758602E-002  0.5689358E+03  0.7818608E-02  0.9972036E-01
         21   -1    0    0  503  502  0.00000000000E+00  0.00000000000E+00  0.97473341040E+03  0.97473341040E+03  0.00000000000E+00 0.  1.
         21   -1    0    0  501  503 -0.00000000000E+00 -0.00000000000E+00 -0.37086306002E+03  0.37086306002E+03  0.00000000000E+00 0.  1.
    9000007    1    1    2  501    0  0.37966438639E+03 -0.13979576149E+03  0.84360618384E+02  0.57515616589E+03  0.40000000000E+03 0.  1.
   -9000007    1    1    2    0  502 -0.37966438639E+03  0.13979576149E+03  0.51950973199E+03  0.77044030454E+03  0.40000000000E+03 0.  1.
<mgrwt>
<rscale>  2 0.56893576E+03</rscale>
<asrwt>0</asrwt>
<pdfrwt beam="1">  1       21 0.14995898E+00 0.56893576E+03</pdfrwt>
<pdfrwt beam="2">  1       21 0.57055856E-01 0.56893576E+03</pdfrwt>
<totfact> 0.69136291E+02</totfact>
</mgrwt>
</event>
<event>
 4    1  0.4758602E-002  0.5140945E+03  0.7818608E-02  0.1010164E+00
         21   -1    0    0  501  502  0.00000000000E+00  0.00000000000E+00  0.24081760701E+04  0.24081760701E+04  0.00000000000E+00 0.  1.
         21   -1    0    0  502  503 -0.00000000000E+00 -0.00000000000E+00 -0.19059253494E+03  0.19059253494E+03  0.00000000000E+00 0. -1.
    9000007    1    1    2  501    0  0.76600887322E+02 -0.31372824049E+03  0.19550625359E+04  0.20215248265E+04  0.40000000000E+03 0.  1.
   -9000007    1    1    2    0  503 -0.76600887322E+02  0.31372824049E+03  0.26252099925E+03  0.57724377854E+03  0.40000000000E+03 0. -1.
<mgrwt>
<rscale>  2 0.51409445E+03</rscale>
<asrwt>0</asrwt>
<pdfrwt beam="1">  1       21 0.37048860E+00 0.51409445E+03</pdfrwt>
<pdfrwt beam="2">  1       21 0.29321930E-01 0.51409445E+03</pdfrwt>
<totfact> 0.10718323E+02</totfact>
</mgrwt>
</event>
<event>
 4    1  0.4758602E-002  0.4367828E+03  0.7818608E-02  0.1031739E+00
         21   -1    0    0  501  502  0.00000000000E+00  0.00000000000E+00  0.21477875483E+03  0.21477875483E+03  0.00000000000E+00 0. -1.
         21   -1    0    0  502  503 -0.00000000000E+00 -0.00000000000E+00 -0.10377481591E+04  0.10377481591E+04  0.00000000000E+00 0.  1.
    9000007    1    1    2  501    0 -0.12175177369E+03  0.12631588103E+03 -0.17379207911E+03  0.47008816509E+03  0.40000000000E+03 0. -1.
   -9000007    1    1    2    0  503  0.12175177369E+03 -0.12631588103E+03 -0.64917732518E+03  0.78243874887E+03  0.40000000000E+03 0.  1.
<mgrwt>
<rscale>  2 0.43678278E+03</rscale>
<asrwt>0</asrwt>
<pdfrwt beam="1">  1       21 0.33042886E-01 0.43678278E+03</pdfrwt>
<pdfrwt beam="2">  1       21 0.15965356E+00 0.43678278E+03</pdfrwt>
<totfact> 0.19159385E+03</totfact>
</mgrwt>
</event>
<event>
 4    1  0.4758602E-002  0.4060271E+03  0.7818608E-02  0.1041712E+00
         21   -1    0    0  501  502  0.00000000000E+00  0.00000000000E+00  0.38698537726E+03  0.38698537726E+03  0.00000000000E+00 0. -1.
         21   -1    0    0  502  503 -0.00000000000E+00 -0.00000000000E+00 -0.43023607120E+03  0.43023607120E+03  0.00000000000E+00 0. -1.
    9000007    1    1    2  501    0  0.50968829354E+02  0.47541516741E+02 -0.62142616583E+02  0.41075506348E+03  0.40000000000E+03 0. -1.
   -9000007    1    1    2    0  503 -0.50968829354E+02 -0.47541516741E+02  0.18891922641E+02  0.40646638498E+03  0.40000000000E+03 0. -1.
<mgrwt>
<rscale>  2 0.40602711E+03</rscale>
<asrwt>0</asrwt>
<pdfrwt beam="1">  1       21 0.59536212E-01 0.40602711E+03</pdfrwt>
<pdfrwt beam="2">  1       21 0.66190165E-01 0.40602711E+03</pdfrwt>
<totfact> 0.49294968E+03</totfact>
</mgrwt>
</event>
<event>
 4    1  0.4758602E-002  0.4941778E+03  0.7818608E-02  0.1015310E+00
         21   -1    0    0  501  502  0.00000000000E+00  0.00000000000E+00  0.24088842209E+03  0.24088842209E+03  0.00000000000E+00 0. -1.
         21   -1    0    0  502  503 -0.00000000000E+00 -0.00000000000E+00 -0.10609589057E+04  0.10609589057E+04  0.00000000000E+00 0. -1.
    9000007    1    1    2  501    0  0.24776740184E+03  0.15107281006E+03 -0.27279489426E+03  0.56447208406E+03  0.40000000000E+03 0. -1.
   -9000007    1    1    2    0  503 -0.24776740184E+03 -0.15107281006E+03 -0.54727558931E+03  0.73737524369E+03  0.40000000000E+03 0. -1.
<mgrwt>
<rscale>  2 0.49417778E+03</rscale>
<asrwt>0</asrwt>
<pdfrwt beam="1">  1       21 0.37059758E-01 0.49417778E+03</pdfrwt>
<pdfrwt beam="2">  1       21 0.16322445E+00 0.49417778E+03</pdfrwt>
<totfact> 0.13951368E+03</totfact>
</mgrwt>
</event>
<event>
 4    1  0.4758602E-002  0.6498334E+03  0.7818608E-02  0.9807092E-01
         21   -1    0    0  503  502  0.00000000000E+00  0.00000000000E+00  0.61984420827E+03  0.61984420827E+03  0.00000000000E+00 0. -1.
         21   -1    0    0  501  503 -0.00000000000E+00 -0.00000000000E+00 -0.76689828694E+03  0.76689828694E+03  0.00000000000E+00 0.  1.
    9000007    1    1    2  501    0 -0.14988640570E+03  0.48971171543E+03 -0.30521124504E+03  0.71793969311E+03  0.40000000000E+03 0.  1.
   -9000007    1    1    2    0  502  0.14988640570E+03 -0.48971171543E+03  0.15815716637E+03  0.66880280211E+03  0.40000000000E+03 0. -1.
<mgrwt>
<rscale>  2 0.64983344E+03</rscale>
<asrwt>0</asrwt>
<pdfrwt beam="1">  1       21 0.95360648E-01 0.64983344E+03</pdfrwt>
<pdfrwt beam="2">  1       21 0.11798435E+00 0.64983344E+03</pdfrwt>
<totfact> 0.39053520E+02</totfact>
</mgrwt>
</event>
<event>
 4    1  0.4758602E-002  0.4215051E+03  0.7818608E-02  0.1036578E+00
         21   -1    0    0  503  502  0.00000000000E+00  0.00000000000E+00  0.14764373825E+03  0.14764373825E+03  0.00000000000E+00 0. -1.
         21   -1    0    0  501  503 -0.00000000000E+00 -0.00000000000E+00 -0.13748757866E+04  0.13748757866E+04  0.00000000000E+00 0.  1.
    9000007    1    1    2  501    0 -0.13118044183E+03 -0.21405705351E+02 -0.88250365547E+03  0.97799755340E+03  0.40000000000E+03 0.  1.
   -9000007    1    1    2    0  502  0.13118044183E+03  0.21405705351E+02 -0.34472839288E+03  0.54452197145E+03  0.40000000000E+03 0. -1.
<mgrwt>
<rscale>  2 0.42150506E+03</rscale>
<asrwt>0</asrwt>
<pdfrwt beam="1">  1       21 0.22714421E-01 0.42150506E+03</pdfrwt>
<pdfrwt beam="2">  1       21 0.21151935E+00 0.42150506E+03</pdfrwt>
<totfact> 0.17564669E+03</totfact>
</mgrwt>
</event>
<event>
 4    1  0.4758602E-002  0.5684172E+03  0.7818608E-02  0.9973187E-01
         21   -1    0    0  503  502  0.00000000000E+00  0.00000000000E+00  0.56044108832E+03  0.56044108832E+03  0.00000000000E+00 0. -1.
         21   -1    0    0  501  503 -0.00000000000E+00 -0.00000000000E+00 -0.76706646879E+03  0.76706646879E+03  0.00000000000E+00 0.  1.
    9000007    1    1    2  501    0  0.32106565658E+03  0.24497956546E+03 -0.43414347143E+03  0.71524729788E+03  0.40000000000E+03 0.  1.
   -9000007    1    1    2    0  502 -0.32106565658E+03 -0.24497956546E+03  0.22751809096E+03  0.61226025924E+03  0.40000000000E+03 0. -1.
<mgrwt>
<rscale>  2 0.56841723E+03</rscale>
<asrwt>0</asrwt>
<pdfrwt beam="1">  1       21 0.86221707E-01 0.56841723E+03</pdfrwt>
<pdfrwt beam="2">  1       21 0.11801022E+00 0.56841723E+03</pdfrwt>
<totfact> 0.51012116E+02</totfact>
</mgrwt>
</event>
<event>
 4    1  0.4758602E-002  0.4361563E+03  0.7818608E-02  0.1031933E+00
         21   -1    0    0  501  502  0.00000000000E+00  0.00000000000E+00  0.10022267480E+04  0.10022267480E+04  0.00000000000E+00 0. -1.
         21   -1    0    0  502  503 -0.00000000000E+00 -0.00000000000E+00 -0.19742565505E+03  0.19742565505E+03  0.00000000000E+00 0. -1.
    9000007    1    1    2  501    0 -0.93681587454E+02  0.14647885971E+03  0.28458907123E+03  0.52079097115E+03  0.40000000000E+03 0. -1.
   -9000007    1    1    2    0  503  0.93681587454E+02 -0.14647885971E+03  0.52021202173E+03  0.67886143190E+03  0.40000000000E+03 0. -1.
<mgrwt>
<rscale>  2 0.43615627E+03</rscale>
<asrwt>0</asrwt>
<pdfrwt beam="1">  1       21 0.15418873E+00 0.43615627E+03</pdfrwt>
<pdfrwt beam="2">  1       21 0.30373178E-01 0.43615627E+03</pdfrwt>
<totfact> 0.24968672E+03</totfact>
</mgrwt>
</event>
<event>
 4    1  0.4758602E-002  0.6653503E+03  0.7818608E-02  0.9778394E-01
         21   -1    0    0  503  502  0.00000000000E+00  0.00000000000E+00  0.76925437186E+03  0.76925437186E+03  0.00000000000E+00 0.  1.
         21   -1    0    0  501  503 -0.00000000000E+00 -0.00000000000E+00 -0.57658130399E+03  0.57658130399E+03  0.00000000000E+00 0. -1.
    9000007    1    1    2  501    0  0.32022238244E+03 -0.42443919466E+03  0.66935837459E+02  0.66870876360E+03  0.40000000000E+03 0. -1.
   -9000007    1    1    2    0  502 -0.32022238244E+03  0.42443919466E+03  0.12573723041E+03  0.67712691225E+03  0.40000000000E+03 0.  1.
<mgrwt>
<rscale>  2 0.66535029E+03</rscale>
<asrwt>0</asrwt>
<pdfrwt beam="1">  1       21 0.11834683E+00 0.66535029E+03</pdfrwt>
<pdfrwt beam="2">  1       21 0.88704816E-01 0.66535029E+03</pdfrwt>
<totfact> 0.45888708E+02</totfact>
</mgrwt>
</event>
<event>
 4    1  0.4758602E-002  0.5368621E+03  0.7818608E-02  0.1004581E+00
         21   -1    0    0  501  502  0.00000000000E+00  0.00000000000E+00  0.15762881946E+03  0.15762881946E+03  0.00000000000E+00 0. -1.
         21   -1    0    0  502  503 -0.00000000000E+00 -0.00000000000E+00 -0.21928984632E+04  0.21928984632E+04  0.00000000000E+00 0.  1.
    9000007    1    1    2  501    0  0.16668207135E+03 -0.31691949413E+03 -0.53853365610E+03  0.76042052670E+03  0.40000000000E+03 0. -1.
   -9000007    1    1    2    0  503 -0.16668207135E+03  0.31691949413E+03 -0.14967359876E+04  0.15901067559E+04  0.40000000000E+03 0.  1.
<mgrwt>
<rscale>  2 0.53686207E+03</rscale>
<asrwt>0</asrwt>
<pdfrwt beam="1">  1       21 0.24250589E-01 0.53686207E+03</pdfrwt>
<pdfrwt beam="2">  1       21 0.33736897E+00 0.53686207E+03</pdfrwt>
<totfact> 0.24662429E+02</totfact>
</mgrwt>
</event>
<event>
 4    1  0.4758602E-002  0.4078490E+03  0.7818608E-02  0.1041095E+00
         21   -1    0    0  503  502  0.00000000000E+00  0.00000000000E+00  0.14760171704E+03  0.14760171704E+03  0.00000000000E+00 0. -1.
         21   -1    0    0  501  503 -0.00000000000E+00 -0.00000000000E+00 -0.12712559328E+04  0.12712559328E+04  0.00000000000E+00 0. -1.
    9000007    1    1    2  501    0  0.41189708497E+02  0.68148443974E+02 -0.80084133242E+03  0.89871443864E+03  0.40000000000E+03 0. -1.
   -9000007    1    1    2    0  502 -0.41189708497E+02 -0.68148443974E+02 -0.32281288334E+03  0.52014321119E+03  0.40000000000E+03 0. -1.
<mgrwt>
<rscale>  2 0.40784899E+03</rscale>
<asrwt>0</asrwt>
<pdfrwt beam="1">  1       21 0.22707957E-01 0.40784899E+03</pdfrwt>
<pdfrwt beam="2">  1       21 0.19557783E+00 0.40784899E+03</pdfrwt>
<totfact> 0.22528647E+03</totfact>
</mgrwt>
</event>
<event>
 4    1  0.4758602E-002  0.4044383E+03  0.7818608E-02  0.1042254E+00
         21   -1    0    0  503  502  0.00000000000E+00  0.00000000000E+00  0.80964875626E+03  0.80964875626E+03  0.00000000000E+00 0. -1.
         21   -1    0    0  501  503 -0.00000000000E+00 -0.00000000000E+00 -0.44498389422E+03  0.44498389422E+03  0.00000000000E+00 0. -1.
    9000007    1    1    2  501    0  0.57005134401E+02  0.17910163254E+02 -0.28119950835E+03  0.49258859385E+03  0.40000000000E+03 0. -1.
   -9000007    1    1    2    0  502 -0.57005134401E+02 -0.17910163254E+02  0.64586437040E+03  0.76204405663E+03  0.40000000000E+03 0. -1.
<mgrwt>
<rscale>  2 0.40443833E+03</rscale>
<asrwt>0</asrwt>
<pdfrwt beam="1">  1       21 0.12456135E+00 0.40443833E+03</pdfrwt>
<pdfrwt beam="2">  1       21 0.68459061E-01 0.40443833E+03</pdfrwt>
<totfact> 0.80698819E+02</totfact>
</mgrwt>
</event>
<event>
 4    1  0.4758602E-002  0.6296829E+03  0.7818608E-02  0.9845668E-01
         21   -1    0    0  501  502  0.00000000000E+00  0.00000000000E+00  0.58114994973E+03  0.58114994973E+03  0.00000000000E+00 0.  1.
         21   -1    0    0  502  503 -0.00000000000E+00 -0.00000000000E+00 -0.69475085732E+03  0.69475085732E+03  0.00000000000E+00 0.  1.
    9000007    1    1    2  501    0  0.42453153041E+03  0.23722047683E+03 -0.14230960192E+03  0.64556378286E+03  0.40000000000E+03 0.  1.
   -9000007    1    1    2    0  503 -0.42453153041E+03 -0.23722047683E+03  0.28708694337E+02  0.63033702419E+03  0.40000000000E+03 0.  1.
<mgrwt>
<rscale>  2 0.62968292E+03</rscale>
<asrwt>0</asrwt>
<pdfrwt beam="1">  1       21 0.89407684E-01 0.62968292E+03</pdfrwt>
<pdfrwt beam="2">  1       21 0.10688475E+00 0.62968292E+03</pdfrwt>
<totfact> 0.58818649E+02</totfact>
</mgrwt>
</event>
<event>
 4    1  0.4758602E-002  0.4084118E+03  0.7818608E-02  0.1040905E+00
         21   -1    0    0  503  502  0.00000000000E+00  0.00000000000E+00  0.92856723522E+03  0.92856723522E+03  0.00000000000E+00 0. -1.
         21   -1    0    0  501  503 -0.00000000000E+00 -0.00000000000E+00 -0.17979464926E+03  0.17979464926E+03  0.00000000000E+00 0. -1.
    9000007    1    1    2  501    0 -0.75244858358E+02 -0.33740856791E+02  0.35770949501E+03  0.54291464978E+03  0.40000000000E+03 0. -1.
   -9000007    1    1    2    0  502  0.75244858358E+02  0.33740856791E+02  0.39106309095E+03  0.56544723470E+03  0.40000000000E+03 0. -1.
<mgrwt>
<rscale>  2 0.40841184E+03</rscale>
<asrwt>0</asrwt>
<pdfrwt beam="1">  1       21 0.14285649E+00 0.40841184E+03</pdfrwt>
<pdfrwt beam="2">  1       21 0.27660716E-01 0.40841184E+03</pdfrwt>
<totfact> 0.37329854E+03</totfact>
</mgrwt>
</event>
<event>
 4    1  0.4758602E-002  0.5062068E+03  0.7818608E-02  0.1012171E+00
         21   -1    0    0  503  502  0.00000000000E+00  0.00000000000E+00  0.55079782910E+03  0.55079782910E+03  0.00000000000E+00 0.  1.
         21   -1    0    0  501  503 -0.00000000000E+00 -0.00000000000E+00 -0.48763314646E+03  0.48763314646E+03  0.00000000000E+00 0. -1.
    9000007    1    1    2  501    0 -0.81447505489E+02 -0.29935207731E+03 -0.79717927847E+02  0.51244542184E+03  0.40000000000E+03 0.  1.
   -9000007    1    1    2    0  502  0.81447505489E+02  0.29935207731E+03  0.14288261048E+03  0.52598555372E+03  0.40000000000E+03 0. -1.
<mgrwt>
<rscale>  2 0.50620684E+03</rscale>
<asrwt>0</asrwt>
<pdfrwt beam="1">  1       21 0.84738127E-01 0.50620684E+03</pdfrwt>
<pdfrwt beam="2">  1       21 0.75020485E-01 0.50620684E+03</pdfrwt>
<totfact> 0.16154286E+03</totfact>
</mgrwt>
</event>
<event>
 4    1  0.4758602E-002  0.4182085E+03  0.7818608E-02  0.1037651E+00
         21   -1    0    0  501  502  0.00000000000E+00  0.00000000000E+00  0.11616587996E+04  0.11616587996E+04  0.00000000000E+00 0. -1.
         21   -1    0    0  502  503 -0.00000000000E+00 -0.00000000000E+00 -0.18207118837E+03  0.18207118837E+03  0.00000000000E+00 0. -1.
    9000007    1    1    2  501    0 -0.10049249255E+03 -0.69279363851E+02  0.76930524728E+03  0.87563059266E+03  0.40000000000E+03 0. -1.
   -9000007    1    1    2    0  503  0.10049249255E+03  0.69279363851E+02  0.21028236397E+03  0.46809939534E+03  0.40000000000E+03 0. -1.
<mgrwt>
<rscale>  2 0.41820853E+03</rscale>
<asrwt>0</asrwt>
<pdfrwt beam="1">  1       21 0.17871673E+00 0.41820853E+03</pdfrwt>
<pdfrwt beam="2">  1       21 0.28010953E-01 0.41820853E+03</pdfrwt>
<totfact> 0.19472584E+03</totfact>
</mgrwt>
</event>
<event>
 4    1  0.4758602E-002  0.5518676E+03  0.7818608E-02  0.1001063E+00
         21   -1    0    0  501  502  0.00000000000E+00  0.00000000000E+00  0.18671630220E+03  0.18671630220E+03  0.00000000000E+00 0.  1.
         21   -1    0    0  502  503 -0.00000000000E+00 -0.00000000000E+00 -0.18988798988E+04  0.18988798988E+04  0.00000000000E+00 0.  1.
    9000007    1    1    2  501    0 -0.40517732125E+02  0.37804252589E+03 -0.46450289543E+03  0.72133264023E+03  0.40000000000E+03 0.  1.
   -9000007    1    1    2    0  503  0.40517732125E+02 -0.37804252589E+03 -0.12476607011E+04  0.13642635607E+04  0.40000000000E+03 0.  1.
<mgrwt>
<rscale>  2 0.55186759E+03</rscale>
<asrwt>0</asrwt>
<pdfrwt beam="1">  1       21 0.28725585E-01 0.55186759E+03</pdfrwt>
<pdfrwt beam="2">  1       21 0.29213537E+00 0.55186759E+03</pdfrwt>
<totfact> 0.33075988E+02</totfact>
</mgrwt>
</event>
<event>
 4    1  0.4758602E-002  0.4608817E+03  0.7818608E-02  0.1024526E+00
         21   -1    0    0  503  502  0.00000000000E+00  0.00000000000E+00  0.28693276368E+03  0.28693276368E+03  0.00000000000E+00 0.  1.
         21   -1    0    0  501  503 -0.00000000000E+00 -0.00000000000E+00 -0.83490394920E+03  0.83490394920E+03  0.00000000000E+00 0.  1.
    9000007    1    1    2  501    0  0.28337080923E+02  0.22717597843E+03 -0.46281572633E+03  0.65315412567E+03  0.40000000000E+03 0.  1.
   -9000007    1    1    2    0  502 -0.28337080923E+02 -0.22717597843E+03 -0.85155459182E+02  0.46868258722E+03  0.40000000000E+03 0.  1.
<mgrwt>
<rscale>  2 0.46088167E+03</rscale>
<asrwt>0</asrwt>
<pdfrwt beam="1">  1       21 0.44143503E-01 0.46088167E+03</pdfrwt>
<pdfrwt beam="2">  1       21 0.12844676E+00 0.46088167E+03</pdfrwt>
<totfact> 0.18775371E+03</totfact>
</mgrwt>
</event>
<event>
 4    1  0.4758602E-002  0.5820037E+03  0.7818608E-02  0.9943462E-01
         21   -1    0    0  503  502  0.00000000000E+00  0.00000000000E+00  0.10517505723E+04  0.10517505723E+04  0.00000000000E+00 0. -1.
         21   -1    0    0  501  503 -0.00000000000E+00 -0.00000000000E+00 -0.33578726692E+03  0.33578726692E+03  0.00000000000E+00 0.  1.
    9000007    1    1    2  501    0 -0.24360335877E+03 -0.34552238659E+03  0.21771584926E+03  0.62139239379E+03  0.40000000000E+03 0.  1.
   -9000007    1    1    2    0  502  0.24360335877E+03  0.34552238659E+03  0.49824745613E+03  0.76614544545E+03  0.40000000000E+03 0. -1.
<mgrwt>
<rscale>  2 0.58200371E+03</rscale>
<asrwt>0</asrwt>
<pdfrwt beam="1">  1       21 0.16180778E+00 0.58200371E+03</pdfrwt>
<pdfrwt beam="2">  1       21 0.51659580E-01 0.58200371E+03</pdfrwt>
<totfact> 0.69088311E+02</totfact>
</mgrwt>
</event>
<event>
 4    1  0.4758602E-002  0.6452811E+03  0.7818608E-02  0.9815674E-01
         21   -1    0    0  501  502  0.00000000000E+00  0.00000000000E+00  0.34977502252E+03  0.34977502252E+03  0.00000000000E+00 0. -1.
         21   -1    0    0  502  503 -0.00000000000E+00 -0.00000000000E+00 -0.18592825647E+04  0.18592825647E+04  0.00000000000E+00 0. -1.
    9000007    1    1    2  501    0 -0.43788169669E+03 -0.25425846819E+03 -0.92285874746E+02  0.65184693879E+03  0.40000000000E+03 0. -1.
   -9000007    1    1    2    0  503  0.43788169669E+03  0.25425846819E+03 -0.14172216674E+04  0.15572106484E+04  0.40000000000E+03 0. -1.
<mgrwt>
<rscale>  2 0.64528114E+03</rscale>
<asrwt>0</asrwt>
<pdfrwt beam="1">  1       21 0.53811543E-01 0.64528114E+03</pdfrwt>
<pdfrwt beam="2">  1       21 0.28604346E+00 0.64528114E+03</pdfrwt>
<totfact> 0.94230205E+01</totfact>
</mgrwt>
</event>
<event>
 4    1  0.4758602E-002  0.4263111E+03  0.7818608E-02  0.1035032E+00
         21   -1    0    0  503  502  0.00000000000E+00  0.00000000000E+00  0.31401611821E+03  0.31401611821E+03  0.00000000000E+00 0.  1.
         21   -1    0    0  501  503 -0.00000000000E+00 -0.00000000000E+00 -0.58916113081E+03  0.58916113081E+03  0.00000000000E+00 0.  1.
    9000007    1    1    2  501    0 -0.48031086796E+02  0.13940633749E+03 -0.77580942860E+02  0.43331272186E+03  0.40000000000E+03 0.  1.
   -9000007    1    1    2    0  502  0.48031086796E+02 -0.13940633749E+03 -0.19756406974E+03  0.46986452716E+03  0.40000000000E+03 0.  1.
<mgrwt>
<rscale>  2 0.42631105E+03</rscale>
<asrwt>0</asrwt>
<pdfrwt beam="1">  1       21 0.48310172E-01 0.42631105E+03</pdfrwt>
<pdfrwt beam="2">  1       21 0.90640173E-01 0.42631105E+03</pdfrwt>
<totfact> 0.37272190E+03</totfact>
</mgrwt>
</event>
<event>
 4    1  0.4758602E-002  0.5758096E+03  0.7818608E-02  0.9956905E-01
         21   -1    0    0  501  502  0.00000000000E+00  0.00000000000E+00  0.37992452933E+03  0.37992452933E+03  0.00000000000E+00 0.  1.
         21   -1    0    0  502  503 -0.00000000000E+00 -0.00000000000E+00 -0.11001933392E+04  0.11001933392E+04  0.00000000000E+00 0.  1.
    9000007    1    1    2  501    0 -0.39052239020E+03 -0.13801798665E+03 -0.23603640068E+02  0.57629318382E+03  0.40000000000E+03 0.  1.
   -9000007    1    1    2    0  503  0.39052239020E+03  0.13801798665E+03 -0.69666516981E+03  0.90382468472E+03  0.40000000000E+03 0.  1.
<mgrwt>
<rscale>  2 0.57580961E+03</rscale>
<asrwt>0</asrwt>
<pdfrwt beam="1">  1       21 0.58449928E-01 0.57580961E+03</pdfrwt>
<pdfrwt beam="2">  1       21 0.16926051E+00 0.57580961E+03</pdfrwt>
<totfact> 0.46591195E+02</totfact>
</mgrwt>
</event>
<event>
 4    1  0.4758602E-002  0.4048483E+03  0.7818608E-02  0.1042114E+00
         21   -1    0    0  503  502  0.00000000000E+00  0.00000000000E+00  0.10511568883E+04  0.10511568883E+04  0.00000000000E+00 0.  1.
         21   -1    0    0  501  503 -0.00000000000E+00 -0.00000000000E+00 -0.74400307396E+03  0.74400307396E+03  0.00000000000E+00 0.  1.
    9000007    1    1    2  501    0  0.32105835542E+01  0.62384757368E+02 -0.64442347831E+03  0.76104125065E+03  0.40000000000E+03 0.  1.
   -9000007    1    1    2    0  502 -0.32105835542E+01 -0.62384757368E+02  0.95157729268E+03  0.10341187116E+04  0.40000000000E+03 0.  1.
<mgrwt>
<rscale>  2 0.40484832E+03</rscale>
<asrwt>0</asrwt>
<pdfrwt beam="1">  1       21 0.16171644E+00 0.40484832E+03</pdfrwt>
<pdfrwt beam="2">  1       21 0.11446201E+00 0.40484832E+03</pdfrwt>
<totfact> 0.11973248E+02</totfact>
</mgrwt>
</event>
<event>
 4    1  0.4758602E-002  0.5571364E+03  0.7818608E-02  0.9998555E-01
         21   -1    0    0  501  502  0.00000000000E+00  0.00000000000E+00  0.17283663919E+04  0.17283663919E+04  0.00000000000E+00 0.  1.
         21   -1    0    0  502  503 -0.00000000000E+00 -0.00000000000E+00 -0.18836593170E+03  0.18836593170E+03  0.00000000000E+00 0.  1.
    9000007    1    1    2  501    0  0.16279438751E+03  0.35199283200E+03  0.97683555161E+03  0.11245482032E+04  0.40000000000E+03 0.  1.
   -9000007    1    1    2    0  503 -0.16279438751E+03 -0.35199283200E+03  0.56316490861E+03  0.79218412044E+03  0.40000000000E+03 0.  1.
<mgrwt>
<rscale>  2 0.55713640E+03</rscale>
<asrwt>0</asrwt>
<pdfrwt beam="1">  1       21 0.26590251E+00 0.55713640E+03</pdfrwt>
<pdfrwt beam="2">  1       21 0.28979375E-01 0.55713640E+03</pdfrwt>
<totfact> 0.46848281E+02</totfact>
</mgrwt>
</event>
<event>
 4    1  0.4758602E-002  0.4115329E+03  0.7818608E-02  0.1039858E+00
         21   -1    0    0  503  502  0.00000000000E+00  0.00000000000E+00  0.20018086864E+03  0.20018086864E+03  0.00000000000E+00 0.  1.
         21   -1    0    0  501  503 -0.00000000000E+00 -0.00000000000E+00 -0.84646496415E+03  0.84646496415E+03  0.00000000000E+00 0.  1.
    9000007    1    1    2  501    0 -0.51456635862E+02  0.81923943632E+02 -0.33498468693E+03  0.53063552312E+03  0.40000000000E+03 0.  1.
   -9000007    1    1    2    0  502  0.51456635862E+02 -0.81923943632E+02 -0.31129940858E+03  0.51601030968E+03  0.40000000000E+03 0.  1.
<mgrwt>
<rscale>  2 0.41153289E+03</rscale>
<asrwt>0</asrwt>
<pdfrwt beam="1">  1       21 0.30797056E-01 0.41153289E+03</pdfrwt>
<pdfrwt beam="2">  1       21 0.13022538E+00 0.41153289E+03</pdfrwt>
<totfact> 0.38450727E+03</totfact>
</mgrwt>
</event>
<event>
 4    1  0.4758602E-002  0.5547868E+03  0.7818608E-02  0.1000392E+00
         21   -1    0    0  501  502  0.00000000000E+00  0.00000000000E+00  0.11311768830E+04  0.11311768830E+04  0.00000000000E+00 0.  1.
         21   -1    0    0  502  503 -0.00000000000E+00 -0.00000000000E+00 -0.56221328848E+03  0.56221328848E+03  0.00000000000E+00 0.  1.
    9000007    1    1    2  501    0 -0.31302224943E+03  0.22317131276E+03  0.89270574659E+03  0.10510527644E+04  0.40000000000E+03 0.  1.
   -9000007    1    1    2    0  503  0.31302224943E+03 -0.22317131276E+03 -0.32374215211E+03  0.64233740707E+03  0.40000000000E+03 0.  1.
<mgrwt>
<rscale>  2 0.55478677E+03</rscale>
<asrwt>0</asrwt>
<pdfrwt beam="1">  1       21 0.17402721E+00 0.55478677E+03</pdfrwt>
<pdfrwt beam="2">  1       21 0.86494352E-01 0.55478677E+03</pdfrwt>
<totfact> 0.17796879E+02</totfact>
</mgrwt>
</event>
<event>
 4    1  0.4758602E-002  0.5093461E+03  0.7818608E-02  0.1011368E+00
         21   -1    0    0  501  502  0.00000000000E+00  0.00000000000E+00  0.19203190196E+03  0.19203190196E+03  0.00000000000E+00 0. -1.
         21   -1    0    0  502  503 -0.00000000000E+00 -0.00000000000E+00 -0.16913779060E+04  0.16913779060E+04  0.00000000000E+00 0. -1.
    9000007    1    1    2  501    0  0.75153518041E+02 -0.30624408433E+03 -0.32721792666E+03  0.60539661544E+03  0.40000000000E+03 0. -1.
   -9000007    1    1    2    0  503 -0.75153518041E+02  0.30624408433E+03 -0.11721280774E+04  0.12780131925E+04  0.40000000000E+03 0. -1.
<mgrwt>
<rscale>  2 0.50934614E+03</rscale>
<asrwt>0</asrwt>
<pdfrwt beam="1">  1       21 0.29543368E-01 0.50934614E+03</pdfrwt>
<pdfrwt beam="2">  1       21 0.26021200E+00 0.50934614E+03</pdfrwt>
<totfact> 0.49908229E+02</totfact>
</mgrwt>
</event>
<event>
 4    1  0.4758602E-002  0.4836325E+03  0.7818608E-02  0.1018142E+00
         21   -1    0    0  501  502  0.00000000000E+00  0.00000000000E+00  0.10359331095E+04  0.10359331095E+04  0.00000000000E+00 0.  1.
         21   -1    0    0  502  503 -0.00000000000E+00 -0.00000000000E+00 -0.43283942675E+03  0.43283942675E+03  0.00000000000E+00 0.  1.
    9000007    1    1    2  501    0 -0.27014269630E+03  0.30385723711E+02  0.80947368098E+03  0.94294645064E+03  0.40000000000E+03 0.  1.
   -9000007    1    1    2    0  503  0.27014269630E+03 -0.30385723711E+02 -0.20637999827E+03  0.52582608556E+03  0.40000000000E+03 0.  1.
<mgrwt>
<rscale>  2 0.48363247E+03</rscale>
<asrwt>0</asrwt>
<pdfrwt beam="1">  1       21 0.15937432E+00 0.48363247E+03</pdfrwt>
<pdfrwt beam="2">  1       21 0.66590681E-01 0.48363247E+03</pdfrwt>
<totfact> 0.42933963E+02</totfact>
</mgrwt>
</event>
<event>
 4    1  0.4758602E-002  0.5048204E+03  0.7818608E-02  0.1012528E+00
         21   -1    0    0  501  502  0.00000000000E+00  0.00000000000E+00  0.95040758176E+03  0.95040758176E+03  0.00000000000E+00 0.  1.
         21   -1    0    0  502  503 -0.00000000000E+00 -0.00000000000E+00 -0.42009743917E+03  0.42009743917E+03  0.00000000000E+00 0. -1.
    9000007    1    1    2  501    0  0.30552639620E+03  0.38694628467E+02  0.67728537607E+03  0.84472429448E+03  0.40000000000E+03 0.  1.
   -9000007    1    1    2    0  503 -0.30552639620E+03 -0.38694628467E+02 -0.14697523347E+03  0.52578072645E+03  0.40000000000E+03 0. -1.
<mgrwt>
<rscale>  2 0.50482042E+03</rscale>
<asrwt>0</asrwt>
<pdfrwt beam="1">  1       21 0.14621655E+00 0.50482042E+03</pdfrwt>
<pdfrwt beam="2">  1       21 0.64630375E-01 0.50482042E+03</pdfrwt>
<totfact> 0.57616436E+02</totfact>
</mgrwt>
</event>
<event>
 4    1  0.4758602E-002  0.4079709E+03  0.7818608E-02  0.1041054E+00
         21   -1    0    0  501  502  0.00000000000E+00  0.00000000000E+00  0.73201742380E+03  0.73201742380E+03  0.00000000000E+00 0.  1.
         21   -1    0    0  502  503 -0.00000000000E+00 -0.00000000000E+00 -0.28089497108E+03  0.28089497108E+03  0.00000000000E+00 0.  1.
    9000007    1    1    2  501    0 -0.11260034863E+02 -0.79457075311E+02  0.44663656265E+03  0.60491688214E+03  0.40000000000E+03 0.  1.
   -9000007    1    1    2    0  503  0.11260034863E+02  0.79457075311E+02  0.44858900701E+01  0.40799551273E+03  0.40000000000E+03 0.  1.
<mgrwt>
<rscale>  2 0.40797085E+03</rscale>
<asrwt>0</asrwt>
<pdfrwt beam="1">  1       21 0.11261806E+00 0.40797085E+03</pdfrwt>
<pdfrwt beam="2">  1       21 0.43214611E-01 0.40797085E+03</pdfrwt>
<totfact> 0.27975049E+03</totfact>
</mgrwt>
</event>
<event>
 4    1  0.4758602E-002  0.4024153E+03  0.7818608E-02  0.1042947E+00
         21   -1    0    0  503  502  0.00000000000E+00  0.00000000000E+00  0.11537733925E+04  0.11537733925E+04  0.00000000000E+00 0.  1.
         21   -1    0    0  501  503 -0.00000000000E+00 -0.00000000000E+00 -0.35958909800E+03  0.35958909800E+03  0.00000000000E+00 0.  1.
    9000007    1    1    2  501    0  0.43447580121E+02 -0.70953180530E+01 -0.19373931754E+03  0.44662395694E+03  0.40000000000E+03 0.  1.
   -9000007    1    1    2    0  502 -0.43447580121E+02  0.70953180530E+01  0.98792361206E+03  0.10667385336E+04  0.40000000000E+03 0.  1.
<mgrwt>
<rscale>  2 0.40241525E+03</rscale>
<asrwt>0</asrwt>
<pdfrwt beam="1">  1       21 0.17750360E+00 0.40241525E+03</pdfrwt>
<pdfrwt beam="2">  1       21 0.55321400E-01 0.40241525E+03</pdfrwt>
<totfact> 0.49431156E+02</totfact>
</mgrwt>
</event>
<event>
 4    1  0.4758602E-002  0.4008451E+03  0.7818608E-02  0.1043487E+00
         21   -1    0    0  501  502  0.00000000000E+00  0.00000000000E+00  0.58198991335E+03  0.58198991335E+03  0.00000000000E+00 0. -1.
         21   -1    0    0  502  503 -0.00000000000E+00 -0.00000000000E+00 -0.28092099915E+03  0.28092099915E+03  0.00000000000E+00 0. -1.
    9000007    1    1    2  501    0  0.18292749689E+02 -0.18498312299E+02  0.20716248393E+03  0.45121292867E+03  0.40000000000E+03 0. -1.
   -9000007    1    1    2    0  503 -0.18292749689E+02  0.18498312299E+02  0.93906430265E+02  0.41169798384E+03  0.40000000000E+03 0. -1.
<mgrwt>
<rscale>  2 0.40084512E+03</rscale>
<asrwt>0</asrwt>
<pdfrwt beam="1">  1       21 0.89536910E-01 0.40084512E+03</pdfrwt>
<pdfrwt beam="2">  1       21 0.43218615E-01 0.40084512E+03</pdfrwt>
<totfact> 0.48911204E+03</totfact>
</mgrwt>
</event>
<event>
 4    1  0.4758602E-002  0.4665877E+03  0.7818608E-02  0.1022888E+00
         21   -1    0    0  503  502  0.00000000000E+00  0.00000000000E+00  0.91069764929E+03  0.91069764929E+03  0.00000000000E+00 0.  1.
         21   -1    0    0  501  503 -0.00000000000E+00 -0.00000000000E+00 -0.59905750946E+03  0.59905750946E+03  0.00000000000E+00 0.  1.
    9000007    1    1    2  501    0 -0.28773896180E+02 -0.23848723780E+03 -0.42936985235E+03  0.63408404001E+03  0.40000000000E+03 0.  1.
   -9000007    1    1    2    0  502  0.28773896180E+02  0.23848723780E+03  0.74100999218E+03  0.87567111874E+03  0.40000000000E+03 0.  1.
<mgrwt>
<rscale>  2 0.46658772E+03</rscale>
<asrwt>0</asrwt>
<pdfrwt beam="1">  1       21 0.14010733E+00 0.46658772E+03</pdfrwt>
<pdfrwt beam="2">  1       21 0.92162694E-01 0.46658772E+03</pdfrwt>
<totfact> 0.29043883E+02</totfact>
</mgrwt>
</event>
<event>
 4    1  0.4758602E-002  0.4192708E+03  0.7818608E-02  0.1037304E+00
         21   -1    0    0  501  502  0.00000000000E+00  0.00000000000E+00  0.11037377044E+04  0.11037377044E+04  0.00000000000E+00 0.  1.
         21   -1    0    0  502  503 -0.00000000000E+00 -0.00000000000E+00 -0.19884352488E+03  0.19884352488E+03  0.00000000000E+00 0.  1.
    9000007    1    1    2  501    0  0.18182983238E+02 -0.12432771251E+03  0.16188238893E+03  0.44943732469E+03  0.40000000000E+03 0.  1.
   -9000007    1    1    2    0  503 -0.18182983238E+02  0.12432771251E+03  0.74301179055E+03  0.85314390455E+03  0.40000000000E+03 0.  1.
<mgrwt>
<rscale>  2 0.41927080E+03</rscale>
<asrwt>0</asrwt>
<pdfrwt beam="1">  1       21 0.16980580E+00 0.41927080E+03</pdfrwt>
<pdfrwt beam="2">  1       21 0.30591312E-01 0.41927080E+03</pdfrwt>
<totfact> 0.18936687E+03</totfact>
</mgrwt>
</event>
<event>
 4    1  0.4758602E-002  0.4129150E+03  0.7818608E-02  0.1039397E+00
         21   -1    0    0  503  502  0.00000000000E+00  0.00000000000E+00  0.33578604513E+03  0.33578604513E+03  0.00000000000E+00 0. -1.
         21   -1    0    0  501  503 -0.00000000000E+00 -0.00000000000E+00 -0.78723863835E+03  0.78723863835E+03  0.00000000000E+00 0.  1.
    9000007    1    1    2  501    0  0.81531297013E+02  0.62059975601E+02 -0.56029110042E+03  0.69600640095E+03  0.40000000000E+03 0. -1.
   -9000007    1    1    2    0  502 -0.81531297013E+02 -0.62059975601E+02  0.10883850720E+03  0.42701828253E+03  0.40000000000E+03 0. -1.
<mgrwt>
<rscale>  2 0.41291499E+03</rscale>
<asrwt>0</asrwt>
<pdfrwt beam="1">  1       21 0.51659393E-01 0.41291499E+03</pdfrwt>
<pdfrwt beam="2">  1       21 0.12111363E+00 0.41291499E+03</pdfrwt>
<totfact> 0.15972551E+03</totfact>
</mgrwt>
</event>
<event>
 4    1  0.4758602E-002  0.5411527E+03  0.7818608E-02  0.1003563E+00
         21   -1    0    0  503  502  0.00000000000E+00  0.00000000000E+00  0.39067320394E+03  0.39067320394E+03  0.00000000000E+00 0.  1.
         21   -1    0    0  501  503 -0.00000000000E+00 -0.00000000000E+00 -0.10642448203E+04  0.10642448203E+04  0.00000000000E+00 0. -1.
    9000007    1    1    2  501    0  0.23942467242E+03  0.27481279590E+03 -0.73233660720E+03  0.91058396252E+03  0.40000000000E+03 0. -1.
   -9000007    1    1    2    0  502 -0.23942467242E+03 -0.27481279590E+03  0.58764990867E+02  0.54433406168E+03  0.40000000000E+03 0.  1.
<mgrwt>
<rscale>  2 0.54115270E+03</rscale>
<asrwt>0</asrwt>
<pdfrwt beam="1">  1       21 0.60103570E-01 0.54115270E+03</pdfrwt>
<pdfrwt beam="2">  1       21 0.16372997E+00 0.54115270E+03</pdfrwt>
<totfact> 0.48799889E+02</totfact>
</mgrwt>
</event>
<event>
 4    1  0.4758602E-002  0.4274904E+03  0.7818608E-02  0.1034656E+00
         21   -1    0    0  501  502  0.00000000000E+00  0.00000000000E+00  0.13550982313E+04  0.13550982313E+04  0.00000000000E+00 0. -1.
         21   -1    0    0  502  503 -0.00000000000E+00 -0.00000000000E+00 -0.13544594633E+03  0.13544594633E+03  0.00000000000E+00 0. -1.
    9000007    1    1    2  501    0 -0.14656553253E+03 -0.35589074100E+02  0.65886046561E+03  0.78539490109E+03  0.40000000000E+03 0. -1.
   -9000007    1    1    2    0  503  0.14656553253E+03  0.35589074100E+02  0.56079181932E+03  0.70514927649E+03  0.40000000000E+03 0. -1.
<mgrwt>
<rscale>  2 0.42749039E+03</rscale>
<asrwt>0</asrwt>
<pdfrwt beam="1">  1       21 0.20847664E+00 0.42749039E+03</pdfrwt>
<pdfrwt beam="2">  1       21 0.20837839E-01 0.42749039E+03</pdfrwt>
<totfact> 0.21627633E+03</totfact>
</mgrwt>
</event>
<event>
 4    1  0.4758602E-002  0.4154932E+03  0.7818608E-02  0.1038543E+00
         21   -1    0    0  501  502  0.00000000000E+00  0.00000000000E+00  0.24510022503E+04  0.24510022503E+04  0.00000000000E+00 0. -1.
         21   -1    0    0  502  503 -0.00000000000E+00 -0.00000000000E+00 -0.72303020606E+02  0.72303020606E+02  0.00000000000E+00 0.  1.
    9000007    1    1    2  501    0  0.92498910815E+02 -0.63863757917E+02  0.13921803443E+04  0.14528595042E+04  0.40000000000E+03 0. -1.
   -9000007    1    1    2    0  503 -0.92498910815E+02  0.63863757917E+02  0.98651888539E+03  0.10704457666E+04  0.40000000000E+03 0.  1.
<mgrwt>
<rscale>  2 0.41549323E+03</rscale>
<asrwt>0</asrwt>
<pdfrwt beam="1">  1       21 0.37707721E+00 0.41549323E+03</pdfrwt>
<pdfrwt beam="2">  1       21 0.11123544E-01 0.41549323E+03</pdfrwt>
<totfact> 0.64756193E+02</totfact>
</mgrwt>
</event>
<event>
 4    1  0.4758602E-002  0.4334018E+03  0.7818608E-02  0.1032791E+00
         21   -1    0    0  501  502  0.00000000000E+00  0.00000000000E+00  0.14938743990E+03  0.14938743990E+03  0.00000000000E+00 0. -1.
         21   -1    0    0  502  503 -0.00000000000E+00 -0.00000000000E+00 -0.19672563365E+04  0.19672563365E+04  0.00000000000E+00 0. -1.
    9000007    1    1    2  501    0  0.62414731254E+02 -0.15473038962E+03 -0.27319668339E+03  0.51232169578E+03  0.40000000000E+03 0. -1.
   -9000007    1    1    2    0  503 -0.62414731254E+02  0.15473038962E+03 -0.15446722132E+04  0.16043220806E+04  0.40000000000E+03 0. -1.
<mgrwt>
<rscale>  2 0.43340177E+03</rscale>
<asrwt>0</asrwt>
<pdfrwt beam="1">  1       21 0.22982684E-01 0.43340177E+03</pdfrwt>
<pdfrwt beam="2">  1       21 0.30265480E+00 0.43340177E+03</pdfrwt>
<totfact> 0.47045970E+02</totfact>
</mgrwt>
</event>
<event>
 4    1  0.4758602E-002  0.4865620E+03  0.7818608E-02  0.1017347E+00
         21   -1    0    0  503  502  0.00000000000E+00  0.00000000000E+00  0.85234262090E+03  0.85234262090E+03  0.00000000000E+00 0.  1.
         21   -1    0    0  501  503 -0.00000000000E+00 -0.00000000000E+00 -0.28430963241E+03  0.28430963241E+03  0.00000000000E+00 0.  1.
    9000007    1    1    2  501    0  0.22658949050E+03  0.15937312484E+03  0.19772468513E+03  0.52520247642E+03  0.40000000000E+03 0.  1.
   -9000007    1    1    2    0  502 -0.22658949050E+03 -0.15937312484E+03  0.37030830336E+03  0.61144977689E+03  0.40000000000E+03 0.  1.
<mgrwt>
<rscale>  2 0.48656201E+03</rscale>
<asrwt>0</asrwt>
<pdfrwt beam="1">  1       21 0.13112963E+00 0.48656201E+03</pdfrwt>
<pdfrwt beam="2">  1       21 0.43739944E-01 0.48656201E+03</pdfrwt>
<totfact> 0.17965580E+03</totfact>
</mgrwt>
</event>
<event>
 4    1  0.4758602E-002  0.4674570E+03  0.7818608E-02  0.1022640E+00
         21   -1    0    0  503  502  0.00000000000E+00  0.00000000000E+00  0.43368266825E+03  0.43368266825E+03  0.00000000000E+00 0.  1.
         21   -1    0    0  501  503 -0.00000000000E+00 -0.00000000000E+00 -0.57603034783E+03  0.57603034783E+03  0.00000000000E+00 0. -1.
    9000007    1    1    2  501    0  0.34331618275E+02 -0.23945217562E+03 -0.24987202017E+03  0.53004908347E+03  0.40000000000E+03 0. -1.
   -9000007    1    1    2    0  502 -0.34331618275E+02  0.23945217562E+03  0.10752434059E+03  0.47966393260E+03  0.40000000000E+03 0.  1.
<mgrwt>
<rscale>  2 0.46745695E+03</rscale>
<asrwt>0</asrwt>
<pdfrwt beam="1">  1       21 0.66720411E-01 0.46745695E+03</pdfrwt>
<pdfrwt beam="2">  1       21 0.88620053E-01 0.46745695E+03</pdfrwt>
<totfact> 0.19210191E+03</totfact>
</mgrwt>
</event>
<event>
 4    1  0.4758602E-002  0.6397650E+03  0.7818608E-02  0.9826176E-01
         21   -1    0    0  501  502  0.00000000000E+00  0.00000000000E+00  0.49521158029E+03  0.49521158029E+03  0.00000000000E+00 0.  1.
         21   -1    0    0  502  503 -0.00000000000E+00 -0.00000000000E+00 -0.85838219437E+03  0.85838219437E+03  0.00000000000E+00 0.  1.
    9000007    1    1    2  501    0 -0.35201831449E+03  0.35409365408E+03 -0.31199144436E+03  0.71178498927E+03  0.40000000000E+03 0.  1.
   -9000007    1    1    2    0  503  0.35201831449E+03 -0.35409365408E+03 -0.51179169721E+02  0.64180878539E+03  0.40000000000E+03 0.  1.
<mgrwt>
<rscale>  2 0.63976496E+03</rscale>
<asrwt>0</asrwt>
<pdfrwt beam="1">  1       21 0.76186397E-01 0.63976496E+03</pdfrwt>
<pdfrwt beam="2">  1       21 0.13205880E+00 0.63976496E+03</pdfrwt>
<totfact> 0.49683048E+02</totfact>
</mgrwt>
</event>
<event>
 4    1  0.4758602E-002  0.4017604E+03  0.7818608E-02  0.1043172E+00
         21   -1    0    0  503  502  0.00000000000E+00  0.00000000000E+00  0.15920838900E+03  0.15920838900E+03  0.00000000000E+00 0.  1.
         21   -1    0    0  501  503 -0.00000000000E+00 -0.00000000000E+00 -0.10208529872E+04  0.10208529872E+04  0.00000000000E+00 0.  1.
    9000007    1    1    2  501    0 -0.35804909903E+02 -0.11376905266E+02 -0.38190935874E+03  0.55431596030E+03  0.40000000000E+03 0.  1.
   -9000007    1    1    2    0  502  0.35804909903E+02  0.11376905266E+02 -0.47973523948E+03  0.62574541592E+03  0.40000000000E+03 0.  1.
<mgrwt>
<rscale>  2 0.40176041E+03</rscale>
<asrwt>0</asrwt>
<pdfrwt beam="1">  1       21 0.24493598E-01 0.40176041E+03</pdfrwt>
<pdfrwt beam="2">  1       21 0.15705431E+00 0.40176041E+03</pdfrwt>
<totfact> 0.36717088E+03</totfact>
</mgrwt>
</event>
<event>
 4    1  0.4758602E-002  0.4407065E+03  0.7818608E-02  0.1030530E+00
         21   -1    0    0  503  502  0.00000000000E+00  0.00000000000E+00  0.35899762878E+03  0.35899762878E+03  0.00000000000E+00 0.  1.
         21   -1    0    0  501  503 -0.00000000000E+00 -0.00000000000E+00 -0.65196619395E+03  0.65196619395E+03  0.00000000000E+00 0.  1.
    9000007    1    1    2  501    0  0.15595258560E+03 -0.99503743419E+02 -0.35501208541E+03  0.56591146366E+03  0.40000000000E+03 0.  1.
   -9000007    1    1    2    0  502 -0.15595258560E+03  0.99503743419E+02  0.62043520246E+02  0.44505235907E+03  0.40000000000E+03 0.  1.
<mgrwt>
<rscale>  2 0.44070648E+03</rscale>
<asrwt>0</asrwt>
<pdfrwt beam="1">  1       21 0.55230405E-01 0.44070648E+03</pdfrwt>
<pdfrwt beam="2">  1       21 0.10030249E+00 0.44070648E+03</pdfrwt>
<totfact> 0.21848008E+03</totfact>
</mgrwt>
</event>
<event>
 4    1  0.4758602E-002  0.7498414E+03  0.7818608E-02  0.9635599E-01
         21   -1    0    0  503  502  0.00000000000E+00  0.00000000000E+00  0.93214598124E+03  0.93214598124E+03  0.00000000000E+00 0.  1.
         21   -1    0    0  501  503 -0.00000000000E+00 -0.00000000000E+00 -0.60496543911E+03  0.60496543911E+03  0.00000000000E+00 0.  1.
    9000007    1    1    2  501    0 -0.12440620232E+03  0.62192060226E+03  0.20521305782E+03  0.77741529300E+03  0.40000000000E+03 0.  1.
   -9000007    1    1    2    0  502  0.12440620232E+03 -0.62192060226E+03  0.12196748431E+03  0.75969612735E+03  0.40000000000E+03 0.  1.
<mgrwt>
<rscale>  2 0.74984141E+03</rscale>
<asrwt>0</asrwt>
<pdfrwt beam="1">  1       21 0.14340707E+00 0.74984141E+03</pdfrwt>
<pdfrwt beam="2">  1       21 0.93071606E-01 0.74984141E+03</pdfrwt>
<totfact> 0.24038853E+02</totfact>
</mgrwt>
</event>
<event>
 4    1  0.4758602E-002  0.4868365E+03  0.7818608E-02  0.1017273E+00
         21   -1    0    0  501  502  0.00000000000E+00  0.00000000000E+00  0.67132255472E+03  0.67132255472E+03  0.00000000000E+00 0.  1.
         21   -1    0    0  502  503 -0.00000000000E+00 -0.00000000000E+00 -0.44849751477E+03  0.44849751477E+03  0.00000000000E+00 0.  1.
    9000007    1    1    2  501    0  0.26987526949E+03 -0.64630903579E+02  0.36971145820E+03  0.61130710540E+03  0.40000000000E+03 0.  1.
   -9000007    1    1    2    0  503 -0.26987526949E+03  0.64630903579E+02 -0.14688641825E+03  0.50851296409E+03  0.40000000000E+03 0.  1.
<mgrwt>
<rscale>  2 0.48683654E+03</rscale>
<asrwt>0</asrwt>
<pdfrwt beam="1">  1       21 0.10328039E+00 0.48683654E+03</pdfrwt>
<pdfrwt beam="2">  1       21 0.68999618E-01 0.48683654E+03</pdfrwt>
<totfact> 0.12236810E+03</totfact>
</mgrwt>
</event>
<event>
 4    1  0.4758602E-002  0.4682710E+03  0.7818608E-02  0.1022409E+00
         21   -1    0    0  503  502  0.00000000000E+00  0.00000000000E+00  0.68200979391E+03  0.68200979391E+03  0.00000000000E+00 0.  1.
         21   -1    0    0  501  503 -0.00000000000E+00 -0.00000000000E+00 -0.52220269160E+03  0.52220269160E+03  0.00000000000E+00 0. -1.
    9000007    1    1    2  501    0 -0.55637765324E+02  0.23702787785E+03  0.45316378998E+03  0.65164038884E+03  0.40000000000E+03 0.  1.
   -9000007    1    1    2    0  502  0.55637765324E+02 -0.23702787785E+03 -0.29335668768E+03  0.55257209667E+03  0.40000000000E+03 0. -1.
<mgrwt>
<rscale>  2 0.46827105E+03</rscale>
<asrwt>0</asrwt>
<pdfrwt beam="1">  1       21 0.10492458E+00 0.46827105E+03</pdfrwt>
<pdfrwt beam="2">  1       21 0.80338875E-01 0.46827105E+03</pdfrwt>
<totfact> 0.83787550E+02</totfact>
</mgrwt>
</event>
<event>
 4    1  0.4758602E-002  0.4110093E+03  0.7818608E-02  0.1040033E+00
         21   -1    0    0  503  502  0.00000000000E+00  0.00000000000E+00  0.10640940372E+04  0.10640940372E+04  0.00000000000E+00 0.  1.
         21   -1    0    0  501  503 -0.00000000000E+00 -0.00000000000E+00 -0.17440060407E+03  0.17440060407E+03  0.00000000000E+00 0.  1.
    9000007    1    1    2  501    0 -0.86779426324E+02  0.37389779144E+02  0.25936249282E+03  0.48600161224E+03  0.40000000000E+03 0.  1.
   -9000007    1    1    2    0  502  0.86779426324E+02 -0.37389779144E+02  0.63033094028E+03  0.75249302900E+03  0.40000000000E+03 0.  1.
<mgrwt>
<rscale>  2 0.41100932E+03</rscale>
<asrwt>0</asrwt>
<pdfrwt beam="1">  1       21 0.16370677E+00 0.41100932E+03</pdfrwt>
<pdfrwt beam="2">  1       21 0.26830863E-01 0.41100932E+03</pdfrwt>
<totfact> 0.27291000E+03</totfact>
</mgrwt>
</event>
<event>
 4    1  0.4758602E-002  0.4378563E+03  0.7818608E-02  0.1031407E+00
         21   -1    0    0  501  502  0.00000000000E+00  0.00000000000E+00  0.63813005478E+03  0.63813005478E+03  0.00000000000E+00 0.  1.
         21   -1    0    0  502  503 -0.00000000000E+00 -0.00000000000E+00 -0.37470744894E+03  0.37470744894E+03  0.00000000000E+00 0.  1.
    9000007    1    1    2  501    0  0.65380059454E+02 -0.16566094634E+03  0.35717188420E+03  0.56505739194E+03  0.40000000000E+03 0.  1.
   -9000007    1    1    2    0  503 -0.65380059454E+02  0.16566094634E+03 -0.93749278366E+02  0.44778011179E+03  0.40000000000E+03 0.  1.
<mgrwt>
<rscale>  2 0.43785626E+03</rscale>
<asrwt>0</asrwt>
<pdfrwt beam="1">  1       21 0.98173854E-01 0.43785626E+03</pdfrwt>
<pdfrwt beam="2">  1       21 0.57647300E-01 0.43785626E+03</pdfrwt>
<totfact> 0.20995957E+03</totfact>
</mgrwt>
</event>
<event>
 4    1  0.4758602E-002  0.4009842E+03  0.7818608E-02  0.1043439E+00
         21   -1    0    0  503  502  0.00000000000E+00  0.00000000000E+00  0.19954546526E+03  0.19954546526E+03  0.00000000000E+00 0. -1.
         21   -1    0    0  501  503 -0.00000000000E+00 -0.00000000000E+00 -0.84689567467E+03  0.84689567467E+03  0.00000000000E+00 0. -1.
    9000007    1    1    2  501    0  0.26685375423E+02  0.87298358052E+01 -0.43897032236E+03  0.59454458471E+03  0.40000000000E+03 0.  1.
   -9000007    1    1    2    0  502 -0.26685375423E+02 -0.87298358052E+01 -0.20837988704E+03  0.45189655522E+03  0.40000000000E+03 0.  1.
<mgrwt>
<rscale>  2 0.40098419E+03</rscale>
<asrwt>0</asrwt>
<pdfrwt beam="1">  1       21 0.30699302E-01 0.40098419E+03</pdfrwt>
<pdfrwt beam="2">  1       21 0.13029165E+00 0.40098419E+03</pdfrwt>
<totfact> 0.38807479E+03</totfact>
</mgrwt>
</event>
<event>
 4    1  0.4758602E-002  0.6890838E+03  0.7818608E-02  0.9736085E-01
         21   -1    0    0  503  502  0.00000000000E+00  0.00000000000E+00  0.86166563654E+03  0.86166563654E+03  0.00000000000E+00 0. -1.
         21   -1    0    0  501  503 -0.00000000000E+00 -0.00000000000E+00 -0.58038429607E+03  0.58038429607E+03  0.00000000000E+00 0.  1.
    9000007    1    1    2  501    0 -0.33287713870E+03 -0.45169600825E+03 -0.21408213251E+02  0.68941626390E+03  0.40000000000E+03 0.  1.
   -9000007    1    1    2    0  502  0.33287713870E+03  0.45169600825E+03  0.30268955372E+03  0.75263366871E+03  0.40000000000E+03 0. -1.
<mgrwt>
<rscale>  2 0.68908379E+03</rscale>
<asrwt>0</asrwt>
<pdfrwt beam="1">  1       21 0.13256395E+00 0.68908379E+03</pdfrwt>
<pdfrwt beam="2">  1       21 0.89289891E-01 0.68908379E+03</pdfrwt>
<totfact> 0.33382362E+02</totfact>
</mgrwt>
</event>
<event>
 4    1  0.4758602E-002  0.5011894E+03  0.7818608E-02  0.1013469E+00
         21   -1    0    0  503  502  0.00000000000E+00  0.00000000000E+00  0.35014214027E+03  0.35014214027E+03  0.00000000000E+00 0.  1.
         21   -1    0    0  501  503 -0.00000000000E+00 -0.00000000000E+00 -0.79421124335E+03  0.79421124335E+03  0.00000000000E+00 0. -1.
    9000007    1    1    2  501    0 -0.29681403916E+02  0.30051591135E+03 -0.39997882357E+03  0.64122839770E+03  0.40000000000E+03 0. -1.
   -9000007    1    1    2    0  502  0.29681403916E+02 -0.30051591135E+03 -0.44090279505E+02  0.50312498592E+03  0.40000000000E+03 0. -1.
<mgrwt>
<rscale>  2 0.50118938E+03</rscale>
<asrwt>0</asrwt>
<pdfrwt beam="1">  1       21 0.53868022E-01 0.50118938E+03</pdfrwt>
<pdfrwt beam="2">  1       21 0.12218634E+00 0.50118938E+03</pdfrwt>
<totfact> 0.13788189E+03</totfact>
</mgrwt>
</event>
<event>
 4    1  0.4758602E-002  0.4272352E+03  0.7818608E-02  0.1034737E+00
         21   -1    0    0  503  502  0.00000000000E+00  0.00000000000E+00  0.51770512092E+03  0.51770512092E+03  0.00000000000E+00 0.  1.
         21   -1    0    0  501  503 -0.00000000000E+00 -0.00000000000E+00 -0.88625916165E+03  0.88625916165E+03  0.00000000000E+00 0.  1.
    9000007    1    1    2  501    0 -0.14305270028E+03 -0.45451891238E+02 -0.72901518055E+03  0.84498111396E+03  0.40000000000E+03 0.  1.
   -9000007    1    1    2    0  502  0.14305270028E+03  0.45451891238E+02  0.36046113982E+03  0.55898316862E+03  0.40000000000E+03 0.  1.
<mgrwt>
<rscale>  2 0.42723524E+03</rscale>
<asrwt>0</asrwt>
<pdfrwt beam="1">  1       21 0.79646942E-01 0.42723524E+03</pdfrwt>
<pdfrwt beam="2">  1       21 0.13634756E+00 0.42723524E+03</pdfrwt>
<totfact> 0.44782961E+02</totfact>
</mgrwt>
</event>
<event>
 4    1  0.4758602E-002  0.4177710E+03  0.7818608E-02  0.1037794E+00
         21   -1    0    0  501  502  0.00000000000E+00  0.00000000000E+00  0.24856368063E+03  0.24856368063E+03  0.00000000000E+00 0.  1.
         21   -1    0    0  502  503 -0.00000000000E+00 -0.00000000000E+00 -0.70216519593E+03  0.70216519593E+03  0.00000000000E+00 0.  1.
    9000007    1    1    2  501    0 -0.80745652556E+02  0.89513926720E+02 -0.22725877558E+03  0.47558296286E+03  0.40000000000E+03 0.  1.
   -9000007    1    1    2    0  503  0.80745652556E+02 -0.89513926720E+02 -0.22634273972E+03  0.47514591370E+03  0.40000000000E+03 0.  1.
<mgrwt>
<rscale>  2 0.41777099E+03</rscale>
<asrwt>0</asrwt>
<pdfrwt beam="1">  1       21 0.38240566E-01 0.41777099E+03</pdfrwt>
<pdfrwt beam="2">  1       21 0.10802541E+00 0.41777099E+03</pdfrwt>
<totfact> 0.39752769E+03</totfact>
</mgrwt>
</event>
<event>
 4    1  0.4758602E-002  0.4975270E+03  0.7818608E-02  0.1014426E+00
         21   -1    0    0  501  502  0.00000000000E+00  0.00000000000E+00  0.40554602006E+03  0.40554602006E+03  0.00000000000E+00 0.  1.
         21   -1    0    0  502  503 -0.00000000000E+00 -0.00000000000E+00 -0.75601866540E+03  0.75601866540E+03  0.00000000000E+00 0.  1.
    9000007    1    1    2  501    0 -0.71768278041E+02  0.28702342788E+03  0.79681596401E+02  0.50386733441E+03  0.40000000000E+03 0.  1.
   -9000007    1    1    2    0  503  0.71768278041E+02 -0.28702342788E+03 -0.43015424174E+03  0.65769735105E+03  0.40000000000E+03 0.  1.
<mgrwt>
<rscale>  2 0.49752702E+03</rscale>
<asrwt>0</asrwt>
<pdfrwt beam="1">  1       21 0.62391696E-01 0.49752702E+03</pdfrwt>
<pdfrwt beam="2">  1       21 0.11631056E+00 0.49752702E+03</pdfrwt>
<totfact> 0.11354997E+03</totfact>
</mgrwt>
</event>
<event>
 4    1  0.4758602E-002  0.4067648E+03  0.7818608E-02  0.1041462E+00
         21   -1    0    0  503  502  0.00000000000E+00  0.00000000000E+00  0.41301528457E+03  0.41301528457E+03  0.00000000000E+00 0.  1.
         21   -1    0    0  501  503 -0.00000000000E+00 -0.00000000000E+00 -0.49307384964E+03  0.49307384964E+03  0.00000000000E+00 0.  1.
    9000007    1    1    2  501    0 -0.17842950005E+02 -0.71688598471E+02 -0.23621769630E+03  0.47037902383E+03  0.40000000000E+03 0.  1.
   -9000007    1    1    2    0  502  0.17842950005E+02  0.71688598471E+02  0.15615913123E+03  0.43571011037E+03  0.40000000000E+03 0.  1.
<mgrwt>
<rscale>  2 0.40676483E+03</rscale>
<asrwt>0</asrwt>
<pdfrwt beam="1">  1       21 0.63540813E-01 0.40676483E+03</pdfrwt>
<pdfrwt beam="2">  1       21 0.75857515E-01 0.40676483E+03</pdfrwt>
<totfact> 0.31424550E+03</totfact>
</mgrwt>
</event>
<event>
 4    1  0.4758602E-002  0.5548628E+03  0.7818608E-02  0.1000375E+00
         21   -1    0    0  503  502  0.00000000000E+00  0.00000000000E+00  0.47931854917E+03  0.47931854917E+03  0.00000000000E+00 0.  1.
         21   -1    0    0  501  503 -0.00000000000E+00 -0.00000000000E+00 -0.64268554412E+03  0.64268554412E+03  0.00000000000E+00 0. -1.
    9000007    1    1    2  501    0 -0.18273450116E+03 -0.33835013528E+03 -0.68183332573E+02  0.55903638415E+03  0.40000000000E+03 0.  1.
   -9000007    1    1    2    0  502  0.18273450116E+03  0.33835013528E+03 -0.95183662373E+02  0.56296770915E+03  0.40000000000E+03 0.  1.
<mgrwt>
<rscale>  2 0.55486279E+03</rscale>
<asrwt>0</asrwt>
<pdfrwt beam="1">  1       21 0.73741315E-01 0.55486279E+03</pdfrwt>
<pdfrwt beam="2">  1       21 0.98874699E-01 0.55486279E+03</pdfrwt>
<totfact> 0.11439487E+03</totfact>
</mgrwt>
</event>
<event>
 4    1  0.4758602E-002  0.4795704E+03  0.7818608E-02  0.1019253E+00
         21   -1    0    0  503  502  0.00000000000E+00  0.00000000000E+00  0.82035817627E+03  0.82035817627E+03  0.00000000000E+00 0. -1.
         21   -1    0    0  501  503 -0.00000000000E+00 -0.00000000000E+00 -0.49636900450E+03  0.49636900450E+03  0.00000000000E+00 0.  1.
    9000007    1    1    2  501    0 -0.24337657455E+03  0.10370938493E+03  0.59631375094E+03  0.76523060781E+03  0.40000000000E+03 0. -1.
   -9000007    1    1    2    0  502  0.24337657455E+03 -0.10370938493E+03 -0.27232457917E+03  0.55149657296E+03  0.40000000000E+03 0.  1.
<mgrwt>
<rscale>  2 0.47957043E+03</rscale>
<asrwt>0</asrwt>
<pdfrwt beam="1">  1       21 0.12620895E+00 0.47957043E+03</pdfrwt>
<pdfrwt beam="2">  1       21 0.76364462E-01 0.47957043E+03</pdfrwt>
<totfact> 0.58898361E+02</totfact>
</mgrwt>
</event>
<event>
 4    1  0.4758602E-002  0.4500767E+03  0.7818608E-02  0.1027699E+00
         21   -1    0    0  503  502  0.00000000000E+00  0.00000000000E+00  0.46599364860E+03  0.46599364860E+03  0.00000000000E+00 0.  1.
         21   -1    0    0  501  503 -0.00000000000E+00 -0.00000000000E+00 -0.44309985172E+03  0.44309985172E+03  0.00000000000E+00 0.  1.
    9000007    1    1    2  501    0  0.32933714878E+02 -0.20367730445E+03  0.74017862990E+02  0.45612248132E+03  0.40000000000E+03 0.  1.
   -9000007    1    1    2    0  502 -0.32933714878E+02  0.20367730445E+03 -0.51124066114E+02  0.45297101901E+03  0.40000000000E+03 0.  1.
<mgrwt>
<rscale>  2 0.45007674E+03</rscale>
<asrwt>0</asrwt>
<pdfrwt beam="1">  1       21 0.71691331E-01 0.45007674E+03</pdfrwt>
<pdfrwt beam="2">  1       21 0.68169208E-01 0.45007674E+03</pdfrwt>
<totfact> 0.30067224E+03</totfact>
</mgrwt>
</event>
<event>
 4    1  0.4758602E-002  0.5710736E+03  0.7818608E-02  0.9967306E-01
         21   -1    0    0  503  502  0.00000000000E+00  0.00000000000E+00  0.88720253692E+03  0.88720253692E+03  0.00000000000E+00 0.  1.
         21   -1    0    0  501  503 -0.00000000000E+00 -0.00000000000E+00 -0.48493178590E+03  0.48493178590E+03  0.00000000000E+00 0.  1.
    9000007    1    1    2  501    0 -0.27861496984E+03 -0.29748736944E+03 -0.13635103608E+03  0.58712574584E+03  0.40000000000E+03 0.  1.
   -9000007    1    1    2    0  502  0.27861496984E+03  0.29748736944E+03  0.53862178710E+03  0.78500857698E+03  0.40000000000E+03 0.  1.
<mgrwt>
<rscale>  2 0.57107358E+03</rscale>
<asrwt>0</asrwt>
<pdfrwt beam="1">  1       21 0.13649270E+00 0.57107358E+03</pdfrwt>
<pdfrwt beam="2">  1       21 0.74604890E-01 0.57107358E+03</pdfrwt>
<totfact> 0.48887689E+02</totfact>
</mgrwt>
</event>
<event>
 4    1  0.4758602E-002  0.4324282E+03  0.7818608E-02  0.1033096E+00
         21   -1    0    0  501  502  0.00000000000E+00  0.00000000000E+00  0.67392395183E+03  0.67392395183E+03  0.00000000000E+00 0. -1.
         21   -1    0    0  502  503 -0.00000000000E+00 -0.00000000000E+00 -0.33036299732E+03  0.33036299732E+03  0.00000000000E+00 0. -1.
    9000007    1    1    2  501    0  0.15030918376E+03  0.66342370985E+02  0.37270284032E+03  0.57087789246E+03  0.40000000000E+03 0. -1.
   -9000007    1    1    2    0  503 -0.15030918376E+03 -0.66342370985E+02 -0.29141885811E+02  0.43340905669E+03  0.40000000000E+03 0. -1.
<mgrwt>
<rscale>  2 0.43242821E+03</rscale>
<asrwt>0</asrwt>
<pdfrwt beam="1">  1       21 0.10368061E+00 0.43242821E+03</pdfrwt>
<pdfrwt beam="2">  1       21 0.50825077E-01 0.43242821E+03</pdfrwt>
<totfact> 0.24156766E+03</totfact>
</mgrwt>
</event>
<event>
 4    1  0.4758602E-002  0.4145862E+03  0.7818608E-02  0.1038843E+00
         21   -1    0    0  503  502  0.00000000000E+00  0.00000000000E+00  0.42197299628E+03  0.42197299628E+03  0.00000000000E+00 0. -1.
         21   -1    0    0  501  503 -0.00000000000E+00 -0.00000000000E+00 -0.80012149599E+03  0.80012149599E+03  0.00000000000E+00 0. -1.
    9000007    1    1    2  501    0  0.79175005557E+02  0.74920457402E+02 -0.61720706924E+03  0.74352291340E+03  0.40000000000E+03 0. -1.
   -9000007    1    1    2    0  502 -0.79175005557E+02 -0.74920457402E+02  0.23905856953E+03  0.47857157887E+03  0.40000000000E+03 0. -1.
<mgrwt>
<rscale>  2 0.41458625E+03</rscale>
<asrwt>0</asrwt>
<pdfrwt beam="1">  1       21 0.64918923E-01 0.41458625E+03</pdfrwt>
<pdfrwt beam="2">  1       21 0.12309561E+00 0.41458625E+03</pdfrwt>
<totfact> 0.93175770E+02</totfact>
</mgrwt>
</event>
<event>
 4    1  0.4758602E-002  0.7336090E+03  0.7818608E-02  0.9661422E-01
         21   -1    0    0  501  502  0.00000000000E+00  0.00000000000E+00  0.27489052880E+04  0.27489052880E+04  0.00000000000E+00 0. -1.
         21   -1    0    0  502  503 -0.00000000000E+00 -0.00000000000E+00 -0.23143308096E+03  0.23143308096E+03  0.00000000000E+00 0.  1.
    9000007    1    1    2  501    0  0.41428702022E+03 -0.45447606286E+03  0.18436177039E+04  0.19842148232E+04  0.40000000000E+03 0. -1.
   -9000007    1    1    2    0  503 -0.41428702022E+03  0.45447606286E+03  0.67385450318E+03  0.99612354570E+03  0.40000000000E+03 0.  1.
<mgrwt>
<rscale>  2 0.73360904E+03</rscale>
<asrwt>0</asrwt>
<pdfrwt beam="1">  1       21 0.42290848E+00 0.73360904E+03</pdfrwt>
<pdfrwt beam="2">  1       21 0.35605091E-01 0.73360904E+03</pdfrwt>
<totfact> 0.29723241E+01</totfact>
</mgrwt>
</event>
<event>
 4    1  0.4758602E-002  0.4219167E+03  0.7818608E-02  0.1036444E+00
         21   -1    0    0  501  502  0.00000000000E+00  0.00000000000E+00  0.11245865784E+04  0.11245865784E+04  0.00000000000E+00 0. -1.
         21   -1    0    0  502  503 -0.00000000000E+00 -0.00000000000E+00 -0.24234500345E+03  0.24234500345E+03  0.00000000000E+00 0. -1.
    9000007    1    1    2  501    0 -0.27551105242E+02 -0.13135685562E+03  0.84362916320E+03  0.94325174366E+03  0.40000000000E+03 0. -1.
   -9000007    1    1    2    0  503  0.27551105242E+02  0.13135685562E+03  0.38612411704E+02  0.42367983815E+03  0.40000000000E+03 0. -1.
<mgrwt>
<rscale>  2 0.42191668E+03</rscale>
<asrwt>0</asrwt>
<pdfrwt beam="1">  1       21 0.17301332E+00 0.42191668E+03</pdfrwt>
<pdfrwt beam="2">  1       21 0.37283847E-01 0.42191668E+03</pdfrwt>
<totfact> 0.12043143E+03</totfact>
</mgrwt>
</event>
<event>
 4    1  0.4758602E-002  0.4085495E+03  0.7818608E-02  0.1040859E+00
         21   -1    0    0  501  502  0.00000000000E+00  0.00000000000E+00  0.14820409286E+03  0.14820409286E+03  0.00000000000E+00 0.  1.
         21   -1    0    0  502  503 -0.00000000000E+00 -0.00000000000E+00 -0.12071143662E+04  0.12071143662E+04  0.00000000000E+00 0.  1.
    9000007    1    1    2  501    0 -0.62378456221E+02  0.54969361869E+02 -0.70486532785E+03  0.81470720688E+03  0.40000000000E+03 0. -1.
   -9000007    1    1    2    0  503  0.62378456221E+02 -0.54969361869E+02 -0.35404494546E+03  0.54061125215E+03  0.40000000000E+03 0. -1.
<mgrwt>
<rscale>  2 0.40854951E+03</rscale>
<asrwt>0</asrwt>
<pdfrwt beam="1">  1       21 0.22800629E-01 0.40854951E+03</pdfrwt>
<pdfrwt beam="2">  1       21 0.18570991E+00 0.40854951E+03</pdfrwt>
<totfact> 0.26081742E+03</totfact>
</mgrwt>
</event>
<event>
 4    1  0.4758602E-002  0.4543073E+03  0.7818608E-02  0.1026445E+00
         21   -1    0    0  503  502  0.00000000000E+00  0.00000000000E+00  0.58460766268E+02  0.58460766268E+02  0.00000000000E+00 0. -1.
         21   -1    0    0  501  503 -0.00000000000E+00 -0.00000000000E+00 -0.40679827866E+04  0.40679827866E+04  0.00000000000E+00 0.  1.
    9000007    1    1    2  501    0 -0.91999193033E+02  0.19475942424E+03 -0.27547297039E+04  0.27919403336E+04  0.40000000000E+03 0.  1.
   -9000007    1    1    2    0  502  0.91999193033E+02 -0.19475942424E+03 -0.12547923164E+04  0.13345032192E+04  0.40000000000E+03 0. -1.
<mgrwt>
<rscale>  2 0.45430726E+03</rscale>
<asrwt>0</asrwt>
<pdfrwt beam="1">  1       21 0.89939648E-02 0.45430726E+03</pdfrwt>
<pdfrwt beam="2">  1       21 0.62584345E+00 0.45430726E+03</pdfrwt>
<totfact> 0.15437536E+01</totfact>
</mgrwt>
</event>
<event>
 4    1  0.4758602E-002  0.4271067E+03  0.7818608E-02  0.1034778E+00
         21   -1    0    0  503  502  0.00000000000E+00  0.00000000000E+00  0.49681215701E+03  0.49681215701E+03  0.00000000000E+00 0.  1.
         21   -1    0    0  501  503 -0.00000000000E+00 -0.00000000000E+00 -0.62181984452E+03  0.62181984452E+03  0.00000000000E+00 0.  1.
    9000007    1    1    2  501    0  0.14430442386E+03 -0.39954418986E+02 -0.42042473307E+03  0.59931383975E+03  0.40000000000E+03 0.  1.
   -9000007    1    1    2    0  502 -0.14430442386E+03  0.39954418986E+02  0.29541704556E+03  0.51931816177E+03  0.40000000000E+03 0.  1.
<mgrwt>
<rscale>  2 0.42710669E+03</rscale>
<asrwt>0</asrwt>
<pdfrwt beam="1">  1       21 0.76432640E-01 0.42710669E+03</pdfrwt>
<pdfrwt beam="2">  1       21 0.95664591E-01 0.42710669E+03</pdfrwt>
<totfact> 0.11966448E+03</totfact>
</mgrwt>
</event>
<event>
 4    1  0.4758602E-002  0.4210059E+03  0.7818608E-02  0.1036739E+00
         21   -1    0    0  501  502  0.00000000000E+00  0.00000000000E+00  0.41100527758E+03  0.41100527758E+03  0.00000000000E+00 0. -1.
         21   -1    0    0  502  503 -0.00000000000E+00 -0.00000000000E+00 -0.44794419925E+03  0.44794419925E+03  0.00000000000E+00 0. -1.
    9000007    1    1    2  501    0 -0.10740869042E+03  0.75559923927E+02  0.64441420909E+02  0.42590917531E+03  0.40000000000E+03 0.  1.
   -9000007    1    1    2    0  503  0.10740869042E+03 -0.75559923927E+02 -0.10138034258E+03  0.43304030152E+03  0.40000000000E+03 0.  1.
<mgrwt>
<rscale>  2 0.42100585E+03</rscale>
<asrwt>0</asrwt>
<pdfrwt beam="1">  1       21 0.63231581E-01 0.42100585E+03</pdfrwt>
<pdfrwt beam="2">  1       21 0.68914493E-01 0.42100585E+03</pdfrwt>
<totfact> 0.39254082E+03</totfact>
</mgrwt>
</event>
<event>
 4    1  0.4758602E-002  0.5331948E+03  0.7818608E-02  0.1005460E+00
         21   -1    0    0  501  502  0.00000000000E+00  0.00000000000E+00  0.88149271928E+03  0.88149271928E+03  0.00000000000E+00 0.  1.
         21   -1    0    0  502  503 -0.00000000000E+00 -0.00000000000E+00 -0.11720031827E+04  0.11720031827E+04  0.00000000000E+00 0.  1.
    9000007    1    1    2  501    0 -0.17316192698E+03 -0.30710200176E+03  0.72887777747E+03  0.90308333333E+03  0.40000000000E+03 0.  1.
   -9000007    1    1    2    0  503  0.17316192698E+03  0.30710200176E+03 -0.10193882409E+04  0.11504125686E+04  0.40000000000E+03 0.  1.
<mgrwt>
<rscale>  2 0.53319480E+03</rscale>
<asrwt>0</asrwt>
<pdfrwt beam="1">  1       21 0.13561427E+00 0.53319480E+03</pdfrwt>
<pdfrwt beam="2">  1       21 0.18030818E+00 0.53319480E+03</pdfrwt>
<totfact> 0.52848098E+01</totfact>
</mgrwt>
</event>
<event>
 4    1  0.4758602E-002  0.4067061E+03  0.7818608E-02  0.1041482E+00
         21   -1    0    0  501  502  0.00000000000E+00  0.00000000000E+00  0.10657009701E+04  0.10657009701E+04  0.00000000000E+00 0.  1.
         21   -1    0    0  502  503 -0.00000000000E+00 -0.00000000000E+00 -0.78814798875E+03  0.78814798875E+03  0.00000000000E+00 0.  1.
    9000007    1    1    2  501    0  0.45464960254E+02  0.57816664469E+02  0.96943071968E+03  0.10512876626E+04  0.40000000000E+03 0.  1.
   -9000007    1    1    2    0  503 -0.45464960254E+02 -0.57816664469E+02 -0.69187773837E+03  0.80256129620E+03  0.40000000000E+03 0.  1.
<mgrwt>
<rscale>  2 0.40670607E+03</rscale>
<asrwt>0</asrwt>
<pdfrwt beam="1">  1       21 0.16395400E+00 0.40670607E+03</pdfrwt>
<pdfrwt beam="2">  1       21 0.12125354E+00 0.40670607E+03</pdfrwt>
<totfact> 0.99552238E+01</totfact>
</mgrwt>
</event>
<event>
 4    1  0.4758602E-002  0.4510391E+03  0.7818608E-02  0.1027413E+00
         21   -1    0    0  501  502  0.00000000000E+00  0.00000000000E+00  0.10007099789E+03  0.10007099789E+03  0.00000000000E+00 0.  1.
         21   -1    0    0  502  503 -0.00000000000E+00 -0.00000000000E+00 -0.20335195574E+04  0.20335195574E+04  0.00000000000E+00 0. -1.
    9000007    1    1    2  501    0  0.32239182893E+02  0.20590502619E+03 -0.98505550984E+03  0.10834069421E+04  0.40000000000E+03 0. -1.
   -9000007    1    1    2    0  503 -0.32239182893E+02 -0.20590502619E+03 -0.94839304963E+03  0.10501836131E+04  0.40000000000E+03 0. -1.
<mgrwt>
<rscale>  2 0.45103907E+03</rscale>
<asrwt>0</asrwt>
<pdfrwt beam="1">  1       21 0.15395540E-01 0.45103907E+03</pdfrwt>
<pdfrwt beam="2">  1       21 0.31284913E+00 0.45103907E+03</pdfrwt>
<totfact> 0.86309833E+02</totfact>
</mgrwt>
</event>
<event>
 4    1  0.4758602E-002  0.4053148E+03  0.7818608E-02  0.1041955E+00
         21   -1    0    0  501  502  0.00000000000E+00  0.00000000000E+00  0.92683254353E+02  0.92683254353E+02  0.00000000000E+00 0.  1.
         21   -1    0    0  502  503 -0.00000000000E+00 -0.00000000000E+00 -0.20452650610E+04  0.20452650610E+04  0.00000000000E+00 0.  1.
    9000007    1    1    2  501    0 -0.37753121486E+02  0.53430501515E+02 -0.58590425965E+03  0.71243520277E+03  0.40000000000E+03 0.  1.
   -9000007    1    1    2    0  503  0.37753121486E+02 -0.53430501515E+02 -0.13666775470E+04  0.14255131126E+04  0.40000000000E+03 0.  1.
<mgrwt>
<rscale>  2 0.40531484E+03</rscale>
<asrwt>0</asrwt>
<pdfrwt beam="1">  1       21 0.14258963E-01 0.40531484E+03</pdfrwt>
<pdfrwt beam="2">  1       21 0.31465614E+00 0.40531484E+03</pdfrwt>
<totfact> 0.99622281E+02</totfact>
</mgrwt>
</event>
<event>
 4    1  0.4758602E-002  0.4183003E+03  0.7818608E-02  0.1037621E+00
         21   -1    0    0  503  502  0.00000000000E+00  0.00000000000E+00  0.28639489266E+03  0.28639489266E+03  0.00000000000E+00 0. -1.
         21   -1    0    0  501  503 -0.00000000000E+00 -0.00000000000E+00 -0.65661193734E+03  0.65661193734E+03  0.00000000000E+00 0. -1.
    9000007    1    1    2  501    0  0.65421799531E+02 -0.10341711386E+03 -0.30943736535E+03  0.52031393828E+03  0.40000000000E+03 0. -1.
   -9000007    1    1    2    0  502 -0.65421799531E+02  0.10341711386E+03 -0.60779679337E+02  0.42269289172E+03  0.40000000000E+03 0. -1.
<mgrwt>
<rscale>  2 0.41830026E+03</rscale>
<asrwt>0</asrwt>
<pdfrwt beam="1">  1       21 0.44060752E-01 0.41830026E+03</pdfrwt>
<pdfrwt beam="2">  1       21 0.10101722E+00 0.41830026E+03</pdfrwt>
<totfact> 0.34972623E+03</totfact>
</mgrwt>
</event>
<event>
 4    1  0.4758602E-002  0.5772443E+03  0.7818608E-02  0.9953775E-01
         21   -1    0    0  503  502  0.00000000000E+00  0.00000000000E+00  0.89344732083E+03  0.89344732083E+03  0.00000000000E+00 0. -1.
         21   -1    0    0  501  503 -0.00000000000E+00 -0.00000000000E+00 -0.38265975386E+03  0.38265975386E+03  0.00000000000E+00 0.  1.
    9000007    1    1    2  501    0  0.41303048586E+03 -0.51154527477E+02  0.15375484912E+03  0.59737050610E+03  0.40000000000E+03 0. -1.
   -9000007    1    1    2    0  502 -0.41303048586E+03  0.51154527477E+02  0.35703271786E+03  0.67873656859E+03  0.40000000000E+03 0.  1.
<mgrwt>
<rscale>  2 0.57724429E+03</rscale>
<asrwt>0</asrwt>
<pdfrwt beam="1">  1       21 0.13745343E+00 0.57724429E+03</pdfrwt>
<pdfrwt beam="2">  1       21 0.58870732E-01 0.57724429E+03</pdfrwt>
<totfact> 0.81448080E+02</totfact>
</mgrwt>
</event>
<event>
 4    1  0.4758602E-002  0.4160480E+03  0.7818608E-02  0.1038360E+00
         21   -1    0    0  501  502  0.00000000000E+00  0.00000000000E+00  0.30430909068E+03  0.30430909068E+03  0.00000000000E+00 0. -1.
         21   -1    0    0  502  503 -0.00000000000E+00 -0.00000000000E+00 -0.57056470930E+03  0.57056470930E+03  0.00000000000E+00 0. -1.
    9000007    1    1    2  501    0  0.31816501682E+02  0.10992550971E+03 -0.15734425785E+03  0.44480683779E+03  0.40000000000E+03 0. -1.
   -9000007    1    1    2    0  503 -0.31816501682E+02 -0.10992550971E+03 -0.10891136077E+03  0.43006696219E+03  0.40000000000E+03 0. -1.
<mgrwt>
<rscale>  2 0.41604796E+03</rscale>
<asrwt>0</asrwt>
<pdfrwt beam="1">  1       21 0.46816783E-01 0.41604796E+03</pdfrwt>
<pdfrwt beam="2">  1       21 0.87779186E-01 0.41604796E+03</pdfrwt>
<totfact> 0.43115321E+03</totfact>
</mgrwt>
</event>
<event>
 4    1  0.4758602E-002  0.5563789E+03  0.7818608E-02  0.1000028E+00
         21   -1    0    0  503  502  0.00000000000E+00  0.00000000000E+00  0.11472025553E+04  0.11472025553E+04  0.00000000000E+00 0.  1.
         21   -1    0    0  501  503 -0.00000000000E+00 -0.00000000000E+00 -0.31969215401E+03  0.31969215401E+03  0.00000000000E+00 0. -1.
    9000007    1    1    2  501    0  0.51936037891E+02  0.38322335898E+03  0.70339534272E+03  0.89684028849E+03  0.40000000000E+03 0.  1.
   -9000007    1    1    2    0  502 -0.51936037891E+02 -0.38322335898E+03  0.12411505855E+03  0.57005442079E+03  0.40000000000E+03 0.  1.
<mgrwt>
<rscale>  2 0.55637891E+03</rscale>
<asrwt>0</asrwt>
<pdfrwt beam="1">  1       21 0.17649270E+00 0.55637891E+03</pdfrwt>
<pdfrwt beam="2">  1       21 0.49183409E-01 0.55637891E+03</pdfrwt>
<totfact> 0.60378174E+02</totfact>
</mgrwt>
</event>
<event>
 4    1  0.4758602E-002  0.4517253E+03  0.7818608E-02  0.1027209E+00
         21   -1    0    0  503  502  0.00000000000E+00  0.00000000000E+00  0.55179324197E+03  0.55179324197E+03  0.00000000000E+00 0.  1.
         21   -1    0    0  501  503 -0.00000000000E+00 -0.00000000000E+00 -0.37599475791E+03  0.37599475791E+03  0.00000000000E+00 0.  1.
    9000007    1    1    2  501    0  0.20935350319E+03 -0.15061820460E+02  0.14742080994E+03  0.47517222450E+03  0.40000000000E+03 0.  1.
   -9000007    1    1    2    0  502 -0.20935350319E+03  0.15061820460E+02  0.28377674117E+02  0.45261577538E+03  0.40000000000E+03 0.  1.
<mgrwt>
<rscale>  2 0.45172530E+03</rscale>
<asrwt>0</asrwt>
<pdfrwt beam="1">  1       21 0.84891268E-01 0.45172530E+03</pdfrwt>
<pdfrwt beam="2">  1       21 0.57845347E-01 0.45172530E+03</pdfrwt>
<totfact> 0.29284758E+03</totfact>
</mgrwt>
</event>
<event>
 4    1  0.4758602E-002  0.4069347E+03  0.7818608E-02  0.1041405E+00
         21   -1    0    0  503  502  0.00000000000E+00  0.00000000000E+00  0.80897330565E+03  0.80897330565E+03  0.00000000000E+00 0. -1.
         21   -1    0    0  501  503 -0.00000000000E+00 -0.00000000000E+00 -0.27506049769E+03  0.27506049769E+03  0.00000000000E+00 0. -1.
    9000007    1    1    2  501    0 -0.22725437154E+02  0.71270005710E+02 -0.71801149002E+01  0.40699805068E+03  0.40000000000E+03 0. -1.
   -9000007    1    1    2    0  502  0.22725437154E+02 -0.71270005710E+02  0.54109292286E+03  0.67703575266E+03  0.40000000000E+03 0. -1.
<mgrwt>
<rscale>  2 0.40693471E+03</rscale>
<asrwt>0</asrwt>
<pdfrwt beam="1">  1       21 0.12445743E+00 0.40693471E+03</pdfrwt>
<pdfrwt beam="2">  1       21 0.42317000E-01 0.40693471E+03</pdfrwt>
<totfact> 0.22720185E+03</totfact>
</mgrwt>
</event>
<event>
 4    1  0.4758602E-002  0.4266254E+03  0.7818608E-02  0.1034931E+00
         21   -1    0    0  501  502  0.00000000000E+00  0.00000000000E+00  0.19892967422E+04  0.19892967422E+04  0.00000000000E+00 0.  1.
         21   -1    0    0  502  503 -0.00000000000E+00 -0.00000000000E+00 -0.95977784746E+02  0.95977784746E+02  0.00000000000E+00 0.  1.
    9000007    1    1    2  501    0  0.12200038801E+03  0.84410445811E+02  0.11720097264E+04  0.12472433672E+04  0.40000000000E+03 0.  1.
   -9000007    1    1    2    0  503 -0.12200038801E+03 -0.84410445811E+02  0.72130923101E+03  0.83803115979E+03  0.40000000000E+03 0.  1.
<mgrwt>
<rscale>  2 0.42662538E+03</rscale>
<asrwt>0</asrwt>
<pdfrwt beam="1">  1       21 0.30604562E+00 0.42662538E+03</pdfrwt>
<pdfrwt beam="2">  1       21 0.14765815E-01 0.42662538E+03</pdfrwt>
<totfact> 0.10388388E+03</totfact>
</mgrwt>
</event>
<event>
 4    1  0.4758602E-002  0.7116203E+03  0.7818608E-02  0.9697564E-01
         21   -1    0    0  501  502  0.00000000000E+00  0.00000000000E+00  0.10555643018E+04  0.10555643018E+04  0.00000000000E+00 0.  1.
         21   -1    0    0  502  503 -0.00000000000E+00 -0.00000000000E+00 -0.48347233291E+03  0.48347233291E+03  0.00000000000E+00 0. -1.
    9000007    1    1    2  501    0  0.22063495810E+03  0.54564059956E+03  0.35359756097E+03  0.79462864518E+03  0.40000000000E+03 0. -1.
   -9000007    1    1    2    0  503 -0.22063495810E+03 -0.54564059956E+03  0.21849440796E+03  0.74440798957E+03  0.40000000000E+03 0. -1.
<mgrwt>
<rscale>  2 0.71162030E+03</rscale>
<asrwt>0</asrwt>
<pdfrwt beam="1">  1       21 0.16239451E+00 0.71162030E+03</pdfrwt>
<pdfrwt beam="2">  1       21 0.74380359E-01 0.71162030E+03</pdfrwt>
<totfact> 0.29179048E+02</totfact>
</mgrwt>
</event>
<event>
 4    1  0.4758602E-002  0.5044331E+03  0.7818608E-02  0.1012628E+00
         21   -1    0    0  503  502  0.00000000000E+00  0.00000000000E+00  0.21724185722E+03  0.21724185722E+03  0.00000000000E+00 0. -1.
         21   -1    0    0  501  503 -0.00000000000E+00 -0.00000000000E+00 -0.13556201696E+04  0.13556201696E+04  0.00000000000E+00 0. -1.
    9000007    1    1    2  501    0  0.30632302986E+03 -0.24878831113E+02 -0.85918536952E+03  0.99631935345E+03  0.40000000000E+03 0. -1.
   -9000007    1    1    2    0  502 -0.30632302986E+03  0.24878831113E+02 -0.27919294282E+03  0.57654267334E+03  0.40000000000E+03 0. -1.
<mgrwt>
<rscale>  2 0.50443310E+03</rscale>
<asrwt>0</asrwt>
<pdfrwt beam="1">  1       21 0.33421824E-01 0.50443310E+03</pdfrwt>
<pdfrwt beam="2">  1       21 0.20855695E+00 0.50443310E+03</pdfrwt>
<totfact> 0.82727085E+02</totfact>
</mgrwt>
</event>
<event>
 4    1  0.4758602E-002  0.5079211E+03  0.7818608E-02  0.1011732E+00
         21   -1    0    0  503  502  0.00000000000E+00  0.00000000000E+00  0.78442900455E+03  0.78442900455E+03  0.00000000000E+00 0.  1.
         21   -1    0    0  501  503 -0.00000000000E+00 -0.00000000000E+00 -0.32891692381E+03  0.32891692381E+03  0.00000000000E+00 0.  1.
    9000007    1    1    2  501    0 -0.86392083643E+02 -0.30086591883E+03  0.23356359668E+03  0.55904905592E+03  0.40000000000E+03 0.  1.
   -9000007    1    1    2    0  502  0.86392083643E+02  0.30086591883E+03  0.22194848406E+03  0.55429687245E+03  0.40000000000E+03 0.  1.
<mgrwt>
<rscale>  2 0.50792115E+03</rscale>
<asrwt>0</asrwt>
<pdfrwt beam="1">  1       21 0.12068138E+00 0.50792115E+03</pdfrwt>
<pdfrwt beam="2">  1       21 0.50602604E-01 0.50792115E+03</pdfrwt>
<totfact> 0.16240045E+03</totfact>
</mgrwt>
</event>
<event>
 4    1  0.4758602E-002  0.4034687E+03  0.7818608E-02  0.1042585E+00
         21   -1    0    0  501  502  0.00000000000E+00  0.00000000000E+00  0.57062560499E+03  0.57062560499E+03  0.00000000000E+00 0. -1.
         21   -1    0    0  502  503 -0.00000000000E+00 -0.00000000000E+00 -0.73015938028E+03  0.73015938028E+03  0.00000000000E+00 0. -1.
    9000007    1    1    2  501    0 -0.17678735536E+02  0.49744211116E+02  0.42791155261E+03  0.58812866032E+03  0.40000000000E+03 0. -1.
   -9000007    1    1    2    0  503  0.17678735536E+02 -0.49744211116E+02 -0.58744532789E+03  0.71265632495E+03  0.40000000000E+03 0. -1.
<mgrwt>
<rscale>  2 0.40346874E+03</rscale>
<asrwt>0</asrwt>
<pdfrwt beam="1">  1       21 0.87788554E-01 0.40346874E+03</pdfrwt>
<pdfrwt beam="2">  1       21 0.11233221E+00 0.40346874E+03</pdfrwt>
<totfact> 0.59254980E+02</totfact>
</mgrwt>
</event>
<event>
 4    1  0.4758602E-002  0.4958438E+03  0.7818608E-02  0.1014869E+00
         21   -1    0    0  501  502  0.00000000000E+00  0.00000000000E+00  0.91961729375E+03  0.91961729375E+03  0.00000000000E+00 0. -1.
         21   -1    0    0  502  503 -0.00000000000E+00 -0.00000000000E+00 -0.27003931504E+03  0.27003931504E+03  0.00000000000E+00 0. -1.
    9000007    1    1    2  501    0  0.27694163277E+03  0.95730888021E+02  0.38413303041E+03  0.62723142136E+03  0.40000000000E+03 0. -1.
   -9000007    1    1    2    0  503 -0.27694163277E+03 -0.95730888021E+02  0.26544494830E+03  0.56242518743E+03  0.40000000000E+03 0. -1.
<mgrwt>
<rscale>  2 0.49584380E+03</rscale>
<asrwt>0</asrwt>
<pdfrwt beam="1">  1       21 0.14147958E+00 0.49584380E+03</pdfrwt>
<pdfrwt beam="2">  1       21 0.41544510E-01 0.49584380E+03</pdfrwt>
<totfact> 0.16309958E+03</totfact>
</mgrwt>
</event>
<event>
 4    1  0.4758602E-002  0.4609739E+03  0.7818608E-02  0.1024499E+00
         21   -1    0    0  503  502  0.00000000000E+00  0.00000000000E+00  0.20848219389E+03  0.20848219389E+03  0.00000000000E+00 0.  1.
         21   -1    0    0  501  503 -0.00000000000E+00 -0.00000000000E+00 -0.10472771844E+04  0.10472771844E+04  0.00000000000E+00 0.  1.
    9000007    1    1    2  501    0  0.35517900675E+02 -0.22635243476E+03 -0.31669506551E+03  0.55927874133E+03  0.40000000000E+03 0.  1.
   -9000007    1    1    2    0  502 -0.35517900675E+02  0.22635243476E+03 -0.52209992503E+03  0.69648063699E+03  0.40000000000E+03 0.  1.
<mgrwt>
<rscale>  2 0.46097391E+03</rscale>
<asrwt>0</asrwt>
<pdfrwt beam="1">  1       21 0.32074184E-01 0.46097391E+03</pdfrwt>
<pdfrwt beam="2">  1       21 0.16111957E+00 0.46097391E+03</pdfrwt>
<totfact> 0.19632739E+03</totfact>
</mgrwt>
</event>
<event>
 4    1  0.4758602E-002  0.4180788E+03  0.7818608E-02  0.1037693E+00
         21   -1    0    0  501  502  0.00000000000E+00  0.00000000000E+00  0.40064163738E+03  0.40064163738E+03  0.00000000000E+00 0. -1.
         21   -1    0    0  502  503 -0.00000000000E+00 -0.00000000000E+00 -0.45685851990E+03  0.45685851990E+03  0.00000000000E+00 0. -1.
    9000007    1    1    2  501    0 -0.11005985501E+03 -0.51736555645E+02  0.62898700261E+02  0.42278373830E+03  0.40000000000E+03 0. -1.
   -9000007    1    1    2    0  503  0.11005985501E+03  0.51736555645E+02 -0.11911558278E+03  0.43471641899E+03  0.40000000000E+03 0. -1.
<mgrwt>
<rscale>  2 0.41807875E+03</rscale>
<asrwt>0</asrwt>
<pdfrwt beam="1">  1       21 0.61637175E-01 0.41807875E+03</pdfrwt>
<pdfrwt beam="2">  1       21 0.70285926E-01 0.41807875E+03</pdfrwt>
<totfact> 0.39770652E+03</totfact>
</mgrwt>
</event>
<event>
 4    1  0.4758602E-002  0.4097808E+03  0.7818608E-02  0.1040445E+00
         21   -1    0    0  503  502  0.00000000000E+00  0.00000000000E+00  0.43491648957E+03  0.43491648957E+03  0.00000000000E+00 0.  1.
         21   -1    0    0  501  503 -0.00000000000E+00 -0.00000000000E+00 -0.10350177937E+04  0.10350177937E+04  0.00000000000E+00 0. -1.
    9000007    1    1    2  501    0 -0.45958386250E+02 -0.76210895266E+02 -0.88200593226E+03  0.97255063537E+03  0.40000000000E+03 0. -1.
   -9000007    1    1    2    0  502  0.45958386250E+02  0.76210895266E+02  0.28190462813E+03  0.49738364789E+03  0.40000000000E+03 0.  1.
<mgrwt>
<rscale>  2 0.40978076E+03</rscale>
<asrwt>0</asrwt>
<pdfrwt beam="1">  1       21 0.66910230E-01 0.40978076E+03</pdfrwt>
<pdfrwt beam="2">  1       21 0.15923350E+00 0.40978076E+03</pdfrwt>
<totfact> 0.44117879E+02</totfact>
</mgrwt>
</event>
<event>
 4    1  0.4758602E-002  0.4180940E+03  0.7818608E-02  0.1037688E+00
         21   -1    0    0  503  502  0.00000000000E+00  0.00000000000E+00  0.12616377704E+04  0.12616377704E+04  0.00000000000E+00 0. -1.
         21   -1    0    0  501  503 -0.00000000000E+00 -0.00000000000E+00 -0.15565478429E+03  0.15565478429E+03  0.00000000000E+00 0. -1.
    9000007    1    1    2  501    0 -0.62228205323E+02 -0.10454769467E+03  0.31809294233E+03  0.52534340194E+03  0.40000000000E+03 0. -1.
   -9000007    1    1    2    0  502  0.62228205323E+02  0.10454769467E+03  0.78789004381E+03  0.89194915278E+03  0.40000000000E+03 0. -1.
<mgrwt>
<rscale>  2 0.41809397E+03</rscale>
<asrwt>0</asrwt>
<pdfrwt beam="1">  1       21 0.19409811E+00 0.41809397E+03</pdfrwt>
<pdfrwt beam="2">  1       21 0.23946891E-01 0.41809397E+03</pdfrwt>
<totfact> 0.20709993E+03</totfact>
</mgrwt>
</event>
<event>
 4    1  0.4758602E-002  0.4039683E+03  0.7818608E-02  0.1042414E+00
         21   -1    0    0  501  502  0.00000000000E+00  0.00000000000E+00  0.37852079777E+03  0.37852079777E+03  0.00000000000E+00 0.  1.
         21   -1    0    0  502  503 -0.00000000000E+00 -0.00000000000E+00 -0.62208961095E+03  0.62208961095E+03  0.00000000000E+00 0.  1.
    9000007    1    1    2  501    0  0.49394524759E+02  0.27396342903E+02  0.15540918831E+03  0.43283067647E+03  0.40000000000E+03 0.  1.
   -9000007    1    1    2    0  503 -0.49394524759E+02 -0.27396342903E+02 -0.39897800150E+03  0.56777973225E+03  0.40000000000E+03 0.  1.
<mgrwt>
<rscale>  2 0.40396829E+03</rscale>
<asrwt>0</asrwt>
<pdfrwt beam="1">  1       21 0.58233969E-01 0.40396829E+03</pdfrwt>
<pdfrwt beam="2">  1       21 0.95706093E-01 0.40396829E+03</pdfrwt>
<totfact> 0.22132186E+03</totfact>
</mgrwt>
</event>
<event>
 4    1  0.4758602E-002  0.4684663E+03  0.7818608E-02  0.1022354E+00
         21   -1    0    0  501  502  0.00000000000E+00  0.00000000000E+00  0.39659590976E+03  0.39659590976E+03  0.00000000000E+00 0.  1.
         21   -1    0    0  502  503 -0.00000000000E+00 -0.00000000000E+00 -0.86688083827E+03  0.86688083827E+03  0.00000000000E+00 0. -1.
    9000007    1    1    2  501    0 -0.16468589597E+03 -0.17983121132E+03  0.14477571077E+03  0.49032715132E+03  0.40000000000E+03 0.  1.
   -9000007    1    1    2    0  503  0.16468589597E+03  0.17983121132E+03 -0.61506063928E+03  0.77314959671E+03  0.40000000000E+03 0. -1.
<mgrwt>
<rscale>  2 0.46846634E+03</rscale>
<asrwt>0</asrwt>
<pdfrwt beam="1">  1       21 0.61014756E-01 0.46846634E+03</pdfrwt>
<pdfrwt beam="2">  1       21 0.13336628E+00 0.46846634E+03</pdfrwt>
<totfact> 0.84856340E+02</totfact>
</mgrwt>
</event>
<event>
 4    1  0.4758602E-002  0.4762644E+03  0.7818608E-02  0.1020167E+00
         21   -1    0    0  503  502  0.00000000000E+00  0.00000000000E+00  0.54184161858E+03  0.54184161858E+03  0.00000000000E+00 0.  1.
         21   -1    0    0  501  503 -0.00000000000E+00 -0.00000000000E+00 -0.47808614856E+03  0.47808614856E+03  0.00000000000E+00 0. -1.
    9000007    1    1    2  501    0 -0.21105565513E+03 -0.14927580543E+03  0.21172657854E+03  0.52120619692E+03  0.40000000000E+03 0.  1.
   -9000007    1    1    2    0  502  0.21105565513E+03  0.14927580543E+03 -0.14797110853E+03  0.49872157022E+03  0.40000000000E+03 0. -1.
<mgrwt>
<rscale>  2 0.47626438E+03</rscale>
<asrwt>0</asrwt>
<pdfrwt beam="1">  1       21 0.83360249E-01 0.47626438E+03</pdfrwt>
<pdfrwt beam="2">  1       21 0.73551715E-01 0.47626438E+03</pdfrwt>
<totfact> 0.17745412E+03</totfact>
</mgrwt>
</event>
<event>
 4    1  0.4758602E-002  0.4368222E+03  0.7818608E-02  0.1031726E+00
         21   -1    0    0  501  502  0.00000000000E+00  0.00000000000E+00  0.95857663720E+03  0.95857663720E+03  0.00000000000E+00 0. -1.
         21   -1    0    0  502  503 -0.00000000000E+00 -0.00000000000E+00 -0.20421818901E+03  0.20421818901E+03  0.00000000000E+00 0. -1.
    9000007    1    1    2  501    0 -0.14653863752E+03  0.96644174497E+02  0.28477310902E+03  0.52144931908E+03  0.40000000000E+03 0. -1.
   -9000007    1    1    2    0  503  0.14653863752E+03 -0.96644174497E+02  0.46958533917E+03  0.64134550713E+03  0.40000000000E+03 0. -1.
<mgrwt>
<rscale>  2 0.43682224E+03</rscale>
<asrwt>0</asrwt>
<pdfrwt beam="1">  1       21 0.14747333E+00 0.43682224E+03</pdfrwt>
<pdfrwt beam="2">  1       21 0.31418183E-01 0.43682224E+03</pdfrwt>
<totfact> 0.26335788E+03</totfact>
</mgrwt>
</event>
<event>
 4    1  0.4758602E-002  0.4141031E+03  0.7818608E-02  0.1039003E+00
         21   -1    0    0  503  502  0.00000000000E+00  0.00000000000E+00  0.10416089374E+04  0.10416089374E+04  0.00000000000E+00 0. -1.
         21   -1    0    0  501  503 -0.00000000000E+00 -0.00000000000E+00 -0.16607843349E+03  0.16607843349E+03  0.00000000000E+00 0. -1.
    9000007    1    1    2  501    0  0.10535024358E+03  0.19562353840E+02  0.38139722181E+03  0.56297886312E+03  0.40000000000E+03 0. -1.
   -9000007    1    1    2    0  502 -0.10535024358E+03 -0.19562353840E+02  0.49413328209E+03  0.64470850776E+03  0.40000000000E+03 0. -1.
<mgrwt>
<rscale>  2 0.41410308E+03</rscale>
<asrwt>0</asrwt>
<pdfrwt beam="1">  1       21 0.16024753E+00 0.41410308E+03</pdfrwt>
<pdfrwt beam="2">  1       21 0.25550529E-01 0.41410308E+03</pdfrwt>
<totfact> 0.31826011E+03</totfact>
</mgrwt>
</event>
<event>
 4    1  0.4758602E-002  0.4452970E+03  0.7818608E-02  0.1029134E+00
         21   -1    0    0  503  502  0.00000000000E+00  0.00000000000E+00  0.17894828098E+04  0.17894828098E+04  0.00000000000E+00 0. -1.
         21   -1    0    0  501  503 -0.00000000000E+00 -0.00000000000E+00 -0.47538186852E+03  0.47538186852E+03  0.00000000000E+00 0. -1.
    9000007    1    1    2  501    0  0.79558609127E+02 -0.17877308621E+03 -0.33465703264E+03  0.55703206204E+03  0.40000000000E+03 0. -1.
   -9000007    1    1    2    0  502 -0.79558609127E+02  0.17877308621E+03  0.16487579740E+04  0.17078326163E+04  0.40000000000E+03 0. -1.
<mgrwt>
<rscale>  2 0.44529697E+03</rscale>
<asrwt>0</asrwt>
<pdfrwt beam="1">  1       21 0.27530504E+00 0.44529697E+03</pdfrwt>
<pdfrwt beam="2">  1       21 0.73135673E-01 0.44529697E+03</pdfrwt>
<totfact> 0.61615762E+01</totfact>
</mgrwt>
</event>
<event>
 4    1  0.4758602E-002  0.4063620E+03  0.7818608E-02  0.1041599E+00
         21   -1    0    0  501  502  0.00000000000E+00  0.00000000000E+00  0.25128932483E+03  0.25128932483E+03  0.00000000000E+00 0.  1.
         21   -1    0    0  502  503 -0.00000000000E+00 -0.00000000000E+00 -0.89009371761E+03  0.89009371761E+03  0.00000000000E+00 0.  1.
    9000007    1    1    2  501    0  0.71396997252E+02 -0.57034160880E+01 -0.61136435159E+03  0.73409565492E+03  0.40000000000E+03 0.  1.
   -9000007    1    1    2    0  503 -0.71396997252E+02  0.57034160880E+01 -0.27440041184E+02  0.40728738752E+03  0.40000000000E+03 0.  1.
<mgrwt>
<rscale>  2 0.40636198E+03</rscale>
<asrwt>0</asrwt>
<pdfrwt beam="1">  1       21 0.38659896E-01 0.40636198E+03</pdfrwt>
<pdfrwt beam="2">  1       21 0.13693750E+00 0.40636198E+03</pdfrwt>
<totfact> 0.21373426E+03</totfact>
</mgrwt>
</event>
<event>
 4    1  0.4758602E-002  0.7077176E+03  0.7818608E-02  0.9704124E-01
         21   -1    0    0  501  502  0.00000000000E+00  0.00000000000E+00  0.14209619800E+04  0.14209619800E+04  0.00000000000E+00 0. -1.
         21   -1    0    0  502  503 -0.00000000000E+00 -0.00000000000E+00 -0.43955677615E+03  0.43955677615E+03  0.00000000000E+00 0. -1.
    9000007    1    1    2  501    0 -0.14967612936E+03  0.56432374151E+03  0.76663357470E+02  0.71185778026E+03  0.40000000000E+03 0. -1.
   -9000007    1    1    2    0  503  0.14967612936E+03 -0.56432374151E+03  0.90474184636E+03  0.11486609759E+04  0.40000000000E+03 0. -1.
<mgrwt>
<rscale>  2 0.70771762E+03</rscale>
<asrwt>0</asrwt>
<pdfrwt beam="1">  1       21 0.21860953E+00 0.70771762E+03</pdfrwt>
<pdfrwt beam="2">  1       21 0.67624120E-01 0.70771762E+03</pdfrwt>
<totfact> 0.14682905E+02</totfact>
</mgrwt>
</event>
<event>
 4    1  0.4758602E-002  0.4196330E+03  0.7818608E-02  0.1037186E+00
         21   -1    0    0  503  502  0.00000000000E+00  0.00000000000E+00  0.34469875696E+03  0.34469875696E+03  0.00000000000E+00 0.  1.
         21   -1    0    0  501  503 -0.00000000000E+00 -0.00000000000E+00 -0.12208153185E+04  0.12208153185E+04  0.00000000000E+00 0.  1.
    9000007    1    1    2  501    0 -0.12495755040E+03  0.21851919691E+02 -0.10349812807E+04  0.11168160758E+04  0.40000000000E+03 0.  1.
   -9000007    1    1    2    0  502  0.12495755040E+03 -0.21851919691E+02  0.15886471924E+03  0.44869799957E+03  0.40000000000E+03 0.  1.
<mgrwt>
<rscale>  2 0.41963305E+03</rscale>
<asrwt>0</asrwt>
<pdfrwt beam="1">  1       21 0.53030578E-01 0.41963305E+03</pdfrwt>
<pdfrwt beam="2">  1       21 0.18781774E+00 0.41963305E+03</pdfrwt>
<totfact> 0.45459036E+02</totfact>
</mgrwt>
</event>
<event>
 4    1  0.4758602E-002  0.4877347E+03  0.7818608E-02  0.1017031E+00
         21   -1    0    0  501  502  0.00000000000E+00  0.00000000000E+00  0.22177545904E+03  0.22177545904E+03  0.00000000000E+00 0.  1.
         21   -1    0    0  502  503 -0.00000000000E+00 -0.00000000000E+00 -0.10806977104E+04  0.10806977104E+04  0.00000000000E+00 0.  1.
    9000007    1    1    2  501    0  0.21856258438E+02 -0.27822188426E+03 -0.37322614736E+03  0.61415215541E+03  0.40000000000E+03 0.  1.
   -9000007    1    1    2    0  503 -0.21856258438E+02  0.27822188426E+03 -0.48569610395E+03  0.68832101400E+03  0.40000000000E+03 0.  1.
<mgrwt>
<rscale>  2 0.48773467E+03</rscale>
<asrwt>0</asrwt>
<pdfrwt beam="1">  1       21 0.34119302E-01 0.48773467E+03</pdfrwt>
<pdfrwt beam="2">  1       21 0.16626119E+00 0.48773467E+03</pdfrwt>
<totfact> 0.15704680E+03</totfact>
</mgrwt>
</event>
<event>
 4    1  0.4758602E-002  0.4594508E+03  0.7818608E-02  0.1024941E+00
         21   -1    0    0  501  502  0.00000000000E+00  0.00000000000E+00  0.11111072538E+04  0.11111072538E+04  0.00000000000E+00 0. -1.
         21   -1    0    0  502  503 -0.00000000000E+00 -0.00000000000E+00 -0.57250956645E+03  0.57250956645E+03  0.00000000000E+00 0.  1.
    9000007    1    1    2  501    0 -0.62113973629E+02  0.21734051493E+03  0.95739775506E+03  0.10619347939E+04  0.40000000000E+03 0. -1.
   -9000007    1    1    2    0  503  0.62113973629E+02 -0.21734051493E+03 -0.41880006770E+03  0.62168202633E+03  0.40000000000E+03 0.  1.
<mgrwt>
<rscale>  2 0.45945081E+03</rscale>
<asrwt>0</asrwt>
<pdfrwt beam="1">  1       21 0.17093958E+00 0.45945081E+03</pdfrwt>
<pdfrwt beam="2">  1       21 0.88078395E-01 0.45945081E+03</pdfrwt>
<totfact> 0.18763842E+02</totfact>
</mgrwt>
</event>
<event>
 4    1  0.4758602E-002  0.4242514E+03  0.7818608E-02  0.1035691E+00
         21   -1    0    0  503  502  0.00000000000E+00  0.00000000000E+00  0.58910172584E+03  0.58910172584E+03  0.00000000000E+00 0. -1.
         21   -1    0    0  501  503 -0.00000000000E+00 -0.00000000000E+00 -0.30718579033E+03  0.30718579033E+03  0.00000000000E+00 0. -1.
    9000007    1    1    2  501    0  0.70653658623E+02  0.12246363572E+03  0.10807357968E+03  0.43780038851E+03  0.40000000000E+03 0. -1.
   -9000007    1    1    2    0  502 -0.70653658623E+02 -0.12246363572E+03  0.17384235583E+03  0.45848712766E+03  0.40000000000E+03 0. -1.
<mgrwt>
<rscale>  2 0.42425144E+03</rscale>
<asrwt>0</asrwt>
<pdfrwt beam="1">  1       21 0.90631034E-01 0.42425144E+03</pdfrwt>
<pdfrwt beam="2">  1       21 0.47259353E-01 0.42425144E+03</pdfrwt>
<totfact> 0.39081330E+03</totfact>
</mgrwt>
</event>
<event>
 4    1  0.4758602E-002  0.4153514E+03  0.7818608E-02  0.1038590E+00
         21   -1    0    0  501  502  0.00000000000E+00  0.00000000000E+00  0.83732423218E+03  0.83732423218E+03  0.00000000000E+00 0.  1.
         21   -1    0    0  502  503 -0.00000000000E+00 -0.00000000000E+00 -0.29746196881E+03  0.29746196881E+03  0.00000000000E+00 0.  1.
    9000007    1    1    2  501    0 -0.76546551718E+01 -0.11161643441E+03  0.58449519526E+03  0.71704355200E+03  0.40000000000E+03 0.  1.
   -9000007    1    1    2    0  503  0.76546551718E+01  0.11161643441E+03 -0.44632931901E+02  0.41774264899E+03  0.40000000000E+03 0.  1.
<mgrwt>
<rscale>  2 0.41535144E+03</rscale>
<asrwt>0</asrwt>
<pdfrwt beam="1">  1       21 0.12881911E+00 0.41535144E+03</pdfrwt>
<pdfrwt beam="2">  1       21 0.45763380E-01 0.41535144E+03</pdfrwt>
<totfact> 0.17600146E+03</totfact>
</mgrwt>
</event>
<event>
 4    1  0.4758602E-002  0.4966749E+03  0.7818608E-02  0.1014650E+00
         21   -1    0    0  503  502  0.00000000000E+00  0.00000000000E+00  0.37528479915E+03  0.37528479915E+03  0.00000000000E+00 0. -1.
         21   -1    0    0  501  503 -0.00000000000E+00 -0.00000000000E+00 -0.10198943137E+04  0.10198943137E+04  0.00000000000E+00 0.  1.
    9000007    1    1    2  501    0 -0.23160745049E+03  0.18177988993E+03  0.93620161609E+02  0.50542128385E+03  0.40000000000E+03 0. -1.
   -9000007    1    1    2    0  502  0.23160745049E+03 -0.18177988993E+03 -0.73822967616E+03  0.88975782900E+03  0.40000000000E+03 0.  1.
<mgrwt>
<rscale>  2 0.49667488E+03</rscale>
<asrwt>0</asrwt>
<pdfrwt beam="1">  1       21 0.57736123E-01 0.49667488E+03</pdfrwt>
<pdfrwt beam="2">  1       21 0.15690682E+00 0.49667488E+03</pdfrwt>
<totfact> 0.61107749E+02</totfact>
</mgrwt>
</event>
<event>
 4    1  0.4758602E-002  0.4408177E+03  0.7818608E-02  0.1030496E+00
         21   -1    0    0  501  502  0.00000000000E+00  0.00000000000E+00  0.27397345162E+03  0.27397345162E+03  0.00000000000E+00 0.  1.
         21   -1    0    0  502  503 -0.00000000000E+00 -0.00000000000E+00 -0.74930097117E+03  0.74930097117E+03  0.00000000000E+00 0.  1.
    9000007    1    1    2  501    0  0.14077362847E+03 -0.12042842925E+03 -0.35592717899E+03  0.56657248238E+03  0.40000000000E+03 0.  1.
   -9000007    1    1    2    0  503 -0.14077362847E+03  0.12042842925E+03 -0.11940034056E+03  0.45670194040E+03  0.40000000000E+03 0.  1.
<mgrwt>
<rscale>  2 0.44081767E+03</rscale>
<asrwt>0</asrwt>
<pdfrwt beam="1">  1       21 0.42149762E-01 0.44081767E+03</pdfrwt>
<pdfrwt beam="2">  1       21 0.11527707E+00 0.44081767E+03</pdfrwt>
<totfact> 0.27446545E+03</totfact>
</mgrwt>
</event>
<event>
 4    1  0.4758602E-002  0.4355432E+03  0.7818608E-02  0.1032123E+00
         21   -1    0    0  501  502  0.00000000000E+00  0.00000000000E+00  0.21837371300E+04  0.21837371300E+04  0.00000000000E+00 0.  1.
         21   -1    0    0  502  503 -0.00000000000E+00 -0.00000000000E+00 -0.14026965711E+03  0.14026965711E+03  0.00000000000E+00 0.  1.
    9000007    1    1    2  501    0  0.31937557611E+02 -0.16934535584E+03  0.17387038794E+04  0.17924254622E+04  0.40000000000E+03 0.  1.
   -9000007    1    1    2    0  503 -0.31937557611E+02  0.16934535584E+03  0.30476359351E+03  0.53158132497E+03  0.40000000000E+03 0.  1.
<mgrwt>
<rscale>  2 0.43554317E+03</rscale>
<asrwt>0</asrwt>
<pdfrwt beam="1">  1       21 0.33595953E+00 0.43554317E+03</pdfrwt>
<pdfrwt beam="2">  1       21 0.21579949E-01 0.43554317E+03</pdfrwt>
<totfact> 0.33395762E+02</totfact>
</mgrwt>
</event>
<event>
 4    1  0.4758602E-002  0.5729877E+03  0.7818608E-02  0.9963089E-01
         21   -1    0    0  501  502  0.00000000000E+00  0.00000000000E+00  0.65862574179E+03  0.65862574179E+03  0.00000000000E+00 0.  1.
         21   -1    0    0  502  503 -0.00000000000E+00 -0.00000000000E+00 -0.11054825456E+04  0.11054825456E+04  0.00000000000E+00 0. -1.
    9000007    1    1    2  501    0  0.69463388376E+02  0.40433859430E+03 -0.87702964753E+03  0.10476143679E+04  0.40000000000E+03 0. -1.
   -9000007    1    1    2    0  503 -0.69463388376E+02 -0.40433859430E+03  0.43017284374E+03  0.71649391949E+03  0.40000000000E+03 0.  1.
<mgrwt>
<rscale>  2 0.57298766E+03</rscale>
<asrwt>0</asrwt>
<pdfrwt beam="1">  1       21 0.10132704E+00 0.57298766E+03</pdfrwt>
<pdfrwt beam="2">  1       21 0.17007424E+00 0.57298766E+03</pdfrwt>
<totfact> 0.12898060E+02</totfact>
</mgrwt>
</event>
<event>
 4    1  0.4758602E-002  0.4467057E+03  0.7818608E-02  0.1028709E+00
         21   -1    0    0  503  502  0.00000000000E+00  0.00000000000E+00  0.47636897990E+03  0.47636897990E+03  0.00000000000E+00 0.  1.
         21   -1    0    0  501  503 -0.00000000000E+00 -0.00000000000E+00 -0.51853057346E+03  0.51853057346E+03  0.00000000000E+00 0. -1.
    9000007    1    1    2  501    0 -0.19178294728E+03 -0.52586317636E+02 -0.23914330309E+03  0.50669077264E+03  0.40000000000E+03 0. -1.
   -9000007    1    1    2    0  502  0.19178294728E+03  0.52586317636E+02  0.19698170953E+03  0.48820878071E+03  0.40000000000E+03 0.  1.
<mgrwt>
<rscale>  2 0.44670574E+03</rscale>
<asrwt>0</asrwt>
<pdfrwt beam="1">  1       21 0.73287536E-01 0.44670574E+03</pdfrwt>
<pdfrwt beam="2">  1       21 0.79773934E-01 0.44670574E+03</pdfrwt>
<totfact> 0.20030853E+03</totfact>
</mgrwt>
</event>
<event>
 4    1  0.4758602E-002  0.4049910E+03  0.7818608E-02  0.1042065E+00
         21   -1    0    0  503  502  0.00000000000E+00  0.00000000000E+00  0.55123068455E+03  0.55123068455E+03  0.00000000000E+00 0.  1.
         21   -1    0    0  501  503 -0.00000000000E+00 -0.00000000000E+00 -0.91912691566E+03  0.91912691566E+03  0.00000000000E+00 0.  1.
    9000007    1    1    2  501    0  0.35592966945E+02 -0.52448668811E+02 -0.78852743176E+03  0.88644979147E+03  0.40000000000E+03 0.  1.
   -9000007    1    1    2    0  502 -0.35592966945E+02  0.52448668811E+02  0.42063120065E+03  0.58390780874E+03  0.40000000000E+03 0.  1.
<mgrwt>
<rscale>  2 0.40499101E+03</rscale>
<asrwt>0</asrwt>
<pdfrwt beam="1">  1       21 0.84804721E-01 0.40499101E+03</pdfrwt>
<pdfrwt beam="2">  1       21 0.14140414E+00 0.40499101E+03</pdfrwt>
<totfact> 0.35561688E+02</totfact>
</mgrwt>
</event>
<event>
 4    1  0.4758602E-002  0.4491014E+03  0.7818608E-02  0.1027990E+00
         21   -1    0    0  501  502  0.00000000000E+00  0.00000000000E+00  0.35651948282E+03  0.35651948282E+03  0.00000000000E+00 0.  1.
         21   -1    0    0  502  503 -0.00000000000E+00 -0.00000000000E+00 -0.80892026521E+03  0.80892026521E+03  0.00000000000E+00 0. -1.
    9000007    1    1    2  501    0  0.20348014404E+03  0.16968572037E+02  0.93309448255E+02  0.45869244008E+03  0.40000000000E+03 0.  1.
   -9000007    1    1    2    0  503 -0.20348014404E+03 -0.16968572037E+02 -0.54571023064E+03  0.70674730794E+03  0.40000000000E+03 0.  1.
<mgrwt>
<rscale>  2 0.44910144E+03</rscale>
<asrwt>0</asrwt>
<pdfrwt beam="1">  1       21 0.54849151E-01 0.44910144E+03</pdfrwt>
<pdfrwt beam="2">  1       21 0.12444927E+00 0.44910144E+03</pdfrwt>
<totfact> 0.12906427E+03</totfact>
</mgrwt>
</event>
<event>
 4    1  0.4758602E-002  0.5570519E+03  0.7818608E-02  0.9998748E-01
         21   -1    0    0  503  502  0.00000000000E+00  0.00000000000E+00  0.23724157915E+04  0.23724157915E+04  0.00000000000E+00 0.  1.
         21   -1    0    0  501  503 -0.00000000000E+00 -0.00000000000E+00 -0.13382090123E+03  0.13382090123E+03  0.00000000000E+00 0. -1.
    9000007    1    1    2  501    0  0.14929741188E+03  0.35779474085E+03  0.93095178240E+03  0.10848861760E+04  0.40000000000E+03 0.  1.
   -9000007    1    1    2    0  502 -0.14929741188E+03 -0.35779474085E+03  0.13076431079E+04  0.14213505167E+04  0.40000000000E+03 0. -1.
<mgrwt>
<rscale>  2 0.55705188E+03</rscale>
<asrwt>0</asrwt>
<pdfrwt beam="1">  1       21 0.36498701E+00 0.55705188E+03</pdfrwt>
<pdfrwt beam="2">  1       21 0.20587833E-01 0.55705188E+03</pdfrwt>
<totfact> 0.22589509E+02</totfact>
</mgrwt>
</event>
<event>
 4    1  0.4758602E-002  0.4101332E+03  0.7818608E-02  0.1040326E+00
         21   -1    0    0  501  502  0.00000000000E+00  0.00000000000E+00  0.31495198512E+03  0.31495198512E+03  0.00000000000E+00 0. -1.
         21   -1    0    0  502  503 -0.00000000000E+00 -0.00000000000E+00 -0.11638391664E+04  0.11638391664E+04  0.00000000000E+00 0. -1.
    9000007    1    1    2  501    0  0.54349889252E+02 -0.72493698160E+02  0.11945502201E+03  0.42717531415E+03  0.40000000000E+03 0. -1.
   -9000007    1    1    2    0  503 -0.54349889252E+02  0.72493698160E+02 -0.96834220330E+03  0.10516158374E+04  0.40000000000E+03 0. -1.
<mgrwt>
<rscale>  2 0.41013321E+03</rscale>
<asrwt>0</asrwt>
<pdfrwt beam="1">  1       21 0.48454152E-01 0.41013321E+03</pdfrwt>
<pdfrwt beam="2">  1       21 0.17905218E+00 0.41013321E+03</pdfrwt>
<totfact> 0.63692818E+02</totfact>
</mgrwt>
</event>
<event>
 4    1  0.4758602E-002  0.5213957E+03  0.7818608E-02  0.1008340E+00
         21   -1    0    0  501  502  0.00000000000E+00  0.00000000000E+00  0.39782271936E+03  0.39782271936E+03  0.00000000000E+00 0.  1.
         21   -1    0    0  502  503 -0.00000000000E+00 -0.00000000000E+00 -0.16247844645E+04  0.16247844645E+04  0.00000000000E+00 0. -1.
    9000007    1    1    2  501    0 -0.27449419463E+03  0.19106648041E+03  0.15631922053E+03  0.54432450021E+03  0.40000000000E+03 0.  1.
   -9000007    1    1    2    0  503  0.27449419463E+03 -0.19106648041E+03 -0.13832809657E+04  0.14782826837E+04  0.40000000000E+03 0. -1.
<mgrwt>
<rscale>  2 0.52139569E+03</rscale>
<asrwt>0</asrwt>
<pdfrwt beam="1">  1       21 0.61203495E-01 0.52139569E+03</pdfrwt>
<pdfrwt beam="2">  1       21 0.24996684E+00 0.52139569E+03</pdfrwt>
<totfact> 0.12539043E+02</totfact>
</mgrwt>
</event>
<event>
 4    1  0.4758602E-002  0.4504365E+03  0.7818608E-02  0.1027592E+00
         21   -1    0    0  501  502  0.00000000000E+00  0.00000000000E+00  0.15055319801E+04  0.15055319801E+04  0.00000000000E+00 0. -1.
         21   -1    0    0  502  503 -0.00000000000E+00 -0.00000000000E+00 -0.13866505193E+03  0.13866505193E+03  0.00000000000E+00 0. -1.
    9000007    1    1    2  501    0  0.52883360588E+01  0.20703890727E+03  0.82130461247E+03  0.93671465350E+03  0.40000000000E+03 0.  1.
   -9000007    1    1    2    0  503 -0.52883360588E+01 -0.20703890727E+03  0.54556231574E+03  0.70748237857E+03  0.40000000000E+03 0.  1.
<mgrwt>
<rscale>  2 0.45043654E+03</rscale>
<asrwt>0</asrwt>
<pdfrwt beam="1">  1       21 0.23162029E+00 0.45043654E+03</pdfrwt>
<pdfrwt beam="2">  1       21 0.21333086E-01 0.45043654E+03</pdfrwt>
<totfact> 0.14554184E+03</totfact>
</mgrwt>
</event>
<event>
 4    1  0.4758602E-002  0.4354733E+03  0.7818608E-02  0.1032145E+00
         21   -1    0    0  501  502  0.00000000000E+00  0.00000000000E+00  0.19290615872E+03  0.19290615872E+03  0.00000000000E+00 0. -1.
         21   -1    0    0  502  503 -0.00000000000E+00 -0.00000000000E+00 -0.11714570634E+04  0.11714570634E+04  0.00000000000E+00 0.  1.
    9000007    1    1    2  501    0 -0.11628953747E+03 -0.12693986289E+03 -0.76285391817E+03  0.87839802241E+03  0.40000000000E+03 0.  1.
   -9000007    1    1    2    0  503  0.11628953747E+03  0.12693986289E+03 -0.21569698649E+03  0.48596519968E+03  0.40000000000E+03 0. -1.
<mgrwt>
<rscale>  2 0.43547329E+03</rscale>
<asrwt>0</asrwt>
<pdfrwt beam="1">  1       21 0.29677871E-01 0.43547329E+03</pdfrwt>
<pdfrwt beam="2">  1       21 0.18022416E+00 0.43547329E+03</pdfrwt>
<totfact> 0.16823102E+03</totfact>
</mgrwt>
</event>
<event>
 4    1  0.4758602E-002  0.5575000E+03  0.7818608E-02  0.9997727E-01
         21   -1    0    0  503  502  0.00000000000E+00  0.00000000000E+00  0.22449718872E+03  0.22449718872E+03  0.00000000000E+00 0.  1.
         21   -1    0    0  501  503 -0.00000000000E+00 -0.00000000000E+00 -0.18924839768E+04  0.18924839768E+04  0.00000000000E+00 0.  1.
    9000007    1    1    2  501    0 -0.32489239480E+03 -0.21272337406E+03 -0.28557116933E+03  0.62638422300E+03  0.40000000000E+03 0.  1.
   -9000007    1    1    2    0  502  0.32489239480E+03  0.21272337406E+03 -0.13824156187E+04  0.14905969425E+04  0.40000000000E+03 0.  1.
<mgrwt>
<rscale>  2 0.55750005E+03</rscale>
<asrwt>0</asrwt>
<pdfrwt beam="1">  1       21 0.34538028E-01 0.55750005E+03</pdfrwt>
<pdfrwt beam="2">  1       21 0.29115139E+00 0.55750005E+03</pdfrwt>
<totfact> 0.23105270E+02</totfact>
</mgrwt>
</event>
<event>
 4    1  0.4758602E-002  0.4029573E+03  0.7818608E-02  0.1042760E+00
         21   -1    0    0  503  502  0.00000000000E+00  0.00000000000E+00  0.14632377964E+03  0.14632377964E+03  0.00000000000E+00 0.  1.
         21   -1    0    0  501  503 -0.00000000000E+00 -0.00000000000E+00 -0.11142173878E+04  0.11142173878E+04  0.00000000000E+00 0.  1.
    9000007    1    1    2  501    0 -0.86611567754E+01  0.47953660411E+02 -0.52410653180E+03  0.66110681879E+03  0.40000000000E+03 0.  1.
   -9000007    1    1    2    0  502  0.86611567754E+01 -0.47953660411E+02 -0.44378707638E+03  0.59943434865E+03  0.40000000000E+03 0.  1.
<mgrwt>
<rscale>  2 0.40295728E+03</rscale>
<asrwt>0</asrwt>
<pdfrwt beam="1">  1       21 0.22511352E-01 0.40295728E+03</pdfrwt>
<pdfrwt beam="2">  1       21 0.17141805E+00 0.40295728E+03</pdfrwt>
<totfact> 0.33800449E+03</totfact>
</mgrwt>
</event>
<event>
 4    1  0.4758602E-002  0.4347193E+03  0.7818608E-02  0.1032379E+00
         21   -1    0    0  501  502  0.00000000000E+00  0.00000000000E+00  0.13215570426E+04  0.13215570426E+04  0.00000000000E+00 0. -1.
         21   -1    0    0  502  503 -0.00000000000E+00 -0.00000000000E+00 -0.16741847223E+03  0.16741847223E+03  0.00000000000E+00 0. -1.
    9000007    1    1    2  501    0  0.16794669656E+03  0.27834251661E+02  0.29273622800E+03  0.52409477925E+03  0.40000000000E+03 0. -1.
   -9000007    1    1    2    0  503 -0.16794669656E+03 -0.27834251661E+02  0.86140234241E+03  0.96488073561E+03  0.40000000000E+03 0. -1.
<mgrwt>
<rscale>  2 0.43471926E+03</rscale>
<asrwt>0</asrwt>
<pdfrwt beam="1">  1       21 0.20331646E+00 0.43471926E+03</pdfrwt>
<pdfrwt beam="2">  1       21 0.25756689E-01 0.43471926E+03</pdfrwt>
<totfact> 0.15483973E+03</totfact>
</mgrwt>
</event>
<event>
 4    1  0.4758602E-002  0.4240321E+03  0.7818608E-02  0.1035762E+00
         21   -1    0    0  503  502  0.00000000000E+00  0.00000000000E+00  0.14413225655E+04  0.14413225655E+04  0.00000000000E+00 0.  1.
         21   -1    0    0  501  503 -0.00000000000E+00 -0.00000000000E+00 -0.14081122803E+03  0.14081122803E+03  0.00000000000E+00 0.  1.
    9000007    1    1    2  501    0 -0.42964551135E+02 -0.13400471416E+03  0.38307773801E+03  0.57144708367E+03  0.40000000000E+03 0.  1.
   -9000007    1    1    2    0  502  0.42964551135E+02  0.13400471416E+03  0.91743359947E+03  0.10106867099E+04  0.40000000000E+03 0.  1.
<mgrwt>
<rscale>  2 0.42403209E+03</rscale>
<asrwt>0</asrwt>
<pdfrwt beam="1">  1       21 0.22174192E+00 0.42403209E+03</pdfrwt>
<pdfrwt beam="2">  1       21 0.21663267E-01 0.42403209E+03</pdfrwt>
<totfact> 0.16519382E+03</totfact>
</mgrwt>
</event>
<event>
 4    1  0.4758602E-002  0.4159374E+03  0.7818608E-02  0.1038397E+00
         21   -1    0    0  501  502  0.00000000000E+00  0.00000000000E+00  0.10920546032E+04  0.10920546032E+04  0.00000000000E+00 0. -1.
         21   -1    0    0  502  503 -0.00000000000E+00 -0.00000000000E+00 -0.16910353364E+03  0.16910353364E+03  0.00000000000E+00 0. -1.
    9000007    1    1    2  501    0  0.22548402636E+02  0.11178339584E+03  0.61996786126E+03  0.74656821995E+03  0.40000000000E+03 0. -1.
   -9000007    1    1    2    0  503 -0.22548402636E+02 -0.11178339584E+03  0.30298320827E+03  0.51458991687E+03  0.40000000000E+03 0. -1.
<mgrwt>
<rscale>  2 0.41593744E+03</rscale>
<asrwt>0</asrwt>
<pdfrwt beam="1">  1       21 0.16800840E+00 0.41593744E+03</pdfrwt>
<pdfrwt beam="2">  1       21 0.26015929E-01 0.41593744E+03</pdfrwt>
<totfact> 0.26890637E+03</totfact>
</mgrwt>
</event>
<event>
 4    1  0.4758602E-002  0.4325657E+03  0.7818608E-02  0.1033053E+00
         21   -1    0    0  501  502  0.00000000000E+00  0.00000000000E+00  0.17491011212E+04  0.17491011212E+04  0.00000000000E+00 0. -1.
         21   -1    0    0  502  503 -0.00000000000E+00 -0.00000000000E+00 -0.14925225534E+03  0.14925225534E+03  0.00000000000E+00 0. -1.
    9000007    1    1    2  501    0  0.49689457744E+02  0.15698418104E+03  0.13050870974E+04  0.13749055994E+04  0.40000000000E+03 0. -1.
   -9000007    1    1    2    0  503 -0.49689457744E+02 -0.15698418104E+03  0.29476176848E+03  0.52344777721E+03  0.40000000000E+03 0. -1.
<mgrwt>
<rscale>  2 0.43256569E+03</rscale>
<asrwt>0</asrwt>
<pdfrwt beam="1">  1       21 0.26909247E+00 0.43256569E+03</pdfrwt>
<pdfrwt beam="2">  1       21 0.22961887E-01 0.43256569E+03</pdfrwt>
<totfact> 0.75042501E+02</totfact>
</mgrwt>
</event>
<event>
 4    1  0.4758602E-002  0.5044586E+03  0.7818608E-02  0.1012622E+00
         21   -1    0    0  501  502  0.00000000000E+00  0.00000000000E+00  0.90682400077E+03  0.90682400077E+03  0.00000000000E+00 0. -1.
         21   -1    0    0  502  503 -0.00000000000E+00 -0.00000000000E+00 -0.40889444473E+03  0.40889444473E+03  0.00000000000E+00 0. -1.
    9000007    1    1    2  501    0  0.59952097946E+02  0.30147011404E+03  0.61742202751E+03  0.79730072354E+03  0.40000000000E+03 0. -1.
   -9000007    1    1    2    0  503 -0.59952097946E+02 -0.30147011404E+03 -0.11949247146E+03  0.51841772196E+03  0.40000000000E+03 0. -1.
<mgrwt>
<rscale>  2 0.50445860E+03</rscale>
<asrwt>0</asrwt>
<pdfrwt beam="1">  1       21 0.13951138E+00 0.50445860E+03</pdfrwt>
<pdfrwt beam="2">  1       21 0.62906838E-01 0.50445860E+03</pdfrwt>
<totfact> 0.69416730E+02</totfact>
</mgrwt>
</event>
<event>
 4    1  0.4758602E-002  0.5965012E+03  0.7818608E-02  0.9912692E-01
         21   -1    0    0  503  502  0.00000000000E+00  0.00000000000E+00  0.95670452052E+03  0.95670452052E+03  0.00000000000E+00 0.  1.
         21   -1    0    0  501  503 -0.00000000000E+00 -0.00000000000E+00 -0.38098972074E+03  0.38098972074E+03  0.00000000000E+00 0. -1.
    9000007    1    1    2  501    0  0.74306418141E+02  0.43622494454E+03  0.18463718736E+03  0.62442336357E+03  0.40000000000E+03 0. -1.
   -9000007    1    1    2    0  502 -0.74306418141E+02 -0.43622494454E+03  0.39107761242E+03  0.71327087769E+03  0.40000000000E+03 0.  1.
<mgrwt>
<rscale>  2 0.59650117E+03</rscale>
<asrwt>0</asrwt>
<pdfrwt beam="1">  1       21 0.14718531E+00 0.59650117E+03</pdfrwt>
<pdfrwt beam="2">  1       21 0.58613803E-01 0.59650117E+03</pdfrwt>
<totfact> 0.67940425E+02</totfact>
</mgrwt>
</event>
<event>
 4    1  0.4758602E-002  0.4767398E+03  0.7818608E-02  0.1020035E+00
         21   -1    0    0  503  502  0.00000000000E+00  0.00000000000E+00  0.76180413806E+02  0.76180413806E+02  0.00000000000E+00 0. -1.
         21   -1    0    0  501  503 -0.00000000000E+00 -0.00000000000E+00 -0.29933928996E+04  0.29933928996E+04  0.00000000000E+00 0. -1.
    9000007    1    1    2  501    0  0.24938257223E+03  0.71338216067E+02 -0.15470406985E+04  0.16188315945E+04  0.40000000000E+03 0. -1.
   -9000007    1    1    2    0  502 -0.24938257223E+03 -0.71338216067E+02 -0.13701717873E+04  0.14507417190E+04  0.40000000000E+03 0. -1.
<mgrwt>
<rscale>  2 0.47673977E+03</rscale>
<asrwt>0</asrwt>
<pdfrwt beam="1">  1       21 0.11720066E-01 0.47673977E+03</pdfrwt>
<pdfrwt beam="2">  1       21 0.46052188E+00 0.47673977E+03</pdfrwt>
<totfact> 0.16081325E+02</totfact>
</mgrwt>
</event>
<event>
 4    1  0.4758602E-002  0.4309433E+03  0.7818608E-02  0.1033562E+00
         21   -1    0    0  501  502  0.00000000000E+00  0.00000000000E+00  0.25453966132E+03  0.25453966132E+03  0.00000000000E+00 0.  1.
         21   -1    0    0  502  503 -0.00000000000E+00 -0.00000000000E+00 -0.14619570812E+04  0.14619570812E+04  0.00000000000E+00 0.  1.
    9000007    1    1    2  501    0  0.70073230857E+02 -0.14422848690E+03  0.37365471055E+01  0.43095948290E+03  0.40000000000E+03 0.  1.
   -9000007    1    1    2    0  503 -0.70073230857E+02  0.14422848690E+03 -0.12111539670E+04  0.12855372596E+04  0.40000000000E+03 0.  1.
<mgrwt>
<rscale>  2 0.43094328E+03</rscale>
<asrwt>0</asrwt>
<pdfrwt beam="1">  1       21 0.39159948E-01 0.43094328E+03</pdfrwt>
<pdfrwt beam="2">  1       21 0.22491647E+00 0.43094328E+03</pdfrwt>
<totfact> 0.48685187E+02</totfact>
</mgrwt>
</event>
<event>
 4    1  0.4758602E-002  0.6878805E+03  0.7818608E-02  0.9738186E-01
         21   -1    0    0  501  502  0.00000000000E+00  0.00000000000E+00  0.35984363321E+03  0.35984363321E+03  0.00000000000E+00 0. -1.
         21   -1    0    0  502  503 -0.00000000000E+00 -0.00000000000E+00 -0.13170706419E+04  0.13170706419E+04  0.00000000000E+00 0. -1.
    9000007    1    1    2  501    0  0.50924129355E+03  0.23206225193E+03 -0.51218710860E+03  0.85762183860E+03  0.40000000000E+03 0. -1.
   -9000007    1    1    2    0  503 -0.50924129355E+03 -0.23206225193E+03 -0.44503990007E+03  0.81929243649E+03  0.40000000000E+03 0. -1.
<mgrwt>
<rscale>  2 0.68788050E+03</rscale>
<asrwt>0</asrwt>
<pdfrwt beam="1">  1       21 0.55360559E-01 0.68788050E+03</pdfrwt>
<pdfrwt beam="2">  1       21 0.20262625E+00 0.68788050E+03</pdfrwt>
<totfact> 0.29424482E+02</totfact>
</mgrwt>
</event>
<event>
 4    1  0.4758602E-002  0.4363772E+03  0.7818608E-02  0.1031864E+00
         21   -1    0    0  501  502  0.00000000000E+00  0.00000000000E+00  0.20758977802E+03  0.20758977802E+03  0.00000000000E+00 0. -1.
         21   -1    0    0  502  503 -0.00000000000E+00 -0.00000000000E+00 -0.91757412441E+03  0.91757412441E+03  0.00000000000E+00 0.  1.
    9000007    1    1    2  501    0 -0.13237673069E+03 -0.11358474135E+03 -0.34552711923E+03  0.55660945232E+03  0.40000000000E+03 0.  1.
   -9000007    1    1    2    0  503  0.13237673069E+03  0.11358474135E+03 -0.36445722716E+03  0.56855445010E+03  0.40000000000E+03 0. -1.
<mgrwt>
<rscale>  2 0.43637724E+03</rscale>
<asrwt>0</asrwt>
<pdfrwt beam="1">  1       21 0.31936888E-01 0.43637724E+03</pdfrwt>
<pdfrwt beam="2">  1       21 0.14116525E+00 0.43637724E+03</pdfrwt>
<totfact> 0.28664043E+03</totfact>
</mgrwt>
</event>
<event>
 4    1  0.4758602E-002  0.4449037E+03  0.7818608E-02  0.1029253E+00
         21   -1    0    0  501  502  0.00000000000E+00  0.00000000000E+00  0.10295360632E+03  0.10295360632E+03  0.00000000000E+00 0.  1.
         21   -1    0    0  502  503 -0.00000000000E+00 -0.00000000000E+00 -0.25859816352E+04  0.25859816352E+04  0.00000000000E+00 0.  1.
    9000007    1    1    2  501    0 -0.15492916007E+03  0.11805195626E+03 -0.56056106010E+03  0.71565914451E+03  0.40000000000E+03 0.  1.
   -9000007    1    1    2    0  503  0.15492916007E+03 -0.11805195626E+03 -0.19224669687E+04  0.19732760970E+04  0.40000000000E+03 0.  1.
<mgrwt>
<rscale>  2 0.44490371E+03</rscale>
<asrwt>0</asrwt>
<pdfrwt beam="1">  1       21 0.15839018E-01 0.44490371E+03</pdfrwt>
<pdfrwt beam="2">  1       21 0.39784328E+00 0.44490371E+03</pdfrwt>
<totfact> 0.24533850E+02</totfact>
</mgrwt>
</event>
<event>
 4    1  0.4758602E-002  0.4204965E+03  0.7818608E-02  0.1036905E+00
         21   -1    0    0  501  502  0.00000000000E+00  0.00000000000E+00  0.20219409442E+04  0.20219409442E+04  0.00000000000E+00 0. -1.
         21   -1    0    0  502  503 -0.00000000000E+00 -0.00000000000E+00 -0.94197788799E+02  0.94197788799E+02  0.00000000000E+00 0. -1.
    9000007    1    1    2  501    0  0.74122379592E+02 -0.10641026225E+03  0.12470745678E+04  0.13160593637E+04  0.40000000000E+03 0. -1.
   -9000007    1    1    2    0  503 -0.74122379592E+02  0.10641026225E+03  0.68066858762E+03  0.80007936934E+03  0.40000000000E+03 0. -1.
<mgrwt>
<rscale>  2 0.42049646E+03</rscale>
<asrwt>0</asrwt>
<pdfrwt beam="1">  1       21 0.31106780E+00 0.42049646E+03</pdfrwt>
<pdfrwt beam="2">  1       21 0.14491969E-01 0.42049646E+03</pdfrwt>
<totfact> 0.10068253E+03</totfact>
</mgrwt>
</event>
<event>
 4    1  0.4758602E-002  0.4138445E+03  0.7818608E-02  0.1039089E+00
         21   -1    0    0  503  502  0.00000000000E+00  0.00000000000E+00  0.10197849596E+04  0.10197849596E+04  0.00000000000E+00 0. -1.
         21   -1    0    0  501  503 -0.00000000000E+00 -0.00000000000E+00 -0.20884315183E+03  0.20884315183E+03  0.00000000000E+00 0. -1.
    9000007    1    1    2  501    0 -0.10205099220E+03  0.29203312024E+02  0.13361734675E+03  0.43488025225E+03  0.40000000000E+03 0. -1.
   -9000007    1    1    2    0  502  0.10205099220E+03 -0.29203312024E+02  0.67732446098E+03  0.79374785913E+03  0.40000000000E+03 0. -1.
<mgrwt>
<rscale>  2 0.41384446E+03</rscale>
<asrwt>0</asrwt>
<pdfrwt beam="1">  1       21 0.15688999E+00 0.41384446E+03</pdfrwt>
<pdfrwt beam="2">  1       21 0.32129716E-01 0.41384446E+03</pdfrwt>
<totfact> 0.21477386E+03</totfact>
</mgrwt>
</event>
<event>
 4    1  0.4758602E-002  0.5155011E+03  0.7818608E-02  0.1009810E+00
         21   -1    0    0  503  502  0.00000000000E+00  0.00000000000E+00  0.56234619706E+03  0.56234619706E+03  0.00000000000E+00 0.  1.
         21   -1    0    0  501  503 -0.00000000000E+00 -0.00000000000E+00 -0.48171196926E+03  0.48171196926E+03  0.00000000000E+00 0. -1.
    9000007    1    1    2  501    0  0.26282854331E+03  0.19147462885E+03 -0.31644021520E+02  0.51647141331E+03  0.40000000000E+03 0. -1.
   -9000007    1    1    2    0  502 -0.26282854331E+03 -0.19147462885E+03  0.11227824932E+03  0.52758675300E+03  0.40000000000E+03 0.  1.
<mgrwt>
<rscale>  2 0.51550109E+03</rscale>
<asrwt>0</asrwt>
<pdfrwt beam="1">  1       21 0.86514799E-01 0.51550109E+03</pdfrwt>
<pdfrwt beam="2">  1       21 0.74109534E-01 0.51550109E+03</pdfrwt>
<totfact> 0.15771755E+03</totfact>
</mgrwt>
</event>
<event>
 4    1  0.4758602E-002  0.4033011E+03  0.7818608E-02  0.1042643E+00
         21   -1    0    0  503  502  0.00000000000E+00  0.00000000000E+00  0.17203019762E+03  0.17203019762E+03  0.00000000000E+00 0. -1.
         21   -1    0    0  501  503 -0.00000000000E+00 -0.00000000000E+00 -0.10578781511E+04  0.10578781511E+04  0.00000000000E+00 0. -1.
    9000007    1    1    2  501    0  0.51490074472E+02  0.73371482924E+00 -0.64336986844E+03  0.75932638156E+03  0.40000000000E+03 0. -1.
   -9000007    1    1    2    0  502 -0.51490074472E+02 -0.73371482924E+00 -0.24247808504E+03  0.47058196718E+03  0.40000000000E+03 0. -1.
<mgrwt>
<rscale>  2 0.40330109E+03</rscale>
<asrwt>0</asrwt>
<pdfrwt beam="1">  1       21 0.26466185E-01 0.40330109E+03</pdfrwt>
<pdfrwt beam="2">  1       21 0.16275048E+00 0.40330109E+03</pdfrwt>
<totfact> 0.28589994E+03</totfact>
</mgrwt>
</event>
<event>
 4    1  0.4758602E-002  0.4625783E+03  0.7818608E-02  0.1024036E+00
         21   -1    0    0  501  502  0.00000000000E+00  0.00000000000E+00  0.11555709460E+04  0.11555709460E+04  0.00000000000E+00 0.  1.
         21   -1    0    0  502  503 -0.00000000000E+00 -0.00000000000E+00 -0.19242936434E+03  0.19242936434E+03  0.00000000000E+00 0.  1.
    9000007    1    1    2  501    0  0.23220065979E+03 -0.78446987568E+01  0.61246843991E+03  0.76752607486E+03  0.40000000000E+03 0. -1.
   -9000007    1    1    2    0  503 -0.23220065979E+03  0.78446987568E+01  0.35067314174E+03  0.58047423547E+03  0.40000000000E+03 0. -1.
<mgrwt>
<rscale>  2 0.46257830E+03</rscale>
<asrwt>0</asrwt>
<pdfrwt beam="1">  1       21 0.17778014E+00 0.46257830E+03</pdfrwt>
<pdfrwt beam="2">  1       21 0.29604518E-01 0.46257830E+03</pdfrwt>
<totfact> 0.17392623E+03</totfact>
</mgrwt>
</event>
<event>
 4    1  0.4758602E-002  0.5409557E+03  0.7818608E-02  0.1003609E+00
         21   -1    0    0  501  502  0.00000000000E+00  0.00000000000E+00  0.11410849347E+04  0.11410849347E+04  0.00000000000E+00 0. -1.
         21   -1    0    0  502  503 -0.00000000000E+00 -0.00000000000E+00 -0.41024040946E+03  0.41024040946E+03  0.00000000000E+00 0. -1.
    9000007    1    1    2  501    0 -0.85590070836E+01 -0.36408768764E+03  0.84033737215E+03  0.99939981985E+03  0.40000000000E+03 0. -1.
   -9000007    1    1    2    0  503  0.85590070836E+01  0.36408768764E+03 -0.10949284689E+03  0.55192552433E+03  0.40000000000E+03 0. -1.
<mgrwt>
<rscale>  2 0.54095573E+03</rscale>
<asrwt>0</asrwt>
<pdfrwt beam="1">  1       21 0.17555153E+00 0.54095573E+03</pdfrwt>
<pdfrwt beam="2">  1       21 0.63113909E-01 0.54095573E+03</pdfrwt>
<totfact> 0.35873904E+02</totfact>
</mgrwt>
</event>
<event>
 4    1  0.4758602E-002  0.4505576E+03  0.7818608E-02  0.1027556E+00
         21   -1    0    0  503  502  0.00000000000E+00  0.00000000000E+00  0.97927356741E+03  0.97927356741E+03  0.00000000000E+00 0. -1.
         21   -1    0    0  501  503 -0.00000000000E+00 -0.00000000000E+00 -0.20730073373E+03  0.20730073373E+03  0.00000000000E+00 0. -1.
    9000007    1    1    2  501    0 -0.17587166497E+03  0.10986943204E+03  0.38412681651E+03  0.59207731404E+03  0.40000000000E+03 0. -1.
   -9000007    1    1    2    0  502  0.17587166497E+03 -0.10986943204E+03  0.38784601717E+03  0.59449698710E+03  0.40000000000E+03 0. -1.
<mgrwt>
<rscale>  2 0.45055758E+03</rscale>
<asrwt>0</asrwt>
<pdfrwt beam="1">  1       21 0.15065747E+00 0.45055758E+03</pdfrwt>
<pdfrwt beam="2">  1       21 0.31892421E-01 0.45055758E+03</pdfrwt>
<totfact> 0.23992934E+03</totfact>
</mgrwt>
</event>
<event>
 4    1  0.4758602E-002  0.4412831E+03  0.7818608E-02  0.1030354E+00
         21   -1    0    0  501  502  0.00000000000E+00  0.00000000000E+00  0.18193139919E+04  0.18193139919E+04  0.00000000000E+00 0.  1.
         21   -1    0    0  502  503 -0.00000000000E+00 -0.00000000000E+00 -0.20339103198E+03  0.20339103198E+03  0.00000000000E+00 0.  1.
    9000007    1    1    2  501    0  0.94525126231E+02 -0.16061068681E+03  0.15040676258E+04  0.15674661767E+04  0.40000000000E+03 0.  1.
   -9000007    1    1    2    0  503 -0.94525126231E+02  0.16061068681E+03  0.11185533415E+03  0.45523884718E+03  0.40000000000E+03 0.  1.
<mgrwt>
<rscale>  2 0.44128312E+03</rscale>
<asrwt>0</asrwt>
<pdfrwt beam="1">  1       21 0.27989445E+00 0.44128312E+03</pdfrwt>
<pdfrwt beam="2">  1       21 0.31290929E-01 0.44128312E+03</pdfrwt>
<totfact> 0.35035402E+02</totfact>
</mgrwt>
</event>
<event>
 4    1  0.4758602E-002  0.5744216E+03  0.7818608E-02  0.9959942E-01
         21   -1    0    0  501  502  0.00000000000E+00  0.00000000000E+00  0.51085414846E+03  0.51085414846E+03  0.00000000000E+00 0. -1.
         21   -1    0    0  502  503 -0.00000000000E+00 -0.00000000000E+00 -0.77783735569E+03  0.77783735569E+03  0.00000000000E+00 0. -1.
    9000007    1    1    2  501    0 -0.16260048020E+03  0.37884205701E+03  0.13188338406E+03  0.58936698865E+03  0.40000000000E+03 0. -1.
   -9000007    1    1    2    0  503  0.16260048020E+03 -0.37884205701E+03 -0.39886659130E+03  0.69932451550E+03  0.40000000000E+03 0. -1.
<mgrwt>
<rscale>  2 0.57442164E+03</rscale>
<asrwt>0</asrwt>
<pdfrwt beam="1">  1       21 0.78592947E-01 0.57442164E+03</pdfrwt>
<pdfrwt beam="2">  1       21 0.11966728E+00 0.57442164E+03</pdfrwt>
<totfact> 0.61002422E+02</totfact>
</mgrwt>
</event>
<event>
 4    1  0.4758602E-002  0.4491585E+03  0.7818608E-02  0.1027973E+00
         21   -1    0    0  501  502  0.00000000000E+00  0.00000000000E+00  0.41522644302E+03  0.41522644302E+03  0.00000000000E+00 0.  1.
         21   -1    0    0  502  503 -0.00000000000E+00 -0.00000000000E+00 -0.72057332416E+03  0.72057332416E+03  0.00000000000E+00 0.  1.
    9000007    1    1    2  501    0  0.14628718838E+03  0.14263033354E+03  0.17144098931E+03  0.48076539637E+03  0.40000000000E+03 0.  1.
   -9000007    1    1    2    0  503 -0.14628718838E+03 -0.14263033354E+03 -0.47678787045E+03  0.65503437081E+03  0.40000000000E+03 0.  1.
<mgrwt>
<rscale>  2 0.44915849E+03</rscale>
<asrwt>0</asrwt>
<pdfrwt beam="1">  1       21 0.63880992E-01 0.44915849E+03</pdfrwt>
<pdfrwt beam="2">  1       21 0.11085743E+00 0.44915849E+03</pdfrwt>
<totfact> 0.12381534E+03</totfact>
</mgrwt>
</event>
<event>
 4    1  0.4758602E-002  0.4064080E+03  0.7818608E-02  0.1041583E+00
         21   -1    0    0  503  502  0.00000000000E+00  0.00000000000E+00  0.31764819424E+03  0.31764819424E+03  0.00000000000E+00 0. -1.
         21   -1    0    0  501  503 -0.00000000000E+00 -0.00000000000E+00 -0.74707752223E+03  0.74707752223E+03  0.00000000000E+00 0. -1.
    9000007    1    1    2  501    0 -0.61356811386E+02  0.37453881990E+02 -0.50823683674E+03  0.65074736557E+03  0.40000000000E+03 0. -1.
   -9000007    1    1    2    0  502  0.61356811386E+02 -0.37453881990E+02  0.78807508747E+02  0.41397835090E+03  0.40000000000E+03 0. -1.
<mgrwt>
<rscale>  2 0.40640799E+03</rscale>
<asrwt>0</asrwt>
<pdfrwt beam="1">  1       21 0.48868953E-01 0.40640799E+03</pdfrwt>
<pdfrwt beam="2">  1       21 0.11493500E+00 0.40640799E+03</pdfrwt>
<totfact> 0.20562526E+03</totfact>
</mgrwt>
</event>
<event>
 4    1  0.4758602E-002  0.4190488E+03  0.7818608E-02  0.1037376E+00
         21   -1    0    0  501  502  0.00000000000E+00  0.00000000000E+00  0.33943375338E+03  0.33943375338E+03  0.00000000000E+00 0.  1.
         21   -1    0    0  502  503 -0.00000000000E+00 -0.00000000000E+00 -0.63892381396E+03  0.63892381396E+03  0.00000000000E+00 0.  1.
    9000007    1    1    2  501    0 -0.55344019571E+02  0.11197744557E+03  0.63650293426E+02  0.42385524495E+03  0.40000000000E+03 0.  1.
   -9000007    1    1    2    0  503  0.55344019571E+02 -0.11197744557E+03 -0.36314035401E+03  0.55450232238E+03  0.40000000000E+03 0.  1.
<mgrwt>
<rscale>  2 0.41904881E+03</rscale>
<asrwt>0</asrwt>
<pdfrwt beam="1">  1       21 0.52220577E-01 0.41904881E+03</pdfrwt>
<pdfrwt beam="2">  1       21 0.98295972E-01 0.41904881E+03</pdfrwt>
<totfact> 0.26095097E+03</totfact>
</mgrwt>
</event>
<event>
 4    1  0.4758602E-002  0.4529209E+03  0.7818608E-02  0.1026855E+00
         21   -1    0    0  503  502  0.00000000000E+00  0.00000000000E+00  0.52166377897E+03  0.52166377897E+03  0.00000000000E+00 0.  1.
         21   -1    0    0  501  503 -0.00000000000E+00 -0.00000000000E+00 -0.45113770677E+03  0.45113770677E+03  0.00000000000E+00 0. -1.
    9000007    1    1    2  501    0  0.93045196789E+02  0.19099725070E+03  0.20951697833E+03  0.49903378907E+03  0.40000000000E+03 0.  1.
   -9000007    1    1    2    0  502 -0.93045196789E+02 -0.19099725070E+03 -0.13899090612E+03  0.47376769667E+03  0.40000000000E+03 0. -1.
<mgrwt>
<rscale>  2 0.45292092E+03</rscale>
<asrwt>0</asrwt>
<pdfrwt beam="1">  1       21 0.80255966E-01 0.45292092E+03</pdfrwt>
<pdfrwt beam="2">  1       21 0.69405801E-01 0.45292092E+03</pdfrwt>
<totfact> 0.22287282E+03</totfact>
</mgrwt>
</event>
<event>
 4    1  0.4758602E-002  0.4138471E+03  0.7818608E-02  0.1039088E+00
         21   -1    0    0  503  502  0.00000000000E+00  0.00000000000E+00  0.23664298728E+03  0.23664298728E+03  0.00000000000E+00 0. -1.
         21   -1    0    0  501  503 -0.00000000000E+00 -0.00000000000E+00 -0.80375818479E+03  0.80375818479E+03  0.00000000000E+00 0. -1.
    9000007    1    1    2  501    0 -0.97884148538E+02 -0.41087118188E+02 -0.44768674555E+03  0.60966620372E+03  0.40000000000E+03 0. -1.
   -9000007    1    1    2    0  502  0.97884148538E+02  0.41087118188E+02 -0.11942845196E+03  0.43073496834E+03  0.40000000000E+03 0. -1.
<mgrwt>
<rscale>  2 0.41384714E+03</rscale>
<asrwt>0</asrwt>
<pdfrwt beam="1">  1       21 0.36406614E-01 0.41384714E+03</pdfrwt>
<pdfrwt beam="2">  1       21 0.12365510E+00 0.41384714E+03</pdfrwt>
<totfact> 0.31358839E+03</totfact>
</mgrwt>
</event>
<event>
 4    1  0.4758602E-002  0.4146870E+03  0.7818608E-02  0.1038810E+00
         21   -1    0    0  501  502  0.00000000000E+00  0.00000000000E+00  0.69702663376E+03  0.69702663376E+03  0.00000000000E+00 0. -1.
         21   -1    0    0  502  503 -0.00000000000E+00 -0.00000000000E+00 -0.30778210649E+03  0.30778210649E+03  0.00000000000E+00 0. -1.
    9000007    1    1    2  501    0  0.74166967187E+02 -0.80402362215E+02  0.41841387236E+03  0.58909714603E+03  0.40000000000E+03 0. -1.
   -9000007    1    1    2    0  503 -0.74166967187E+02  0.80402362215E+02 -0.29169345094E+02  0.41571159421E+03  0.40000000000E+03 0. -1.
<mgrwt>
<rscale>  2 0.41468696E+03</rscale>
<asrwt>0</asrwt>
<pdfrwt beam="1">  1       21 0.10723487E+00 0.41468696E+03</pdfrwt>
<pdfrwt beam="2">  1       21 0.47351094E-01 0.41468696E+03</pdfrwt>
<totfact> 0.26012678E+03</totfact>
</mgrwt>
</event>
<event>
 4    1  0.4758602E-002  0.4184316E+03  0.7818608E-02  0.1037578E+00
         21   -1    0    0  503  502  0.00000000000E+00  0.00000000000E+00  0.10763840449E+03  0.10763840449E+03  0.00000000000E+00 0. -1.
         21   -1    0    0  501  503 -0.00000000000E+00 -0.00000000000E+00 -0.19291102307E+04  0.19291102307E+04  0.00000000000E+00 0. -1.
    9000007    1    1    2  501    0  0.91618243833E+02 -0.81799079016E+02 -0.50746534453E+03  0.65772795883E+03  0.40000000000E+03 0.  1.
   -9000007    1    1    2    0  502 -0.91618243833E+02  0.81799079016E+02 -0.13140064817E+04  0.13790206764E+04  0.40000000000E+03 0.  1.
<mgrwt>
<rscale>  2 0.41843159E+03</rscale>
<asrwt>0</asrwt>
<pdfrwt beam="1">  1       21 0.16559756E-01 0.41843159E+03</pdfrwt>
<pdfrwt beam="2">  1       21 0.29678617E+00 0.41843159E+03</pdfrwt>
<totfact> 0.95832126E+02</totfact>
</mgrwt>
</event>
<event>
 4    1  0.4758602E-002  0.5194314E+03  0.7818608E-02  0.1008828E+00
         21   -1    0    0  501  502  0.00000000000E+00  0.00000000000E+00  0.76570319706E+03  0.76570319706E+03  0.00000000000E+00 0.  1.
         21   -1    0    0  502  503 -0.00000000000E+00 -0.00000000000E+00 -0.11387028213E+04  0.11387028213E+04  0.00000000000E+00 0. -1.
    9000007    1    1    2  501    0 -0.23769581223E+01  0.33136583545E+03  0.60477661324E+03  0.79722250267E+03  0.40000000000E+03 0.  1.
   -9000007    1    1    2    0  503  0.23769581223E+01 -0.33136583545E+03 -0.97777623743E+03  0.11071835156E+04  0.40000000000E+03 0. -1.
<mgrwt>
<rscale>  2 0.51943139E+03</rscale>
<asrwt>0</asrwt>
<pdfrwt beam="1">  1       21 0.11780049E+00 0.51943139E+03</pdfrwt>
<pdfrwt beam="2">  1       21 0.17518505E+00 0.51943139E+03</pdfrwt>
<totfact> 0.83360035E+01</totfact>
</mgrwt>
</event>
<event>
 4    1  0.4758602E-002  0.4685422E+03  0.7818608E-02  0.1022332E+00
         21   -1    0    0  501  502  0.00000000000E+00  0.00000000000E+00  0.90914439539E+03  0.90914439539E+03  0.00000000000E+00 0. -1.
         21   -1    0    0  502  503 -0.00000000000E+00 -0.00000000000E+00 -0.24652296309E+03  0.24652296309E+03  0.00000000000E+00 0. -1.
    9000007    1    1    2  501    0 -0.12350736197E+03  0.21042279828E+03  0.41403117522E+03  0.62526285396E+03  0.40000000000E+03 0. -1.
   -9000007    1    1    2    0  503  0.12350736197E+03 -0.21042279828E+03  0.24859025708E+03  0.53040450452E+03  0.40000000000E+03 0. -1.
<mgrwt>
<rscale>  2 0.46854223E+03</rscale>
<asrwt>0</asrwt>
<pdfrwt beam="1">  1       21 0.13986837E+00 0.46854223E+03</pdfrwt>
<pdfrwt beam="2">  1       21 0.37926610E-01 0.46854223E+03</pdfrwt>
<totfact> 0.20497350E+03</totfact>
</mgrwt>
</event>
<event>
 4    1  0.4758602E-002  0.5218247E+03  0.7818608E-02  0.1008234E+00
         21   -1    0    0  503  502  0.00000000000E+00  0.00000000000E+00  0.22706188485E+03  0.22706188485E+03  0.00000000000E+00 0.  1.
         21   -1    0    0  501  503 -0.00000000000E+00 -0.00000000000E+00 -0.12002346569E+04  0.12002346569E+04  0.00000000000E+00 0.  1.
    9000007    1    1    2  501    0 -0.32602810653E+03 -0.77502824214E+02 -0.46601131409E+03  0.69961958153E+03  0.40000000000E+03 0.  1.
   -9000007    1    1    2    0  502  0.32602810653E+03  0.77502824214E+02 -0.50716145800E+03  0.72767696026E+03  0.40000000000E+03 0.  1.
<mgrwt>
<rscale>  2 0.52182470E+03</rscale>
<asrwt>0</asrwt>
<pdfrwt beam="1">  1       21 0.34932598E-01 0.52182470E+03</pdfrwt>
<pdfrwt beam="2">  1       21 0.18465148E+00 0.52182470E+03</pdfrwt>
<totfact> 0.10903957E+03</totfact>
</mgrwt>
</event>
<event>
 4    1  0.4758602E-002  0.4011567E+03  0.7818608E-02  0.1043380E+00
         21   -1    0    0  501  502  0.00000000000E+00  0.00000000000E+00  0.62329769173E+03  0.62329769173E+03  0.00000000000E+00 0.  1.
         21   -1    0    0  502  503 -0.00000000000E+00 -0.00000000000E+00 -0.13356471384E+04  0.13356471384E+04  0.00000000000E+00 0. -1.
    9000007    1    1    2  501    0  0.43907979831E+01 -0.30123177149E+02  0.52355074495E+03  0.65956960774E+03  0.40000000000E+03 0.  1.
   -9000007    1    1    2    0  503 -0.43907979831E+01  0.30123177149E+02 -0.12359001916E+04  0.12993752224E+04  0.40000000000E+03 0. -1.
<mgrwt>
<rscale>  2 0.40115668E+03</rscale>
<asrwt>0</asrwt>
<pdfrwt beam="1">  1       21 0.95891954E-01 0.40115668E+03</pdfrwt>
<pdfrwt beam="2">  1       21 0.20548417E+00 0.40115668E+03</pdfrwt>
<totfact> 0.91762361E+01</totfact>
</mgrwt>
</event>
<event>
 4    1  0.4758602E-002  0.7096171E+03  0.7818608E-02  0.9700926E-01
         21   -1    0    0  501  502  0.00000000000E+00  0.00000000000E+00  0.36216455788E+03  0.36216455788E+03  0.00000000000E+00 0.  1.
         21   -1    0    0  502  503 -0.00000000000E+00 -0.00000000000E+00 -0.14211445866E+04  0.14211445866E+04  0.00000000000E+00 0. -1.
    9000007    1    1    2  501    0 -0.26300179660E+03  0.52381914937E+03 -0.39835872029E+03  0.81378505534E+03  0.40000000000E+03 0.  1.
   -9000007    1    1    2    0  503  0.26300179660E+03 -0.52381914937E+03 -0.66062130843E+03  0.96952408914E+03  0.40000000000E+03 0. -1.
<mgrwt>
<rscale>  2 0.70961711E+03</rscale>
<asrwt>0</asrwt>
<pdfrwt beam="1">  1       21 0.55717625E-01 0.70961711E+03</pdfrwt>
<pdfrwt beam="2">  1       21 0.21863763E+00 0.70961711E+03</pdfrwt>
<totfact> 0.22556376E+02</totfact>
</mgrwt>
</event>
<event>
 4    1  0.4758602E-002  0.4094230E+03  0.7818608E-02  0.1040565E+00
         21   -1    0    0  501  502  0.00000000000E+00  0.00000000000E+00  0.12099217411E+04  0.12099217411E+04  0.00000000000E+00 0. -1.
         21   -1    0    0  502  503 -0.00000000000E+00 -0.00000000000E+00 -0.13868919990E+03  0.13868919990E+03  0.00000000000E+00 0.  1.
    9000007    1    1    2  501    0 -0.84404115833E+02 -0.22430064482E+02  0.55744904675E+03  0.69164774437E+03  0.40000000000E+03 0.  1.
   -9000007    1    1    2    0  503  0.84404115833E+02  0.22430064482E+02  0.51378349442E+03  0.65696319661E+03  0.40000000000E+03 0. -1.
<mgrwt>
<rscale>  2 0.40942296E+03</rscale>
<asrwt>0</asrwt>
<pdfrwt beam="1">  1       21 0.18614180E+00 0.40942296E+03</pdfrwt>
<pdfrwt beam="2">  1       21 0.21336801E-01 0.40942296E+03</pdfrwt>
<totfact> 0.29406976E+03</totfact>
</mgrwt>
</event>
<event>
 4    1  0.4758602E-002  0.7632551E+03  0.7818608E-02  0.9614782E-01
         21   -1    0    0  503  502  0.00000000000E+00  0.00000000000E+00  0.82525981040E+03  0.82525981040E+03  0.00000000000E+00 0.  1.
         21   -1    0    0  501  503 -0.00000000000E+00 -0.00000000000E+00 -0.13928961445E+04  0.13928961445E+04  0.00000000000E+00 0. -1.
    9000007    1    1    2  501    0  0.59668735120E+03  0.25791972334E+03 -0.10627097292E+04  0.13083999187E+04  0.40000000000E+03 0. -1.
   -9000007    1    1    2    0  502 -0.59668735120E+03 -0.25791972334E+03  0.49507339512E+03  0.90975603616E+03  0.40000000000E+03 0.  1.
<mgrwt>
<rscale>  2 0.76325512E+03</rscale>
<asrwt>0</asrwt>
<pdfrwt beam="1">  1       21 0.12696305E+00 0.76325512E+03</pdfrwt>
<pdfrwt beam="2">  1       21 0.21429171E+00 0.76325512E+03</pdfrwt>
<totfact> 0.33431408E+01</totfact>
</mgrwt>
</event>
<event>
 4    1  0.4758602E-002  0.4015174E+03  0.7818608E-02  0.1043256E+00
         21   -1    0    0  503  502  0.00000000000E+00  0.00000000000E+00  0.53218474461E+03  0.53218474461E+03  0.00000000000E+00 0.  1.
         21   -1    0    0  501  503 -0.00000000000E+00 -0.00000000000E+00 -0.36131790063E+03  0.36131790063E+03  0.00000000000E+00 0.  1.
    9000007    1    1    2  501    0 -0.13265544160E+01 -0.34849288607E+02  0.26501922443E+03  0.48109398456E+03  0.40000000000E+03 0.  1.
   -9000007    1    1    2    0  502  0.13265544160E+01  0.34849288607E+02 -0.94152380439E+02  0.41240866068E+03  0.40000000000E+03 0.  1.
<mgrwt>
<rscale>  2 0.40151741E+03</rscale>
<asrwt>0</asrwt>
<pdfrwt beam="1">  1       21 0.81874576E-01 0.40151741E+03</pdfrwt>
<pdfrwt beam="2">  1       21 0.55587369E-01 0.40151741E+03</pdfrwt>
<totfact> 0.35381793E+03</totfact>
</mgrwt>
</event>
<event>
 4    1  0.4758602E-002  0.4493875E+03  0.7818608E-02  0.1027905E+00
         21   -1    0    0  501  502  0.00000000000E+00  0.00000000000E+00  0.73770947327E+03  0.73770947327E+03  0.00000000000E+00 0.  1.
         21   -1    0    0  502  503 -0.00000000000E+00 -0.00000000000E+00 -0.39961972564E+03  0.39961972564E+03  0.00000000000E+00 0.  1.
    9000007    1    1    2  501    0  0.20007316952E+03  0.43815971698E+02  0.48819182622E+03  0.66353626256E+03  0.40000000000E+03 0.  1.
   -9000007    1    1    2    0  503 -0.20007316952E+03 -0.43815971698E+02 -0.15010207860E+03  0.47379293635E+03  0.40000000000E+03 0.  1.
<mgrwt>
<rscale>  2 0.44938749E+03</rscale>
<asrwt>0</asrwt>
<pdfrwt beam="1">  1       21 0.11349377E+00 0.44938749E+03</pdfrwt>
<pdfrwt beam="2">  1       21 0.61479958E-01 0.44938749E+03</pdfrwt>
<totfact> 0.12707497E+03</totfact>
</mgrwt>
</event>
<event>
 4    1  0.4758602E-002  0.4850958E+03  0.7818608E-02  0.1017744E+00
         21   -1    0    0  501  502  0.00000000000E+00  0.00000000000E+00  0.27823292817E+04  0.27823292817E+04  0.00000000000E+00 0. -1.
         21   -1    0    0  502  503 -0.00000000000E+00 -0.00000000000E+00 -0.84762936423E+02  0.84762936423E+02  0.00000000000E+00 0. -1.
    9000007    1    1    2  501    0  0.14455971474E+03  0.23328177685E+03  0.14161297281E+04  0.14969105870E+04  0.40000000000E+03 0. -1.
   -9000007    1    1    2    0  503 -0.14455971474E+03 -0.23328177685E+03  0.12814366171E+04  0.13701816311E+04  0.40000000000E+03 0. -1.
<mgrwt>
<rscale>  2 0.48509576E+03</rscale>
<asrwt>0</asrwt>
<pdfrwt beam="1">  1       21 0.42805059E+00 0.48509576E+03</pdfrwt>
<pdfrwt beam="2">  1       21 0.13040454E-01 0.48509576E+03</pdfrwt>
<totfact> 0.21774604E+02</totfact>
</mgrwt>
</event>
<event>
 4    1  0.4758602E-002  0.4136640E+03  0.7818608E-02  0.1039148E+00
         21   -1    0    0  503  502  0.00000000000E+00  0.00000000000E+00  0.50252798705E+03  0.50252798705E+03  0.00000000000E+00 0.  1.
         21   -1    0    0  501  503 -0.00000000000E+00 -0.00000000000E+00 -0.66049593421E+03  0.66049593421E+03  0.00000000000E+00 0.  1.
    9000007    1    1    2  501    0 -0.10500713299E+03 -0.95593246660E+01 -0.48373338057E+03  0.63648712646E+03  0.40000000000E+03 0.  1.
   -9000007    1    1    2    0  502  0.10500713299E+03  0.95593246660E+01  0.32576543342E+03  0.52653679480E+03  0.40000000000E+03 0.  1.
<mgrwt>
<rscale>  2 0.41366397E+03</rscale>
<asrwt>0</asrwt>
<pdfrwt beam="1">  1       21 0.77311998E-01 0.41366397E+03</pdfrwt>
<pdfrwt beam="2">  1       21 0.10161476E+00 0.41366397E+03</pdfrwt>
<totfact> 0.10134977E+03</totfact>
</mgrwt>
</event>
<event>
 4    1  0.4758602E-002  0.4423298E+03  0.7818608E-02  0.1030034E+00
         21   -1    0    0  501  502  0.00000000000E+00  0.00000000000E+00  0.11435148397E+04  0.11435148397E+04  0.00000000000E+00 0. -1.
         21   -1    0    0  502  503 -0.00000000000E+00 -0.00000000000E+00 -0.50289315499E+03  0.50289315499E+03  0.00000000000E+00 0.  1.
    9000007    1    1    2  501    0 -0.17982515617E+03 -0.57607366295E+02  0.98896745540E+03  0.10833800456E+04  0.40000000000E+03 0. -1.
   -9000007    1    1    2    0  503  0.17982515617E+03  0.57607366295E+02 -0.34834577070E+03  0.56302794904E+03  0.40000000000E+03 0.  1.
<mgrwt>
<rscale>  2 0.44232985E+03</rscale>
<asrwt>0</asrwt>
<pdfrwt beam="1">  1       21 0.17592536E+00 0.44232985E+03</pdfrwt>
<pdfrwt beam="2">  1       21 0.77368178E-01 0.44232985E+03</pdfrwt>
<totfact> 0.23564716E+02</totfact>
</mgrwt>
</event>
<event>
 4    1  0.4758602E-002  0.4831198E+03  0.7818608E-02  0.1018281E+00
         21   -1    0    0  501  502  0.00000000000E+00  0.00000000000E+00  0.14878290567E+04  0.14878290567E+04  0.00000000000E+00 0. -1.
         21   -1    0    0  502  503 -0.00000000000E+00 -0.00000000000E+00 -0.15794759729E+03  0.15794759729E+03  0.00000000000E+00 0. -1.
    9000007    1    1    2  501    0 -0.20840829679E+03 -0.17312058796E+03  0.73271870784E+03  0.87765680136E+03  0.40000000000E+03 0. -1.
   -9000007    1    1    2    0  503  0.20840829679E+03  0.17312058796E+03  0.59716275153E+03  0.76811985260E+03  0.40000000000E+03 0. -1.
<mgrwt>
<rscale>  2 0.48311982E+03</rscale>
<asrwt>0</asrwt>
<pdfrwt beam="1">  1       21 0.22889677E+00 0.48311982E+03</pdfrwt>
<pdfrwt beam="2">  1       21 0.24299631E-01 0.48311982E+03</pdfrwt>
<totfact> 0.11604119E+03</totfact>
</mgrwt>
</event>
<event>
 4    1  0.4758602E-002  0.5017804E+03  0.7818608E-02  0.1013315E+00
         21   -1    0    0  501  502  0.00000000000E+00  0.00000000000E+00  0.29910865448E+03  0.29910865448E+03  0.00000000000E+00 0.  1.
         21   -1    0    0  502  503 -0.00000000000E+00 -0.00000000000E+00 -0.12603992867E+04  0.12603992867E+04  0.00000000000E+00 0. -1.
    9000007    1    1    2  501    0 -0.30063549088E+03  0.37440987819E+02 -0.31265657582E+02  0.50275348561E+03  0.40000000000E+03 0.  1.
   -9000007    1    1    2    0  503  0.30063549088E+03 -0.37440987819E+02 -0.93002497468E+03  0.10567544556E+04  0.40000000000E+03 0. -1.
<mgrwt>
<rscale>  2 0.50178036E+03</rscale>
<asrwt>0</asrwt>
<pdfrwt beam="1">  1       21 0.46016716E-01 0.50178036E+03</pdfrwt>
<pdfrwt beam="2">  1       21 0.19390758E+00 0.50178036E+03</pdfrwt>
<totfact> 0.53692012E+02</totfact>
</mgrwt>
</event>
<event>
 4    1  0.4758602E-002  0.4609772E+03  0.7818608E-02  0.1024498E+00
         21   -1    0    0  501  502  0.00000000000E+00  0.00000000000E+00  0.20657672500E+03  0.20657672500E+03  0.00000000000E+00 0.  1.
         21   -1    0    0  502  503 -0.00000000000E+00 -0.00000000000E+00 -0.10544435456E+04  0.10544435456E+04  0.00000000000E+00 0.  1.
    9000007    1    1    2  501    0 -0.11348933767E+03  0.19904819382E+03 -0.52250177943E+03  0.69678412922E+03  0.40000000000E+03 0.  1.
   -9000007    1    1    2    0  503  0.11348933767E+03 -0.19904819382E+03 -0.32536504117E+03  0.56423614138E+03  0.40000000000E+03 0.  1.
<mgrwt>
<rscale>  2 0.46097724E+03</rscale>
<asrwt>0</asrwt>
<pdfrwt beam="1">  1       21 0.31781035E-01 0.46097724E+03</pdfrwt>
<pdfrwt beam="2">  1       21 0.16222208E+00 0.46097724E+03</pdfrwt>
<totfact> 0.19618918E+03</totfact>
</mgrwt>
</event>
<event>
 4    1  0.4758602E-002  0.4359218E+03  0.7818608E-02  0.1032005E+00
         21   -1    0    0  503  502  0.00000000000E+00  0.00000000000E+00  0.10265725258E+04  0.10265725258E+04  0.00000000000E+00 0. -1.
         21   -1    0    0  501  503 -0.00000000000E+00 -0.00000000000E+00 -0.34887223653E+03  0.34887223653E+03  0.00000000000E+00 0. -1.
    9000007    1    1    2  501    0 -0.92831103321E+02 -0.14632226017E+03 -0.13233127349E+03  0.45556490592E+03  0.40000000000E+03 0. -1.
   -9000007    1    1    2    0  502  0.92831103321E+02  0.14632226017E+03  0.81003156276E+03  0.91987985642E+03  0.40000000000E+03 0. -1.
<mgrwt>
<rscale>  2 0.43592180E+03</rscale>
<asrwt>0</asrwt>
<pdfrwt beam="1">  1       21 0.15793423E+00 0.43592180E+03</pdfrwt>
<pdfrwt beam="2">  1       21 0.53672652E-01 0.43592180E+03</pdfrwt>
<totfact> 0.72181434E+02</totfact>
</mgrwt>
</event>
<event>
 4    1  0.4758602E-002  0.4281964E+03  0.7818608E-02  0.1034431E+00
         21   -1    0    0  503  502  0.00000000000E+00  0.00000000000E+00  0.13507817336E+04  0.13507817336E+04  0.00000000000E+00 0.  1.
         21   -1    0    0  501  503 -0.00000000000E+00 -0.00000000000E+00 -0.17580833615E+03  0.17580833615E+03  0.00000000000E+00 0.  1.
    9000007    1    1    2  501    0 -0.10706216365E+03  0.10904043618E+03  0.22308083965E+03  0.48282210453E+03  0.40000000000E+03 0.  1.
   -9000007    1    1    2    0  502  0.10706216365E+03 -0.10904043618E+03  0.95189255784E+03  0.10437679652E+04  0.40000000000E+03 0.  1.
<mgrwt>
<rscale>  2 0.42819636E+03</rscale>
<asrwt>0</asrwt>
<pdfrwt beam="1">  1       21 0.20781257E+00 0.42819636E+03</pdfrwt>
<pdfrwt beam="2">  1       21 0.27047437E-01 0.42819636E+03</pdfrwt>
<totfact> 0.13186997E+03</totfact>
</mgrwt>
</event>
<event>
 4    1  0.4758602E-002  0.4100725E+03  0.7818608E-02  0.1040347E+00
         21   -1    0    0  501  502  0.00000000000E+00  0.00000000000E+00  0.16622595698E+04  0.16622595698E+04  0.00000000000E+00 0.  1.
         21   -1    0    0  502  503 -0.00000000000E+00 -0.00000000000E+00 -0.16898659788E+03  0.16898659788E+03  0.00000000000E+00 0.  1.
    9000007    1    1    2  501    0  0.37196071893E+02  0.82315837739E+02  0.13267065786E+04  0.13886359460E+04  0.40000000000E+03 0.  1.
   -9000007    1    1    2    0  503 -0.37196071893E+02 -0.82315837739E+02  0.16656639328E+03  0.44261022161E+03  0.40000000000E+03 0.  1.
<mgrwt>
<rscale>  2 0.41007249E+03</rscale>
<asrwt>0</asrwt>
<pdfrwt beam="1">  1       21 0.25573223E+00 0.41007249E+03</pdfrwt>
<pdfrwt beam="2">  1       21 0.25997939E-01 0.41007249E+03</pdfrwt>
<totfact> 0.71968020E+02</totfact>
</mgrwt>
</event>
<event>
 4    1  0.4758602E-002  0.4438215E+03  0.7818608E-02  0.1029581E+00
         21   -1    0    0  501  502  0.00000000000E+00  0.00000000000E+00  0.66426014673E+03  0.66426014673E+03  0.00000000000E+00 0.  1.
         21   -1    0    0  502  503 -0.00000000000E+00 -0.00000000000E+00 -0.29920272017E+03  0.29920272017E+03  0.00000000000E+00 0.  1.
    9000007    1    1    2  501    0 -0.10182390908E+03  0.16312380834E+03  0.22800208814E+03  0.49896135873E+03  0.40000000000E+03 0.  1.
   -9000007    1    1    2    0  503  0.10182390908E+03 -0.16312380834E+03  0.13705533842E+03  0.46450150818E+03  0.40000000000E+03 0.  1.
<mgrwt>
<rscale>  2 0.44382146E+03</rscale>
<asrwt>0</asrwt>
<pdfrwt beam="1">  1       21 0.10219387E+00 0.44382146E+03</pdfrwt>
<pdfrwt beam="2">  1       21 0.46031188E-01 0.44382146E+03</pdfrwt>
<totfact> 0.30731826E+03</totfact>
</mgrwt>
</event>
<event>
 4    1  0.4758602E-002  0.9142909E+03  0.7818608E-02  0.9407891E-01
         21   -1    0    0  503  502  0.00000000000E+00  0.00000000000E+00  0.17541406120E+04  0.17541406120E+04  0.00000000000E+00 0. -1.
         21   -1    0    0  501  503 -0.00000000000E+00 -0.00000000000E+00 -0.48037597568E+03  0.48037597568E+03  0.00000000000E+00 0.  1.
    9000007    1    1    2  501    0  0.31208092132E+03  0.76061382719E+03  0.53711536750E+03  0.10603871055E+04  0.40000000000E+03 0.  1.
   -9000007    1    1    2    0  502 -0.31208092132E+03 -0.76061382719E+03  0.73664926877E+03  0.11741294821E+04  0.40000000000E+03 0. -1.
<mgrwt>
<rscale>  2 0.91429093E+03</rscale>
<asrwt>0</asrwt>
<pdfrwt beam="1">  1       21 0.26986778E+00 0.91429093E+03</pdfrwt>
<pdfrwt beam="2">  1       21 0.73903997E-01 0.91429093E+03</pdfrwt>
<totfact> 0.53028152E+01</totfact>
</mgrwt>
</event>
<event>
 4    1  0.4758602E-002  0.4532489E+03  0.7818608E-02  0.1026758E+00
         21   -1    0    0  503  502  0.00000000000E+00  0.00000000000E+00  0.59569279332E+03  0.59569279332E+03  0.00000000000E+00 0. -1.
         21   -1    0    0  501  503 -0.00000000000E+00 -0.00000000000E+00 -0.34567330589E+03  0.34567330589E+03  0.00000000000E+00 0.  1.
    9000007    1    1    2  501    0  0.16481972861E+03  0.13516298370E+03  0.10227232653E+03  0.46464416910E+03  0.40000000000E+03 0. -1.
   -9000007    1    1    2    0  502 -0.16481972861E+03 -0.13516298370E+03  0.14774716090E+03  0.47672193012E+03  0.40000000000E+03 0. -1.
<mgrwt>
<rscale>  2 0.45324891E+03</rscale>
<asrwt>0</asrwt>
<pdfrwt beam="1">  1       21 0.91645045E-01 0.45324891E+03</pdfrwt>
<pdfrwt beam="2">  1       21 0.53180509E-01 0.45324891E+03</pdfrwt>
<totfact> 0.29305145E+03</totfact>
</mgrwt>
</event>
<event>
 4    1  0.4758602E-002  0.4879730E+03  0.7818608E-02  0.1016967E+00
         21   -1    0    0  501  502  0.00000000000E+00  0.00000000000E+00  0.11169063677E+04  0.11169063677E+04  0.00000000000E+00 0.  1.
         21   -1    0    0  502  503 -0.00000000000E+00 -0.00000000000E+00 -0.46593926623E+03  0.46593926623E+03  0.00000000000E+00 0.  1.
    9000007    1    1    2  501    0 -0.27435589136E+03  0.53352084688E+02  0.90837210974E+03  0.10311437775E+04  0.40000000000E+03 0.  1.
   -9000007    1    1    2    0  503  0.27435589136E+03 -0.53352084688E+02 -0.25740500831E+03  0.55170185641E+03  0.40000000000E+03 0.  1.
<mgrwt>
<rscale>  2 0.48797295E+03</rscale>
<asrwt>0</asrwt>
<pdfrwt beam="1">  1       21 0.17183175E+00 0.48797295E+03</pdfrwt>
<pdfrwt beam="2">  1       21 0.71682964E-01 0.48797295E+03</pdfrwt>
<totfact> 0.29342149E+02</totfact>
</mgrwt>
</event>
<event>
 4    1  0.4758602E-002  0.5588518E+03  0.7818608E-02  0.9994656E-01
         21   -1    0    0  501  502  0.00000000000E+00  0.00000000000E+00  0.29112171415E+03  0.29112171415E+03  0.00000000000E+00 0.  1.
         21   -1    0    0  502  503 -0.00000000000E+00 -0.00000000000E+00 -0.11496638049E+04  0.11496638049E+04  0.00000000000E+00 0. -1.
    9000007    1    1    2  501    0 -0.37850107004E+03 -0.95143623195E+02 -0.24300019100E+03  0.60939680167E+03  0.40000000000E+03 0.  1.
   -9000007    1    1    2    0  503  0.37850107004E+03  0.95143623195E+02 -0.61554189980E+03  0.83138871743E+03  0.40000000000E+03 0. -1.
<mgrwt>
<rscale>  2 0.55885183E+03</rscale>
<asrwt>0</asrwt>
<pdfrwt beam="1">  1       21 0.44787955E-01 0.55885183E+03</pdfrwt>
<pdfrwt beam="2">  1       21 0.17687136E+00 0.55885183E+03</pdfrwt>
<totfact> 0.73087678E+02</totfact>
</mgrwt>
</event>
<event>
 4    1  0.4758602E-002  0.5222568E+03  0.7818608E-02  0.1008127E+00
         21   -1    0    0  501  502  0.00000000000E+00  0.00000000000E+00  0.41989399287E+03  0.41989399287E+03  0.00000000000E+00 0. -1.
         21   -1    0    0  502  503 -0.00000000000E+00 -0.00000000000E+00 -0.71443839048E+03  0.71443839048E+03  0.00000000000E+00 0. -1.
    9000007    1    1    2  501    0  0.33438298483E+03 -0.30662960346E+02  0.23623564470E+02  0.52279084774E+03  0.40000000000E+03 0. -1.
   -9000007    1    1    2    0  503 -0.33438298483E+03  0.30662960346E+02 -0.31816796209E+03  0.61154153561E+03  0.40000000000E+03 0. -1.
<mgrwt>
<rscale>  2 0.52225683E+03</rscale>
<asrwt>0</asrwt>
<pdfrwt beam="1">  1       21 0.64599076E-01 0.52225683E+03</pdfrwt>
<pdfrwt beam="2">  1       21 0.10991360E+00 0.52225683E+03</pdfrwt>
<totfact> 0.12004906E+03</totfact>
</mgrwt>
</event>
<event>
 4    1  0.4758602E-002  0.4318807E+03  0.7818608E-02  0.1033268E+00
         21   -1    0    0  503  502  0.00000000000E+00  0.00000000000E+00  0.24239800690E+04  0.24239800690E+04  0.00000000000E+00 0. -1.
         21   -1    0    0  501  503 -0.00000000000E+00 -0.00000000000E+00 -0.15011513552E+03  0.15011513552E+03  0.00000000000E+00 0. -1.
    9000007    1    1    2  501    0 -0.15025938041E+03  0.62793914348E+02  0.23838766647E+03  0.49330481105E+03  0.40000000000E+03 0. -1.
   -9000007    1    1    2    0  502  0.15025938041E+03 -0.62793914348E+02  0.20354772670E+04  0.20807903935E+04  0.40000000000E+03 0. -1.
<mgrwt>
<rscale>  2 0.43188072E+03</rscale>
<asrwt>0</asrwt>
<pdfrwt beam="1">  1       21 0.37291998E+00 0.43188072E+03</pdfrwt>
<pdfrwt beam="2">  1       21 0.23094638E-01 0.43188072E+03</pdfrwt>
<totfact> 0.17409071E+02</totfact>
</mgrwt>
</event>
<event>
 4    1  0.4758602E-002  0.7048085E+03  0.7818608E-02  0.9709044E-01
         21   -1    0    0  503  502  0.00000000000E+00  0.00000000000E+00  0.50620610485E+03  0.50620610485E+03  0.00000000000E+00 0. -1.
         21   -1    0    0  501  503 -0.00000000000E+00 -0.00000000000E+00 -0.14072021806E+04  0.14072021806E+04  0.00000000000E+00 0. -1.
    9000007    1    1    2  501    0  0.47969716559E+03 -0.32656648949E+03 -0.97680514672E+03  0.12045344899E+04  0.40000000000E+03 0. -1.
   -9000007    1    1    2    0  502 -0.47969716559E+03  0.32656648949E+03  0.75809070976E+02  0.70887379552E+03  0.40000000000E+03 0. -1.
<mgrwt>
<rscale>  2 0.70480851E+03</rscale>
<asrwt>0</asrwt>
<pdfrwt beam="1">  1       21 0.77877862E-01 0.70480851E+03</pdfrwt>
<pdfrwt beam="2">  1       21 0.21649264E+00 0.70480851E+03</pdfrwt>
<totfact> 0.10982028E+02</totfact>
</mgrwt>
</event>
<event>
 4    1  0.4758602E-002  0.4302238E+03  0.7818608E-02  0.1033789E+00
         21   -1    0    0  501  502  0.00000000000E+00  0.00000000000E+00  0.10749958937E+04  0.10749958937E+04  0.00000000000E+00 0.  1.
         21   -1    0    0  502  503 -0.00000000000E+00 -0.00000000000E+00 -0.44663563981E+03  0.44663563981E+03  0.00000000000E+00 0.  1.
    9000007    1    1    2  501    0 -0.21034083322E+02 -0.15700352213E+03  0.91058211645E+03  0.10071009529E+04  0.40000000000E+03 0.  1.
   -9000007    1    1    2    0  503  0.21034083322E+02  0.15700352213E+03 -0.28222186257E+03  0.51453058056E+03  0.40000000000E+03 0.  1.
<mgrwt>
<rscale>  2 0.43022382E+03</rscale>
<asrwt>0</asrwt>
<pdfrwt beam="1">  1       21 0.16538398E+00 0.43022382E+03</pdfrwt>
<pdfrwt beam="2">  1       21 0.68713176E-01 0.43022382E+03</pdfrwt>
<totfact> 0.37006485E+02</totfact>
</mgrwt>
</event>
<event>
 4    1  0.4758602E-002  0.4961005E+03  0.7818608E-02  0.1014802E+00
         21   -1    0    0  503  502  0.00000000000E+00  0.00000000000E+00  0.20172398806E+04  0.20172398806E+04  0.00000000000E+00 0. -1.
         21   -1    0    0  501  503 -0.00000000000E+00 -0.00000000000E+00 -0.15051529943E+03  0.15051529943E+03  0.00000000000E+00 0. -1.
    9000007    1    1    2  501    0 -0.26476801576E+03 -0.12654470446E+03  0.46164470133E+03  0.67766621184E+03  0.40000000000E+03 0. -1.
   -9000007    1    1    2    0  502  0.26476801576E+03  0.12654470446E+03  0.14050798799E+04  0.14900889682E+04  0.40000000000E+03 0. -1.
<mgrwt>
<rscale>  2 0.49610046E+03</rscale>
<asrwt>0</asrwt>
<pdfrwt beam="1">  1       21 0.31034458E+00 0.49610046E+03</pdfrwt>
<pdfrwt beam="2">  1       21 0.23156201E-01 0.49610046E+03</pdfrwt>
<totfact> 0.40221150E+02</totfact>
</mgrwt>
</event>
<event>
 4    1  0.4758602E-002  0.5460877E+03  0.7818608E-02  0.1002404E+00
         21   -1    0    0  501  502  0.00000000000E+00  0.00000000000E+00  0.29885324424E+04  0.29885324424E+04  0.00000000000E+00 0.  1.
         21   -1    0    0  502  503 -0.00000000000E+00 -0.00000000000E+00 -0.15671892144E+03  0.15671892144E+03  0.00000000000E+00 0.  1.
    9000007    1    1    2  501    0  0.34376808151E+03 -0.14154601702E+03  0.23637769041E+04  0.24260364839E+04  0.40000000000E+03 0.  1.
   -9000007    1    1    2    0  503 -0.34376808151E+03  0.14154601702E+03  0.46803661682E+03  0.71921487991E+03  0.40000000000E+03 0.  1.
<mgrwt>
<rscale>  2 0.54608769E+03</rscale>
<asrwt>0</asrwt>
<pdfrwt beam="1">  1       21 0.45977418E+00 0.54608769E+03</pdfrwt>
<pdfrwt beam="2">  1       21 0.24110605E-01 0.54608769E+03</pdfrwt>
<totfact> 0.40158838E+01</totfact>
</mgrwt>
</event>
<event>
 4    1  0.4758602E-002  0.4517914E+03  0.7818608E-02  0.1027189E+00
         21   -1    0    0  501  502  0.00000000000E+00  0.00000000000E+00  0.10334965417E+03  0.10334965417E+03  0.00000000000E+00 0.  1.
         21   -1    0    0  502  503 -0.00000000000E+00 -0.00000000000E+00 -0.20532487355E+04  0.20532487355E+04  0.00000000000E+00 0.  1.
    9000007    1    1    2  501    0  0.19355200103E+03 -0.81566701881E+02 -0.76444626641E+03  0.88797162015E+03  0.40000000000E+03 0.  1.
   -9000007    1    1    2    0  503 -0.19355200103E+03  0.81566701881E+02 -0.11854528149E+04  0.12686267695E+04  0.40000000000E+03 0.  1.
<mgrwt>
<rscale>  2 0.45179144E+03</rscale>
<asrwt>0</asrwt>
<pdfrwt beam="1">  1       21 0.15899947E-01 0.45179144E+03</pdfrwt>
<pdfrwt beam="2">  1       21 0.31588443E+00 0.45179144E+03</pdfrwt>
<totfact> 0.77897536E+02</totfact>
</mgrwt>
</event>
<event>
 4    1  0.4758602E-002  0.4416146E+03  0.7818608E-02  0.1030253E+00
         21   -1    0    0  501  502  0.00000000000E+00  0.00000000000E+00  0.23449139271E+04  0.23449139271E+04  0.00000000000E+00 0. -1.
         21   -1    0    0  502  503 -0.00000000000E+00 -0.00000000000E+00 -0.18762142033E+03  0.18762142033E+03  0.00000000000E+00 0. -1.
    9000007    1    1    2  501    0 -0.18714211551E+03  0.11167895809E+01  0.20234556620E+04  0.20710857623E+04  0.40000000000E+03 0. -1.
   -9000007    1    1    2    0  503  0.18714211551E+03 -0.11167895809E+01  0.13383684477E+03  0.46144958515E+03  0.40000000000E+03 0. -1.
<mgrwt>
<rscale>  2 0.44161456E+03</rscale>
<asrwt>0</asrwt>
<pdfrwt beam="1">  1       21 0.36075597E+00 0.44161456E+03</pdfrwt>
<pdfrwt beam="2">  1       21 0.28864836E-01 0.44161456E+03</pdfrwt>
<totfact> 0.13315851E+02</totfact>
</mgrwt>
</event>
<event>
 4    1  0.4758602E-002  0.4173363E+03  0.7818608E-02  0.1037937E+00
         21   -1    0    0  501  502  0.00000000000E+00  0.00000000000E+00  0.61042825574E+03  0.61042825574E+03  0.00000000000E+00 0.  1.
         21   -1    0    0  502  503 -0.00000000000E+00 -0.00000000000E+00 -0.11568940607E+04  0.11568940607E+04  0.00000000000E+00 0.  1.
    9000007    1    1    2  501    0 -0.80187971413E+02  0.87974106226E+02  0.49375803941E+03  0.64650332993E+03  0.40000000000E+03 0.  1.
   -9000007    1    1    2    0  503  0.80187971413E+02 -0.87974106226E+02 -0.10402238444E+04  0.11208189866E+04  0.40000000000E+03 0.  1.
<mgrwt>
<rscale>  2 0.41733626E+03</rscale>
<asrwt>0</asrwt>
<pdfrwt beam="1">  1       21 0.93912039E-01 0.41733626E+03</pdfrwt>
<pdfrwt beam="2">  1       21 0.17798370E+00 0.41733626E+03</pdfrwt>
<totfact> 0.14681546E+02</totfact>
</mgrwt>
</event>
<event>
 4    1  0.4758602E-002  0.4349632E+03  0.7818608E-02  0.1032304E+00
         21   -1    0    0  501  502  0.00000000000E+00  0.00000000000E+00  0.42308966515E+03  0.42308966515E+03  0.00000000000E+00 0.  1.
         21   -1    0    0  502  503 -0.00000000000E+00 -0.00000000000E+00 -0.52449470959E+03  0.52449470959E+03  0.00000000000E+00 0.  1.
    9000007    1    1    2  501    0 -0.30113243973E+02  0.16818489240E+03  0.13121593066E+03  0.45432431803E+03  0.40000000000E+03 0.  1.
   -9000007    1    1    2    0  503  0.30113243973E+02 -0.16818489240E+03 -0.23262097510E+03  0.49326005671E+03  0.40000000000E+03 0.  1.
<mgrwt>
<rscale>  2 0.43496318E+03</rscale>
<asrwt>0</asrwt>
<pdfrwt beam="1">  1       21 0.65090718E-01 0.43496318E+03</pdfrwt>
<pdfrwt beam="2">  1       21 0.80691494E-01 0.43496318E+03</pdfrwt>
<totfact> 0.25574742E+03</totfact>
</mgrwt>
</event>
<event>
 4    1  0.4758602E-002  0.4146083E+03  0.7818608E-02  0.1038836E+00
         21   -1    0    0  501  502  0.00000000000E+00  0.00000000000E+00  0.16643750357E+04  0.16643750357E+04  0.00000000000E+00 0. -1.
         21   -1    0    0  502  503 -0.00000000000E+00 -0.00000000000E+00 -0.16264886589E+03  0.16264886589E+03  0.00000000000E+00 0. -1.
    9000007    1    1    2  501    0  0.10861342542E+03 -0.10156902258E+02  0.13027634110E+04  0.13671475940E+04  0.40000000000E+03 0. -1.
   -9000007    1    1    2    0  503 -0.10861342542E+03  0.10156902258E+02  0.19896275881E+03  0.45987630754E+03  0.40000000000E+03 0. -1.
<mgrwt>
<rscale>  2 0.41460830E+03</rscale>
<asrwt>0</asrwt>
<pdfrwt beam="1">  1       21 0.25605769E+00 0.41460830E+03</pdfrwt>
<pdfrwt beam="2">  1       21 0.25022904E-01 0.41460830E+03</pdfrwt>
<totfact> 0.76979486E+02</totfact>
</mgrwt>
</event>
<event>
 4    1  0.4758602E-002  0.4439014E+03  0.7818608E-02  0.1029556E+00
         21   -1    0    0  503  502  0.00000000000E+00  0.00000000000E+00  0.11006091719E+04  0.11006091719E+04  0.00000000000E+00 0. -1.
         21   -1    0    0  501  503 -0.00000000000E+00 -0.00000000000E+00 -0.32309993571E+03  0.32309993571E+03  0.00000000000E+00 0. -1.
    9000007    1    1    2  501    0  0.13615518065E+03  0.13605237647E+03 -0.86581393408E+02  0.45226631540E+03  0.40000000000E+03 0. -1.
   -9000007    1    1    2    0  502 -0.13615518065E+03 -0.13605237647E+03  0.86409062961E+03  0.97144279221E+03  0.40000000000E+03 0. -1.
<mgrwt>
<rscale>  2 0.44390143E+03</rscale>
<asrwt>0</asrwt>
<pdfrwt beam="1">  1       21 0.16932449E+00 0.44390143E+03</pdfrwt>
<pdfrwt beam="2">  1       21 0.49707683E-01 0.44390143E+03</pdfrwt>
<totfact> 0.69692166E+02</totfact>
</mgrwt>
</event>
<event>
 4    1  0.4758602E-002  0.4056173E+03  0.7818608E-02  0.1041852E+00
         21   -1    0    0  503  502  0.00000000000E+00  0.00000000000E+00  0.46742293791E+03  0.46742293791E+03  0.00000000000E+00 0. -1.
         21   -1    0    0  501  503 -0.00000000000E+00 -0.00000000000E+00 -0.53464405794E+03  0.53464405794E+03  0.00000000000E+00 0. -1.
    9000007    1    1    2  501    0 -0.67063698011E+02  0.52758059463E+01 -0.32646798617E+03  0.52067909475E+03  0.40000000000E+03 0. -1.
   -9000007    1    1    2    0  502  0.67063698011E+02 -0.52758059463E+01  0.25924686613E+03  0.48138790109E+03  0.40000000000E+03 0. -1.
<mgrwt>
<rscale>  2 0.40561727E+03</rscale>
<asrwt>0</asrwt>
<pdfrwt beam="1">  1       21 0.71911221E-01 0.40561727E+03</pdfrwt>
<pdfrwt beam="2">  1       21 0.82252933E-01 0.40561727E+03</pdfrwt>
<totfact> 0.19800384E+03</totfact>
</mgrwt>
</event>
<event>
 4    1  0.4758602E-002  0.7433060E+03  0.7818608E-02  0.9645911E-01
         21   -1    0    0  503  502  0.00000000000E+00  0.00000000000E+00  0.81500546105E+03  0.81500546105E+03  0.00000000000E+00 0.  1.
         21   -1    0    0  501  503 -0.00000000000E+00 -0.00000000000E+00 -0.79641935989E+03  0.79641935989E+03  0.00000000000E+00 0.  1.
    9000007    1    1    2  501    0  0.57550118285E+03 -0.24759294998E+03 -0.30150446792E+03  0.80212768592E+03  0.40000000000E+03 0.  1.
   -9000007    1    1    2    0  502 -0.57550118285E+03  0.24759294998E+03  0.32009056908E+03  0.80929713502E+03  0.40000000000E+03 0.  1.
<mgrwt>
<rscale>  2 0.74330605E+03</rscale>
<asrwt>0</asrwt>
<pdfrwt beam="1">  1       21 0.12538546E+00 0.74330605E+03</pdfrwt>
<pdfrwt beam="2">  1       21 0.12252606E+00 0.74330605E+03</pdfrwt>
<totfact> 0.17315118E+02</totfact>
</mgrwt>
</event>
<event>
 4    1  0.4758602E-002  0.4583904E+03  0.7818608E-02  0.1025249E+00
         21   -1    0    0  503  502  0.00000000000E+00  0.00000000000E+00  0.67714058266E+03  0.67714058266E+03  0.00000000000E+00 0.  1.
         21   -1    0    0  501  503 -0.00000000000E+00 -0.00000000000E+00 -0.31238221409E+03  0.31238221409E+03  0.00000000000E+00 0. -1.
    9000007    1    1    2  501    0  0.16871464761E+03  0.14716363209E+03  0.14205764458E+03  0.47989805304E+03  0.40000000000E+03 0. -1.
   -9000007    1    1    2    0  502 -0.16871464761E+03 -0.14716363209E+03  0.22270072400E+03  0.50962474371E+03  0.40000000000E+03 0.  1.
<mgrwt>
<rscale>  2 0.45839041E+03</rscale>
<asrwt>0</asrwt>
<pdfrwt beam="1">  1       21 0.10417547E+00 0.45839041E+03</pdfrwt>
<pdfrwt beam="2">  1       21 0.48058802E-01 0.45839041E+03</pdfrwt>
<totfact> 0.26630594E+03</totfact>
</mgrwt>
</event>
<event>
 4    1  0.4758602E-002  0.5178110E+03  0.7818608E-02  0.1009232E+00
         21   -1    0    0  501  502  0.00000000000E+00  0.00000000000E+00  0.43471899449E+03  0.43471899449E+03  0.00000000000E+00 0. -1.
         21   -1    0    0  502  503 -0.00000000000E+00 -0.00000000000E+00 -0.63993655451E+03  0.63993655451E+03  0.00000000000E+00 0. -1.
    9000007    1    1    2  501    0 -0.31894232550E+03  0.80025321189E+02 -0.40695175051E+00  0.51781118628E+03  0.40000000000E+03 0. -1.
   -9000007    1    1    2    0  503  0.31894232550E+03 -0.80025321189E+02 -0.20481060827E+03  0.55684436272E+03  0.40000000000E+03 0. -1.
<mgrwt>
<rscale>  2 0.51781103E+03</rscale>
<asrwt>0</asrwt>
<pdfrwt beam="1">  1       21 0.66879846E-01 0.51781103E+03</pdfrwt>
<pdfrwt beam="2">  1       21 0.98451777E-01 0.51781103E+03</pdfrwt>
<totfact> 0.14594657E+03</totfact>
</mgrwt>
</event>
<event>
 4    1  0.4758602E-002  0.4830926E+03  0.7818608E-02  0.1018289E+00
         21   -1    0    0  503  502  0.00000000000E+00  0.00000000000E+00  0.33033278356E+03  0.33033278356E+03  0.00000000000E+00 0. -1.
         21   -1    0    0  501  503 -0.00000000000E+00 -0.00000000000E+00 -0.87552194815E+03  0.87552194815E+03  0.00000000000E+00 0.  1.
    9000007    1    1    2  501    0 -0.25804955026E+03 -0.82394679668E+02 -0.53751136794E+03  0.72270113068E+03  0.40000000000E+03 0.  1.
   -9000007    1    1    2    0  502  0.25804955026E+03  0.82394679668E+02 -0.76777966544E+01  0.48315360103E+03  0.40000000000E+03 0. -1.
<mgrwt>
<rscale>  2 0.48309259E+03</rscale>
<asrwt>0</asrwt>
<pdfrwt beam="1">  1       21 0.50820429E-01 0.48309259E+03</pdfrwt>
<pdfrwt beam="2">  1       21 0.13469568E+00 0.48309259E+03</pdfrwt>
<totfact> 0.12215174E+03</totfact>
</mgrwt>
</event>
<event>
 4    1  0.4758602E-002  0.4624037E+03  0.7818608E-02  0.1024086E+00
         21   -1    0    0  503  502  0.00000000000E+00  0.00000000000E+00  0.17125183173E+04  0.17125183173E+04  0.00000000000E+00 0.  1.
         21   -1    0    0  501  503 -0.00000000000E+00 -0.00000000000E+00 -0.14511600792E+03  0.14511600792E+03  0.00000000000E+00 0.  1.
    9000007    1    1    2  501    0 -0.15413956514E+03 -0.17337304368E+03  0.43664604604E+03  0.63598505277E+03  0.40000000000E+03 0.  1.
   -9000007    1    1    2    0  502  0.15413956514E+03  0.17337304368E+03  0.11307562634E+04  0.12216492725E+04  0.40000000000E+03 0.  1.
<mgrwt>
<rscale>  2 0.46240374E+03</rscale>
<asrwt>0</asrwt>
<pdfrwt beam="1">  1       21 0.26346434E+00 0.46240374E+03</pdfrwt>
<pdfrwt beam="2">  1       21 0.22325541E-01 0.46240374E+03</pdfrwt>
<totfact> 0.84363050E+02</totfact>
</mgrwt>
</event>
<event>
 4    1  0.4758602E-002  0.7998328E+03  0.7818608E-02  0.9560259E-01
         21   -1    0    0  501  502  0.00000000000E+00  0.00000000000E+00  0.11764364445E+04  0.11764364445E+04  0.00000000000E+00 0.  1.
         21   -1    0    0  502  503 -0.00000000000E+00 -0.00000000000E+00 -0.73146900884E+03  0.73146900884E+03  0.00000000000E+00 0.  1.
    9000007    1    1    2  501    0  0.69145072376E+02  0.68916720436E+03  0.70569671283E+03  0.10666491115E+04  0.40000000000E+03 0.  1.
   -9000007    1    1    2    0  503 -0.69145072376E+02 -0.68916720436E+03 -0.26072927722E+03  0.84125634179E+03  0.40000000000E+03 0.  1.
<mgrwt>
<rscale>  2 0.79983278E+03</rscale>
<asrwt>0</asrwt>
<pdfrwt beam="1">  1       21 0.18099022E+00 0.79983278E+03</pdfrwt>
<pdfrwt beam="2">  1       21 0.11253369E+00 0.79983278E+03</pdfrwt>
<totfact> 0.76289745E+01</totfact>
</mgrwt>
</event>
<event>
 4    1  0.4758602E-002  0.4808825E+03  0.7818608E-02  0.1018893E+00
         21   -1    0    0  503  502  0.00000000000E+00  0.00000000000E+00  0.70712267887E+03  0.70712267887E+03  0.00000000000E+00 0. -1.
         21   -1    0    0  501  503 -0.00000000000E+00 -0.00000000000E+00 -0.32713651007E+03  0.32713651007E+03  0.00000000000E+00 0. -1.
    9000007    1    1    2  501    0  0.26677436934E+03  0.89114670190E+01  0.18051750652E+03  0.51364827318E+03  0.40000000000E+03 0. -1.
   -9000007    1    1    2    0  502 -0.26677436934E+03 -0.89114670190E+01  0.19946866228E+03  0.52061091576E+03  0.40000000000E+03 0. -1.
<mgrwt>
<rscale>  2 0.48088250E+03</rscale>
<asrwt>0</asrwt>
<pdfrwt beam="1">  1       21 0.10878810E+00 0.48088250E+03</pdfrwt>
<pdfrwt beam="2">  1       21 0.50328694E-01 0.48088250E+03</pdfrwt>
<totfact> 0.21520489E+03</totfact>
</mgrwt>
</event>
<event>
 4    1  0.4758602E-002  0.4708853E+03  0.7818608E-02  0.1021671E+00
         21   -1    0    0  501  502  0.00000000000E+00  0.00000000000E+00  0.21918209466E+03  0.21918209466E+03  0.00000000000E+00 0.  1.
         21   -1    0    0  502  503 -0.00000000000E+00 -0.00000000000E+00 -0.12690236082E+04  0.12690236082E+04  0.00000000000E+00 0.  1.
    9000007    1    1    2  501    0 -0.17195528403E+03 -0.17934434193E+03 -0.86003273547E+03  0.98050462455E+03  0.40000000000E+03 0.  1.
   -9000007    1    1    2    0  503  0.17195528403E+03  0.17934434193E+03 -0.18980877809E+03  0.50770107832E+03  0.40000000000E+03 0.  1.
<mgrwt>
<rscale>  2 0.47088535E+03</rscale>
<asrwt>0</asrwt>
<pdfrwt beam="1">  1       21 0.33720322E-01 0.47088535E+03</pdfrwt>
<pdfrwt beam="2">  1       21 0.19523440E+00 0.47088535E+03</pdfrwt>
<totfact> 0.10112729E+03</totfact>
</mgrwt>
</event>
<event>
 4    1  0.4758602E-002  0.4940662E+03  0.7818608E-02  0.1015339E+00
         21   -1    0    0  501  502  0.00000000000E+00  0.00000000000E+00  0.12487232204E+04  0.12487232204E+04  0.00000000000E+00 0.  1.
         21   -1    0    0  502  503 -0.00000000000E+00 -0.00000000000E+00 -0.24068126180E+03  0.24068126180E+03  0.00000000000E+00 0.  1.
    9000007    1    1    2  501    0 -0.64891022339E+02 -0.28264918262E+03  0.82674626290E+03  0.96312553098E+03  0.40000000000E+03 0.  1.
   -9000007    1    1    2    0  503  0.64891022339E+02  0.28264918262E+03  0.18129569570E+03  0.52627895122E+03  0.40000000000E+03 0.  1.
<mgrwt>
<rscale>  2 0.49406620E+03</rscale>
<asrwt>0</asrwt>
<pdfrwt beam="1">  1       21 0.19211126E+00 0.49406620E+03</pdfrwt>
<pdfrwt beam="2">  1       21 0.37027887E-01 0.49406620E+03</pdfrwt>
<totfact> 0.86959476E+02</totfact>
</mgrwt>
</event>
<event>
 4    1  0.4758602E-002  0.4147227E+03  0.7818608E-02  0.1038798E+00
         21   -1    0    0  501  502  0.00000000000E+00  0.00000000000E+00  0.17655371918E+03  0.17655371918E+03  0.00000000000E+00 0. -1.
         21   -1    0    0  502  503 -0.00000000000E+00 -0.00000000000E+00 -0.10089022314E+04  0.10089022314E+04  0.00000000000E+00 0. -1.
    9000007    1    1    2  501    0 -0.86128852164E+02 -0.67651792021E+02 -0.30621284749E+03  0.51552037022E+03  0.40000000000E+03 0. -1.
   -9000007    1    1    2    0  503  0.86128852164E+02  0.67651792021E+02 -0.52613566477E+03  0.66993558039E+03  0.40000000000E+03 0. -1.
<mgrwt>
<rscale>  2 0.41472273E+03</rscale>
<asrwt>0</asrwt>
<pdfrwt beam="1">  1       21 0.27162110E-01 0.41472273E+03</pdfrwt>
<pdfrwt beam="2">  1       21 0.15521573E+00 0.41472273E+03</pdfrwt>
<totfact> 0.30838709E+03</totfact>
</mgrwt>
</event>
<event>
 4    1  0.4758602E-002  0.4825903E+03  0.7818608E-02  0.1018426E+00
         21   -1    0    0  501  502  0.00000000000E+00  0.00000000000E+00  0.50342129564E+03  0.50342129564E+03  0.00000000000E+00 0. -1.
         21   -1    0    0  502  503 -0.00000000000E+00 -0.00000000000E+00 -0.46391602190E+03  0.46391602190E+03  0.00000000000E+00 0. -1.
    9000007    1    1    2  501    0 -0.26949634859E+03 -0.16282793379E+02  0.45304201544E+02  0.48471216401E+03  0.40000000000E+03 0. -1.
   -9000007    1    1    2    0  503  0.26949634859E+03  0.16282793379E+02 -0.57989278056E+01  0.48262515354E+03  0.40000000000E+03 0. -1.
<mgrwt>
<rscale>  2 0.48259031E+03</rscale>
<asrwt>0</asrwt>
<pdfrwt beam="1">  1       21 0.77449430E-01 0.48259031E+03</pdfrwt>
<pdfrwt beam="2">  1       21 0.71371696E-01 0.48259031E+03</pdfrwt>
<totfact> 0.22477319E+03</totfact>
</mgrwt>
</event>
<event>
 4    1  0.4758602E-002  0.4899444E+03  0.7818608E-02  0.1016437E+00
         21   -1    0    0  501  502  0.00000000000E+00  0.00000000000E+00  0.98758883476E+02  0.98758883476E+02  0.00000000000E+00 0.  1.
         21   -1    0    0  502  503 -0.00000000000E+00 -0.00000000000E+00 -0.26108376062E+04  0.26108376062E+04  0.00000000000E+00 0.  1.
    9000007    1    1    2  501    0  0.11251148589E+03  0.25958948258E+03 -0.16119825295E+04  0.16847947084E+04  0.40000000000E+03 0.  1.
   -9000007    1    1    2    0  503 -0.11251148589E+03 -0.25958948258E+03 -0.90009619321E+03  0.10248017813E+04  0.40000000000E+03 0.  1.
<mgrwt>
<rscale>  2 0.48994442E+03</rscale>
<asrwt>0</asrwt>
<pdfrwt beam="1">  1       21 0.15193677E-01 0.48994442E+03</pdfrwt>
<pdfrwt beam="2">  1       21 0.40166726E+00 0.48994442E+03</pdfrwt>
<totfact> 0.24334268E+02</totfact>
</mgrwt>
</event>
<event>
 4    1  0.4758602E-002  0.4771858E+03  0.7818608E-02  0.1019911E+00
         21   -1    0    0  501  502  0.00000000000E+00  0.00000000000E+00  0.81975025732E+03  0.81975025732E+03  0.00000000000E+00 0.  1.
         21   -1    0    0  502  503 -0.00000000000E+00 -0.00000000000E+00 -0.12393142792E+04  0.12393142792E+04  0.00000000000E+00 0.  1.
    9000007    1    1    2  501    0  0.19623664085E+03  0.17087267071E+03  0.69706224596E+03  0.84474970468E+03  0.40000000000E+03 0.  1.
   -9000007    1    1    2    0  503 -0.19623664085E+03 -0.17087267071E+03 -0.11166262679E+04  0.12143148319E+04  0.40000000000E+03 0.  1.
<mgrwt>
<rscale>  2 0.47718580E+03</rscale>
<asrwt>0</asrwt>
<pdfrwt beam="1">  1       21 0.12611542E+00 0.47718580E+03</pdfrwt>
<pdfrwt beam="2">  1       21 0.19066374E+00 0.47718580E+03</pdfrwt>
<totfact> 0.55736343E+01</totfact>
</mgrwt>
</event>
<event>
 4    1  0.4758602E-002  0.4001175E+03  0.7818608E-02  0.1043739E+00
         21   -1    0    0  501  502  0.00000000000E+00  0.00000000000E+00  0.31111256760E+03  0.31111256760E+03  0.00000000000E+00 0. -1.
         21   -1    0    0  502  503 -0.00000000000E+00 -0.00000000000E+00 -0.52157052473E+03  0.52157052473E+03  0.00000000000E+00 0. -1.
    9000007    1    1    2  501    0 -0.89686630848E+01  0.36895087863E+01 -0.15340976487E+03  0.42851908400E+03  0.40000000000E+03 0.  1.
   -9000007    1    1    2    0  503  0.89686630848E+01 -0.36895087863E+01 -0.57048192259E+02  0.40416400833E+03  0.40000000000E+03 0.  1.
<mgrwt>
<rscale>  2 0.40011754E+03</rscale>
<asrwt>0</asrwt>
<pdfrwt beam="1">  1       21 0.47863473E-01 0.40011754E+03</pdfrwt>
<pdfrwt beam="2">  1       21 0.80241618E-01 0.40011754E+03</pdfrwt>
<totfact> 0.51020681E+03</totfact>
</mgrwt>
</event>
<event>
 4    1  0.4758602E-002  0.4782442E+03  0.7818608E-02  0.1019619E+00
         21   -1    0    0  503  502  0.00000000000E+00  0.00000000000E+00  0.94458982580E+03  0.94458982580E+03  0.00000000000E+00 0. -1.
         21   -1    0    0  501  503 -0.00000000000E+00 -0.00000000000E+00 -0.32372950327E+03  0.32372950327E+03  0.00000000000E+00 0. -1.
    9000007    1    1    2  501    0 -0.16651886893E+03 -0.20245737403E+03 -0.79456015452E+01  0.47831020749E+03  0.40000000000E+03 0. -1.
   -9000007    1    1    2    0  502  0.16651886893E+03  0.20245737403E+03  0.62880592408E+03  0.79000912157E+03  0.40000000000E+03 0. -1.
<mgrwt>
<rscale>  2 0.47824421E+03</rscale>
<asrwt>0</asrwt>
<pdfrwt beam="1">  1       21 0.14532151E+00 0.47824421E+03</pdfrwt>
<pdfrwt beam="2">  1       21 0.49804539E-01 0.47824421E+03</pdfrwt>
<totfact> 0.10437148E+03</totfact>
</mgrwt>
</event>
<event>
 4    1  0.4758602E-002  0.4647740E+03  0.7818608E-02  0.1023406E+00
         21   -1    0    0  503  502  0.00000000000E+00  0.00000000000E+00  0.86011519387E+03  0.86011519387E+03  0.00000000000E+00 0. -1.
         21   -1    0    0  501  503 -0.00000000000E+00 -0.00000000000E+00 -0.31151458070E+03  0.31151458070E+03  0.00000000000E+00 0. -1.
    9000007    1    1    2  501    0  0.11833388259E+03 -0.20496809632E+03  0.16415779960E+02  0.46506376564E+03  0.40000000000E+03 0. -1.
   -9000007    1    1    2    0  502 -0.11833388259E+03  0.20496809632E+03  0.53218483322E+03  0.70656600893E+03  0.40000000000E+03 0. -1.
<mgrwt>
<rscale>  2 0.46477395E+03</rscale>
<asrwt>0</asrwt>
<pdfrwt beam="1">  1       21 0.13232541E+00 0.46477395E+03</pdfrwt>
<pdfrwt beam="2">  1       21 0.47925321E-01 0.46477395E+03</pdfrwt>
<totfact> 0.14598277E+03</totfact>
</mgrwt>
</event>
<event>
 4    1  0.4758602E-002  0.4964387E+03  0.7818608E-02  0.1014713E+00
         21   -1    0    0  501  502  0.00000000000E+00  0.00000000000E+00  0.90963514019E+03  0.90963514019E+03  0.00000000000E+00 0.  1.
         21   -1    0    0  502  503 -0.00000000000E+00 -0.00000000000E+00 -0.27414891414E+03  0.27414891414E+03  0.00000000000E+00 0.  1.
    9000007    1    1    2  501    0  0.26839686406E+03 -0.12006054029E+03  0.25365021094E+03  0.55748528185E+03  0.40000000000E+03 0.  1.
   -9000007    1    1    2    0  503 -0.26839686406E+03  0.12006054029E+03  0.38183601510E+03  0.62629877247E+03  0.40000000000E+03 0.  1.
<mgrwt>
<rscale>  2 0.49643873E+03</rscale>
<asrwt>0</asrwt>
<pdfrwt beam="1">  1       21 0.13994387E+00 0.49643873E+03</pdfrwt>
<pdfrwt beam="2">  1       21 0.42176757E-01 0.49643873E+03</pdfrwt>
<totfact> 0.16270743E+03</totfact>
</mgrwt>
</event>
<event>
 4    1  0.4758602E-002  0.4213707E+03  0.7818608E-02  0.1036621E+00
         21   -1    0    0  501  502  0.00000000000E+00  0.00000000000E+00  0.40009727179E+03  0.40009727179E+03  0.00000000000E+00 0.  1.
         21   -1    0    0  502  503 -0.00000000000E+00 -0.00000000000E+00 -0.51130966940E+03  0.51130966940E+03  0.00000000000E+00 0.  1.
    9000007    1    1    2  501    0  0.65394624966E+02  0.11522506744E+03 -0.22122241862E+03  0.47591242014E+03  0.40000000000E+03 0.  1.
   -9000007    1    1    2    0  503 -0.65394624966E+02 -0.11522506744E+03  0.11001002101E+03  0.43549452105E+03  0.40000000000E+03 0.  1.
<mgrwt>
<rscale>  2 0.42137071E+03</rscale>
<asrwt>0</asrwt>
<pdfrwt beam="1">  1       21 0.61553426E-01 0.42137071E+03</pdfrwt>
<pdfrwt beam="2">  1       21 0.78663026E-01 0.42137071E+03</pdfrwt>
<totfact> 0.30841329E+03</totfact>
</mgrwt>
</event>
<event>
 4    1  0.4758602E-002  0.4273432E+03  0.7818608E-02  0.1034703E+00
         21   -1    0    0  501  502  0.00000000000E+00  0.00000000000E+00  0.68808393931E+03  0.68808393931E+03  0.00000000000E+00 0. -1.
         21   -1    0    0  502  503 -0.00000000000E+00 -0.00000000000E+00 -0.49360836581E+03  0.49360836581E+03  0.00000000000E+00 0. -1.
    9000007    1    1    2  501    0 -0.51028630597E+02  0.14148592740E+03  0.49897533181E+03  0.65696162030E+03  0.40000000000E+03 0. -1.
   -9000007    1    1    2    0  503  0.51028630597E+02 -0.14148592740E+03 -0.30449975830E+03  0.52473068482E+03  0.40000000000E+03 0. -1.
<mgrwt>
<rscale>  2 0.42734317E+03</rscale>
<asrwt>0</asrwt>
<pdfrwt beam="1">  1       21 0.10585907E+00 0.42734317E+03</pdfrwt>
<pdfrwt beam="2">  1       21 0.75939748E-01 0.42734317E+03</pdfrwt>
<totfact> 0.94936204E+02</totfact>
</mgrwt>
</event>
<event>
 4    1  0.4758602E-002  0.4131793E+03  0.7818608E-02  0.1039309E+00
         21   -1    0    0  503  502  0.00000000000E+00  0.00000000000E+00  0.11652908259E+04  0.11652908259E+04  0.00000000000E+00 0. -1.
         21   -1    0    0  501  503 -0.00000000000E+00 -0.00000000000E+00 -0.32282509842E+03  0.32282509842E+03  0.00000000000E+00 0. -1.
    9000007    1    1    2  501    0  0.10253250367E+03  0.14290692971E+02 -0.12865994742E+03  0.43274764041E+03  0.40000000000E+03 0. -1.
   -9000007    1    1    2    0  502 -0.10253250367E+03 -0.14290692971E+02  0.97112567488E+03  0.10553682839E+04  0.40000000000E+03 0. -1.
<mgrwt>
<rscale>  2 0.41317931E+03</rscale>
<asrwt>0</asrwt>
<pdfrwt beam="1">  1       21 0.17927551E+00 0.41317931E+03</pdfrwt>
<pdfrwt beam="2">  1       21 0.49665400E-01 0.41317931E+03</pdfrwt>
<totfact> 0.60137162E+02</totfact>
</mgrwt>
</event>
<event>
 4    1  0.4758602E-002  0.4097198E+03  0.7818608E-02  0.1040465E+00
         21   -1    0    0  503  502  0.00000000000E+00  0.00000000000E+00  0.35946968683E+03  0.35946968683E+03  0.00000000000E+00 0. -1.
         21   -1    0    0  501  503 -0.00000000000E+00 -0.00000000000E+00 -0.49977602265E+03  0.49977602265E+03  0.00000000000E+00 0. -1.
    9000007    1    1    2  501    0  0.85711658063E+02  0.22886801995E+02 -0.18018429654E+03  0.44758985104E+03  0.40000000000E+03 0. -1.
   -9000007    1    1    2    0  502 -0.85711658063E+02 -0.22886801995E+02  0.39877960722E+02  0.41165585844E+03  0.40000000000E+03 0. -1.
<mgrwt>
<rscale>  2 0.40971978E+03</rscale>
<asrwt>0</asrwt>
<pdfrwt beam="1">  1       21 0.55303029E-01 0.40971978E+03</pdfrwt>
<pdfrwt beam="2">  1       21 0.76888619E-01 0.40971978E+03</pdfrwt>
<totfact> 0.41208215E+03</totfact>
</mgrwt>
</event>
<event>
 4    1  0.4758602E-002  0.4231138E+03  0.7818608E-02  0.1036058E+00
         21   -1    0    0  503  502  0.00000000000E+00  0.00000000000E+00  0.21470586798E+03  0.21470586798E+03  0.00000000000E+00 0.  1.
         21   -1    0    0  501  503 -0.00000000000E+00 -0.00000000000E+00 -0.83884601158E+03  0.83884601158E+03  0.00000000000E+00 0. -1.
    9000007    1    1    2  501    0 -0.11685077978E+03 -0.73288426788E+02 -0.35285945504E+03  0.55094019026E+03  0.40000000000E+03 0.  1.
   -9000007    1    1    2    0  502  0.11685077978E+03  0.73288426788E+02 -0.27128068856E+03  0.50261168930E+03  0.40000000000E+03 0.  1.
<mgrwt>
<rscale>  2 0.42311381E+03</rscale>
<asrwt>0</asrwt>
<pdfrwt beam="1">  1       21 0.33031672E-01 0.42311381E+03</pdfrwt>
<pdfrwt beam="2">  1       21 0.12905323E+00 0.42311381E+03</pdfrwt>
<totfact> 0.34067704E+03</totfact>
</mgrwt>
</event>
<event>
 4    1  0.4758602E-002  0.4769469E+03  0.7818608E-02  0.1019978E+00
         21   -1    0    0  501  502  0.00000000000E+00  0.00000000000E+00  0.41935941087E+03  0.41935941087E+03  0.00000000000E+00 0. -1.
         21   -1    0    0  502  503 -0.00000000000E+00 -0.00000000000E+00 -0.71781224034E+03  0.71781224034E+03  0.00000000000E+00 0. -1.
    9000007    1    1    2  501    0 -0.25216124542E+03  0.62394481556E+02  0.13181345468E+03  0.49482638557E+03  0.40000000000E+03 0. -1.
   -9000007    1    1    2    0  503  0.25216124542E+03 -0.62394481556E+02 -0.43026628415E+03  0.64234526564E+03  0.40000000000E+03 0. -1.
<mgrwt>
<rscale>  2 0.47694692E+03</rscale>
<asrwt>0</asrwt>
<pdfrwt beam="1">  1       21 0.64516833E-01 0.47694692E+03</pdfrwt>
<pdfrwt beam="2">  1       21 0.11043265E+00 0.47694692E+03</pdfrwt>
<totfact> 0.12095214E+03</totfact>
</mgrwt>
</event>
<event>
 4    1  0.4758602E-002  0.6627433E+03  0.7818608E-02  0.9783157E-01
         21   -1    0    0  503  502  0.00000000000E+00  0.00000000000E+00  0.82344816967E+03  0.82344816967E+03  0.00000000000E+00 0. -1.
         21   -1    0    0  501  503 -0.00000000000E+00 -0.00000000000E+00 -0.66649704014E+03  0.66649704014E+03  0.00000000000E+00 0. -1.
    9000007    1    1    2  501    0  0.81800467883E+02  0.52205112914E+03  0.41138225827E+03  0.78004106328E+03  0.40000000000E+03 0. -1.
   -9000007    1    1    2    0  502 -0.81800467883E+02 -0.52205112914E+03 -0.25443112874E+03  0.70990414653E+03  0.40000000000E+03 0. -1.
<mgrwt>
<rscale>  2 0.66274331E+03</rscale>
<asrwt>0</asrwt>
<pdfrwt beam="1">  1       21 0.12668433E+00 0.66274331E+03</pdfrwt>
<pdfrwt beam="2">  1       21 0.10253801E+00 0.66274331E+03</pdfrwt>
<totfact> 0.27095674E+02</totfact>
</mgrwt>
</event>
<event>
 4    1  0.4758602E-002  0.5527551E+03  0.7818608E-02  0.1000858E+00
         21   -1    0    0  503  502  0.00000000000E+00  0.00000000000E+00  0.85814171758E+03  0.85814171758E+03  0.00000000000E+00 0.  1.
         21   -1    0    0  501  503 -0.00000000000E+00 -0.00000000000E+00 -0.36377578315E+03  0.36377578315E+03  0.00000000000E+00 0. -1.
    9000007    1    1    2  501    0 -0.25247924357E+03 -0.28599371663E+03  0.15812546295E+03  0.57492767929E+03  0.40000000000E+03 0. -1.
   -9000007    1    1    2    0  502  0.25247924357E+03  0.28599371663E+03  0.33624047148E+03  0.64698982144E+03  0.40000000000E+03 0.  1.
<mgrwt>
<rscale>  2 0.55275508E+03</rscale>
<asrwt>0</asrwt>
<pdfrwt beam="1">  1       21 0.13202180E+00 0.55275508E+03</pdfrwt>
<pdfrwt beam="2">  1       21 0.55965505E-01 0.55275508E+03</pdfrwt>
<totfact> 0.10201561E+03</totfact>
</mgrwt>
</event>
<event>
 4    1  0.4758602E-002  0.5744876E+03  0.7818608E-02  0.9959797E-01
         21   -1    0    0  501  502  0.00000000000E+00  0.00000000000E+00  0.13038700551E+04  0.13038700551E+04  0.00000000000E+00 0.  1.
         21   -1    0    0  502  503 -0.00000000000E+00 -0.00000000000E+00 -0.50603720872E+03  0.50603720872E+03  0.00000000000E+00 0.  1.
    9000007    1    1    2  501    0 -0.36249872862E+03  0.19654692198E+03  0.10386866229E+04  0.11869734291E+04  0.40000000000E+03 0.  1.
   -9000007    1    1    2    0  503  0.36249872862E+03 -0.19654692198E+03 -0.24085377652E+03  0.62293383473E+03  0.40000000000E+03 0.  1.
<mgrwt>
<rscale>  2 0.57448762E+03</rscale>
<asrwt>0</asrwt>
<pdfrwt beam="1">  1       21 0.20059539E+00 0.57448762E+03</pdfrwt>
<pdfrwt beam="2">  1       21 0.77851879E-01 0.57448762E+03</pdfrwt>
<totfact> 0.14735543E+02</totfact>
</mgrwt>
</event>
<event>
 4    1  0.4758602E-002  0.7382437E+03  0.7818608E-02  0.9653977E-01
         21   -1    0    0  501  502  0.00000000000E+00  0.00000000000E+00  0.24699290290E+04  0.24699290290E+04  0.00000000000E+00 0. -1.
         21   -1    0    0  502  503 -0.00000000000E+00 -0.00000000000E+00 -0.29641921839E+03  0.29641921839E+03  0.00000000000E+00 0. -1.
    9000007    1    1    2  501    0 -0.62006430073E+03 -0.22890740709E+02  0.38747029373E+03  0.83374873407E+03  0.40000000000E+03 0. -1.
   -9000007    1    1    2    0  503  0.62006430073E+03  0.22890740709E+02  0.17860395169E+04  0.19325995133E+04  0.40000000000E+03 0. -1.
<mgrwt>
<rscale>  2 0.73824367E+03</rscale>
<asrwt>0</asrwt>
<pdfrwt beam="1">  1       21 0.37998907E+00 0.73824367E+03</pdfrwt>
<pdfrwt beam="2">  1       21 0.45602958E-01 0.73824367E+03</pdfrwt>
<totfact> 0.33736573E+01</totfact>
</mgrwt>
</event>
<event>
 4    1  0.4758602E-002  0.6589758E+03  0.7818608E-02  0.9790081E-01
         21   -1    0    0  503  502  0.00000000000E+00  0.00000000000E+00  0.19299236218E+04  0.19299236218E+04  0.00000000000E+00 0.  1.
         21   -1    0    0  501  503 -0.00000000000E+00 -0.00000000000E+00 -0.26071220125E+03  0.26071220125E+03  0.00000000000E+00 0.  1.
    9000007    1    1    2  501    0  0.32598927781E+03  0.40985368836E+03  0.42926833715E+03  0.78646065406E+03  0.40000000000E+03 0.  1.
   -9000007    1    1    2    0  502 -0.32598927781E+03 -0.40985368836E+03  0.12399430834E+04  0.14041751690E+04  0.40000000000E+03 0.  1.
<mgrwt>
<rscale>  2 0.65897576E+03</rscale>
<asrwt>0</asrwt>
<pdfrwt beam="1">  1       21 0.29691132E+00 0.65897576E+03</pdfrwt>
<pdfrwt beam="2">  1       21 0.40109571E-01 0.65897576E+03</pdfrwt>
<totfact> 0.14998170E+02</totfact>
</mgrwt>
</event>
<event>
 4    1  0.4758602E-002  0.5901093E+03  0.7818608E-02  0.9926141E-01
         21   -1    0    0  501  502  0.00000000000E+00  0.00000000000E+00  0.41718078973E+03  0.41718078973E+03  0.00000000000E+00 0. -1.
         21   -1    0    0  502  503 -0.00000000000E+00 -0.00000000000E+00 -0.10349578677E+04  0.10349578677E+04  0.00000000000E+00 0.  1.
    9000007    1    1    2  501    0 -0.43455223722E+02 -0.43167194013E+03  0.10478576610E+02  0.59020235592E+03  0.40000000000E+03 0. -1.
   -9000007    1    1    2    0  503  0.43455223722E+02  0.43167194013E+03 -0.62825565458E+03  0.86193630152E+03  0.40000000000E+03 0.  1.
<mgrwt>
<rscale>  2 0.59010933E+03</rscale>
<asrwt>0</asrwt>
<pdfrwt beam="1">  1       21 0.64181660E-01 0.59010933E+03</pdfrwt>
<pdfrwt beam="2">  1       21 0.15922429E+00 0.59010933E+03</pdfrwt>
<totfact> 0.44823187E+02</totfact>
</mgrwt>
</event>
<event>
 4    1  0.4758602E-002  0.4102494E+03  0.7818608E-02  0.1040287E+00
         21   -1    0    0  501  502  0.00000000000E+00  0.00000000000E+00  0.22835383233E+04  0.22835383233E+04  0.00000000000E+00 0. -1.
         21   -1    0    0  502  503 -0.00000000000E+00 -0.00000000000E+00 -0.23014529924E+03  0.23014529924E+03  0.00000000000E+00 0. -1.
    9000007    1    1    2  501    0  0.55367776797E+02 -0.72380694727E+02  0.20629263534E+04  0.21033234880E+04  0.40000000000E+03 0. -1.
   -9000007    1    1    2    0  503 -0.55367776797E+02  0.72380694727E+02 -0.95333293038E+01  0.41036013457E+03  0.40000000000E+03 0. -1.
<mgrwt>
<rscale>  2 0.41024938E+03</rscale>
<asrwt>0</asrwt>
<pdfrwt beam="1">  1       21 0.35131357E+00 0.41024938E+03</pdfrwt>
<pdfrwt beam="2">  1       21 0.35406971E-01 0.41024938E+03</pdfrwt>
<totfact> 0.10343360E+02</totfact>
</mgrwt>
</event>
<event>
 4    1  0.4758602E-002  0.4026287E+03  0.7818608E-02  0.1042873E+00
         21   -1    0    0  501  502  0.00000000000E+00  0.00000000000E+00  0.12882612056E+04  0.12882612056E+04  0.00000000000E+00 0. -1.
         21   -1    0    0  502  503 -0.00000000000E+00 -0.00000000000E+00 -0.13154486191E+03  0.13154486191E+03  0.00000000000E+00 0. -1.
    9000007    1    1    2  501    0 -0.21765648134E+02 -0.40449375340E+02  0.72624490954E+03  0.83038639442E+03  0.40000000000E+03 0. -1.
   -9000007    1    1    2    0  503  0.21765648134E+02  0.40449375340E+02  0.43047143412E+03  0.58941967306E+03  0.40000000000E+03 0. -1.
<mgrwt>
<rscale>  2 0.40262873E+03</rscale>
<asrwt>0</asrwt>
<pdfrwt beam="1">  1       21 0.19819402E+00 0.40262873E+03</pdfrwt>
<pdfrwt beam="2">  1       21 0.20237672E-01 0.40262873E+03</pdfrwt>
<totfact> 0.27035081E+03</totfact>
</mgrwt>
</event>
<event>
 4    1  0.4758602E-002  0.5275454E+03  0.7818608E-02  0.1006829E+00
         21   -1    0    0  501  502  0.00000000000E+00  0.00000000000E+00  0.74628869342E+03  0.74628869342E+03  0.00000000000E+00 0.  1.
         21   -1    0    0  502  503 -0.00000000000E+00 -0.00000000000E+00 -0.67535441480E+03  0.67535441480E+03  0.00000000000E+00 0.  1.
    9000007    1    1    2  501    0  0.68429920169E+02  0.33707791064E+03  0.51114403819E+03  0.73455591999E+03  0.40000000000E+03 0.  1.
   -9000007    1    1    2    0  503 -0.68429920169E+02 -0.33707791064E+03 -0.44020975957E+03  0.68708718823E+03  0.40000000000E+03 0.  1.
<mgrwt>
<rscale>  2 0.52754542E+03</rscale>
<asrwt>0</asrwt>
<pdfrwt beam="1">  1       21 0.11481365E+00 0.52754542E+03</pdfrwt>
<pdfrwt beam="2">  1       21 0.10390068E+00 0.52754542E+03</pdfrwt>
<totfact> 0.35412652E+02</totfact>
</mgrwt>
</event>
<event>
 4    1  0.4758602E-002  0.5433337E+03  0.7818608E-02  0.1003049E+00
         21   -1    0    0  501  502  0.00000000000E+00  0.00000000000E+00  0.11380377569E+04  0.11380377569E+04  0.00000000000E+00 0.  1.
         21   -1    0    0  502  503 -0.00000000000E+00 -0.00000000000E+00 -0.29476709576E+03  0.29476709576E+03  0.00000000000E+00 0.  1.
    9000007    1    1    2  501    0  0.36502368781E+03  0.44375689593E+02  0.66977315198E+03  0.86244279208E+03  0.40000000000E+03 0.  1.
   -9000007    1    1    2    0  503 -0.36502368781E+03 -0.44375689593E+02  0.17349750918E+03  0.57036206061E+03  0.40000000000E+03 0.  1.
<mgrwt>
<rscale>  2 0.54333369E+03</rscale>
<asrwt>0</asrwt>
<pdfrwt beam="1">  1       21 0.17508273E+00 0.54333369E+03</pdfrwt>
<pdfrwt beam="2">  1       21 0.45348785E-01 0.54333369E+03</pdfrwt>
<totfact> 0.73762372E+02</totfact>
</mgrwt>
</event>
<event>
 4    1  0.4758602E-002  0.5476467E+03  0.7818608E-02  0.1002040E+00
         21   -1    0    0  501  502  0.00000000000E+00  0.00000000000E+00  0.15333548285E+04  0.15333548285E+04  0.00000000000E+00 0.  1.
         21   -1    0    0  502  503 -0.00000000000E+00 -0.00000000000E+00 -0.21925932711E+03  0.21925932711E+03  0.00000000000E+00 0. -1.
    9000007    1    1    2  501    0  0.37240362833E+03  0.35105569307E+02  0.94493498786E+03  0.10921625313E+04  0.40000000000E+03 0. -1.
   -9000007    1    1    2    0  503 -0.37240362833E+03 -0.35105569307E+02  0.36916051358E+03  0.66045162441E+03  0.40000000000E+03 0.  1.
<mgrwt>
<rscale>  2 0.54764666E+03</rscale>
<asrwt>0</asrwt>
<pdfrwt beam="1">  1       21 0.23590074E+00 0.54764666E+03</pdfrwt>
<pdfrwt beam="2">  1       21 0.33732205E-01 0.54764666E+03</pdfrwt>
<totfact> 0.53232556E+02</totfact>
</mgrwt>
</event>
<event>
 4    1  0.4758602E-002  0.4507893E+03  0.7818608E-02  0.1027487E+00
         21   -1    0    0  501  502  0.00000000000E+00  0.00000000000E+00  0.72666427895E+03  0.72666427895E+03  0.00000000000E+00 0. -1.
         21   -1    0    0  502  503 -0.00000000000E+00 -0.00000000000E+00 -0.29454670206E+03  0.29454670206E+03  0.00000000000E+00 0. -1.
    9000007    1    1    2  501    0 -0.17162164307E+03 -0.11729019250E+03  0.10122564202E+03  0.46201472728E+03  0.40000000000E+03 0. -1.
   -9000007    1    1    2    0  503  0.17162164307E+03  0.11729019250E+03  0.33089193486E+03  0.55919625373E+03  0.40000000000E+03 0. -1.
<mgrwt>
<rscale>  2 0.45078928E+03</rscale>
<asrwt>0</asrwt>
<pdfrwt beam="1">  1       21 0.11179450E+00 0.45078928E+03</pdfrwt>
<pdfrwt beam="2">  1       21 0.45314877E-01 0.45078928E+03</pdfrwt>
<totfact> 0.25381823E+03</totfact>
</mgrwt>
</event>
<event>
 4    1  0.4758602E-002  0.4774772E+03  0.7818608E-02  0.1019831E+00
         21   -1    0    0  501  502  0.00000000000E+00  0.00000000000E+00  0.29411423088E+03  0.29411423088E+03  0.00000000000E+00 0. -1.
         21   -1    0    0  502  503 -0.00000000000E+00 -0.00000000000E+00 -0.82839327802E+03  0.82839327802E+03  0.00000000000E+00 0. -1.
    9000007    1    1    2  501    0  0.15731064299E+02  0.26026339805E+03 -0.12485829013E+03  0.49353226375E+03  0.40000000000E+03 0.  1.
   -9000007    1    1    2    0  503 -0.15731064299E+02 -0.26026339805E+03 -0.40942075700E+03  0.62897524515E+03  0.40000000000E+03 0.  1.
<mgrwt>
<rscale>  2 0.47747723E+03</rscale>
<asrwt>0</asrwt>
<pdfrwt beam="1">  1       21 0.45248345E-01 0.47747723E+03</pdfrwt>
<pdfrwt beam="2">  1       21 0.12744512E+00 0.47747723E+03</pdfrwt>
<totfact> 0.18079777E+03</totfact>
</mgrwt>
</event>
<event>
 4    1  0.4758602E-002  0.4455084E+03  0.7818608E-02  0.1029070E+00
         21   -1    0    0  503  502  0.00000000000E+00  0.00000000000E+00  0.39298802033E+03  0.39298802033E+03  0.00000000000E+00 0.  1.
         21   -1    0    0  501  503 -0.00000000000E+00 -0.00000000000E+00 -0.55848236260E+03  0.55848236260E+03  0.00000000000E+00 0.  1.
    9000007    1    1    2  501    0 -0.16257487801E+03 -0.10975966571E+03 -0.22990089689E+03  0.50133042753E+03  0.40000000000E+03 0.  1.
   -9000007    1    1    2    0  502  0.16257487801E+03  0.10975966571E+03  0.64406554614E+02  0.45013995541E+03  0.40000000000E+03 0.  1.
<mgrwt>
<rscale>  2 0.44550845E+03</rscale>
<asrwt>0</asrwt>
<pdfrwt beam="1">  1       21 0.60459695E-01 0.44550845E+03</pdfrwt>
<pdfrwt beam="2">  1       21 0.85920364E-01 0.44550845E+03</pdfrwt>
<totfact> 0.25905035E+03</totfact>
</mgrwt>
</event>
<event>
 4    1  0.4758602E-002  0.4140179E+03  0.7818608E-02  0.1039031E+00
         21   -1    0    0  503  502  0.00000000000E+00  0.00000000000E+00  0.41157471719E+03  0.41157471719E+03  0.00000000000E+00 0. -1.
         21   -1    0    0  501  503 -0.00000000000E+00 -0.00000000000E+00 -0.70787609855E+03  0.70787609855E+03  0.00000000000E+00 0. -1.
    9000007    1    1    2  501    0 -0.10613040221E+03 -0.12130996558E+02 -0.50727230905E+03  0.65477936656E+03  0.40000000000E+03 0. -1.
   -9000007    1    1    2    0  502  0.10613040221E+03  0.12130996558E+02  0.21097092769E+03  0.46467144918E+03  0.40000000000E+03 0. -1.
<mgrwt>
<rscale>  2 0.41401790E+03</rscale>
<asrwt>0</asrwt>
<pdfrwt beam="1">  1       21 0.63319188E-01 0.41401790E+03</pdfrwt>
<pdfrwt beam="2">  1       21 0.10890401E+00 0.41401790E+03</pdfrwt>
<totfact> 0.13389929E+03</totfact>
</mgrwt>
</event>
<event>
 4    1  0.4758602E-002  0.4123002E+03  0.7818608E-02  0.1039602E+00
         21   -1    0    0  501  502  0.00000000000E+00  0.00000000000E+00  0.24685710974E+04  0.24685710974E+04  0.00000000000E+00 0. -1.
         21   -1    0    0  502  503 -0.00000000000E+00 -0.00000000000E+00 -0.13972718790E+03  0.13972718790E+03  0.00000000000E+00 0. -1.
    9000007    1    1    2  501    0  0.18141108388E+02  0.98297177499E+02  0.20931796249E+04  0.21333992540E+04  0.40000000000E+03 0.  1.
   -9000007    1    1    2    0  503 -0.18141108388E+02 -0.98297177499E+02  0.23566428467E+03  0.47489903136E+03  0.40000000000E+03 0.  1.
<mgrwt>
<rscale>  2 0.41230018E+03</rscale>
<asrwt>0</asrwt>
<pdfrwt beam="1">  1       21 0.37978014E+00 0.41230018E+03</pdfrwt>
<pdfrwt beam="2">  1       21 0.21496492E-01 0.41230018E+03</pdfrwt>
<totfact> 0.18350338E+02</totfact>
</mgrwt>
</event>
<event>
 4    1  0.4758602E-002  0.4782599E+03  0.7818608E-02  0.1019614E+00
         21   -1    0    0  501  502  0.00000000000E+00  0.00000000000E+00  0.19790361316E+03  0.19790361316E+03  0.00000000000E+00 0. -1.
         21   -1    0    0  502  503 -0.00000000000E+00 -0.00000000000E+00 -0.11627278478E+04  0.11627278478E+04  0.00000000000E+00 0. -1.
    9000007    1    1    2  501    0  0.51132050418E+02  0.25713434499E+03 -0.42981373044E+03  0.64301819634E+03  0.40000000000E+03 0. -1.
   -9000007    1    1    2    0  503 -0.51132050418E+02 -0.25713434499E+03 -0.53501050419E+03  0.71761326462E+03  0.40000000000E+03 0. -1.
<mgrwt>
<rscale>  2 0.47825993E+03</rscale>
<asrwt>0</asrwt>
<pdfrwt beam="1">  1       21 0.30446710E-01 0.47825993E+03</pdfrwt>
<pdfrwt beam="2">  1       21 0.17888121E+00 0.47825993E+03</pdfrwt>
<totfact> 0.16052994E+03</totfact>
</mgrwt>
</event>
<event>
 4    1  0.4758602E-002  0.4538956E+03  0.7818608E-02  0.1026567E+00
         21   -1    0    0  501  502  0.00000000000E+00  0.00000000000E+00  0.95156624440E+03  0.95156624440E+03  0.00000000000E+00 0.  1.
         21   -1    0    0  502  503 -0.00000000000E+00 -0.00000000000E+00 -0.24261630131E+03  0.24261630131E+03  0.00000000000E+00 0.  1.
    9000007    1    1    2  501    0  0.15906825750E+03 -0.14393925474E+03  0.55034783871E+03  0.71337505085E+03  0.40000000000E+03 0.  1.
   -9000007    1    1    2    0  503 -0.15906825750E+03  0.14393925474E+03  0.15860210438E+03  0.48080749486E+03  0.40000000000E+03 0.  1.
<mgrwt>
<rscale>  2 0.45389560E+03</rscale>
<asrwt>0</asrwt>
<pdfrwt beam="1">  1       21 0.14639481E+00 0.45389560E+03</pdfrwt>
<pdfrwt beam="2">  1       21 0.37325585E-01 0.45389560E+03</pdfrwt>
<totfact> 0.18846214E+03</totfact>
</mgrwt>
</event>
<event>
 4    1  0.4758602E-002  0.4134625E+03  0.7818608E-02  0.1039215E+00
         21   -1    0    0  503  502  0.00000000000E+00  0.00000000000E+00  0.20423713013E+03  0.20423713013E+03  0.00000000000E+00 0. -1.
         21   -1    0    0  501  503 -0.00000000000E+00 -0.00000000000E+00 -0.91653859207E+03  0.91653859207E+03  0.00000000000E+00 0. -1.
    9000007    1    1    2  501    0 -0.63058164697E+02  0.83516096514E+02 -0.52120935388E+03  0.66528975724E+03  0.40000000000E+03 0.  1.
   -9000007    1    1    2    0  502  0.63058164697E+02 -0.83516096514E+02 -0.19109210806E+03  0.45548596496E+03  0.40000000000E+03 0.  1.
<mgrwt>
<rscale>  2 0.41346254E+03</rscale>
<asrwt>0</asrwt>
<pdfrwt beam="1">  1       21 0.31421097E-01 0.41346254E+03</pdfrwt>
<pdfrwt beam="2">  1       21 0.14100594E+00 0.41346254E+03</pdfrwt>
<totfact> 0.29970354E+03</totfact>
</mgrwt>
</event>
<event>
 4    1  0.4758602E-002  0.4993384E+03  0.7818608E-02  0.1013952E+00
         21   -1    0    0  503  502  0.00000000000E+00  0.00000000000E+00  0.33374779204E+03  0.33374779204E+03  0.00000000000E+00 0. -1.
         21   -1    0    0  501  503 -0.00000000000E+00 -0.00000000000E+00 -0.79745837945E+03  0.79745837945E+03  0.00000000000E+00 0. -1.
    9000007    1    1    2  501    0 -0.12711220106E+03 -0.27052045538E+03 -0.89705182775E+02  0.50733208873E+03  0.40000000000E+03 0. -1.
   -9000007    1    1    2    0  502  0.12711220106E+03  0.27052045538E+03 -0.37400540463E+03  0.62387408276E+03  0.40000000000E+03 0. -1.
<mgrwt>
<rscale>  2 0.49933839E+03</rscale>
<asrwt>0</asrwt>
<pdfrwt beam="1">  1       21 0.51345814E-01 0.49933839E+03</pdfrwt>
<pdfrwt beam="2">  1       21 0.12268590E+00 0.49933839E+03</pdfrwt>
<totfact> 0.15135185E+03</totfact>
</mgrwt>
</event>
<event>
 4    1  0.4758602E-002  0.4849973E+03  0.7818608E-02  0.1017771E+00
         21   -1    0    0  501  502  0.00000000000E+00  0.00000000000E+00  0.40340252407E+03  0.40340252407E+03  0.00000000000E+00 0.  1.
         21   -1    0    0  502  503 -0.00000000000E+00 -0.00000000000E+00 -0.11780316940E+04  0.11780316940E+04  0.00000000000E+00 0.  1.
    9000007    1    1    2  501    0  0.23657113524E+03  0.13876784227E+03  0.17460949750E+03  0.51547152462E+03  0.40000000000E+03 0.  1.
   -9000007    1    1    2    0  503 -0.23657113524E+03 -0.13876784227E+03 -0.94923866738E+03  0.10659626934E+04  0.40000000000E+03 0.  1.
<mgrwt>
<rscale>  2 0.48499734E+03</rscale>
<asrwt>0</asrwt>
<pdfrwt beam="1">  1       21 0.62061927E-01 0.48499734E+03</pdfrwt>
<pdfrwt beam="2">  1       21 0.18123564E+00 0.48499734E+03</pdfrwt>
<totfact> 0.34740960E+02</totfact>
</mgrwt>
</event>
<event>
 4    1  0.4758602E-002  0.5882359E+03  0.7818608E-02  0.9930118E-01
         21   -1    0    0  501  502  0.00000000000E+00  0.00000000000E+00  0.19524655053E+04  0.19524655053E+04  0.00000000000E+00 0.  1.
         21   -1    0    0  502  503 -0.00000000000E+00 -0.00000000000E+00 -0.17925888872E+03  0.17925888872E+03  0.00000000000E+00 0.  1.
    9000007    1    1    2  501    0  0.24666194544E+03 -0.35380696277E+03  0.77300947085E+03  0.97137280395E+03  0.40000000000E+03 0.  1.
   -9000007    1    1    2    0  503 -0.24666194544E+03  0.35380696277E+03  0.10001971457E+04  0.11603515901E+04  0.40000000000E+03 0.  1.
<mgrwt>
<rscale>  2 0.58823591E+03</rscale>
<asrwt>0</asrwt>
<pdfrwt beam="1">  1       21 0.30037929E+00 0.58823591E+03</pdfrwt>
<pdfrwt beam="2">  1       21 0.27578292E-01 0.58823591E+03</pdfrwt>
<totfact> 0.31426151E+02</totfact>
</mgrwt>
</event>
<event>
 4    1  0.4758602E-002  0.4135379E+03  0.7818608E-02  0.1039190E+00
         21   -1    0    0  501  502  0.00000000000E+00  0.00000000000E+00  0.94754084282E+02  0.94754084282E+02  0.00000000000E+00 0.  1.
         21   -1    0    0  502  503 -0.00000000000E+00 -0.00000000000E+00 -0.20372160191E+04  0.20372160191E+04  0.00000000000E+00 0.  1.
    9000007    1    1    2  501    0 -0.36819355841E+02 -0.98274693018E+02 -0.61119017450E+03  0.73794783668E+03  0.40000000000E+03 0.  1.
   -9000007    1    1    2    0  503  0.36819355841E+02  0.98274693018E+02 -0.13312717604E+04  0.13940222667E+04  0.40000000000E+03 0.  1.
<mgrwt>
<rscale>  2 0.41353788E+03</rscale>
<asrwt>0</asrwt>
<pdfrwt beam="1">  1       21 0.14577551E-01 0.41353788E+03</pdfrwt>
<pdfrwt beam="2">  1       21 0.31341785E+00 0.41353788E+03</pdfrwt>
<totfact> 0.96802320E+02</totfact>
</mgrwt>
</event>
<event>
 4    1  0.4758602E-002  0.5223600E+03  0.7818608E-02  0.1008102E+00
         21   -1    0    0  503  502  0.00000000000E+00  0.00000000000E+00  0.62661264579E+03  0.62661264579E+03  0.00000000000E+00 0.  1.
         21   -1    0    0  501  503 -0.00000000000E+00 -0.00000000000E+00 -0.46498979713E+03  0.46498979713E+03  0.00000000000E+00 0. -1.
    9000007    1    1    2  501    0  0.30180852273E+03  0.14755204938E+03  0.21837351615E+03  0.56616868884E+03  0.40000000000E+03 0.  1.
   -9000007    1    1    2    0  502 -0.30180852273E+03 -0.14755204938E+03 -0.56750667485E+02  0.52543375408E+03  0.40000000000E+03 0. -1.
<mgrwt>
<rscale>  2 0.52236002E+03</rscale>
<asrwt>0</asrwt>
<pdfrwt beam="1">  1       21 0.96401945E-01 0.52236002E+03</pdfrwt>
<pdfrwt beam="2">  1       21 0.71536892E-01 0.52236002E+03</pdfrwt>
<totfact> 0.13174360E+03</totfact>
</mgrwt>
</event>
<event>
 4    1  0.4758602E-002  0.4048490E+03  0.7818608E-02  0.1042113E+00
         21   -1    0    0  501  502  0.00000000000E+00  0.00000000000E+00  0.20780016637E+04  0.20780016637E+04  0.00000000000E+00 0. -1.
         21   -1    0    0  502  503 -0.00000000000E+00 -0.00000000000E+00 -0.12187726666E+03  0.12187726666E+03  0.00000000000E+00 0. -1.
    9000007    1    1    2  501    0 -0.46966747531E+02 -0.41192598507E+02  0.16314218599E+04  0.16809045156E+04  0.40000000000E+03 0. -1.
   -9000007    1    1    2    0  503  0.46966747531E+02  0.41192598507E+02  0.32470253705E+03  0.51897441470E+03  0.40000000000E+03 0. -1.
<mgrwt>
<rscale>  2 0.40484899E+03</rscale>
<asrwt>0</asrwt>
<pdfrwt beam="1">  1       21 0.31969254E+00 0.40484899E+03</pdfrwt>
<pdfrwt beam="2">  1       21 0.18750350E-01 0.40484899E+03</pdfrwt>
<totfact> 0.55785655E+02</totfact>
</mgrwt>
</event>
<event>
 4    1  0.4758602E-002  0.4273047E+03  0.7818608E-02  0.1034715E+00
         21   -1    0    0  503  502  0.00000000000E+00  0.00000000000E+00  0.15342369274E+03  0.15342369274E+03  0.00000000000E+00 0.  1.
         21   -1    0    0  501  503 -0.00000000000E+00 -0.00000000000E+00 -0.11938522279E+04  0.11938522279E+04  0.00000000000E+00 0.  1.
    9000007    1    1    2  501    0  0.14356826283E+03 -0.44469055973E+02 -0.55798617514E+03  0.70280716749E+03  0.40000000000E+03 0.  1.
   -9000007    1    1    2    0  502 -0.14356826283E+03  0.44469055973E+02 -0.48244235997E+03  0.64446875310E+03  0.40000000000E+03 0.  1.
<mgrwt>
<rscale>  2 0.42730474E+03</rscale>
<asrwt>0</asrwt>
<pdfrwt beam="1">  1       21 0.23603644E-01 0.42730474E+03</pdfrwt>
<pdfrwt beam="2">  1       21 0.18366958E+00 0.42730474E+03</pdfrwt>
<totfact> 0.25000358E+03</totfact>
</mgrwt>
</event>
<event>
 4    1  0.4758602E-002  0.4872334E+03  0.7818608E-02  0.1017166E+00
         21   -1    0    0  503  502  0.00000000000E+00  0.00000000000E+00  0.20434802379E+03  0.20434802379E+03  0.00000000000E+00 0. -1.
         21   -1    0    0  501  503 -0.00000000000E+00 -0.00000000000E+00 -0.15511187879E+04  0.15511187879E+04  0.00000000000E+00 0.  1.
    9000007    1    1    2  501    0  0.14893574025E+02  0.27780303024E+03 -0.11131641331E+04  0.12151258080E+04  0.40000000000E+03 0. -1.
   -9000007    1    1    2    0  502 -0.14893574025E+02 -0.27780303024E+03 -0.23360663098E+03  0.54034100362E+03  0.40000000000E+03 0. -1.
<mgrwt>
<rscale>  2 0.48723335E+03</rscale>
<asrwt>0</asrwt>
<pdfrwt beam="1">  1       21 0.31438158E-01 0.48723335E+03</pdfrwt>
<pdfrwt beam="2">  1       21 0.23863365E+00 0.48723335E+03</pdfrwt>
<totfact> 0.60546405E+02</totfact>
</mgrwt>
</event>
<event>
 4    1  0.4758602E-002  0.4322567E+03  0.7818608E-02  0.1033149E+00
         21   -1    0    0  503  502  0.00000000000E+00  0.00000000000E+00  0.11848972239E+04  0.11848972239E+04  0.00000000000E+00 0. -1.
         21   -1    0    0  501  503 -0.00000000000E+00 -0.00000000000E+00 -0.18793215593E+03  0.18793215593E+03  0.00000000000E+00 0. -1.
    9000007    1    1    2  501    0 -0.16014956556E+03  0.34612333404E+02  0.77383927033E+03  0.88638203574E+03  0.40000000000E+03 0.  1.
   -9000007    1    1    2    0  502  0.16014956556E+03 -0.34612333404E+02  0.22312579759E+03  0.48644734404E+03  0.40000000000E+03 0.  1.
<mgrwt>
<rscale>  2 0.43225675E+03</rscale>
<asrwt>0</asrwt>
<pdfrwt beam="1">  1       21 0.18229188E+00 0.43225675E+03</pdfrwt>
<pdfrwt beam="2">  1       21 0.28912640E-01 0.43225675E+03</pdfrwt>
<totfact> 0.17158486E+03</totfact>
</mgrwt>
</event>
<event>
 4    1  0.4758602E-002  0.5157575E+03  0.7818608E-02  0.1009746E+00
         21   -1    0    0  501  502  0.00000000000E+00  0.00000000000E+00  0.10193570852E+04  0.10193570852E+04  0.00000000000E+00 0. -1.
         21   -1    0    0  502  503 -0.00000000000E+00 -0.00000000000E+00 -0.53553182564E+03  0.53553182564E+03  0.00000000000E+00 0. -1.
    9000007    1    1    2  501    0 -0.16587240557E+03 -0.28016455889E+03  0.79859702894E+03  0.95066453054E+03  0.40000000000E+03 0. -1.
   -9000007    1    1    2    0  503  0.16587240557E+03  0.28016455889E+03 -0.31477176936E+03  0.60422438032E+03  0.40000000000E+03 0. -1.
<mgrwt>
<rscale>  2 0.51575754E+03</rscale>
<asrwt>0</asrwt>
<pdfrwt beam="1">  1       21 0.15682417E+00 0.51575754E+03</pdfrwt>
<pdfrwt beam="2">  1       21 0.82389512E-01 0.51575754E+03</pdfrwt>
<totfact> 0.27244551E+02</totfact>
</mgrwt>
</event>
<event>
 4    1  0.4758602E-002  0.4766287E+03  0.7818608E-02  0.1020066E+00
         21   -1    0    0  501  502  0.00000000000E+00  0.00000000000E+00  0.32425275444E+03  0.32425275444E+03  0.00000000000E+00 0.  1.
         21   -1    0    0  502  503 -0.00000000000E+00 -0.00000000000E+00 -0.88258309627E+03  0.88258309627E+03  0.00000000000E+00 0. -1.
    9000007    1    1    2  501    0 -0.90310393267E+02 -0.24293818909E+03 -0.51697975409E+01  0.47665675035E+03  0.40000000000E+03 0.  1.
   -9000007    1    1    2    0  503  0.90310393267E+02  0.24293818909E+03 -0.55316054428E+03  0.73017910036E+03  0.40000000000E+03 0. -1.
<mgrwt>
<rscale>  2 0.47662871E+03</rscale>
<asrwt>0</asrwt>
<pdfrwt beam="1">  1       21 0.49885041E-01 0.47662871E+03</pdfrwt>
<pdfrwt beam="2">  1       21 0.13578201E+00 0.47662871E+03</pdfrwt>
<totfact> 0.12475049E+03</totfact>
</mgrwt>
</event>
<event>
 4    1  0.4758602E-002  0.6417569E+03  0.7818608E-02  0.9822371E-01
         21   -1    0    0  503  502  0.00000000000E+00  0.00000000000E+00  0.12084237931E+04  0.12084237931E+04  0.00000000000E+00 0.  1.
         21   -1    0    0  501  503 -0.00000000000E+00 -0.00000000000E+00 -0.72925393693E+03  0.72925393693E+03  0.00000000000E+00 0. -1.
    9000007    1    1    2  501    0  0.38027537463E+03 -0.32747908653E+03 -0.46750096248E+03  0.79398303671E+03  0.40000000000E+03 0. -1.
   -9000007    1    1    2    0  502 -0.38027537463E+03  0.32747908653E+03  0.94667081869E+03  0.11436946934E+04  0.40000000000E+03 0.  1.
<mgrwt>
<rscale>  2 0.64175690E+03</rscale>
<asrwt>0</asrwt>
<pdfrwt beam="1">  1       21 0.18591135E+00 0.64175690E+03</pdfrwt>
<pdfrwt beam="2">  1       21 0.11219291E+00 0.64175690E+03</pdfrwt>
<totfact> 0.74944217E+01</totfact>
</mgrwt>
</event>
<event>
 4    1  0.4758602E-002  0.4701575E+03  0.7818608E-02  0.1021876E+00
         21   -1    0    0  503  502  0.00000000000E+00  0.00000000000E+00  0.89780659792E+03  0.89780659792E+03  0.00000000000E+00 0.  1.
         21   -1    0    0  501  503 -0.00000000000E+00 -0.00000000000E+00 -0.41828745718E+03  0.41828745718E+03  0.00000000000E+00 0.  1.
    9000007    1    1    2  501    0 -0.24670810566E+03  0.13533579289E+02  0.66182792093E+03  0.81182771823E+03  0.40000000000E+03 0.  1.
   -9000007    1    1    2    0  502  0.24670810566E+03 -0.13533579289E+02 -0.18230878019E+03  0.50426633687E+03  0.40000000000E+03 0.  1.
<mgrwt>
<rscale>  2 0.47015747E+03</rscale>
<asrwt>0</asrwt>
<pdfrwt beam="1">  1       21 0.13812409E+00 0.47015747E+03</pdfrwt>
<pdfrwt beam="2">  1       21 0.64351917E-01 0.47015747E+03</pdfrwt>
<totfact> 0.68741780E+02</totfact>
</mgrwt>
</event>
<event>
 4    1  0.4758602E-002  0.4258947E+03  0.7818608E-02  0.1035165E+00
         21   -1    0    0  503  502  0.00000000000E+00  0.00000000000E+00  0.14624986120E+04  0.14624986120E+04  0.00000000000E+00 0. -1.
         21   -1    0    0  501  503 -0.00000000000E+00 -0.00000000000E+00 -0.38431039416E+03  0.38431039416E+03  0.00000000000E+00 0. -1.
    9000007    1    1    2  501    0 -0.94356747929E+02  0.11172787538E+03 -0.22083987352E+03  0.47974635356E+03  0.40000000000E+03 0. -1.
   -9000007    1    1    2    0  502  0.94356747929E+02 -0.11172787538E+03  0.12990280914E+04  0.13670626526E+04  0.40000000000E+03 0. -1.
<mgrwt>
<rscale>  2 0.42589472E+03</rscale>
<asrwt>0</asrwt>
<pdfrwt beam="1">  1       21 0.22499978E+00 0.42589472E+03</pdfrwt>
<pdfrwt beam="2">  1       21 0.59124677E-01 0.42589472E+03</pdfrwt>
<totfact> 0.20405709E+02</totfact>
</mgrwt>
</event>
<event>
 4    1  0.4758602E-002  0.5792309E+03  0.7818608E-02  0.9949458E-01
         21   -1    0    0  501  502  0.00000000000E+00  0.00000000000E+00  0.39091337326E+03  0.39091337326E+03  0.00000000000E+00 0.  1.
         21   -1    0    0  502  503 -0.00000000000E+00 -0.00000000000E+00 -0.91063731841E+03  0.91063731841E+03  0.00000000000E+00 0. -1.
    9000007    1    1    2  501    0  0.35437855213E+03  0.22343735600E+03 -0.41592396086E+03  0.71309266683E+03  0.40000000000E+03 0. -1.
   -9000007    1    1    2    0  503 -0.35437855213E+03 -0.22343735600E+03 -0.10379998428E+03  0.58845802484E+03  0.40000000000E+03 0.  1.
<mgrwt>
<rscale>  2 0.57923088E+03</rscale>
<asrwt>0</asrwt>
<pdfrwt beam="1">  1       21 0.60140520E-01 0.57923088E+03</pdfrwt>
<pdfrwt beam="2">  1       21 0.14009805E+00 0.57923088E+03</pdfrwt>
<totfact> 0.73797096E+02</totfact>
</mgrwt>
</event>
<event>
 4    1  0.4758602E-002  0.4848153E+03  0.7818608E-02  0.1017820E+00
         21   -1    0    0  501  502  0.00000000000E+00  0.00000000000E+00  0.51335583942E+03  0.51335583942E+03  0.00000000000E+00 0. -1.
         21   -1    0    0  502  503 -0.00000000000E+00 -0.00000000000E+00 -0.45901815678E+03  0.45901815678E+03  0.00000000000E+00 0. -1.
    9000007    1    1    2  501    0 -0.26327952331E+03  0.75695368626E+02  0.51574064269E+02  0.48755079769E+03  0.40000000000E+03 0. -1.
   -9000007    1    1    2    0  503  0.26327952331E+03 -0.75695368626E+02  0.27636183772E+01  0.48482319851E+03  0.40000000000E+03 0. -1.
<mgrwt>
<rscale>  2 0.48481532E+03</rscale>
<asrwt>0</asrwt>
<pdfrwt beam="1">  1       21 0.78977821E-01 0.48481532E+03</pdfrwt>
<pdfrwt beam="2">  1       21 0.70618178E-01 0.48481532E+03</pdfrwt>
<totfact> 0.21992960E+03</totfact>
</mgrwt>
</event>
<event>
 4    1  0.4758602E-002  0.5680907E+03  0.7818608E-02  0.9973913E-01
         21   -1    0    0  501  502  0.00000000000E+00  0.00000000000E+00  0.43339920396E+03  0.43339920396E+03  0.00000000000E+00 0.  1.
         21   -1    0    0  502  503 -0.00000000000E+00 -0.00000000000E+00 -0.75022122361E+03  0.75022122361E+03  0.00000000000E+00 0. -1.
    9000007    1    1    2  501    0  0.14745294239E+03 -0.37547925269E+03 -0.10737301780E+03  0.57814877356E+03  0.40000000000E+03 0. -1.
   -9000007    1    1    2    0  503 -0.14745294239E+03  0.37547925269E+03 -0.20944900185E+03  0.60547165400E+03  0.40000000000E+03 0.  1.
<mgrwt>
<rscale>  2 0.56809070E+03</rscale>
<asrwt>0</asrwt>
<pdfrwt beam="1">  1       21 0.66676802E-01 0.56809070E+03</pdfrwt>
<pdfrwt beam="2">  1       21 0.11541865E+00 0.56809070E+03</pdfrwt>
<totfact> 0.97455050E+02</totfact>
</mgrwt>
</event>
<event>
 4    1  0.4758602E-002  0.4575301E+03  0.7818608E-02  0.1025500E+00
         21   -1    0    0  501  502  0.00000000000E+00  0.00000000000E+00  0.11267301576E+04  0.11267301576E+04  0.00000000000E+00 0. -1.
         21   -1    0    0  502  503 -0.00000000000E+00 -0.00000000000E+00 -0.22499578713E+03  0.22499578713E+03  0.00000000000E+00 0.  1.
    9000007    1    1    2  501    0  0.20949488960E+03 -0.73794804919E+02  0.73299993399E+03  0.86407331010E+03  0.40000000000E+03 0. -1.
   -9000007    1    1    2    0  503 -0.20949488960E+03  0.73794804919E+02  0.16873443647E+03  0.48765263462E+03  0.40000000000E+03 0.  1.
<mgrwt>
<rscale>  2 0.45753009E+03</rscale>
<asrwt>0</asrwt>
<pdfrwt beam="1">  1       21 0.17334310E+00 0.45753009E+03</pdfrwt>
<pdfrwt beam="2">  1       21 0.34614737E-01 0.45753009E+03</pdfrwt>
<totfact> 0.13709942E+03</totfact>
</mgrwt>
</event>
<event>
 4    1  0.4758602E-002  0.4604443E+03  0.7818608E-02  0.1024652E+00
         21   -1    0    0  503  502  0.00000000000E+00  0.00000000000E+00  0.19693485850E+04  0.19693485850E+04  0.00000000000E+00 0.  1.
         21   -1    0    0  501  503 -0.00000000000E+00 -0.00000000000E+00 -0.10954629751E+03  0.10954629751E+03  0.00000000000E+00 0.  1.
    9000007    1    1    2  501    0  0.13156564322E+03 -0.18627773159E+03  0.79329822543E+03  0.91724096411E+03  0.40000000000E+03 0.  1.
   -9000007    1    1    2    0  502 -0.13156564322E+03  0.18627773159E+03  0.10665040621E+04  0.11616539184E+04  0.40000000000E+03 0.  1.
<mgrwt>
<rscale>  2 0.46044425E+03</rscale>
<asrwt>0</asrwt>
<pdfrwt beam="1">  1       21 0.30297668E+00 0.46044425E+03</pdfrwt>
<pdfrwt beam="2">  1       21 0.16853278E-01 0.46044425E+03</pdfrwt>
<totfact> 0.83166779E+02</totfact>
</mgrwt>
</event>
<event>
 4    1  0.4758602E-002  0.4682467E+03  0.7818608E-02  0.1022416E+00
         21   -1    0    0  501  502  0.00000000000E+00  0.00000000000E+00  0.14133568750E+04  0.14133568750E+04  0.00000000000E+00 0.  1.
         21   -1    0    0  502  503 -0.00000000000E+00 -0.00000000000E+00 -0.65425906134E+03  0.65425906134E+03  0.00000000000E+00 0. -1.
    9000007    1    1    2  501    0 -0.22414099378E+03  0.94951455576E+02  0.12825143913E+04  0.13653197896E+04  0.40000000000E+03 0.  1.
   -9000007    1    1    2    0  503  0.22414099378E+03 -0.94951455576E+02 -0.52341657762E+03  0.70229614675E+03  0.40000000000E+03 0. -1.
<mgrwt>
<rscale>  2 0.46824669E+03</rscale>
<asrwt>0</asrwt>
<pdfrwt beam="1">  1       21 0.21743952E+00 0.46824669E+03</pdfrwt>
<pdfrwt beam="2">  1       21 0.10065524E+00 0.46824669E+03</pdfrwt>
<totfact> 0.65485713E+01</totfact>
</mgrwt>
</event>
<event>
 4    1  0.4758602E-002  0.4509034E+03  0.7818608E-02  0.1027453E+00
         21   -1    0    0  503  502  0.00000000000E+00  0.00000000000E+00  0.29885901144E+03  0.29885901144E+03  0.00000000000E+00 0. -1.
         21   -1    0    0  501  503 -0.00000000000E+00 -0.00000000000E+00 -0.74711232640E+03  0.74711232640E+03  0.00000000000E+00 0. -1.
    9000007    1    1    2  501    0 -0.18165558372E+03 -0.10156361746E+03 -0.38052195016E+03  0.59000921522E+03  0.40000000000E+03 0. -1.
   -9000007    1    1    2    0  502  0.18165558372E+03  0.10156361746E+03 -0.67731364796E+02  0.45596212262E+03  0.40000000000E+03 0. -1.
<mgrwt>
<rscale>  2 0.45090345E+03</rscale>
<asrwt>0</asrwt>
<pdfrwt beam="1">  1       21 0.45978310E-01 0.45090345E+03</pdfrwt>
<pdfrwt beam="2">  1       21 0.11494036E+00 0.45090345E+03</pdfrwt>
<totfact> 0.22971528E+03</totfact>
</mgrwt>
</event>
<event>
 4    1  0.4758602E-002  0.6292192E+03  0.7818608E-02  0.9846574E-01
         21   -1    0    0  501  502  0.00000000000E+00  0.00000000000E+00  0.13255628489E+04  0.13255628489E+04  0.00000000000E+00 0. -1.
         21   -1    0    0  502  503 -0.00000000000E+00 -0.00000000000E+00 -0.56929248720E+03  0.56929248720E+03  0.00000000000E+00 0.  1.
    9000007    1    1    2  501    0 -0.45850698165E+03 -0.16027529102E+03  0.10313464073E+04  0.12081358504E+04  0.40000000000E+03 0. -1.
   -9000007    1    1    2    0  503  0.45850698165E+03  0.16027529102E+03 -0.27507604563E+03  0.68671948568E+03  0.40000000000E+03 0.  1.
<mgrwt>
<rscale>  2 0.62921922E+03</rscale>
<asrwt>0</asrwt>
<pdfrwt beam="1">  1       21 0.20393274E+00 0.62921922E+03</pdfrwt>
<pdfrwt beam="2">  1       21 0.87583460E-01 0.62921922E+03</pdfrwt>
<totfact> 0.10386193E+02</totfact>
</mgrwt>
</event>
<event>
 4    1  0.4758602E-002  0.4050622E+03  0.7818608E-02  0.1042041E+00
         21   -1    0    0  503  502  0.00000000000E+00  0.00000000000E+00  0.17297789229E+04  0.17297789229E+04  0.00000000000E+00 0.  1.
         21   -1    0    0  501  503 -0.00000000000E+00 -0.00000000000E+00 -0.11585260666E+03  0.11585260666E+03  0.00000000000E+00 0.  1.
    9000007    1    1    2  501    0 -0.54173490281E+02 -0.33773130937E+02  0.41407976893E+03  0.57925594210E+03  0.40000000000E+03 0.  1.
   -9000007    1    1    2    0  502  0.54173490281E+02  0.33773130937E+02  0.11998465473E+04  0.12663755875E+04  0.40000000000E+03 0.  1.
<mgrwt>
<rscale>  2 0.40506221E+03</rscale>
<asrwt>0</asrwt>
<pdfrwt beam="1">  1       21 0.26611981E+00 0.40506221E+03</pdfrwt>
<pdfrwt beam="2">  1       21 0.17823479E-01 0.40506221E+03</pdfrwt>
<totfact> 0.12857910E+03</totfact>
</mgrwt>
</event>
<event>
 4    1  0.4758602E-002  0.4321590E+03  0.7818608E-02  0.1033180E+00
         21   -1    0    0  501  502  0.00000000000E+00  0.00000000000E+00  0.27837903854E+04  0.27837903854E+04  0.00000000000E+00 0.  1.
         21   -1    0    0  502  503 -0.00000000000E+00 -0.00000000000E+00 -0.15498271888E+03  0.15498271888E+03  0.00000000000E+00 0.  1.
    9000007    1    1    2  501    0 -0.88519426076E+02 -0.13757087229E+03  0.24209603274E+04  0.24592296234E+04  0.40000000000E+03 0.  1.
   -9000007    1    1    2    0  503  0.88519426076E+02  0.13757087229E+03  0.20784733913E+03  0.47954348091E+03  0.40000000000E+03 0.  1.
<mgrwt>
<rscale>  2 0.43215904E+03</rscale>
<asrwt>0</asrwt>
<pdfrwt beam="1">  1       21 0.42827541E+00 0.43215904E+03</pdfrwt>
<pdfrwt beam="2">  1       21 0.23843497E-01 0.43215904E+03</pdfrwt>
<totfact> 0.72248581E+01</totfact>
</mgrwt>
</event>
<event>
 4    1  0.4758602E-002  0.4144126E+03  0.7818608E-02  0.1038900E+00
         21   -1    0    0  503  502  0.00000000000E+00  0.00000000000E+00  0.17805124177E+03  0.17805124177E+03  0.00000000000E+00 0. -1.
         21   -1    0    0  501  503 -0.00000000000E+00 -0.00000000000E+00 -0.96590021007E+03  0.96590021007E+03  0.00000000000E+00 0. -1.
    9000007    1    1    2  501    0 -0.21688171560E+02 -0.10614795608E+03 -0.37247007544E+03  0.55719989453E+03  0.40000000000E+03 0. -1.
   -9000007    1    1    2    0  502  0.21688171560E+02  0.10614795608E+03 -0.41537889287E+03  0.58675155731E+03  0.40000000000E+03 0. -1.
<mgrwt>
<rscale>  2 0.41441255E+03</rscale>
<asrwt>0</asrwt>
<pdfrwt beam="1">  1       21 0.27392499E-01 0.41441255E+03</pdfrwt>
<pdfrwt beam="2">  1       21 0.14860003E+00 0.41441255E+03</pdfrwt>
<totfact> 0.34148143E+03</totfact>
</mgrwt>
</event>
<event>
 4    1  0.4758602E-002  0.5095788E+03  0.7818608E-02  0.1011309E+00
         21   -1    0    0  503  502  0.00000000000E+00  0.00000000000E+00  0.83071934598E+03  0.83071934598E+03  0.00000000000E+00 0. -1.
         21   -1    0    0  501  503 -0.00000000000E+00 -0.00000000000E+00 -0.31279925567E+03  0.31279925567E+03  0.00000000000E+00 0. -1.
    9000007    1    1    2  501    0  0.16686733757E+03 -0.26800353161E+03  0.24400426501E+03  0.56498555968E+03  0.40000000000E+03 0. -1.
   -9000007    1    1    2    0  502 -0.16686733757E+03  0.26800353161E+03  0.27391582530E+03  0.57853304197E+03  0.40000000000E+03 0. -1.
<mgrwt>
<rscale>  2 0.50957885E+03</rscale>
<asrwt>0</asrwt>
<pdfrwt beam="1">  1       21 0.12780298E+00 0.50957885E+03</pdfrwt>
<pdfrwt beam="2">  1       21 0.48122963E-01 0.50957885E+03</pdfrwt>
<totfact> 0.15581623E+03</totfact>
</mgrwt>
</event>
<event>
 4    1  0.4758602E-002  0.6951620E+03  0.7818608E-02  0.9725542E-01
         21   -1    0    0  503  502  0.00000000000E+00  0.00000000000E+00  0.32109066612E+03  0.32109066612E+03  0.00000000000E+00 0.  1.
         21   -1    0    0  501  503 -0.00000000000E+00 -0.00000000000E+00 -0.15919200201E+04  0.15919200201E+04  0.00000000000E+00 0. -1.
    9000007    1    1    2  501    0 -0.15178744001E+02  0.56834837831E+03 -0.41194528593E+03  0.80805271610E+03  0.40000000000E+03 0.  1.
   -9000007    1    1    2    0  502  0.15178744001E+02 -0.56834837831E+03 -0.85888406809E+03  0.11049579702E+04  0.40000000000E+03 0. -1.
<mgrwt>
<rscale>  2 0.69516205E+03</rscale>
<asrwt>0</asrwt>
<pdfrwt beam="1">  1       21 0.49398564E-01 0.69516205E+03</pdfrwt>
<pdfrwt beam="2">  1       21 0.24491077E+00 0.69516205E+03</pdfrwt>
<totfact> 0.19966685E+02</totfact>
</mgrwt>
</event>
<event>
 4    1  0.4758602E-002  0.4384373E+03  0.7818608E-02  0.1031227E+00
         21   -1    0    0  503  502  0.00000000000E+00  0.00000000000E+00  0.40269484348E+03  0.40269484348E+03  0.00000000000E+00 0.  1.
         21   -1    0    0  501  503 -0.00000000000E+00 -0.00000000000E+00 -0.47830488975E+03  0.47830488975E+03  0.00000000000E+00 0.  1.
    9000007    1    1    2  501    0 -0.15476092677E+03 -0.90974526859E+02 -0.18146687610E+02  0.43881272915E+03  0.40000000000E+03 0.  1.
   -9000007    1    1    2    0  502  0.15476092677E+03  0.90974526859E+02 -0.57463358658E+02  0.44218700408E+03  0.40000000000E+03 0.  1.
<mgrwt>
<rscale>  2 0.43843735E+03</rscale>
<asrwt>0</asrwt>
<pdfrwt beam="1">  1       21 0.61953053E-01 0.43843735E+03</pdfrwt>
<pdfrwt beam="2">  1       21 0.73585367E-01 0.43843735E+03</pdfrwt>
<totfact> 0.35193759E+03</totfact>
</mgrwt>
</event>
<event>
 4    1  0.4758602E-002  0.4677472E+03  0.7818608E-02  0.1022558E+00
         21   -1    0    0  503  502  0.00000000000E+00  0.00000000000E+00  0.26413645395E+03  0.26413645395E+03  0.00000000000E+00 0. -1.
         21   -1    0    0  501  503 -0.00000000000E+00 -0.00000000000E+00 -0.11918970428E+04  0.11918970428E+04  0.00000000000E+00 0.  1.
    9000007    1    1    2  501    0  0.11726671689E+03 -0.21221685684E+03 -0.86597172437E+03  0.98422279217E+03  0.40000000000E+03 0.  1.
   -9000007    1    1    2    0  502 -0.11726671689E+03  0.21221685684E+03 -0.61788864513E+02  0.47181070462E+03  0.40000000000E+03 0. -1.
<mgrwt>
<rscale>  2 0.46774724E+03</rscale>
<asrwt>0</asrwt>
<pdfrwt beam="1">  1       21 0.40636378E-01 0.46774724E+03</pdfrwt>
<pdfrwt beam="2">  1       21 0.18336878E+00 0.46774724E+03</pdfrwt>
<totfact> 0.83490854E+02</totfact>
</mgrwt>
</event>
<event>
 4    1  0.4758602E-002  0.6889868E+03  0.7818608E-02  0.9736254E-01
         21   -1    0    0  503  502  0.00000000000E+00  0.00000000000E+00  0.22139924520E+04  0.22139924520E+04  0.00000000000E+00 0.  1.
         21   -1    0    0  501  503 -0.00000000000E+00 -0.00000000000E+00 -0.24565521138E+03  0.24565521138E+03  0.00000000000E+00 0. -1.
    9000007    1    1    2  501    0 -0.73376728762E+02  0.55616423191E+03  0.54556771204E+03  0.87883270626E+03  0.40000000000E+03 0. -1.
   -9000007    1    1    2    0  502  0.73376728762E+02 -0.55616423191E+03  0.14227695286E+04  0.15808149571E+04  0.40000000000E+03 0. -1.
<mgrwt>
<rscale>  2 0.68898679E+03</rscale>
<asrwt>0</asrwt>
<pdfrwt beam="1">  1       21 0.34061421E+00 0.68898679E+03</pdfrwt>
<pdfrwt beam="2">  1       21 0.37793111E-01 0.68898679E+03</pdfrwt>
<totfact> 0.90269610E+01</totfact>
</mgrwt>
</event>
<event>
 4    1  0.4758602E-002  0.4056365E+03  0.7818608E-02  0.1041845E+00
         21   -1    0    0  503  502  0.00000000000E+00  0.00000000000E+00  0.44504099627E+03  0.44504099627E+03  0.00000000000E+00 0. -1.
         21   -1    0    0  501  503 -0.00000000000E+00 -0.00000000000E+00 -0.13088208410E+04  0.13088208410E+04  0.00000000000E+00 0. -1.
    9000007    1    1    2  501    0 -0.51931265323E+02 -0.42943004340E+02 -0.11747058171E+04  0.12427689707E+04  0.40000000000E+03 0. -1.
   -9000007    1    1    2    0  502  0.51931265323E+02  0.42943004340E+02  0.31092597235E+03  0.51109286654E+03  0.40000000000E+03 0. -1.
<mgrwt>
<rscale>  2 0.40563648E+03</rscale>
<asrwt>0</asrwt>
<pdfrwt beam="1">  1       21 0.68467845E-01 0.40563648E+03</pdfrwt>
<pdfrwt beam="2">  1       21 0.20135705E+00 0.40563648E+03</pdfrwt>
<totfact> 0.21225570E+02</totfact>
</mgrwt>
</event>
<event>
 4    1  0.4758602E-002  0.5240218E+03  0.7818608E-02  0.1007692E+00
         21   -1    0    0  501  502  0.00000000000E+00  0.00000000000E+00  0.44281230129E+03  0.44281230129E+03  0.00000000000E+00 0.  1.
         21   -1    0    0  502  503 -0.00000000000E+00 -0.00000000000E+00 -0.65517649525E+03  0.65517649525E+03  0.00000000000E+00 0. -1.
    9000007    1    1    2  501    0 -0.32604025464E+03 -0.91085660101E+02  0.20800410044E+02  0.52443445938E+03  0.40000000000E+03 0. -1.
   -9000007    1    1    2    0  503  0.32604025464E+03  0.91085660101E+02 -0.23316460400E+03  0.57355433717E+03  0.40000000000E+03 0. -1.
<mgrwt>
<rscale>  2 0.52402180E+03</rscale>
<asrwt>0</asrwt>
<pdfrwt beam="1">  1       21 0.68124970E-01 0.52402180E+03</pdfrwt>
<pdfrwt beam="2">  1       21 0.10079638E+00 0.52402180E+03</pdfrwt>
<totfact> 0.13194857E+03</totfact>
</mgrwt>
</event>
<event>
 4    1  0.4758602E-002  0.4518717E+03  0.7818608E-02  0.1027165E+00
         21   -1    0    0  501  502  0.00000000000E+00  0.00000000000E+00  0.22528673946E+03  0.22528673946E+03  0.00000000000E+00 0. -1.
         21   -1    0    0  502  503 -0.00000000000E+00 -0.00000000000E+00 -0.90660265057E+03  0.90660265057E+03  0.00000000000E+00 0. -1.
    9000007    1    1    2  501    0 -0.20496400597E+03  0.46666910337E+02 -0.33116125712E+03  0.56022836637E+03  0.40000000000E+03 0. -1.
   -9000007    1    1    2    0  503  0.20496400597E+03 -0.46666910337E+02 -0.35015465399E+03  0.57166102366E+03  0.40000000000E+03 0. -1.
<mgrwt>
<rscale>  2 0.45187171E+03</rscale>
<asrwt>0</asrwt>
<pdfrwt beam="1">  1       21 0.34659499E-01 0.45187171E+03</pdfrwt>
<pdfrwt beam="2">  1       21 0.13947733E+00 0.45187171E+03</pdfrwt>
<totfact> 0.24959253E+03</totfact>
</mgrwt>
</event>
<event>
 4    1  0.4758602E-002  0.4128738E+03  0.7818608E-02  0.1039411E+00
         21   -1    0    0  501  502  0.00000000000E+00  0.00000000000E+00  0.19269334417E+03  0.19269334417E+03  0.00000000000E+00 0. -1.
         21   -1    0    0  502  503 -0.00000000000E+00 -0.00000000000E+00 -0.17872169477E+04  0.17872169477E+04  0.00000000000E+00 0.  1.
    9000007    1    1    2  501    0  0.98288637371E+02 -0.28357114712E+02 -0.93754965341E+02  0.42338490256E+03  0.40000000000E+03 0. -1.
   -9000007    1    1    2    0  503 -0.98288637371E+02  0.28357114712E+02 -0.15007686382E+04  0.15565253893E+04  0.40000000000E+03 0.  1.
<mgrwt>
<rscale>  2 0.41287381E+03</rscale>
<asrwt>0</asrwt>
<pdfrwt beam="1">  1       21 0.29645131E-01 0.41287381E+03</pdfrwt>
<pdfrwt beam="2">  1       21 0.27495645E+00 0.41287381E+03</pdfrwt>
<totfact> 0.42476838E+02</totfact>
</mgrwt>
</event>
<event>
 4    1  0.4758602E-002  0.4297065E+03  0.7818608E-02  0.1033953E+00
         21   -1    0    0  501  502  0.00000000000E+00  0.00000000000E+00  0.43782043619E+03  0.43782043619E+03  0.00000000000E+00 0.  1.
         21   -1    0    0  502  503 -0.00000000000E+00 -0.00000000000E+00 -0.13462767582E+04  0.13462767582E+04  0.00000000000E+00 0.  1.
    9000007    1    1    2  501    0  0.15681924830E+03 -0.74421154720E+01  0.28500722894E+03  0.51563241002E+03  0.40000000000E+03 0.  1.
   -9000007    1    1    2    0  503 -0.15681924830E+03  0.74421154720E+01 -0.11934635510E+04  0.12684647844E+04  0.40000000000E+03 0.  1.
<mgrwt>
<rscale>  2 0.42970648E+03</rscale>
<asrwt>0</asrwt>
<pdfrwt beam="1">  1       21 0.67356990E-01 0.42970648E+03</pdfrwt>
<pdfrwt beam="2">  1       21 0.20711950E+00 0.42970648E+03</pdfrwt>
<totfact> 0.19895591E+02</totfact>
</mgrwt>
</event>
<event>
 4    1  0.4758602E-002  0.5244299E+03  0.7818608E-02  0.1007592E+00
         21   -1    0    0  501  502  0.00000000000E+00  0.00000000000E+00  0.98476917103E+03  0.98476917103E+03  0.00000000000E+00 0.  1.
         21   -1    0    0  502  503 -0.00000000000E+00 -0.00000000000E+00 -0.28269069402E+03  0.28269069402E+03  0.00000000000E+00 0. -1.
    9000007    1    1    2  501    0 -0.19223498057E+03  0.27941442652E+03  0.42064506128E+03  0.67228638026E+03  0.40000000000E+03 0.  1.
   -9000007    1    1    2    0  503  0.19223498057E+03 -0.27941442652E+03  0.28143341573E+03  0.59517348479E+03  0.40000000000E+03 0. -1.
<mgrwt>
<rscale>  2 0.52442989E+03</rscale>
<asrwt>0</asrwt>
<pdfrwt beam="1">  1       21 0.15150295E+00 0.52442989E+03</pdfrwt>
<pdfrwt beam="2">  1       21 0.43490876E-01 0.52442989E+03</pdfrwt>
<totfact> 0.12193352E+03</totfact>
</mgrwt>
</event>
<event>
 4    1  0.4758602E-002  0.5177474E+03  0.7818608E-02  0.1009248E+00
         21   -1    0    0  501  502  0.00000000000E+00  0.00000000000E+00  0.13586133085E+04  0.13586133085E+04  0.00000000000E+00 0. -1.
         21   -1    0    0  502  503 -0.00000000000E+00 -0.00000000000E+00 -0.35818415541E+03  0.35818415541E+03  0.00000000000E+00 0. -1.
    9000007    1    1    2  501    0  0.26851620611E+03  0.18963488256E+03  0.10755016765E+04  0.11936357056E+04  0.40000000000E+03 0. -1.
   -9000007    1    1    2    0  503 -0.26851620611E+03 -0.18963488256E+03 -0.75072523338E+02  0.52316175834E+03  0.40000000000E+03 0. -1.
<mgrwt>
<rscale>  2 0.51774737E+03</rscale>
<asrwt>0</asrwt>
<pdfrwt beam="1">  1       21 0.20901743E+00 0.51774737E+03</pdfrwt>
<pdfrwt beam="2">  1       21 0.55105255E-01 0.51774737E+03</pdfrwt>
<totfact> 0.28757500E+02</totfact>
</mgrwt>
</event>
<event>
 4    1  0.4758602E-002  0.4690694E+03  0.7818608E-02  0.1022183E+00
         21   -1    0    0  503  502  0.00000000000E+00  0.00000000000E+00  0.94218509082E+03  0.94218509082E+03  0.00000000000E+00 0. -1.
         21   -1    0    0  501  503 -0.00000000000E+00 -0.00000000000E+00 -0.35916619291E+03  0.35916619291E+03  0.00000000000E+00 0. -1.
    9000007    1    1    2  501    0 -0.20968077191E+03 -0.12672852962E+03 -0.93329035913E+02  0.47826400165E+03  0.40000000000E+03 0. -1.
   -9000007    1    1    2    0  502  0.20968077191E+03  0.12672852962E+03  0.67634793382E+03  0.82308728207E+03  0.40000000000E+03 0. -1.
<mgrwt>
<rscale>  2 0.46906945E+03</rscale>
<asrwt>0</asrwt>
<pdfrwt beam="1">  1       21 0.14495155E+00 0.46906945E+03</pdfrwt>
<pdfrwt beam="2">  1       21 0.55256338E-01 0.46906945E+03</pdfrwt>
<totfact> 0.84414855E+02</totfact>
</mgrwt>
</event>
<event>
 4    1  0.4758602E-002  0.6451121E+03  0.7818608E-02  0.9815994E-01
         21   -1    0    0  503  502  0.00000000000E+00  0.00000000000E+00  0.14095677528E+04  0.14095677528E+04  0.00000000000E+00 0.  1.
         21   -1    0    0  501  503 -0.00000000000E+00 -0.00000000000E+00 -0.29737761120E+03  0.29737761120E+03  0.00000000000E+00 0. -1.
    9000007    1    1    2  501    0 -0.50605097580E+03  0.90566128029E+01  0.62834919305E+03  0.90055112056E+03  0.40000000000E+03 0.  1.
   -9000007    1    1    2    0  502  0.50605097580E+03 -0.90566128029E+01  0.48384094856E+03  0.80639424343E+03  0.40000000000E+03 0. -1.
<mgrwt>
<rscale>  2 0.64511209E+03</rscale>
<asrwt>0</asrwt>
<pdfrwt beam="1">  1       21 0.21685657E+00 0.64511209E+03</pdfrwt>
<pdfrwt beam="2">  1       21 0.45750402E-01 0.64511209E+03</pdfrwt>
<totfact> 0.36177275E+02</totfact>
</mgrwt>
</event>
<event>
 4    1  0.4758602E-002  0.5297847E+03  0.7818608E-02  0.1006284E+00
         21   -1    0    0  501  502  0.00000000000E+00  0.00000000000E+00  0.44309714659E+03  0.44309714659E+03  0.00000000000E+00 0.  1.
         21   -1    0    0  502  503 -0.00000000000E+00 -0.00000000000E+00 -0.70261315946E+03  0.70261315946E+03  0.00000000000E+00 0.  1.
    9000007    1    1    2  501    0 -0.34489347771E+03 -0.41476674486E+02  0.49997090493E+02  0.53213864222E+03  0.40000000000E+03 0.  1.
   -9000007    1    1    2    0  503  0.34489347771E+03  0.41476674486E+02 -0.30951310337E+03  0.61357166382E+03  0.40000000000E+03 0.  1.
<mgrwt>
<rscale>  2 0.52978470E+03</rscale>
<asrwt>0</asrwt>
<pdfrwt beam="1">  1       21 0.68168792E-01 0.52978470E+03</pdfrwt>
<pdfrwt beam="2">  1       21 0.10809433E+00 0.52978470E+03</pdfrwt>
<totfact> 0.11065989E+03</totfact>
</mgrwt>
</event>
<event>
 4    1  0.4758602E-002  0.4110983E+03  0.7818608E-02  0.1040003E+00
         21   -1    0    0  503  502  0.00000000000E+00  0.00000000000E+00  0.67202468398E+03  0.67202468398E+03  0.00000000000E+00 0.  1.
         21   -1    0    0  501  503 -0.00000000000E+00 -0.00000000000E+00 -0.41267208687E+03  0.41267208687E+03  0.00000000000E+00 0.  1.
    9000007    1    1    2  501    0  0.52288948876E+02  0.79168617118E+02 -0.20928146499E+03  0.46130308443E+03  0.40000000000E+03 0.  1.
   -9000007    1    1    2    0  502 -0.52288948876E+02 -0.79168617118E+02  0.46863406210E+03  0.62339368643E+03  0.40000000000E+03 0.  1.
<mgrwt>
<rscale>  2 0.41109829E+03</rscale>
<asrwt>0</asrwt>
<pdfrwt beam="1">  1       21 0.10338841E+00 0.41109829E+03</pdfrwt>
<pdfrwt beam="2">  1       21 0.63488013E-01 0.41109829E+03</pdfrwt>
<totfact> 0.15145903E+03</totfact>
</mgrwt>
</event>
<event>
 4    1  0.4758602E-002  0.4116997E+03  0.7818608E-02  0.1039802E+00
         21   -1    0    0  501  502  0.00000000000E+00  0.00000000000E+00  0.53381244935E+03  0.53381244935E+03  0.00000000000E+00 0.  1.
         21   -1    0    0  502  503 -0.00000000000E+00 -0.00000000000E+00 -0.13634817462E+04  0.13634817462E+04  0.00000000000E+00 0.  1.
    9000007    1    1    2  501    0 -0.97450439721E+02 -0.19809251494E+00  0.41604424178E+03  0.58531140307E+03  0.40000000000E+03 0.  1.
   -9000007    1    1    2    0  503  0.97450439721E+02  0.19809251494E+00 -0.12457135387E+04  0.13119827925E+04  0.40000000000E+03 0.  1.
<mgrwt>
<rscale>  2 0.41169968E+03</rscale>
<asrwt>0</asrwt>
<pdfrwt beam="1">  1       21 0.82124994E-01 0.41169968E+03</pdfrwt>
<pdfrwt beam="2">  1       21 0.20976642E+00 0.41169968E+03</pdfrwt>
<totfact> 0.12311378E+02</totfact>
</mgrwt>
</event>
<event>
 4    1  0.4758602E-002  0.5066009E+03  0.7818608E-02  0.1012070E+00
         21   -1    0    0  503  502  0.00000000000E+00  0.00000000000E+00  0.75170279522E+03  0.75170279522E+03  0.00000000000E+00 0. -1.
         21   -1    0    0  501  503 -0.00000000000E+00 -0.00000000000E+00 -0.34167503545E+03  0.34167503545E+03  0.00000000000E+00 0.  1.
    9000007    1    1    2  501    0 -0.29656250388E+03 -0.93248063851E+02  0.19000606943E+03  0.54106083442E+03  0.40000000000E+03 0. -1.
   -9000007    1    1    2    0  502  0.29656250388E+03  0.93248063851E+02  0.22002169034E+03  0.55231699625E+03  0.40000000000E+03 0.  1.
<mgrwt>
<rscale>  2 0.50660095E+03</rscale>
<asrwt>0</asrwt>
<pdfrwt beam="1">  1       21 0.11564658E+00 0.50660095E+03</pdfrwt>
<pdfrwt beam="2">  1       21 0.52565390E-01 0.50660095E+03</pdfrwt>
<totfact> 0.16682761E+03</totfact>
</mgrwt>
</event>
<event>
 4    1  0.4758602E-002  0.4110980E+03  0.7818608E-02  0.1040003E+00
         21   -1    0    0  503  502  0.00000000000E+00  0.00000000000E+00  0.11518465369E+04  0.11518465369E+04  0.00000000000E+00 0. -1.
         21   -1    0    0  501  503 -0.00000000000E+00 -0.00000000000E+00 -0.17740022168E+03  0.17740022168E+03  0.00000000000E+00 0. -1.
    9000007    1    1    2  501    0 -0.88692996089E+02 -0.33690925708E+02  0.76360645378E+03  0.86723488300E+03  0.40000000000E+03 0.  1.
   -9000007    1    1    2    0  502  0.88692996089E+02  0.33690925708E+02  0.21083986147E+03  0.46201187562E+03  0.40000000000E+03 0.  1.
<mgrwt>
<rscale>  2 0.41109795E+03</rscale>
<asrwt>0</asrwt>
<pdfrwt beam="1">  1       21 0.17720715E+00 0.41109795E+03</pdfrwt>
<pdfrwt beam="2">  1       21 0.27292343E-01 0.41109795E+03</pdfrwt>
<totfact> 0.21069748E+03</totfact>
</mgrwt>
</event>
<event>
 4    1  0.4758602E-002  0.4515678E+03  0.7818608E-02  0.1027256E+00
         21   -1    0    0  503  502  0.00000000000E+00  0.00000000000E+00  0.12123993854E+03  0.12123993854E+03  0.00000000000E+00 0.  1.
         21   -1    0    0  501  503 -0.00000000000E+00 -0.00000000000E+00 -0.16921186260E+04  0.16921186260E+04  0.00000000000E+00 0.  1.
    9000007    1    1    2  501    0 -0.19629947298E+03 -0.73348689721E+02 -0.85589630288E+03  0.96771483127E+03  0.40000000000E+03 0. -1.
   -9000007    1    1    2    0  502  0.19629947298E+03  0.73348689721E+02 -0.71498238461E+03  0.84564373330E+03  0.40000000000E+03 0. -1.
<mgrwt>
<rscale>  2 0.45156784E+03</rscale>
<asrwt>0</asrwt>
<pdfrwt beam="1">  1       21 0.18652298E-01 0.45156784E+03</pdfrwt>
<pdfrwt beam="2">  1       21 0.26032594E+00 0.45156784E+03</pdfrwt>
<totfact> 0.12489539E+03</totfact>
</mgrwt>
</event>
<event>
 4    1  0.4758602E-002  0.4310529E+03  0.7818608E-02  0.1033528E+00
         21   -1    0    0  501  502  0.00000000000E+00  0.00000000000E+00  0.79491110596E+03  0.79491110596E+03  0.00000000000E+00 0. -1.
         21   -1    0    0  502  503 -0.00000000000E+00 -0.00000000000E+00 -0.11680337162E+04  0.11680337162E+04  0.00000000000E+00 0. -1.
    9000007    1    1    2  501    0 -0.26418127381E+02  0.15845732976E+03  0.69122927442E+03  0.81461926851E+03  0.40000000000E+03 0. -1.
   -9000007    1    1    2    0  503  0.26418127381E+02 -0.15845732976E+03 -0.10643518847E+04  0.11483255537E+04  0.40000000000E+03 0. -1.
<mgrwt>
<rscale>  2 0.43105295E+03</rscale>
<asrwt>0</asrwt>
<pdfrwt beam="1">  1       21 0.12229402E+00 0.43105295E+03</pdfrwt>
<pdfrwt beam="2">  1       21 0.17969749E+00 0.43105295E+03</pdfrwt>
<totfact> 0.73861942E+01</totfact>
</mgrwt>
</event>
<event>
 4    1  0.4758602E-002  0.4014737E+03  0.7818608E-02  0.1043271E+00
         21   -1    0    0  501  502  0.00000000000E+00  0.00000000000E+00  0.13820276072E+03  0.13820276072E+03  0.00000000000E+00 0.  1.
         21   -1    0    0  502  503 -0.00000000000E+00 -0.00000000000E+00 -0.13795929023E+04  0.13795929023E+04  0.00000000000E+00 0.  1.
    9000007    1    1    2  501    0 -0.27799369372E+02  0.20207668400E+02 -0.32227306693E+03  0.51482141027E+03  0.40000000000E+03 0.  1.
   -9000007    1    1    2    0  503  0.27799369372E+02 -0.20207668400E+02 -0.91911707469E+03  0.10029742528E+04  0.40000000000E+03 0.  1.
<mgrwt>
<rscale>  2 0.40147373E+03</rscale>
<asrwt>0</asrwt>
<pdfrwt beam="1">  1       21 0.21261962E-01 0.40147373E+03</pdfrwt>
<pdfrwt beam="2">  1       21 0.21224507E+00 0.40147373E+03</pdfrwt>
<totfact> 0.19914369E+03</totfact>
</mgrwt>
</event>
<event>
 4    1  0.4758602E-002  0.5176054E+03  0.7818608E-02  0.1009283E+00
         21   -1    0    0  503  502  0.00000000000E+00  0.00000000000E+00  0.49555085428E+03  0.49555085428E+03  0.00000000000E+00 0. -1.
         21   -1    0    0  501  503 -0.00000000000E+00 -0.00000000000E+00 -0.67061106386E+03  0.67061106386E+03  0.00000000000E+00 0.  1.
    9000007    1    1    2  501    0 -0.19053141209E+03 -0.26760625581E+03 -0.34422334640E+03  0.62161486416E+03  0.40000000000E+03 0.  1.
   -9000007    1    1    2    0  502  0.19053141209E+03  0.26760625581E+03  0.16916313682E+03  0.54454705398E+03  0.40000000000E+03 0. -1.
<mgrwt>
<rscale>  2 0.51760538E+03</rscale>
<asrwt>0</asrwt>
<pdfrwt beam="1">  1       21 0.76238593E-01 0.51760538E+03</pdfrwt>
<pdfrwt beam="2">  1       21 0.10317093E+00 0.51760538E+03</pdfrwt>
<totfact> 0.96716172E+02</totfact>
</mgrwt>
</event>
<event>
 4    1  0.4758602E-002  0.5649026E+03  0.7818608E-02  0.9981022E-01
         21   -1    0    0  501  502  0.00000000000E+00  0.00000000000E+00  0.46675364289E+03  0.46675364289E+03  0.00000000000E+00 0.  1.
         21   -1    0    0  502  503 -0.00000000000E+00 -0.00000000000E+00 -0.98026121291E+03  0.98026121291E+03  0.00000000000E+00 0.  1.
    9000007    1    1    2  501    0 -0.22108957451E+03 -0.33201562395E+03  0.14120335837E+03  0.58228288908E+03  0.40000000000E+03 0.  1.
   -9000007    1    1    2    0  503  0.22108957451E+03  0.33201562395E+03 -0.65471092839E+03  0.86473196672E+03  0.40000000000E+03 0.  1.
<mgrwt>
<rscale>  2 0.56490262E+03</rscale>
<asrwt>0</asrwt>
<pdfrwt beam="1">  1       21 0.71808254E-01 0.56490262E+03</pdfrwt>
<pdfrwt beam="2">  1       21 0.15080941E+00 0.56490262E+03</pdfrwt>
<totfact> 0.40837552E+02</totfact>
</mgrwt>
</event>
<event>
 4    1  0.4758602E-002  0.4247203E+03  0.7818608E-02  0.1035541E+00
         21   -1    0    0  501  502  0.00000000000E+00  0.00000000000E+00  0.44445362047E+02  0.44445362047E+02  0.00000000000E+00 0.  1.
         21   -1    0    0  502  503 -0.00000000000E+00 -0.00000000000E+00 -0.40586432327E+04  0.40586432327E+04  0.00000000000E+00 0.  1.
    9000007    1    1    2  501    0  0.13469093856E+03  0.47388633114E+02 -0.20035611684E+04  0.20480831738E+04  0.40000000000E+03 0. -1.
   -9000007    1    1    2    0  503 -0.13469093856E+03 -0.47388633114E+02 -0.20106367023E+04  0.20550054209E+04  0.40000000000E+03 0. -1.
<mgrwt>
<rscale>  2 0.42472030E+03</rscale>
<asrwt>0</asrwt>
<pdfrwt beam="1">  1       21 0.68377480E-02 0.42472030E+03</pdfrwt>
<pdfrwt beam="2">  1       21 0.62440665E+00 0.42472030E+03</pdfrwt>
<totfact> 0.26310654E+01</totfact>
</mgrwt>
</event>
<event>
 4    1  0.4758602E-002  0.4327715E+03  0.7818608E-02  0.1032988E+00
         21   -1    0    0  503  502  0.00000000000E+00  0.00000000000E+00  0.25372690681E+03  0.25372690681E+03  0.00000000000E+00 0.  1.
         21   -1    0    0  501  503 -0.00000000000E+00 -0.00000000000E+00 -0.84168259136E+03  0.84168259136E+03  0.00000000000E+00 0. -1.
    9000007    1    1    2  501    0  0.43521471041E+02 -0.15936461699E+03 -0.48606073797E+03  0.65080430283E+03  0.40000000000E+03 0.  1.
   -9000007    1    1    2    0  502 -0.43521471041E+02  0.15936461699E+03 -0.10189494658E+03  0.44460519535E+03  0.40000000000E+03 0.  1.
<mgrwt>
<rscale>  2 0.43277153E+03</rscale>
<asrwt>0</asrwt>
<pdfrwt beam="1">  1       21 0.39034909E-01 0.43277153E+03</pdfrwt>
<pdfrwt beam="2">  1       21 0.12948963E+00 0.43277153E+03</pdfrwt>
<totfact> 0.23978978E+03</totfact>
</mgrwt>
</event>
<event>
 4    1  0.4758602E-002  0.4487847E+03  0.7818608E-02  0.1028085E+00
         21   -1    0    0  503  502  0.00000000000E+00  0.00000000000E+00  0.83178898863E+03  0.83178898863E+03  0.00000000000E+00 0.  1.
         21   -1    0    0  501  503 -0.00000000000E+00 -0.00000000000E+00 -0.27430274094E+03  0.27430274094E+03  0.00000000000E+00 0.  1.
    9000007    1    1    2  501    0  0.15668731258E+03 -0.12983378892E+03  0.89362271087E+02  0.45759517279E+03  0.40000000000E+03 0. -1.
   -9000007    1    1    2    0  502 -0.15668731258E+03  0.12983378892E+03  0.46812397661E+03  0.64849655677E+03  0.40000000000E+03 0. -1.
<mgrwt>
<rscale>  2 0.44878472E+03</rscale>
<asrwt>0</asrwt>
<pdfrwt beam="1">  1       21 0.12796754E+00 0.44878472E+03</pdfrwt>
<pdfrwt beam="2">  1       21 0.42200422E-01 0.44878472E+03</pdfrwt>
<totfact> 0.20918228E+03</totfact>
</mgrwt>
</event>
<event>
 4    1  0.4758602E-002  0.5604649E+03  0.7818608E-02  0.9991003E-01
         21   -1    0    0  503  502  0.00000000000E+00  0.00000000000E+00  0.34382208039E+03  0.34382208039E+03  0.00000000000E+00 0.  1.
         21   -1    0    0  501  503 -0.00000000000E+00 -0.00000000000E+00 -0.15637872686E+04  0.15637872686E+04  0.00000000000E+00 0.  1.
    9000007    1    1    2  501    0  0.38667035920E+03  0.67874039440E+02 -0.12249965693E+04  0.13471219123E+04  0.40000000000E+03 0.  1.
   -9000007    1    1    2    0  502 -0.38667035920E+03 -0.67874039440E+02  0.50313810224E+01  0.56048743671E+03  0.40000000000E+03 0.  1.
<mgrwt>
<rscale>  2 0.56046485E+03</rscale>
<asrwt>0</asrwt>
<pdfrwt beam="1">  1       21 0.52895704E-01 0.56046485E+03</pdfrwt>
<pdfrwt beam="2">  1       21 0.24058266E+00 0.56046485E+03</pdfrwt>
<totfact> 0.19353207E+02</totfact>
</mgrwt>
</event>
<event>
 4    1  0.4758602E-002  0.4845246E+03  0.7818608E-02  0.1017899E+00
         21   -1    0    0  503  502  0.00000000000E+00  0.00000000000E+00  0.86907707222E+03  0.86907707222E+03  0.00000000000E+00 0. -1.
         21   -1    0    0  501  503 -0.00000000000E+00 -0.00000000000E+00 -0.41275484654E+03  0.41275484654E+03  0.00000000000E+00 0.  1.
    9000007    1    1    2  501    0  0.27329448402E+03  0.86146058023E+01 -0.14858785421E+03  0.50679624786E+03  0.40000000000E+03 0.  1.
   -9000007    1    1    2    0  502 -0.27329448402E+03 -0.86146058023E+01  0.60491007988E+03  0.77503567090E+03  0.40000000000E+03 0. -1.
<mgrwt>
<rscale>  2 0.48452460E+03</rscale>
<asrwt>0</asrwt>
<pdfrwt beam="1">  1       21 0.13370417E+00 0.48452460E+03</pdfrwt>
<pdfrwt beam="2">  1       21 0.63500746E-01 0.48452460E+03</pdfrwt>
<totfact> 0.76672615E+02</totfact>
</mgrwt>
</event>
<event>
 4    1  0.4758602E-002  0.4087276E+03  0.7818608E-02  0.1040799E+00
         21   -1    0    0  501  502  0.00000000000E+00  0.00000000000E+00  0.63614376023E+03  0.63614376023E+03  0.00000000000E+00 0. -1.
         21   -1    0    0  502  503 -0.00000000000E+00 -0.00000000000E+00 -0.37518433663E+03  0.37518433663E+03  0.00000000000E+00 0. -1.
    9000007    1    1    2  501    0  0.61049569490E+02  0.57716449893E+02  0.40746572050E+03  0.57713651063E+03  0.40000000000E+03 0. -1.
   -9000007    1    1    2    0  503 -0.61049569490E+02 -0.57716449893E+02 -0.14650629690E+03  0.43419158623E+03  0.40000000000E+03 0. -1.
<mgrwt>
<rscale>  2 0.40872758E+03</rscale>
<asrwt>0</asrwt>
<pdfrwt beam="1">  1       21 0.97868271E-01 0.40872758E+03</pdfrwt>
<pdfrwt beam="2">  1       21 0.57720667E-01 0.40872758E+03</pdfrwt>
<totfact> 0.21341303E+03</totfact>
</mgrwt>
</event>
<event>
 4    1  0.4758602E-002  0.4161427E+03  0.7818608E-02  0.1038329E+00
         21   -1    0    0  501  502  0.00000000000E+00  0.00000000000E+00  0.24054579046E+04  0.24054579046E+04  0.00000000000E+00 0. -1.
         21   -1    0    0  502  503 -0.00000000000E+00 -0.00000000000E+00 -0.11901965171E+03  0.11901965171E+03  0.00000000000E+00 0. -1.
    9000007    1    1    2  501    0  0.10030283718E+03 -0.55804070432E+02  0.19366459051E+04  0.19808513612E+04  0.40000000000E+03 0. -1.
   -9000007    1    1    2    0  503 -0.10030283718E+03  0.55804070432E+02  0.34979234777E+03  0.54362619508E+03  0.40000000000E+03 0. -1.
<mgrwt>
<rscale>  2 0.41614271E+03</rscale>
<asrwt>0</asrwt>
<pdfrwt beam="1">  1       21 0.37007041E+00 0.41614271E+03</pdfrwt>
<pdfrwt beam="2">  1       21 0.18310717E-01 0.41614271E+03</pdfrwt>
<totfact> 0.28534967E+02</totfact>
</mgrwt>
</event>
<event>
 4    1  0.4758602E-002  0.5945455E+03  0.7818608E-02  0.9916787E-01
         21   -1    0    0  501  502  0.00000000000E+00  0.00000000000E+00  0.11681462674E+04  0.11681462674E+04  0.00000000000E+00 0. -1.
         21   -1    0    0  502  503 -0.00000000000E+00 -0.00000000000E+00 -0.57489029484E+03  0.57489029484E+03  0.00000000000E+00 0. -1.
    9000007    1    1    2  501    0 -0.33400557844E+03  0.28622487807E+03  0.89641603678E+03  0.10756607821E+04  0.40000000000E+03 0. -1.
   -9000007    1    1    2    0  503  0.33400557844E+03 -0.28622487807E+03 -0.30316006425E+03  0.66737578006E+03  0.40000000000E+03 0. -1.
<mgrwt>
<rscale>  2 0.59454555E+03</rscale>
<asrwt>0</asrwt>
<pdfrwt beam="1">  1       21 0.17971481E+00 0.59454555E+03</pdfrwt>
<pdfrwt beam="2">  1       21 0.88444661E-01 0.59454555E+03</pdfrwt>
<totfact> 0.15113538E+02</totfact>
</mgrwt>
</event>
<event>
 4    1  0.4758602E-002  0.4209763E+03  0.7818608E-02  0.1036749E+00
         21   -1    0    0  503  502  0.00000000000E+00  0.00000000000E+00  0.65586047293E+03  0.65586047293E+03  0.00000000000E+00 0. -1.
         21   -1    0    0  501  503 -0.00000000000E+00 -0.00000000000E+00 -0.27029030246E+03  0.27029030246E+03  0.00000000000E+00 0.  1.
    9000007    1    1    2  501    0 -0.39539879782E+02 -0.12513059827E+03  0.20068995690E+03  0.46636630187E+03  0.40000000000E+03 0.  1.
   -9000007    1    1    2    0  502  0.39539879782E+02  0.12513059827E+03  0.18488021357E+03  0.45978447352E+03  0.40000000000E+03 0.  1.
<mgrwt>
<rscale>  2 0.42097633E+03</rscale>
<asrwt>0</asrwt>
<pdfrwt beam="1">  1       21 0.10090161E+00 0.42097633E+03</pdfrwt>
<pdfrwt beam="2">  1       21 0.41583124E-01 0.42097633E+03</pdfrwt>
<totfact> 0.39510575E+03</totfact>
</mgrwt>
</event>
<event>
 4    1  0.4758602E-002  0.4752897E+03  0.7818608E-02  0.1020438E+00
         21   -1    0    0  503  502  0.00000000000E+00  0.00000000000E+00  0.78620095882E+03  0.78620095882E+03  0.00000000000E+00 0. -1.
         21   -1    0    0  501  503 -0.00000000000E+00 -0.00000000000E+00 -0.30544802917E+03  0.30544802917E+03  0.00000000000E+00 0. -1.
    9000007    1    1    2  501    0  0.11554841985E+03 -0.22923531834E+03  0.37330626392E+03  0.60436564693E+03  0.40000000000E+03 0. -1.
   -9000007    1    1    2    0  502 -0.11554841985E+03  0.22923531834E+03  0.10744666573E+03  0.48728334107E+03  0.40000000000E+03 0. -1.
<mgrwt>
<rscale>  2 0.47528967E+03</rscale>
<asrwt>0</asrwt>
<pdfrwt beam="1">  1       21 0.12095399E+00 0.47528967E+03</pdfrwt>
<pdfrwt beam="2">  1       21 0.46992005E-01 0.47528967E+03</pdfrwt>
<totfact> 0.19115147E+03</totfact>
</mgrwt>
</event>
<event>
 4    1  0.4758602E-002  0.4077133E+03  0.7818608E-02  0.1041141E+00
         21   -1    0    0  503  502  0.00000000000E+00  0.00000000000E+00  0.18099602504E+04  0.18099602504E+04  0.00000000000E+00 0.  1.
         21   -1    0    0  501  503 -0.00000000000E+00 -0.00000000000E+00 -0.16203482197E+03  0.16203482197E+03  0.00000000000E+00 0.  1.
    9000007    1    1    2  501    0 -0.81205830493E+01 -0.78512454597E+02  0.17500204199E+03  0.44368441949E+03  0.40000000000E+03 0.  1.
   -9000007    1    1    2    0  502  0.81205830493E+01  0.78512454597E+02  0.14729233864E+04  0.15283106529E+04  0.40000000000E+03 0.  1.
<mgrwt>
<rscale>  2 0.40771332E+03</rscale>
<asrwt>0</asrwt>
<pdfrwt beam="1">  1       21 0.27845541E+00 0.40771332E+03</pdfrwt>
<pdfrwt beam="2">  1       21 0.24928435E-01 0.40771332E+03</pdfrwt>
<totfact> 0.57021766E+02</totfact>
</mgrwt>
</event>
<event>
 4    1  0.4758602E-002  0.7242595E+03  0.7818608E-02  0.9676622E-01
         21   -1    0    0  501  502  0.00000000000E+00  0.00000000000E+00  0.47576462634E+03  0.47576462634E+03  0.00000000000E+00 0. -1.
         21   -1    0    0  502  503 -0.00000000000E+00 -0.00000000000E+00 -0.14076603898E+04  0.14076603898E+04  0.00000000000E+00 0. -1.
    9000007    1    1    2  501    0 -0.60372281166E+03  0.83999858371E+01 -0.27516506824E+02  0.72478200255E+03  0.40000000000E+03 0. -1.
   -9000007    1    1    2    0  503  0.60372281166E+03 -0.83999858371E+01 -0.90437925660E+03  0.11586430136E+04  0.40000000000E+03 0. -1.
<mgrwt>
<rscale>  2 0.72425948E+03</rscale>
<asrwt>0</asrwt>
<pdfrwt beam="1">  1       21 0.73194557E-01 0.72425948E+03</pdfrwt>
<pdfrwt beam="2">  1       21 0.21656314E+00 0.72425948E+03</pdfrwt>
<totfact> 0.12573467E+02</totfact>
</mgrwt>
</event>
<event>
 4    1  0.4758602E-002  0.4595773E+03  0.7818608E-02  0.1024904E+00
         21   -1    0    0  501  502  0.00000000000E+00  0.00000000000E+00  0.29150033364E+03  0.29150033364E+03  0.00000000000E+00 0.  1.
         21   -1    0    0  502  503 -0.00000000000E+00 -0.00000000000E+00 -0.73273427757E+03  0.73273427757E+03  0.00000000000E+00 0. -1.
    9000007    1    1    2  501    0 -0.14539942242E+03  0.17340788766E+03 -0.27468695846E+03  0.53541032180E+03  0.40000000000E+03 0. -1.
   -9000007    1    1    2    0  503  0.14539942242E+03 -0.17340788766E+03 -0.16654698547E+03  0.48882428940E+03  0.40000000000E+03 0.  1.
<mgrwt>
<rscale>  2 0.45957729E+03</rscale>
<asrwt>0</asrwt>
<pdfrwt beam="1">  1       21 0.44846206E-01 0.45957729E+03</pdfrwt>
<pdfrwt beam="2">  1       21 0.11272835E+00 0.45957729E+03</pdfrwt>
<totfact> 0.25327412E+03</totfact>
</mgrwt>
</event>
<event>
 4    1  0.4758602E-002  0.4189595E+03  0.7818608E-02  0.1037405E+00
         21   -1    0    0  501  502  0.00000000000E+00  0.00000000000E+00  0.34050116226E+03  0.34050116226E+03  0.00000000000E+00 0.  1.
         21   -1    0    0  502  503 -0.00000000000E+00 -0.00000000000E+00 -0.12801817244E+04  0.12801817244E+04  0.00000000000E+00 0.  1.
    9000007    1    1    2  501    0  0.12199961372E+03  0.25359830655E+02  0.15644715204E+03  0.44721665682E+03  0.40000000000E+03 0.  1.
   -9000007    1    1    2    0  503 -0.12199961372E+03 -0.25359830655E+02 -0.10961277142E+04  0.11734662298E+04  0.40000000000E+03 0.  1.
<mgrwt>
<rscale>  2 0.41895946E+03</rscale>
<asrwt>0</asrwt>
<pdfrwt beam="1">  1       21 0.52384794E-01 0.41895946E+03</pdfrwt>
<pdfrwt beam="2">  1       21 0.19695104E+00 0.41895946E+03</pdfrwt>
<totfact> 0.40479212E+02</totfact>
</mgrwt>
</event>
<event>
 4    1  0.4758602E-002  0.4580256E+03  0.7818608E-02  0.1025355E+00
         21   -1    0    0  501  502  0.00000000000E+00  0.00000000000E+00  0.60265552953E+03  0.60265552953E+03  0.00000000000E+00 0. -1.
         21   -1    0    0  502  503 -0.00000000000E+00 -0.00000000000E+00 -0.48596578496E+03  0.48596578496E+03  0.00000000000E+00 0.  1.
    9000007    1    1    2  501    0 -0.22032602463E+03  0.35268516945E+02  0.34825561340E+03  0.57538630300E+03  0.40000000000E+03 0. -1.
   -9000007    1    1    2    0  503  0.22032602463E+03 -0.35268516945E+02 -0.23156586883E+03  0.51323501149E+03  0.40000000000E+03 0.  1.
<mgrwt>
<rscale>  2 0.45802557E+03</rscale>
<asrwt>0</asrwt>
<pdfrwt beam="1">  1       21 0.92716236E-01 0.45802557E+03</pdfrwt>
<pdfrwt beam="2">  1       21 0.74763966E-01 0.45802557E+03</pdfrwt>
<totfact> 0.13393932E+03</totfact>
</mgrwt>
</event>
<event>
 4    1  0.4758602E-002  0.6664092E+03  0.7818608E-02  0.9776467E-01
         21   -1    0    0  503  502  0.00000000000E+00  0.00000000000E+00  0.14546666099E+04  0.14546666099E+04  0.00000000000E+00 0.  1.
         21   -1    0    0  501  503 -0.00000000000E+00 -0.00000000000E+00 -0.82064639388E+03  0.82064639388E+03  0.00000000000E+00 0. -1.
    9000007    1    1    2  501    0 -0.30275376484E+03  0.43868133891E+03 -0.58453034720E+03  0.88644057107E+03  0.40000000000E+03 0. -1.
   -9000007    1    1    2    0  502  0.30275376484E+03 -0.43868133891E+03  0.12185505632E+04  0.13888724327E+04  0.40000000000E+03 0.  1.
<mgrwt>
<rscale>  2 0.66640915E+03</rscale>
<asrwt>0</asrwt>
<pdfrwt beam="1">  1       21 0.22379486E+00 0.66640915E+03</pdfrwt>
<pdfrwt beam="2">  1       21 0.12625329E+00 0.66640915E+03</pdfrwt>
<totfact> 0.30542401E+01</totfact>
</mgrwt>
</event>
<event>
 4    1  0.4758602E-002  0.4424136E+03  0.7818608E-02  0.1030009E+00
         21   -1    0    0  501  502  0.00000000000E+00  0.00000000000E+00  0.45703419995E+03  0.45703419995E+03  0.00000000000E+00 0. -1.
         21   -1    0    0  502  503 -0.00000000000E+00 -0.00000000000E+00 -0.44514757722E+03  0.44514757722E+03  0.00000000000E+00 0.  1.
    9000007    1    1    2  501    0  0.18846694663E+03 -0.14492031985E+02  0.93802276969E+02  0.45224846725E+03  0.40000000000E+03 0. -1.
   -9000007    1    1    2    0  503 -0.18846694663E+03  0.14492031985E+02 -0.81915654241E+02  0.44993330992E+03  0.40000000000E+03 0.  1.
<mgrwt>
<rscale>  2 0.44241362E+03</rscale>
<asrwt>0</asrwt>
<pdfrwt beam="1">  1       21 0.70312953E-01 0.44241362E+03</pdfrwt>
<pdfrwt beam="2">  1       21 0.68484243E-01 0.44241362E+03</pdfrwt>
<totfact> 0.31175992E+03</totfact>
</mgrwt>
</event>
<event>
 4    1  0.4758602E-002  0.4055821E+03  0.7818608E-02  0.1041864E+00
         21   -1    0    0  501  502  0.00000000000E+00  0.00000000000E+00  0.19451869118E+03  0.19451869118E+03  0.00000000000E+00 0. -1.
         21   -1    0    0  502  503 -0.00000000000E+00 -0.00000000000E+00 -0.12129548334E+04  0.12129548334E+04  0.00000000000E+00 0. -1.
    9000007    1    1    2  501    0 -0.62854628111E+01 -0.66763260249E+02 -0.12196503054E+03  0.42352368132E+03  0.40000000000E+03 0. -1.
   -9000007    1    1    2    0  503  0.62854628111E+01  0.66763260249E+02 -0.89647111171E+03  0.98394984328E+03  0.40000000000E+03 0. -1.
<mgrwt>
<rscale>  2 0.40558210E+03</rscale>
<asrwt>0</asrwt>
<pdfrwt beam="1">  1       21 0.29925952E-01 0.40558210E+03</pdfrwt>
<pdfrwt beam="2">  1       21 0.18660844E+00 0.40558210E+03</pdfrwt>
<totfact> 0.15144265E+03</totfact>
</mgrwt>
</event>
<event>
 4    1  0.4758602E-002  0.4826279E+03  0.7818608E-02  0.1018415E+00
         21   -1    0    0  501  502  0.00000000000E+00  0.00000000000E+00  0.17366218436E+03  0.17366218436E+03  0.00000000000E+00 0. -1.
         21   -1    0    0  502  503 -0.00000000000E+00 -0.00000000000E+00 -0.14479293764E+04  0.14479293764E+04  0.00000000000E+00 0.  1.
    9000007    1    1    2  501    0  0.22342475680E+03 -0.15169404813E+03 -0.85718081138E+03  0.98371166995E+03  0.40000000000E+03 0.  1.
   -9000007    1    1    2    0  503 -0.22342475680E+03  0.15169404813E+03 -0.41708638068E+03  0.63787989084E+03  0.40000000000E+03 0. -1.
<mgrwt>
<rscale>  2 0.48262792E+03</rscale>
<asrwt>0</asrwt>
<pdfrwt beam="1">  1       21 0.26717259E-01 0.48262792E+03</pdfrwt>
<pdfrwt beam="2">  1       21 0.22275837E+00 0.48262792E+03</pdfrwt>
<totfact> 0.10549875E+03</totfact>
</mgrwt>
</event>
<event>
 4    1  0.4758602E-002  0.7074933E+03  0.7818608E-02  0.9704503E-01
         21   -1    0    0  503  502  0.00000000000E+00  0.00000000000E+00  0.23808720288E+04  0.23808720288E+04  0.00000000000E+00 0.  1.
         21   -1    0    0  501  503 -0.00000000000E+00 -0.00000000000E+00 -0.23867354730E+03  0.23867354730E+03  0.00000000000E+00 0. -1.
    9000007    1    1    2  501    0 -0.54768839167E+03  0.20145508314E+03  0.61899935911E+03  0.94005687672E+03  0.40000000000E+03 0.  1.
   -9000007    1    1    2    0  502  0.54768839167E+03 -0.20145508314E+03  0.15231991224E+04  0.16794886993E+04  0.40000000000E+03 0.  1.
<mgrwt>
<rscale>  2 0.70749327E+03</rscale>
<asrwt>0</asrwt>
<pdfrwt beam="1">  1       21 0.36628799E+00 0.70749327E+03</pdfrwt>
<pdfrwt beam="2">  1       21 0.36719009E-01 0.70749327E+03</pdfrwt>
<totfact> 0.65648952E+01</totfact>
</mgrwt>
</event>
<event>
 4    1  0.4758602E-002  0.4564033E+03  0.7818608E-02  0.1025830E+00
         21   -1    0    0  501  502  0.00000000000E+00  0.00000000000E+00  0.10384477259E+04  0.10384477259E+04  0.00000000000E+00 0.  1.
         21   -1    0    0  502  503 -0.00000000000E+00 -0.00000000000E+00 -0.20119737099E+03  0.20119737099E+03  0.00000000000E+00 0.  1.
    9000007    1    1    2  501    0  0.18185142791E+03 -0.12342618977E+03  0.38461691350E+03  0.59685353002E+03  0.40000000000E+03 0.  1.
   -9000007    1    1    2    0  503 -0.18185142791E+03  0.12342618977E+03  0.45263344146E+03  0.64279156690E+03  0.40000000000E+03 0.  1.
<mgrwt>
<rscale>  2 0.45640329E+03</rscale>
<asrwt>0</asrwt>
<pdfrwt beam="1">  1       21 0.15976119E+00 0.45640329E+03</pdfrwt>
<pdfrwt beam="2">  1       21 0.30953442E-01 0.45640329E+03</pdfrwt>
<totfact> 0.21622523E+03</totfact>
</mgrwt>
</event>
<event>
 4    1  0.4758602E-002  0.5324466E+03  0.7818608E-02  0.1005641E+00
         21   -1    0    0  501  502  0.00000000000E+00  0.00000000000E+00  0.56580846439E+03  0.56580846439E+03  0.00000000000E+00 0. -1.
         21   -1    0    0  502  503 -0.00000000000E+00 -0.00000000000E+00 -0.65361833792E+03  0.65361833792E+03  0.00000000000E+00 0.  1.
    9000007    1    1    2  501    0 -0.33676952849E+03  0.10042727548E+03  0.25066828419E+03  0.58850143728E+03  0.40000000000E+03 0. -1.
   -9000007    1    1    2    0  503  0.33676952849E+03 -0.10042727548E+03 -0.33847815772E+03  0.63092536503E+03  0.40000000000E+03 0.  1.
<mgrwt>
<rscale>  2 0.53244657E+03</rscale>
<asrwt>0</asrwt>
<pdfrwt beam="1">  1       21 0.87047456E-01 0.53244657E+03</pdfrwt>
<pdfrwt beam="2">  1       21 0.10055667E+00 0.53244657E+03</pdfrwt>
<totfact> 0.75257458E+02</totfact>
</mgrwt>
</event>
<event>
 4    1  0.4758602E-002  0.7846098E+03  0.7818608E-02  0.9582565E-01
         21   -1    0    0  501  502  0.00000000000E+00  0.00000000000E+00  0.74115676723E+03  0.74115676723E+03  0.00000000000E+00 0. -1.
         21   -1    0    0  502  503 -0.00000000000E+00 -0.00000000000E+00 -0.11323850179E+04  0.11323850179E+04  0.00000000000E+00 0. -1.
    9000007    1    1    2  501    0 -0.60377371541E+03 -0.30177771038E+03  0.28797632585E+03  0.83578875929E+03  0.40000000000E+03 0. -1.
   -9000007    1    1    2    0  503  0.60377371541E+03  0.30177771038E+03 -0.67920457656E+03  0.10377530259E+04  0.40000000000E+03 0. -1.
<mgrwt>
<rscale>  2 0.78460977E+03</rscale>
<asrwt>0</asrwt>
<pdfrwt beam="1">  1       21 0.11402412E+00 0.78460977E+03</pdfrwt>
<pdfrwt beam="2">  1       21 0.17421308E+00 0.78460977E+03</pdfrwt>
<totfact> 0.83026521E+01</totfact>
</mgrwt>
</event>
<event>
 4    1  0.4758602E-002  0.4110566E+03  0.7818608E-02  0.1040017E+00
         21   -1    0    0  503  502  0.00000000000E+00  0.00000000000E+00  0.79661859920E+03  0.79661859920E+03  0.00000000000E+00 0.  1.
         21   -1    0    0  501  503 -0.00000000000E+00 -0.00000000000E+00 -0.35775254277E+03  0.35775254277E+03  0.00000000000E+00 0.  1.
    9000007    1    1    2  501    0  0.16796773056E+02 -0.93195648371E+02 -0.14884366617E+03  0.43717501921E+03  0.40000000000E+03 0.  1.
   -9000007    1    1    2    0  502 -0.16796773056E+02  0.93195648371E+02  0.58770972260E+03  0.71719612276E+03  0.40000000000E+03 0.  1.
<mgrwt>
<rscale>  2 0.41105664E+03</rscale>
<asrwt>0</asrwt>
<pdfrwt beam="1">  1       21 0.12255671E+00 0.41105664E+03</pdfrwt>
<pdfrwt beam="2">  1       21 0.55038853E-01 0.41105664E+03</pdfrwt>
<totfact> 0.13539421E+03</totfact>
</mgrwt>
</event>
<event>
 4    1  0.4758602E-002  0.5271345E+03  0.7818608E-02  0.1006929E+00
         21   -1    0    0  503  502  0.00000000000E+00  0.00000000000E+00  0.40204342623E+03  0.40204342623E+03  0.00000000000E+00 0. -1.
         21   -1    0    0  501  503 -0.00000000000E+00 -0.00000000000E+00 -0.69190874815E+03  0.69190874815E+03  0.00000000000E+00 0.  1.
    9000007    1    1    2  501    0  0.28849585769E+03 -0.18612064896E+03 -0.12677336131E+03  0.54216440404E+03  0.40000000000E+03 0. -1.
   -9000007    1    1    2    0  502 -0.28849585769E+03  0.18612064896E+03 -0.16309196061E+03  0.55178777033E+03  0.40000000000E+03 0.  1.
<mgrwt>
<rscale>  2 0.52713448E+03</rscale>
<asrwt>0</asrwt>
<pdfrwt beam="1">  1       21 0.61852835E-01 0.52713448E+03</pdfrwt>
<pdfrwt beam="2">  1       21 0.10644750E+00 0.52713448E+03</pdfrwt>
<totfact> 0.14291819E+03</totfact>
</mgrwt>
</event>
<event>
 4    1  0.4758602E-002  0.5319913E+03  0.7818608E-02  0.1005750E+00
         21   -1    0    0  501  502  0.00000000000E+00  0.00000000000E+00  0.31700163500E+03  0.31700163500E+03  0.00000000000E+00 0.  1.
         21   -1    0    0  502  503 -0.00000000000E+00 -0.00000000000E+00 -0.89994302536E+03  0.89994302536E+03  0.00000000000E+00 0.  1.
    9000007    1    1    2  501    0  0.25311840808E+03  0.24278748808E+03 -0.23720907058E+03  0.58247990183E+03  0.40000000000E+03 0.  1.
   -9000007    1    1    2    0  503 -0.25311840808E+03 -0.24278748808E+03 -0.34573231978E+03  0.63446475853E+03  0.40000000000E+03 0.  1.
<mgrwt>
<rscale>  2 0.53199125E+03</rscale>
<asrwt>0</asrwt>
<pdfrwt beam="1">  1       21 0.48769483E-01 0.53199125E+03</pdfrwt>
<pdfrwt beam="2">  1       21 0.13845277E+00 0.53199125E+03</pdfrwt>
<totfact> 0.12183122E+03</totfact>
</mgrwt>
</event>
<event>
 4    1  0.4758602E-002  0.4298292E+03  0.7818608E-02  0.1033914E+00
         21   -1    0    0  501  502  0.00000000000E+00  0.00000000000E+00  0.85668536031E+03  0.85668536031E+03  0.00000000000E+00 0.  1.
         21   -1    0    0  502  503 -0.00000000000E+00 -0.00000000000E+00 -0.35754337641E+03  0.35754337641E+03  0.00000000000E+00 0.  1.
    9000007    1    1    2  501    0 -0.15187784542E+03 -0.41064501645E+02  0.63201791445E+03  0.76432965232E+03  0.40000000000E+03 0.  1.
   -9000007    1    1    2    0  503  0.15187784542E+03  0.41064501645E+02 -0.13287593055E+03  0.44989908440E+03  0.40000000000E+03 0.  1.
<mgrwt>
<rscale>  2 0.42982924E+03</rscale>
<asrwt>0</asrwt>
<pdfrwt beam="1">  1       21 0.13179775E+00 0.42982924E+03</pdfrwt>
<pdfrwt beam="2">  1       21 0.55006674E-01 0.42982924E+03</pdfrwt>
<totfact> 0.11149597E+03</totfact>
</mgrwt>
</event>
<event>
 4    1  0.4758602E-002  0.4782388E+03  0.7818608E-02  0.1019620E+00
         21   -1    0    0  503  502  0.00000000000E+00  0.00000000000E+00  0.16141788250E+04  0.16141788250E+04  0.00000000000E+00 0.  1.
         21   -1    0    0  501  503 -0.00000000000E+00 -0.00000000000E+00 -0.15867486929E+03  0.15867486929E+03  0.00000000000E+00 0.  1.
    9000007    1    1    2  501    0 -0.17427435786E+03  0.19580794325E+03  0.43773365448E+03  0.64832326405E+03  0.40000000000E+03 0.  1.
   -9000007    1    1    2    0  502  0.17427435786E+03 -0.19580794325E+03  0.10177703012E+04  0.11245304302E+04  0.40000000000E+03 0.  1.
<mgrwt>
<rscale>  2 0.47823875E+03</rscale>
<asrwt>0</asrwt>
<pdfrwt beam="1">  1       21 0.24833519E+00 0.47823875E+03</pdfrwt>
<pdfrwt beam="2">  1       21 0.24411519E-01 0.47823875E+03</pdfrwt>
<totfact> 0.87176221E+02</totfact>
</mgrwt>
</event>
<event>
 4    1  0.4758602E-002  0.4010587E+03  0.7818608E-02  0.1043414E+00
         21   -1    0    0  503  502  0.00000000000E+00  0.00000000000E+00  0.20414458715E+04  0.20414458715E+04  0.00000000000E+00 0. -1.
         21   -1    0    0  501  503 -0.00000000000E+00 -0.00000000000E+00 -0.96735092147E+02  0.96735092147E+02  0.00000000000E+00 0. -1.
    9000007    1    1    2  501    0  0.29121175434E+02 -0.71044290481E-01  0.51190769685E+03  0.65030572657E+03  0.40000000000E+03 0. -1.
   -9000007    1    1    2    0  502 -0.29121175434E+02  0.71044290481E-01  0.14328030825E+04  0.14878752371E+04  0.40000000000E+03 0. -1.
<mgrwt>
<rscale>  2 0.40105866E+03</rscale>
<asrwt>0</asrwt>
<pdfrwt beam="1">  1       21 0.31406856E+00 0.40105866E+03</pdfrwt>
<pdfrwt beam="2">  1       21 0.14882323E-01 0.40105866E+03</pdfrwt>
<totfact> 0.93056427E+02</totfact>
</mgrwt>
</event>
<event>
 4    1  0.4758602E-002  0.4383796E+03  0.7818608E-02  0.1031245E+00
         21   -1    0    0  503  502  0.00000000000E+00  0.00000000000E+00  0.35164484589E+03  0.35164484589E+03  0.00000000000E+00 0.  1.
         21   -1    0    0  501  503 -0.00000000000E+00 -0.00000000000E+00 -0.84552703496E+03  0.84552703496E+03  0.00000000000E+00 0.  1.
    9000007    1    1    2  501    0 -0.92303612937E+02  0.15380734281E+03 -0.60291020749E+03  0.74543770629E+03  0.40000000000E+03 0.  1.
   -9000007    1    1    2    0  502  0.92303612937E+02 -0.15380734281E+03  0.10902801841E+03  0.45173417456E+03  0.40000000000E+03 0.  1.
<mgrwt>
<rscale>  2 0.43837958E+03</rscale>
<asrwt>0</asrwt>
<pdfrwt beam="1">  1       21 0.54099207E-01 0.43837958E+03</pdfrwt>
<pdfrwt beam="2">  1       21 0.13008108E+00 0.43837958E+03</pdfrwt>
<totfact> 0.11912726E+03</totfact>
</mgrwt>
</event>
<event>
 4    1  0.4758602E-002  0.4224138E+03  0.7818608E-02  0.1036284E+00
         21   -1    0    0  501  502  0.00000000000E+00  0.00000000000E+00  0.12281141865E+04  0.12281141865E+04  0.00000000000E+00 0. -1.
         21   -1    0    0  502  503 -0.00000000000E+00 -0.00000000000E+00 -0.22466775146E+03  0.22466775146E+03  0.00000000000E+00 0.  1.
    9000007    1    1    2  501    0  0.11088548407E+03  0.78344308271E+02  0.93348865956E+03  0.10246143171E+04  0.40000000000E+03 0. -1.
   -9000007    1    1    2    0  503 -0.11088548407E+03 -0.78344308271E+02  0.69957775456E+02  0.42816762087E+03  0.40000000000E+03 0.  1.
<mgrwt>
<rscale>  2 0.42241380E+03</rscale>
<asrwt>0</asrwt>
<pdfrwt beam="1">  1       21 0.18894064E+00 0.42241380E+03</pdfrwt>
<pdfrwt beam="2">  1       21 0.34564270E-01 0.42241380E+03</pdfrwt>
<totfact> 0.10854692E+03</totfact>
</mgrwt>
</event>
<event>
 4    1  0.4758602E-002  0.4393749E+03  0.7818608E-02  0.1030939E+00
         21   -1    0    0  503  502  0.00000000000E+00  0.00000000000E+00  0.80052205156E+03  0.80052205156E+03  0.00000000000E+00 0.  1.
         21   -1    0    0  501  503 -0.00000000000E+00 -0.00000000000E+00 -0.61756583118E+03  0.61756583118E+03  0.00000000000E+00 0.  1.
    9000007    1    1    2  501    0 -0.14636678665E+03 -0.10782906036E+03 -0.46207877179E+03  0.63762617091E+03  0.40000000000E+03 0.  1.
   -9000007    1    1    2    0  502  0.14636678665E+03  0.10782906036E+03  0.64503499218E+03  0.78046171183E+03  0.40000000000E+03 0.  1.
<mgrwt>
<rscale>  2 0.43937495E+03</rscale>
<asrwt>0</asrwt>
<pdfrwt beam="1">  1       21 0.12315724E+00 0.43937495E+03</pdfrwt>
<pdfrwt beam="2">  1       21 0.95010128E-01 0.43937495E+03</pdfrwt>
<totfact> 0.38285658E+02</totfact>
</mgrwt>
</event>
<event>
 4    1  0.4758602E-002  0.4151546E+03  0.7818608E-02  0.1038655E+00
         21   -1    0    0  501  502  0.00000000000E+00  0.00000000000E+00  0.10696144139E+03  0.10696144139E+03  0.00000000000E+00 0. -1.
         21   -1    0    0  502  503 -0.00000000000E+00 -0.00000000000E+00 -0.17042704791E+04  0.17042704791E+04  0.00000000000E+00 0. -1.
    9000007    1    1    2  501    0 -0.10121503890E+03  0.45921972415E+02 -0.10101050740E+04  0.10920922910E+04  0.40000000000E+03 0. -1.
   -9000007    1    1    2    0  503  0.10121503890E+03 -0.45921972415E+02 -0.58720396379E+03  0.71913962951E+03  0.40000000000E+03 0. -1.
<mgrwt>
<rscale>  2 0.41515456E+03</rscale>
<asrwt>0</asrwt>
<pdfrwt beam="1">  1       21 0.16455608E-01 0.41515456E+03</pdfrwt>
<pdfrwt beam="2">  1       21 0.26219544E+00 0.41515456E+03</pdfrwt>
<totfact> 0.15682817E+03</totfact>
</mgrwt>
</event>
<event>
 4    1  0.4758602E-002  0.1010243E+04  0.7818608E-02  0.9297381E-01
         21   -1    0    0  503  502  0.00000000000E+00  0.00000000000E+00  0.60115907670E+03  0.60115907670E+03  0.00000000000E+00 0.  1.
         21   -1    0    0  501  503 -0.00000000000E+00 -0.00000000000E+00 -0.24476157627E+04  0.24476157627E+04  0.00000000000E+00 0. -1.
    9000007    1    1    2  501    0  0.72569039724E+03  0.57789680642E+03 -0.17670065168E+04  0.20354123174E+04  0.40000000000E+03 0. -1.
   -9000007    1    1    2    0  502 -0.72569039724E+03 -0.57789680642E+03 -0.79450169178E+02  0.10133625219E+04  0.40000000000E+03 0.  1.
<mgrwt>
<rscale>  2 0.10102432E+04</rscale>
<asrwt>0</asrwt>
<pdfrwt beam="1">  1       21 0.92486012E-01 0.10102432E+04</pdfrwt>
<pdfrwt beam="2">  1       21 0.37655627E+00 0.10102432E+04</pdfrwt>
<totfact> 0.64880068E+00</totfact>
</mgrwt>
</event>
<event>
 4    1  0.4758602E-002  0.4396194E+03  0.7818608E-02  0.1030864E+00
         21   -1    0    0  503  502  0.00000000000E+00  0.00000000000E+00  0.86515504529E+03  0.86515504529E+03  0.00000000000E+00 0.  1.
         21   -1    0    0  501  503 -0.00000000000E+00 -0.00000000000E+00 -0.22338806132E+03  0.22338806132E+03  0.00000000000E+00 0. -1.
    9000007    1    1    2  501    0  0.17642058244E+03 -0.46271239179E+02  0.32058320999E+03  0.54409451753E+03  0.40000000000E+03 0. -1.
   -9000007    1    1    2    0  502 -0.17642058244E+03  0.46271239179E+02  0.32118377398E+03  0.54444858908E+03  0.40000000000E+03 0.  1.
<mgrwt>
<rscale>  2 0.43961944E+03</rscale>
<asrwt>0</asrwt>
<pdfrwt beam="1">  1       21 0.13310077E+00 0.43961944E+03</pdfrwt>
<pdfrwt beam="2">  1       21 0.34367395E-01 0.43961944E+03</pdfrwt>
<totfact> 0.28850094E+03</totfact>
</mgrwt>
</event>
<event>
 4    1  0.4758602E-002  0.5620209E+03  0.7818608E-02  0.9987492E-01
         21   -1    0    0  503  502  0.00000000000E+00  0.00000000000E+00  0.12229095880E+04  0.12229095880E+04  0.00000000000E+00 0. -1.
         21   -1    0    0  501  503 -0.00000000000E+00 -0.00000000000E+00 -0.25990641114E+03  0.25990641114E+03  0.00000000000E+00 0.  1.
    9000007    1    1    2  501    0 -0.77912388596E+02  0.38703634213E+03  0.42306456944E+03  0.70345653764E+03  0.40000000000E+03 0.  1.
   -9000007    1    1    2    0  502  0.77912388596E+02 -0.38703634213E+03  0.53993860740E+03  0.77935946147E+03  0.40000000000E+03 0. -1.
<mgrwt>
<rscale>  2 0.56202088E+03</rscale>
<asrwt>0</asrwt>
<pdfrwt beam="1">  1       21 0.18813993E+00 0.56202088E+03</pdfrwt>
<pdfrwt beam="2">  1       21 0.39985602E-01 0.56202088E+03</pdfrwt>
<totfact> 0.77023777E+02</totfact>
</mgrwt>
</event>
<event>
 4    1  0.4758602E-002  0.4168614E+03  0.7818608E-02  0.1038093E+00
         21   -1    0    0  501  502  0.00000000000E+00  0.00000000000E+00  0.65619965121E+03  0.65619965121E+03  0.00000000000E+00 0.  1.
         21   -1    0    0  502  503 -0.00000000000E+00 -0.00000000000E+00 -0.29096798172E+03  0.29096798172E+03  0.00000000000E+00 0.  1.
    9000007    1    1    2  501    0  0.70451658229E+02 -0.93861674012E+02  0.32459032467E+03  0.52832975391E+03  0.40000000000E+03 0. -1.
   -9000007    1    1    2    0  503 -0.70451658229E+02  0.93861674012E+02  0.40641344827E+02  0.41883787902E+03  0.40000000000E+03 0. -1.
<mgrwt>
<rscale>  2 0.41686143E+03</rscale>
<asrwt>0</asrwt>
<pdfrwt beam="1">  1       21 0.10095379E+00 0.41686143E+03</pdfrwt>
<pdfrwt beam="2">  1       21 0.44764305E-01 0.41686143E+03</pdfrwt>
<totfact> 0.33905234E+03</totfact>
</mgrwt>
</event>
<event>
 4    1  0.4758602E-002  0.4615799E+03  0.7818608E-02  0.1024324E+00
         21   -1    0    0  501  502  0.00000000000E+00  0.00000000000E+00  0.10371639876E+04  0.10371639876E+04  0.00000000000E+00 0. -1.
         21   -1    0    0  502  503 -0.00000000000E+00 -0.00000000000E+00 -0.21948491524E+03  0.21948491524E+03  0.00000000000E+00 0. -1.
    9000007    1    1    2  501    0  0.23019483757E+03 -0.81474513385E+01  0.56788567108E+03  0.73181294033E+03  0.40000000000E+03 0. -1.
   -9000007    1    1    2    0  503 -0.23019483757E+03  0.81474513385E+01  0.24979340124E+03  0.52483596248E+03  0.40000000000E+03 0. -1.
<mgrwt>
<rscale>  2 0.46157994E+03</rscale>
<asrwt>0</asrwt>
<pdfrwt beam="1">  1       21 0.15956369E+00 0.46157994E+03</pdfrwt>
<pdfrwt beam="2">  1       21 0.33766911E-01 0.46157994E+03</pdfrwt>
<totfact> 0.18186593E+03</totfact>
</mgrwt>
</event>
<event>
 4    1  0.4758602E-002  0.4340655E+03  0.7818608E-02  0.1032583E+00
         21   -1    0    0  503  502  0.00000000000E+00  0.00000000000E+00  0.67295786438E+03  0.67295786438E+03  0.00000000000E+00 0.  1.
         21   -1    0    0  501  503 -0.00000000000E+00 -0.00000000000E+00 -0.28391096334E+03  0.28391096334E+03  0.00000000000E+00 0.  1.
    9000007    1    1    2  501    0 -0.24387513305E+02  0.16678754806E+03  0.25084015260E+03  0.50133184534E+03  0.40000000000E+03 0. -1.
   -9000007    1    1    2    0  502  0.24387513305E+02 -0.16678754806E+03  0.13820674844E+03  0.45553698237E+03  0.40000000000E+03 0. -1.
<mgrwt>
<rscale>  2 0.43406548E+03</rscale>
<asrwt>0</asrwt>
<pdfrwt beam="1">  1       21 0.10353198E+00 0.43406548E+03</pdfrwt>
<pdfrwt beam="2">  1       21 0.43678610E-01 0.43406548E+03</pdfrwt>
<totfact> 0.33340195E+03</totfact>
</mgrwt>
</event>
<event>
 4    1  0.4758602E-002  0.4072330E+03  0.7818608E-02  0.1041304E+00
         21   -1    0    0  503  502  0.00000000000E+00  0.00000000000E+00  0.16542924399E+04  0.16542924399E+04  0.00000000000E+00 0. -1.
         21   -1    0    0  501  503 -0.00000000000E+00 -0.00000000000E+00 -0.18432378001E+03  0.18432378001E+03  0.00000000000E+00 0. -1.
    9000007    1    1    2  501    0  0.66534829368E+02 -0.37574174783E+02  0.11410511846E+03  0.42291687149E+03  0.40000000000E+03 0. -1.
   -9000007    1    1    2    0  502 -0.66534829368E+02  0.37574174783E+02  0.13558635414E+04  0.14156993484E+04  0.40000000000E+03 0. -1.
<mgrwt>
<rscale>  2 0.40723298E+03</rscale>
<asrwt>0</asrwt>
<pdfrwt beam="1">  1       21 0.25450652E+00 0.40723298E+03</pdfrwt>
<pdfrwt beam="2">  1       21 0.28357506E-01 0.40723298E+03</pdfrwt>
<totfact> 0.61855618E+02</totfact>
</mgrwt>
</event>
<event>
 4    1  0.4758602E-002  0.5341313E+03  0.7818608E-02  0.1005235E+00
         21   -1    0    0  501  502  0.00000000000E+00  0.00000000000E+00  0.14645459861E+04  0.14645459861E+04  0.00000000000E+00 0.  1.
         21   -1    0    0  502  503 -0.00000000000E+00 -0.00000000000E+00 -0.38125312096E+03  0.38125312096E+03  0.00000000000E+00 0. -1.
    9000007    1    1    2  501    0 -0.24120735672E+03 -0.25906608931E+03  0.11870486274E+04  0.13016837832E+04  0.40000000000E+03 0.  1.
   -9000007    1    1    2    0  503  0.24120735672E+03  0.25906608931E+03 -0.10375576220E+03  0.54411532395E+03  0.40000000000E+03 0. -1.
<mgrwt>
<rscale>  2 0.53413128E+03</rscale>
<asrwt>0</asrwt>
<pdfrwt beam="1">  1       21 0.22531476E+00 0.53413128E+03</pdfrwt>
<pdfrwt beam="2">  1       21 0.58654327E-01 0.53413128E+03</pdfrwt>
<totfact> 0.19541241E+02</totfact>
</mgrwt>
</event>
<event>
 4    1  0.4758602E-002  0.4041478E+03  0.7818608E-02  0.1042353E+00
         21   -1    0    0  503  502  0.00000000000E+00  0.00000000000E+00  0.13173366669E+04  0.13173366669E+04  0.00000000000E+00 0. -1.
         21   -1    0    0  501  503 -0.00000000000E+00 -0.00000000000E+00 -0.14341758388E+03  0.14341758388E+03  0.00000000000E+00 0. -1.
    9000007    1    1    2  501    0 -0.47978868072E+02  0.32147861008E+02  0.31813752635E+03  0.51434127039E+03  0.40000000000E+03 0. -1.
   -9000007    1    1    2    0  502  0.47978868072E+02 -0.32147861008E+02  0.85578155671E+03  0.94641298045E+03  0.40000000000E+03 0. -1.
<mgrwt>
<rscale>  2 0.40414782E+03</rscale>
<asrwt>0</asrwt>
<pdfrwt beam="1">  1       21 0.20266717E+00 0.40414782E+03</pdfrwt>
<pdfrwt beam="2">  1       21 0.22064245E-01 0.40414782E+03</pdfrwt>
<totfact> 0.21393789E+03</totfact>
</mgrwt>
</event>
<event>
 4    1  0.4758602E-002  0.4790202E+03  0.7818608E-02  0.1019405E+00
         21   -1    0    0  503  502  0.00000000000E+00  0.00000000000E+00  0.20490490027E+04  0.20490490027E+04  0.00000000000E+00 0. -1.
         21   -1    0    0  501  503 -0.00000000000E+00 -0.00000000000E+00 -0.11213577335E+03  0.11213577335E+03  0.00000000000E+00 0. -1.
    9000007    1    1    2  501    0 -0.12355893846E+03  0.23279514963E+03  0.10082310765E+04  0.11162393545E+04  0.40000000000E+03 0. -1.
   -9000007    1    1    2    0  502  0.12355893846E+03 -0.23279514963E+03  0.92868215285E+03  0.10449454215E+04  0.40000000000E+03 0. -1.
<mgrwt>
<rscale>  2 0.47902024E+03</rscale>
<asrwt>0</asrwt>
<pdfrwt beam="1">  1       21 0.31523828E+00 0.47902024E+03</pdfrwt>
<pdfrwt beam="2">  1       21 0.17251659E-01 0.47902024E+03</pdfrwt>
<totfact> 0.66464719E+02</totfact>
</mgrwt>
</event>
<event>
 4    1  0.4758602E-002  0.5148496E+03  0.7818608E-02  0.1009974E+00
         21   -1    0    0  503  502  0.00000000000E+00  0.00000000000E+00  0.34106464140E+03  0.34106464140E+03  0.00000000000E+00 0. -1.
         21   -1    0    0  501  503 -0.00000000000E+00 -0.00000000000E+00 -0.80559548193E+03  0.80559548193E+03  0.00000000000E+00 0. -1.
    9000007    1    1    2  501    0 -0.18540311145E+02 -0.32361450008E+03 -0.12459639496E+03  0.52971157193E+03  0.40000000000E+03 0. -1.
   -9000007    1    1    2    0  502  0.18540311145E+02  0.32361450008E+03 -0.33993444557E+03  0.61694855141E+03  0.40000000000E+03 0. -1.
<mgrwt>
<rscale>  2 0.51484958E+03</rscale>
<asrwt>0</asrwt>
<pdfrwt beam="1">  1       21 0.52471484E-01 0.51484958E+03</pdfrwt>
<pdfrwt beam="2">  1       21 0.12393777E+00 0.51484958E+03</pdfrwt>
<totfact> 0.13999130E+03</totfact>
</mgrwt>
</event>
<event>
 4    1  0.4758602E-002  0.4085709E+03  0.7818608E-02  0.1040852E+00
         21   -1    0    0  503  502  0.00000000000E+00  0.00000000000E+00  0.14170128149E+03  0.14170128149E+03  0.00000000000E+00 0. -1.
         21   -1    0    0  501  503 -0.00000000000E+00 -0.00000000000E+00 -0.13121608593E+04  0.13121608593E+04  0.00000000000E+00 0. -1.
    9000007    1    1    2  501    0 -0.83239217696E+02 -0.11914171168E+01 -0.81763356519E+03  0.91403218420E+03  0.40000000000E+03 0. -1.
   -9000007    1    1    2    0  502  0.83239217696E+02  0.11914171168E+01 -0.35282601259E+03  0.53982995656E+03  0.40000000000E+03 0. -1.
<mgrwt>
<rscale>  2 0.40857091E+03</rscale>
<asrwt>0</asrwt>
<pdfrwt beam="1">  1       21 0.21800198E-01 0.40857091E+03</pdfrwt>
<pdfrwt beam="2">  1       21 0.20187090E+00 0.40857091E+03</pdfrwt>
<totfact> 0.22112419E+03</totfact>
</mgrwt>
</event>
<event>
 4    1  0.4758602E-002  0.4076799E+03  0.7818608E-02  0.1041152E+00
         21   -1    0    0  501  502  0.00000000000E+00  0.00000000000E+00  0.20794375018E+03  0.20794375018E+03  0.00000000000E+00 0. -1.
         21   -1    0    0  502  503 -0.00000000000E+00 -0.00000000000E+00 -0.82610997493E+03  0.82610997493E+03  0.00000000000E+00 0. -1.
    9000007    1    1    2  501    0 -0.40760954770E+02  0.67390314476E+02 -0.21588726523E+03  0.46131358229E+03  0.40000000000E+03 0. -1.
   -9000007    1    1    2    0  503  0.40760954770E+02 -0.67390314476E+02 -0.40227895952E+03  0.57274014281E+03  0.40000000000E+03 0. -1.
<mgrwt>
<rscale>  2 0.40767991E+03</rscale>
<asrwt>0</asrwt>
<pdfrwt beam="1">  1       21 0.31991345E-01 0.40767991E+03</pdfrwt>
<pdfrwt beam="2">  1       21 0.12709385E+00 0.40767991E+03</pdfrwt>
<totfact> 0.38010997E+03</totfact>
</mgrwt>
</event>
<event>
 4    1  0.4758602E-002  0.7079652E+03  0.7818608E-02  0.9703707E-01
         21   -1    0    0  501  502  0.00000000000E+00  0.00000000000E+00  0.71063884722E+03  0.71063884722E+03  0.00000000000E+00 0. -1.
         21   -1    0    0  502  503 -0.00000000000E+00 -0.00000000000E+00 -0.78317512955E+03  0.78317512955E+03  0.00000000000E+00 0. -1.
    9000007    1    1    2  501    0 -0.19628457067E+03  0.55016999724E+03  0.19925426741E+03  0.73547054436E+03  0.40000000000E+03 0. -1.
   -9000007    1    1    2    0  503  0.19628457067E+03 -0.55016999724E+03 -0.27179054974E+03  0.75834343241E+03  0.40000000000E+03 0. -1.
<mgrwt>
<rscale>  2 0.70796515E+03</rscale>
<asrwt>0</asrwt>
<pdfrwt beam="1">  1       21 0.10932905E+00 0.70796515E+03</pdfrwt>
<pdfrwt beam="2">  1       21 0.12048848E+00 0.70796515E+03</pdfrwt>
<totfact> 0.25936214E+02</totfact>
</mgrwt>
</event>
<event>
 4    1  0.4758602E-002  0.4513211E+03  0.7818608E-02  0.1027329E+00
         21   -1    0    0  503  502  0.00000000000E+00  0.00000000000E+00  0.89059368529E+02  0.89059368529E+02  0.00000000000E+00 0. -1.
         21   -1    0    0  501  503 -0.00000000000E+00 -0.00000000000E+00 -0.23663943108E+04  0.23663943108E+04  0.00000000000E+00 0. -1.
    9000007    1    1    2  501    0 -0.31839940770E+02  0.20658391219E+03 -0.13633589208E+04  0.14361191600E+04  0.40000000000E+03 0. -1.
   -9000007    1    1    2    0  502  0.31839940770E+02 -0.20658391219E+03 -0.91397602145E+03  0.10193345194E+04  0.40000000000E+03 0. -1.
<mgrwt>
<rscale>  2 0.45132105E+03</rscale>
<asrwt>0</asrwt>
<pdfrwt beam="1">  1       21 0.13701441E-01 0.45132105E+03</pdfrwt>
<pdfrwt beam="2">  1       21 0.36406067E+00 0.45132105E+03</pdfrwt>
<totfact> 0.52163103E+02</totfact>
</mgrwt>
</event>
<event>
 4    1  0.4758602E-002  0.4167896E+03  0.7818608E-02  0.1038116E+00
         21   -1    0    0  501  502  0.00000000000E+00  0.00000000000E+00  0.23431272142E+03  0.23431272142E+03  0.00000000000E+00 0. -1.
         21   -1    0    0  502  503 -0.00000000000E+00 -0.00000000000E+00 -0.77216006312E+03  0.77216006312E+03  0.00000000000E+00 0. -1.
    9000007    1    1    2  501    0  0.97872783063E+02 -0.64300136481E+02 -0.36940573217E+03  0.55693283633E+03  0.40000000000E+03 0.  1.
   -9000007    1    1    2    0  503 -0.97872783063E+02  0.64300136481E+02 -0.16844160953E+03  0.44953994821E+03  0.40000000000E+03 0.  1.
<mgrwt>
<rscale>  2 0.41678962E+03</rscale>
<asrwt>0</asrwt>
<pdfrwt beam="1">  1       21 0.36048111E-01 0.41678962E+03</pdfrwt>
<pdfrwt beam="2">  1       21 0.11879386E+00 0.41678962E+03</pdfrwt>
<totfact> 0.35396264E+03</totfact>
</mgrwt>
</event>
<event>
 4    1  0.4758602E-002  0.4291339E+03  0.7818608E-02  0.1034134E+00
         21   -1    0    0  503  502  0.00000000000E+00  0.00000000000E+00  0.41695748696E+03  0.41695748696E+03  0.00000000000E+00 0. -1.
         21   -1    0    0  501  503 -0.00000000000E+00 -0.00000000000E+00 -0.44166727949E+03  0.44166727949E+03  0.00000000000E+00 0.  1.
    9000007    1    1    2  501    0  0.90045799982E+02  0.12667931306E+03 -0.11590068225E+02  0.42929037275E+03  0.40000000000E+03 0. -1.
   -9000007    1    1    2    0  502 -0.90045799982E+02 -0.12667931306E+03 -0.13119724303E+02  0.42933439370E+03  0.40000000000E+03 0. -1.
<mgrwt>
<rscale>  2 0.42913389E+03</rscale>
<asrwt>0</asrwt>
<pdfrwt beam="1">  1       21 0.64147306E-01 0.42913389E+03</pdfrwt>
<pdfrwt beam="2">  1       21 0.67948812E-01 0.42913389E+03</pdfrwt>
<totfact> 0.39132286E+03</totfact>
</mgrwt>
</event>
<event>
 4    1  0.4758602E-002  0.4453823E+03  0.7818608E-02  0.1029108E+00
         21   -1    0    0  501  502  0.00000000000E+00  0.00000000000E+00  0.16707059155E+03  0.16707059155E+03  0.00000000000E+00 0.  1.
         21   -1    0    0  502  503 -0.00000000000E+00 -0.00000000000E+00 -0.17308723777E+04  0.17308723777E+04  0.00000000000E+00 0.  1.
    9000007    1    1    2  501    0 -0.10416590925E+02  0.19559359127E+03 -0.25010683254E+03  0.51080210062E+03  0.40000000000E+03 0.  1.
   -9000007    1    1    2    0  503  0.10416590925E+02 -0.19559359127E+03 -0.13136949536E+04  0.13871408686E+04  0.40000000000E+03 0.  1.
<mgrwt>
<rscale>  2 0.44538226E+03</rscale>
<asrwt>0</asrwt>
<pdfrwt beam="1">  1       21 0.25703169E-01 0.44538226E+03</pdfrwt>
<pdfrwt beam="2">  1       21 0.26628805E+00 0.44538226E+03</pdfrwt>
<totfact> 0.62273280E+02</totfact>
</mgrwt>
</event>
<event>
 4    1  0.4758602E-002  0.4037146E+03  0.7818608E-02  0.1042501E+00
         21   -1    0    0  503  502  0.00000000000E+00  0.00000000000E+00  0.11702253500E+04  0.11702253500E+04  0.00000000000E+00 0. -1.
         21   -1    0    0  501  503 -0.00000000000E+00 -0.00000000000E+00 -0.19247997931E+03  0.19247997931E+03  0.00000000000E+00 0. -1.
    9000007    1    1    2  501    0 -0.32303246956E+02  0.44067582615E+02  0.13065482217E+03  0.42433021829E+03  0.40000000000E+03 0.  1.
   -9000007    1    1    2    0  502  0.32303246956E+02 -0.44067582615E+02  0.84709054855E+03  0.93837511105E+03  0.40000000000E+03 0.  1.
<mgrwt>
<rscale>  2 0.40371457E+03</rscale>
<asrwt>0</asrwt>
<pdfrwt beam="1">  1       21 0.18003467E+00 0.40371457E+03</pdfrwt>
<pdfrwt beam="2">  1       21 0.29612305E-01 0.40371457E+03</pdfrwt>
<totfact> 0.17194061E+03</totfact>
</mgrwt>
</event>
<event>
 4    1  0.4758602E-002  0.4041021E+03  0.7818608E-02  0.1042368E+00
         21   -1    0    0  501  502  0.00000000000E+00  0.00000000000E+00  0.26955974397E+03  0.26955974397E+03  0.00000000000E+00 0.  1.
         21   -1    0    0  502  503 -0.00000000000E+00 -0.00000000000E+00 -0.11121914781E+04  0.11121914781E+04  0.00000000000E+00 0.  1.
    9000007    1    1    2  501    0  0.15668310898E+02  0.55253999739E+02  0.44865096305E+02  0.40658501856E+03  0.40000000000E+03 0.  1.
   -9000007    1    1    2    0  503 -0.15668310898E+02 -0.55253999739E+02 -0.88749683046E+03  0.97516620354E+03  0.40000000000E+03 0.  1.
<mgrwt>
<rscale>  2 0.40410209E+03</rscale>
<asrwt>0</asrwt>
<pdfrwt beam="1">  1       21 0.41470729E-01 0.40410209E+03</pdfrwt>
<pdfrwt beam="2">  1       21 0.17110638E+00 0.40410209E+03</pdfrwt>
<totfact> 0.10077151E+03</totfact>
</mgrwt>
</event>
<event>
 4    1  0.4758602E-002  0.4319987E+03  0.7818608E-02  0.1033230E+00
         21   -1    0    0  503  502  0.00000000000E+00  0.00000000000E+00  0.33208168183E+03  0.33208168183E+03  0.00000000000E+00 0. -1.
         21   -1    0    0  501  503 -0.00000000000E+00 -0.00000000000E+00 -0.57122271834E+03  0.57122271834E+03  0.00000000000E+00 0.  1.
    9000007    1    1    2  501    0 -0.92351435871E+02 -0.13451419488E+03 -0.17702581366E+03  0.46686292960E+03  0.40000000000E+03 0.  1.
   -9000007    1    1    2    0  502  0.92351435871E+02  0.13451419488E+03 -0.62115222844E+02  0.43644147058E+03  0.40000000000E+03 0. -1.
<mgrwt>
<rscale>  2 0.43199868E+03</rscale>
<asrwt>0</asrwt>
<pdfrwt beam="1">  1       21 0.51089491E-01 0.43199868E+03</pdfrwt>
<pdfrwt beam="2">  1       21 0.87880416E-01 0.43199868E+03</pdfrwt>
<totfact> 0.35532576E+03</totfact>
</mgrwt>
</event>
<event>
 4    1  0.4758602E-002  0.5455932E+03  0.7818608E-02  0.1002519E+00
         21   -1    0    0  503  502  0.00000000000E+00  0.00000000000E+00  0.19852167491E+03  0.19852167491E+03  0.00000000000E+00 0. -1.
         21   -1    0    0  501  503 -0.00000000000E+00 -0.00000000000E+00 -0.15260887321E+04  0.15260887321E+04  0.00000000000E+00 0. -1.
    9000007    1    1    2  501    0 -0.43380578767E+02  0.36849706635E+03 -0.77772553044E+03  0.95001524368E+03  0.40000000000E+03 0. -1.
   -9000007    1    1    2    0  502  0.43380578767E+02 -0.36849706635E+03 -0.54984152678E+03  0.77459516336E+03  0.40000000000E+03 0. -1.
<mgrwt>
<rscale>  2 0.54559322E+03</rscale>
<asrwt>0</asrwt>
<pdfrwt beam="1">  1       21 0.30541797E-01 0.54559322E+03</pdfrwt>
<pdfrwt beam="2">  1       21 0.23478288E+00 0.54559322E+03</pdfrwt>
<totfact> 0.66123748E+02</totfact>
</mgrwt>
</event>
<event>
 4    1  0.4758602E-002  0.4260949E+03  0.7818608E-02  0.1035101E+00
         21   -1    0    0  503  502  0.00000000000E+00  0.00000000000E+00  0.24379432404E+03  0.24379432404E+03  0.00000000000E+00 0.  1.
         21   -1    0    0  501  503 -0.00000000000E+00 -0.00000000000E+00 -0.10901401127E+04  0.10901401127E+04  0.00000000000E+00 0.  1.
    9000007    1    1    2  501    0 -0.16596118083E+02 -0.14588160313E+03 -0.79861359977E+03  0.90517432299E+03  0.40000000000E+03 0.  1.
   -9000007    1    1    2    0  502  0.16596118083E+02  0.14588160313E+03 -0.47732188857E+02  0.42876011372E+03  0.40000000000E+03 0.  1.
<mgrwt>
<rscale>  2 0.42609491E+03</rscale>
<asrwt>0</asrwt>
<pdfrwt beam="1">  1       21 0.37506820E-01 0.42609491E+03</pdfrwt>
<pdfrwt beam="2">  1       21 0.16771386E+00 0.42609491E+03</pdfrwt>
<totfact> 0.12973102E+03</totfact>
</mgrwt>
</event>
<event>
 4    1  0.4758602E-002  0.4269261E+03  0.7818608E-02  0.1034835E+00
         21   -1    0    0  501  502  0.00000000000E+00  0.00000000000E+00  0.43700847034E+03  0.43700847034E+03  0.00000000000E+00 0. -1.
         21   -1    0    0  502  503 -0.00000000000E+00 -0.00000000000E+00 -0.96874976289E+03  0.96874976289E+03  0.00000000000E+00 0.  1.
    9000007    1    1    2  501    0  0.59633261030E+02 -0.13678358010E+03  0.26454446002E+03  0.50224460668E+03  0.40000000000E+03 0. -1.
   -9000007    1    1    2    0  503 -0.59633261030E+02  0.13678358010E+03 -0.79628575257E+03  0.90351362655E+03  0.40000000000E+03 0.  1.
<mgrwt>
<rscale>  2 0.42692608E+03</rscale>
<asrwt>0</asrwt>
<pdfrwt beam="1">  1       21 0.67232073E-01 0.42692608E+03</pdfrwt>
<pdfrwt beam="2">  1       21 0.14903842E+00 0.42692608E+03</pdfrwt>
<totfact> 0.51864953E+02</totfact>
</mgrwt>
</event>
<event>
 4    1  0.4758602E-002  0.4243152E+03  0.7818608E-02  0.1035671E+00
         21   -1    0    0  501  502  0.00000000000E+00  0.00000000000E+00  0.16318943605E+03  0.16318943605E+03  0.00000000000E+00 0. -1.
         21   -1    0    0  502  503 -0.00000000000E+00 -0.00000000000E+00 -0.11956877809E+04  0.11956877809E+04  0.00000000000E+00 0. -1.
    9000007    1    1    2  501    0  0.54511325181E+02 -0.13065944657E+03 -0.32736332489E+03  0.53591988397E+03  0.40000000000E+03 0. -1.
   -9000007    1    1    2    0  503 -0.54511325181E+02  0.13065944657E+03 -0.70513501998E+03  0.82295733301E+03  0.40000000000E+03 0. -1.
<mgrwt>
<rscale>  2 0.42431518E+03</rscale>
<asrwt>0</asrwt>
<pdfrwt beam="1">  1       21 0.25106067E-01 0.42431518E+03</pdfrwt>
<pdfrwt beam="2">  1       21 0.18395196E+00 0.42431518E+03</pdfrwt>
<totfact> 0.22110383E+03</totfact>
</mgrwt>
</event>
<event>
 4    1  0.4758602E-002  0.4895470E+03  0.7818608E-02  0.1016544E+00
         21   -1    0    0  503  502  0.00000000000E+00  0.00000000000E+00  0.26436179159E+03  0.26436179159E+03  0.00000000000E+00 0.  1.
         21   -1    0    0  501  503 -0.00000000000E+00 -0.00000000000E+00 -0.10638844230E+04  0.10638844230E+04  0.00000000000E+00 0. -1.
    9000007    1    1    2  501    0 -0.24402696266E+03 -0.14179942950E+03 -0.65515971915E+03  0.81785725790E+03  0.40000000000E+03 0. -1.
   -9000007    1    1    2    0  502  0.24402696266E+03  0.14179942950E+03 -0.14436291231E+03  0.51038895674E+03  0.40000000000E+03 0.  1.
<mgrwt>
<rscale>  2 0.48954697E+03</rscale>
<asrwt>0</asrwt>
<pdfrwt beam="1">  1       21 0.40671045E-01 0.48954697E+03</pdfrwt>
<pdfrwt beam="2">  1       21 0.16367453E+00 0.48954697E+03</pdfrwt>
<totfact> 0.11456192E+03</totfact>
</mgrwt>
</event>
<event>
 4    1  0.4758602E-002  0.4768157E+03  0.7818608E-02  0.1020014E+00
         21   -1    0    0  501  502  0.00000000000E+00  0.00000000000E+00  0.22827682458E+03  0.22827682458E+03  0.00000000000E+00 0. -1.
         21   -1    0    0  502  503 -0.00000000000E+00 -0.00000000000E+00 -0.11035077927E+04  0.11035077927E+04  0.00000000000E+00 0. -1.
    9000007    1    1    2  501    0  0.62208931550E+02  0.25195891516E+03 -0.22972773352E+03  0.52927127037E+03  0.40000000000E+03 0.  1.
   -9000007    1    1    2    0  503 -0.62208931550E+02 -0.25195891516E+03 -0.64550323457E+03  0.80251334689E+03  0.40000000000E+03 0.  1.
<mgrwt>
<rscale>  2 0.47681574E+03</rscale>
<asrwt>0</asrwt>
<pdfrwt beam="1">  1       21 0.35119511E-01 0.47681574E+03</pdfrwt>
<pdfrwt beam="2">  1       21 0.16977043E+00 0.47681574E+03</pdfrwt>
<totfact> 0.14019344E+03</totfact>
</mgrwt>
</event>
<event>
 4    1  0.4758602E-002  0.7677955E+03  0.7818608E-02  0.9607838E-01
         21   -1    0    0  503  502  0.00000000000E+00  0.00000000000E+00  0.16346245048E+04  0.16346245048E+04  0.00000000000E+00 0. -1.
         21   -1    0    0  501  503 -0.00000000000E+00 -0.00000000000E+00 -0.61804743618E+03  0.61804743618E+03  0.00000000000E+00 0.  1.
    9000007    1    1    2  501    0 -0.65126072057E+03 -0.73276040697E+02 -0.21860055426E+03  0.79830827794E+03  0.40000000000E+03 0.  1.
   -9000007    1    1    2    0  502  0.65126072057E+03  0.73276040697E+02  0.12351776228E+04  0.14543636630E+04  0.40000000000E+03 0. -1.
<mgrwt>
<rscale>  2 0.76779548E+03</rscale>
<asrwt>0</asrwt>
<pdfrwt beam="1">  1       21 0.25148069E+00 0.76779548E+03</pdfrwt>
<pdfrwt beam="2">  1       21 0.95084222E-01 0.76779548E+03</pdfrwt>
<totfact> 0.39920311E+01</totfact>
</mgrwt>
</event>
<event>
 4    1  0.4758602E-002  0.4530883E+03  0.7818608E-02  0.1026805E+00
         21   -1    0    0  501  502  0.00000000000E+00  0.00000000000E+00  0.23319078627E+03  0.23319078627E+03  0.00000000000E+00 0.  1.
         21   -1    0    0  502  503 -0.00000000000E+00 -0.00000000000E+00 -0.94469516638E+03  0.94469516638E+03  0.00000000000E+00 0.  1.
    9000007    1    1    2  501    0 -0.21267190622E+03 -0.77221671040E+01 -0.20204537011E+03  0.49609606242E+03  0.40000000000E+03 0.  1.
   -9000007    1    1    2    0  503  0.21267190622E+03  0.77221671040E+01 -0.50945900999E+03  0.68178989023E+03  0.40000000000E+03 0.  1.
<mgrwt>
<rscale>  2 0.45308826E+03</rscale>
<asrwt>0</asrwt>
<pdfrwt beam="1">  1       21 0.35875505E-01 0.45308826E+03</pdfrwt>
<pdfrwt beam="2">  1       21 0.14533772E+00 0.45308826E+03</pdfrwt>
<totfact> 0.20838495E+03</totfact>
</mgrwt>
</event>
<event>
 4    1  0.4758602E-002  0.4091017E+03  0.7818608E-02  0.1040673E+00
         21   -1    0    0  501  502  0.00000000000E+00  0.00000000000E+00  0.35722625768E+03  0.35722625768E+03  0.00000000000E+00 0. -1.
         21   -1    0    0  502  503 -0.00000000000E+00 -0.00000000000E+00 -0.92569467923E+03  0.92569467923E+03  0.00000000000E+00 0. -1.
    9000007    1    1    2  501    0 -0.50215778186E+02 -0.69588796487E+02  0.16656344268E+03  0.44170986565E+03  0.40000000000E+03 0. -1.
   -9000007    1    1    2    0  503  0.50215778186E+02  0.69588796487E+02 -0.73503186423E+03  0.84121107125E+03  0.40000000000E+03 0. -1.
<mgrwt>
<rscale>  2 0.40910173E+03</rscale>
<asrwt>0</asrwt>
<pdfrwt beam="1">  1       21 0.54957887E-01 0.40910173E+03</pdfrwt>
<pdfrwt beam="2">  1       21 0.14241456E+00 0.40910173E+03</pdfrwt>
<totfact> 0.91958837E+02</totfact>
</mgrwt>
</event>
<event>
 4    1  0.4758602E-002  0.5099852E+03  0.7818608E-02  0.1011205E+00
         21   -1    0    0  503  502  0.00000000000E+00  0.00000000000E+00  0.50215127300E+03  0.50215127300E+03  0.00000000000E+00 0.  1.
         21   -1    0    0  501  503 -0.00000000000E+00 -0.00000000000E+00 -0.55188051204E+03  0.55188051204E+03  0.00000000000E+00 0.  1.
    9000007    1    1    2  501    0  0.29137486030E+03  0.12322973997E+03 -0.15555755877E+03  0.53318198780E+03  0.40000000000E+03 0.  1.
   -9000007    1    1    2    0  502 -0.29137486030E+03 -0.12322973997E+03  0.10582831973E+03  0.52084979724E+03  0.40000000000E+03 0.  1.
<mgrwt>
<rscale>  2 0.50998517E+03</rscale>
<asrwt>0</asrwt>
<pdfrwt beam="1">  1       21 0.77254042E-01 0.50998517E+03</pdfrwt>
<pdfrwt beam="2">  1       21 0.84904694E-01 0.50998517E+03</pdfrwt>
<totfact> 0.15014186E+03</totfact>
</mgrwt>
</event>
<event>
 4    1  0.4758602E-002  0.4061053E+03  0.7818608E-02  0.1041686E+00
         21   -1    0    0  503  502  0.00000000000E+00  0.00000000000E+00  0.41760433357E+03  0.41760433357E+03  0.00000000000E+00 0. -1.
         21   -1    0    0  501  503 -0.00000000000E+00 -0.00000000000E+00 -0.62144020356E+03  0.62144020356E+03  0.00000000000E+00 0. -1.
    9000007    1    1    2  501    0 -0.54270463637E+02  0.44455124254E+02 -0.41557503635E+03  0.58105434525E+03  0.40000000000E+03 0. -1.
   -9000007    1    1    2    0  502  0.54270463637E+02 -0.44455124254E+02  0.21173916636E+03  0.45799019189E+03  0.40000000000E+03 0. -1.
<mgrwt>
<rscale>  2 0.40610533E+03</rscale>
<asrwt>0</asrwt>
<pdfrwt beam="1">  1       21 0.64246821E-01 0.40610533E+03</pdfrwt>
<pdfrwt beam="2">  1       21 0.95606185E-01 0.40610533E+03</pdfrwt>
<totfact> 0.17868501E+03</totfact>
</mgrwt>
</event>
<event>
 4    1  0.4758602E-002  0.4045580E+03  0.7818608E-02  0.1042213E+00
         21   -1    0    0  503  502  0.00000000000E+00  0.00000000000E+00  0.11112738773E+04  0.11112738773E+04  0.00000000000E+00 0.  1.
         21   -1    0    0  501  503 -0.00000000000E+00 -0.00000000000E+00 -0.31672898688E+03  0.31672898688E+03  0.00000000000E+00 0.  1.
    9000007    1    1    2  501    0 -0.46129696321E+02 -0.39233119916E+02 -0.12497471101E+03  0.42342161609E+03  0.40000000000E+03 0.  1.
   -9000007    1    1    2    0  502  0.46129696321E+02  0.39233119916E+02  0.91951960146E+03  0.10045812481E+04  0.40000000000E+03 0.  1.
<mgrwt>
<rscale>  2 0.40455801E+03</rscale>
<asrwt>0</asrwt>
<pdfrwt beam="1">  1       21 0.17096521E+00 0.40455801E+03</pdfrwt>
<pdfrwt beam="2">  1       21 0.48727537E-01 0.40455801E+03</pdfrwt>
<totfact> 0.72094152E+02</totfact>
</mgrwt>
</event>
<event>
 4    1  0.4758602E-002  0.4417044E+03  0.7818608E-02  0.1030225E+00
         21   -1    0    0  503  502  0.00000000000E+00  0.00000000000E+00  0.55918142270E+03  0.55918142270E+03  0.00000000000E+00 0. -1.
         21   -1    0    0  501  503 -0.00000000000E+00 -0.00000000000E+00 -0.70596668316E+03  0.70596668316E+03  0.00000000000E+00 0. -1.
    9000007    1    1    2  501    0 -0.10441587284E+03  0.15556379190E+03 -0.52326485821E+03  0.68476921637E+03  0.40000000000E+03 0. -1.
   -9000007    1    1    2    0  502  0.10441587284E+03 -0.15556379190E+03  0.37647959775E+03  0.58037888949E+03  0.40000000000E+03 0. -1.
<mgrwt>
<rscale>  2 0.44170439E+03</rscale>
<asrwt>0</asrwt>
<pdfrwt beam="1">  1       21 0.86027912E-01 0.44170439E+03</pdfrwt>
<pdfrwt beam="2">  1       21 0.10861026E+00 0.44170439E+03</pdfrwt>
<totfact> 0.66352112E+02</totfact>
</mgrwt>
</event>
<event>
 4    1  0.4758602E-002  0.4424882E+03  0.7818608E-02  0.1029986E+00
         21   -1    0    0  501  502  0.00000000000E+00  0.00000000000E+00  0.10335314811E+04  0.10335314811E+04  0.00000000000E+00 0.  1.
         21   -1    0    0  502  503 -0.00000000000E+00 -0.00000000000E+00 -0.21038202908E+03  0.21038202908E+03  0.00000000000E+00 0.  1.
    9000007    1    1    2  501    0  0.98706347020E+02  0.16140889822E+03  0.21536098711E+03  0.49211394020E+03  0.40000000000E+03 0.  1.
   -9000007    1    1    2    0  503 -0.98706347020E+02 -0.16140889822E+03  0.60778846493E+03  0.75179957001E+03  0.40000000000E+03 0.  1.
<mgrwt>
<rscale>  2 0.44248816E+03</rscale>
<asrwt>0</asrwt>
<pdfrwt beam="1">  1       21 0.15900484E+00 0.44248816E+03</pdfrwt>
<pdfrwt beam="2">  1       21 0.32366467E-01 0.44248816E+03</pdfrwt>
<totfact> 0.20151162E+03</totfact>
</mgrwt>
</event>
<event>
 4    1  0.4758602E-002  0.4498018E+03  0.7818608E-02  0.1027781E+00
         21   -1    0    0  501  502  0.00000000000E+00  0.00000000000E+00  0.67899659206E+03  0.67899659206E+03  0.00000000000E+00 0.  1.
         21   -1    0    0  502  503 -0.00000000000E+00 -0.00000000000E+00 -0.62542674671E+03  0.62542674671E+03  0.00000000000E+00 0.  1.
    9000007    1    1    2  501    0 -0.15676422022E+03 -0.13321657577E+03  0.49871349703E+03  0.67159275526E+03  0.40000000000E+03 0.  1.
   -9000007    1    1    2    0  503  0.15676422022E+03  0.13321657577E+03 -0.44514365168E+03  0.63283058351E+03  0.40000000000E+03 0.  1.
<mgrwt>
<rscale>  2 0.44980182E+03</rscale>
<asrwt>0</asrwt>
<pdfrwt beam="1">  1       21 0.10446101E+00 0.44980182E+03</pdfrwt>
<pdfrwt beam="2">  1       21 0.96219500E-01 0.44980182E+03</pdfrwt>
<totfact> 0.55795445E+02</totfact>
</mgrwt>
</event>
<event>
 4    1  0.4758602E-002  0.4260173E+03  0.7818608E-02  0.1035126E+00
         21   -1    0    0  501  502  0.00000000000E+00  0.00000000000E+00  0.65414536996E+03  0.65414536996E+03  0.00000000000E+00 0.  1.
         21   -1    0    0  502  503 -0.00000000000E+00 -0.00000000000E+00 -0.42964505342E+03  0.42964505342E+03  0.00000000000E+00 0.  1.
    9000007    1    1    2  501    0 -0.13928175239E+02 -0.14593394275E+03  0.43477626104E+03  0.60870444953E+03  0.40000000000E+03 0.  1.
   -9000007    1    1    2    0  503  0.13928175239E+02  0.14593394275E+03 -0.21027594451E+03  0.47508597385E+03  0.40000000000E+03 0.  1.
<mgrwt>
<rscale>  2 0.42601726E+03</rscale>
<asrwt>0</asrwt>
<pdfrwt beam="1">  1       21 0.10063775E+00 0.42601726E+03</pdfrwt>
<pdfrwt beam="2">  1       21 0.66099239E-01 0.42601726E+03</pdfrwt>
<totfact> 0.14701435E+03</totfact>
</mgrwt>
</event>
<event>
 4    1  0.4758602E-002  0.4061531E+03  0.7818608E-02  0.1041670E+00
         21   -1    0    0  503  502  0.00000000000E+00  0.00000000000E+00  0.25587721439E+03  0.25587721439E+03  0.00000000000E+00 0.  1.
         21   -1    0    0  501  503 -0.00000000000E+00 -0.00000000000E+00 -0.64579862412E+03  0.64579862412E+03  0.00000000000E+00 0.  1.
    9000007    1    1    2  501    0  0.53885607009E+02 -0.45350308603E+02 -0.17624270216E+03  0.44274349142E+03  0.40000000000E+03 0. -1.
   -9000007    1    1    2    0  502 -0.53885607009E+02  0.45350308603E+02 -0.21367870757E+03  0.45893234708E+03  0.40000000000E+03 0. -1.
<mgrwt>
<rscale>  2 0.40615306E+03</rscale>
<asrwt>0</asrwt>
<pdfrwt beam="1">  1       21 0.39365726E-01 0.40615306E+03</pdfrwt>
<pdfrwt beam="2">  1       21 0.99353633E-01 0.40615306E+03</pdfrwt>
<totfact> 0.46177664E+03</totfact>
</mgrwt>
</event>
<event>
 4    1  0.4758602E-002  0.4053850E+03  0.7818608E-02  0.1041931E+00
         21   -1    0    0  501  502  0.00000000000E+00  0.00000000000E+00  0.19546780044E+04  0.19546780044E+04  0.00000000000E+00 0.  1.
         21   -1    0    0  502  503 -0.00000000000E+00 -0.00000000000E+00 -0.84274369437E+02  0.84274369437E+02  0.00000000000E+00 0.  1.
    9000007    1    1    2  501    0  0.65756094772E+02  0.36278705295E+01  0.88545531160E+03  0.97384194523E+03  0.40000000000E+03 0.  1.
   -9000007    1    1    2    0  503 -0.65756094772E+02 -0.36278705295E+01  0.98494832339E+03  0.10651104286E+04  0.40000000000E+03 0.  1.
<mgrwt>
<rscale>  2 0.40538503E+03</rscale>
<asrwt>0</asrwt>
<pdfrwt beam="1">  1       21 0.30071966E+00 0.40538503E+03</pdfrwt>
<pdfrwt beam="2">  1       21 0.12965289E-01 0.40538503E+03</pdfrwt>
<totfact> 0.14377876E+03</totfact>
</mgrwt>
</event>
<event>
 4    1  0.4758602E-002  0.5806434E+03  0.7818608E-02  0.9946399E-01
         21   -1    0    0  501  502  0.00000000000E+00  0.00000000000E+00  0.90042551336E+03  0.90042551336E+03  0.00000000000E+00 0.  1.
         21   -1    0    0  502  503 -0.00000000000E+00 -0.00000000000E+00 -0.66663978655E+03  0.66663978655E+03  0.00000000000E+00 0. -1.
    9000007    1    1    2  501    0  0.20272645237E+03 -0.36884792591E+03  0.63564328679E+03  0.86092345478E+03  0.40000000000E+03 0.  1.
   -9000007    1    1    2    0  503 -0.20272645237E+03  0.36884792591E+03 -0.40185755998E+03  0.70614184514E+03  0.40000000000E+03 0.  1.
<mgrwt>
<rscale>  2 0.58064344E+03</rscale>
<asrwt>0</asrwt>
<pdfrwt beam="1">  1       21 0.13852700E+00 0.58064344E+03</pdfrwt>
<pdfrwt beam="2">  1       21 0.10255997E+00 0.58064344E+03</pdfrwt>
<totfact> 0.22020774E+02</totfact>
</mgrwt>
</event>
<event>
 4    1  0.4758602E-002  0.5715014E+03  0.7818608E-02  0.9966362E-01
         21   -1    0    0  501  502  0.00000000000E+00  0.00000000000E+00  0.63907084382E+03  0.63907084382E+03  0.00000000000E+00 0. -1.
         21   -1    0    0  502  503 -0.00000000000E+00 -0.00000000000E+00 -0.51887490536E+03  0.51887490536E+03  0.00000000000E+00 0. -1.
    9000007    1    1    2  501    0 -0.81074529118E+02 -0.40005091676E+03  0.13107891167E+03  0.58634076812E+03  0.40000000000E+03 0. -1.
   -9000007    1    1    2    0  503  0.81074529118E+02  0.40005091676E+03 -0.10882973216E+02  0.57160498107E+03  0.40000000000E+03 0. -1.
<mgrwt>
<rscale>  2 0.57150137E+03</rscale>
<asrwt>0</asrwt>
<pdfrwt beam="1">  1       21 0.98318592E-01 0.57150137E+03</pdfrwt>
<pdfrwt beam="2">  1       21 0.79826908E-01 0.57150137E+03</pdfrwt>
<totfact> 0.96095552E+02</totfact>
</mgrwt>
</event>
<event>
 4    1  0.4758602E-002  0.6892909E+03  0.7818608E-02  0.9735723E-01
         21   -1    0    0  501  502  0.00000000000E+00  0.00000000000E+00  0.13202133022E+04  0.13202133022E+04  0.00000000000E+00 0. -1.
         21   -1    0    0  502  503 -0.00000000000E+00 -0.00000000000E+00 -0.49871753453E+03  0.49871753453E+03  0.00000000000E+00 0. -1.
    9000007    1    1    2  501    0 -0.34375245503E+03  0.44379753312E+03  0.89060065605E+03  0.11261845006E+04  0.40000000000E+03 0. -1.
   -9000007    1    1    2    0  503  0.34375245503E+03 -0.44379753312E+03 -0.69104888340E+02  0.69274633621E+03  0.40000000000E+03 0. -1.
<mgrwt>
<rscale>  2 0.68929094E+03</rscale>
<asrwt>0</asrwt>
<pdfrwt beam="1">  1       21 0.20310974E+00 0.68929094E+03</pdfrwt>
<pdfrwt beam="2">  1       21 0.76725775E-01 0.68929094E+03</pdfrwt>
<totfact> 0.14027544E+02</totfact>
</mgrwt>
</event>
<event>
 4    1  0.4758602E-002  0.4039174E+03  0.7818608E-02  0.1042432E+00
         21   -1    0    0  501  502  0.00000000000E+00  0.00000000000E+00  0.14111904583E+04  0.14111904583E+04  0.00000000000E+00 0. -1.
         21   -1    0    0  502  503 -0.00000000000E+00 -0.00000000000E+00 -0.14886537110E+03  0.14886537110E+03  0.00000000000E+00 0. -1.
    9000007    1    1    2  501    0  0.56117782881E+02  0.24837574692E+00  0.26249315065E+03  0.48171767809E+03  0.40000000000E+03 0. -1.
   -9000007    1    1    2    0  503 -0.56117782881E+02 -0.24837574692E+00  0.99983193657E+03  0.10783381513E+04  0.40000000000E+03 0. -1.
<mgrwt>
<rscale>  2 0.40391740E+03</rscale>
<asrwt>0</asrwt>
<pdfrwt beam="1">  1       21 0.21710622E+00 0.40391740E+03</pdfrwt>
<pdfrwt beam="2">  1       21 0.22902366E-01 0.40391740E+03</pdfrwt>
<totfact> 0.16050090E+03</totfact>
</mgrwt>
</event>
<event>
 4    1  0.4758602E-002  0.4089584E+03  0.7818608E-02  0.1040721E+00
         21   -1    0    0  501  502  0.00000000000E+00  0.00000000000E+00  0.30189672586E+03  0.30189672586E+03  0.00000000000E+00 0.  1.
         21   -1    0    0  502  503 -0.00000000000E+00 -0.00000000000E+00 -0.55664953416E+03  0.55664953416E+03  0.00000000000E+00 0.  1.
    9000007    1    1    2  501    0  0.43635631514E+02 -0.73095344368E+02 -0.97690275381E+02  0.42046449031E+03  0.40000000000E+03 0. -1.
   -9000007    1    1    2    0  503 -0.43635631514E+02  0.73095344368E+02 -0.15706253292E+03  0.43808176971E+03  0.40000000000E+03 0. -1.
<mgrwt>
<rscale>  2 0.40895843E+03</rscale>
<asrwt>0</asrwt>
<pdfrwt beam="1">  1       21 0.46445650E-01 0.40895843E+03</pdfrwt>
<pdfrwt beam="2">  1       21 0.85638389E-01 0.40895843E+03</pdfrwt>
<totfact> 0.46575862E+03</totfact>
</mgrwt>
</event>
<event>
 4    1  0.4758602E-002  0.4819915E+03  0.7818608E-02  0.1018589E+00
         21   -1    0    0  501  502  0.00000000000E+00  0.00000000000E+00  0.11578340903E+04  0.11578340903E+04  0.00000000000E+00 0.  1.
         21   -1    0    0  502  503 -0.00000000000E+00 -0.00000000000E+00 -0.20235333871E+03  0.20235333871E+03  0.00000000000E+00 0. -1.
    9000007    1    1    2  501    0 -0.21951821080E+03  0.15533053298E+03  0.54019420862E+03  0.72396519418E+03  0.40000000000E+03 0.  1.
   -9000007    1    1    2    0  503  0.21951821080E+03 -0.15533053298E+03  0.41528654300E+03  0.63622223487E+03  0.40000000000E+03 0. -1.
<mgrwt>
<rscale>  2 0.48199151E+03</rscale>
<asrwt>0</asrwt>
<pdfrwt beam="1">  1       21 0.17812832E+00 0.48199151E+03</pdfrwt>
<pdfrwt beam="2">  1       21 0.31131283E-01 0.48199151E+03</pdfrwt>
<totfact> 0.15523331E+03</totfact>
</mgrwt>
</event>
<event>
 4    1  0.4758602E-002  0.4039660E+03  0.7818608E-02  0.1042415E+00
         21   -1    0    0  503  502  0.00000000000E+00  0.00000000000E+00  0.80242889837E+03  0.80242889837E+03  0.00000000000E+00 0. -1.
         21   -1    0    0  501  503 -0.00000000000E+00 -0.00000000000E+00 -0.28421683389E+03  0.28421683389E+03  0.00000000000E+00 0. -1.
    9000007    1    1    2  501    0  0.53972344200E+02 -0.16599012082E+02 -0.30674602217E+02  0.40512895769E+03  0.40000000000E+03 0. -1.
   -9000007    1    1    2    0  502 -0.53972344200E+02  0.16599012082E+02  0.54888666670E+03  0.68151677457E+03  0.40000000000E+03 0. -1.
<mgrwt>
<rscale>  2 0.40396601E+03</rscale>
<asrwt>0</asrwt>
<pdfrwt beam="1">  1       21 0.12345060E+00 0.40396601E+03</pdfrwt>
<pdfrwt beam="2">  1       21 0.43725667E-01 0.40396601E+03</pdfrwt>
<totfact> 0.21699954E+03</totfact>
</mgrwt>
</event>
<event>
 4    1  0.4758602E-002  0.4636911E+03  0.7818608E-02  0.1023716E+00
         21   -1    0    0  503  502  0.00000000000E+00  0.00000000000E+00  0.61911685641E+03  0.61911685641E+03  0.00000000000E+00 0. -1.
         21   -1    0    0  501  503 -0.00000000000E+00 -0.00000000000E+00 -0.10109044937E+04  0.10109044937E+04  0.00000000000E+00 0. -1.
    9000007    1    1    2  501    0 -0.18062342665E+03 -0.14961484376E+03 -0.85623457721E+03  0.97372844003E+03  0.40000000000E+03 0. -1.
   -9000007    1    1    2    0  502  0.18062342665E+03  0.14961484376E+03  0.46444693995E+03  0.65629291003E+03  0.40000000000E+03 0. -1.
<mgrwt>
<rscale>  2 0.46369109E+03</rscale>
<asrwt>0</asrwt>
<pdfrwt beam="1">  1       21 0.95248748E-01 0.46369109E+03</pdfrwt>
<pdfrwt beam="2">  1       21 0.15552377E+00 0.46369109E+03</pdfrwt>
<totfact> 0.20265811E+02</totfact>
</mgrwt>
</event>
<event>
 4    1  0.4758602E-002  0.4237776E+03  0.7818608E-02  0.1035844E+00
         21   -1    0    0  503  502  0.00000000000E+00  0.00000000000E+00  0.13278140909E+04  0.13278140909E+04  0.00000000000E+00 0. -1.
         21   -1    0    0  501  503 -0.00000000000E+00 -0.00000000000E+00 -0.17873451995E+03  0.17873451995E+03  0.00000000000E+00 0.  1.
    9000007    1    1    2  501    0 -0.55964917947E+02  0.12827865976E+03  0.20299266291E+03  0.46988669675E+03  0.40000000000E+03 0.  1.
   -9000007    1    1    2    0  502  0.55964917947E+02 -0.12827865976E+03  0.94608690807E+03  0.10366619141E+04  0.40000000000E+03 0. -1.
<mgrwt>
<rscale>  2 0.42377764E+03</rscale>
<asrwt>0</asrwt>
<pdfrwt beam="1">  1       21 0.20427909E+00 0.42377764E+03</pdfrwt>
<pdfrwt beam="2">  1       21 0.27497619E-01 0.42377764E+03</pdfrwt>
<totfact> 0.13494238E+03</totfact>
</mgrwt>
</event>
<event>
 4    1  0.4758602E-002  0.4083019E+03  0.7818608E-02  0.1040942E+00
         21   -1    0    0  503  502  0.00000000000E+00  0.00000000000E+00  0.96538288575E+03  0.96538288575E+03  0.00000000000E+00 0.  1.
         21   -1    0    0  501  503 -0.00000000000E+00 -0.00000000000E+00 -0.22992338492E+03  0.22992338492E+03  0.00000000000E+00 0.  1.
    9000007    1    1    2  501    0 -0.40538116402E+02  0.71183657904E+02  0.69543019537E+02  0.41418194504E+03  0.40000000000E+03 0.  1.
   -9000007    1    1    2    0  502  0.40538116402E+02 -0.71183657904E+02  0.66591648129E+03  0.78112432563E+03  0.40000000000E+03 0.  1.
<mgrwt>
<rscale>  2 0.40830191E+03</rscale>
<asrwt>0</asrwt>
<pdfrwt beam="1">  1       21 0.14852044E+00 0.40830191E+03</pdfrwt>
<pdfrwt beam="2">  1       21 0.35372829E-01 0.40830191E+03</pdfrwt>
<totfact> 0.20602044E+03</totfact>
</mgrwt>
</event>
<event>
 4    1  0.4758602E-002  0.4828005E+03  0.7818608E-02  0.1018368E+00
         21   -1    0    0  503  502  0.00000000000E+00  0.00000000000E+00  0.41250421604E+03  0.41250421604E+03  0.00000000000E+00 0.  1.
         21   -1    0    0  501  503 -0.00000000000E+00 -0.00000000000E+00 -0.86765169162E+03  0.86765169162E+03  0.00000000000E+00 0.  1.
    9000007    1    1    2  501    0 -0.26703537747E+03 -0.42289958172E+02 -0.60556085811E+03  0.77446774385E+03  0.40000000000E+03 0.  1.
   -9000007    1    1    2    0  502  0.26703537747E+03  0.42289958172E+02  0.15041338253E+03  0.50568816382E+03  0.40000000000E+03 0.  1.
<mgrwt>
<rscale>  2 0.48280051E+03</rscale>
<asrwt>0</asrwt>
<pdfrwt beam="1">  1       21 0.63462187E-01 0.48280051E+03</pdfrwt>
<pdfrwt beam="2">  1       21 0.13348488E+00 0.48280051E+03</pdfrwt>
<totfact> 0.77160621E+02</totfact>
</mgrwt>
</event>
<event>
 4    1  0.4758602E-002  0.9025533E+03  0.7818608E-02  0.9422395E-01
         21   -1    0    0  501  502  0.00000000000E+00  0.00000000000E+00  0.68656683160E+03  0.68656683160E+03  0.00000000000E+00 0.  1.
         21   -1    0    0  502  503 -0.00000000000E+00 -0.00000000000E+00 -0.15212215754E+04  0.15212215754E+04  0.00000000000E+00 0. -1.
    9000007    1    1    2  501    0 -0.57806740832E+03  0.56607462661E+03 -0.93515080408E+03  0.12996574309E+04  0.40000000000E+03 0.  1.
   -9000007    1    1    2    0  503  0.57806740832E+03 -0.56607462661E+03  0.10049606031E+03  0.90813097601E+03  0.40000000000E+03 0.  1.
<mgrwt>
<rscale>  2 0.90255327E+03</rscale>
<asrwt>0</asrwt>
<pdfrwt beam="1">  1       21 0.10562567E+00 0.90255327E+03</pdfrwt>
<pdfrwt beam="2">  1       21 0.23403409E+00 0.90255327E+03</pdfrwt>
<totfact> 0.38021485E+01</totfact>
</mgrwt>
</event>
<event>
 4    1  0.4758602E-002  0.4661579E+03  0.7818608E-02  0.1023010E+00
         21   -1    0    0  501  502  0.00000000000E+00  0.00000000000E+00  0.13116822525E+04  0.13116822525E+04  0.00000000000E+00 0. -1.
         21   -1    0    0  502  503 -0.00000000000E+00 -0.00000000000E+00 -0.16637809113E+03  0.16637809113E+03  0.00000000000E+00 0. -1.
    9000007    1    1    2  501    0 -0.22493138964E+03  0.81908886236E+02  0.52435662645E+03  0.70160748812E+03  0.40000000000E+03 0. -1.
   -9000007    1    1    2    0  503  0.22493138964E+03 -0.81908886236E+02  0.62094753491E+03  0.77645285549E+03  0.40000000000E+03 0. -1.
<mgrwt>
<rscale>  2 0.46615791E+03</rscale>
<asrwt>0</asrwt>
<pdfrwt beam="1">  1       21 0.20179726E+00 0.46615791E+03</pdfrwt>
<pdfrwt beam="2">  1       21 0.25596630E-01 0.46615791E+03</pdfrwt>
<totfact> 0.15820481E+03</totfact>
</mgrwt>
</event>
<event>
 4    1  0.4758602E-002  0.4569483E+03  0.7818608E-02  0.1025670E+00
         21   -1    0    0  503  502  0.00000000000E+00  0.00000000000E+00  0.57757265852E+03  0.57757265852E+03  0.00000000000E+00 0.  1.
         21   -1    0    0  501  503 -0.00000000000E+00 -0.00000000000E+00 -0.62937925304E+03  0.62937925304E+03  0.00000000000E+00 0.  1.
    9000007    1    1    2  501    0  0.10833823254E+03 -0.19252169242E+03 -0.41959866493E+03  0.62037473699E+03  0.40000000000E+03 0.  1.
   -9000007    1    1    2    0  502 -0.10833823254E+03  0.19252169242E+03  0.36779207041E+03  0.58657717458E+03  0.40000000000E+03 0.  1.
<mgrwt>
<rscale>  2 0.45694833E+03</rscale>
<asrwt>0</asrwt>
<pdfrwt beam="1">  1       21 0.88857333E-01 0.45694833E+03</pdfrwt>
<pdfrwt beam="2">  1       21 0.96827577E-01 0.45694833E+03</pdfrwt>
<totfact> 0.80887942E+02</totfact>
</mgrwt>
</event>
<event>
 4    1  0.4758602E-002  0.4889899E+03  0.7818608E-02  0.1016693E+00
         21   -1    0    0  501  502  0.00000000000E+00  0.00000000000E+00  0.43579224451E+03  0.43579224451E+03  0.00000000000E+00 0. -1.
         21   -1    0    0  502  503 -0.00000000000E+00 -0.00000000000E+00 -0.66673599780E+03  0.66673599780E+03  0.00000000000E+00 0.  1.
    9000007    1    1    2  501    0  0.84091217893E+02  0.26840234641E+03 -0.34743769956E+03  0.59985340506E+03  0.40000000000E+03 0.  1.
   -9000007    1    1    2    0  503 -0.84091217893E+02 -0.26840234641E+03  0.11649394627E+03  0.50267483725E+03  0.40000000000E+03 0. -1.
<mgrwt>
<rscale>  2 0.48898993E+03</rscale>
<asrwt>0</asrwt>
<pdfrwt beam="1">  1       21 0.67044961E-01 0.48898993E+03</pdfrwt>
<pdfrwt beam="2">  1       21 0.10257477E+00 0.48898993E+03</pdfrwt>
<totfact> 0.13263163E+03</totfact>
</mgrwt>
</event>
<event>
 4    1  0.4758602E-002  0.4364923E+03  0.7818608E-02  0.1031829E+00
         21   -1    0    0  501  502  0.00000000000E+00  0.00000000000E+00  0.15943124361E+03  0.15943124361E+03  0.00000000000E+00 0. -1.
         21   -1    0    0  502  503 -0.00000000000E+00 -0.00000000000E+00 -0.11961228393E+04  0.11961228393E+04  0.00000000000E+00 0. -1.
    9000007    1    1    2  501    0  0.13994353261E+02  0.17415424185E+03 -0.53880786429E+03  0.69342588393E+03  0.40000000000E+03 0.  1.
   -9000007    1    1    2    0  503 -0.13994353261E+02 -0.17415424185E+03 -0.49788373137E+03  0.66212819895E+03  0.40000000000E+03 0.  1.
<mgrwt>
<rscale>  2 0.43649232E+03</rscale>
<asrwt>0</asrwt>
<pdfrwt beam="1">  1       21 0.24527882E-01 0.43649232E+03</pdfrwt>
<pdfrwt beam="2">  1       21 0.18401891E+00 0.43649232E+03</pdfrwt>
<totfact> 0.22989247E+03</totfact>
</mgrwt>
</event>
<event>
 4    1  0.4758602E-002  0.4910214E+03  0.7818608E-02  0.1016149E+00
         21   -1    0    0  503  502  0.00000000000E+00  0.00000000000E+00  0.95015869037E+03  0.95015869037E+03  0.00000000000E+00 0. -1.
         21   -1    0    0  501  503 -0.00000000000E+00 -0.00000000000E+00 -0.26101257026E+03  0.26101257026E+03  0.00000000000E+00 0.  1.
    9000007    1    1    2  501    0 -0.11241932983E+03  0.26165617886E+03  0.24355192606E+03  0.54810546644E+03  0.40000000000E+03 0. -1.
   -9000007    1    1    2    0  502  0.11241932983E+03 -0.26165617886E+03  0.44559419406E+03  0.66306579419E+03  0.40000000000E+03 0.  1.
<mgrwt>
<rscale>  2 0.49102145E+03</rscale>
<asrwt>0</asrwt>
<pdfrwt beam="1">  1       21 0.14617826E+00 0.49102145E+03</pdfrwt>
<pdfrwt beam="2">  1       21 0.40155780E-01 0.49102145E+03</pdfrwt>
<totfact> 0.16055290E+03</totfact>
</mgrwt>
</event>
<event>
 4    1  0.4758602E-002  0.4274470E+03  0.7818608E-02  0.1034669E+00
         21   -1    0    0  501  502  0.00000000000E+00  0.00000000000E+00  0.71209229408E+03  0.71209229408E+03  0.00000000000E+00 0. -1.
         21   -1    0    0  502  503 -0.00000000000E+00 -0.00000000000E+00 -0.61018812747E+03  0.61018812747E+03  0.00000000000E+00 0. -1.
    9000007    1    1    2  501    0 -0.13715312198E+03 -0.62449362235E+02  0.55424505394E+03  0.69992748305E+03  0.40000000000E+03 0. -1.
   -9000007    1    1    2    0  503  0.13715312198E+03  0.62449362235E+02 -0.45234088734E+03  0.62235293851E+03  0.40000000000E+03 0. -1.
<mgrwt>
<rscale>  2 0.42744696E+03</rscale>
<asrwt>0</asrwt>
<pdfrwt beam="1">  1       21 0.10955266E+00 0.42744696E+03</pdfrwt>
<pdfrwt beam="2">  1       21 0.93875097E-01 0.42744696E+03</pdfrwt>
<totfact> 0.53175495E+02</totfact>
</mgrwt>
</event>
<event>
 4    1  0.4758602E-002  0.4649640E+03  0.7818608E-02  0.1023351E+00
         21   -1    0    0  501  502  0.00000000000E+00  0.00000000000E+00  0.20498559515E+03  0.20498559515E+03  0.00000000000E+00 0.  1.
         21   -1    0    0  502  503 -0.00000000000E+00 -0.00000000000E+00 -0.10695907681E+04  0.10695907681E+04  0.00000000000E+00 0. -1.
    9000007    1    1    2  501    0 -0.29009601826E+02 -0.23526581954E+03 -0.35702514388E+03  0.58622394714E+03  0.40000000000E+03 0. -1.
   -9000007    1    1    2    0  503  0.29009601826E+02  0.23526581954E+03 -0.50758002909E+03  0.68835241611E+03  0.40000000000E+03 0.  1.
<mgrwt>
<rscale>  2 0.46496404E+03</rscale>
<asrwt>0</asrwt>
<pdfrwt beam="1">  1       21 0.31536245E-01 0.46496404E+03</pdfrwt>
<pdfrwt beam="2">  1       21 0.16455243E+00 0.46496404E+03</pdfrwt>
<totfact> 0.19111923E+03</totfact>
</mgrwt>
</event>
<event>
 4    1  0.4758602E-002  0.5348997E+03  0.7818608E-02  0.1005051E+00
         21   -1    0    0  501  502  0.00000000000E+00  0.00000000000E+00  0.58030210076E+03  0.58030210076E+03  0.00000000000E+00 0.  1.
         21   -1    0    0  502  503 -0.00000000000E+00 -0.00000000000E+00 -0.50093494029E+03  0.50093494029E+03  0.00000000000E+00 0.  1.
    9000007    1    1    2  501    0  0.35512256365E+03  0.23717448332E+01  0.10751224105E+03  0.54559741785E+03  0.40000000000E+03 0.  1.
   -9000007    1    1    2    0  503 -0.35512256365E+03 -0.23717448332E+01 -0.28145080582E+02  0.53563962321E+03  0.40000000000E+03 0.  1.
<mgrwt>
<rscale>  2 0.53489967E+03</rscale>
<asrwt>0</asrwt>
<pdfrwt beam="1">  1       21 0.89277246E-01 0.53489967E+03</pdfrwt>
<pdfrwt beam="2">  1       21 0.77066914E-01 0.53489967E+03</pdfrwt>
<totfact> 0.13299847E+03</totfact>
</mgrwt>
</event>
<event>
 4    1  0.4758602E-002  0.4530111E+03  0.7818608E-02  0.1026828E+00
         21   -1    0    0  501  502  0.00000000000E+00  0.00000000000E+00  0.51792826580E+03  0.51792826580E+03  0.00000000000E+00 0.  1.
         21   -1    0    0  502  503 -0.00000000000E+00 -0.00000000000E+00 -0.40530909378E+03  0.40530909378E+03  0.00000000000E+00 0.  1.
    9000007    1    1    2  501    0  0.18539367674E+03 -0.10415483859E+03 -0.12777401743E+02  0.45319124856E+03  0.40000000000E+03 0.  1.
   -9000007    1    1    2    0  503 -0.18539367674E+03  0.10415483859E+03  0.12539657376E+03  0.47004611102E+03  0.40000000000E+03 0.  1.
<mgrwt>
<rscale>  2 0.45301109E+03</rscale>
<asrwt>0</asrwt>
<pdfrwt beam="1">  1       21 0.79681271E-01 0.45301109E+03</pdfrwt>
<pdfrwt beam="2">  1       21 0.62355245E-01 0.45301109E+03</pdfrwt>
<totfact> 0.28765964E+03</totfact>
</mgrwt>
</event>
<event>
 4    1  0.4758602E-002  0.4415462E+03  0.7818608E-02  0.1030273E+00
         21   -1    0    0  501  502  0.00000000000E+00  0.00000000000E+00  0.11244608240E+04  0.11244608240E+04  0.00000000000E+00 0. -1.
         21   -1    0    0  502  503 -0.00000000000E+00 -0.00000000000E+00 -0.24392729850E+03  0.24392729850E+03  0.00000000000E+00 0. -1.
    9000007    1    1    2  501    0 -0.17368037914E+03  0.69268782430E+02  0.80820784798E+03  0.92095763412E+03  0.40000000000E+03 0. -1.
   -9000007    1    1    2    0  503  0.17368037914E+03 -0.69268782430E+02  0.72325677542E+02  0.44743048840E+03  0.40000000000E+03 0. -1.
<mgrwt>
<rscale>  2 0.44154619E+03</rscale>
<asrwt>0</asrwt>
<pdfrwt beam="1">  1       21 0.17299397E+00 0.44154619E+03</pdfrwt>
<pdfrwt beam="2">  1       21 0.37527277E-01 0.44154619E+03</pdfrwt>
<totfact> 0.11783540E+03</totfact>
</mgrwt>
</event>
<event>
 4    1  0.4758602E-002  0.4009616E+03  0.7818608E-02  0.1043447E+00
         21   -1    0    0  501  502  0.00000000000E+00  0.00000000000E+00  0.41126818735E+03  0.41126818735E+03  0.00000000000E+00 0.  1.
         21   -1    0    0  502  503 -0.00000000000E+00 -0.00000000000E+00 -0.10268185997E+04  0.10268185997E+04  0.00000000000E+00 0.  1.
    9000007    1    1    2  501    0 -0.66750664951E+01 -0.26937626282E+02  0.25807889674E+03  0.47683845185E+03  0.40000000000E+03 0.  1.
   -9000007    1    1    2    0  503  0.66750664951E+01  0.26937626282E+02 -0.87362930910E+03  0.96124833521E+03  0.40000000000E+03 0.  1.
<mgrwt>
<rscale>  2 0.40096158E+03</rscale>
<asrwt>0</asrwt>
<pdfrwt beam="1">  1       21 0.63272030E-01 0.40096158E+03</pdfrwt>
<pdfrwt beam="2">  1       21 0.15797209E+00 0.40096158E+03</pdfrwt>
<totfact> 0.51294215E+02</totfact>
</mgrwt>
</event>
<event>
 4    1  0.4758602E-002  0.4137978E+03  0.7818608E-02  0.1039104E+00
         21   -1    0    0  501  502  0.00000000000E+00  0.00000000000E+00  0.52223260016E+03  0.52223260016E+03  0.00000000000E+00 0.  1.
         21   -1    0    0  502  503 -0.00000000000E+00 -0.00000000000E+00 -0.33995252097E+03  0.33995252097E+03  0.00000000000E+00 0.  1.
    9000007    1    1    2  501    0  0.46502532975E+02  0.95216046411E+02  0.17238498100E+03  0.44826907404E+03  0.40000000000E+03 0.  1.
   -9000007    1    1    2    0  503 -0.46502532975E+02 -0.95216046411E+02  0.98950981786E+01  0.41391604709E+03  0.40000000000E+03 0.  1.
<mgrwt>
<rscale>  2 0.41379775E+03</rscale>
<asrwt>0</asrwt>
<pdfrwt beam="1">  1       21 0.80343477E-01 0.41379775E+03</pdfrwt>
<pdfrwt beam="2">  1       21 0.52300388E-01 0.41379775E+03</pdfrwt>
<totfact> 0.41930744E+03</totfact>
</mgrwt>
</event>
<event>
 4    1  0.4758602E-002  0.4196607E+03  0.7818608E-02  0.1037177E+00
         21   -1    0    0  503  502  0.00000000000E+00  0.00000000000E+00  0.61602531376E+03  0.61602531376E+03  0.00000000000E+00 0. -1.
         21   -1    0    0  501  503 -0.00000000000E+00 -0.00000000000E+00 -0.10515917277E+04  0.10515917277E+04  0.00000000000E+00 0. -1.
    9000007    1    1    2  501    0  0.11182477418E+03 -0.60085874897E+02 -0.92927965915E+03  0.10196449271E+04  0.40000000000E+03 0. -1.
   -9000007    1    1    2    0  502 -0.11182477418E+03  0.60085874897E+02  0.49371324520E+03  0.64797211435E+03  0.40000000000E+03 0. -1.
<mgrwt>
<rscale>  2 0.41966069E+03</rscale>
<asrwt>0</asrwt>
<pdfrwt beam="1">  1       21 0.94773125E-01 0.41966069E+03</pdfrwt>
<pdfrwt beam="2">  1       21 0.16178334E+00 0.41966069E+03</pdfrwt>
<totfact> 0.18814095E+02</totfact>
</mgrwt>
</event>
<event>
 4    1  0.4758602E-002  0.4318629E+03  0.7818608E-02  0.1033273E+00
         21   -1    0    0  501  502  0.00000000000E+00  0.00000000000E+00  0.72916141949E+03  0.72916141949E+03  0.00000000000E+00 0. -1.
         21   -1    0    0  502  503 -0.00000000000E+00 -0.00000000000E+00 -0.25615460219E+03  0.25615460219E+03  0.00000000000E+00 0. -1.
    9000007    1    1    2  501    0  0.12902542819E+03 -0.99287603312E+02  0.25531983884E+03  0.50169095008E+03  0.40000000000E+03 0.  1.
   -9000007    1    1    2    0  503 -0.12902542819E+03  0.99287603312E+02  0.21768697845E+03  0.48362507160E+03  0.40000000000E+03 0.  1.
<mgrwt>
<rscale>  2 0.43186293E+03</rscale>
<asrwt>0</asrwt>
<pdfrwt beam="1">  1       21 0.11217868E+00 0.43186293E+03</pdfrwt>
<pdfrwt beam="2">  1       21 0.39408401E-01 0.43186293E+03</pdfrwt>
<totfact> 0.33864391E+03</totfact>
</mgrwt>
</event>
<event>
 4    1  0.4758602E-002  0.5175680E+03  0.7818608E-02  0.1009292E+00
         21   -1    0    0  501  502  0.00000000000E+00  0.00000000000E+00  0.43049934254E+03  0.43049934254E+03  0.00000000000E+00 0. -1.
         21   -1    0    0  502  503 -0.00000000000E+00 -0.00000000000E+00 -0.69733709845E+03  0.69733709845E+03  0.00000000000E+00 0. -1.
    9000007    1    1    2  501    0  0.19086085350E+03  0.26729906429E+03  0.51630609836E+02  0.52013688106E+03  0.40000000000E+03 0. -1.
   -9000007    1    1    2    0  503 -0.19086085350E+03 -0.26729906429E+03 -0.31846836575E+03  0.60769955994E+03  0.40000000000E+03 0. -1.
<mgrwt>
<rscale>  2 0.51756802E+03</rscale>
<asrwt>0</asrwt>
<pdfrwt beam="1">  1       21 0.66230668E-01 0.51756802E+03</pdfrwt>
<pdfrwt beam="2">  1       21 0.10728263E+00 0.51756802E+03</pdfrwt>
<totfact> 0.12079116E+03</totfact>
</mgrwt>
</event>
<event>
 4    1  0.4758602E-002  0.5199252E+03  0.7818608E-02  0.1008705E+00
         21   -1    0    0  501  502  0.00000000000E+00  0.00000000000E+00  0.87180935405E+03  0.87180935405E+03  0.00000000000E+00 0.  1.
         21   -1    0    0  502  503 -0.00000000000E+00 -0.00000000000E+00 -0.12781924485E+04  0.12781924485E+04  0.00000000000E+00 0.  1.
    9000007    1    1    2  501    0 -0.29281556844E+03 -0.15678406323E+03  0.73237735918E+03  0.89816412523E+03  0.40000000000E+03 0.  1.
   -9000007    1    1    2    0  503  0.29281556844E+03  0.15678406323E+03 -0.11387604536E+04  0.12518376773E+04  0.40000000000E+03 0.  1.
<mgrwt>
<rscale>  2 0.51992519E+03</rscale>
<asrwt>0</asrwt>
<pdfrwt beam="1">  1       21 0.13412452E+00 0.51992519E+03</pdfrwt>
<pdfrwt beam="2">  1       21 0.19664499E+00 0.51992519E+03</pdfrwt>
<totfact> 0.42227501E+01</totfact>
</mgrwt>
</event>
<event>
 4    1  0.4758602E-002  0.5217399E+03  0.7818608E-02  0.1008255E+00
         21   -1    0    0  501  502  0.00000000000E+00  0.00000000000E+00  0.59852579039E+03  0.59852579039E+03  0.00000000000E+00 0. -1.
         21   -1    0    0  502  503 -0.00000000000E+00 -0.00000000000E+00 -0.61246812819E+03  0.61246812819E+03  0.00000000000E+00 0. -1.
    9000007    1    1    2  501    0  0.23568736018E+03 -0.23804209289E+03  0.30023871178E+03  0.60196001012E+03  0.40000000000E+03 0. -1.
   -9000007    1    1    2    0  503 -0.23568736018E+03  0.23804209289E+03 -0.31418104958E+03  0.60903390845E+03  0.40000000000E+03 0. -1.
<mgrwt>
<rscale>  2 0.52173994E+03</rscale>
<asrwt>0</asrwt>
<pdfrwt beam="1">  1       21 0.92080890E-01 0.52173994E+03</pdfrwt>
<pdfrwt beam="2">  1       21 0.94225866E-01 0.52173994E+03</pdfrwt>
<totfact> 0.77374934E+02</totfact>
</mgrwt>
</event>
<event>
 4    1  0.4758602E-002  0.4309525E+03  0.7818608E-02  0.1033560E+00
         21   -1    0    0  501  502  0.00000000000E+00  0.00000000000E+00  0.43767566553E+03  0.43767566553E+03  0.00000000000E+00 0.  1.
         21   -1    0    0  502  503 -0.00000000000E+00 -0.00000000000E+00 -0.47326967336E+03  0.47326967336E+03  0.00000000000E+00 0.  1.
    9000007    1    1    2  501    0 -0.69040870794E+01  0.16022599868E+03  0.12866573232E+03  0.44974982795E+03  0.40000000000E+03 0.  1.
   -9000007    1    1    2    0  503  0.69040870794E+01 -0.16022599868E+03 -0.16425974015E+03  0.46119551093E+03  0.40000000000E+03 0.  1.
<mgrwt>
<rscale>  2 0.43095248E+03</rscale>
<asrwt>0</asrwt>
<pdfrwt beam="1">  1       21 0.67334718E-01 0.43095248E+03</pdfrwt>
<pdfrwt beam="2">  1       21 0.72810719E-01 0.43095248E+03</pdfrwt>
<totfact> 0.30048718E+03</totfact>
</mgrwt>
</event>
<event>
 4    1  0.4758602E-002  0.5198418E+03  0.7818608E-02  0.1008726E+00
         21   -1    0    0  501  502  0.00000000000E+00  0.00000000000E+00  0.73226241980E+03  0.73226241980E+03  0.00000000000E+00 0.  1.
         21   -1    0    0  502  503 -0.00000000000E+00 -0.00000000000E+00 -0.50436850362E+03  0.50436850362E+03  0.00000000000E+00 0.  1.
    9000007    1    1    2  501    0 -0.24127009480E+03 -0.22808831021E+03  0.43422537426E+03  0.67733832872E+03  0.40000000000E+03 0.  1.
   -9000007    1    1    2    0  503  0.24127009480E+03  0.22808831021E+03 -0.20633145809E+03  0.55929259471E+03  0.40000000000E+03 0.  1.
<mgrwt>
<rscale>  2 0.51984184E+03</rscale>
<asrwt>0</asrwt>
<pdfrwt beam="1">  1       21 0.11265576E+00 0.51984184E+03</pdfrwt>
<pdfrwt beam="2">  1       21 0.77595154E-01 0.51984184E+03</pdfrwt>
<totfact> 0.74597040E+02</totfact>
</mgrwt>
</event>
<event>
 4    1  0.4758602E-002  0.4063289E+03  0.7818608E-02  0.1041610E+00
         21   -1    0    0  501  502  0.00000000000E+00  0.00000000000E+00  0.89866714569E+03  0.89866714569E+03  0.00000000000E+00 0.  1.
         21   -1    0    0  502  503 -0.00000000000E+00 -0.00000000000E+00 -0.20183640600E+03  0.20183640600E+03  0.00000000000E+00 0.  1.
    9000007    1    1    2  501    0  0.18375533357E+02  0.69032471725E+02  0.51326862669E+03  0.65463564333E+03  0.40000000000E+03 0.  1.
   -9000007    1    1    2    0  503 -0.18375533357E+02 -0.69032471725E+02  0.18356211300E+03  0.44586790836E+03  0.40000000000E+03 0.  1.
<mgrwt>
<rscale>  2 0.40632886E+03</rscale>
<asrwt>0</asrwt>
<pdfrwt beam="1">  1       21 0.13825648E+00 0.40632886E+03</pdfrwt>
<pdfrwt beam="2">  1       21 0.31051755E-01 0.40632886E+03</pdfrwt>
<totfact> 0.32424446E+03</totfact>
</mgrwt>
</event>
<event>
 4    1  0.4758602E-002  0.5401610E+03  0.7818608E-02  0.1003797E+00
         21   -1    0    0  501  502  0.00000000000E+00  0.00000000000E+00  0.61761244486E+03  0.61761244486E+03  0.00000000000E+00 0. -1.
         21   -1    0    0  502  503 -0.00000000000E+00 -0.00000000000E+00 -0.49879821122E+03  0.49879821122E+03  0.00000000000E+00 0. -1.
    9000007    1    1    2  501    0 -0.69765104103E+02  0.35623969623E+03  0.18776876370E+03  0.57186624270E+03  0.40000000000E+03 0. -1.
   -9000007    1    1    2    0  503  0.69765104103E+02 -0.35623969623E+03 -0.68954530067E+02  0.54454441337E+03  0.40000000000E+03 0. -1.
<mgrwt>
<rscale>  2 0.54016099E+03</rscale>
<asrwt>0</asrwt>
<pdfrwt beam="1">  1       21 0.95017299E-01 0.54016099E+03</pdfrwt>
<pdfrwt beam="2">  1       21 0.76738186E-01 0.54016099E+03</pdfrwt>
<totfact> 0.11551930E+03</totfact>
</mgrwt>
</event>
<event>
 4    1  0.4758602E-002  0.4897190E+03  0.7818608E-02  0.1016498E+00
         21   -1    0    0  503  502  0.00000000000E+00  0.00000000000E+00  0.89369506526E+02  0.89369506526E+02  0.00000000000E+00 0.  1.
         21   -1    0    0  501  503 -0.00000000000E+00 -0.00000000000E+00 -0.32203901906E+04  0.32203901906E+04  0.00000000000E+00 0.  1.
    9000007    1    1    2  501    0 -0.22610941551E+03 -0.16940856561E+03 -0.88982041306E+03  0.10156796234E+04  0.40000000000E+03 0.  1.
   -9000007    1    1    2    0  502  0.22610941551E+03  0.16940856561E+03 -0.22412002710E+04  0.22940800737E+04  0.40000000000E+03 0.  1.
<mgrwt>
<rscale>  2 0.48971903E+03</rscale>
<asrwt>0</asrwt>
<pdfrwt beam="1">  1       21 0.13749154E-01 0.48971903E+03</pdfrwt>
<pdfrwt beam="2">  1       21 0.49544467E+00 0.48971903E+03</pdfrwt>
<totfact> 0.67847915E+01</totfact>
</mgrwt>
</event>
<event>
 4    1  0.4758602E-002  0.4360185E+03  0.7818608E-02  0.1031975E+00
         21   -1    0    0  503  502  0.00000000000E+00  0.00000000000E+00  0.91595495472E+03  0.91595495472E+03  0.00000000000E+00 0.  1.
         21   -1    0    0  501  503 -0.00000000000E+00 -0.00000000000E+00 -0.21110603806E+03  0.21110603806E+03  0.00000000000E+00 0.  1.
    9000007    1    1    2  501    0 -0.10970718536E+03 -0.13444890836E+03  0.42549937253E+03  0.60923057335E+03  0.40000000000E+03 0.  1.
   -9000007    1    1    2    0  502  0.10970718536E+03  0.13444890836E+03  0.27934954412E+03  0.51783041942E+03  0.40000000000E+03 0.  1.
<mgrwt>
<rscale>  2 0.43601855E+03</rscale>
<asrwt>0</asrwt>
<pdfrwt beam="1">  1       21 0.14091614E+00 0.43601855E+03</pdfrwt>
<pdfrwt beam="2">  1       21 0.32477853E-01 0.43601855E+03</pdfrwt>
<totfact> 0.27850745E+03</totfact>
</mgrwt>
</event>
<event>
 4    1  0.4758602E-002  0.4325717E+03  0.7818608E-02  0.1033051E+00
         21   -1    0    0  503  502  0.00000000000E+00  0.00000000000E+00  0.39601922653E+03  0.39601922653E+03  0.00000000000E+00 0. -1.
         21   -1    0    0  501  503 -0.00000000000E+00 -0.00000000000E+00 -0.48308906194E+03  0.48308906194E+03  0.00000000000E+00 0. -1.
    9000007    1    1    2  501    0 -0.16208941653E+03  0.29074371291E+02 -0.10861801984E+03  0.44600019311E+03  0.40000000000E+03 0.  1.
   -9000007    1    1    2    0  502  0.16208941653E+03 -0.29074371291E+02  0.21548184429E+02  0.43310809536E+03  0.40000000000E+03 0.  1.
<mgrwt>
<rscale>  2 0.43257173E+03</rscale>
<asrwt>0</asrwt>
<pdfrwt beam="1">  1       21 0.60926035E-01 0.43257173E+03</pdfrwt>
<pdfrwt beam="2">  1       21 0.74321394E-01 0.43257173E+03</pdfrwt>
<totfact> 0.35769376E+03</totfact>
</mgrwt>
</event>
<event>
 4    1  0.4758602E-002  0.4785057E+03  0.7818608E-02  0.1019547E+00
         21   -1    0    0  501  502  0.00000000000E+00  0.00000000000E+00  0.36642609677E+03  0.36642609677E+03  0.00000000000E+00 0. -1.
         21   -1    0    0  502  503 -0.00000000000E+00 -0.00000000000E+00 -0.79741537708E+03  0.79741537708E+03  0.00000000000E+00 0. -1.
    9000007    1    1    2  501    0 -0.21679000380E+03 -0.14822196739E+03 -0.48618743114E+03  0.68216264598E+03  0.40000000000E+03 0. -1.
   -9000007    1    1    2    0  503  0.21679000380E+03  0.14822196739E+03  0.55198150839E+02  0.48167882787E+03  0.40000000000E+03 0. -1.
<mgrwt>
<rscale>  2 0.47850565E+03</rscale>
<asrwt>0</asrwt>
<pdfrwt beam="1">  1       21 0.56373246E-01 0.47850565E+03</pdfrwt>
<pdfrwt beam="2">  1       21 0.12267929E+00 0.47850565E+03</pdfrwt>
<totfact> 0.12472835E+03</totfact>
</mgrwt>
</event>
<event>
 4    1  0.4758602E-002  0.4270945E+03  0.7818608E-02  0.1034782E+00
         21   -1    0    0  503  502  0.00000000000E+00  0.00000000000E+00  0.30575014507E+03  0.30575014507E+03  0.00000000000E+00 0. -1.
         21   -1    0    0  501  503 -0.00000000000E+00 -0.00000000000E+00 -0.76689245029E+03  0.76689245029E+03  0.00000000000E+00 0. -1.
    9000007    1    1    2  501    0 -0.14846633003E+03  0.19168339634E+02 -0.48330249070E+03  0.64497362265E+03  0.40000000000E+03 0. -1.
   -9000007    1    1    2    0  502  0.14846633003E+03 -0.19168339634E+02  0.22160185487E+02  0.42766897271E+03  0.40000000000E+03 0. -1.
<mgrwt>
<rscale>  2 0.42709446E+03</rscale>
<asrwt>0</asrwt>
<pdfrwt beam="1">  1       21 0.47038484E-01 0.42709446E+03</pdfrwt>
<pdfrwt beam="2">  1       21 0.11798345E+00 0.42709446E+03</pdfrwt>
<totfact> 0.20698421E+03</totfact>
</mgrwt>
</event>
<event>
 4    1  0.4758602E-002  0.4621944E+03  0.7818608E-02  0.1024147E+00
         21   -1    0    0  503  502  0.00000000000E+00  0.00000000000E+00  0.13878944005E+04  0.13878944005E+04  0.00000000000E+00 0.  1.
         21   -1    0    0  501  503 -0.00000000000E+00 -0.00000000000E+00 -0.48955811582E+03  0.48955811582E+03  0.00000000000E+00 0.  1.
    9000007    1    1    2  501    0 -0.24782286002E+01 -0.23155457953E+03 -0.32810374708E+03  0.56681190334E+03  0.40000000000E+03 0.  1.
   -9000007    1    1    2    0  502  0.24782286002E+01  0.23155457953E+03  0.12264400318E+04  0.13106406130E+04  0.40000000000E+03 0.  1.
<mgrwt>
<rscale>  2 0.46219440E+03</rscale>
<asrwt>0</asrwt>
<pdfrwt beam="1">  1       21 0.21352221E+00 0.46219440E+03</pdfrwt>
<pdfrwt beam="2">  1       21 0.75316634E-01 0.46219440E+03</pdfrwt>
<totfact> 0.13790889E+02</totfact>
</mgrwt>
</event>
<event>
 4    1  0.4758602E-002  0.4732984E+03  0.7818608E-02  0.1020993E+00
         21   -1    0    0  503  502  0.00000000000E+00  0.00000000000E+00  0.39295419523E+03  0.39295419523E+03  0.00000000000E+00 0.  1.
         21   -1    0    0  501  503 -0.00000000000E+00 -0.00000000000E+00 -0.67717433534E+03  0.67717433534E+03  0.00000000000E+00 0.  1.
    9000007    1    1    2  501    0  0.11405843180E+03 -0.22583624483E+03 -0.35490415468E+03  0.59158118154E+03  0.40000000000E+03 0.  1.
   -9000007    1    1    2    0  502 -0.11405843180E+03  0.22583624483E+03  0.70684014565E+02  0.47854734903E+03  0.40000000000E+03 0.  1.
<mgrwt>
<rscale>  2 0.47329836E+03</rscale>
<asrwt>0</asrwt>
<pdfrwt beam="1">  1       21 0.60454492E-01 0.47329836E+03</pdfrwt>
<pdfrwt beam="2">  1       21 0.10418067E+00 0.47329836E+03</pdfrwt>
<totfact> 0.16152718E+03</totfact>
</mgrwt>
</event>
<event>
 4    1  0.4758602E-002  0.4517654E+03  0.7818608E-02  0.1027197E+00
         21   -1    0    0  501  502  0.00000000000E+00  0.00000000000E+00  0.53607979868E+03  0.53607979868E+03  0.00000000000E+00 0. -1.
         21   -1    0    0  502  503 -0.00000000000E+00 -0.00000000000E+00 -0.39296401095E+03  0.39296401095E+03  0.00000000000E+00 0. -1.
    9000007    1    1    2  501    0 -0.66853632578E+02 -0.19905419887E+03 -0.10464887214E+02  0.45188659655E+03  0.40000000000E+03 0. -1.
   -9000007    1    1    2    0  503  0.66853632578E+02  0.19905419887E+03  0.15358067495E+03  0.47715721308E+03  0.40000000000E+03 0. -1.
<mgrwt>
<rscale>  2 0.45176541E+03</rscale>
<asrwt>0</asrwt>
<pdfrwt beam="1">  1       21 0.82473816E-01 0.45176541E+03</pdfrwt>
<pdfrwt beam="2">  1       21 0.60456001E-01 0.45176541E+03</pdfrwt>
<totfact> 0.28443153E+03</totfact>
</mgrwt>
</event>
<event>
 4    1  0.4758602E-002  0.4876143E+03  0.7818608E-02  0.1017063E+00
         21   -1    0    0  501  502  0.00000000000E+00  0.00000000000E+00  0.10868093003E+04  0.10868093003E+04  0.00000000000E+00 0. -1.
         21   -1    0    0  502  503 -0.00000000000E+00 -0.00000000000E+00 -0.30685800739E+03  0.30685800739E+03  0.00000000000E+00 0.  1.
    9000007    1    1    2  501    0 -0.27885162086E+03 -0.30764580464E+01  0.76331538266E+03  0.90576932188E+03  0.40000000000E+03 0.  1.
   -9000007    1    1    2    0  503  0.27885162086E+03  0.30764580464E+01  0.16635910245E+02  0.48789798581E+03  0.40000000000E+03 0.  1.
<mgrwt>
<rscale>  2 0.48761429E+03</rscale>
<asrwt>0</asrwt>
<pdfrwt beam="1">  1       21 0.16720143E+00 0.48761429E+03</pdfrwt>
<pdfrwt beam="2">  1       21 0.47208925E-01 0.48761429E+03</pdfrwt>
<totfact> 0.79039896E+02</totfact>
</mgrwt>
</event>
<event>
 4    1  0.4758602E-002  0.5562817E+03  0.7818608E-02  0.1000050E+00
         21   -1    0    0  501  502  0.00000000000E+00  0.00000000000E+00  0.88647766065E+03  0.88647766065E+03  0.00000000000E+00 0. -1.
         21   -1    0    0  502  503 -0.00000000000E+00 -0.00000000000E+00 -0.50012048604E+03  0.50012048604E+03  0.00000000000E+00 0. -1.
    9000007    1    1    2  501    0  0.29726061562E+03  0.24715470867E+03  0.57418625144E+03  0.79946180331E+03  0.40000000000E+03 0. -1.
   -9000007    1    1    2    0  503 -0.29726061562E+03 -0.24715470867E+03 -0.18782907683E+03  0.58713634338E+03  0.40000000000E+03 0. -1.
<mgrwt>
<rscale>  2 0.55628169E+03</rscale>
<asrwt>0</asrwt>
<pdfrwt beam="1">  1       21 0.13638118E+00 0.55628169E+03</pdfrwt>
<pdfrwt beam="2">  1       21 0.76941613E-01 0.55628169E+03</pdfrwt>
<totfact> 0.45887465E+02</totfact>
</mgrwt>
</event>
<event>
 4    1  0.4758602E-002  0.4079391E+03  0.7818608E-02  0.1041065E+00
         21   -1    0    0  501  502  0.00000000000E+00  0.00000000000E+00  0.15669669888E+03  0.15669669888E+03  0.00000000000E+00 0. -1.
         21   -1    0    0  502  503 -0.00000000000E+00 -0.00000000000E+00 -0.10725650025E+04  0.10725650025E+04  0.00000000000E+00 0. -1.
    9000007    1    1    2  501    0  0.11318276959E+02  0.79285458398E+02 -0.51889110103E+03  0.66004716652E+03  0.40000000000E+03 0.  1.
   -9000007    1    1    2    0  503 -0.11318276959E+02 -0.79285458398E+02 -0.39697720256E+03  0.56921453483E+03  0.40000000000E+03 0.  1.
<mgrwt>
<rscale>  2 0.40793907E+03</rscale>
<asrwt>0</asrwt>
<pdfrwt beam="1">  1       21 0.24107184E-01 0.40793907E+03</pdfrwt>
<pdfrwt beam="2">  1       21 0.16501001E+00 0.40793907E+03</pdfrwt>
<totfact> 0.32914039E+03</totfact>
</mgrwt>
</event>
<event>
 4    1  0.4758602E-002  0.4413645E+03  0.7818608E-02  0.1030329E+00
         21   -1    0    0  503  502  0.00000000000E+00  0.00000000000E+00  0.25339381224E+03  0.25339381224E+03  0.00000000000E+00 0. -1.
         21   -1    0    0  501  503 -0.00000000000E+00 -0.00000000000E+00 -0.77822323975E+03  0.77822323975E+03  0.00000000000E+00 0. -1.
    9000007    1    1    2  501    0  0.18644710969E+03 -0.63350881731E+01 -0.20557821915E+03  0.48689327603E+03  0.40000000000E+03 0. -1.
   -9000007    1    1    2    0  502 -0.18644710969E+03  0.63350881731E+01 -0.31925120837E+03  0.54472377596E+03  0.40000000000E+03 0. -1.
<mgrwt>
<rscale>  2 0.44136454E+03</rscale>
<asrwt>0</asrwt>
<pdfrwt beam="1">  1       21 0.38983664E-01 0.44136454E+03</pdfrwt>
<pdfrwt beam="2">  1       21 0.11972665E+00 0.44136454E+03</pdfrwt>
<totfact> 0.29307004E+03</totfact>
</mgrwt>
</event>
<event>
 4    1  0.4758602E-002  0.6103873E+03  0.7818608E-02  0.9884087E-01
         21   -1    0    0  503  502  0.00000000000E+00  0.00000000000E+00  0.29620717725E+04  0.29620717725E+04  0.00000000000E+00 0.  1.
         21   -1    0    0  501  503 -0.00000000000E+00 -0.00000000000E+00 -0.14364661167E+03  0.14364661167E+03  0.00000000000E+00 0. -1.
    9000007    1    1    2  501    0  0.31620636221E+03 -0.33553860034E+03  0.19568488919E+04  0.20498366280E+04  0.40000000000E+03 0. -1.
   -9000007    1    1    2    0  502 -0.31620636221E+03  0.33553860034E+03  0.86157626895E+03  0.10558817562E+04  0.40000000000E+03 0. -1.
<mgrwt>
<rscale>  2 0.61038727E+03</rscale>
<asrwt>0</asrwt>
<pdfrwt beam="1">  1       21 0.45570330E+00 0.61038727E+03</pdfrwt>
<pdfrwt beam="2">  1       21 0.22099481E-01 0.61038727E+03</pdfrwt>
<totfact> 0.48889592E+01</totfact>
</mgrwt>
</event>
<event>
 4    1  0.4758602E-002  0.4018671E+03  0.7818608E-02  0.1043135E+00
         21   -1    0    0  503  502  0.00000000000E+00  0.00000000000E+00  0.19083027031E+03  0.19083027031E+03  0.00000000000E+00 0.  1.
         21   -1    0    0  501  503 -0.00000000000E+00 -0.00000000000E+00 -0.86469644306E+03  0.86469644306E+03  0.00000000000E+00 0.  1.
    9000007    1    1    2  501    0  0.38692964276E+02  0.10942539285E+00 -0.25992631275E+03  0.47860092511E+03  0.40000000000E+03 0.  1.
   -9000007    1    1    2    0  502 -0.38692964276E+02 -0.10942539285E+00 -0.41393986000E+03  0.57692578826E+03  0.40000000000E+03 0.  1.
<mgrwt>
<rscale>  2 0.40186709E+03</rscale>
<asrwt>0</asrwt>
<pdfrwt beam="1">  1       21 0.29358503E-01 0.40186709E+03</pdfrwt>
<pdfrwt beam="2">  1       21 0.13303022E+00 0.40186709E+03</pdfrwt>
<totfact> 0.40159047E+03</totfact>
</mgrwt>
</event>
<event>
 4    1  0.4758602E-002  0.4069159E+03  0.7818608E-02  0.1041411E+00
         21   -1    0    0  501  502  0.00000000000E+00  0.00000000000E+00  0.78220636032E+03  0.78220636032E+03  0.00000000000E+00 0. -1.
         21   -1    0    0  502  503 -0.00000000000E+00 -0.00000000000E+00 -0.26835852635E+03  0.26835852635E+03  0.00000000000E+00 0. -1.
    9000007    1    1    2  501    0  0.46935084982E+02  0.58117582369E+02  0.49831944057E+03  0.64335279624E+03  0.40000000000E+03 0. -1.
   -9000007    1    1    2    0  503 -0.46935084982E+02 -0.58117582369E+02  0.15528393398E+02  0.40721209042E+03  0.40000000000E+03 0. -1.
<mgrwt>
<rscale>  2 0.40691591E+03</rscale>
<asrwt>0</asrwt>
<pdfrwt beam="1">  1       21 0.12033944E+00 0.40691591E+03</pdfrwt>
<pdfrwt beam="2">  1       21 0.41285927E-01 0.40691591E+03</pdfrwt>
<totfact> 0.26053507E+03</totfact>
</mgrwt>
</event>
<event>
 4    1  0.4758602E-002  0.4797997E+03  0.7818608E-02  0.1019190E+00
         21   -1    0    0  503  502  0.00000000000E+00  0.00000000000E+00  0.74482646617E+03  0.74482646617E+03  0.00000000000E+00 0.  1.
         21   -1    0    0  501  503 -0.00000000000E+00 -0.00000000000E+00 -0.31583688955E+03  0.31583688955E+03  0.00000000000E+00 0.  1.
    9000007    1    1    2  501    0 -0.14506453058E+03 -0.22172962339E+03  0.29208884401E+03  0.56171490697E+03  0.40000000000E+03 0.  1.
   -9000007    1    1    2    0  502  0.14506453058E+03  0.22172962339E+03  0.13690073261E+03  0.49894844875E+03  0.40000000000E+03 0.  1.
<mgrwt>
<rscale>  2 0.47979969E+03</rscale>
<asrwt>0</asrwt>
<pdfrwt beam="1">  1       21 0.11458869E+00 0.47979969E+03</pdfrwt>
<pdfrwt beam="2">  1       21 0.48590291E-01 0.47979969E+03</pdfrwt>
<totfact> 0.20382539E+03</totfact>
</mgrwt>
</event>
<event>
 4    1  0.4758602E-002  0.4578122E+03  0.7818608E-02  0.1025418E+00
         21   -1    0    0  501  502  0.00000000000E+00  0.00000000000E+00  0.80822392881E+03  0.80822392881E+03  0.00000000000E+00 0.  1.
         21   -1    0    0  502  503 -0.00000000000E+00 -0.00000000000E+00 -0.54859412106E+03  0.54859412106E+03  0.00000000000E+00 0.  1.
    9000007    1    1    2  501    0  0.22212467902E+03  0.15895621644E+02  0.62244128112E+03  0.77267405305E+03  0.40000000000E+03 0.  1.
   -9000007    1    1    2    0  503 -0.22212467902E+03 -0.15895621644E+02 -0.36281147337E+03  0.58414399682E+03  0.40000000000E+03 0.  1.
<mgrwt>
<rscale>  2 0.45781224E+03</rscale>
<asrwt>0</asrwt>
<pdfrwt beam="1">  1       21 0.12434214E+00 0.45781224E+03</pdfrwt>
<pdfrwt beam="2">  1       21 0.84399095E-01 0.45781224E+03</pdfrwt>
<totfact> 0.49015661E+02</totfact>
</mgrwt>
</event>
<event>
 4    1  0.4758602E-002  0.4455908E+03  0.7818608E-02  0.1029045E+00
         21   -1    0    0  501  502  0.00000000000E+00  0.00000000000E+00  0.30981578198E+03  0.30981578198E+03  0.00000000000E+00 0. -1.
         21   -1    0    0  502  503 -0.00000000000E+00 -0.00000000000E+00 -0.15083744064E+04  0.15083744064E+04  0.00000000000E+00 0. -1.
    9000007    1    1    2  501    0  0.53622755656E+02  0.18888019559E+03  0.90151985787E+02  0.45461908094E+03  0.40000000000E+03 0. -1.
   -9000007    1    1    2    0  503 -0.53622755656E+02 -0.18888019559E+03 -0.12887106102E+04  0.13635711074E+04  0.40000000000E+03 0. -1.
<mgrwt>
<rscale>  2 0.44559076E+03</rscale>
<asrwt>0</asrwt>
<pdfrwt beam="1">  1       21 0.47663966E-01 0.44559076E+03</pdfrwt>
<pdfrwt beam="2">  1       21 0.23205760E+00 0.44559076E+03</pdfrwt>
<totfact> 0.28927369E+02</totfact>
</mgrwt>
</event>
<event>
 4    1  0.4758602E-002  0.4251957E+03  0.7818608E-02  0.1035388E+00
         21   -1    0    0  503  502  0.00000000000E+00  0.00000000000E+00  0.10357875407E+03  0.10357875407E+03  0.00000000000E+00 0. -1.
         21   -1    0    0  501  503 -0.00000000000E+00 -0.00000000000E+00 -0.17975042880E+04  0.17975042880E+04  0.00000000000E+00 0. -1.
    9000007    1    1    2  501    0  0.83163274823E+02  0.11779328840E+03 -0.68520307582E+03  0.80640848469E+03  0.40000000000E+03 0. -1.
   -9000007    1    1    2    0  502 -0.83163274823E+02 -0.11779328840E+03 -0.10087224581E+04  0.10946745574E+04  0.40000000000E+03 0. -1.
<mgrwt>
<rscale>  2 0.42519571E+03</rscale>
<asrwt>0</asrwt>
<pdfrwt beam="1">  1       21 0.15935193E-01 0.42519571E+03</pdfrwt>
<pdfrwt beam="2">  1       21 0.27653912E+00 0.42519571E+03</pdfrwt>
<totfact> 0.13569174E+03</totfact>
</mgrwt>
</event>
<event>
 4    1  0.4758602E-002  0.6098712E+03  0.7818608E-02  0.9885135E-01
         21   -1    0    0  503  502  0.00000000000E+00  0.00000000000E+00  0.89507705103E+03  0.89507705103E+03  0.00000000000E+00 0.  1.
         21   -1    0    0  501  503 -0.00000000000E+00 -0.00000000000E+00 -0.79042091691E+03  0.79042091691E+03  0.00000000000E+00 0.  1.
    9000007    1    1    2  501    0 -0.14838410191E+03  0.43580393022E+03 -0.52805404196E+03  0.80671183116E+03  0.40000000000E+03 0.  1.
   -9000007    1    1    2    0  502  0.14838410191E+03 -0.43580393022E+03  0.63271017608E+03  0.87878613679E+03  0.40000000000E+03 0.  1.
<mgrwt>
<rscale>  2 0.60987122E+03</rscale>
<asrwt>0</asrwt>
<pdfrwt beam="1">  1       21 0.13770416E+00 0.60987122E+03</pdfrwt>
<pdfrwt beam="2">  1       21 0.12160322E+00 0.60987122E+03</pdfrwt>
<totfact> 0.14425697E+02</totfact>
</mgrwt>
</event>
<event>
 4    1  0.4758602E-002  0.4526740E+03  0.7818608E-02  0.1026928E+00
         21   -1    0    0  503  502  0.00000000000E+00  0.00000000000E+00  0.65216262159E+03  0.65216262159E+03  0.00000000000E+00 0. -1.
         21   -1    0    0  501  503 -0.00000000000E+00 -0.00000000000E+00 -0.31793617277E+03  0.31793617277E+03  0.00000000000E+00 0. -1.
    9000007    1    1    2  501    0 -0.16803508294E+03  0.12914335459E+03  0.11457855870E+03  0.46694972026E+03  0.40000000000E+03 0. -1.
   -9000007    1    1    2    0  502  0.16803508294E+03 -0.12914335459E+03  0.21964789012E+03  0.50314907410E+03  0.40000000000E+03 0. -1.
<mgrwt>
<rscale>  2 0.45267405E+03</rscale>
<asrwt>0</asrwt>
<pdfrwt beam="1">  1       21 0.10033271E+00 0.45267405E+03</pdfrwt>
<pdfrwt beam="2">  1       21 0.48913257E-01 0.45267405E+03</pdfrwt>
<totfact> 0.28186111E+03</totfact>
</mgrwt>
</event>
<event>
 4    1  0.4758602E-002  0.4292046E+03  0.7818608E-02  0.1034112E+00
         21   -1    0    0  503  502  0.00000000000E+00  0.00000000000E+00  0.10730573623E+04  0.10730573623E+04  0.00000000000E+00 0. -1.
         21   -1    0    0  501  503 -0.00000000000E+00 -0.00000000000E+00 -0.18253295571E+03  0.18253295571E+03  0.00000000000E+00 0. -1.
    9000007    1    1    2  501    0 -0.13390931273E+03  0.79277394498E+02  0.59838185056E+03  0.73639489976E+03  0.40000000000E+03 0. -1.
   -9000007    1    1    2    0  502  0.13390931273E+03 -0.79277394498E+02  0.29214255607E+03  0.51919541830E+03  0.40000000000E+03 0. -1.
<mgrwt>
<rscale>  2 0.42920462E+03</rscale>
<asrwt>0</asrwt>
<pdfrwt beam="1">  1       21 0.16508574E+00 0.42920462E+03</pdfrwt>
<pdfrwt beam="2">  1       21 0.28081994E-01 0.42920462E+03</pdfrwt>
<totfact> 0.24189376E+03</totfact>
</mgrwt>
</event>
<event>
 4    1  0.4758602E-002  0.4161461E+03  0.7818608E-02  0.1038328E+00
         21   -1    0    0  503  502  0.00000000000E+00  0.00000000000E+00  0.57336428309E+03  0.57336428309E+03  0.00000000000E+00 0. -1.
         21   -1    0    0  501  503 -0.00000000000E+00 -0.00000000000E+00 -0.55545000861E+03  0.55545000861E+03  0.00000000000E+00 0.  1.
    9000007    1    1    2  501    0  0.44081806544E+02  0.10599228802E+03 -0.37227012908E+03  0.55835707195E+03  0.40000000000E+03 0.  1.
   -9000007    1    1    2    0  502 -0.44081806544E+02 -0.10599228802E+03  0.39018440356E+03  0.57045721975E+03  0.40000000000E+03 0. -1.
<mgrwt>
<rscale>  2 0.41614609E+03</rscale>
<asrwt>0</asrwt>
<pdfrwt beam="1">  1       21 0.88209890E-01 0.41614609E+03</pdfrwt>
<pdfrwt beam="2">  1       21 0.85453848E-01 0.41614609E+03</pdfrwt>
<totfact> 0.11263985E+03</totfact>
</mgrwt>
</event>
<event>
 4    1  0.4758602E-002  0.4081494E+03  0.7818608E-02  0.1040994E+00
         21   -1    0    0  503  502  0.00000000000E+00  0.00000000000E+00  0.50493939908E+03  0.50493939908E+03  0.00000000000E+00 0. -1.
         21   -1    0    0  501  503 -0.00000000000E+00 -0.00000000000E+00 -0.72220351852E+03  0.72220351852E+03  0.00000000000E+00 0. -1.
    9000007    1    1    2  501    0  0.36882137736E+02  0.72288772609E+02 -0.56084124500E+03  0.69363452973E+03  0.40000000000E+03 0. -1.
   -9000007    1    1    2    0  502 -0.36882137736E+02 -0.72288772609E+02  0.34357712557E+03  0.53350838788E+03  0.40000000000E+03 0. -1.
<mgrwt>
<rscale>  2 0.40814943E+03</rscale>
<asrwt>0</asrwt>
<pdfrwt beam="1">  1       21 0.77682984E-01 0.40814943E+03</pdfrwt>
<pdfrwt beam="2">  1       21 0.11110823E+00 0.40814943E+03</pdfrwt>
<totfact> 0.80674999E+02</totfact>
</mgrwt>
</event>
<event>
 4    1  0.4758602E-002  0.5685929E+03  0.7818608E-02  0.9972797E-01
         21   -1    0    0  501  502  0.00000000000E+00  0.00000000000E+00  0.17137674046E+04  0.17137674046E+04  0.00000000000E+00 0.  1.
         21   -1    0    0  502  503 -0.00000000000E+00 -0.00000000000E+00 -0.20290941604E+03  0.20290941604E+03  0.00000000000E+00 0. -1.
    9000007    1    1    2  501    0  0.23403018905E+03  0.32943557544E+03  0.10095009962E+04  0.11586156348E+04  0.40000000000E+03 0.  1.
   -9000007    1    1    2    0  503 -0.23403018905E+03 -0.32943557544E+03  0.50135699232E+03  0.75806118585E+03  0.40000000000E+03 0. -1.
<mgrwt>
<rscale>  2 0.56859294E+03</rscale>
<asrwt>0</asrwt>
<pdfrwt beam="1">  1       21 0.26365651E+00 0.56859294E+03</pdfrwt>
<pdfrwt beam="2">  1       21 0.31216834E-01 0.56859294E+03</pdfrwt>
<totfact> 0.41478391E+02</totfact>
</mgrwt>
</event>
<event>
 4    1  0.4758602E-002  0.5592288E+03  0.7818608E-02  0.9993801E-01
         21   -1    0    0  501  502  0.00000000000E+00  0.00000000000E+00  0.10064594427E+04  0.10064594427E+04  0.00000000000E+00 0.  1.
         21   -1    0    0  502  503 -0.00000000000E+00 -0.00000000000E+00 -0.51356464759E+03  0.51356464759E+03  0.00000000000E+00 0.  1.
    9000007    1    1    2  501    0 -0.34652528271E+03  0.18071255333E+03  0.72408042743E+03  0.91489303412E+03  0.40000000000E+03 0.  1.
   -9000007    1    1    2    0  503  0.34652528271E+03 -0.18071255333E+03 -0.23118563237E+03  0.60513105613E+03  0.40000000000E+03 0.  1.
<mgrwt>
<rscale>  2 0.55922875E+03</rscale>
<asrwt>0</asrwt>
<pdfrwt beam="1">  1       21 0.15483991E+00 0.55922875E+03</pdfrwt>
<pdfrwt beam="2">  1       21 0.79009946E-01 0.55922875E+03</pdfrwt>
<totfact> 0.30565293E+02</totfact>
</mgrwt>
</event>
<event>
 4    1  0.4758602E-002  0.4783905E+03  0.7818608E-02  0.1019578E+00
         21   -1    0    0  501  502  0.00000000000E+00  0.00000000000E+00  0.18021846576E+04  0.18021846576E+04  0.00000000000E+00 0.  1.
         21   -1    0    0  502  503 -0.00000000000E+00 -0.00000000000E+00 -0.19398927232E+03  0.19398927232E+03  0.00000000000E+00 0.  1.
    9000007    1    1    2  501    0 -0.21278847349E+03 -0.15355292658E+03  0.13906654078E+04  0.14706487385E+04  0.40000000000E+03 0.  1.
   -9000007    1    1    2    0  503  0.21278847349E+03  0.15355292658E+03  0.21752997754E+03  0.52552519144E+03  0.40000000000E+03 0.  1.
<mgrwt>
<rscale>  2 0.47839046E+03</rscale>
<asrwt>0</asrwt>
<pdfrwt beam="1">  1       21 0.27725917E+00 0.47839046E+03</pdfrwt>
<pdfrwt beam="2">  1       21 0.29844505E-01 0.47839046E+03</pdfrwt>
<totfact> 0.39117864E+02</totfact>
</mgrwt>
</event>
<event>
 4    1  0.4758602E-002  0.5154671E+03  0.7818608E-02  0.1009819E+00
         21   -1    0    0  501  502  0.00000000000E+00  0.00000000000E+00  0.66890354183E+03  0.66890354183E+03  0.00000000000E+00 0.  1.
         21   -1    0    0  502  503 -0.00000000000E+00 -0.00000000000E+00 -0.39815489922E+03  0.39815489922E+03  0.00000000000E+00 0.  1.
    9000007    1    1    2  501    0  0.32482856326E+03 -0.13881300452E+02  0.16113598729E+03  0.54006582229E+03  0.40000000000E+03 0.  1.
   -9000007    1    1    2    0  503 -0.32482856326E+03  0.13881300452E+02  0.10961265532E+03  0.52699261875E+03  0.40000000000E+03 0.  1.
<mgrwt>
<rscale>  2 0.51546706E+03</rscale>
<asrwt>0</asrwt>
<pdfrwt beam="1">  1       21 0.10290824E+00 0.51546706E+03</pdfrwt>
<pdfrwt beam="2">  1       21 0.61254600E-01 0.51546706E+03</pdfrwt>
<totfact> 0.15935236E+03</totfact>
</mgrwt>
</event>
<event>
 4    1  0.4758602E-002  0.4288869E+03  0.7818608E-02  0.1034212E+00
         21   -1    0    0  503  502  0.00000000000E+00  0.00000000000E+00  0.22883141458E+03  0.22883141458E+03  0.00000000000E+00 0.  1.
         21   -1    0    0  501  503 -0.00000000000E+00 -0.00000000000E+00 -0.82477383172E+03  0.82477383172E+03  0.00000000000E+00 0.  1.
    9000007    1    1    2  501    0  0.15441850748E+03  0.99465268424E+01 -0.21404503996E+03  0.47933212701E+03  0.40000000000E+03 0.  1.
   -9000007    1    1    2    0  502 -0.15441850748E+03 -0.99465268424E+01 -0.38189737718E+03  0.57427311929E+03  0.40000000000E+03 0.  1.
<mgrwt>
<rscale>  2 0.42888694E+03</rscale>
<asrwt>0</asrwt>
<pdfrwt beam="1">  1       21 0.35204833E-01 0.42888694E+03</pdfrwt>
<pdfrwt beam="2">  1       21 0.12688828E+00 0.42888694E+03</pdfrwt>
<totfact> 0.31231312E+03</totfact>
</mgrwt>
</event>
<event>
 4    1  0.4758602E-002  0.6555024E+03  0.7818608E-02  0.9796509E-01
         21   -1    0    0  503  502  0.00000000000E+00  0.00000000000E+00  0.45534612913E+03  0.45534612913E+03  0.00000000000E+00 0. -1.
         21   -1    0    0  501  503 -0.00000000000E+00 -0.00000000000E+00 -0.10064034890E+04  0.10064034890E+04  0.00000000000E+00 0. -1.
    9000007    1    1    2  501    0  0.40109190281E+03  0.32986157457E+03 -0.45804692078E+03  0.79968140813E+03  0.40000000000E+03 0. -1.
   -9000007    1    1    2    0  502 -0.40109190281E+03 -0.32986157457E+03 -0.93010439052E+02  0.66206820997E+03  0.40000000000E+03 0. -1.
<mgrwt>
<rscale>  2 0.65550238E+03</rscale>
<asrwt>0</asrwt>
<pdfrwt beam="1">  1       21 0.70053251E-01 0.65550238E+03</pdfrwt>
<pdfrwt beam="2">  1       21 0.15483130E+00 0.65550238E+03</pdfrwt>
<totfact> 0.38950955E+02</totfact>
</mgrwt>
</event>
<event>
 4    1  0.4758602E-002  0.4362072E+03  0.7818608E-02  0.1031917E+00
         21   -1    0    0  503  502  0.00000000000E+00  0.00000000000E+00  0.37442449344E+03  0.37442449344E+03  0.00000000000E+00 0.  1.
         21   -1    0    0  501  503 -0.00000000000E+00 -0.00000000000E+00 -0.61229991047E+03  0.61229991047E+03  0.00000000000E+00 0.  1.
    9000007    1    1    2  501    0  0.15863369262E+03 -0.71498878823E+02 -0.32237998411E+03  0.54240721996E+03  0.40000000000E+03 0. -1.
   -9000007    1    1    2    0  502 -0.15863369262E+03  0.71498878823E+02  0.84504567075E+02  0.44431718396E+03  0.40000000000E+03 0. -1.
<mgrwt>
<rscale>  2 0.43620722E+03</rscale>
<asrwt>0</asrwt>
<pdfrwt beam="1">  1       21 0.57603769E-01 0.43620722E+03</pdfrwt>
<pdfrwt beam="2">  1       21 0.94199986E-01 0.43620722E+03</pdfrwt>
<totfact> 0.23239239E+03</totfact>
</mgrwt>
</event>
<event>
 4    1  0.4758602E-002  0.5979742E+03  0.7818608E-02  0.9909618E-01
         21   -1    0    0  503  502  0.00000000000E+00  0.00000000000E+00  0.11935632938E+04  0.11935632938E+04  0.00000000000E+00 0. -1.
         21   -1    0    0  501  503 -0.00000000000E+00 -0.00000000000E+00 -0.29961421768E+03  0.29961421768E+03  0.00000000000E+00 0.  1.
    9000007    1    1    2  501    0 -0.40439444430E+03  0.18449452454E+03  0.45440647492E+03  0.75103817520E+03  0.40000000000E+03 0.  1.
   -9000007    1    1    2    0  502  0.40439444430E+03 -0.18449452454E+03  0.43954260118E+03  0.74213933625E+03  0.40000000000E+03 0.  1.
<mgrwt>
<rscale>  2 0.59797416E+03</rscale>
<asrwt>0</asrwt>
<pdfrwt beam="1">  1       21 0.18362512E+00 0.59797416E+03</pdfrwt>
<pdfrwt beam="2">  1       21 0.46094496E-01 0.59797416E+03</pdfrwt>
<totfact> 0.60727283E+02</totfact>
</mgrwt>
</event>
<event>
 4    1  0.4758602E-002  0.4062577E+03  0.7818608E-02  0.1041634E+00
         21   -1    0    0  503  502  0.00000000000E+00  0.00000000000E+00  0.94318943353E+03  0.94318943353E+03  0.00000000000E+00 0. -1.
         21   -1    0    0  501  503 -0.00000000000E+00 -0.00000000000E+00 -0.18052479507E+03  0.18052479507E+03  0.00000000000E+00 0. -1.
    9000007    1    1    2  501    0  0.34895432447E+02 -0.61868113807E+02  0.47974433379E+03  0.62864933032E+03  0.40000000000E+03 0. -1.
   -9000007    1    1    2    0  502 -0.34895432447E+02  0.61868113807E+02  0.28292030467E+03  0.49506489828E+03  0.40000000000E+03 0. -1.
<mgrwt>
<rscale>  2 0.40625774E+03</rscale>
<asrwt>0</asrwt>
<pdfrwt beam="1">  1       21 0.14510606E+00 0.40625774E+03</pdfrwt>
<pdfrwt beam="2">  1       21 0.27773046E-01 0.40625774E+03</pdfrwt>
<totfact> 0.35549598E+03</totfact>
</mgrwt>
</event>
<event>
 4    1  0.4758602E-002  0.4261251E+03  0.7818608E-02  0.1035091E+00
         21   -1    0    0  501  502  0.00000000000E+00  0.00000000000E+00  0.20547124980E+04  0.20547124980E+04  0.00000000000E+00 0.  1.
         21   -1    0    0  502  503 -0.00000000000E+00 -0.00000000000E+00 -0.12007961296E+03  0.12007961296E+03  0.00000000000E+00 0.  1.
    9000007    1    1    2  501    0 -0.45634106677E+02  0.13964276970E+03  0.15260736634E+04  0.15844505044E+04  0.40000000000E+03 0.  1.
   -9000007    1    1    2    0  503  0.45634106677E+02 -0.13964276970E+03  0.40855922159E+03  0.59034160650E+03  0.40000000000E+03 0.  1.
<mgrwt>
<rscale>  2 0.42612507E+03</rscale>
<asrwt>0</asrwt>
<pdfrwt beam="1">  1       21 0.31610959E+00 0.42612507E+03</pdfrwt>
<pdfrwt beam="2">  1       21 0.18473788E-01 0.42612507E+03</pdfrwt>
<totfact> 0.59492167E+02</totfact>
</mgrwt>
</event>
<event>
 4    1  0.4758602E-002  0.4622856E+03  0.7818608E-02  0.1024120E+00
         21   -1    0    0  501  502  0.00000000000E+00  0.00000000000E+00  0.42467902124E+03  0.42467902124E+03  0.00000000000E+00 0.  1.
         21   -1    0    0  502  503 -0.00000000000E+00 -0.00000000000E+00 -0.77552485195E+03  0.77552485195E+03  0.00000000000E+00 0. -1.
    9000007    1    1    2  501    0 -0.21765902316E+03  0.79577143324E+02  0.18016991013E+03  0.49615437982E+03  0.40000000000E+03 0.  1.
   -9000007    1    1    2    0  503  0.21765902316E+03 -0.79577143324E+02 -0.53101574084E+03  0.70404949337E+03  0.40000000000E+03 0. -1.
<mgrwt>
<rscale>  2 0.46228560E+03</rscale>
<asrwt>0</asrwt>
<pdfrwt beam="1">  1       21 0.65335234E-01 0.46228560E+03</pdfrwt>
<pdfrwt beam="2">  1       21 0.11931152E+00 0.46228560E+03</pdfrwt>
<totfact> 0.97454316E+02</totfact>
</mgrwt>
</event>
<event>
 4    1  0.4758602E-002  0.4545268E+03  0.7818608E-02  0.1026381E+00
         21   -1    0    0  503  502  0.00000000000E+00  0.00000000000E+00  0.74068488574E+03  0.74068488574E+03  0.00000000000E+00 0. -1.
         21   -1    0    0  501  503 -0.00000000000E+00 -0.00000000000E+00 -0.27956041179E+03  0.27956041179E+03  0.00000000000E+00 0. -1.
    9000007    1    1    2  501    0  0.63199420657E+01 -0.21576531251E+03  0.20621843148E+03  0.49911987862E+03  0.40000000000E+03 0. -1.
   -9000007    1    1    2    0  502 -0.63199420657E+01  0.21576531251E+03  0.25490604247E+03  0.52112541891E+03  0.40000000000E+03 0. -1.
<mgrwt>
<rscale>  2 0.45452680E+03</rscale>
<asrwt>0</asrwt>
<pdfrwt beam="1">  1       21 0.11395152E+00 0.45452680E+03</pdfrwt>
<pdfrwt beam="2">  1       21 0.43009294E-01 0.45452680E+03</pdfrwt>
<totfact> 0.26953954E+03</totfact>
</mgrwt>
</event>
<event>
 4    1  0.4758602E-002  0.5644026E+03  0.7818608E-02  0.9982142E-01
         21   -1    0    0  501  502  0.00000000000E+00  0.00000000000E+00  0.94334190717E+03  0.94334190717E+03  0.00000000000E+00 0. -1.
         21   -1    0    0  502  503 -0.00000000000E+00 -0.00000000000E+00 -0.49795668901E+03  0.49795668901E+03  0.00000000000E+00 0. -1.
    9000007    1    1    2  501    0  0.14192595294E+03 -0.37203128314E+03  0.63153855157E+03  0.84698948865E+03  0.40000000000E+03 0. -1.
   -9000007    1    1    2    0  503 -0.14192595294E+03  0.37203128314E+03 -0.18615333341E+03  0.59430910753E+03  0.40000000000E+03 0. -1.
<mgrwt>
<rscale>  2 0.56440256E+03</rscale>
<asrwt>0</asrwt>
<pdfrwt beam="1">  1       21 0.14512952E+00 0.56440256E+03</pdfrwt>
<pdfrwt beam="2">  1       21 0.76608722E-01 0.56440256E+03</pdfrwt>
<totfact> 0.39106919E+02</totfact>
</mgrwt>
</event>
<event>
 4    1  0.4758602E-002  0.4452969E+03  0.7818608E-02  0.1029134E+00
         21   -1    0    0  501  502  0.00000000000E+00  0.00000000000E+00  0.29302375546E+03  0.29302375546E+03  0.00000000000E+00 0.  1.
         21   -1    0    0  502  503 -0.00000000000E+00 -0.00000000000E+00 -0.12600904368E+04  0.12600904368E+04  0.00000000000E+00 0.  1.
    9000007    1    1    2  501    0  0.11191641204E+03 -0.16051170104E+03  0.44853560336E+02  0.44755014393E+03  0.40000000000E+03 0.  1.
   -9000007    1    1    2    0  503 -0.11191641204E+03  0.16051170104E+03 -0.10119202417E+04  0.11055640484E+04  0.40000000000E+03 0.  1.
<mgrwt>
<rscale>  2 0.44529686E+03</rscale>
<asrwt>0</asrwt>
<pdfrwt beam="1">  1       21 0.45080578E-01 0.44529686E+03</pdfrwt>
<pdfrwt beam="2">  1       21 0.19386007E+00 0.44529686E+03</pdfrwt>
<totfact> 0.57580061E+02</totfact>
</mgrwt>
</event>
<event>
 4    1  0.4758602E-002  0.4023465E+03  0.7818608E-02  0.1042970E+00
         21   -1    0    0  503  502  0.00000000000E+00  0.00000000000E+00  0.61207386309E+02  0.61207386309E+02  0.00000000000E+00 0. -1.
         21   -1    0    0  501  503 -0.00000000000E+00 -0.00000000000E+00 -0.30717469620E+04  0.30717469620E+04  0.00000000000E+00 0. -1.
    9000007    1    1    2  501    0 -0.30284003028E+02 -0.31073780359E+02 -0.20892614383E+04  0.21276503609E+04  0.40000000000E+03 0. -1.
   -9000007    1    1    2    0  502  0.30284003028E+02  0.31073780359E+02 -0.92127813739E+03  0.10053039874E+04  0.40000000000E+03 0. -1.
<mgrwt>
<rscale>  2 0.40234649E+03</rscale>
<asrwt>0</asrwt>
<pdfrwt beam="1">  1       21 0.94165211E-02 0.40234649E+03</pdfrwt>
<pdfrwt beam="2">  1       21 0.47257645E+00 0.40234649E+03</pdfrwt>
<totfact> 0.20776120E+02</totfact>
</mgrwt>
</event>
<event>
 4    1  0.4758602E-002  0.4121778E+03  0.7818608E-02  0.1039643E+00
         21   -1    0    0  503  502  0.00000000000E+00  0.00000000000E+00  0.11934584506E+03  0.11934584506E+03  0.00000000000E+00 0.  1.
         21   -1    0    0  501  503 -0.00000000000E+00 -0.00000000000E+00 -0.26400406518E+04  0.26400406518E+04  0.00000000000E+00 0. -1.
    9000007    1    1    2  501    0  0.93559756139E+02 -0.33720524072E+02 -0.21969126006E+04  0.22352439412E+04  0.40000000000E+03 0. -1.
   -9000007    1    1    2    0  502 -0.93559756139E+02  0.33720524072E+02 -0.32378220613E+03  0.52414255572E+03  0.40000000000E+03 0.  1.
<mgrwt>
<rscale>  2 0.41217775E+03</rscale>
<asrwt>0</asrwt>
<pdfrwt beam="1">  1       21 0.18360899E-01 0.41217775E+03</pdfrwt>
<pdfrwt beam="2">  1       21 0.40616011E+00 0.41217775E+03</pdfrwt>
<totfact> 0.16830902E+02</totfact>
</mgrwt>
</event>
<event>
 4    1  0.4758602E-002  0.5456612E+03  0.7818608E-02  0.1002503E+00
         21   -1    0    0  503  502  0.00000000000E+00  0.00000000000E+00  0.27726754542E+03  0.27726754542E+03  0.00000000000E+00 0.  1.
         21   -1    0    0  501  503 -0.00000000000E+00 -0.00000000000E+00 -0.10973413248E+04  0.10973413248E+04  0.00000000000E+00 0. -1.
    9000007    1    1    2  501    0  0.20653429986E+03  0.30836615159E+03 -0.51058033898E+03  0.74728734970E+03  0.40000000000E+03 0.  1.
   -9000007    1    1    2    0  502 -0.20653429986E+03 -0.30836615159E+03 -0.30949344040E+03  0.62732152052E+03  0.40000000000E+03 0. -1.
<mgrwt>
<rscale>  2 0.54566116E+03</rscale>
<asrwt>0</asrwt>
<pdfrwt beam="1">  1       21 0.42656545E-01 0.54566116E+03</pdfrwt>
<pdfrwt beam="2">  1       21 0.16882174E+00 0.54566116E+03</pdfrwt>
<totfact> 0.93060079E+02</totfact>
</mgrwt>
</event>
<event>
 4    1  0.4758602E-002  0.6211691E+03  0.7818608E-02  0.9862435E-01
         21   -1    0    0  501  502  0.00000000000E+00  0.00000000000E+00  0.52293132991E+03  0.52293132991E+03  0.00000000000E+00 0.  1.
         21   -1    0    0  502  503 -0.00000000000E+00 -0.00000000000E+00 -0.73855501523E+03  0.73855501523E+03  0.00000000000E+00 0.  1.
    9000007    1    1    2  501    0 -0.24405250072E+03  0.40778602330E+03 -0.88488232411E+02  0.62744022120E+03  0.40000000000E+03 0.  1.
   -9000007    1    1    2    0  503  0.24405250072E+03 -0.40778602330E+03 -0.12713545290E+03  0.63404612395E+03  0.40000000000E+03 0.  1.
<mgrwt>
<rscale>  2 0.62116911E+03</rscale>
<asrwt>0</asrwt>
<pdfrwt beam="1">  1       21 0.80450974E-01 0.62116911E+03</pdfrwt>
<pdfrwt beam="2">  1       21 0.11362385E+00 0.62116911E+03</pdfrwt>
<totfact> 0.64895857E+02</totfact>
</mgrwt>
</event>
<event>
 4    1  0.4758602E-002  0.7235797E+03  0.7818608E-02  0.9677736E-01
         21   -1    0    0  503  502  0.00000000000E+00  0.00000000000E+00  0.18117079999E+04  0.18117079999E+04  0.00000000000E+00 0. -1.
         21   -1    0    0  501  503 -0.00000000000E+00 -0.00000000000E+00 -0.53508908748E+03  0.53508908748E+03  0.00000000000E+00 0.  1.
    9000007    1    1    2  501    0  0.59693403950E+03  0.85072451064E+02 -0.15745857699E+03  0.74051385734E+03  0.40000000000E+03 0.  1.
   -9000007    1    1    2    0  502 -0.59693403950E+03 -0.85072451064E+02  0.14340774894E+04  0.16062832300E+04  0.40000000000E+03 0. -1.
<mgrwt>
<rscale>  2 0.72357969E+03</rscale>
<asrwt>0</asrwt>
<pdfrwt beam="1">  1       21 0.27872430E+00 0.72357969E+03</pdfrwt>
<pdfrwt beam="2">  1       21 0.82321399E-01 0.72357969E+03</pdfrwt>
<totfact> 0.38790850E+01</totfact>
</mgrwt>
</event>
<event>
 4    1  0.4758602E-002  0.5596576E+03  0.7818608E-02  0.9992830E-01
         21   -1    0    0  501  502  0.00000000000E+00  0.00000000000E+00  0.55740746653E+03  0.55740746653E+03  0.00000000000E+00 0.  1.
         21   -1    0    0  502  503 -0.00000000000E+00 -0.00000000000E+00 -0.68468384269E+03  0.68468384269E+03  0.00000000000E+00 0.  1.
    9000007    1    1    2  501    0 -0.31990974512E+03 -0.22555338763E+03  0.19933987668E+03  0.59409844481E+03  0.40000000000E+03 0.  1.
   -9000007    1    1    2    0  503  0.31990974512E+03  0.22555338763E+03 -0.32661625284E+03  0.64799286440E+03  0.40000000000E+03 0.  1.
<mgrwt>
<rscale>  2 0.55965755E+03</rscale>
<asrwt>0</asrwt>
<pdfrwt beam="1">  1       21 0.85754994E-01 0.55965755E+03</pdfrwt>
<pdfrwt beam="2">  1       21 0.10533598E+00 0.55965755E+03</pdfrwt>
<totfact> 0.68874127E+02</totfact>
</mgrwt>
</event>
<event>
 4    1  0.4758602E-002  0.4334123E+03  0.7818608E-02  0.1032787E+00
         21   -1    0    0  503  502  0.00000000000E+00  0.00000000000E+00  0.30944180414E+03  0.30944180414E+03  0.00000000000E+00 0.  1.
         21   -1    0    0  501  503 -0.00000000000E+00 -0.00000000000E+00 -0.83538457999E+03  0.83538457999E+03  0.00000000000E+00 0.  1.
    9000007    1    1    2  501    0 -0.10141411336E+03  0.13251950688E+03 -0.56223471219E+03  0.70989725572E+03  0.40000000000E+03 0.  1.
   -9000007    1    1    2    0  502  0.10141411336E+03 -0.13251950688E+03  0.36291936341E+02  0.43492912841E+03  0.40000000000E+03 0.  1.
<mgrwt>
<rscale>  2 0.43341232E+03</rscale>
<asrwt>0</asrwt>
<pdfrwt beam="1">  1       21 0.47606432E-01 0.43341232E+03</pdfrwt>
<pdfrwt beam="2">  1       21 0.12852070E+00 0.43341232E+03</pdfrwt>
<totfact> 0.16172753E+03</totfact>
</mgrwt>
</event>
<event>
 4    1  0.4758602E-002  0.4567578E+03  0.7818608E-02  0.1025726E+00
         21   -1    0    0  503  502  0.00000000000E+00  0.00000000000E+00  0.28142612098E+03  0.28142612098E+03  0.00000000000E+00 0. -1.
         21   -1    0    0  501  503 -0.00000000000E+00 -0.00000000000E+00 -0.12080238649E+04  0.12080238649E+04  0.00000000000E+00 0.  1.
    9000007    1    1    2  501    0 -0.17643759342E+03 -0.13227808247E+03 -0.92618842254E+03  0.10326919722E+04  0.40000000000E+03 0.  1.
   -9000007    1    1    2    0  502  0.17643759342E+03  0.13227808247E+03 -0.40932136630E+00  0.45675801363E+03  0.40000000000E+03 0. -1.
<mgrwt>
<rscale>  2 0.45675783E+03</rscale>
<asrwt>0</asrwt>
<pdfrwt beam="1">  1       21 0.43296326E-01 0.45675783E+03</pdfrwt>
<pdfrwt beam="2">  1       21 0.18584983E+00 0.45675783E+03</pdfrwt>
<totfact> 0.70694390E+02</totfact>
</mgrwt>
</event>
<event>
 4    1  0.4758602E-002  0.4040968E+03  0.7818608E-02  0.1042370E+00
         21   -1    0    0  501  502  0.00000000000E+00  0.00000000000E+00  0.40890509098E+03  0.40890509098E+03  0.00000000000E+00 0.  1.
         21   -1    0    0  502  503 -0.00000000000E+00 -0.00000000000E+00 -0.63185116069E+03  0.63185116069E+03  0.00000000000E+00 0.  1.
    9000007    1    1    2  501    0  0.57301240622E+02 -0.32870169102E+01  0.20419368368E+03  0.45275743739E+03  0.40000000000E+03 0.  1.
   -9000007    1    1    2    0  503 -0.57301240622E+02  0.32870169102E+01 -0.42713975339E+03  0.58799881427E+03  0.40000000000E+03 0.  1.
<mgrwt>
<rscale>  2 0.40409682E+03</rscale>
<asrwt>0</asrwt>
<pdfrwt beam="1">  1       21 0.62908476E-01 0.40409682E+03</pdfrwt>
<pdfrwt beam="2">  1       21 0.97207870E-01 0.40409682E+03</pdfrwt>
<totfact> 0.18003310E+03</totfact>
</mgrwt>
</event>
<event>
 4    1  0.4758602E-002  0.4011456E+03  0.7818608E-02  0.1043384E+00
         21   -1    0    0  501  502  0.00000000000E+00  0.00000000000E+00  0.58775233492E+03  0.58775233492E+03  0.00000000000E+00 0. -1.
         21   -1    0    0  502  503 -0.00000000000E+00 -0.00000000000E+00 -0.28886685472E+03  0.28886685472E+03  0.00000000000E+00 0. -1.
    9000007    1    1    2  501    0  0.58893495104E+01 -0.29717504507E+02  0.49291004179E+02  0.40416261282E+03  0.40000000000E+03 0.  1.
   -9000007    1    1    2    0  503 -0.58893495104E+01  0.29717504507E+02  0.24959447603E+03  0.47245657682E+03  0.40000000000E+03 0.  1.
<mgrwt>
<rscale>  2 0.40114563E+03</rscale>
<asrwt>0</asrwt>
<pdfrwt beam="1">  1       21 0.90423436E-01 0.40114563E+03</pdfrwt>
<pdfrwt beam="2">  1       21 0.44441055E-01 0.40114563E+03</pdfrwt>
<totfact> 0.45085500E+03</totfact>
</mgrwt>
</event>
<event>
 4    1  0.4758602E-002  0.4437631E+03  0.7818608E-02  0.1029598E+00
         21   -1    0    0  501  502  0.00000000000E+00  0.00000000000E+00  0.10082599497E+04  0.10082599497E+04  0.00000000000E+00 0. -1.
         21   -1    0    0  502  503 -0.00000000000E+00 -0.00000000000E+00 -0.19980525711E+03  0.19980525711E+03  0.00000000000E+00 0.  1.
    9000007    1    1    2  501    0 -0.19109013451E+03  0.20255042487E+02  0.49480405154E+03  0.66464784335E+03  0.40000000000E+03 0. -1.
   -9000007    1    1    2    0  503  0.19109013451E+03 -0.20255042487E+02  0.31365064100E+03  0.54341736341E+03  0.40000000000E+03 0.  1.
<mgrwt>
<rscale>  2 0.44376312E+03</rscale>
<asrwt>0</asrwt>
<pdfrwt beam="1">  1       21 0.15511691E+00 0.44376312E+03</pdfrwt>
<pdfrwt beam="2">  1       21 0.30739271E-01 0.44376312E+03</pdfrwt>
<totfact> 0.23910417E+03</totfact>
</mgrwt>
</event>
<event>
 4    1  0.4758602E-002  0.4327889E+03  0.7818608E-02  0.1032983E+00
         21   -1    0    0  503  502  0.00000000000E+00  0.00000000000E+00  0.11038184540E+04  0.11038184540E+04  0.00000000000E+00 0. -1.
         21   -1    0    0  501  503 -0.00000000000E+00 -0.00000000000E+00 -0.20440780341E+03  0.20440780341E+03  0.00000000000E+00 0. -1.
    9000007    1    1    2  501    0 -0.23829072563E+02 -0.16351875889E+03  0.18012731268E+03  0.46877719439E+03  0.40000000000E+03 0. -1.
   -9000007    1    1    2    0  502  0.23829072563E+02  0.16351875889E+03  0.71928333788E+03  0.83944906299E+03  0.40000000000E+03 0. -1.
<mgrwt>
<rscale>  2 0.43278887E+03</rscale>
<asrwt>0</asrwt>
<pdfrwt beam="1">  1       21 0.16981822E+00 0.43278887E+03</pdfrwt>
<pdfrwt beam="2">  1       21 0.31447355E-01 0.43278887E+03</pdfrwt>
<totfact> 0.17815346E+03</totfact>
</mgrwt>
</event>
<event>
 4    1  0.4758602E-002  0.4213242E+03  0.7818608E-02  0.1036636E+00
         21   -1    0    0  501  502  0.00000000000E+00  0.00000000000E+00  0.48149490734E+03  0.48149490734E+03  0.00000000000E+00 0. -1.
         21   -1    0    0  502  503 -0.00000000000E+00 -0.00000000000E+00 -0.43626839234E+03  0.43626839234E+03  0.00000000000E+00 0. -1.
    9000007    1    1    2  501    0  0.13049662802E+03 -0.22016468932E+02  0.20324034432E+03  0.46778278334E+03  0.40000000000E+03 0. -1.
   -9000007    1    1    2    0  503 -0.13049662802E+03  0.22016468932E+02 -0.15801382933E+03  0.44998051634E+03  0.40000000000E+03 0. -1.
<mgrwt>
<rscale>  2 0.42132422E+03</rscale>
<asrwt>0</asrwt>
<pdfrwt beam="1">  1       21 0.74076140E-01 0.42132422E+03</pdfrwt>
<pdfrwt beam="2">  1       21 0.67118214E-01 0.42132422E+03</pdfrwt>
<totfact> 0.29209796E+03</totfact>
</mgrwt>
</event>
<event>
 4    1  0.4758602E-002  0.4959245E+03  0.7818608E-02  0.1014848E+00
         21   -1    0    0  501  502  0.00000000000E+00  0.00000000000E+00  0.53026700844E+03  0.53026700844E+03  0.00000000000E+00 0.  1.
         21   -1    0    0  502  503 -0.00000000000E+00 -0.00000000000E+00 -0.51364582756E+03  0.51364582756E+03  0.00000000000E+00 0.  1.
    9000007    1    1    2  501    0 -0.36782630339E+02 -0.29084040728E+03  0.17089913100E+03  0.52454515285E+03  0.40000000000E+03 0. -1.
   -9000007    1    1    2    0  503  0.36782630339E+02  0.29084040728E+03 -0.15427795012E+03  0.51936768314E+03  0.40000000000E+03 0. -1.
<mgrwt>
<rscale>  2 0.49592449E+03</rscale>
<asrwt>0</asrwt>
<pdfrwt beam="1">  1       21 0.81579540E-01 0.49592449E+03</pdfrwt>
<pdfrwt beam="2">  1       21 0.79022435E-01 0.49592449E+03</pdfrwt>
<totfact> 0.15719783E+03</totfact>
</mgrwt>
</event>
<event>
 4    1  0.4758602E-002  0.5071576E+03  0.7818608E-02  0.1011927E+00
         21   -1    0    0  503  502  0.00000000000E+00  0.00000000000E+00  0.14707416902E+04  0.14707416902E+04  0.00000000000E+00 0. -1.
         21   -1    0    0  501  503 -0.00000000000E+00 -0.00000000000E+00 -0.21868053914E+03  0.21868053914E+03  0.00000000000E+00 0.  1.
    9000007    1    1    2  501    0  0.30910037162E+03 -0.40814270761E+02  0.10040587782E+04  0.11248746039E+04  0.40000000000E+03 0. -1.
   -9000007    1    1    2    0  502 -0.30910037162E+03  0.40814270761E+02  0.24800237287E+03  0.56454762543E+03  0.40000000000E+03 0.  1.
<mgrwt>
<rscale>  2 0.50715761E+03</rscale>
<asrwt>0</asrwt>
<pdfrwt beam="1">  1       21 0.22626795E+00 0.50715761E+03</pdfrwt>
<pdfrwt beam="2">  1       21 0.33643161E-01 0.50715761E+03</pdfrwt>
<totfact> 0.62649752E+02</totfact>
</mgrwt>
</event>
<event>
 4    1  0.4758602E-002  0.4000048E+03  0.7818608E-02  0.1043778E+00
         21   -1    0    0  503  502  0.00000000000E+00  0.00000000000E+00  0.86361080748E+02  0.86361080748E+02  0.00000000000E+00 0. -1.
         21   -1    0    0  501  503 -0.00000000000E+00 -0.00000000000E+00 -0.25527902901E+04  0.25527902901E+04  0.00000000000E+00 0. -1.
    9000007    1    1    2  501    0  0.19071411775E+01 -0.46357797290E+00 -0.19242402170E+04  0.19653763672E+04  0.40000000000E+03 0. -1.
   -9000007    1    1    2    0  502 -0.19071411775E+01  0.46357797290E+00 -0.54218899235E+03  0.67377500363E+03  0.40000000000E+03 0. -1.
<mgrwt>
<rscale>  2 0.40000482E+03</rscale>
<asrwt>0</asrwt>
<pdfrwt beam="1">  1       21 0.13286323E-01 0.40000482E+03</pdfrwt>
<pdfrwt beam="2">  1       21 0.39273689E+00 0.40000482E+03</pdfrwt>
<totfact> 0.37748236E+02</totfact>
</mgrwt>
</event>
<event>
 4    1  0.4758602E-002  0.4770764E+03  0.7818608E-02  0.1019942E+00
         21   -1    0    0  503  502  0.00000000000E+00  0.00000000000E+00  0.39335389273E+03  0.39335389273E+03  0.00000000000E+00 0. -1.
         21   -1    0    0  501  503 -0.00000000000E+00 -0.00000000000E+00 -0.80311175147E+03  0.80311175147E+03  0.00000000000E+00 0. -1.
    9000007    1    1    2  501    0 -0.22764786819E+03 -0.12561187630E+03 -0.52116768602E+03  0.70655336126E+03  0.40000000000E+03 0. -1.
   -9000007    1    1    2    0  502  0.22764786819E+03  0.12561187630E+03  0.11140982727E+03  0.48991228294E+03  0.40000000000E+03 0. -1.
<mgrwt>
<rscale>  2 0.47707640E+03</rscale>
<asrwt>0</asrwt>
<pdfrwt beam="1">  1       21 0.60515983E-01 0.47707640E+03</pdfrwt>
<pdfrwt beam="2">  1       21 0.12355565E+00 0.47707640E+03</pdfrwt>
<totfact> 0.10495233E+03</totfact>
</mgrwt>
</event>
<event>
 4    1  0.4758602E-002  0.4791126E+03  0.7818608E-02  0.1019379E+00
         21   -1    0    0  503  502  0.00000000000E+00  0.00000000000E+00  0.10891237415E+03  0.10891237415E+03  0.00000000000E+00 0. -1.
         21   -1    0    0  501  503 -0.00000000000E+00 -0.00000000000E+00 -0.21901291614E+04  0.21901291614E+04  0.00000000000E+00 0. -1.
    9000007    1    1    2  501    0 -0.12826770449E+03 -0.23042626900E+03 -0.12636886986E+04  0.13514651296E+04  0.40000000000E+03 0. -1.
   -9000007    1    1    2    0  502  0.12826770449E+03  0.23042626900E+03 -0.81752808864E+03  0.94757640598E+03  0.40000000000E+03 0. -1.
<mgrwt>
<rscale>  2 0.47911259E+03</rscale>
<asrwt>0</asrwt>
<pdfrwt beam="1">  1       21 0.16755749E-01 0.47911259E+03</pdfrwt>
<pdfrwt beam="2">  1       21 0.33694297E+00 0.47911259E+03</pdfrwt>
<totfact> 0.51833967E+02</totfact>
</mgrwt>
</event>
<event>
 4    1  0.4758602E-002  0.4727166E+03  0.7818608E-02  0.1021156E+00
         21   -1    0    0  503  502  0.00000000000E+00  0.00000000000E+00  0.12308163766E+04  0.12308163766E+04  0.00000000000E+00 0. -1.
         21   -1    0    0  501  503 -0.00000000000E+00 -0.00000000000E+00 -0.19221012113E+03  0.19221012113E+03  0.00000000000E+00 0. -1.
    9000007    1    1    2  501    0  0.23376731483E+03 -0.93881855967E+02  0.35178086937E+03  0.58924590827E+03  0.40000000000E+03 0. -1.
   -9000007    1    1    2    0  502 -0.23376731483E+03  0.93881855967E+02  0.68682538611E+03  0.83378058947E+03  0.40000000000E+03 0. -1.
<mgrwt>
<rscale>  2 0.47271658E+03</rscale>
<asrwt>0</asrwt>
<pdfrwt beam="1">  1       21 0.18935636E+00 0.47271658E+03</pdfrwt>
<pdfrwt beam="2">  1       21 0.29570789E-01 0.47271658E+03</pdfrwt>
<totfact> 0.14411097E+03</totfact>
</mgrwt>
</event>
<event>
 4    1  0.4758602E-002  0.4016077E+03  0.7818608E-02  0.1043224E+00
         21   -1    0    0  501  502  0.00000000000E+00  0.00000000000E+00  0.28823681782E+03  0.28823681782E+03  0.00000000000E+00 0.  1.
         21   -1    0    0  502  503 -0.00000000000E+00 -0.00000000000E+00 -0.92874120216E+03  0.92874120216E+03  0.00000000000E+00 0.  1.
    9000007    1    1    2  501    0  0.19672723010E+02 -0.30028809411E+02  0.63383626520E+02  0.40657868800E+03  0.40000000000E+03 0.  1.
   -9000007    1    1    2    0  503 -0.19672723010E+02  0.30028809411E+02 -0.70388801086E+03  0.81039933197E+03  0.40000000000E+03 0.  1.
<mgrwt>
<rscale>  2 0.40160770E+03</rscale>
<asrwt>0</asrwt>
<pdfrwt beam="1">  1       21 0.44344126E-01 0.40160770E+03</pdfrwt>
<pdfrwt beam="2">  1       21 0.14288326E+00 0.40160770E+03</pdfrwt>
<totfact> 0.14414356E+03</totfact>
</mgrwt>
</event>
<event>
 4    1  0.4758602E-002  0.4778709E+03  0.7818608E-02  0.1019722E+00
         21   -1    0    0  503  502  0.00000000000E+00  0.00000000000E+00  0.12055792280E+04  0.12055792280E+04  0.00000000000E+00 0.  1.
         21   -1    0    0  501  503 -0.00000000000E+00 -0.00000000000E+00 -0.25237089986E+03  0.25237089986E+03  0.00000000000E+00 0.  1.
    9000007    1    1    2  501    0  0.20905332234E+03 -0.15702641068E+03  0.11252596854E+03  0.49094060621E+03  0.40000000000E+03 0.  1.
   -9000007    1    1    2    0  502 -0.20905332234E+03  0.15702641068E+03  0.84068235962E+03  0.96700952167E+03  0.40000000000E+03 0.  1.
<mgrwt>
<rscale>  2 0.47787089E+03</rscale>
<asrwt>0</asrwt>
<pdfrwt beam="1">  1       21 0.18547372E+00 0.47787089E+03</pdfrwt>
<pdfrwt beam="2">  1       21 0.38826293E-01 0.47787089E+03</pdfrwt>
<totfact> 0.88273476E+02</totfact>
</mgrwt>
</event>
<event>
 4    1  0.4758602E-002  0.4302250E+03  0.7818608E-02  0.1033789E+00
         21   -1    0    0  501  502  0.00000000000E+00  0.00000000000E+00  0.15079870093E+04  0.15079870093E+04  0.00000000000E+00 0. -1.
         21   -1    0    0  502  503 -0.00000000000E+00 -0.00000000000E+00 -0.16518960693E+03  0.16518960693E+03  0.00000000000E+00 0. -1.
    9000007    1    1    2  501    0 -0.10649217442E+03 -0.11727314400E+03  0.10954771955E+04  0.11769298447E+04  0.40000000000E+03 0. -1.
   -9000007    1    1    2    0  503  0.10649217442E+03  0.11727314400E+03  0.24732020686E+03  0.49624677151E+03  0.40000000000E+03 0. -1.
<mgrwt>
<rscale>  2 0.43022503E+03</rscale>
<asrwt>0</asrwt>
<pdfrwt beam="1">  1       21 0.23199799E+00 0.43022503E+03</pdfrwt>
<pdfrwt beam="2">  1       21 0.25413787E-01 0.43022503E+03</pdfrwt>
<totfact> 0.10424818E+03</totfact>
</mgrwt>
</event>
<event>
 4    1  0.4758602E-002  0.4527372E+03  0.7818608E-02  0.1026909E+00
         21   -1    0    0  503  502  0.00000000000E+00  0.00000000000E+00  0.72458270529E+03  0.72458270529E+03  0.00000000000E+00 0. -1.
         21   -1    0    0  501  503 -0.00000000000E+00 -0.00000000000E+00 -0.43257289524E+03  0.43257289524E+03  0.00000000000E+00 0. -1.
    9000007    1    1    2  501    0  0.14806313399E+03 -0.15181653585E+03 -0.19434898084E+03  0.49268902825E+03  0.40000000000E+03 0. -1.
   -9000007    1    1    2    0  502 -0.14806313399E+03  0.15181653585E+03  0.48635879088E+03  0.66446657228E+03  0.40000000000E+03 0. -1.
<mgrwt>
<rscale>  2 0.45273718E+03</rscale>
<asrwt>0</asrwt>
<pdfrwt beam="1">  1       21 0.11147426E+00 0.45273718E+03</pdfrwt>
<pdfrwt beam="2">  1       21 0.66549677E-01 0.45273718E+03</pdfrwt>
<totfact> 0.11133441E+03</totfact>
</mgrwt>
</event>
<event>
 4    1  0.4758602E-002  0.4537858E+03  0.7818608E-02  0.1026599E+00
         21   -1    0    0  503  502  0.00000000000E+00  0.00000000000E+00  0.87534432712E+03  0.87534432712E+03  0.00000000000E+00 0. -1.
         21   -1    0    0  501  503 -0.00000000000E+00 -0.00000000000E+00 -0.27767337952E+03  0.27767337952E+03  0.00000000000E+00 0. -1.
    9000007    1    1    2  501    0  0.18676620966E+03  0.10507105165E+03  0.73484074726E+02  0.45969713095E+03  0.40000000000E+03 0. -1.
   -9000007    1    1    2    0  502 -0.18676620966E+03 -0.10507105165E+03  0.52418687287E+03  0.69332057568E+03  0.40000000000E+03 0. -1.
<mgrwt>
<rscale>  2 0.45378579E+03</rscale>
<asrwt>0</asrwt>
<pdfrwt beam="1">  1       21 0.13466836E+00 0.45378579E+03</pdfrwt>
<pdfrwt beam="2">  1       21 0.42718982E-01 0.45378579E+03</pdfrwt>
<totfact> 0.17824442E+03</totfact>
</mgrwt>
</event>
<event>
 4    1  0.4758602E-002  0.4191788E+03  0.7818608E-02  0.1037334E+00
         21   -1    0    0  501  502  0.00000000000E+00  0.00000000000E+00  0.55025861714E+03  0.55025861714E+03  0.00000000000E+00 0. -1.
         21   -1    0    0  502  503 -0.00000000000E+00 -0.00000000000E+00 -0.33950259800E+03  0.33950259800E+03  0.00000000000E+00 0. -1.
    9000007    1    1    2  501    0  0.55932376340E+01 -0.12521816034E+03 -0.30810092870E+01  0.41919012942E+03  0.40000000000E+03 0. -1.
   -9000007    1    1    2    0  503 -0.55932376340E+01  0.12521816034E+03  0.21383702842E+03  0.47057108572E+03  0.40000000000E+03 0. -1.
<mgrwt>
<rscale>  2 0.41917881E+03</rscale>
<asrwt>0</asrwt>
<pdfrwt beam="1">  1       21 0.84655172E-01 0.41917881E+03</pdfrwt>
<pdfrwt beam="2">  1       21 0.52231169E-01 0.41917881E+03</pdfrwt>
<totfact> 0.37172629E+03</totfact>
</mgrwt>
</event>
<event>
 4    1  0.4758602E-002  0.5697350E+03  0.7818608E-02  0.9970265E-01
         21   -1    0    0  501  502  0.00000000000E+00  0.00000000000E+00  0.26850375996E+03  0.26850375996E+03  0.00000000000E+00 0. -1.
         21   -1    0    0  502  503 -0.00000000000E+00 -0.00000000000E+00 -0.22360322994E+04  0.22360322994E+04  0.00000000000E+00 0.  1.
    9000007    1    1    2  501    0  0.37272869755E+03 -0.16022257008E+03 -0.13503634656E+03  0.58551923012E+03  0.40000000000E+03 0. -1.
   -9000007    1    1    2    0  503 -0.37272869755E+03  0.16022257008E+03 -0.18324921929E+04  0.19190168292E+04  0.40000000000E+03 0.  1.
<mgrwt>
<rscale>  2 0.56973499E+03</rscale>
<asrwt>0</asrwt>
<pdfrwt beam="1">  1       21 0.41308271E-01 0.56973499E+03</pdfrwt>
<pdfrwt beam="2">  1       21 0.34400497E+00 0.56973499E+03</pdfrwt>
<totfact> 0.75668400E+01</totfact>
</mgrwt>
</event>
<event>
 4    1  0.4758602E-002  0.5320650E+03  0.7818608E-02  0.1005733E+00
         21   -1    0    0  501  502  0.00000000000E+00  0.00000000000E+00  0.25598567733E+03  0.25598567733E+03  0.00000000000E+00 0. -1.
         21   -1    0    0  502  503 -0.00000000000E+00 -0.00000000000E+00 -0.12600972853E+04  0.12600972853E+04  0.00000000000E+00 0.  1.
    9000007    1    1    2  501    0 -0.99180445108E+02 -0.33653584836E+03 -0.23687802812E+03  0.58241251543E+03  0.40000000000E+03 0. -1.
   -9000007    1    1    2    0  503  0.99180445108E+02  0.33653584836E+03 -0.76723357982E+03  0.93367044717E+03  0.40000000000E+03 0. -1.
<mgrwt>
<rscale>  2 0.53206498E+03</rscale>
<asrwt>0</asrwt>
<pdfrwt beam="1">  1       21 0.39382413E-01 0.53206498E+03</pdfrwt>
<pdfrwt beam="2">  1       21 0.19386112E+00 0.53206498E+03</pdfrwt>
<totfact> 0.73425656E+02</totfact>
</mgrwt>
</event>
<event>
 4    1  0.4758602E-002  0.4704418E+03  0.7818608E-02  0.1021796E+00
         21   -1    0    0  501  502  0.00000000000E+00  0.00000000000E+00  0.35624340254E+03  0.35624340254E+03  0.00000000000E+00 0.  1.
         21   -1    0    0  502  503 -0.00000000000E+00 -0.00000000000E+00 -0.13525241791E+04  0.13525241791E+04  0.00000000000E+00 0. -1.
    9000007    1    1    2  501    0  0.93875727382E+02 -0.22913492664E+03  0.13009330364E+03  0.48809807872E+03  0.40000000000E+03 0.  1.
   -9000007    1    1    2    0  503 -0.93875727382E+02  0.22913492664E+03 -0.11263740802E+04  0.12206695029E+04  0.40000000000E+03 0. -1.
<mgrwt>
<rscale>  2 0.47044178E+03</rscale>
<asrwt>0</asrwt>
<pdfrwt beam="1">  1       21 0.54806676E-01 0.47044178E+03</pdfrwt>
<pdfrwt beam="2">  1       21 0.20808065E+00 0.47044178E+03</pdfrwt>
<totfact> 0.30180429E+02</totfact>
</mgrwt>
</event>
<event>
 4    1  0.4758602E-002  0.4268378E+03  0.7818608E-02  0.1034864E+00
         21   -1    0    0  501  502  0.00000000000E+00  0.00000000000E+00  0.13835458769E+04  0.13835458769E+04  0.00000000000E+00 0.  1.
         21   -1    0    0  502  503 -0.00000000000E+00 -0.00000000000E+00 -0.19710878990E+03  0.19710878990E+03  0.00000000000E+00 0.  1.
    9000007    1    1    2  501    0  0.11335528346E+03 -0.96649321605E+02  0.10485482643E+04  0.11320971576E+04  0.40000000000E+03 0.  1.
   -9000007    1    1    2    0  503 -0.11335528346E+03  0.96649321605E+02  0.13788882271E+03  0.44855750923E+03  0.40000000000E+03 0.  1.
<mgrwt>
<rscale>  2 0.42683780E+03</rscale>
<asrwt>0</asrwt>
<pdfrwt beam="1">  1       21 0.21285321E+00 0.42683780E+03</pdfrwt>
<pdfrwt beam="2">  1       21 0.30324430E-01 0.42683780E+03</pdfrwt>
<totfact> 0.97633912E+02</totfact>
</mgrwt>
</event>
<event>
 4    1  0.4758602E-002  0.4315600E+03  0.7818608E-02  0.1033368E+00
         21   -1    0    0  503  502  0.00000000000E+00  0.00000000000E+00  0.11221273191E+03  0.11221273191E+03  0.00000000000E+00 0.  1.
         21   -1    0    0  501  503 -0.00000000000E+00 -0.00000000000E+00 -0.24107180028E+04  0.24107180028E+04  0.00000000000E+00 0.  1.
    9000007    1    1    2  501    0 -0.15960910115E+01  0.16199217989E+03 -0.44518303278E+03  0.62002576280E+03  0.40000000000E+03 0.  1.
   -9000007    1    1    2    0  502  0.15960910115E+01 -0.16199217989E+03 -0.18533222381E+04  0.19029049719E+04  0.40000000000E+03 0.  1.
<mgrwt>
<rscale>  2 0.43155998E+03</rscale>
<asrwt>0</asrwt>
<pdfrwt beam="1">  1       21 0.17263497E-01 0.43155998E+03</pdfrwt>
<pdfrwt beam="2">  1       21 0.37087969E+00 0.43155998E+03</pdfrwt>
<totfact> 0.31182863E+02</totfact>
</mgrwt>
</event>
<event>
 4    1  0.4758602E-002  0.5259298E+03  0.7818608E-02  0.1007224E+00
         21   -1    0    0  503  502  0.00000000000E+00  0.00000000000E+00  0.87916899758E+03  0.87916899758E+03  0.00000000000E+00 0.  1.
         21   -1    0    0  501  503 -0.00000000000E+00 -0.00000000000E+00 -0.49100272260E+03  0.49100272260E+03  0.00000000000E+00 0. -1.
    9000007    1    1    2  501    0  0.88324112570E+01 -0.34135632963E+03 -0.21653097160E+03  0.56875989391E+03  0.40000000000E+03 0. -1.
   -9000007    1    1    2    0  502 -0.88324112570E+01  0.34135632963E+03  0.60469724657E+03  0.80141182626E+03  0.40000000000E+03 0.  1.
<mgrwt>
<rscale>  2 0.52592980E+03</rscale>
<asrwt>0</asrwt>
<pdfrwt beam="1">  1       21 0.13525677E+00 0.52592980E+03</pdfrwt>
<pdfrwt beam="2">  1       21 0.75538881E-01 0.52592980E+03</pdfrwt>
<totfact> 0.49487944E+02</totfact>
</mgrwt>
</event>
<event>
 4    1  0.4758602E-002  0.5244218E+03  0.7818608E-02  0.1007594E+00
         21   -1    0    0  503  502  0.00000000000E+00  0.00000000000E+00  0.44070538398E+03  0.44070538398E+03  0.00000000000E+00 0.  1.
         21   -1    0    0  501  503 -0.00000000000E+00 -0.00000000000E+00 -0.62866748310E+03  0.62866748310E+03  0.00000000000E+00 0.  1.
    9000007    1    1    2  501    0  0.26798792145E+03 -0.20784789474E+03 -0.13984900456E+03  0.54274857666E+03  0.40000000000E+03 0.  1.
   -9000007    1    1    2    0  502 -0.26798792145E+03  0.20784789474E+03 -0.48113094554E+02  0.52662429042E+03  0.40000000000E+03 0.  1.
<mgrwt>
<rscale>  2 0.52442185E+03</rscale>
<asrwt>0</asrwt>
<pdfrwt beam="1">  1       21 0.67800829E-01 0.52442185E+03</pdfrwt>
<pdfrwt beam="2">  1       21 0.96718074E-01 0.52442185E+03</pdfrwt>
<totfact> 0.14743131E+03</totfact>
</mgrwt>
</event>
<event>
 4    1  0.4758602E-002  0.4087959E+03  0.7818608E-02  0.1040776E+00
         21   -1    0    0  501  502  0.00000000000E+00  0.00000000000E+00  0.74703126405E+03  0.74703126405E+03  0.00000000000E+00 0.  1.
         21   -1    0    0  502  503 -0.00000000000E+00 -0.00000000000E+00 -0.28220960820E+03  0.28220960820E+03  0.00000000000E+00 0.  1.
    9000007    1    1    2  501    0 -0.82153731569E+01 -0.83944239568E+02  0.46672505480E+03  0.62044049230E+03  0.40000000000E+03 0.  1.
   -9000007    1    1    2    0  503  0.82153731569E+01  0.83944239568E+02 -0.19033989491E+01  0.40880037994E+03  0.40000000000E+03 0.  1.
<mgrwt>
<rscale>  2 0.40879595E+03</rscale>
<asrwt>0</asrwt>
<pdfrwt beam="1">  1       21 0.11492789E+00 0.40879595E+03</pdfrwt>
<pdfrwt beam="2">  1       21 0.43416863E-01 0.40879595E+03</pdfrwt>
<totfact> 0.26330409E+03</totfact>
</mgrwt>
</event>
<event>
 4    1  0.4758602E-002  0.5462701E+03  0.7818608E-02  0.1002361E+00
         21   -1    0    0  503  502  0.00000000000E+00  0.00000000000E+00  0.16709861472E+04  0.16709861472E+04  0.00000000000E+00 0. -1.
         21   -1    0    0  501  503 -0.00000000000E+00 -0.00000000000E+00 -0.31139847986E+03  0.31139847986E+03  0.00000000000E+00 0. -1.
    9000007    1    1    2  501    0 -0.25858141754E+03  0.26748203904E+03  0.32468229818E+02  0.54723411503E+03  0.40000000000E+03 0. -1.
   -9000007    1    1    2    0  502  0.25858141754E+03 -0.26748203904E+03  0.13271194375E+04  0.14351505120E+04  0.40000000000E+03 0. -1.
<mgrwt>
<rscale>  2 0.54627007E+03</rscale>
<asrwt>0</asrwt>
<pdfrwt beam="1">  1       21 0.25707479E+00 0.54627007E+03</pdfrwt>
<pdfrwt beam="2">  1       21 0.47907459E-01 0.54627007E+03</pdfrwt>
<totfact> 0.19019761E+02</totfact>
</mgrwt>
</event>
<event>
 4    1  0.4758602E-002  0.4755779E+03  0.7818608E-02  0.1020358E+00
         21   -1    0    0  501  502  0.00000000000E+00  0.00000000000E+00  0.19677156096E+04  0.19677156096E+04  0.00000000000E+00 0.  1.
         21   -1    0    0  502  503 -0.00000000000E+00 -0.00000000000E+00 -0.13521014467E+03  0.13521014467E+03  0.00000000000E+00 0. -1.
    9000007    1    1    2  501    0  0.25657800973E+03 -0.18493798160E+02  0.13233424765E+04  0.14062039702E+04  0.40000000000E+03 0.  1.
   -9000007    1    1    2    0  503 -0.25657800973E+03  0.18493798160E+02  0.50916298843E+03  0.69672178410E+03  0.40000000000E+03 0. -1.
<mgrwt>
<rscale>  2 0.47557785E+03</rscale>
<asrwt>0</asrwt>
<pdfrwt beam="1">  1       21 0.30272546E+00 0.47557785E+03</pdfrwt>
<pdfrwt beam="2">  1       21 0.20801562E-01 0.47557785E+03</pdfrwt>
<totfact> 0.55573644E+02</totfact>
</mgrwt>
</event>
<event>
 4    1  0.4758602E-002  0.4659397E+03  0.7818608E-02  0.1023072E+00
         21   -1    0    0  501  502  0.00000000000E+00  0.00000000000E+00  0.21649380266E+03  0.21649380266E+03  0.00000000000E+00 0.  1.
         21   -1    0    0  502  503 -0.00000000000E+00 -0.00000000000E+00 -0.11046894723E+04  0.11046894723E+04  0.00000000000E+00 0.  1.
    9000007    1    1    2  501    0  0.23885922346E+03 -0.67868136853E+01 -0.64472029335E+03  0.79546467309E+03  0.40000000000E+03 0.  1.
   -9000007    1    1    2    0  503 -0.23885922346E+03  0.67868136853E+01 -0.24347537625E+03  0.52571860183E+03  0.40000000000E+03 0.  1.
<mgrwt>
<rscale>  2 0.46593968E+03</rscale>
<asrwt>0</asrwt>
<pdfrwt beam="1">  1       21 0.33306739E-01 0.46593968E+03</pdfrwt>
<pdfrwt beam="2">  1       21 0.16995222E+00 0.46593968E+03</pdfrwt>
<totfact> 0.15624527E+03</totfact>
</mgrwt>
</event>
<event>
 4    1  0.4758602E-002  0.4130559E+03  0.7818608E-02  0.1039350E+00
         21   -1    0    0  503  502  0.00000000000E+00  0.00000000000E+00  0.40723974867E+03  0.40723974867E+03  0.00000000000E+00 0. -1.
         21   -1    0    0  501  503 -0.00000000000E+00 -0.00000000000E+00 -0.45064860343E+03  0.45064860343E+03  0.00000000000E+00 0. -1.
    9000007    1    1    2  501    0  0.62086261640E+02 -0.82222149417E+02  0.92049556236E+02  0.42318826371E+03  0.40000000000E+03 0. -1.
   -9000007    1    1    2    0  502 -0.62086261640E+02  0.82222149417E+02 -0.13545841099E+03  0.43470008839E+03  0.40000000000E+03 0. -1.
<mgrwt>
<rscale>  2 0.41305591E+03</rscale>
<asrwt>0</asrwt>
<pdfrwt beam="1">  1       21 0.62652269E-01 0.41305591E+03</pdfrwt>
<pdfrwt beam="2">  1       21 0.69330554E-01 0.41305591E+03</pdfrwt>
<totfact> 0.39636968E+03</totfact>
</mgrwt>
</event>
<event>
 4    1  0.4758602E-002  0.5146659E+03  0.7818608E-02  0.1010020E+00
         21   -1    0    0  501  502  0.00000000000E+00  0.00000000000E+00  0.15113154737E+04  0.15113154737E+04  0.00000000000E+00 0.  1.
         21   -1    0    0  502  503 -0.00000000000E+00 -0.00000000000E+00 -0.19601777261E+03  0.19601777261E+03  0.00000000000E+00 0.  1.
    9000007    1    1    2  501    0 -0.32108137921E+03 -0.42282216805E+02  0.93541309873E+03  0.10676510213E+04  0.40000000000E+03 0.  1.
   -9000007    1    1    2    0  503  0.32108137921E+03  0.42282216805E+02  0.37988460238E+03  0.63968222506E+03  0.40000000000E+03 0.  1.
<mgrwt>
<rscale>  2 0.51466595E+03</rscale>
<asrwt>0</asrwt>
<pdfrwt beam="1">  1       21 0.23251006E+00 0.51466595E+03</pdfrwt>
<pdfrwt beam="2">  1       21 0.30156581E-01 0.51466595E+03</pdfrwt>
<totfact> 0.71007503E+02</totfact>
</mgrwt>
</event>
<event>
 4    1  0.4758602E-002  0.6498001E+03  0.7818608E-02  0.9807154E-01
         21   -1    0    0  503  502  0.00000000000E+00  0.00000000000E+00  0.27595684429E+03  0.27595684429E+03  0.00000000000E+00 0.  1.
         21   -1    0    0  501  503 -0.00000000000E+00 -0.00000000000E+00 -0.16376306677E+04  0.16376306677E+04  0.00000000000E+00 0. -1.
    9000007    1    1    2  501    0  0.36015376408E+03  0.36404599672E+03 -0.92601766299E+03  0.11312598878E+04  0.40000000000E+03 0. -1.
   -9000007    1    1    2    0  502 -0.36015376408E+03 -0.36404599672E+03 -0.43565616042E+03  0.78232762422E+03  0.40000000000E+03 0. -1.
<mgrwt>
<rscale>  2 0.64980014E+03</rscale>
<asrwt>0</asrwt>
<pdfrwt beam="1">  1       21 0.42454899E-01 0.64980014E+03</pdfrwt>
<pdfrwt beam="2">  1       21 0.25194318E+00 0.64980014E+03</pdfrwt>
<totfact> 0.25280790E+02</totfact>
</mgrwt>
</event>
<event>
 4    1  0.4758602E-002  0.4450274E+03  0.7818608E-02  0.1029215E+00
         21   -1    0    0  503  502  0.00000000000E+00  0.00000000000E+00  0.41700062455E+03  0.41700062455E+03  0.00000000000E+00 0.  1.
         21   -1    0    0  501  503 -0.00000000000E+00 -0.00000000000E+00 -0.48740780265E+03  0.48740780265E+03  0.00000000000E+00 0.  1.
    9000007    1    1    2  501    0 -0.17185037575E+03 -0.92286845166E+02  0.37126562509E+02  0.44657339271E+03  0.40000000000E+03 0.  1.
   -9000007    1    1    2    0  502  0.17185037575E+03  0.92286845166E+02 -0.10753374061E+03  0.45783503449E+03  0.40000000000E+03 0.  1.
<mgrwt>
<rscale>  2 0.44502743E+03</rscale>
<asrwt>0</asrwt>
<pdfrwt beam="1">  1       21 0.64153942E-01 0.44502743E+03</pdfrwt>
<pdfrwt beam="2">  1       21 0.74985816E-01 0.44502743E+03</pdfrwt>
<totfact> 0.31139869E+03</totfact>
</mgrwt>
</event>
<event>
 4    1  0.4758602E-002  0.4446744E+03  0.7818608E-02  0.1029322E+00
         21   -1    0    0  503  502  0.00000000000E+00  0.00000000000E+00  0.23861660512E+03  0.23861660512E+03  0.00000000000E+00 0. -1.
         21   -1    0    0  501  503 -0.00000000000E+00 -0.00000000000E+00 -0.17270881582E+04  0.17270881582E+04  0.00000000000E+00 0. -1.
    9000007    1    1    2  501    0 -0.10694430701E+03  0.16216734824E+03 -0.14531103165E+04  0.15196265744E+04  0.40000000000E+03 0. -1.
   -9000007    1    1    2    0  502  0.10694430701E+03 -0.16216734824E+03 -0.35361236632E+02  0.44607818899E+03  0.40000000000E+03 0. -1.
<mgrwt>
<rscale>  2 0.44467441E+03</rscale>
<asrwt>0</asrwt>
<pdfrwt beam="1">  1       21 0.36710247E-01 0.44467441E+03</pdfrwt>
<pdfrwt beam="2">  1       21 0.26570587E+00 0.44467441E+03</pdfrwt>
<totfact> 0.30873786E+02</totfact>
</mgrwt>
</event>
<event>
 4    1  0.4758602E-002  0.4386420E+03  0.7818608E-02  0.1031164E+00
         21   -1    0    0  501  502  0.00000000000E+00  0.00000000000E+00  0.13040829259E+04  0.13040829259E+04  0.00000000000E+00 0. -1.
         21   -1    0    0  502  503 -0.00000000000E+00 -0.00000000000E+00 -0.14861046924E+03  0.14861046924E+03  0.00000000000E+00 0. -1.
    9000007    1    1    2  501    0 -0.16015630987E+03  0.82199613179E+02  0.51614359096E+03  0.67735590828E+03  0.40000000000E+03 0. -1.
   -9000007    1    1    2    0  503  0.16015630987E+03 -0.82199613179E+02  0.63932886568E+03  0.77533748683E+03  0.40000000000E+03 0. -1.
<mgrwt>
<rscale>  2 0.43864202E+03</rscale>
<asrwt>0</asrwt>
<pdfrwt beam="1">  1       21 0.20062813E+00 0.43864202E+03</pdfrwt>
<pdfrwt beam="2">  1       21 0.22863150E-01 0.43864202E+03</pdfrwt>
<totfact> 0.20289910E+03</totfact>
</mgrwt>
</event>
<event>
 4    1  0.4758602E-002  0.4493630E+03  0.7818608E-02  0.1027912E+00
         21   -1    0    0  503  502  0.00000000000E+00  0.00000000000E+00  0.17400448583E+04  0.17400448583E+04  0.00000000000E+00 0. -1.
         21   -1    0    0  501  503 -0.00000000000E+00 -0.00000000000E+00 -0.12111141613E+03  0.12111141613E+03  0.00000000000E+00 0. -1.
    9000007    1    1    2  501    0 -0.17929138784E+03  0.98902504278E+02  0.99975936621E+03  0.10961048752E+04  0.40000000000E+03 0. -1.
   -9000007    1    1    2    0  502  0.17929138784E+03 -0.98902504278E+02  0.61917407592E+03  0.76505139919E+03  0.40000000000E+03 0. -1.
<mgrwt>
<rscale>  2 0.44936300E+03</rscale>
<asrwt>0</asrwt>
<pdfrwt beam="1">  1       21 0.26769919E+00 0.44936300E+03</pdfrwt>
<pdfrwt beam="2">  1       21 0.18632527E-01 0.44936300E+03</pdfrwt>
<totfact> 0.11301021E+03</totfact>
</mgrwt>
</event>
<event>
 4    1  0.4758602E-002  0.4652832E+03  0.7818608E-02  0.1023260E+00
         21   -1    0    0  501  502  0.00000000000E+00  0.00000000000E+00  0.16796008311E+03  0.16796008311E+03  0.00000000000E+00 0. -1.
         21   -1    0    0  502  503 -0.00000000000E+00 -0.00000000000E+00 -0.19163057085E+04  0.19163057085E+04  0.00000000000E+00 0. -1.
    9000007    1    1    2  501    0  0.13082223778E+03 -0.19842884581E+03 -0.27788596803E+03  0.54194932971E+03  0.40000000000E+03 0. -1.
   -9000007    1    1    2    0  503 -0.13082223778E+03  0.19842884581E+03 -0.14704596574E+04  0.15423164619E+04  0.40000000000E+03 0. -1.
<mgrwt>
<rscale>  2 0.46528321E+03</rscale>
<asrwt>0</asrwt>
<pdfrwt beam="1">  1       21 0.25840011E-01 0.46528321E+03</pdfrwt>
<pdfrwt beam="2">  1       21 0.29481628E+00 0.46528321E+03</pdfrwt>
<totfact> 0.41010512E+02</totfact>
</mgrwt>
</event>
<event>
 4    1  0.4758602E-002  0.4144148E+03  0.7818608E-02  0.1038900E+00
         21   -1    0    0  503  502  0.00000000000E+00  0.00000000000E+00  0.69027697431E+03  0.69027697431E+03  0.00000000000E+00 0. -1.
         21   -1    0    0  501  503 -0.00000000000E+00 -0.00000000000E+00 -0.32654369460E+03  0.32654369460E+03  0.00000000000E+00 0. -1.
    9000007    1    1    2  501    0  0.10494644944E+03 -0.26941393565E+02  0.42994085650E+03  0.59715051371E+03  0.40000000000E+03 0. -1.
   -9000007    1    1    2    0  502 -0.10494644944E+03  0.26941393565E+02 -0.66207576785E+02  0.41967015519E+03  0.40000000000E+03 0. -1.
<mgrwt>
<rscale>  2 0.41441476E+03</rscale>
<asrwt>0</asrwt>
<pdfrwt beam="1">  1       21 0.10619646E+00 0.41441476E+03</pdfrwt>
<pdfrwt beam="2">  1       21 0.50237491E-01 0.41441476E+03</pdfrwt>
<totfact> 0.23511099E+03</totfact>
</mgrwt>
</event>
<event>
 4    1  0.4758602E-002  0.4242956E+03  0.7818608E-02  0.1035677E+00
         21   -1    0    0  501  502  0.00000000000E+00  0.00000000000E+00  0.89422411464E+02  0.89422411464E+02  0.00000000000E+00 0. -1.
         21   -1    0    0  502  503 -0.00000000000E+00 -0.00000000000E+00 -0.20144851764E+04  0.20144851764E+04  0.00000000000E+00 0. -1.
    9000007    1    1    2  501    0 -0.19683487972E+02 -0.14014035698E+03 -0.98892063325E+03  0.10760997994E+04  0.40000000000E+03 0. -1.
   -9000007    1    1    2    0  503  0.19683487972E+02  0.14014035698E+03 -0.93614213168E+03  0.10278077885E+04  0.40000000000E+03 0. -1.
<mgrwt>
<rscale>  2 0.42429560E+03</rscale>
<asrwt>0</asrwt>
<pdfrwt beam="1">  1       21 0.13757296E-01 0.42429560E+03</pdfrwt>
<pdfrwt beam="2">  1       21 0.30992076E+00 0.42429560E+03</pdfrwt>
<totfact> 0.11234583E+03</totfact>
</mgrwt>
</event>
<event>
 4    1  0.4758602E-002  0.5332222E+03  0.7818608E-02  0.1005454E+00
         21   -1    0    0  503  502  0.00000000000E+00  0.00000000000E+00  0.43905630850E+03  0.43905630850E+03  0.00000000000E+00 0.  1.
         21   -1    0    0  501  503 -0.00000000000E+00 -0.00000000000E+00 -0.73699827691E+03  0.73699827691E+03  0.00000000000E+00 0.  1.
    9000007    1    1    2  501    0  0.31739969251E+03 -0.15356884089E+03 -0.35378848185E+03  0.63991580976E+03  0.40000000000E+03 0.  1.
   -9000007    1    1    2    0  502 -0.31739969251E+03  0.15356884089E+03  0.55846513432E+02  0.53613877565E+03  0.40000000000E+03 0.  1.
<mgrwt>
<rscale>  2 0.53322224E+03</rscale>
<asrwt>0</asrwt>
<pdfrwt beam="1">  1       21 0.67547126E-01 0.53322224E+03</pdfrwt>
<pdfrwt beam="2">  1       21 0.11338435E+00 0.53322224E+03</pdfrwt>
<totfact> 0.10014717E+03</totfact>
</mgrwt>
</event>
<event>
 4    1  0.4758602E-002  0.4048012E+03  0.7818608E-02  0.1042130E+00
         21   -1    0    0  501  502  0.00000000000E+00  0.00000000000E+00  0.38019468761E+03  0.38019468761E+03  0.00000000000E+00 0. -1.
         21   -1    0    0  502  503 -0.00000000000E+00 -0.00000000000E+00 -0.45972703291E+03  0.45972703291E+03  0.00000000000E+00 0. -1.
    9000007    1    1    2  501    0 -0.61037965693E+02  0.11763024705E+02  0.65212809958E+02  0.41002038070E+03  0.40000000000E+03 0. -1.
   -9000007    1    1    2    0  503  0.61037965693E+02 -0.11763024705E+02 -0.14474515526E+03  0.42990133982E+03  0.40000000000E+03 0. -1.
<mgrwt>
<rscale>  2 0.40480119E+03</rscale>
<asrwt>0</asrwt>
<pdfrwt beam="1">  1       21 0.58491490E-01 0.40480119E+03</pdfrwt>
<pdfrwt beam="2">  1       21 0.70727236E-01 0.40480119E+03</pdfrwt>
<totfact> 0.44192599E+03</totfact>
</mgrwt>
</event>
<event>
 4    1  0.4758602E-002  0.4075373E+03  0.7818608E-02  0.1041201E+00
         21   -1    0    0  503  502  0.00000000000E+00  0.00000000000E+00  0.10130094220E+03  0.10130094220E+03  0.00000000000E+00 0.  1.
         21   -1    0    0  501  503 -0.00000000000E+00 -0.00000000000E+00 -0.23239727018E+04  0.23239727018E+04  0.00000000000E+00 0.  1.
    9000007    1    1    2  501    0  0.17381852142E+02  0.76055882475E+02 -0.17694203174E+04  0.18157463716E+04  0.40000000000E+03 0.  1.
   -9000007    1    1    2    0  502 -0.17381852142E+02 -0.76055882475E+02 -0.45325144220E+03  0.60952727248E+03  0.40000000000E+03 0.  1.
<mgrwt>
<rscale>  2 0.40753727E+03</rscale>
<asrwt>0</asrwt>
<pdfrwt beam="1">  1       21 0.15584761E-01 0.40753727E+03</pdfrwt>
<pdfrwt beam="2">  1       21 0.35753424E+00 0.40753727E+03</pdfrwt>
<totfact> 0.46383626E+02</totfact>
</mgrwt>
</event>
<event>
 4    1  0.4758602E-002  0.4217039E+03  0.7818608E-02  0.1036513E+00
         21   -1    0    0  503  502  0.00000000000E+00  0.00000000000E+00  0.90959832637E+03  0.90959832637E+03  0.00000000000E+00 0. -1.
         21   -1    0    0  501  503 -0.00000000000E+00 -0.00000000000E+00 -0.19858282982E+03  0.19858282982E+03  0.00000000000E+00 0. -1.
    9000007    1    1    2  501    0  0.13686641713E+02 -0.13284143945E+03  0.42445034648E+03  0.59832455141E+03  0.40000000000E+03 0. -1.
   -9000007    1    1    2    0  502 -0.13686641713E+02  0.13284143945E+03  0.28656515007E+03  0.50985660478E+03  0.40000000000E+03 0. -1.
<mgrwt>
<rscale>  2 0.42170389E+03</rscale>
<asrwt>0</asrwt>
<pdfrwt beam="1">  1       21 0.13993820E+00 0.42170389E+03</pdfrwt>
<pdfrwt beam="2">  1       21 0.30551205E-01 0.42170389E+03</pdfrwt>
<totfact> 0.32234728E+03</totfact>
</mgrwt>
</event>
<event>
 4    1  0.4758602E-002  0.4267537E+03  0.7818608E-02  0.1034890E+00
         21   -1    0    0  503  502  0.00000000000E+00  0.00000000000E+00  0.26621219593E+04  0.26621219593E+04  0.00000000000E+00 0. -1.
         21   -1    0    0  501  503 -0.00000000000E+00 -0.00000000000E+00 -0.69520410589E+02  0.69520410589E+02  0.00000000000E+00 0. -1.
    9000007    1    1    2  501    0  0.10081069309E+03  0.10934330381E+03  0.11237727400E+04  0.12020748417E+04  0.40000000000E+03 0.  1.
   -9000007    1    1    2    0  502 -0.10081069309E+03 -0.10934330381E+03  0.14688288087E+04  0.15295675282E+04  0.40000000000E+03 0.  1.
<mgrwt>
<rscale>  2 0.42675374E+03</rscale>
<asrwt>0</asrwt>
<pdfrwt beam="1">  1       21 0.40955715E+00 0.42675374E+03</pdfrwt>
<pdfrwt beam="2">  1       21 0.10695450E-01 0.42675374E+03</pdfrwt>
<totfact> 0.42884153E+02</totfact>
</mgrwt>
</event>
<event>
 4    1  0.4758602E-002  0.4392446E+03  0.7818608E-02  0.1030979E+00
         21   -1    0    0  503  502  0.00000000000E+00  0.00000000000E+00  0.16421581887E+03  0.16421581887E+03  0.00000000000E+00 0.  1.
         21   -1    0    0  501  503 -0.00000000000E+00 -0.00000000000E+00 -0.11907073300E+04  0.11907073300E+04  0.00000000000E+00 0.  1.
    9000007    1    1    2  501    0  0.36566756336E+01 -0.18144554135E+03 -0.43516914395E+03  0.61831063358E+03  0.40000000000E+03 0.  1.
   -9000007    1    1    2    0  502 -0.36566756336E+01  0.18144554135E+03 -0.59132236718E+03  0.73661251529E+03  0.40000000000E+03 0.  1.
<mgrwt>
<rscale>  2 0.43924464E+03</rscale>
<asrwt>0</asrwt>
<pdfrwt beam="1">  1       21 0.25263972E-01 0.43924464E+03</pdfrwt>
<pdfrwt beam="2">  1       21 0.18318574E+00 0.43924464E+03</pdfrwt>
<totfact> 0.21971519E+03</totfact>
</mgrwt>
</event>
<event>
 4    1  0.4758602E-002  0.4163951E+03  0.7818608E-02  0.1038246E+00
         21   -1    0    0  503  502  0.00000000000E+00  0.00000000000E+00  0.45918998687E+03  0.45918998687E+03  0.00000000000E+00 0. -1.
         21   -1    0    0  501  503 -0.00000000000E+00 -0.00000000000E+00 -0.38028691544E+03  0.38028691544E+03  0.00000000000E+00 0. -1.
    9000007    1    1    2  501    0 -0.10611110658E+03 -0.46100952997E+02  0.74808611584E+02  0.42306168956E+03  0.40000000000E+03 0. -1.
   -9000007    1    1    2    0  502  0.10611110658E+03  0.46100952997E+02  0.40944598415E+01  0.41641521275E+03  0.40000000000E+03 0. -1.
<mgrwt>
<rscale>  2 0.41639508E+03</rscale>
<asrwt>0</asrwt>
<pdfrwt beam="1">  1       21 0.70644613E-01 0.41639508E+03</pdfrwt>
<pdfrwt beam="2">  1       21 0.58505680E-01 0.41639508E+03</pdfrwt>
<totfact> 0.44097003E+03</totfact>
</mgrwt>
</event>
<event>
 4    1  0.4758602E-002  0.4015810E+03  0.7818608E-02  0.1043234E+00
         21   -1    0    0  501  502  0.00000000000E+00  0.00000000000E+00  0.23757160044E+03  0.23757160044E+03  0.00000000000E+00 0.  1.
         21   -1    0    0  502  503 -0.00000000000E+00 -0.00000000000E+00 -0.82058783071E+03  0.82058783071E+03  0.00000000000E+00 0.  1.
    9000007    1    1    2  501    0  0.34716172713E+02 -0.78771077182E+01 -0.71593311564E+02  0.40791281389E+03  0.40000000000E+03 0.  1.
   -9000007    1    1    2    0  503 -0.34716172713E+02  0.78771077182E+01 -0.51142291871E+03  0.65024661726E+03  0.40000000000E+03 0.  1.
<mgrwt>
<rscale>  2 0.40158095E+03</rscale>
<asrwt>0</asrwt>
<pdfrwt beam="1">  1       21 0.36549477E-01 0.40158095E+03</pdfrwt>
<pdfrwt beam="2">  1       21 0.12624428E+00 0.40158095E+03</pdfrwt>
<totfact> 0.29648702E+03</totfact>
</mgrwt>
</event>
<event>
 4    1  0.4758602E-002  0.5540217E+03  0.7818608E-02  0.1000567E+00
         21   -1    0    0  503  502  0.00000000000E+00  0.00000000000E+00  0.20086833697E+03  0.20086833697E+03  0.00000000000E+00 0.  1.
         21   -1    0    0  501  503 -0.00000000000E+00 -0.00000000000E+00 -0.17601630375E+04  0.17601630375E+04  0.00000000000E+00 0. -1.
    9000007    1    1    2  501    0 -0.18116616430E+03 -0.33781488605E+03 -0.11356989127E+04  0.12636265653E+04  0.40000000000E+03 0.  1.
   -9000007    1    1    2    0  502  0.18116616430E+03  0.33781488605E+03 -0.42359578781E+03  0.69740480911E+03  0.40000000000E+03 0. -1.
<mgrwt>
<rscale>  2 0.55402173E+03</rscale>
<asrwt>0</asrwt>
<pdfrwt beam="1">  1       21 0.30902822E-01 0.55402173E+03</pdfrwt>
<pdfrwt beam="2">  1       21 0.27079431E+00 0.55402173E+03</pdfrwt>
<totfact> 0.38518659E+02</totfact>
</mgrwt>
</event>
<event>
 4    1  0.4758602E-002  0.6839219E+03  0.7818608E-02  0.9745130E-01
         21   -1    0    0  503  502  0.00000000000E+00  0.00000000000E+00  0.13961421701E+04  0.13961421701E+04  0.00000000000E+00 0.  1.
         21   -1    0    0  501  503 -0.00000000000E+00 -0.00000000000E+00 -0.33505411567E+03  0.33505411567E+03  0.00000000000E+00 0.  1.
    9000007    1    1    2  501    0 -0.29282731407E+03 -0.47117016186E+03  0.52316193642E+03  0.86107349803E+03  0.40000000000E+03 0.  1.
   -9000007    1    1    2    0  502  0.29282731407E+03  0.47117016186E+03  0.53792611797E+03  0.87012278771E+03  0.40000000000E+03 0.  1.
<mgrwt>
<rscale>  2 0.68392189E+03</rscale>
<asrwt>0</asrwt>
<pdfrwt beam="1">  1       21 0.21479110E+00 0.68392189E+03</pdfrwt>
<pdfrwt beam="2">  1       21 0.51546788E-01 0.68392189E+03</pdfrwt>
<totfact> 0.28547119E+02</totfact>
</mgrwt>
</event>
<event>
 4    1  0.4758602E-002  0.4265321E+03  0.7818608E-02  0.1034961E+00
         21   -1    0    0  503  502  0.00000000000E+00  0.00000000000E+00  0.74008656559E+03  0.74008656559E+03  0.00000000000E+00 0. -1.
         21   -1    0    0  501  503 -0.00000000000E+00 -0.00000000000E+00 -0.47293341063E+03  0.47293341063E+03  0.00000000000E+00 0.  1.
    9000007    1    1    2  501    0 -0.13257495487E+03 -0.65981089865E+02 -0.28672145316E+03  0.51394436915E+03  0.40000000000E+03 0.  1.
   -9000007    1    1    2    0  502  0.13257495487E+03  0.65981089865E+02  0.55387460812E+03  0.69907560707E+03  0.40000000000E+03 0. -1.
<mgrwt>
<rscale>  2 0.42653209E+03</rscale>
<asrwt>0</asrwt>
<pdfrwt beam="1">  1       21 0.11385947E+00 0.42653209E+03</pdfrwt>
<pdfrwt beam="2">  1       21 0.72758986E-01 0.42653209E+03</pdfrwt>
<totfact> 0.87393136E+02</totfact>
</mgrwt>
</event>
<event>
 4    1  0.4758602E-002  0.4822242E+03  0.7818608E-02  0.1018526E+00
         21   -1    0    0  503  502  0.00000000000E+00  0.00000000000E+00  0.45176810221E+03  0.45176810221E+03  0.00000000000E+00 0.  1.
         21   -1    0    0  501  503 -0.00000000000E+00 -0.00000000000E+00 -0.78199424698E+03  0.78199424698E+03  0.00000000000E+00 0. -1.
    9000007    1    1    2  501    0  0.78280504707E+02 -0.25770592322E+03 -0.52574761311E+03  0.71340783075E+03  0.40000000000E+03 0. -1.
   -9000007    1    1    2    0  502 -0.78280504707E+02  0.25770592322E+03  0.19552146835E+03  0.52035451844E+03  0.40000000000E+03 0.  1.
<mgrwt>
<rscale>  2 0.48222420E+03</rscale>
<asrwt>0</asrwt>
<pdfrwt beam="1">  1       21 0.69502785E-01 0.48222420E+03</pdfrwt>
<pdfrwt beam="2">  1       21 0.12030681E+00 0.48222420E+03</pdfrwt>
<totfact> 0.82407585E+02</totfact>
</mgrwt>
</event>
<event>
 4    1  0.4758602E-002  0.6146024E+03  0.7818608E-02  0.9875565E-01
         21   -1    0    0  501  502  0.00000000000E+00  0.00000000000E+00  0.22398608092E+04  0.22398608092E+04  0.00000000000E+00 0. -1.
         21   -1    0    0  502  503 -0.00000000000E+00 -0.00000000000E+00 -0.17979308931E+03  0.17979308931E+03  0.00000000000E+00 0. -1.
    9000007    1    1    2  501    0  0.29073146176E+03 -0.36498125462E+03  0.13313222717E+04  0.14663407142E+04  0.40000000000E+03 0. -1.
   -9000007    1    1    2    0  503 -0.29073146176E+03  0.36498125462E+03  0.72874544820E+03  0.95331318430E+03  0.40000000000E+03 0. -1.
<mgrwt>
<rscale>  2 0.61460239E+03</rscale>
<asrwt>0</asrwt>
<pdfrwt beam="1">  1       21 0.34459395E+00 0.61460239E+03</pdfrwt>
<pdfrwt beam="2">  1       21 0.27660477E-01 0.61460239E+03</pdfrwt>
<totfact> 0.16551982E+02</totfact>
</mgrwt>
</event>
<event>
 4    1  0.4758602E-002  0.5499125E+03  0.7818608E-02  0.1001514E+00
         21   -1    0    0  501  502  0.00000000000E+00  0.00000000000E+00  0.94119198720E+03  0.94119198720E+03  0.00000000000E+00 0.  1.
         21   -1    0    0  502  503 -0.00000000000E+00 -0.00000000000E+00 -0.10815584028E+04  0.10815584028E+04  0.00000000000E+00 0.  1.
    9000007    1    1    2  501    0  0.58173278754E+02 -0.37285333696E+03  0.77776299964E+03  0.95253295211E+03  0.40000000000E+03 0.  1.
   -9000007    1    1    2    0  503 -0.58173278754E+02  0.37285333696E+03 -0.91812941524E+03  0.10702174379E+04  0.40000000000E+03 0.  1.
<mgrwt>
<rscale>  2 0.54991249E+03</rscale>
<asrwt>0</asrwt>
<pdfrwt beam="1">  1       21 0.14479877E+00 0.54991249E+03</pdfrwt>
<pdfrwt beam="2">  1       21 0.16639360E+00 0.54991249E+03</pdfrwt>
<totfact> 0.55485751E+01</totfact>
</mgrwt>
</event>
<event>
 4    1  0.4758602E-002  0.4593940E+03  0.7818608E-02  0.1024957E+00
         21   -1    0    0  501  502  0.00000000000E+00  0.00000000000E+00  0.26629111430E+03  0.26629111430E+03  0.00000000000E+00 0.  1.
         21   -1    0    0  502  503 -0.00000000000E+00 -0.00000000000E+00 -0.79615015919E+03  0.79615015919E+03  0.00000000000E+00 0. -1.
    9000007    1    1    2  501    0 -0.17749448875E+02  0.22522842276E+03 -0.30076589041E+03  0.54909289395E+03  0.40000000000E+03 0. -1.
   -9000007    1    1    2    0  503  0.17749448875E+02 -0.22522842276E+03 -0.22909315448E+03  0.51334837955E+03  0.40000000000E+03 0.  1.
<mgrwt>
<rscale>  2 0.45939404E+03</rscale>
<asrwt>0</asrwt>
<pdfrwt beam="1">  1       21 0.40967864E-01 0.45939404E+03</pdfrwt>
<pdfrwt beam="2">  1       21 0.12248464E+00 0.45939404E+03</pdfrwt>
<totfact> 0.24797556E+03</totfact>
</mgrwt>
</event>
<event>
 4    1  0.4758602E-002  0.4382544E+03  0.7818608E-02  0.1031284E+00
         21   -1    0    0  501  502  0.00000000000E+00  0.00000000000E+00  0.33103752787E+03  0.33103752787E+03  0.00000000000E+00 0.  1.
         21   -1    0    0  502  503 -0.00000000000E+00 -0.00000000000E+00 -0.82067325972E+03  0.82067325972E+03  0.00000000000E+00 0. -1.
    9000007    1    1    2  501    0 -0.10586946724E+03  0.14442509282E+03  0.66902000172E+02  0.44333151158E+03  0.40000000000E+03 0.  1.
   -9000007    1    1    2    0  503  0.10586946724E+03 -0.14442509282E+03 -0.55653773202E+03  0.70837927602E+03  0.40000000000E+03 0. -1.
<mgrwt>
<rscale>  2 0.43825444E+03</rscale>
<asrwt>0</asrwt>
<pdfrwt beam="1">  1       21 0.50928851E-01 0.43825444E+03</pdfrwt>
<pdfrwt beam="2">  1       21 0.12625742E+00 0.43825444E+03</pdfrwt>
<totfact> 0.14644997E+03</totfact>
</mgrwt>
</event>
<event>
 4    1  0.4758602E-002  0.4298837E+03  0.7818608E-02  0.1033897E+00
         21   -1    0    0  503  502  0.00000000000E+00  0.00000000000E+00  0.80489422892E+03  0.80489422892E+03  0.00000000000E+00 0.  1.
         21   -1    0    0  501  503 -0.00000000000E+00 -0.00000000000E+00 -0.28863194029E+03  0.28863194029E+03  0.00000000000E+00 0.  1.
    9000007    1    1    2  501    0  0.12625632718E+03  0.94124235274E+02  0.10852078529E+02  0.43002069651E+03  0.40000000000E+03 0.  1.
   -9000007    1    1    2    0  502 -0.12625632718E+03 -0.94124235274E+02  0.50541021010E+03  0.66350547270E+03  0.40000000000E+03 0.  1.
<mgrwt>
<rscale>  2 0.42988374E+03</rscale>
<asrwt>0</asrwt>
<pdfrwt beam="1">  1       21 0.12382988E+00 0.42988374E+03</pdfrwt>
<pdfrwt beam="2">  1       21 0.44404914E-01 0.42988374E+03</pdfrwt>
<totfact> 0.20627239E+03</totfact>
</mgrwt>
</event>
<event>
 4    1  0.4758602E-002  0.4168737E+03  0.7818608E-02  0.1038089E+00
         21   -1    0    0  503  502  0.00000000000E+00  0.00000000000E+00  0.81750853096E+03  0.81750853096E+03  0.00000000000E+00 0. -1.
         21   -1    0    0  501  503 -0.00000000000E+00 -0.00000000000E+00 -0.27505773725E+03  0.27505773725E+03  0.00000000000E+00 0. -1.
    9000007    1    1    2  501    0 -0.41660379450E+01  0.11732984018E+03  0.53158784872E+03  0.67555109961E+03  0.40000000000E+03 0. -1.
   -9000007    1    1    2    0  502  0.41660379450E+01 -0.11732984018E+03  0.10862944989E+02  0.41701516860E+03  0.40000000000E+03 0. -1.
<mgrwt>
<rscale>  2 0.41687366E+03</rscale>
<asrwt>0</asrwt>
<pdfrwt beam="1">  1       21 0.12577054E+00 0.41687366E+03</pdfrwt>
<pdfrwt beam="2">  1       21 0.42316575E-01 0.41687366E+03</pdfrwt>
<totfact> 0.22025832E+03</totfact>
</mgrwt>
</event>
<event>
 4    1  0.4758602E-002  0.4807577E+03  0.7818608E-02  0.1018927E+00
         21   -1    0    0  503  502  0.00000000000E+00  0.00000000000E+00  0.19628904846E+04  0.19628904846E+04  0.00000000000E+00 0.  1.
         21   -1    0    0  501  503 -0.00000000000E+00 -0.00000000000E+00 -0.15521826361E+03  0.15521826361E+03  0.00000000000E+00 0.  1.
    9000007    1    1    2  501    0  0.23070123040E+03 -0.13380925581E+03  0.38349797305E+03  0.61497859311E+03  0.40000000000E+03 0.  1.
   -9000007    1    1    2    0  502 -0.23070123040E+03  0.13380925581E+03  0.14241742479E+04  0.15031301551E+04  0.40000000000E+03 0.  1.
<mgrwt>
<rscale>  2 0.48075771E+03</rscale>
<asrwt>0</asrwt>
<pdfrwt beam="1">  1       21 0.30198313E+00 0.48075771E+03</pdfrwt>
<pdfrwt beam="2">  1       21 0.23879734E-01 0.48075771E+03</pdfrwt>
<totfact> 0.42923155E+02</totfact>
</mgrwt>
</event>
<event>
 4    1  0.4758602E-002  0.5038240E+03  0.7818608E-02  0.1012786E+00
         21   -1    0    0  501  502  0.00000000000E+00  0.00000000000E+00  0.22407056621E+03  0.22407056621E+03  0.00000000000E+00 0.  1.
         21   -1    0    0  502  503 -0.00000000000E+00 -0.00000000000E+00 -0.12549066865E+04  0.12549066865E+04  0.00000000000E+00 0.  1.
    9000007    1    1    2  501    0 -0.18832196220E+03 -0.24160593527E+03 -0.74604211162E+03  0.90023187108E+03  0.40000000000E+03 0.  1.
   -9000007    1    1    2    0  503  0.18832196220E+03  0.24160593527E+03 -0.28479400871E+03  0.57874538167E+03  0.40000000000E+03 0.  1.
<mgrwt>
<rscale>  2 0.50382397E+03</rscale>
<asrwt>0</asrwt>
<pdfrwt beam="1">  1       21 0.34472395E-01 0.50382397E+03</pdfrwt>
<pdfrwt beam="2">  1       21 0.19306257E+00 0.50382397E+03</pdfrwt>
<totfact> 0.98687796E+02</totfact>
</mgrwt>
</event>
<event>
 4    1  0.4758602E-002  0.4258232E+03  0.7818608E-02  0.1035188E+00
         21   -1    0    0  503  502  0.00000000000E+00  0.00000000000E+00  0.29702216431E+03  0.29702216431E+03  0.00000000000E+00 0.  1.
         21   -1    0    0  501  503 -0.00000000000E+00 -0.00000000000E+00 -0.99790806646E+03  0.99790806646E+03  0.00000000000E+00 0.  1.
    9000007    1    1    2  501    0 -0.53466314716E+01 -0.14593427168E+03 -0.75387273192E+03  0.86582301543E+03  0.40000000000E+03 0.  1.
   -9000007    1    1    2    0  502  0.53466314716E+01  0.14593427168E+03  0.52986829767E+02  0.42910721533E+03  0.40000000000E+03 0.  1.
<mgrwt>
<rscale>  2 0.42582320E+03</rscale>
<asrwt>0</asrwt>
<pdfrwt beam="1">  1       21 0.45695718E-01 0.42582320E+03</pdfrwt>
<pdfrwt beam="2">  1       21 0.15352432E+00 0.42582320E+03</pdfrwt>
<totfact> 0.11030034E+03</totfact>
</mgrwt>
</event>
<event>
 4    1  0.4758602E-002  0.4036904E+03  0.7818608E-02  0.1042509E+00
         21   -1    0    0  503  502  0.00000000000E+00  0.00000000000E+00  0.28595958509E+03  0.28595958509E+03  0.00000000000E+00 0.  1.
         21   -1    0    0  501  503 -0.00000000000E+00 -0.00000000000E+00 -0.63983309293E+03  0.63983309293E+03  0.00000000000E+00 0.  1.
    9000007    1    1    2  501    0 -0.50028474723E+02 -0.21518670593E+02 -0.32998154079E+03  0.52139593279E+03  0.40000000000E+03 0.  1.
   -9000007    1    1    2    0  502  0.50028474723E+02  0.21518670593E+02 -0.23891967054E+02  0.40439674524E+03  0.40000000000E+03 0.  1.
<mgrwt>
<rscale>  2 0.40369035E+03</rscale>
<asrwt>0</asrwt>
<pdfrwt beam="1">  1       21 0.43993783E-01 0.40369035E+03</pdfrwt>
<pdfrwt beam="2">  1       21 0.98435859E-01 0.40369035E+03</pdfrwt>
<totfact> 0.37564021E+03</totfact>
</mgrwt>
</event>
<event>
 4    1  0.4758602E-002  0.4569120E+03  0.7818608E-02  0.1025681E+00
         21   -1    0    0  501  502  0.00000000000E+00  0.00000000000E+00  0.19180465699E+04  0.19180465699E+04  0.00000000000E+00 0. -1.
         21   -1    0    0  502  503 -0.00000000000E+00 -0.00000000000E+00 -0.26581377997E+03  0.26581377997E+03  0.00000000000E+00 0. -1.
    9000007    1    1    2  501    0 -0.94196107064E+02 -0.19973906176E+03  0.16652161882E+04  0.17267638961E+04  0.40000000000E+03 0. -1.
   -9000007    1    1    2    0  503  0.94196107064E+02  0.19973906176E+03 -0.12983398328E+02  0.45709645373E+03  0.40000000000E+03 0. -1.
<mgrwt>
<rscale>  2 0.45691203E+03</rscale>
<asrwt>0</asrwt>
<pdfrwt beam="1">  1       21 0.29508408E+00 0.45691203E+03</pdfrwt>
<pdfrwt beam="2">  1       21 0.40894429E-01 0.45691203E+03</pdfrwt>
<totfact> 0.16333582E+02</totfact>
</mgrwt>
</event>
<event>
 4    1  0.4758602E-002  0.4799801E+03  0.7818608E-02  0.1019141E+00
         21   -1    0    0  501  502  0.00000000000E+00  0.00000000000E+00  0.12400876780E+04  0.12400876780E+04  0.00000000000E+00 0.  1.
         21   -1    0    0  502  503 -0.00000000000E+00 -0.00000000000E+00 -0.18650824219E+03  0.18650824219E+03  0.00000000000E+00 0. -1.
    9000007    1    1    2  501    0  0.41554803220E+02  0.26201929094E+03  0.57142506965E+03  0.74626236721E+03  0.40000000000E+03 0. -1.
   -9000007    1    1    2    0  503 -0.41554803220E+02 -0.26201929094E+03  0.48215436612E+03  0.68033355294E+03  0.40000000000E+03 0.  1.
<mgrwt>
<rscale>  2 0.47998011E+03</rscale>
<asrwt>0</asrwt>
<pdfrwt beam="1">  1       21 0.19078271E+00 0.47998011E+03</pdfrwt>
<pdfrwt beam="2">  1       21 0.28693576E-01 0.47998011E+03</pdfrwt>
<totfact> 0.14912577E+03</totfact>
</mgrwt>
</event>
<event>
 4    1  0.4758602E-002  0.5088947E+03  0.7818608E-02  0.1011483E+00
         21   -1    0    0  503  502  0.00000000000E+00  0.00000000000E+00  0.45012234332E+03  0.45012234332E+03  0.00000000000E+00 0. -1.
         21   -1    0    0  501  503 -0.00000000000E+00 -0.00000000000E+00 -0.85838941201E+03  0.85838941201E+03  0.00000000000E+00 0.  1.
    9000007    1    1    2  501    0  0.22698746863E+03  0.21783140673E+03  0.17156182380E+03  0.53703565250E+03  0.40000000000E+03 0. -1.
   -9000007    1    1    2    0  502 -0.22698746863E+03 -0.21783140673E+03 -0.57982889249E+03  0.77147610283E+03  0.40000000000E+03 0.  1.
<mgrwt>
<rscale>  2 0.50889472E+03</rscale>
<asrwt>0</asrwt>
<pdfrwt beam="1">  1       21 0.69249592E-01 0.50889472E+03</pdfrwt>
<pdfrwt beam="2">  1       21 0.13205991E+00 0.50889472E+03</pdfrwt>
<totfact> 0.64624453E+02</totfact>
</mgrwt>
</event>
<event>
 4    1  0.4758602E-002  0.4483531E+03  0.7818608E-02  0.1028214E+00
         21   -1    0    0  501  502  0.00000000000E+00  0.00000000000E+00  0.42452701832E+03  0.42452701832E+03  0.00000000000E+00 0. -1.
         21   -1    0    0  502  503 -0.00000000000E+00 -0.00000000000E+00 -0.13317350890E+04  0.13317350890E+04  0.00000000000E+00 0. -1.
    9000007    1    1    2  501    0  0.93364109221E+02 -0.17973223953E+03  0.25133146239E+03  0.51399225559E+03  0.40000000000E+03 0. -1.
   -9000007    1    1    2    0  503 -0.93364109221E+02  0.17973223953E+03 -0.11585395331E+04  0.12422698517E+04  0.40000000000E+03 0. -1.
<mgrwt>
<rscale>  2 0.44835314E+03</rscale>
<asrwt>0</asrwt>
<pdfrwt beam="1">  1       21 0.65311850E-01 0.44835314E+03</pdfrwt>
<pdfrwt beam="2">  1       21 0.20488232E+00 0.44835314E+03</pdfrwt>
<totfact> 0.21818313E+02</totfact>
</mgrwt>
</event>
<event>
 4    1  0.4758602E-002  0.5592424E+03  0.7818608E-02  0.9993770E-01
         21   -1    0    0  503  502  0.00000000000E+00  0.00000000000E+00  0.17939086180E+04  0.17939086180E+04  0.00000000000E+00 0.  1.
         21   -1    0    0  501  503 -0.00000000000E+00 -0.00000000000E+00 -0.27728615395E+03  0.27728615395E+03  0.00000000000E+00 0. -1.
    9000007    1    1    2  501    0  0.32941351823E+03  0.21033018759E+03  0.12731097649E+03  0.57355046730E+03  0.40000000000E+03 0. -1.
   -9000007    1    1    2    0  502 -0.32941351823E+03 -0.21033018759E+03  0.13893114876E+04  0.14976443047E+04  0.40000000000E+03 0.  1.
<mgrwt>
<rscale>  2 0.55924239E+03</rscale>
<asrwt>0</asrwt>
<pdfrwt beam="1">  1       21 0.27598593E+00 0.55924239E+03</pdfrwt>
<pdfrwt beam="2">  1       21 0.42659409E-01 0.55924239E+03</pdfrwt>
<totfact> 0.18485830E+02</totfact>
</mgrwt>
</event>
<event>
 4    1  0.4758602E-002  0.5450105E+03  0.7818608E-02  0.1002655E+00
         21   -1    0    0  501  502  0.00000000000E+00  0.00000000000E+00  0.30391597281E+03  0.30391597281E+03  0.00000000000E+00 0. -1.
         21   -1    0    0  502  503 -0.00000000000E+00 -0.00000000000E+00 -0.12727308032E+04  0.12727308032E+04  0.00000000000E+00 0. -1.
    9000007    1    1    2  501    0 -0.36632330113E+03 -0.53325975069E+02 -0.10464039943E+03  0.55496489417E+03  0.40000000000E+03 0. -1.
   -9000007    1    1    2    0  503  0.36632330113E+03  0.53325975069E+02 -0.86417443094E+03  0.10216818818E+04  0.40000000000E+03 0. -1.
<mgrwt>
<rscale>  2 0.54501048E+03</rscale>
<asrwt>0</asrwt>
<pdfrwt beam="1">  1       21 0.46756304E-01 0.54501048E+03</pdfrwt>
<pdfrwt beam="2">  1       21 0.19580474E+00 0.54501048E+03</pdfrwt>
<totfact> 0.49509478E+02</totfact>
</mgrwt>
</event>
<event>
 4    1  0.4758602E-002  0.4324868E+03  0.7818608E-02  0.1033077E+00
         21   -1    0    0  501  502  0.00000000000E+00  0.00000000000E+00  0.30776921824E+03  0.30776921824E+03  0.00000000000E+00 0.  1.
         21   -1    0    0  502  503 -0.00000000000E+00 -0.00000000000E+00 -0.82431963469E+03  0.82431963469E+03  0.00000000000E+00 0.  1.
    9000007    1    1    2  501    0 -0.11431688702E+03 -0.11822200661E+03  0.31864939131E+02  0.43365904562E+03  0.40000000000E+03 0.  1.
   -9000007    1    1    2    0  503  0.11431688702E+03  0.11822200661E+03 -0.54841535558E+03  0.69842980731E+03  0.40000000000E+03 0.  1.
<mgrwt>
<rscale>  2 0.43248676E+03</rscale>
<asrwt>0</asrwt>
<pdfrwt beam="1">  1       21 0.47349110E-01 0.43248676E+03</pdfrwt>
<pdfrwt beam="2">  1       21 0.12681841E+00 0.43248676E+03</pdfrwt>
<totfact> 0.16937886E+03</totfact>
</mgrwt>
</event>
<event>
 4    1  0.4758602E-002  0.4325329E+03  0.7818608E-02  0.1033063E+00
         21   -1    0    0  501  502  0.00000000000E+00  0.00000000000E+00  0.14663663953E+03  0.14663663953E+03  0.00000000000E+00 0.  1.
         21   -1    0    0  502  503 -0.00000000000E+00 -0.00000000000E+00 -0.15214223925E+04  0.15214223925E+04  0.00000000000E+00 0.  1.
    9000007    1    1    2  501    0  0.74198882536E+02  0.14689880037E+03 -0.10224787250E+04  0.11102015470E+04  0.40000000000E+03 0. -1.
   -9000007    1    1    2    0  503 -0.74198882536E+02 -0.14689880037E+03 -0.35230702796E+03  0.55785748509E+03  0.40000000000E+03 0. -1.
<mgrwt>
<rscale>  2 0.43253293E+03</rscale>
<asrwt>0</asrwt>
<pdfrwt beam="1">  1       21 0.22559482E-01 0.43253293E+03</pdfrwt>
<pdfrwt beam="2">  1       21 0.23406500E+00 0.43253293E+03</pdfrwt>
<totfact> 0.12728809E+03</totfact>
</mgrwt>
</event>
<event>
 4    1  0.4758602E-002  0.4615950E+03  0.7818608E-02  0.1024320E+00
         21   -1    0    0  503  502  0.00000000000E+00  0.00000000000E+00  0.15357530769E+04  0.15357530769E+04  0.00000000000E+00 0.  1.
         21   -1    0    0  501  503 -0.00000000000E+00 -0.00000000000E+00 -0.22774946885E+03  0.22774946885E+03  0.00000000000E+00 0. -1.
    9000007    1    1    2  501    0  0.17340577593E+03 -0.15165889528E+03  0.10276761451E+03  0.47289657034E+03  0.40000000000E+03 0. -1.
   -9000007    1    1    2    0  502 -0.17340577593E+03  0.15165889528E+03  0.12052359936E+04  0.12906059754E+04  0.40000000000E+03 0.  1.
<mgrwt>
<rscale>  2 0.46159504E+03</rscale>
<asrwt>0</asrwt>
<pdfrwt beam="1">  1       21 0.23626970E+00 0.46159504E+03</pdfrwt>
<pdfrwt beam="2">  1       21 0.35038381E-01 0.46159504E+03</pdfrwt>
<totfact> 0.50997405E+02</totfact>
</mgrwt>
</event>
<event>
 4    1  0.4758602E-002  0.5849802E+03  0.7818608E-02  0.9937067E-01
         21   -1    0    0  501  502  0.00000000000E+00  0.00000000000E+00  0.64522406256E+03  0.64522406256E+03  0.00000000000E+00 0.  1.
         21   -1    0    0  502  503 -0.00000000000E+00 -0.00000000000E+00 -0.67564065440E+03  0.67564065440E+03  0.00000000000E+00 0.  1.
    9000007    1    1    2  501    0  0.40960595710E+03  0.12010344815E+03  0.29103909269E+03  0.65338015873E+03  0.40000000000E+03 0.  1.
   -9000007    1    1    2    0  503 -0.40960595710E+03 -0.12010344815E+03 -0.32145568453E+03  0.66748455822E+03  0.40000000000E+03 0.  1.
<mgrwt>
<rscale>  2 0.58498024E+03</rscale>
<asrwt>0</asrwt>
<pdfrwt beam="1">  1       21 0.99265241E-01 0.58498024E+03</pdfrwt>
<pdfrwt beam="2">  1       21 0.10394472E+00 0.58498024E+03</pdfrwt>
<totfact> 0.49695128E+02</totfact>
</mgrwt>
</event>
<event>
 4    1  0.4758602E-002  0.4886242E+03  0.7818608E-02  0.1016792E+00
         21   -1    0    0  503  502  0.00000000000E+00  0.00000000000E+00  0.58766916722E+03  0.58766916722E+03  0.00000000000E+00 0.  1.
         21   -1    0    0  501  503 -0.00000000000E+00 -0.00000000000E+00 -0.44604388054E+03  0.44604388054E+03  0.00000000000E+00 0.  1.
    9000007    1    1    2  501    0  0.22267061810E+03 -0.17079632034E+03  0.22514916988E+03  0.53800161329E+03  0.40000000000E+03 0.  1.
   -9000007    1    1    2    0  502 -0.22267061810E+03  0.17079632034E+03 -0.83523883203E+02  0.49571143448E+03  0.40000000000E+03 0.  1.
<mgrwt>
<rscale>  2 0.48862418E+03</rscale>
<asrwt>0</asrwt>
<pdfrwt beam="1">  1       21 0.90410641E-01 0.48862418E+03</pdfrwt>
<pdfrwt beam="2">  1       21 0.68622135E-01 0.48862418E+03</pdfrwt>
<totfact> 0.17071922E+03</totfact>
</mgrwt>
</event>
<event>
 4    1  0.4758602E-002  0.4828240E+03  0.7818608E-02  0.1018362E+00
         21   -1    0    0  501  502  0.00000000000E+00  0.00000000000E+00  0.23995207567E+03  0.23995207567E+03  0.00000000000E+00 0.  1.
         21   -1    0    0  502  503 -0.00000000000E+00 -0.00000000000E+00 -0.11860595044E+04  0.11860595044E+04  0.00000000000E+00 0. -1.
    9000007    1    1    2  501    0 -0.74950067934E+02  0.25981054003E+03 -0.16981117373E+03  0.51181526366E+03  0.40000000000E+03 0. -1.
   -9000007    1    1    2    0  503  0.74950067934E+02 -0.25981054003E+03 -0.77629625498E+03  0.91419631639E+03  0.40000000000E+03 0. -1.
<mgrwt>
<rscale>  2 0.48282401E+03</rscale>
<asrwt>0</asrwt>
<pdfrwt beam="1">  1       21 0.36915703E-01 0.48282401E+03</pdfrwt>
<pdfrwt beam="2">  1       21 0.18247070E+00 0.48282401E+03</pdfrwt>
<totfact> 0.10250108E+03</totfact>
</mgrwt>
</event>
<event>
 4    1  0.4758602E-002  0.4789232E+03  0.7818608E-02  0.1019432E+00
         21   -1    0    0  503  502  0.00000000000E+00  0.00000000000E+00  0.18201496848E+03  0.18201496848E+03  0.00000000000E+00 0.  1.
         21   -1    0    0  501  503 -0.00000000000E+00 -0.00000000000E+00 -0.13066791263E+04  0.13066791263E+04  0.00000000000E+00 0. -1.
    9000007    1    1    2  501    0  0.44316629025E+02  0.25962185305E+03 -0.70278148618E+03  0.85045240167E+03  0.40000000000E+03 0. -1.
   -9000007    1    1    2    0  502 -0.44316629025E+02 -0.25962185305E+03 -0.42188267161E+03  0.63824169308E+03  0.40000000000E+03 0.  1.
<mgrwt>
<rscale>  2 0.47892324E+03</rscale>
<asrwt>0</asrwt>
<pdfrwt beam="1">  1       21 0.28002303E-01 0.47892324E+03</pdfrwt>
<pdfrwt beam="2">  1       21 0.20102756E+00 0.47892324E+03</pdfrwt>
<totfact> 0.13348382E+03</totfact>
</mgrwt>
</event>
<event>
 4    1  0.4758602E-002  0.6198188E+03  0.7818608E-02  0.9865121E-01
         21   -1    0    0  501  502  0.00000000000E+00  0.00000000000E+00  0.24881679330E+03  0.24881679330E+03  0.00000000000E+00 0.  1.
         21   -1    0    0  502  503 -0.00000000000E+00 -0.00000000000E+00 -0.15519556509E+04  0.15519556509E+04  0.00000000000E+00 0. -1.
    9000007    1    1    2  501    0  0.47328978478E+03 -0.13117266562E+02 -0.58713906178E+03  0.85376083356E+03  0.40000000000E+03 0.  1.
   -9000007    1    1    2    0  503 -0.47328978478E+03  0.13117266562E+02 -0.71599979581E+03  0.94701161062E+03  0.40000000000E+03 0. -1.
<mgrwt>
<rscale>  2 0.61981875E+03</rscale>
<asrwt>0</asrwt>
<pdfrwt beam="1">  1       21 0.38279507E-01 0.61981875E+03</pdfrwt>
<pdfrwt beam="2">  1       21 0.23876241E+00 0.61981875E+03</pdfrwt>
<totfact> 0.38338210E+02</totfact>
</mgrwt>
</event>
<event>
 4    1  0.4758602E-002  0.4177412E+03  0.7818608E-02  0.1037804E+00
         21   -1    0    0  503  502  0.00000000000E+00  0.00000000000E+00  0.27394511611E+04  0.27394511611E+04  0.00000000000E+00 0.  1.
         21   -1    0    0  501  503 -0.00000000000E+00 -0.00000000000E+00 -0.66066477835E+02  0.66066477835E+02  0.00000000000E+00 0.  1.
    9000007    1    1    2  501    0 -0.83128365502E+02  0.87162967414E+02  0.10713007242E+04  0.11498664921E+04  0.40000000000E+03 0.  1.
   -9000007    1    1    2    0  502  0.83128365502E+02 -0.87162967414E+02  0.16020839591E+04  0.16556511469E+04  0.40000000000E+03 0.  1.
<mgrwt>
<rscale>  2 0.41774120E+03</rscale>
<asrwt>0</asrwt>
<pdfrwt beam="1">  1       21 0.42145394E+00 0.41774120E+03</pdfrwt>
<pdfrwt beam="2">  1       21 0.10164076E-01 0.41774120E+03</pdfrwt>
<totfact> 0.39572363E+02</totfact>
</mgrwt>
</event>
<event>
 4    1  0.4758602E-002  0.4514027E+03  0.7818608E-02  0.1027305E+00
         21   -1    0    0  501  502  0.00000000000E+00  0.00000000000E+00  0.18358483404E+04  0.18358483404E+04  0.00000000000E+00 0. -1.
         21   -1    0    0  502  503 -0.00000000000E+00 -0.00000000000E+00 -0.13166744632E+03  0.13166744632E+03  0.00000000000E+00 0. -1.
    9000007    1    1    2  501    0 -0.66674778412E+02 -0.19828996712E+03  0.12419217504E+04  0.13214136640E+04  0.40000000000E+03 0. -1.
   -9000007    1    1    2    0  503  0.66674778412E+02  0.19828996712E+03  0.46225914362E+03  0.64610212273E+03  0.40000000000E+03 0. -1.
<mgrwt>
<rscale>  2 0.45140274E+03</rscale>
<asrwt>0</asrwt>
<pdfrwt beam="1">  1       21 0.28243819E+00 0.45140274E+03</pdfrwt>
<pdfrwt beam="2">  1       21 0.20256532E-01 0.45140274E+03</pdfrwt>
<totfact> 0.78475773E+02</totfact>
</mgrwt>
</event>
<event>
 4    1  0.4758602E-002  0.8759347E+03  0.7818608E-02  0.9456174E-01
         21   -1    0    0  503  502  0.00000000000E+00  0.00000000000E+00  0.87526827548E+03  0.87526827548E+03  0.00000000000E+00 0. -1.
         21   -1    0    0  501  503 -0.00000000000E+00 -0.00000000000E+00 -0.19302309044E+04  0.19302309044E+04  0.00000000000E+00 0.  1.
    9000007    1    1    2  501    0  0.64196443269E+03  0.44175020783E+03 -0.15638623007E+04  0.17924639116E+04  0.40000000000E+03 0.  1.
   -9000007    1    1    2    0  502 -0.64196443269E+03 -0.44175020783E+03  0.50889967171E+03  0.10130352683E+04  0.40000000000E+03 0. -1.
<mgrwt>
<rscale>  2 0.87593469E+03</rscale>
<asrwt>0</asrwt>
<pdfrwt beam="1">  1       21 0.13465666E+00 0.87593469E+03</pdfrwt>
<pdfrwt beam="2">  1       21 0.29695860E+00 0.87593469E+03</pdfrwt>
<totfact> 0.82545094E+00</totfact>
</mgrwt>
</event>
<event>
 4    1  0.4758602E-002  0.6007338E+03  0.7818608E-02  0.9903885E-01
         21   -1    0    0  501  502  0.00000000000E+00  0.00000000000E+00  0.11802313954E+03  0.11802313954E+03  0.00000000000E+00 0. -1.
         21   -1    0    0  502  503 -0.00000000000E+00 -0.00000000000E+00 -0.33486377419E+04  0.33486377419E+04  0.00000000000E+00 0. -1.
    9000007    1    1    2  501    0 -0.44673999223E+03  0.36117918663E+02 -0.11044070544E+04  0.12572175891E+04  0.40000000000E+03 0. -1.
   -9000007    1    1    2    0  503  0.44673999223E+03 -0.36117918663E+02 -0.21262075480E+04  0.22094432923E+04  0.40000000000E+03 0. -1.
<mgrwt>
<rscale>  2 0.60073382E+03</rscale>
<asrwt>0</asrwt>
<pdfrwt beam="1">  1       21 0.18157409E-01 0.60073382E+03</pdfrwt>
<pdfrwt beam="2">  1       21 0.51517495E+00 0.60073382E+03</pdfrwt>
<totfact> 0.27229114E+01</totfact>
</mgrwt>
</event>
<event>
 4    1  0.4758602E-002  0.4096143E+03  0.7818608E-02  0.1040501E+00
         21   -1    0    0  503  502  0.00000000000E+00  0.00000000000E+00  0.27440968106E+03  0.27440968106E+03  0.00000000000E+00 0.  1.
         21   -1    0    0  501  503 -0.00000000000E+00 -0.00000000000E+00 -0.12477467279E+04  0.12477467279E+04  0.00000000000E+00 0.  1.
    9000007    1    1    2  501    0  0.70878312350E+02  0.52536889441E+02 -0.10301701016E+04  0.11086181931E+04  0.40000000000E+03 0.  1.
   -9000007    1    1    2    0  502 -0.70878312350E+02 -0.52536889441E+02  0.56833054669E+02  0.41353821591E+03  0.40000000000E+03 0.  1.
<mgrwt>
<rscale>  2 0.40961428E+03</rscale>
<asrwt>0</asrwt>
<pdfrwt beam="1">  1       21 0.42216874E-01 0.40961428E+03</pdfrwt>
<pdfrwt beam="2">  1       21 0.19196103E+00 0.40961428E+03</pdfrwt>
<totfact> 0.69226640E+02</totfact>
</mgrwt>
</event>
<event>
 4    1  0.4758602E-002  0.4508192E+03  0.7818608E-02  0.1027478E+00
         21   -1    0    0  501  502  0.00000000000E+00  0.00000000000E+00  0.15326749199E+04  0.15326749199E+04  0.00000000000E+00 0. -1.
         21   -1    0    0  502  503 -0.00000000000E+00 -0.00000000000E+00 -0.54828909872E+03  0.54828909872E+03  0.00000000000E+00 0. -1.
    9000007    1    1    2  501    0 -0.20758404163E+03  0.12118646371E+02  0.13981597059E+04  0.14690434163E+04  0.40000000000E+03 0. -1.
   -9000007    1    1    2    0  503  0.20758404163E+03 -0.12118646371E+02 -0.41377388466E+03  0.61192060233E+03  0.40000000000E+03 0. -1.
<mgrwt>
<rscale>  2 0.45081925E+03</rscale>
<asrwt>0</asrwt>
<pdfrwt beam="1">  1       21 0.23579614E+00 0.45081925E+03</pdfrwt>
<pdfrwt beam="2">  1       21 0.84352169E-01 0.45081925E+03</pdfrwt>
<totfact> 0.77144261E+01</totfact>
</mgrwt>
</event>
<event>
 4    1  0.4758602E-002  0.4805575E+03  0.7818608E-02  0.1018982E+00
         21   -1    0    0  501  502  0.00000000000E+00  0.00000000000E+00  0.23676945599E+04  0.23676945599E+04  0.00000000000E+00 0. -1.
         21   -1    0    0  502  503 -0.00000000000E+00 -0.00000000000E+00 -0.10823684751E+03  0.10823684751E+03  0.00000000000E+00 0. -1.
    9000007    1    1    2  501    0 -0.16121754102E+03  0.21200094077E+03  0.74047779118E+03  0.88274733284E+03  0.40000000000E+03 0. -1.
   -9000007    1    1    2    0  503  0.16121754102E+03 -0.21200094077E+03  0.15189799212E+04  0.15931840745E+04  0.40000000000E+03 0. -1.
<mgrwt>
<rscale>  2 0.48055748E+03</rscale>
<asrwt>0</asrwt>
<pdfrwt beam="1">  1       21 0.36426066E+00 0.48055748E+03</pdfrwt>
<pdfrwt beam="2">  1       21 0.16651824E-01 0.48055748E+03</pdfrwt>
<totfact> 0.35572205E+02</totfact>
</mgrwt>
</event>
<event>
 4    1  0.4758602E-002  0.4123385E+03  0.7818608E-02  0.1039589E+00
         21   -1    0    0  503  502  0.00000000000E+00  0.00000000000E+00  0.12885879590E+04  0.12885879590E+04  0.00000000000E+00 0.  1.
         21   -1    0    0  501  503 -0.00000000000E+00 -0.00000000000E+00 -0.13509936849E+03  0.13509936849E+03  0.00000000000E+00 0.  1.
    9000007    1    1    2  501    0  0.97568573875E+02  0.22436244271E+02  0.46797668926E+03  0.62371884159E+03  0.40000000000E+03 0. -1.
   -9000007    1    1    2    0  502 -0.97568573875E+02 -0.22436244271E+02  0.68551190122E+03  0.79996848587E+03  0.40000000000E+03 0. -1.
<mgrwt>
<rscale>  2 0.41233847E+03</rscale>
<asrwt>0</asrwt>
<pdfrwt beam="1">  1       21 0.19824429E+00 0.41233847E+03</pdfrwt>
<pdfrwt beam="2">  1       21 0.20784519E-01 0.41233847E+03</pdfrwt>
<totfact> 0.25561391E+03</totfact>
</mgrwt>
</event>
<event>
 4    1  0.4758602E-002  0.4681593E+03  0.7818608E-02  0.1022441E+00
         21   -1    0    0  503  502  0.00000000000E+00  0.00000000000E+00  0.36223099793E+03  0.36223099793E+03  0.00000000000E+00 0.  1.
         21   -1    0    0  501  503 -0.00000000000E+00 -0.00000000000E+00 -0.18393301507E+04  0.18393301507E+04  0.00000000000E+00 0.  1.
    9000007    1    1    2  501    0 -0.20237383484E+03 -0.13497394502E+03 -0.16402768903E+04  0.17057788285E+04  0.40000000000E+03 0.  1.
   -9000007    1    1    2    0  502  0.20237383484E+03  0.13497394502E+03  0.16317773760E+03  0.49578232009E+03  0.40000000000E+03 0.  1.
<mgrwt>
<rscale>  2 0.46815931E+03</rscale>
<asrwt>0</asrwt>
<pdfrwt beam="1">  1       21 0.55727845E-01 0.46815931E+03</pdfrwt>
<pdfrwt beam="2">  1       21 0.28297387E+00 0.46815931E+03</pdfrwt>
<totfact> 0.99727907E+01</totfact>
</mgrwt>
</event>
<event>
 4    1  0.4758602E-002  0.4477261E+03  0.7818608E-02  0.1028402E+00
         21   -1    0    0  503  502  0.00000000000E+00  0.00000000000E+00  0.11038850660E+03  0.11038850660E+03  0.00000000000E+00 0. -1.
         21   -1    0    0  501  503 -0.00000000000E+00 -0.00000000000E+00 -0.23128588949E+04  0.23128588949E+04  0.00000000000E+00 0. -1.
    9000007    1    1    2  501    0  0.19662225016E+03  0.42407024951E+02 -0.16628478619E+04  0.17220690105E+04  0.40000000000E+03 0. -1.
   -9000007    1    1    2    0  502 -0.19662225016E+03 -0.42407024951E+02 -0.53962252637E+03  0.70117839099E+03  0.40000000000E+03 0. -1.
<mgrwt>
<rscale>  2 0.44772610E+03</rscale>
<asrwt>0</asrwt>
<pdfrwt beam="1">  1       21 0.16982849E-01 0.44772610E+03</pdfrwt>
<pdfrwt beam="2">  1       21 0.35582441E+00 0.44772610E+03</pdfrwt>
<totfact> 0.39448450E+02</totfact>
</mgrwt>
</event>
<event>
 4    1  0.4758602E-002  0.4106106E+03  0.7818608E-02  0.1040166E+00
         21   -1    0    0  501  502  0.00000000000E+00  0.00000000000E+00  0.10243383811E+04  0.10243383811E+04  0.00000000000E+00 0. -1.
         21   -1    0    0  502  503 -0.00000000000E+00 -0.00000000000E+00 -0.17797752043E+03  0.17797752043E+03  0.00000000000E+00 0. -1.
    9000007    1    1    2  501    0 -0.70068494230E+02 -0.60757302623E+02  0.58802471787E+03  0.71719879568E+03  0.40000000000E+03 0. -1.
   -9000007    1    1    2    0  503  0.70068494230E+02  0.60757302623E+02  0.25833614279E+03  0.48511710584E+03  0.40000000000E+03 0. -1.
<mgrwt>
<rscale>  2 0.41061057E+03</rscale>
<asrwt>0</asrwt>
<pdfrwt beam="1">  1       21 0.15759052E+00 0.41061057E+03</pdfrwt>
<pdfrwt beam="2">  1       21 0.27381158E-01 0.41061057E+03</pdfrwt>
<totfact> 0.29161576E+03</totfact>
</mgrwt>
</event>
<event>
 4    1  0.4758602E-002  0.4258544E+03  0.7818608E-02  0.1035178E+00
         21   -1    0    0  501  502  0.00000000000E+00  0.00000000000E+00  0.17334378676E+03  0.17334378676E+03  0.00000000000E+00 0. -1.
         21   -1    0    0  502  503 -0.00000000000E+00 -0.00000000000E+00 -0.11725363249E+04  0.11725363249E+04  0.00000000000E+00 0. -1.
    9000007    1    1    2  501    0 -0.87299146257E+02 -0.11717844897E+03 -0.72048863990E+03  0.83693238082E+03  0.40000000000E+03 0. -1.
   -9000007    1    1    2    0  503  0.87299146257E+02  0.11717844897E+03 -0.27870389823E+03  0.50894773084E+03  0.40000000000E+03 0. -1.
<mgrwt>
<rscale>  2 0.42585435E+03</rscale>
<asrwt>0</asrwt>
<pdfrwt beam="1">  1       21 0.26668275E-01 0.42585435E+03</pdfrwt>
<pdfrwt beam="2">  1       21 0.18039020E+00 0.42585435E+03</pdfrwt>
<totfact> 0.20799577E+03</totfact>
</mgrwt>
</event>
<event>
 4    1  0.4758602E-002  0.4007150E+03  0.7818608E-02  0.1043532E+00
         21   -1    0    0  503  502  0.00000000000E+00  0.00000000000E+00  0.69031771882E+03  0.69031771882E+03  0.00000000000E+00 0.  1.
         21   -1    0    0  501  503 -0.00000000000E+00 -0.00000000000E+00 -0.25943044907E+03  0.25943044907E+03  0.00000000000E+00 0.  1.
    9000007    1    1    2  501    0 -0.16576868621E+02 -0.17254750957E+02  0.62747578055E+02  0.40559804925E+03  0.40000000000E+03 0.  1.
   -9000007    1    1    2    0  502  0.16576868621E+02  0.17254750957E+02  0.36813969170E+03  0.54415011863E+03  0.40000000000E+03 0.  1.
<mgrwt>
<rscale>  2 0.40071501E+03</rscale>
<asrwt>0</asrwt>
<pdfrwt beam="1">  1       21 0.10620272E+00 0.40071501E+03</pdfrwt>
<pdfrwt beam="2">  1       21 0.39912377E-01 0.40071501E+03</pdfrwt>
<totfact> 0.38225658E+03</totfact>
</mgrwt>
</event>
<event>
 4    1  0.4758602E-002  0.6123886E+03  0.7818608E-02  0.9880032E-01
         21   -1    0    0  503  502  0.00000000000E+00  0.00000000000E+00  0.41316503707E+03  0.41316503707E+03  0.00000000000E+00 0.  1.
         21   -1    0    0  501  503 -0.00000000000E+00 -0.00000000000E+00 -0.16426215157E+04  0.16426215157E+04  0.00000000000E+00 0. -1.
    9000007    1    1    2  501    0 -0.66503556969E+02 -0.45890851478E+03 -0.13022825601E+04  0.14390829074E+04  0.40000000000E+03 0. -1.
   -9000007    1    1    2    0  502  0.66503556969E+02  0.45890851478E+03  0.72826081505E+02  0.61670364534E+03  0.40000000000E+03 0.  1.
<mgrwt>
<rscale>  2 0.61238856E+03</rscale>
<asrwt>0</asrwt>
<pdfrwt beam="1">  1       21 0.63563852E-01 0.61238856E+03</pdfrwt>
<pdfrwt beam="2">  1       21 0.25271100E+00 0.61238856E+03</pdfrwt>
<totfact> 0.10624920E+02</totfact>
</mgrwt>
</event>
<event>
 4    1  0.4758602E-002  0.4316179E+03  0.7818608E-02  0.1033350E+00
         21   -1    0    0  501  502  0.00000000000E+00  0.00000000000E+00  0.53661784299E+03  0.53661784299E+03  0.00000000000E+00 0.  1.
         21   -1    0    0  502  503 -0.00000000000E+00 -0.00000000000E+00 -0.40145933757E+03  0.40145933757E+03  0.00000000000E+00 0.  1.
    9000007    1    1    2  501    0  0.16172834699E+03  0.11745757955E+02  0.24007240686E+03  0.49389146741E+03  0.40000000000E+03 0.  1.
   -9000007    1    1    2    0  503 -0.16172834699E+03 -0.11745757955E+02 -0.10491390145E+03  0.44418571315E+03  0.40000000000E+03 0.  1.
<mgrwt>
<rscale>  2 0.43161791E+03</rscale>
<asrwt>0</asrwt>
<pdfrwt beam="1">  1       21 0.82556592E-01 0.43161791E+03</pdfrwt>
<pdfrwt beam="2">  1       21 0.61762975E-01 0.43161791E+03</pdfrwt>
<totfact> 0.27273535E+03</totfact>
</mgrwt>
</event>
<event>
 4    1  0.4758602E-002  0.5153037E+03  0.7818608E-02  0.1009860E+00
         21   -1    0    0  503  502  0.00000000000E+00  0.00000000000E+00  0.87385346040E+03  0.87385346040E+03  0.00000000000E+00 0. -1.
         21   -1    0    0  501  503 -0.00000000000E+00 -0.00000000000E+00 -0.46512666151E+03  0.46512666151E+03  0.00000000000E+00 0. -1.
    9000007    1    1    2  501    0 -0.29295009736E+03 -0.14042147113E+03 -0.18983712509E+03  0.54915943328E+03  0.40000000000E+03 0. -1.
   -9000007    1    1    2    0  502  0.29295009736E+03  0.14042147113E+03  0.59856392398E+03  0.78982068863E+03  0.40000000000E+03 0. -1.
<mgrwt>
<rscale>  2 0.51530374E+03</rscale>
<asrwt>0</asrwt>
<pdfrwt beam="1">  1       21 0.13443899E+00 0.51530374E+03</pdfrwt>
<pdfrwt beam="2">  1       21 0.71557948E-01 0.51530374E+03</pdfrwt>
<totfact> 0.57123523E+02</totfact>
</mgrwt>
</event>
<event>
 4    1  0.4758602E-002  0.4839601E+03  0.7818608E-02  0.1018052E+00
         21   -1    0    0  501  502  0.00000000000E+00  0.00000000000E+00  0.85200580868E+03  0.85200580868E+03  0.00000000000E+00 0.  1.
         21   -1    0    0  502  503 -0.00000000000E+00 -0.00000000000E+00 -0.27901827648E+03  0.27901827648E+03  0.00000000000E+00 0.  1.
    9000007    1    1    2  501    0  0.25986623389E+03  0.81773723277E+02  0.35518812991E+03  0.60031325903E+03  0.40000000000E+03 0.  1.
   -9000007    1    1    2    0  503 -0.25986623389E+03 -0.81773723277E+02  0.21779940229E+03  0.53071082613E+03  0.40000000000E+03 0.  1.
<mgrwt>
<rscale>  2 0.48396012E+03</rscale>
<asrwt>0</asrwt>
<pdfrwt beam="1">  1       21 0.13107782E+00 0.48396012E+03</pdfrwt>
<pdfrwt beam="2">  1       21 0.42925889E-01 0.48396012E+03</pdfrwt>
<totfact> 0.18721037E+03</totfact>
</mgrwt>
</event>
<event>
 4    1  0.4758602E-002  0.4372696E+03  0.7818608E-02  0.1031588E+00
         21   -1    0    0  501  502  0.00000000000E+00  0.00000000000E+00  0.12623583219E+04  0.12623583219E+04  0.00000000000E+00 0.  1.
         21   -1    0    0  502  503 -0.00000000000E+00 -0.00000000000E+00 -0.35026363082E+03  0.35026363082E+03  0.00000000000E+00 0.  1.
    9000007    1    1    2  501    0  0.13424850808E+03  0.11481310054E+03  0.10634970897E+04  0.11498829374E+04  0.40000000000E+03 0.  1.
   -9000007    1    1    2    0  503 -0.13424850808E+03 -0.11481310054E+03 -0.15140239861E+03  0.46273901530E+03  0.40000000000E+03 0.  1.
<mgrwt>
<rscale>  2 0.43726961E+03</rscale>
<asrwt>0</asrwt>
<pdfrwt beam="1">  1       21 0.19420897E+00 0.43726961E+03</pdfrwt>
<pdfrwt beam="2">  1       21 0.53886713E-01 0.43726961E+03</pdfrwt>
<totfact> 0.39373954E+02</totfact>
</mgrwt>
</event>
<event>
 4    1  0.4758602E-002  0.4332316E+03  0.7818608E-02  0.1032844E+00
         21   -1    0    0  503  502  0.00000000000E+00  0.00000000000E+00  0.24214488224E+04  0.24214488224E+04  0.00000000000E+00 0. -1.
         21   -1    0    0  501  503 -0.00000000000E+00 -0.00000000000E+00 -0.10364392501E+03  0.10364392501E+03  0.00000000000E+00 0.  1.
    9000007    1    1    2  501    0 -0.91146809062E+02  0.13921869356E+03  0.52493473691E+03  0.68062182117E+03  0.40000000000E+03 0.  1.
   -9000007    1    1    2    0  502  0.91146809062E+02 -0.13921869356E+03  0.17928701605E+04  0.18444709262E+04  0.40000000000E+03 0. -1.
<mgrwt>
<rscale>  2 0.43323156E+03</rscale>
<asrwt>0</asrwt>
<pdfrwt beam="1">  1       21 0.37253055E+00 0.43323156E+03</pdfrwt>
<pdfrwt beam="2">  1       21 0.15945221E-01 0.43323156E+03</pdfrwt>
<totfact> 0.35288175E+02</totfact>
</mgrwt>
</event>
<event>
 4    1  0.4758602E-002  0.5892048E+03  0.7818608E-02  0.9928059E-01
         21   -1    0    0  501  502  0.00000000000E+00  0.00000000000E+00  0.57582999663E+03  0.57582999663E+03  0.00000000000E+00 0. -1.
         21   -1    0    0  502  503 -0.00000000000E+00 -0.00000000000E+00 -0.61535771562E+03  0.61535771562E+03  0.00000000000E+00 0.  1.
    9000007    1    1    2  501    0  0.42828778593E+03 -0.61088900668E+02  0.65012693417E+02  0.59278067754E+03  0.40000000000E+03 0.  1.
   -9000007    1    1    2    0  503 -0.42828778593E+03  0.61088900668E+02 -0.10454041240E+03  0.59840703471E+03  0.40000000000E+03 0.  1.
<mgrwt>
<rscale>  2 0.58920479E+03</rscale>
<asrwt>0</asrwt>
<pdfrwt beam="1">  1       21 0.88589230E-01 0.58920479E+03</pdfrwt>
<pdfrwt beam="2">  1       21 0.94670418E-01 0.58920479E+03</pdfrwt>
<totfact> 0.81986290E+02</totfact>
</mgrwt>
</event>
<event>
 4    1  0.4758602E-002  0.5245763E+03  0.7818608E-02  0.1007556E+00
         21   -1    0    0  503  502  0.00000000000E+00  0.00000000000E+00  0.25567866121E+04  0.25567866121E+04  0.00000000000E+00 0.  1.
         21   -1    0    0  501  503 -0.00000000000E+00 -0.00000000000E+00 -0.15043260825E+03  0.15043260825E+03  0.00000000000E+00 0. -1.
    9000007    1    1    2  501    0  0.40089632589E+02  0.33700615394E+03  0.48112133322E+03  0.71179917372E+03  0.40000000000E+03 0. -1.
   -9000007    1    1    2    0  502 -0.40089632589E+02 -0.33700615394E+03  0.19252326707E+04  0.19954200467E+04  0.40000000000E+03 0.  1.
<mgrwt>
<rscale>  2 0.52457633E+03</rscale>
<asrwt>0</asrwt>
<pdfrwt beam="1">  1       21 0.39335176E+00 0.52457633E+03</pdfrwt>
<pdfrwt beam="2">  1       21 0.23143480E-01 0.52457633E+03</pdfrwt>
<totfact> 0.12139221E+02</totfact>
</mgrwt>
</event>
<event>
 4    1  0.4758602E-002  0.4248353E+03  0.7818608E-02  0.1035504E+00
         21   -1    0    0  503  502  0.00000000000E+00  0.00000000000E+00  0.65409133171E+03  0.65409133171E+03  0.00000000000E+00 0. -1.
         21   -1    0    0  501  503 -0.00000000000E+00 -0.00000000000E+00 -0.27612780189E+03  0.27612780189E+03  0.00000000000E+00 0.  1.
    9000007    1    1    2  501    0  0.36463873937E+02 -0.13840317752E+03  0.17661209570E+03  0.46008356415E+03  0.40000000000E+03 0. -1.
   -9000007    1    1    2    0  502 -0.36463873937E+02  0.13840317752E+03  0.20135143411E+03  0.47013556946E+03  0.40000000000E+03 0. -1.
<mgrwt>
<rscale>  2 0.42483533E+03</rscale>
<asrwt>0</asrwt>
<pdfrwt beam="1">  1       21 0.10062943E+00 0.42483533E+03</pdfrwt>
<pdfrwt beam="2">  1       21 0.42481201E-01 0.42483533E+03</pdfrwt>
<totfact> 0.37995245E+03</totfact>
</mgrwt>
</event>
<event>
 4    1  0.4758602E-002  0.5532433E+03  0.7818608E-02  0.1000746E+00
         21   -1    0    0  501  502  0.00000000000E+00  0.00000000000E+00  0.80093503200E+03  0.80093503200E+03  0.00000000000E+00 0.  1.
         21   -1    0    0  502  503 -0.00000000000E+00 -0.00000000000E+00 -0.38249157373E+03  0.38249157373E+03  0.00000000000E+00 0. -1.
    9000007    1    1    2  501    0 -0.21451594439E+03  0.31632423512E+03  0.22687864954E+03  0.59795654837E+03  0.40000000000E+03 0.  1.
   -9000007    1    1    2    0  503  0.21451594439E+03 -0.31632423512E+03  0.19156480874E+03  0.58547005736E+03  0.40000000000E+03 0. -1.
<mgrwt>
<rscale>  2 0.55324327E+03</rscale>
<asrwt>0</asrwt>
<pdfrwt beam="1">  1       21 0.12322077E+00 0.55324327E+03</pdfrwt>
<pdfrwt beam="2">  1       21 0.58844858E-01 0.55324327E+03</pdfrwt>
<totfact> 0.10936537E+03</totfact>
</mgrwt>
</event>
<event>
 4    1  0.4758602E-002  0.4500018E+03  0.7818608E-02  0.1027721E+00
         21   -1    0    0  501  502  0.00000000000E+00  0.00000000000E+00  0.23012457629E+03  0.23012457629E+03  0.00000000000E+00 0. -1.
         21   -1    0    0  502  503 -0.00000000000E+00 -0.00000000000E+00 -0.11806074252E+04  0.11806074252E+04  0.00000000000E+00 0. -1.
    9000007    1    1    2  501    0  0.24159464004E+02 -0.20473877429E+03 -0.11929332991E+03  0.46554542631E+03  0.40000000000E+03 0. -1.
   -9000007    1    1    2    0  503 -0.24159464004E+02  0.20473877429E+03 -0.83118951899E+03  0.94518657517E+03  0.40000000000E+03 0. -1.
<mgrwt>
<rscale>  2 0.45000183E+03</rscale>
<asrwt>0</asrwt>
<pdfrwt beam="1">  1       21 0.35403782E-01 0.45000183E+03</pdfrwt>
<pdfrwt beam="2">  1       21 0.18163191E+00 0.45000183E+03</pdfrwt>
<totfact> 0.11472906E+03</totfact>
</mgrwt>
</event>
<event>
 4    1  0.4758602E-002  0.5868304E+03  0.7818608E-02  0.9933112E-01
         21   -1    0    0  501  502  0.00000000000E+00  0.00000000000E+00  0.33957892580E+03  0.33957892580E+03  0.00000000000E+00 0.  1.
         21   -1    0    0  502  503 -0.00000000000E+00 -0.00000000000E+00 -0.10200931726E+04  0.10200931726E+04  0.00000000000E+00 0. -1.
    9000007    1    1    2  501    0  0.10114014934E+03  0.41730155260E+03 -0.39232862930E+03  0.70589777517E+03  0.40000000000E+03 0. -1.
   -9000007    1    1    2    0  503 -0.10114014934E+03 -0.41730155260E+03 -0.28818561754E+03  0.65377432327E+03  0.40000000000E+03 0.  1.
<mgrwt>
<rscale>  2 0.58683040E+03</rscale>
<asrwt>0</asrwt>
<pdfrwt beam="1">  1       21 0.52242912E-01 0.58683040E+03</pdfrwt>
<pdfrwt beam="2">  1       21 0.15693741E+00 0.58683040E+03</pdfrwt>
<totfact> 0.73361376E+02</totfact>
</mgrwt>
</event>
<event>
 4    1  0.4758602E-002  0.4008580E+03  0.7818608E-02  0.1043483E+00
         21   -1    0    0  501  502  0.00000000000E+00  0.00000000000E+00  0.20092731364E+03  0.20092731364E+03  0.00000000000E+00 0.  1.
         21   -1    0    0  502  503 -0.00000000000E+00 -0.00000000000E+00 -0.12869781401E+04  0.12869781401E+04  0.00000000000E+00 0.  1.
    9000007    1    1    2  501    0 -0.18156820866E+02  0.18905855027E+02 -0.85267398761E+02  0.40982634224E+03  0.40000000000E+03 0.  1.
   -9000007    1    1    2    0  503  0.18156820866E+02 -0.18905855027E+02 -0.10007834277E+04  0.10780791115E+04  0.40000000000E+03 0.  1.
<mgrwt>
<rscale>  2 0.40085796E+03</rscale>
<asrwt>0</asrwt>
<pdfrwt beam="1">  1       21 0.30911895E-01 0.40085796E+03</pdfrwt>
<pdfrwt beam="2">  1       21 0.19799663E+00 0.40085796E+03</pdfrwt>
<totfact> 0.11918169E+03</totfact>
</mgrwt>
</event>
<event>
 4    1  0.4758602E-002  0.4211346E+03  0.7818608E-02  0.1036698E+00
         21   -1    0    0  503  502  0.00000000000E+00  0.00000000000E+00  0.44351546574E+03  0.44351546574E+03  0.00000000000E+00 0. -1.
         21   -1    0    0  501  503 -0.00000000000E+00 -0.00000000000E+00 -0.46304416259E+03  0.46304416259E+03  0.00000000000E+00 0. -1.
    9000007    1    1    2  501    0  0.11969442059E+03  0.55023432325E+02 -0.17717378694E+03  0.45688607245E+03  0.40000000000E+03 0. -1.
   -9000007    1    1    2    0  502 -0.11969442059E+03 -0.55023432325E+02  0.15764509009E+03  0.44967355588E+03  0.40000000000E+03 0. -1.
<mgrwt>
<rscale>  2 0.42113458E+03</rscale>
<asrwt>0</asrwt>
<pdfrwt beam="1">  1       21 0.68233149E-01 0.42113458E+03</pdfrwt>
<pdfrwt beam="2">  1       21 0.71237563E-01 0.42113458E+03</pdfrwt>
<totfact> 0.30760078E+03</totfact>
</mgrwt>
</event>
<event>
 4    1  0.4758602E-002  0.4866668E+03  0.7818608E-02  0.1017319E+00
         21   -1    0    0  501  502  0.00000000000E+00  0.00000000000E+00  0.15014102947E+04  0.15014102947E+04  0.00000000000E+00 0. -1.
         21   -1    0    0  502  503 -0.00000000000E+00 -0.00000000000E+00 -0.27585877306E+03  0.27585877306E+03  0.00000000000E+00 0. -1.
    9000007    1    1    2  501    0  0.27366970395E+03  0.44152986459E+02  0.11942418518E+04  0.12895961359E+04  0.40000000000E+03 0. -1.
   -9000007    1    1    2    0  503 -0.27366970395E+03 -0.44152986459E+02  0.31309669848E+02  0.48767293189E+03  0.40000000000E+03 0. -1.
<mgrwt>
<rscale>  2 0.48666682E+03</rscale>
<asrwt>0</asrwt>
<pdfrwt beam="1">  1       21 0.23098619E+00 0.48666682E+03</pdfrwt>
<pdfrwt beam="2">  1       21 0.42439812E-01 0.48666682E+03</pdfrwt>
<totfact> 0.36682278E+02</totfact>
</mgrwt>
</event>
<event>
 4    1  0.4758602E-002  0.4128462E+03  0.7818608E-02  0.1039420E+00
         21   -1    0    0  501  502  0.00000000000E+00  0.00000000000E+00  0.33817708449E+03  0.33817708449E+03  0.00000000000E+00 0. -1.
         21   -1    0    0  502  503 -0.00000000000E+00 -0.00000000000E+00 -0.51906335689E+03  0.51906335689E+03  0.00000000000E+00 0. -1.
    9000007    1    1    2  501    0 -0.76195863788E+02 -0.68089374249E+02 -0.17431416906E+02  0.41321402062E+03  0.40000000000E+03 0. -1.
   -9000007    1    1    2    0  503  0.76195863788E+02  0.68089374249E+02 -0.16345485550E+03  0.44402642076E+03  0.40000000000E+03 0. -1.
<mgrwt>
<rscale>  2 0.41284619E+03</rscale>
<asrwt>0</asrwt>
<pdfrwt beam="1">  1       21 0.52027244E-01 0.41284619E+03</pdfrwt>
<pdfrwt beam="2">  1       21 0.79855901E-01 0.41284619E+03</pdfrwt>
<totfact> 0.43016930E+03</totfact>
</mgrwt>
</event>
<event>
 4    1  0.4758602E-002  0.4051011E+03  0.7818608E-02  0.1042028E+00
         21   -1    0    0  501  502  0.00000000000E+00  0.00000000000E+00  0.20201777370E+04  0.20201777370E+04  0.00000000000E+00 0.  1.
         21   -1    0    0  502  503 -0.00000000000E+00 -0.00000000000E+00 -0.12887679905E+03  0.12887679905E+03  0.00000000000E+00 0.  1.
    9000007    1    1    2  501    0 -0.54430949456E+02  0.33825871953E+02  0.15989752883E+04  0.16494935254E+04  0.40000000000E+03 0. -1.
   -9000007    1    1    2    0  503  0.54430949456E+02 -0.33825871953E+02  0.29232564965E+03  0.49956101061E+03  0.40000000000E+03 0. -1.
<mgrwt>
<rscale>  2 0.40510112E+03</rscale>
<asrwt>0</asrwt>
<pdfrwt beam="1">  1       21 0.31079655E+00 0.40510112E+03</pdfrwt>
<pdfrwt beam="2">  1       21 0.19827201E-01 0.40510112E+03</pdfrwt>
<totfact> 0.56741710E+02</totfact>
</mgrwt>
</event>
<event>
 4    1  0.4758602E-002  0.4019657E+03  0.7818608E-02  0.1043101E+00
         21   -1    0    0  503  502  0.00000000000E+00  0.00000000000E+00  0.53912262591E+03  0.53912262591E+03  0.00000000000E+00 0.  1.
         21   -1    0    0  501  503 -0.00000000000E+00 -0.00000000000E+00 -0.31366052763E+03  0.31366052763E+03  0.00000000000E+00 0.  1.
    9000007    1    1    2  501    0  0.34912545300E+02  0.18908730885E+02  0.22783377396E+02  0.40261086449E+03  0.40000000000E+03 0.  1.
   -9000007    1    1    2    0  502 -0.34912545300E+02 -0.18908730885E+02  0.20267872089E+03  0.45017228904E+03  0.40000000000E+03 0.  1.
<mgrwt>
<rscale>  2 0.40196570E+03</rscale>
<asrwt>0</asrwt>
<pdfrwt beam="1">  1       21 0.82941942E-01 0.40196570E+03</pdfrwt>
<pdfrwt beam="2">  1       21 0.48255466E-01 0.40196570E+03</pdfrwt>
<totfact> 0.46422090E+03</totfact>
</mgrwt>
</event>
<event>
 4    1  0.4758602E-002  0.5090653E+03  0.7818608E-02  0.1011439E+00
         21   -1    0    0  501  502  0.00000000000E+00  0.00000000000E+00  0.96139550939E+03  0.96139550939E+03  0.00000000000E+00 0.  1.
         21   -1    0    0  502  503 -0.00000000000E+00 -0.00000000000E+00 -0.41462903039E+03  0.41462903039E+03  0.00000000000E+00 0.  1.
    9000007    1    1    2  501    0  0.22971119257E+03 -0.21536070601E+03  0.68035427891E+03  0.84972313756E+03  0.40000000000E+03 0.  1.
   -9000007    1    1    2    0  503 -0.22971119257E+03  0.21536070601E+03 -0.13358779990E+03  0.52630140221E+03  0.40000000000E+03 0.  1.
<mgrwt>
<rscale>  2 0.50906529E+03</rscale>
<asrwt>0</asrwt>
<pdfrwt beam="1">  1       21 0.14790700E+00 0.50906529E+03</pdfrwt>
<pdfrwt beam="2">  1       21 0.63789082E-01 0.50906529E+03</pdfrwt>
<totfact> 0.57403778E+02</totfact>
</mgrwt>
</event>
<event>
 4    1  0.4758602E-002  0.4331349E+03  0.7818608E-02  0.1032874E+00
         21   -1    0    0  503  502  0.00000000000E+00  0.00000000000E+00  0.23493267492E+04  0.23493267492E+04  0.00000000000E+00 0. -1.
         21   -1    0    0  501  503 -0.00000000000E+00 -0.00000000000E+00 -0.91658354696E+02  0.91658354696E+02  0.00000000000E+00 0. -1.
    9000007    1    1    2  501    0 -0.11809436256E+03 -0.11687412165E+03  0.69085943705E+03  0.81540946803E+03  0.40000000000E+03 0. -1.
   -9000007    1    1    2    0  502  0.11809436256E+03  0.11687412165E+03  0.15668089574E+04  0.16255756358E+04  0.40000000000E+03 0. -1.
<mgrwt>
<rscale>  2 0.43313490E+03</rscale>
<asrwt>0</asrwt>
<pdfrwt beam="1">  1       21 0.36143484E+00 0.43313490E+03</pdfrwt>
<pdfrwt beam="2">  1       21 0.14101287E-01 0.43313490E+03</pdfrwt>
<totfact> 0.51939492E+02</totfact>
</mgrwt>
</event>
<event>
 4    1  0.4758602E-002  0.4114139E+03  0.7818608E-02  0.1039898E+00
         21   -1    0    0  501  502  0.00000000000E+00  0.00000000000E+00  0.19532031196E+04  0.19532031196E+04  0.00000000000E+00 0. -1.
         21   -1    0    0  502  503 -0.00000000000E+00 -0.00000000000E+00 -0.10612801284E+03  0.10612801284E+03  0.00000000000E+00 0. -1.
    9000007    1    1    2  501    0  0.96230618054E+02  0.10311778432E+01  0.13645594831E+04  0.14252312016E+04  0.40000000000E+03 0. -1.
   -9000007    1    1    2    0  503 -0.96230618054E+02 -0.10311778432E+01  0.48251562364E+03  0.63409993080E+03  0.40000000000E+03 0. -1.
<mgrwt>
<rscale>  2 0.41141390E+03</rscale>
<asrwt>0</asrwt>
<pdfrwt beam="1">  1       21 0.30049276E+00 0.41141390E+03</pdfrwt>
<pdfrwt beam="2">  1       21 0.16327388E-01 0.41141390E+03</pdfrwt>
<totfact> 0.93869625E+02</totfact>
</mgrwt>
</event>
<event>
 4    1  0.4758602E-002  0.4048496E+03  0.7818608E-02  0.1042113E+00
         21   -1    0    0  503  502  0.00000000000E+00  0.00000000000E+00  0.54054457908E+03  0.54054457908E+03  0.00000000000E+00 0.  1.
         21   -1    0    0  501  503 -0.00000000000E+00 -0.00000000000E+00 -0.92246796178E+03  0.92246796178E+03  0.00000000000E+00 0.  1.
    9000007    1    1    2  501    0 -0.18317952783E+02 -0.59729960023E+02 -0.79030431139E+03  0.88796628321E+03  0.40000000000E+03 0.  1.
   -9000007    1    1    2    0  502  0.18317952783E+02  0.59729960023E+02  0.40838092869E+03  0.57504625765E+03  0.40000000000E+03 0.  1.
<mgrwt>
<rscale>  2 0.40484962E+03</rscale>
<asrwt>0</asrwt>
<pdfrwt beam="1">  1       21 0.83160707E-01 0.40484962E+03</pdfrwt>
<pdfrwt beam="2">  1       21 0.14191814E+00 0.40484962E+03</pdfrwt>
<totfact> 0.36864950E+02</totfact>
</mgrwt>
</event>
<event>
 4    1  0.4758602E-002  0.8940759E+03  0.7818608E-02  0.9433017E-01
         21   -1    0    0  501  502  0.00000000000E+00  0.00000000000E+00  0.10020720875E+04  0.10020720875E+04  0.00000000000E+00 0. -1.
         21   -1    0    0  502  503 -0.00000000000E+00 -0.00000000000E+00 -0.81690325421E+03  0.81690325421E+03  0.00000000000E+00 0.  1.
    9000007    1    1    2  501    0  0.74964078899E+03  0.27822723472E+03 -0.46791147883E+02  0.89529945726E+03  0.40000000000E+03 0. -1.
   -9000007    1    1    2    0  503 -0.74964078899E+03 -0.27822723472E+03  0.23195998119E+03  0.92367588446E+03  0.40000000000E+03 0.  1.
<mgrwt>
<rscale>  2 0.89407590E+03</rscale>
<asrwt>0</asrwt>
<pdfrwt beam="1">  1       21 0.15416494E+00 0.89407590E+03</pdfrwt>
<pdfrwt beam="2">  1       21 0.12567742E+00 0.89407590E+03</pdfrwt>
<totfact> 0.88902905E+01</totfact>
</mgrwt>
</event>
<event>
 4    1  0.4758602E-002  0.4484986E+03  0.7818608E-02  0.1028171E+00
         21   -1    0    0  501  502  0.00000000000E+00  0.00000000000E+00  0.43993054796E+03  0.43993054796E+03  0.00000000000E+00 0.  1.
         21   -1    0    0  502  503 -0.00000000000E+00 -0.00000000000E+00 -0.85695559341E+03  0.85695559341E+03  0.00000000000E+00 0. -1.
    9000007    1    1    2  501    0  0.16997851717E+03 -0.11071719131E+03  0.23435288709E+03  0.50603583711E+03  0.40000000000E+03 0. -1.
   -9000007    1    1    2    0  503 -0.16997851717E+03  0.11071719131E+03 -0.65137793254E+03  0.79085030426E+03  0.40000000000E+03 0. -1.
<mgrwt>
<rscale>  2 0.44849860E+03</rscale>
<asrwt>0</asrwt>
<pdfrwt beam="1">  1       21 0.67681624E-01 0.44849860E+03</pdfrwt>
<pdfrwt beam="2">  1       21 0.13183932E+00 0.44849860E+03</pdfrwt>
<totfact> 0.70066075E+02</totfact>
</mgrwt>
</event>
<event>
 4    1  0.4758602E-002  0.4618423E+03  0.7818608E-02  0.1024248E+00
         21   -1    0    0  501  502  0.00000000000E+00  0.00000000000E+00  0.53649084326E+03  0.53649084326E+03  0.00000000000E+00 0.  1.
         21   -1    0    0  502  503 -0.00000000000E+00 -0.00000000000E+00 -0.54182625807E+03  0.54182625807E+03  0.00000000000E+00 0.  1.
    9000007    1    1    2  501    0  0.12135941618E+03 -0.19639308386E+03  0.27551994403E+03  0.53778210350E+03  0.40000000000E+03 0.  1.
   -9000007    1    1    2    0  503 -0.12135941618E+03  0.19639308386E+03 -0.28085535884E+03  0.54053499783E+03  0.40000000000E+03 0.  1.
<mgrwt>
<rscale>  2 0.46184234E+03</rscale>
<asrwt>0</asrwt>
<pdfrwt beam="1">  1       21 0.82537053E-01 0.46184234E+03</pdfrwt>
<pdfrwt beam="2">  1       21 0.83357886E-01 0.46184234E+03</pdfrwt>
<totfact> 0.13686577E+03</totfact>
</mgrwt>
</event>
<event>
 4    1  0.4758602E-002  0.4035080E+03  0.7818608E-02  0.1042572E+00
         21   -1    0    0  501  502  0.00000000000E+00  0.00000000000E+00  0.30533301215E+03  0.30533301215E+03  0.00000000000E+00 0.  1.
         21   -1    0    0  502  503 -0.00000000000E+00 -0.00000000000E+00 -0.53334679772E+03  0.53334679772E+03  0.00000000000E+00 0. -1.
    9000007    1    1    2  501    0 -0.50330075390E+02  0.16899351438E+02 -0.10834574828E+03  0.41780079672E+03  0.40000000000E+03 0. -1.
   -9000007    1    1    2    0  503  0.50330075390E+02 -0.16899351438E+02 -0.11966803729E+03  0.42087901316E+03  0.40000000000E+03 0.  1.
<mgrwt>
<rscale>  2 0.40350800E+03</rscale>
<asrwt>0</asrwt>
<pdfrwt beam="1">  1       21 0.46974310E-01 0.40350800E+03</pdfrwt>
<pdfrwt beam="2">  1       21 0.82053353E-01 0.40350800E+03</pdfrwt>
<totfact> 0.50342766E+03</totfact>
</mgrwt>
</event>
<event>
 4    1  0.4758602E-002  0.4439629E+03  0.7818608E-02  0.1029538E+00
         21   -1    0    0  503  502  0.00000000000E+00  0.00000000000E+00  0.46260530277E+03  0.46260530277E+03  0.00000000000E+00 0. -1.
         21   -1    0    0  501  503 -0.00000000000E+00 -0.00000000000E+00 -0.50837543850E+03  0.50837543850E+03  0.00000000000E+00 0. -1.
    9000007    1    1    2  501    0  0.18813950278E+03  0.41310608481E+02 -0.21822816021E+03  0.49469846249E+03  0.40000000000E+03 0. -1.
   -9000007    1    1    2    0  502 -0.18813950278E+03 -0.41310608481E+02  0.17245802448E+03  0.47628227879E+03  0.40000000000E+03 0. -1.
<mgrwt>
<rscale>  2 0.44396288E+03</rscale>
<asrwt>0</asrwt>
<pdfrwt beam="1">  1       21 0.71170046E-01 0.44396288E+03</pdfrwt>
<pdfrwt beam="2">  1       21 0.78211607E-01 0.44396288E+03</pdfrwt>
<totfact> 0.22426840E+03</totfact>
</mgrwt>
</event>
<event>
 4    1  0.4758602E-002  0.4641094E+03  0.7818608E-02  0.1023596E+00
         21   -1    0    0  503  502  0.00000000000E+00  0.00000000000E+00  0.27470697125E+03  0.27470697125E+03  0.00000000000E+00 0.  1.
         21   -1    0    0  501  503 -0.00000000000E+00 -0.00000000000E+00 -0.88373563087E+03  0.88373563087E+03  0.00000000000E+00 0.  1.
    9000007    1    1    2  501    0 -0.22569087717E+03  0.66792116734E+02 -0.49900200540E+03  0.68146941259E+03  0.40000000000E+03 0.  1.
   -9000007    1    1    2    0  502  0.22569087717E+03 -0.66792116734E+02 -0.11002665421E+03  0.47697318953E+03  0.40000000000E+03 0.  1.
<mgrwt>
<rscale>  2 0.46410943E+03</rscale>
<asrwt>0</asrwt>
<pdfrwt beam="1">  1       21 0.42262612E-01 0.46410943E+03</pdfrwt>
<pdfrwt beam="2">  1       21 0.13595932E+00 0.46410943E+03</pdfrwt>
<totfact> 0.17705714E+03</totfact>
</mgrwt>
</event>
<event>
 4    1  0.4758602E-002  0.4135205E+03  0.7818608E-02  0.1039196E+00
         21   -1    0    0  503  502  0.00000000000E+00  0.00000000000E+00  0.93430519664E+03  0.93430519664E+03  0.00000000000E+00 0.  1.
         21   -1    0    0  501  503 -0.00000000000E+00 -0.00000000000E+00 -0.10456352007E+04  0.10456352007E+04  0.00000000000E+00 0.  1.
    9000007    1    1    2  501    0  0.77336053436E+02  0.70839945198E+02 -0.95483098728E+03  0.10405293736E+04  0.40000000000E+03 0.  1.
   -9000007    1    1    2    0  502 -0.77336053436E+02 -0.70839945198E+02  0.84350098319E+03  0.93941102380E+03  0.40000000000E+03 0.  1.
<mgrwt>
<rscale>  2 0.41352045E+03</rscale>
<asrwt>0</asrwt>
<pdfrwt beam="1">  1       21 0.14373926E+00 0.41352045E+03</pdfrwt>
<pdfrwt beam="2">  1       21 0.16086695E+00 0.41352045E+03</pdfrwt>
<totfact> 0.67122610E+01</totfact>
</mgrwt>
</event>
<event>
 4    1  0.4758602E-002  0.4253553E+03  0.7818608E-02  0.1035337E+00
         21   -1    0    0  501  502  0.00000000000E+00  0.00000000000E+00  0.11488654097E+04  0.11488654097E+04  0.00000000000E+00 0. -1.
         21   -1    0    0  502  503 -0.00000000000E+00 -0.00000000000E+00 -0.16261874126E+03  0.16261874126E+03  0.00000000000E+00 0. -1.
    9000007    1    1    2  501    0  0.16850057091E+02 -0.14367736611E+03  0.60965309577E+03  0.74337339685E+03  0.40000000000E+03 0. -1.
   -9000007    1    1    2    0  503 -0.16850057091E+02  0.14367736611E+03  0.37659357268E+03  0.56811075411E+03  0.40000000000E+03 0. -1.
<mgrwt>
<rscale>  2 0.42535527E+03</rscale>
<asrwt>0</asrwt>
<pdfrwt beam="1">  1       21 0.17674852E+00 0.42535527E+03</pdfrwt>
<pdfrwt beam="2">  1       21 0.25018269E-01 0.42535527E+03</pdfrwt>
<totfact> 0.25002816E+03</totfact>
</mgrwt>
</event>
<event>
 4    1  0.4758602E-002  0.4343913E+03  0.7818608E-02  0.1032482E+00
         21   -1    0    0  503  502  0.00000000000E+00  0.00000000000E+00  0.23874622877E+03  0.23874622877E+03  0.00000000000E+00 0. -1.
         21   -1    0    0  501  503 -0.00000000000E+00 -0.00000000000E+00 -0.95090644636E+03  0.95090644636E+03  0.00000000000E+00 0. -1.
    9000007    1    1    2  501    0  0.10563707683E+03 -0.13242572664E+03 -0.60049066951E+03  0.74113751035E+03  0.40000000000E+03 0. -1.
   -9000007    1    1    2    0  502 -0.10563707683E+03  0.13242572664E+03 -0.11166954808E+03  0.44851516479E+03  0.40000000000E+03 0. -1.
<mgrwt>
<rscale>  2 0.43439126E+03</rscale>
<asrwt>0</asrwt>
<pdfrwt beam="1">  1       21 0.36730189E-01 0.43439126E+03</pdfrwt>
<pdfrwt beam="2">  1       21 0.14629330E+00 0.43439126E+03</pdfrwt>
<totfact> 0.19663679E+03</totfact>
</mgrwt>
</event>
<event>
 4    1  0.4758602E-002  0.4155980E+03  0.7818608E-02  0.1038509E+00
         21   -1    0    0  501  502  0.00000000000E+00  0.00000000000E+00  0.25918791120E+03  0.25918791120E+03  0.00000000000E+00 0.  1.
         21   -1    0    0  502  503 -0.00000000000E+00 -0.00000000000E+00 -0.67154520398E+03  0.67154520398E+03  0.00000000000E+00 0.  1.
    9000007    1    1    2  501    0  0.45012890644E+02 -0.10341942473E+03 -0.24692940072E+03  0.48342100356E+03  0.40000000000E+03 0. -1.
   -9000007    1    1    2    0  503 -0.45012890644E+02  0.10341942473E+03 -0.16542789206E+03  0.44731211163E+03  0.40000000000E+03 0. -1.
<mgrwt>
<rscale>  2 0.41559805E+03</rscale>
<asrwt>0</asrwt>
<pdfrwt beam="1">  1       21 0.39875064E-01 0.41559805E+03</pdfrwt>
<pdfrwt beam="2">  1       21 0.10331464E+00 0.41559805E+03</pdfrwt>
<totfact> 0.40745102E+03</totfact>
</mgrwt>
</event>
<event>
 4    1  0.4758602E-002  0.4617944E+03  0.7818608E-02  0.1024262E+00
         21   -1    0    0  503  502  0.00000000000E+00  0.00000000000E+00  0.73564713175E+03  0.73564713175E+03  0.00000000000E+00 0.  1.
         21   -1    0    0  501  503 -0.00000000000E+00 -0.00000000000E+00 -0.33439556638E+03  0.33439556638E+03  0.00000000000E+00 0. -1.
    9000007    1    1    2  501    0  0.50693994620E+02  0.22513157240E+03  0.54321985450E+01  0.46182639028E+03  0.40000000000E+03 0.  1.
   -9000007    1    1    2    0  502 -0.50693994620E+02 -0.22513157240E+03  0.39581936682E+03  0.60821630785E+03  0.40000000000E+03 0.  1.
<mgrwt>
<rscale>  2 0.46179444E+03</rscale>
<asrwt>0</asrwt>
<pdfrwt beam="1">  1       21 0.11317648E+00 0.46179444E+03</pdfrwt>
<pdfrwt beam="2">  1       21 0.51445472E-01 0.46179444E+03</pdfrwt>
<totfact> 0.18740760E+03</totfact>
</mgrwt>
</event>
<event>
 4    1  0.4758602E-002  0.4095188E+03  0.7818608E-02  0.1040533E+00
         21   -1    0    0  501  502  0.00000000000E+00  0.00000000000E+00  0.70751121881E+03  0.70751121881E+03  0.00000000000E+00 0.  1.
         21   -1    0    0  502  503 -0.00000000000E+00 -0.00000000000E+00 -0.23863264417E+03  0.23863264417E+03  0.00000000000E+00 0.  1.
    9000007    1    1    2  501    0  0.46224874696E+02  0.74625348253E+02  0.27313441238E+03  0.49224799529E+03  0.40000000000E+03 0.  1.
   -9000007    1    1    2    0  503 -0.46224874696E+02 -0.74625348253E+02  0.19574416226E+03  0.45389586769E+03  0.40000000000E+03 0.  1.
<mgrwt>
<rscale>  2 0.40951884E+03</rscale>
<asrwt>0</asrwt>
<pdfrwt beam="1">  1       21 0.10884788E+00 0.40951884E+03</pdfrwt>
<pdfrwt beam="2">  1       21 0.36712715E-01 0.40951884E+03</pdfrwt>
<totfact> 0.42525751E+03</totfact>
</mgrwt>
</event>
<event>
 4    1  0.4758602E-002  0.4408827E+03  0.7818608E-02  0.1030476E+00
         21   -1    0    0  501  502  0.00000000000E+00  0.00000000000E+00  0.28377159866E+04  0.28377159866E+04  0.00000000000E+00 0. -1.
         21   -1    0    0  502  503 -0.00000000000E+00 -0.00000000000E+00 -0.72628633881E+02  0.72628633881E+02  0.00000000000E+00 0. -1.
    9000007    1    1    2  501    0 -0.17275407209E+03 -0.67331888760E+02  0.17295798195E+04  0.17848876448E+04  0.40000000000E+03 0. -1.
   -9000007    1    1    2    0  503  0.17275407209E+03  0.67331888760E+02  0.10355075332E+04  0.11254569756E+04  0.40000000000E+03 0. -1.
<mgrwt>
<rscale>  2 0.44088270E+03</rscale>
<asrwt>0</asrwt>
<pdfrwt beam="1">  1       21 0.43657160E+00 0.44088270E+03</pdfrwt>
<pdfrwt beam="2">  1       21 0.11173638E-01 0.44088270E+03</pdfrwt>
<totfact> 0.26085458E+02</totfact>
</mgrwt>
</event>
<event>
 4    1  0.4758602E-002  0.4722563E+03  0.7818608E-02  0.1021285E+00
         21   -1    0    0  501  502  0.00000000000E+00  0.00000000000E+00  0.80759831801E+03  0.80759831801E+03  0.00000000000E+00 0. -1.
         21   -1    0    0  502  503 -0.00000000000E+00 -0.00000000000E+00 -0.10134847784E+04  0.10134847784E+04  0.00000000000E+00 0. -1.
    9000007    1    1    2  501    0 -0.20965903018E+03  0.13809082547E+03  0.67369846120E+03  0.82273665388E+03  0.40000000000E+03 0. -1.
   -9000007    1    1    2    0  503  0.20965903018E+03 -0.13809082547E+03 -0.87958492157E+03  0.99834644251E+03  0.40000000000E+03 0. -1.
<mgrwt>
<rscale>  2 0.47225627E+03</rscale>
<asrwt>0</asrwt>
<pdfrwt beam="1">  1       21 0.12424590E+00 0.47225627E+03</pdfrwt>
<pdfrwt beam="2">  1       21 0.15592073E+00 0.47225627E+03</pdfrwt>
<totfact> 0.10360354E+02</totfact>
</mgrwt>
</event>
<event>
 4    1  0.4758602E-002  0.4036679E+03  0.7818608E-02  0.1042517E+00
         21   -1    0    0  501  502  0.00000000000E+00  0.00000000000E+00  0.28946713206E+03  0.28946713206E+03  0.00000000000E+00 0. -1.
         21   -1    0    0  502  503 -0.00000000000E+00 -0.00000000000E+00 -0.69681312956E+03  0.69681312956E+03  0.00000000000E+00 0. -1.
    9000007    1    1    2  501    0 -0.17860613834E+02  0.51271510208E+02  0.12492366929E+02  0.40386115005E+03  0.40000000000E+03 0. -1.
   -9000007    1    1    2    0  503  0.17860613834E+02 -0.51271510208E+02 -0.41983836443E+03  0.58241911158E+03  0.40000000000E+03 0. -1.
<mgrwt>
<rscale>  2 0.40366789E+03</rscale>
<asrwt>0</asrwt>
<pdfrwt beam="1">  1       21 0.44533405E-01 0.40366789E+03</pdfrwt>
<pdfrwt beam="2">  1       21 0.10720202E+00 0.40366789E+03</pdfrwt>
<totfact> 0.29737500E+03</totfact>
</mgrwt>
</event>
<event>
 4    1  0.4758602E-002  0.5688769E+03  0.7818608E-02  0.9972167E-01
         21   -1    0    0  503  502  0.00000000000E+00  0.00000000000E+00  0.59170839780E+03  0.59170839780E+03  0.00000000000E+00 0. -1.
         21   -1    0    0  501  503 -0.00000000000E+00 -0.00000000000E+00 -0.79996725902E+03  0.79996725902E+03  0.00000000000E+00 0. -1.
    9000007    1    1    2  501    0  0.34447854523E+03  0.21202705652E+03 -0.49548116215E+03  0.75440209627E+03  0.40000000000E+03 0. -1.
   -9000007    1    1    2    0  502 -0.34447854523E+03 -0.21202705652E+03  0.28722230093E+03  0.63727356054E+03  0.40000000000E+03 0. -1.
<mgrwt>
<rscale>  2 0.56887691E+03</rscale>
<asrwt>0</asrwt>
<pdfrwt beam="1">  1       21 0.91032061E-01 0.56887691E+03</pdfrwt>
<pdfrwt beam="2">  1       21 0.12307189E+00 0.56887691E+03</pdfrwt>
<totfact> 0.40255555E+02</totfact>
</mgrwt>
</event>
<event>
 4    1  0.4758602E-002  0.4010237E+03  0.7818608E-02  0.1043426E+00
         21   -1    0    0  503  502  0.00000000000E+00  0.00000000000E+00  0.37213350394E+03  0.37213350394E+03  0.00000000000E+00 0.  1.
         21   -1    0    0  501  503 -0.00000000000E+00 -0.00000000000E+00 -0.46921647307E+03  0.46921647307E+03  0.00000000000E+00 0.  1.
    9000007    1    1    2  501    0  0.16285962874E+02 -0.23553297780E+02 -0.16676704745E+03  0.43431697934E+03  0.40000000000E+03 0. -1.
   -9000007    1    1    2    0  502 -0.16285962874E+02  0.23553297780E+02  0.69684078322E+02  0.40703299767E+03  0.40000000000E+03 0. -1.
<mgrwt>
<rscale>  2 0.40102368E+03</rscale>
<asrwt>0</asrwt>
<pdfrwt beam="1">  1       21 0.57251309E-01 0.40102368E+03</pdfrwt>
<pdfrwt beam="2">  1       21 0.72187149E-01 0.40102368E+03</pdfrwt>
<totfact> 0.44278639E+03</totfact>
</mgrwt>
</event>
<event>
 4    1  0.4758602E-002  0.4578575E+03  0.7818608E-02  0.1025404E+00
         21   -1    0    0  501  502  0.00000000000E+00  0.00000000000E+00  0.35531743024E+03  0.35531743024E+03  0.00000000000E+00 0.  1.
         21   -1    0    0  502  503 -0.00000000000E+00 -0.00000000000E+00 -0.59003357903E+03  0.59003357903E+03  0.00000000000E+00 0. -1.
    9000007    1    1    2  501    0 -0.89415593587E+02  0.20405486141E+03 -0.11327024742E+03  0.47166055993E+03  0.40000000000E+03 0.  1.
   -9000007    1    1    2    0  503  0.89415593587E+02 -0.20405486141E+03 -0.12144590136E+03  0.47369044935E+03  0.40000000000E+03 0. -1.
<mgrwt>
<rscale>  2 0.45785755E+03</rscale>
<asrwt>0</asrwt>
<pdfrwt beam="1">  1       21 0.54664220E-01 0.45785755E+03</pdfrwt>
<pdfrwt beam="2">  1       21 0.90774397E-01 0.45785755E+03</pdfrwt>
<totfact> 0.28207317E+03</totfact>
</mgrwt>
</event>
<event>
 4    1  0.4758602E-002  0.4137433E+03  0.7818608E-02  0.1039122E+00
         21   -1    0    0  503  502  0.00000000000E+00  0.00000000000E+00  0.12547946527E+04  0.12547946527E+04  0.00000000000E+00 0. -1.
         21   -1    0    0  501  503 -0.00000000000E+00 -0.00000000000E+00 -0.55592751435E+03  0.55592751435E+03  0.00000000000E+00 0. -1.
    9000007    1    1    2  501    0 -0.21127654942E+02 -0.10362000809E+03 -0.43703395953E+03  0.60181572401E+03  0.40000000000E+03 0. -1.
   -9000007    1    1    2    0  502  0.21127654942E+02  0.10362000809E+03  0.11359010979E+04  0.12089064431E+04  0.40000000000E+03 0. -1.
<mgrwt>
<rscale>  2 0.41374326E+03</rscale>
<asrwt>0</asrwt>
<pdfrwt beam="1">  1       21 0.19304533E+00 0.41374326E+03</pdfrwt>
<pdfrwt beam="2">  1       21 0.85527310E-01 0.41374326E+03</pdfrwt>
<totfact> 0.14438542E+02</totfact>
</mgrwt>
</event>
<event>
 4    1  0.4758602E-002  0.4251765E+03  0.7818608E-02  0.1035395E+00
         21   -1    0    0  503  502  0.00000000000E+00  0.00000000000E+00  0.32666867008E+03  0.32666867008E+03  0.00000000000E+00 0.  1.
         21   -1    0    0  501  503 -0.00000000000E+00 -0.00000000000E+00 -0.56348136443E+03  0.56348136443E+03  0.00000000000E+00 0. -1.
    9000007    1    1    2  501    0  0.53579033706E+02  0.13380699353E+03 -0.17796958911E+03  0.46092103339E+03  0.40000000000E+03 0. -1.
   -9000007    1    1    2    0  502 -0.53579033706E+02 -0.13380699353E+03 -0.58843105244E+02  0.42922900112E+03  0.40000000000E+03 0.  1.
<mgrwt>
<rscale>  2 0.42517646E+03</rscale>
<asrwt>0</asrwt>
<pdfrwt beam="1">  1       21 0.50256719E-01 0.42517646E+03</pdfrwt>
<pdfrwt beam="2">  1       21 0.86689440E-01 0.42517646E+03</pdfrwt>
<totfact> 0.38090946E+03</totfact>
</mgrwt>
</event>
<event>
 4    1  0.4758602E-002  0.4202614E+03  0.7818608E-02  0.1036981E+00
         21   -1    0    0  503  502  0.00000000000E+00  0.00000000000E+00  0.11926513439E+03  0.11926513439E+03  0.00000000000E+00 0. -1.
         21   -1    0    0  501  503 -0.00000000000E+00 -0.00000000000E+00 -0.19325725590E+04  0.19325725590E+04  0.00000000000E+00 0.  1.
    9000007    1    1    2  501    0  0.12657587552E+03  0.24457960517E+02 -0.14026259114E+04  0.14642332777E+04  0.40000000000E+03 0.  1.
   -9000007    1    1    2    0  502 -0.12657587552E+03 -0.24457960517E+02 -0.41068151323E+03  0.58760441575E+03  0.40000000000E+03 0. -1.
<mgrwt>
<rscale>  2 0.42026140E+03</rscale>
<asrwt>0</asrwt>
<pdfrwt beam="1">  1       21 0.18348481E-01 0.42026140E+03</pdfrwt>
<pdfrwt beam="2">  1       21 0.29731888E+00 0.42026140E+03</pdfrwt>
<totfact> 0.78396892E+02</totfact>
</mgrwt>
</event>
<event>
 4    1  0.4758602E-002  0.4348575E+03  0.7818608E-02  0.1032336E+00
         21   -1    0    0  501  502  0.00000000000E+00  0.00000000000E+00  0.41588298003E+03  0.41588298003E+03  0.00000000000E+00 0. -1.
         21   -1    0    0  502  503 -0.00000000000E+00 -0.00000000000E+00 -0.48240775507E+03  0.48240775507E+03  0.00000000000E+00 0.  1.
    9000007    1    1    2  501    0 -0.11522216261E+03  0.12579717456E+03 -0.14090833850E+03  0.45711731070E+03  0.40000000000E+03 0. -1.
   -9000007    1    1    2    0  503  0.11522216261E+03 -0.12579717456E+03  0.74383563452E+02  0.44117342440E+03  0.40000000000E+03 0. -1.
<mgrwt>
<rscale>  2 0.43485754E+03</rscale>
<asrwt>0</asrwt>
<pdfrwt beam="1">  1       21 0.63981997E-01 0.43485754E+03</pdfrwt>
<pdfrwt beam="2">  1       21 0.74216578E-01 0.43485754E+03</pdfrwt>
<totfact> 0.32187179E+03</totfact>
</mgrwt>
</event>
<event>
 4    1  0.4758602E-002  0.4586639E+03  0.7818608E-02  0.1025169E+00
         21   -1    0    0  503  502  0.00000000000E+00  0.00000000000E+00  0.12178403807E+04  0.12178403807E+04  0.00000000000E+00 0. -1.
         21   -1    0    0  501  503 -0.00000000000E+00 -0.00000000000E+00 -0.57884604027E+03  0.57884604027E+03  0.00000000000E+00 0. -1.
    9000007    1    1    2  501    0  0.37301841925E+02 -0.22131690134E+03 -0.43295557205E+03  0.63073221386E+03  0.40000000000E+03 0. -1.
   -9000007    1    1    2    0  502 -0.37301841925E+02  0.22131690134E+03  0.10719499124E+04  0.11659542071E+04  0.40000000000E+03 0. -1.
<mgrwt>
<rscale>  2 0.45866393E+03</rscale>
<asrwt>0</asrwt>
<pdfrwt beam="1">  1       21 0.18736006E+00 0.45866393E+03</pdfrwt>
<pdfrwt beam="2">  1       21 0.89053237E-01 0.45866393E+03</pdfrwt>
<totfact> 0.13996819E+02</totfact>
</mgrwt>
</event>
<event>
 4    1  0.4758602E-002  0.4076959E+03  0.7818608E-02  0.1041147E+00
         21   -1    0    0  503  502  0.00000000000E+00  0.00000000000E+00  0.26555084026E+03  0.26555084026E+03  0.00000000000E+00 0. -1.
         21   -1    0    0  501  503 -0.00000000000E+00 -0.00000000000E+00 -0.81865922469E+03  0.81865922469E+03  0.00000000000E+00 0. -1.
    9000007    1    1    2  501    0  0.41990799250E+02 -0.66728526118E+02 -0.53958521794E+03  0.67628997541E+03  0.40000000000E+03 0. -1.
   -9000007    1    1    2    0  502 -0.41990799250E+02  0.66728526118E+02 -0.13523166491E+02  0.40792008954E+03  0.40000000000E+03 0. -1.
<mgrwt>
<rscale>  2 0.40769587E+03</rscale>
<asrwt>0</asrwt>
<pdfrwt beam="1">  1       21 0.40853975E-01 0.40769587E+03</pdfrwt>
<pdfrwt beam="2">  1       21 0.12594757E+00 0.40769587E+03</pdfrwt>
<totfact> 0.23691992E+03</totfact>
</mgrwt>
</event>
<event>
 4    1  0.4758602E-002  0.4648262E+03  0.7818608E-02  0.1023391E+00
         21   -1    0    0  501  502  0.00000000000E+00  0.00000000000E+00  0.28923402629E+03  0.28923402629E+03  0.00000000000E+00 0. -1.
         21   -1    0    0  502  503 -0.00000000000E+00 -0.00000000000E+00 -0.16018129075E+04  0.16018129075E+04  0.00000000000E+00 0. -1.
    9000007    1    1    2  501    0 -0.10443409081E+03  0.21250151958E+03  0.34422672148E+02  0.46609901899E+03  0.40000000000E+03 0. -1.
   -9000007    1    1    2    0  503  0.10443409081E+03 -0.21250151958E+03 -0.13470015534E+04  0.14249479148E+04  0.40000000000E+03 0. -1.
<mgrwt>
<rscale>  2 0.46482618E+03</rscale>
<asrwt>0</asrwt>
<pdfrwt beam="1">  1       21 0.44497543E-01 0.46482618E+03</pdfrwt>
<pdfrwt beam="2">  1       21 0.24643275E+00 0.46482618E+03</pdfrwt>
<totfact> 0.26923955E+02</totfact>
</mgrwt>
</event>
<event>
 4    1  0.4758602E-002  0.5190118E+03  0.7818608E-02  0.1008932E+00
         21   -1    0    0  503  502  0.00000000000E+00  0.00000000000E+00  0.10876861391E+03  0.10876861391E+03  0.00000000000E+00 0.  1.
         21   -1    0    0  501  503 -0.00000000000E+00 -0.00000000000E+00 -0.26372222077E+04  0.26372222077E+04  0.00000000000E+00 0. -1.
    9000007    1    1    2  501    0  0.31753494748E+03  0.92437877997E+02 -0.92535329859E+03  0.10609674507E+04  0.40000000000E+03 0.  1.
   -9000007    1    1    2    0  502 -0.31753494748E+03 -0.92437877997E+02 -0.16031002952E+04  0.16850233709E+04  0.40000000000E+03 0. -1.
<mgrwt>
<rscale>  2 0.51901176E+03</rscale>
<asrwt>0</asrwt>
<pdfrwt beam="1">  1       21 0.16733635E-01 0.51901176E+03</pdfrwt>
<pdfrwt beam="2">  1       21 0.40572645E+00 0.51901176E+03</pdfrwt>
<totfact> 0.18807477E+02</totfact>
</mgrwt>
</event>
<event>
 4    1  0.4758602E-002  0.4537414E+03  0.7818608E-02  0.1026612E+00
         21   -1    0    0  501  502  0.00000000000E+00  0.00000000000E+00  0.77350544813E+03  0.77350544813E+03  0.00000000000E+00 0.  1.
         21   -1    0    0  502  503 -0.00000000000E+00 -0.00000000000E+00 -0.26627130057E+03  0.26627130057E+03  0.00000000000E+00 0.  1.
    9000007    1    1    2  501    0  0.74586121020E+02  0.20079380724E+03  0.24330330521E+03  0.51485701006E+03  0.40000000000E+03 0.  1.
   -9000007    1    1    2    0  503 -0.74586121020E+02 -0.20079380724E+03  0.26393084235E+03  0.52491973865E+03  0.40000000000E+03 0.  1.
<mgrwt>
<rscale>  2 0.45374138E+03</rscale>
<asrwt>0</asrwt>
<pdfrwt beam="1">  1       21 0.11900084E+00 0.45374138E+03</pdfrwt>
<pdfrwt beam="2">  1       21 0.40964816E-01 0.45374138E+03</pdfrwt>
<totfact> 0.26752208E+03</totfact>
</mgrwt>
</event>
<event>
 4    1  0.4758602E-002  0.7064882E+03  0.7818608E-02  0.9706200E-01
         21   -1    0    0  501  502  0.00000000000E+00  0.00000000000E+00  0.60682180962E+03  0.60682180962E+03  0.00000000000E+00 0.  1.
         21   -1    0    0  502  503 -0.00000000000E+00 -0.00000000000E+00 -0.87163194445E+03  0.87163194445E+03  0.00000000000E+00 0. -1.
    9000007    1    1    2  501    0 -0.38413771501E+03 -0.43768007194E+03 -0.30786830142E+03  0.77065460518E+03  0.40000000000E+03 0. -1.
   -9000007    1    1    2    0  503  0.38413771501E+03  0.43768007194E+03  0.43058166596E+02  0.70779914890E+03  0.40000000000E+03 0.  1.
<mgrwt>
<rscale>  2 0.70648824E+03</rscale>
<asrwt>0</asrwt>
<pdfrwt beam="1">  1       21 0.93357202E-01 0.70648824E+03</pdfrwt>
<pdfrwt beam="2">  1       21 0.13409722E+00 0.70648824E+03</pdfrwt>
<totfact> 0.28944339E+02</totfact>
</mgrwt>
</event>
<event>
 4    1  0.4758602E-002  0.5962488E+03  0.7818608E-02  0.9913219E-01
         21   -1    0    0  501  502  0.00000000000E+00  0.00000000000E+00  0.71386315668E+03  0.71386315668E+03  0.00000000000E+00 0.  1.
         21   -1    0    0  502  503 -0.00000000000E+00 -0.00000000000E+00 -0.65206930683E+03  0.65206930683E+03  0.00000000000E+00 0. -1.
    9000007    1    1    2  501    0  0.43265175031E+03 -0.91241825683E+02  0.36286256052E+03  0.69798412992E+03  0.40000000000E+03 0.  1.
   -9000007    1    1    2    0  503 -0.43265175031E+03  0.91241825683E+02 -0.30106871067E+03  0.66794833359E+03  0.40000000000E+03 0. -1.
<mgrwt>
<rscale>  2 0.59624878E+03</rscale>
<asrwt>0</asrwt>
<pdfrwt beam="1">  1       21 0.10982510E+00 0.59624878E+03</pdfrwt>
<pdfrwt beam="2">  1       21 0.10031836E+00 0.59624878E+03</pdfrwt>
<totfact> 0.42071319E+02</totfact>
</mgrwt>
</event>
<event>
 4    1  0.4758602E-002  0.5280377E+03  0.7818608E-02  0.1006709E+00
         21   -1    0    0  501  502  0.00000000000E+00  0.00000000000E+00  0.70944268780E+03  0.70944268780E+03  0.00000000000E+00 0. -1.
         21   -1    0    0  502  503 -0.00000000000E+00 -0.00000000000E+00 -0.62295672379E+03  0.62295672379E+03  0.00000000000E+00 0. -1.
    9000007    1    1    2  501    0  0.11486126458E+03 -0.32500879164E+03  0.44798794393E+03  0.69247167643E+03  0.40000000000E+03 0. -1.
   -9000007    1    1    2    0  503 -0.11486126458E+03  0.32500879164E+03 -0.36150197992E+03  0.63992773516E+03  0.40000000000E+03 0. -1.
<mgrwt>
<rscale>  2 0.52803771E+03</rscale>
<asrwt>0</asrwt>
<pdfrwt beam="1">  1       21 0.10914503E+00 0.52803771E+03</pdfrwt>
<pdfrwt beam="2">  1       21 0.95839496E-01 0.52803771E+03</pdfrwt>
<totfact> 0.48933325E+02</totfact>
</mgrwt>
</event>
<event>
 4    1  0.4758602E-002  0.6477947E+03  0.7818608E-02  0.9810926E-01
         21   -1    0    0  501  502  0.00000000000E+00  0.00000000000E+00  0.22234016894E+04  0.22234016894E+04  0.00000000000E+00 0.  1.
         21   -1    0    0  502  503 -0.00000000000E+00 -0.00000000000E+00 -0.19909754480E+03  0.19909754480E+03  0.00000000000E+00 0. -1.
    9000007    1    1    2  501    0 -0.14388678824E+03  0.48880934789E+03  0.73584393366E+03  0.98035926125E+03  0.40000000000E+03 0. -1.
   -9000007    1    1    2    0  503  0.14388678824E+03 -0.48880934789E+03  0.12884602109E+04  0.14421399729E+04  0.40000000000E+03 0.  1.
<mgrwt>
<rscale>  2 0.64779471E+03</rscale>
<asrwt>0</asrwt>
<pdfrwt beam="1">  1       21 0.34206178E+00 0.64779471E+03</pdfrwt>
<pdfrwt beam="2">  1       21 0.30630393E-01 0.64779471E+03</pdfrwt>
<totfact> 0.13798698E+02</totfact>
</mgrwt>
</event>
<event>
 4    1  0.4758602E-002  0.4664165E+03  0.7818608E-02  0.1022937E+00
         21   -1    0    0  503  502  0.00000000000E+00  0.00000000000E+00  0.73679123549E+03  0.73679123549E+03  0.00000000000E+00 0. -1.
         21   -1    0    0  501  503 -0.00000000000E+00 -0.00000000000E+00 -0.38865073227E+03  0.38865073227E+03  0.00000000000E+00 0. -1.
    9000007    1    1    2  501    0 -0.26220776346E+02  0.23844668072E+03 -0.10177610266E+03  0.47739158322E+03  0.40000000000E+03 0. -1.
   -9000007    1    1    2    0  502  0.26220776346E+02 -0.23844668072E+03  0.44991660588E+03  0.64805038454E+03  0.40000000000E+03 0. -1.
<mgrwt>
<rscale>  2 0.46641650E+03</rscale>
<asrwt>0</asrwt>
<pdfrwt beam="1">  1       21 0.11335250E+00 0.46641650E+03</pdfrwt>
<pdfrwt beam="2">  1       21 0.59792421E-01 0.46641650E+03</pdfrwt>
<totfact> 0.13459614E+03</totfact>
</mgrwt>
</event>
<event>
 4    1  0.4758602E-002  0.4054280E+03  0.7818608E-02  0.1041916E+00
         21   -1    0    0  503  502  0.00000000000E+00  0.00000000000E+00  0.34819857035E+03  0.34819857035E+03  0.00000000000E+00 0.  1.
         21   -1    0    0  501  503 -0.00000000000E+00 -0.00000000000E+00 -0.48617909575E+03  0.48617909575E+03  0.00000000000E+00 0.  1.
    9000007    1    1    2  501    0  0.64513693023E+02 -0.14486260219E+02  0.20955125605E+01  0.40543342178E+03  0.40000000000E+03 0.  1.
   -9000007    1    1    2    0  502 -0.64513693023E+02  0.14486260219E+02 -0.14007603796E+03  0.42894424432E+03  0.40000000000E+03 0.  1.
<mgrwt>
<rscale>  2 0.40542801E+03</rscale>
<asrwt>0</asrwt>
<pdfrwt beam="1">  1       21 0.53569011E-01 0.40542801E+03</pdfrwt>
<pdfrwt beam="2">  1       21 0.74796784E-01 0.40542801E+03</pdfrwt>
<totfact> 0.47071520E+03</totfact>
</mgrwt>
</event>
<event>
 4    1  0.4758602E-002  0.4015022E+03  0.7818608E-02  0.1043261E+00
         21   -1    0    0  501  502  0.00000000000E+00  0.00000000000E+00  0.12780679141E+04  0.12780679141E+04  0.00000000000E+00 0. -1.
         21   -1    0    0  502  503 -0.00000000000E+00 -0.00000000000E+00 -0.12692048563E+03  0.12692048563E+03  0.00000000000E+00 0. -1.
    9000007    1    1    2  501    0  0.24108751672E+02 -0.24956039640E+02  0.52017013049E+03  0.65710044930E+03  0.40000000000E+03 0. -1.
   -9000007    1    1    2    0  503 -0.24108751672E+02  0.24956039640E+02  0.63097729798E+03  0.74788795042E+03  0.40000000000E+03 0. -1.
<mgrwt>
<rscale>  2 0.40150222E+03</rscale>
<asrwt>0</asrwt>
<pdfrwt beam="1">  1       21 0.19662582E+00 0.40150222E+03</pdfrwt>
<pdfrwt beam="2">  1       21 0.19526229E-01 0.40150222E+03</pdfrwt>
<totfact> 0.29657969E+03</totfact>
</mgrwt>
</event>
<event>
 4    1  0.4758602E-002  0.5107921E+03  0.7818608E-02  0.1011000E+00
         21   -1    0    0  501  502  0.00000000000E+00  0.00000000000E+00  0.92821153586E+03  0.92821153586E+03  0.00000000000E+00 0.  1.
         21   -1    0    0  502  503 -0.00000000000E+00 -0.00000000000E+00 -0.30119844388E+03  0.30119844388E+03  0.00000000000E+00 0. -1.
    9000007    1    1    2  501    0 -0.27364300216E+03 -0.16133211246E+03  0.47234584585E+03  0.69571484189E+03  0.40000000000E+03 0. -1.
   -9000007    1    1    2    0  503  0.27364300216E+03  0.16133211246E+03  0.15466724613E+03  0.53369513785E+03  0.40000000000E+03 0. -1.
<mgrwt>
<rscale>  2 0.51079207E+03</rscale>
<asrwt>0</asrwt>
<pdfrwt beam="1">  1       21 0.14280177E+00 0.51079207E+03</pdfrwt>
<pdfrwt beam="2">  1       21 0.46338223E-01 0.51079207E+03</pdfrwt>
<totfact> 0.12590926E+03</totfact>
</mgrwt>
</event>
<event>
 4    1  0.4758602E-002  0.4330773E+03  0.7818608E-02  0.1032892E+00
         21   -1    0    0  503  502  0.00000000000E+00  0.00000000000E+00  0.89465440764E+03  0.89465440764E+03  0.00000000000E+00 0. -1.
         21   -1    0    0  501  503 -0.00000000000E+00 -0.00000000000E+00 -0.21314992673E+03  0.21314992673E+03  0.00000000000E+00 0.  1.
    9000007    1    1    2  501    0  0.42592882937E+02 -0.16044259126E+03  0.41182382737E+03  0.59762433313E+03  0.40000000000E+03 0. -1.
   -9000007    1    1    2    0  502 -0.42592882937E+02  0.16044259126E+03  0.26968065354E+03  0.51018000124E+03  0.40000000000E+03 0.  1.
<mgrwt>
<rscale>  2 0.43307734E+03</rscale>
<asrwt>0</asrwt>
<pdfrwt beam="1">  1       21 0.13763914E+00 0.43307734E+03</pdfrwt>
<pdfrwt beam="2">  1       21 0.32792297E-01 0.43307734E+03</pdfrwt>
<totfact> 0.29112104E+03</totfact>
</mgrwt>
</event>
<event>
 4    1  0.4758602E-002  0.8287569E+03  0.7818608E-02  0.9519301E-01
         21   -1    0    0  501  502  0.00000000000E+00  0.00000000000E+00  0.20281687693E+04  0.20281687693E+04  0.00000000000E+00 0.  1.
         21   -1    0    0  502  503 -0.00000000000E+00 -0.00000000000E+00 -0.40032087077E+03  0.40032087077E+03  0.00000000000E+00 0.  1.
    9000007    1    1    2  501    0 -0.58871340213E+03  0.42456394955E+03  0.12905134865E+04  0.15337089280E+04  0.40000000000E+03 0.  1.
   -9000007    1    1    2    0  503  0.58871340213E+03 -0.42456394955E+03  0.33733441203E+03  0.89478071204E+03  0.40000000000E+03 0.  1.
<mgrwt>
<rscale>  2 0.82875691E+03</rscale>
<asrwt>0</asrwt>
<pdfrwt beam="1">  1       21 0.31202596E+00 0.82875691E+03</pdfrwt>
<pdfrwt beam="2">  1       21 0.61587827E-01 0.82875691E+03</pdfrwt>
<totfact> 0.45186979E+01</totfact>
</mgrwt>
</event>
<event>
 4    1  0.4758602E-002  0.4102623E+03  0.7818608E-02  0.1040283E+00
         21   -1    0    0  501  502  0.00000000000E+00  0.00000000000E+00  0.27745116737E+04  0.27745116737E+04  0.00000000000E+00 0.  1.
         21   -1    0    0  502  503 -0.00000000000E+00 -0.00000000000E+00 -0.60738189406E+02  0.60738189406E+02  0.00000000000E+00 0.  1.
    9000007    1    1    2  501    0  0.74230638807E+02  0.52962048313E+02  0.13076058517E+04  0.13704554826E+04  0.40000000000E+03 0. -1.
   -9000007    1    1    2    0  503 -0.74230638807E+02 -0.52962048313E+02  0.14061676325E+04  0.14647943805E+04  0.40000000000E+03 0. -1.
<mgrwt>
<rscale>  2 0.41026231E+03</rscale>
<asrwt>0</asrwt>
<pdfrwt beam="1">  1       21 0.42684785E+00 0.41026231E+03</pdfrwt>
<pdfrwt beam="2">  1       21 0.93443390E-02 0.41026231E+03</pdfrwt>
<totfact> 0.42627943E+02</totfact>
</mgrwt>
</event>
<event>
 4    1  0.4758602E-002  0.4869923E+03  0.7818608E-02  0.1017231E+00
         21   -1    0    0  503  502  0.00000000000E+00  0.00000000000E+00  0.58531147660E+03  0.58531147660E+03  0.00000000000E+00 0.  1.
         21   -1    0    0  501  503 -0.00000000000E+00 -0.00000000000E+00 -0.42500450871E+03  0.42500450871E+03  0.00000000000E+00 0.  1.
    9000007    1    1    2  501    0  0.20187408406E+02  0.27704508327E+03 -0.28924721298E+02  0.48785053974E+03  0.40000000000E+03 0.  1.
   -9000007    1    1    2    0  502 -0.20187408406E+02 -0.27704508327E+03  0.18923168918E+03  0.52246544557E+03  0.40000000000E+03 0.  1.
<mgrwt>
<rscale>  2 0.48699231E+03</rscale>
<asrwt>0</asrwt>
<pdfrwt beam="1">  1       21 0.90047919E-01 0.48699231E+03</pdfrwt>
<pdfrwt beam="2">  1       21 0.65385309E-01 0.48699231E+03</pdfrwt>
<totfact> 0.19215290E+03</totfact>
</mgrwt>
</event>
<event>
 4    1  0.4758602E-002  0.4178840E+03  0.7818608E-02  0.1037757E+00
         21   -1    0    0  501  502  0.00000000000E+00  0.00000000000E+00  0.37731210308E+03  0.37731210308E+03  0.00000000000E+00 0. -1.
         21   -1    0    0  502  503 -0.00000000000E+00 -0.00000000000E+00 -0.46426956589E+03  0.46426956589E+03  0.00000000000E+00 0. -1.
    9000007    1    1    2  501    0  0.94391167831E+02  0.75613221409E+02 -0.67002816309E+02  0.42322148954E+03  0.40000000000E+03 0. -1.
   -9000007    1    1    2    0  503 -0.94391167831E+02 -0.75613221409E+02 -0.19954646494E+02  0.41836017943E+03  0.40000000000E+03 0. -1.
<mgrwt>
<rscale>  2 0.41788402E+03</rscale>
<asrwt>0</asrwt>
<pdfrwt beam="1">  1       21 0.58048016E-01 0.41788402E+03</pdfrwt>
<pdfrwt beam="2">  1       21 0.71426087E-01 0.41788402E+03</pdfrwt>
<totfact> 0.43735487E+03</totfact>
</mgrwt>
</event>
<event>
 4    1  0.4758602E-002  0.4040280E+03  0.7818608E-02  0.1042394E+00
         21   -1    0    0  501  502  0.00000000000E+00  0.00000000000E+00  0.60909354358E+03  0.60909354358E+03  0.00000000000E+00 0.  1.
         21   -1    0    0  502  503 -0.00000000000E+00 -0.00000000000E+00 -0.35823410390E+03  0.35823410390E+03  0.00000000000E+00 0.  1.
    9000007    1    1    2  501    0 -0.46467780690E+02 -0.32853765437E+02  0.36816860469E+03  0.54661389117E+03  0.40000000000E+03 0.  1.
   -9000007    1    1    2    0  503  0.46467780690E+02  0.32853765437E+02 -0.11730916501E+03  0.42071375630E+03  0.40000000000E+03 0.  1.
<mgrwt>
<rscale>  2 0.40402800E+03</rscale>
<asrwt>0</asrwt>
<pdfrwt beam="1">  1       21 0.93706699E-01 0.40402800E+03</pdfrwt>
<pdfrwt beam="2">  1       21 0.55112939E-01 0.40402800E+03</pdfrwt>
<totfact> 0.26223689E+03</totfact>
</mgrwt>
</event>
<event>
 4    1  0.4758602E-002  0.4329146E+03  0.7818608E-02  0.1032943E+00
         21   -1    0    0  503  502  0.00000000000E+00  0.00000000000E+00  0.20956167156E+04  0.20956167156E+04  0.00000000000E+00 0. -1.
         21   -1    0    0  501  503 -0.00000000000E+00 -0.00000000000E+00 -0.19173852484E+03  0.19173852484E+03  0.00000000000E+00 0. -1.
    9000007    1    1    2  501    0  0.12645254927E+02  0.16509122270E+03  0.11652695846E+03  0.44832303792E+03  0.40000000000E+03 0. -1.
   -9000007    1    1    2    0  502 -0.12645254927E+02 -0.16509122270E+03  0.17873512323E+04  0.18390322025E+04  0.40000000000E+03 0. -1.
<mgrwt>
<rscale>  2 0.43291456E+03</rscale>
<asrwt>0</asrwt>
<pdfrwt beam="1">  1       21 0.32240256E+00 0.43291456E+03</pdfrwt>
<pdfrwt beam="2">  1       21 0.29498236E-01 0.43291456E+03</pdfrwt>
<totfact> 0.21984778E+02</totfact>
</mgrwt>
</event>
<event>
 4    1  0.4758602E-002  0.4028560E+03  0.7818608E-02  0.1042795E+00
         21   -1    0    0  501  502  0.00000000000E+00  0.00000000000E+00  0.43524993634E+03  0.43524993634E+03  0.00000000000E+00 0. -1.
         21   -1    0    0  502  503 -0.00000000000E+00 -0.00000000000E+00 -0.49717636735E+03  0.49717636735E+03  0.00000000000E+00 0. -1.
    9000007    1    1    2  501    0  0.30285368393E+02 -0.37091280560E+02  0.20215202123E+03  0.45073096889E+03  0.40000000000E+03 0. -1.
   -9000007    1    1    2    0  503 -0.30285368393E+02  0.37091280560E+02 -0.26407845224E+03  0.48169533480E+03  0.40000000000E+03 0. -1.
<mgrwt>
<rscale>  2 0.40285601E+03</rscale>
<asrwt>0</asrwt>
<pdfrwt beam="1">  1       21 0.66961529E-01 0.40285601E+03</pdfrwt>
<pdfrwt beam="2">  1       21 0.76488672E-01 0.40285601E+03</pdfrwt>
<totfact> 0.27493145E+03</totfact>
</mgrwt>
</event>
<event>
 4    1  0.4758602E-002  0.4781926E+03  0.7818608E-02  0.1019633E+00
         21   -1    0    0  501  502  0.00000000000E+00  0.00000000000E+00  0.27197346377E+03  0.27197346377E+03  0.00000000000E+00 0. -1.
         21   -1    0    0  502  503 -0.00000000000E+00 -0.00000000000E+00 -0.87239453055E+03  0.87239453055E+03  0.00000000000E+00 0. -1.
    9000007    1    1    2  501    0 -0.17254913044E+03 -0.19721796152E+03 -0.19127587001E+03  0.51502872270E+03  0.40000000000E+03 0. -1.
   -9000007    1    1    2    0  503  0.17254913044E+03  0.19721796152E+03 -0.40914519677E+03  0.62933927162E+03  0.40000000000E+03 0. -1.
<mgrwt>
<rscale>  2 0.47819256E+03</rscale>
<asrwt>0</asrwt>
<pdfrwt beam="1">  1       21 0.41842071E-01 0.47819256E+03</pdfrwt>
<pdfrwt beam="2">  1       21 0.13421454E+00 0.47819256E+03</pdfrwt>
<totfact> 0.18600765E+03</totfact>
</mgrwt>
</event>
<event>
 4    1  0.4758602E-002  0.4128229E+03  0.7818608E-02  0.1039428E+00
         21   -1    0    0  501  502  0.00000000000E+00  0.00000000000E+00  0.96760045310E+03  0.96760045310E+03  0.00000000000E+00 0.  1.
         21   -1    0    0  502  503 -0.00000000000E+00 -0.00000000000E+00 -0.23045945903E+03  0.23045945903E+03  0.00000000000E+00 0.  1.
    9000007    1    1    2  501    0  0.54332748503E+02 -0.86433037865E+02  0.65942250147E+03  0.77798505965E+03  0.40000000000E+03 0.  1.
   -9000007    1    1    2    0  503 -0.54332748503E+02  0.86433037865E+02  0.77718492598E+02  0.42007485248E+03  0.40000000000E+03 0.  1.
<mgrwt>
<rscale>  2 0.41282286E+03</rscale>
<asrwt>0</asrwt>
<pdfrwt beam="1">  1       21 0.14886161E+00 0.41282286E+03</pdfrwt>
<pdfrwt beam="2">  1       21 0.35455302E-01 0.41282286E+03</pdfrwt>
<totfact> 0.20338734E+03</totfact>
</mgrwt>
</event>
<event>
 4    1  0.4758602E-002  0.4584819E+03  0.7818608E-02  0.1025222E+00
         21   -1    0    0  503  502  0.00000000000E+00  0.00000000000E+00  0.19919585998E+03  0.19919585998E+03  0.00000000000E+00 0. -1.
         21   -1    0    0  501  503 -0.00000000000E+00 -0.00000000000E+00 -0.10662687037E+04  0.10662687037E+04  0.00000000000E+00 0.  1.
    9000007    1    1    2  501    0  0.79366910532E+02 -0.20953894114E+03 -0.49779509055E+03  0.67676112959E+03  0.40000000000E+03 0.  1.
   -9000007    1    1    2    0  502 -0.79366910532E+02  0.20953894114E+03 -0.36927775320E+03  0.58870343412E+03  0.40000000000E+03 0. -1.
<mgrwt>
<rscale>  2 0.45848192E+03</rscale>
<asrwt>0</asrwt>
<pdfrwt beam="1">  1       21 0.30645516E-01 0.45848192E+03</pdfrwt>
<pdfrwt beam="2">  1       21 0.16404134E+00 0.45848192E+03</pdfrwt>
<totfact> 0.20467309E+03</totfact>
</mgrwt>
</event>
<event>
 4    1  0.4758602E-002  0.1258543E+04  0.7818608E-02  0.9063103E-01
         21   -1    0    0  503  502  0.00000000000E+00  0.00000000000E+00  0.83165819752E+03  0.83165819752E+03  0.00000000000E+00 0. -1.
         21   -1    0    0  501  503 -0.00000000000E+00 -0.00000000000E+00 -0.19126226074E+04  0.19126226074E+04  0.00000000000E+00 0.  1.
    9000007    1    1    2  501    0 -0.11526363690E+04 -0.30880297154E+03 -0.62965744070E+03  0.14072662744E+04  0.40000000000E+03 0.  1.
   -9000007    1    1    2    0  502  0.11526363690E+04  0.30880297154E+03 -0.45130696920E+03  0.13370145305E+04  0.40000000000E+03 0. -1.
<mgrwt>
<rscale>  2 0.12585428E+04</rscale>
<asrwt>0</asrwt>
<pdfrwt beam="1">  1       21 0.12794742E+00 0.12585428E+04</pdfrwt>
<pdfrwt beam="2">  1       21 0.29424963E+00 0.12585428E+04</pdfrwt>
<totfact> 0.87731267E+00</totfact>
</mgrwt>
</event>
<event>
 4    1  0.4758602E-002  0.4831838E+03  0.7818608E-02  0.1018264E+00
         21   -1    0    0  503  502  0.00000000000E+00  0.00000000000E+00  0.25305092639E+03  0.25305092639E+03  0.00000000000E+00 0. -1.
         21   -1    0    0  501  503 -0.00000000000E+00 -0.00000000000E+00 -0.96408851446E+03  0.96408851446E+03  0.00000000000E+00 0.  1.
    9000007    1    1    2  501    0 -0.25063263050E+03 -0.10319810303E+03 -0.22928401500E+03  0.53482494657E+03  0.40000000000E+03 0.  1.
   -9000007    1    1    2    0  502  0.25063263050E+03  0.10319810303E+03 -0.48175357307E+03  0.68231449428E+03  0.40000000000E+03 0.  1.
<mgrwt>
<rscale>  2 0.48318378E+03</rscale>
<asrwt>0</asrwt>
<pdfrwt beam="1">  1       21 0.38930912E-01 0.48318378E+03</pdfrwt>
<pdfrwt beam="2">  1       21 0.14832131E+00 0.48318378E+03</pdfrwt>
<totfact> 0.16500737E+03</totfact>
</mgrwt>
</event>
<event>
 4    1  0.4758602E-002  0.4175383E+03  0.7818608E-02  0.1037871E+00
         21   -1    0    0  503  502  0.00000000000E+00  0.00000000000E+00  0.16590914563E+03  0.16590914563E+03  0.00000000000E+00 0.  1.
         21   -1    0    0  501  503 -0.00000000000E+00 -0.00000000000E+00 -0.11894154144E+04  0.11894154144E+04  0.00000000000E+00 0.  1.
    9000007    1    1    2  501    0 -0.25284397311E+02 -0.11704228789E+03 -0.74308960332E+03  0.85236163479E+03  0.40000000000E+03 0.  1.
   -9000007    1    1    2    0  502  0.25284397311E+02  0.11704228789E+03 -0.28041666546E+03  0.50296292524E+03  0.40000000000E+03 0.  1.
<mgrwt>
<rscale>  2 0.41753826E+03</rscale>
<asrwt>0</asrwt>
<pdfrwt beam="1">  1       21 0.25524483E-01 0.41753826E+03</pdfrwt>
<pdfrwt beam="2">  1       21 0.18298700E+00 0.41753826E+03</pdfrwt>
<totfact> 0.21808595E+03</totfact>
</mgrwt>
</event>
<event>
 4    1  0.4758602E-002  0.4035141E+03  0.7818608E-02  0.1042570E+00
         21   -1    0    0  503  502  0.00000000000E+00  0.00000000000E+00  0.88626978246E+03  0.88626978246E+03  0.00000000000E+00 0. -1.
         21   -1    0    0  501  503 -0.00000000000E+00 -0.00000000000E+00 -0.18507462509E+03  0.18507462509E+03  0.00000000000E+00 0. -1.
    9000007    1    1    2  501    0 -0.51599731878E+02  0.12692777968E+02  0.30473391232E+03  0.50565442375E+03  0.40000000000E+03 0. -1.
   -9000007    1    1    2    0  502  0.51599731878E+02 -0.12692777968E+02  0.39646124505E+03  0.56568998380E+03  0.40000000000E+03 0. -1.
<mgrwt>
<rscale>  2 0.40351411E+03</rscale>
<asrwt>0</asrwt>
<pdfrwt beam="1">  1       21 0.13634919E+00 0.40351411E+03</pdfrwt>
<pdfrwt beam="2">  1       21 0.28473020E-01 0.40351411E+03</pdfrwt>
<totfact> 0.39980185E+03</totfact>
</mgrwt>
</event>
<event>
 4    1  0.4758602E-002  0.4718397E+03  0.7818608E-02  0.1021402E+00
         21   -1    0    0  503  502  0.00000000000E+00  0.00000000000E+00  0.30722827731E+03  0.30722827731E+03  0.00000000000E+00 0. -1.
         21   -1    0    0  501  503 -0.00000000000E+00 -0.00000000000E+00 -0.99091004183E+03  0.99091004183E+03  0.00000000000E+00 0. -1.
    9000007    1    1    2  501    0  0.22605010192E+03 -0.10739650655E+03 -0.53853388402E+01  0.47187038482E+03  0.40000000000E+03 0. -1.
   -9000007    1    1    2    0  502 -0.22605010192E+03  0.10739650655E+03 -0.67829642568E+03  0.82626793432E+03  0.40000000000E+03 0. -1.
<mgrwt>
<rscale>  2 0.47183965E+03</rscale>
<asrwt>0</asrwt>
<pdfrwt beam="1">  1       21 0.47265888E-01 0.47183965E+03</pdfrwt>
<pdfrwt beam="2">  1       21 0.15244770E+00 0.47183965E+03</pdfrwt>
<totfact> 0.10267459E+03</totfact>
</mgrwt>
</event>
<event>
 4    1  0.4758602E-002  0.4369113E+03  0.7818608E-02  0.1031699E+00
         21   -1    0    0  501  502  0.00000000000E+00  0.00000000000E+00  0.11120412852E+04  0.11120412852E+04  0.00000000000E+00 0.  1.
         21   -1    0    0  502  503 -0.00000000000E+00 -0.00000000000E+00 -0.28974291474E+03  0.28974291474E+03  0.00000000000E+00 0. -1.
    9000007    1    1    2  501    0 -0.26808994236E+02 -0.17370303510E+03  0.85859539362E+03  0.96336779919E+03  0.40000000000E+03 0.  1.
   -9000007    1    1    2    0  503  0.26808994236E+02  0.17370303510E+03 -0.36297023135E+02  0.43841640077E+03  0.40000000000E+03 0. -1.
<mgrwt>
<rscale>  2 0.43691128E+03</rscale>
<asrwt>0</asrwt>
<pdfrwt beam="1">  1       21 0.17108327E+00 0.43691128E+03</pdfrwt>
<pdfrwt beam="2">  1       21 0.44575834E-01 0.43691128E+03</pdfrwt>
<totfact> 0.85418344E+02</totfact>
</mgrwt>
</event>
<event>
 4    1  0.4758602E-002  0.4891547E+03  0.7818608E-02  0.1016649E+00
         21   -1    0    0  503  502  0.00000000000E+00  0.00000000000E+00  0.58238454529E+03  0.58238454529E+03  0.00000000000E+00 0. -1.
         21   -1    0    0  501  503 -0.00000000000E+00 -0.00000000000E+00 -0.46998089848E+03  0.46998089848E+03  0.00000000000E+00 0.  1.
    9000007    1    1    2  501    0  0.26793001155E+03 -0.86520477531E+02 -0.13043884480E+03  0.50624754454E+03  0.40000000000E+03 0.  1.
   -9000007    1    1    2    0  502 -0.26793001155E+03  0.86520477531E+02  0.24284249160E+03  0.54611789922E+03  0.40000000000E+03 0. -1.
<mgrwt>
<rscale>  2 0.48915466E+03</rscale>
<asrwt>0</asrwt>
<pdfrwt beam="1">  1       21 0.89597623E-01 0.48915466E+03</pdfrwt>
<pdfrwt beam="2">  1       21 0.72304753E-01 0.48915466E+03</pdfrwt>
<totfact> 0.15496303E+03</totfact>
</mgrwt>
</event>
<event>
 4    1  0.4758602E-002  0.4338404E+03  0.7818608E-02  0.1032654E+00
         21   -1    0    0  503  502  0.00000000000E+00  0.00000000000E+00  0.14010927776E+03  0.14010927776E+03  0.00000000000E+00 0. -1.
         21   -1    0    0  501  503 -0.00000000000E+00 -0.00000000000E+00 -0.13930208343E+04  0.13930208343E+04  0.00000000000E+00 0. -1.
    9000007    1    1    2  501    0 -0.15973812653E+03  0.51973469746E+02 -0.48172279836E+03  0.64828571254E+03  0.40000000000E+03 0.  1.
   -9000007    1    1    2    0  502  0.15973812653E+03 -0.51973469746E+02 -0.77118875818E+03  0.88484439953E+03  0.40000000000E+03 0.  1.
<mgrwt>
<rscale>  2 0.43384042E+03</rscale>
<asrwt>0</asrwt>
<pdfrwt beam="1">  1       21 0.21555274E-01 0.43384042E+03</pdfrwt>
<pdfrwt beam="2">  1       21 0.21431089E+00 0.43384042E+03</pdfrwt>
<totfact> 0.18525712E+03</totfact>
</mgrwt>
</event>
<event>
 4    1  0.4758602E-002  0.4614869E+03  0.7818608E-02  0.1024351E+00
         21   -1    0    0  503  502  0.00000000000E+00  0.00000000000E+00  0.61787301968E+03  0.61787301968E+03  0.00000000000E+00 0.  1.
         21   -1    0    0  501  503 -0.00000000000E+00 -0.00000000000E+00 -0.41820687091E+03  0.41820687091E+03  0.00000000000E+00 0.  1.
    9000007    1    1    2  501    0  0.12915669519E+03  0.19049602149E+03  0.31704442586E+03  0.55989941426E+03  0.40000000000E+03 0.  1.
   -9000007    1    1    2    0  502 -0.12915669519E+03 -0.19049602149E+03 -0.11737827709E+03  0.47618047634E+03  0.40000000000E+03 0.  1.
<mgrwt>
<rscale>  2 0.46148693E+03</rscale>
<asrwt>0</asrwt>
<pdfrwt beam="1">  1       21 0.95057388E-01 0.46148693E+03</pdfrwt>
<pdfrwt beam="2">  1       21 0.64339518E-01 0.46148693E+03</pdfrwt>
<totfact> 0.17665778E+03</totfact>
</mgrwt>
</event>
<event>
 4    1  0.4758602E-002  0.4480929E+03  0.7818608E-02  0.1028292E+00
         21   -1    0    0  503  502  0.00000000000E+00  0.00000000000E+00  0.86546908784E+03  0.86546908784E+03  0.00000000000E+00 0.  1.
         21   -1    0    0  501  503 -0.00000000000E+00 -0.00000000000E+00 -0.28410219883E+03  0.28410219883E+03  0.00000000000E+00 0. -1.
    9000007    1    1    2  501    0  0.11576009730E+03 -0.16548964859E+03  0.44530878895E+02  0.45030014778E+03  0.40000000000E+03 0. -1.
   -9000007    1    1    2    0  502 -0.11576009730E+03  0.16548964859E+03  0.53683601012E+03  0.69927113888E+03  0.40000000000E+03 0.  1.
<mgrwt>
<rscale>  2 0.44809287E+03</rscale>
<asrwt>0</asrwt>
<pdfrwt beam="1">  1       21 0.13314909E+00 0.44809287E+03</pdfrwt>
<pdfrwt beam="2">  1       21 0.43708031E-01 0.44809287E+03</pdfrwt>
<totfact> 0.17545197E+03</totfact>
</mgrwt>
</event>
<event>
 4    1  0.4758602E-002  0.4352258E+03  0.7818608E-02  0.1032222E+00
         21   -1    0    0  501  502  0.00000000000E+00  0.00000000000E+00  0.18722853554E+03  0.18722853554E+03  0.00000000000E+00 0. -1.
         21   -1    0    0  502  503 -0.00000000000E+00 -0.00000000000E+00 -0.11004348062E+04  0.11004348062E+04  0.00000000000E+00 0. -1.
    9000007    1    1    2  501    0 -0.94583173660E+02  0.14309283297E+03 -0.27379081275E+03  0.51418182070E+03  0.40000000000E+03 0. -1.
   -9000007    1    1    2    0  503  0.94583173660E+02 -0.14309283297E+03 -0.63941545793E+03  0.77348152106E+03  0.40000000000E+03 0. -1.
<mgrwt>
<rscale>  2 0.43522584E+03</rscale>
<asrwt>0</asrwt>
<pdfrwt beam="1">  1       21 0.28804389E-01 0.43522584E+03</pdfrwt>
<pdfrwt beam="2">  1       21 0.16929767E+00 0.43522584E+03</pdfrwt>
<totfact> 0.21372717E+03</totfact>
</mgrwt>
</event>
<event>
 4    1  0.4758602E-002  0.4057783E+03  0.7818608E-02  0.1041797E+00
         21   -1    0    0  503  502  0.00000000000E+00  0.00000000000E+00  0.12396219207E+04  0.12396219207E+04  0.00000000000E+00 0. -1.
         21   -1    0    0  501  503 -0.00000000000E+00 -0.00000000000E+00 -0.17136301555E+03  0.17136301555E+03  0.00000000000E+00 0.  1.
    9000007    1    1    2  501    0  0.26382392599E+02 -0.62928674386E+02  0.19957743252E+03  0.45220260976E+03  0.40000000000E+03 0.  1.
   -9000007    1    1    2    0  502 -0.26382392599E+02  0.62928674386E+02  0.86868147261E+03  0.95878232647E+03  0.40000000000E+03 0.  1.
<mgrwt>
<rscale>  2 0.40577832E+03</rscale>
<asrwt>0</asrwt>
<pdfrwt beam="1">  1       21 0.19071106E+00 0.40577832E+03</pdfrwt>
<pdfrwt beam="2">  1       21 0.26363542E-01 0.40577832E+03</pdfrwt>
<totfact> 0.18216775E+03</totfact>
</mgrwt>
</event>
<event>
 4    1  0.4758602E-002  0.4819228E+03  0.7818608E-02  0.1018608E+00
         21   -1    0    0  503  502  0.00000000000E+00  0.00000000000E+00  0.11756153057E+04  0.11756153057E+04  0.00000000000E+00 0. -1.
         21   -1    0    0  501  503 -0.00000000000E+00 -0.00000000000E+00 -0.21116194898E+03  0.21116194898E+03  0.00000000000E+00 0. -1.
    9000007    1    1    2  501    0  0.30989613464E+02  0.26700041529E+03  0.65823657822E+03  0.81579713827E+03  0.40000000000E+03 0. -1.
   -9000007    1    1    2    0  502 -0.30989613464E+02 -0.26700041529E+03  0.30621677852E+03  0.57098011643E+03  0.40000000000E+03 0. -1.
<mgrwt>
<rscale>  2 0.48192279E+03</rscale>
<asrwt>0</asrwt>
<pdfrwt beam="1">  1       21 0.18086389E+00 0.48192279E+03</pdfrwt>
<pdfrwt beam="2">  1       21 0.32486454E-01 0.48192279E+03</pdfrwt>
<totfact> 0.13631686E+03</totfact>
</mgrwt>
</event>
<event>
 4    1  0.4758602E-002  0.4401076E+03  0.7818608E-02  0.1030714E+00
         21   -1    0    0  501  502  0.00000000000E+00  0.00000000000E+00  0.65394283949E+03  0.65394283949E+03  0.00000000000E+00 0.  1.
         21   -1    0    0  502  503 -0.00000000000E+00 -0.00000000000E+00 -0.30085532014E+03  0.30085532014E+03  0.00000000000E+00 0.  1.
    9000007    1    1    2  501    0  0.29553767659E+02  0.18116650696E+03  0.23595948565E+03  0.49937121192E+03  0.40000000000E+03 0.  1.
   -9000007    1    1    2    0  503 -0.29553767659E+02 -0.18116650696E+03  0.11712803370E+03  0.45542694772E+03  0.40000000000E+03 0.  1.
<mgrwt>
<rscale>  2 0.44010763E+03</rscale>
<asrwt>0</asrwt>
<pdfrwt beam="1">  1       21 0.10060659E+00 0.44010763E+03</pdfrwt>
<pdfrwt beam="2">  1       21 0.46285434E-01 0.44010763E+03</pdfrwt>
<totfact> 0.31604834E+03</totfact>
</mgrwt>
</event>
<event>
 4    1  0.4758602E-002  0.4822853E+03  0.7818608E-02  0.1018509E+00
         21   -1    0    0  501  502  0.00000000000E+00  0.00000000000E+00  0.23015208689E+03  0.23015208689E+03  0.00000000000E+00 0. -1.
         21   -1    0    0  502  503 -0.00000000000E+00 -0.00000000000E+00 -0.10259246660E+04  0.10259246660E+04  0.00000000000E+00 0.  1.
    9000007    1    1    2  501    0  0.45961352826E+02 -0.26549329799E+03 -0.32120921728E+03  0.57946052368E+03  0.40000000000E+03 0. -1.
   -9000007    1    1    2    0  503 -0.45961352826E+02  0.26549329799E+03 -0.47456336179E+03  0.67661622918E+03  0.40000000000E+03 0.  1.
<mgrwt>
<rscale>  2 0.48228533E+03</rscale>
<asrwt>0</asrwt>
<pdfrwt beam="1">  1       21 0.35408013E-01 0.48228533E+03</pdfrwt>
<pdfrwt beam="2">  1       21 0.15783457E+00 0.48228533E+03</pdfrwt>
<totfact> 0.16893667E+03</totfact>
</mgrwt>
</event>
<event>
 4    1  0.4758602E-002  0.4463657E+03  0.7818608E-02  0.1028811E+00
         21   -1    0    0  501  502  0.00000000000E+00  0.00000000000E+00  0.29319000914E+03  0.29319000914E+03  0.00000000000E+00 0. -1.
         21   -1    0    0  502  503 -0.00000000000E+00 -0.00000000000E+00 -0.69516519272E+03  0.69516519272E+03  0.00000000000E+00 0. -1.
    9000007    1    1    2  501    0  0.67862778171E+02 -0.18611011440E+03 -0.27501159373E+03  0.52428399559E+03  0.40000000000E+03 0. -1.
   -9000007    1    1    2    0  503 -0.67862778171E+02  0.18611011440E+03 -0.12696358984E+03  0.46407120627E+03  0.40000000000E+03 0. -1.
<mgrwt>
<rscale>  2 0.44636569E+03</rscale>
<asrwt>0</asrwt>
<pdfrwt beam="1">  1       21 0.45106155E-01 0.44636569E+03</pdfrwt>
<pdfrwt beam="2">  1       21 0.10694849E+00 0.44636569E+03</pdfrwt>
<totfact> 0.28650656E+03</totfact>
</mgrwt>
</event>
<event>
 4    1  0.4758602E-002  0.4425482E+03  0.7818608E-02  0.1029968E+00
         21   -1    0    0  503  502  0.00000000000E+00  0.00000000000E+00  0.39066167663E+03  0.39066167663E+03  0.00000000000E+00 0. -1.
         21   -1    0    0  501  503 -0.00000000000E+00 -0.00000000000E+00 -0.50136413542E+03  0.50136413542E+03  0.00000000000E+00 0. -1.
    9000007    1    1    2  501    0  0.18376578001E+03 -0.45596452538E+02 -0.59235522287E+02  0.44649495572E+03  0.40000000000E+03 0. -1.
   -9000007    1    1    2    0  502 -0.18376578001E+03  0.45596452538E+02 -0.51466936508E+02  0.44553085633E+03  0.40000000000E+03 0. -1.
<mgrwt>
<rscale>  2 0.44254819E+03</rscale>
<asrwt>0</asrwt>
<pdfrwt beam="1">  1       21 0.60101796E-01 0.44254819E+03</pdfrwt>
<pdfrwt beam="2">  1       21 0.77132944E-01 0.44254819E+03</pdfrwt>
<totfact> 0.33737809E+03</totfact>
</mgrwt>
</event>
<event>
 4    1  0.4758602E-002  0.4048364E+03  0.7818608E-02  0.1042118E+00
         21   -1    0    0  501  502  0.00000000000E+00  0.00000000000E+00  0.37147555868E+03  0.37147555868E+03  0.00000000000E+00 0.  1.
         21   -1    0    0  502  503 -0.00000000000E+00 -0.00000000000E+00 -0.14429395835E+04  0.14429395835E+04  0.00000000000E+00 0.  1.
    9000007    1    1    2  501    0 -0.32999805258E+01  0.62302365700E+02  0.22016302324E+03  0.46082993766E+03  0.40000000000E+03 0.  1.
   -9000007    1    1    2    0  503  0.32999805258E+01 -0.62302365700E+02 -0.12916270481E+04  0.13535852046E+04  0.40000000000E+03 0.  1.
<mgrwt>
<rscale>  2 0.40483636E+03</rscale>
<asrwt>0</asrwt>
<pdfrwt beam="1">  1       21 0.57150086E-01 0.40483636E+03</pdfrwt>
<pdfrwt beam="2">  1       21 0.22199071E+00 0.40483636E+03</pdfrwt>
<totfact> 0.23246452E+02</totfact>
</mgrwt>
</event>
<event>
 4    1  0.4758602E-002  0.4471990E+03  0.7818608E-02  0.1028561E+00
         21   -1    0    0  501  502  0.00000000000E+00  0.00000000000E+00  0.93804458236E+03  0.93804458236E+03  0.00000000000E+00 0.  1.
         21   -1    0    0  502  503 -0.00000000000E+00 -0.00000000000E+00 -0.33832162507E+03  0.33832162507E+03  0.00000000000E+00 0.  1.
    9000007    1    1    2  501    0  0.19135167926E+03 -0.58064433773E+02  0.68797101108E+03  0.82054314677E+03  0.40000000000E+03 0.  1.
   -9000007    1    1    2    0  503 -0.19135167926E+03  0.58064433773E+02 -0.88248053791E+02  0.45582306065E+03  0.40000000000E+03 0.  1.
<mgrwt>
<rscale>  2 0.44719900E+03</rscale>
<asrwt>0</asrwt>
<pdfrwt beam="1">  1       21 0.14431455E+00 0.44719900E+03</pdfrwt>
<pdfrwt beam="2">  1       21 0.52049481E-01 0.44719900E+03</pdfrwt>
<totfact> 0.98050333E+02</totfact>
</mgrwt>
</event>
<event>
 4    1  0.4758602E-002  0.7746439E+03  0.7818608E-02  0.9597462E-01
         21   -1    0    0  503  502  0.00000000000E+00  0.00000000000E+00  0.35631037820E+03  0.35631037820E+03  0.00000000000E+00 0. -1.
         21   -1    0    0  501  503 -0.00000000000E+00 -0.00000000000E+00 -0.29283458490E+04  0.29283458490E+04  0.00000000000E+00 0.  1.
    9000007    1    1    2  501    0  0.32633517447E+03 -0.57756262850E+03 -0.23565419403E+04  0.24805973378E+04  0.40000000000E+03 0.  1.
   -9000007    1    1    2    0  502 -0.32633517447E+03  0.57756262850E+03 -0.21549353049E+03  0.80405888940E+03  0.40000000000E+03 0. -1.
<mgrwt>
<rscale>  2 0.77464394E+03</rscale>
<asrwt>0</asrwt>
<pdfrwt beam="1">  1       21 0.54816981E-01 0.77464394E+03</pdfrwt>
<pdfrwt beam="2">  1       21 0.45051474E+00 0.77464394E+03</pdfrwt>
<totfact> 0.76410465E+00</totfact>
</mgrwt>
</event>
<event>
 4    1  0.4758602E-002  0.4524080E+03  0.7818608E-02  0.1027006E+00
         21   -1    0    0  501  502  0.00000000000E+00  0.00000000000E+00  0.64806854777E+03  0.64806854777E+03  0.00000000000E+00 0. -1.
         21   -1    0    0  502  503 -0.00000000000E+00 -0.00000000000E+00 -0.53544752965E+03  0.53544752965E+03  0.00000000000E+00 0. -1.
    9000007    1    1    2  501    0  0.53659822968E+02 -0.20443494448E+03  0.43530166292E+03  0.62782207740E+03  0.40000000000E+03 0. -1.
   -9000007    1    1    2    0  503 -0.53659822968E+02  0.20443494448E+03 -0.32268064480E+03  0.55569400002E+03  0.40000000000E+03 0. -1.
<mgrwt>
<rscale>  2 0.45240803E+03</rscale>
<asrwt>0</asrwt>
<pdfrwt beam="1">  1       21 0.99702853E-01 0.45240803E+03</pdfrwt>
<pdfrwt beam="2">  1       21 0.82376544E-01 0.45240803E+03</pdfrwt>
<totfact> 0.90175545E+02</totfact>
</mgrwt>
</event>
<event>
 4    1  0.4758602E-002  0.5346754E+03  0.7818608E-02  0.1005105E+00
         21   -1    0    0  503  502  0.00000000000E+00  0.00000000000E+00  0.17748567244E+04  0.17748567244E+04  0.00000000000E+00 0. -1.
         21   -1    0    0  501  503 -0.00000000000E+00 -0.00000000000E+00 -0.16517898511E+03  0.16517898511E+03  0.00000000000E+00 0.  1.
    9000007    1    1    2  501    0 -0.23111606148E+03  0.26918988497E+03  0.95781381910E+03  0.10969435446E+04  0.40000000000E+03 0.  1.
   -9000007    1    1    2    0  502  0.23111606148E+03 -0.26918988497E+03  0.65186392024E+03  0.84309216492E+03  0.40000000000E+03 0.  1.
<mgrwt>
<rscale>  2 0.53467544E+03</rscale>
<asrwt>0</asrwt>
<pdfrwt beam="1">  1       21 0.27305487E+00 0.53467544E+03</pdfrwt>
<pdfrwt beam="2">  1       21 0.25412153E-01 0.53467544E+03</pdfrwt>
<totfact> 0.55431928E+02</totfact>
</mgrwt>
</event>
<event>
 4    1  0.4758602E-002  0.5226624E+03  0.7818608E-02  0.1008027E+00
         21   -1    0    0  503  502  0.00000000000E+00  0.00000000000E+00  0.12730103561E+04  0.12730103561E+04  0.00000000000E+00 0.  1.
         21   -1    0    0  501  503 -0.00000000000E+00 -0.00000000000E+00 -0.25748069460E+03  0.25748069460E+03  0.00000000000E+00 0.  1.
    9000007    1    1    2  501    0 -0.23590167377E+03  0.23984663795E+03  0.19543954170E+03  0.55800772744E+03  0.40000000000E+03 0.  1.
   -9000007    1    1    2    0  502  0.23590167377E+03 -0.23984663795E+03  0.82009011980E+03  0.97248332326E+03  0.40000000000E+03 0.  1.
<mgrwt>
<rscale>  2 0.52266242E+03</rscale>
<asrwt>0</asrwt>
<pdfrwt beam="1">  1       21 0.19584774E+00 0.52266242E+03</pdfrwt>
<pdfrwt beam="2">  1       21 0.39612415E-01 0.52266242E+03</pdfrwt>
<totfact> 0.70585721E+02</totfact>
</mgrwt>
</event>
<event>
 4    1  0.4758602E-002  0.4867291E+03  0.7818608E-02  0.1017302E+00
         21   -1    0    0  503  502  0.00000000000E+00  0.00000000000E+00  0.81545729619E+03  0.81545729619E+03  0.00000000000E+00 0.  1.
         21   -1    0    0  501  503 -0.00000000000E+00 -0.00000000000E+00 -0.43745587012E+03  0.43745587012E+03  0.00000000000E+00 0.  1.
    9000007    1    1    2  501    0  0.33407921982E+02 -0.27529828265E+03 -0.17406926680E+03  0.51691908779E+03  0.40000000000E+03 0.  1.
   -9000007    1    1    2    0  502 -0.33407921982E+02  0.27529828265E+03  0.55207069288E+03  0.73599407852E+03  0.40000000000E+03 0.  1.
<mgrwt>
<rscale>  2 0.48672912E+03</rscale>
<asrwt>0</asrwt>
<pdfrwt beam="1">  1       21 0.12545497E+00 0.48672912E+03</pdfrwt>
<pdfrwt beam="2">  1       21 0.67300903E-01 0.48672912E+03</pdfrwt>
<totfact> 0.79409032E+02</totfact>
</mgrwt>
</event>
<event>
 4    1  0.4758602E-002  0.4387650E+03  0.7818608E-02  0.1031126E+00
         21   -1    0    0  501  502  0.00000000000E+00  0.00000000000E+00  0.22829441924E+04  0.22829441924E+04  0.00000000000E+00 0.  1.
         21   -1    0    0  502  503 -0.00000000000E+00 -0.00000000000E+00 -0.10458350056E+03  0.10458350056E+03  0.00000000000E+00 0.  1.
    9000007    1    1    2  501    0 -0.12732633623E+03  0.12768218238E+03  0.16145497967E+04  0.16731066259E+04  0.40000000000E+03 0.  1.
   -9000007    1    1    2    0  503  0.12732633623E+03 -0.12768218238E+03  0.56381089520E+03  0.71442106712E+03  0.40000000000E+03 0.  1.
<mgrwt>
<rscale>  2 0.43876501E+03</rscale>
<asrwt>0</asrwt>
<pdfrwt beam="1">  1       21 0.35122214E+00 0.43876501E+03</pdfrwt>
<pdfrwt beam="2">  1       21 0.16089771E-01 0.43876501E+03</pdfrwt>
<totfact> 0.46838311E+02</totfact>
</mgrwt>
</event>
<event>
 4    1  0.4758602E-002  0.5180287E+03  0.7818608E-02  0.1009177E+00
         21   -1    0    0  501  502  0.00000000000E+00  0.00000000000E+00  0.13499516725E+04  0.13499516725E+04  0.00000000000E+00 0.  1.
         21   -1    0    0  502  503 -0.00000000000E+00 -0.00000000000E+00 -0.34636062008E+03  0.34636062008E+03  0.00000000000E+00 0.  1.
    9000007    1    1    2  501    0 -0.13202957176E+03 -0.30153270966E+03  0.10554195157E+04  0.11756972982E+04  0.40000000000E+03 0.  1.
   -9000007    1    1    2    0  503  0.13202957176E+03  0.30153270966E+03 -0.51828463263E+02  0.52061499443E+03  0.40000000000E+03 0.  1.
<mgrwt>
<rscale>  2 0.51802875E+03</rscale>
<asrwt>0</asrwt>
<pdfrwt beam="1">  1       21 0.20768487E+00 0.51802875E+03</pdfrwt>
<pdfrwt beam="2">  1       21 0.53286250E-01 0.51802875E+03</pdfrwt>
<totfact> 0.31546463E+02</totfact>
</mgrwt>
</event>
<event>
 4    1  0.4758602E-002  0.4449377E+03  0.7818608E-02  0.1029243E+00
         21   -1    0    0  501  502  0.00000000000E+00  0.00000000000E+00  0.35886124718E+03  0.35886124718E+03  0.00000000000E+00 0.  1.
         21   -1    0    0  502  503 -0.00000000000E+00 -0.00000000000E+00 -0.65080190366E+03  0.65080190366E+03  0.00000000000E+00 0.  1.
    9000007    1    1    2  501    0 -0.17768565766E+03 -0.79983559756E+02  0.51067544445E+02  0.44785874655E+03  0.40000000000E+03 0.  1.
   -9000007    1    1    2    0  503  0.17768565766E+03  0.79983559756E+02 -0.34300820092E+03  0.56180440428E+03  0.40000000000E+03 0.  1.
<mgrwt>
<rscale>  2 0.44493771E+03</rscale>
<asrwt>0</asrwt>
<pdfrwt beam="1">  1       21 0.55209423E-01 0.44493771E+03</pdfrwt>
<pdfrwt beam="2">  1       21 0.10012337E+00 0.44493771E+03</pdfrwt>
<totfact> 0.21926191E+03</totfact>
</mgrwt>
</event>
<event>
 4    1  0.4758602E-002  0.4714088E+03  0.7818608E-02  0.1021523E+00
         21   -1    0    0  503  502  0.00000000000E+00  0.00000000000E+00  0.12508889453E+04  0.12508889453E+04  0.00000000000E+00 0.  1.
         21   -1    0    0  501  503 -0.00000000000E+00 -0.00000000000E+00 -0.23289436325E+03  0.23289436325E+03  0.00000000000E+00 0.  1.
    9000007    1    1    2  501    0 -0.24603322512E+03  0.41157594392E+02  0.14768184866E+03  0.49400022658E+03  0.40000000000E+03 0.  1.
   -9000007    1    1    2    0  502  0.24603322512E+03 -0.41157594392E+02  0.87031273339E+03  0.98978308196E+03  0.40000000000E+03 0.  1.
<mgrwt>
<rscale>  2 0.47140884E+03</rscale>
<asrwt>0</asrwt>
<pdfrwt beam="1">  1       21 0.19244445E+00 0.47140884E+03</pdfrwt>
<pdfrwt beam="2">  1       21 0.35829903E-01 0.47140884E+03</pdfrwt>
<totfact> 0.93407523E+02</totfact>
</mgrwt>
</event>
<event>
 4    1  0.4758602E-002  0.4223705E+03  0.7818608E-02  0.1036298E+00
         21   -1    0    0  503  502  0.00000000000E+00  0.00000000000E+00  0.79702049521E+03  0.79702049521E+03  0.00000000000E+00 0. -1.
         21   -1    0    0  501  503 -0.00000000000E+00 -0.00000000000E+00 -0.26474507749E+03  0.26474507749E+03  0.00000000000E+00 0. -1.
    9000007    1    1    2  501    0  0.12345500195E+03 -0.56175327383E+02  0.57434880953E+02  0.42625763391E+03  0.40000000000E+03 0. -1.
   -9000007    1    1    2    0  502 -0.12345500195E+03  0.56175327383E+02  0.47484053677E+03  0.63550793880E+03  0.40000000000E+03 0. -1.
<mgrwt>
<rscale>  2 0.42237046E+03</rscale>
<asrwt>0</asrwt>
<pdfrwt beam="1">  1       21 0.12261854E+00 0.42237046E+03</pdfrwt>
<pdfrwt beam="2">  1       21 0.40730012E-01 0.42237046E+03</pdfrwt>
<totfact> 0.25383058E+03</totfact>
</mgrwt>
</event>
<event>
 4    1  0.4758602E-002  0.4176088E+03  0.7818608E-02  0.1037847E+00
         21   -1    0    0  503  502  0.00000000000E+00  0.00000000000E+00  0.54726266830E+03  0.54726266830E+03  0.00000000000E+00 0.  1.
         21   -1    0    0  501  503 -0.00000000000E+00 -0.00000000000E+00 -0.40550008424E+03  0.40550008424E+03  0.00000000000E+00 0.  1.
    9000007    1    1    2  501    0  0.74482179967E+02 -0.94071697845E+02 -0.14955869028E+03  0.44358187667E+03  0.40000000000E+03 0. -1.
   -9000007    1    1    2    0  502 -0.74482179967E+02  0.94071697845E+02  0.29132127435E+03  0.50918087587E+03  0.40000000000E+03 0. -1.
<mgrwt>
<rscale>  2 0.41760876E+03</rscale>
<asrwt>0</asrwt>
<pdfrwt beam="1">  1       21 0.84194256E-01 0.41760876E+03</pdfrwt>
<pdfrwt beam="2">  1       21 0.62384628E-01 0.41760876E+03</pdfrwt>
<totfact> 0.25623225E+03</totfact>
</mgrwt>
</event>
<event>
 4    1  0.4758602E-002  0.4013838E+03  0.7818608E-02  0.1043302E+00
         21   -1    0    0  501  502  0.00000000000E+00  0.00000000000E+00  0.15908678283E+04  0.15908678283E+04  0.00000000000E+00 0.  1.
         21   -1    0    0  502  503 -0.00000000000E+00 -0.00000000000E+00 -0.12696031663E+03  0.12696031663E+03  0.00000000000E+00 0.  1.
    9000007    1    1    2  501    0  0.22867464739E+02  0.24208569650E+02  0.11183126668E+04  0.11881633711E+04  0.40000000000E+03 0.  1.
   -9000007    1    1    2    0  503 -0.22867464739E+02 -0.24208569650E+02  0.34559484484E+03  0.52966477376E+03  0.40000000000E+03 0.  1.
<mgrwt>
<rscale>  2 0.40138383E+03</rscale>
<asrwt>0</asrwt>
<pdfrwt beam="1">  1       21 0.24474888E+00 0.40138383E+03</pdfrwt>
<pdfrwt beam="2">  1       21 0.19532358E-01 0.40138383E+03</pdfrwt>
<totfact> 0.14624312E+03</totfact>
</mgrwt>
</event>
<event>
 4    1  0.4758602E-002  0.4582568E+03  0.7818608E-02  0.1025288E+00
         21   -1    0    0  501  502  0.00000000000E+00  0.00000000000E+00  0.54109421561E+03  0.54109421561E+03  0.00000000000E+00 0. -1.
         21   -1    0    0  502  503 -0.00000000000E+00 -0.00000000000E+00 -0.38971591378E+03  0.38971591378E+03  0.00000000000E+00 0. -1.
    9000007    1    1    2  501    0 -0.10297246386E+03  0.19848410848E+03  0.45730935859E+02  0.46053293924E+03  0.40000000000E+03 0. -1.
   -9000007    1    1    2    0  503  0.10297246386E+03 -0.19848410848E+03  0.10564736597E+03  0.47027719014E+03  0.40000000000E+03 0. -1.
<mgrwt>
<rscale>  2 0.45825677E+03</rscale>
<asrwt>0</asrwt>
<pdfrwt beam="1">  1       21 0.83245264E-01 0.45825677E+03</pdfrwt>
<pdfrwt beam="2">  1       21 0.59956294E-01 0.45825677E+03</pdfrwt>
<totfact> 0.28279822E+03</totfact>
</mgrwt>
</event>
<event>
 4    1  0.4758602E-002  0.5065234E+03  0.7818608E-02  0.1012090E+00
         21   -1    0    0  501  502  0.00000000000E+00  0.00000000000E+00  0.13954074579E+03  0.13954074579E+03  0.00000000000E+00 0.  1.
         21   -1    0    0  502  503 -0.00000000000E+00 -0.00000000000E+00 -0.25454320888E+04  0.25454320888E+04  0.00000000000E+00 0. -1.
    9000007    1    1    2  501    0 -0.18155928603E+03 -0.25219481312E+03 -0.49553237466E+03  0.70860308526E+03  0.40000000000E+03 0.  1.
   -9000007    1    1    2    0  503  0.18155928603E+03  0.25219481312E+03 -0.19103589684E+04  0.19763697494E+04  0.40000000000E+03 0. -1.
<mgrwt>
<rscale>  2 0.50652344E+03</rscale>
<asrwt>0</asrwt>
<pdfrwt beam="1">  1       21 0.21467807E-01 0.50652344E+03</pdfrwt>
<pdfrwt beam="2">  1       21 0.39160494E+00 0.50652344E+03</pdfrwt>
<totfact> 0.14549601E+02</totfact>
</mgrwt>
</event>
<event>
 4    1  0.4758602E-002  0.4120623E+03  0.7818608E-02  0.1039681E+00
         21   -1    0    0  501  502  0.00000000000E+00  0.00000000000E+00  0.14951713945E+04  0.14951713945E+04  0.00000000000E+00 0.  1.
         21   -1    0    0  502  503 -0.00000000000E+00 -0.00000000000E+00 -0.16998671687E+03  0.16998671687E+03  0.00000000000E+00 0.  1.
    9000007    1    1    2  501    0  0.54391398225E+02  0.82685772357E+02  0.11422715119E+04  0.12143226787E+04  0.40000000000E+03 0.  1.
   -9000007    1    1    2    0  503 -0.54391398225E+02 -0.82685772357E+02  0.18291316576E+03  0.45083543268E+03  0.40000000000E+03 0.  1.
<mgrwt>
<rscale>  2 0.41206233E+03</rscale>
<asrwt>0</asrwt>
<pdfrwt beam="1">  1       21 0.23002636E+00 0.41206233E+03</pdfrwt>
<pdfrwt beam="2">  1       21 0.26151804E-01 0.41206233E+03</pdfrwt>
<totfact> 0.10237982E+03</totfact>
</mgrwt>
</event>
<event>
 4    1  0.4758602E-002  0.4178652E+03  0.7818608E-02  0.1037763E+00
         21   -1    0    0  503  502  0.00000000000E+00  0.00000000000E+00  0.38949414642E+03  0.38949414642E+03  0.00000000000E+00 0. -1.
         21   -1    0    0  501  503 -0.00000000000E+00 -0.00000000000E+00 -0.62578919814E+03  0.62578919814E+03  0.00000000000E+00 0. -1.
    9000007    1    1    2  501    0  0.11983033686E+03 -0.15874210898E+02 -0.38849718345E+03  0.57056232065E+03  0.40000000000E+03 0. -1.
   -9000007    1    1    2    0  502 -0.11983033686E+03  0.15874210898E+02  0.15220213173E+03  0.44472102391E+03  0.40000000000E+03 0. -1.
<mgrwt>
<rscale>  2 0.41786517E+03</rscale>
<asrwt>0</asrwt>
<pdfrwt beam="1">  1       21 0.59922177E-01 0.41786517E+03</pdfrwt>
<pdfrwt beam="2">  1       21 0.96275261E-01 0.41786517E+03</pdfrwt>
<totfact> 0.20383991E+03</totfact>
</mgrwt>
</event>
<event>
 4    1  0.4758602E-002  0.4171044E+03  0.7818608E-02  0.1038013E+00
         21   -1    0    0  503  502  0.00000000000E+00  0.00000000000E+00  0.11915043870E+04  0.11915043870E+04  0.00000000000E+00 0.  1.
         21   -1    0    0  501  503 -0.00000000000E+00 -0.00000000000E+00 -0.20943566498E+03  0.20943566498E+03  0.00000000000E+00 0.  1.
    9000007    1    1    2  501    0 -0.46348421137E+02  0.10875616101E+03  0.10557042345E+03  0.43025712430E+03  0.40000000000E+03 0.  1.
   -9000007    1    1    2    0  502  0.46348421137E+02 -0.10875616101E+03  0.87649829854E+03  0.97068292765E+03  0.40000000000E+03 0.  1.
<mgrwt>
<rscale>  2 0.41710440E+03</rscale>
<asrwt>0</asrwt>
<pdfrwt beam="1">  1       21 0.18330836E+00 0.41710440E+03</pdfrwt>
<pdfrwt beam="2">  1       21 0.32220872E-01 0.41710440E+03</pdfrwt>
<totfact> 0.13702491E+03</totfact>
</mgrwt>
</event>
<event>
 4    1  0.4758602E-002  0.4111989E+03  0.7818608E-02  0.1039969E+00
         21   -1    0    0  501  502  0.00000000000E+00  0.00000000000E+00  0.20700874701E+03  0.20700874701E+03  0.00000000000E+00 0. -1.
         21   -1    0    0  502  503 -0.00000000000E+00 -0.00000000000E+00 -0.86431442842E+03  0.86431442842E+03  0.00000000000E+00 0. -1.
    9000007    1    1    2  501    0 -0.88865681389E+02 -0.34459435066E+02 -0.20305811324E+03  0.45860348815E+03  0.40000000000E+03 0. -1.
   -9000007    1    1    2    0  503  0.88865681389E+02  0.34459435066E+02 -0.45424756817E+03  0.61271968728E+03  0.40000000000E+03 0. -1.
<mgrwt>
<rscale>  2 0.41119893E+03</rscale>
<asrwt>0</asrwt>
<pdfrwt beam="1">  1       21 0.31847500E-01 0.41119893E+03</pdfrwt>
<pdfrwt beam="2">  1       21 0.13297145E+00 0.41119893E+03</pdfrwt>
<totfact> 0.34073394E+03</totfact>
</mgrwt>
</event>
<event>
 4    1  0.4758602E-002  0.5273711E+03  0.7818608E-02  0.1006872E+00
         21   -1    0    0  501  502  0.00000000000E+00  0.00000000000E+00  0.11347270095E+04  0.11347270095E+04  0.00000000000E+00 0. -1.
         21   -1    0    0  502  503 -0.00000000000E+00 -0.00000000000E+00 -0.26171914191E+03  0.26171914191E+03  0.00000000000E+00 0.  1.
    9000007    1    1    2  501    0  0.33934430529E+03 -0.54458187299E+02  0.26055114201E+03  0.58822372385E+03  0.40000000000E+03 0.  1.
   -9000007    1    1    2    0  503 -0.33934430529E+03  0.54458187299E+02  0.61245672558E+03  0.80822242756E+03  0.40000000000E+03 0. -1.
<mgrwt>
<rscale>  2 0.52737108E+03</rscale>
<asrwt>0</asrwt>
<pdfrwt beam="1">  1       21 0.17457338E+00 0.52737108E+03</pdfrwt>
<pdfrwt beam="2">  1       21 0.40264484E-01 0.52737108E+03</pdfrwt>
<totfact> 0.95916940E+02</totfact>
</mgrwt>
</event>
<event>
 4    1  0.4758602E-002  0.4155932E+03  0.7818608E-02  0.1038510E+00
         21   -1    0    0  501  502  0.00000000000E+00  0.00000000000E+00  0.29179623900E+03  0.29179623900E+03  0.00000000000E+00 0. -1.
         21   -1    0    0  502  503 -0.00000000000E+00 -0.00000000000E+00 -0.59840847878E+03  0.59840847878E+03  0.00000000000E+00 0. -1.
    9000007    1    1    2  501    0  0.99940075853E+01 -0.11232909575E+03 -0.19968271218E+03  0.46107579798E+03  0.40000000000E+03 0.  1.
   -9000007    1    1    2    0  503 -0.99940075853E+01  0.11232909575E+03 -0.10692952759E+03  0.42912891980E+03  0.40000000000E+03 0.  1.
<mgrwt>
<rscale>  2 0.41559320E+03</rscale>
<asrwt>0</asrwt>
<pdfrwt beam="1">  1       21 0.44891729E-01 0.41559320E+03</pdfrwt>
<pdfrwt beam="2">  1       21 0.92062842E-01 0.41559320E+03</pdfrwt>
<totfact> 0.42076267E+03</totfact>
</mgrwt>
</event>
<event>
 4    1  0.4758602E-002  0.4048164E+03  0.7818608E-02  0.1042125E+00
         21   -1    0    0  503  502  0.00000000000E+00  0.00000000000E+00  0.40677478906E+03  0.40677478906E+03  0.00000000000E+00 0.  1.
         21   -1    0    0  501  503 -0.00000000000E+00 -0.00000000000E+00 -0.44901804478E+03  0.44901804478E+03  0.00000000000E+00 0.  1.
    9000007    1    1    2  501    0  0.51290244326E+02  0.35293251814E+02  0.11605989701E+03  0.42112492503E+03  0.40000000000E+03 0.  1.
   -9000007    1    1    2    0  502 -0.51290244326E+02 -0.35293251814E+02 -0.15830315273E+03  0.43466790881E+03  0.40000000000E+03 0.  1.
<mgrwt>
<rscale>  2 0.40481638E+03</rscale>
<asrwt>0</asrwt>
<pdfrwt beam="1">  1       21 0.62580737E-01 0.40481638E+03</pdfrwt>
<pdfrwt beam="2">  1       21 0.69079699E-01 0.40481638E+03</pdfrwt>
<totfact> 0.40185663E+03</totfact>
</mgrwt>
</event>
<event>
 4    1  0.4758602E-002  0.5462317E+03  0.7818608E-02  0.1002370E+00
         21   -1    0    0  501  502  0.00000000000E+00  0.00000000000E+00  0.14101027890E+04  0.14101027890E+04  0.00000000000E+00 0. -1.
         21   -1    0    0  502  503 -0.00000000000E+00 -0.00000000000E+00 -0.27912714321E+03  0.27912714321E+03  0.00000000000E+00 0. -1.
    9000007    1    1    2  501    0 -0.20508059813E+03  0.31034020289E+03  0.98093581723E+03  0.11227663028E+04  0.40000000000E+03 0. -1.
   -9000007    1    1    2    0  503  0.20508059813E+03 -0.31034020289E+03  0.15003982857E+03  0.56646362939E+03  0.40000000000E+03 0. -1.
<mgrwt>
<rscale>  2 0.54623172E+03</rscale>
<asrwt>0</asrwt>
<pdfrwt beam="1">  1       21 0.21693889E+00 0.54623172E+03</pdfrwt>
<pdfrwt beam="2">  1       21 0.42942638E-01 0.54623172E+03</pdfrwt>
<totfact> 0.42858923E+02</totfact>
</mgrwt>
</event>
<event>
 4    1  0.4758602E-002  0.4276097E+03  0.7818608E-02  0.1034618E+00
         21   -1    0    0  503  502  0.00000000000E+00  0.00000000000E+00  0.73093645768E+03  0.73093645768E+03  0.00000000000E+00 0.  1.
         21   -1    0    0  501  503 -0.00000000000E+00 -0.00000000000E+00 -0.37817133880E+03  0.37817133880E+03  0.00000000000E+00 0.  1.
    9000007    1    1    2  501    0 -0.14822667279E+03  0.29646440830E+02 -0.14626323758E+03  0.45193250895E+03  0.40000000000E+03 0.  1.
   -9000007    1    1    2    0  502  0.14822667279E+03 -0.29646440830E+02  0.49902835646E+03  0.65717528753E+03  0.40000000000E+03 0.  1.
<mgrwt>
<rscale>  2 0.42760970E+03</rscale>
<asrwt>0</asrwt>
<pdfrwt beam="1">  1       21 0.11245176E+00 0.42760970E+03</pdfrwt>
<pdfrwt beam="2">  1       21 0.58180206E-01 0.42760970E+03</pdfrwt>
<totfact> 0.14803631E+03</totfact>
</mgrwt>
</event>
<event>
 4    1  0.4758602E-002  0.4404212E+03  0.7818608E-02  0.1030618E+00
         21   -1    0    0  501  502  0.00000000000E+00  0.00000000000E+00  0.13957174958E+03  0.13957174958E+03  0.00000000000E+00 0.  1.
         21   -1    0    0  502  503 -0.00000000000E+00 -0.00000000000E+00 -0.15580041312E+04  0.15580041312E+04  0.00000000000E+00 0.  1.
    9000007    1    1    2  501    0  0.87091337421E+02  0.16243758823E+03 -0.43029068975E+03  0.61572798280E+03  0.40000000000E+03 0.  1.
   -9000007    1    1    2    0  503 -0.87091337421E+02 -0.16243758823E+03 -0.98814169188E+03  0.10818478980E+04  0.40000000000E+03 0.  1.
<mgrwt>
<rscale>  2 0.44042124E+03</rscale>
<asrwt>0</asrwt>
<pdfrwt beam="1">  1       21 0.21472578E-01 0.44042124E+03</pdfrwt>
<pdfrwt beam="2">  1       21 0.23969293E+00 0.44042124E+03</pdfrwt>
<totfact> 0.12860269E+03</totfact>
</mgrwt>
</event>
<event>
 4    1  0.4758602E-002  0.4446842E+03  0.7818608E-02  0.1029319E+00
         21   -1    0    0  501  502  0.00000000000E+00  0.00000000000E+00  0.11316047375E+03  0.11316047375E+03  0.00000000000E+00 0.  1.
         21   -1    0    0  502  503 -0.00000000000E+00 -0.00000000000E+00 -0.17600723373E+04  0.17600723373E+04  0.00000000000E+00 0.  1.
    9000007    1    1    2  501    0  0.17198093419E+03  0.90369419717E+02 -0.74418901235E+03  0.86692638664E+03  0.40000000000E+03 0.  1.
   -9000007    1    1    2    0  503 -0.17198093419E+03 -0.90369419717E+02 -0.90272285122E+03  0.10063064244E+04  0.40000000000E+03 0.  1.
<mgrwt>
<rscale>  2 0.44468424E+03</rscale>
<asrwt>0</asrwt>
<pdfrwt beam="1">  1       21 0.17409303E-01 0.44468424E+03</pdfrwt>
<pdfrwt beam="2">  1       21 0.27078036E+00 0.44468424E+03</pdfrwt>
<totfact> 0.12332290E+03</totfact>
</mgrwt>
</event>
<event>
 4    1  0.4758602E-002  0.4159595E+03  0.7818608E-02  0.1038389E+00
         21   -1    0    0  503  502  0.00000000000E+00  0.00000000000E+00  0.79575545136E+03  0.79575545136E+03  0.00000000000E+00 0.  1.
         21   -1    0    0  501  503 -0.00000000000E+00 -0.00000000000E+00 -0.69132402340E+03  0.69132402340E+03  0.00000000000E+00 0.  1.
    9000007    1    1    2  501    0  0.11218815638E+03  0.20883885802E+02 -0.56339090053E+03  0.70030823637E+03  0.40000000000E+03 0.  1.
   -9000007    1    1    2    0  502 -0.11218815638E+03 -0.20883885802E+02  0.66782232850E+03  0.78677123839E+03  0.40000000000E+03 0.  1.
<mgrwt>
<rscale>  2 0.41595952E+03</rscale>
<asrwt>0</asrwt>
<pdfrwt beam="1">  1       21 0.12242392E+00 0.41595952E+03</pdfrwt>
<pdfrwt beam="2">  1       21 0.10635754E+00 0.41595952E+03</pdfrwt>
<totfact> 0.29900507E+02</totfact>
</mgrwt>
</event>
<event>
 4    1  0.4758602E-002  0.7512869E+03  0.7818608E-02  0.9633334E-01
         21   -1    0    0  503  502  0.00000000000E+00  0.00000000000E+00  0.47044665785E+03  0.47044665785E+03  0.00000000000E+00 0. -1.
         21   -1    0    0  501  503 -0.00000000000E+00 -0.00000000000E+00 -0.13055412686E+04  0.13055412686E+04  0.00000000000E+00 0. -1.
    9000007    1    1    2  501    0  0.43364742475E+03 -0.46516876417E+03 -0.67029073999E+03  0.10068374965E+04  0.40000000000E+03 0. -1.
   -9000007    1    1    2    0  502 -0.43364742475E+03  0.46516876417E+03 -0.16480387076E+03  0.76915043000E+03  0.40000000000E+03 0. -1.
<mgrwt>
<rscale>  2 0.75128694E+03</rscale>
<asrwt>0</asrwt>
<pdfrwt beam="1">  1       21 0.72376409E-01 0.75128694E+03</pdfrwt>
<pdfrwt beam="2">  1       21 0.20085250E+00 0.75128694E+03</pdfrwt>
<totfact> 0.16283645E+02</totfact>
</mgrwt>
</event>
<event>
 4    1  0.4758602E-002  0.4201262E+03  0.7818608E-02  0.1037025E+00
         21   -1    0    0  501  502  0.00000000000E+00  0.00000000000E+00  0.46921811182E+03  0.46921811182E+03  0.00000000000E+00 0.  1.
         21   -1    0    0  502  503 -0.00000000000E+00 -0.00000000000E+00 -0.47258786091E+03  0.47258786091E+03  0.00000000000E+00 0.  1.
    9000007    1    1    2  501    0 -0.38502196093E+02 -0.12257083904E+03  0.21101522713E+03  0.47014195278E+03  0.40000000000E+03 0. -1.
   -9000007    1    1    2    0  503  0.38502196093E+02  0.12257083904E+03 -0.21438497623E+03  0.47166401995E+03  0.40000000000E+03 0. -1.
<mgrwt>
<rscale>  2 0.42012621E+03</rscale>
<asrwt>0</asrwt>
<pdfrwt beam="1">  1       21 0.72187402E-01 0.42012621E+03</pdfrwt>
<pdfrwt beam="2">  1       21 0.72705825E-01 0.42012621E+03</pdfrwt>
<totfact> 0.25887703E+03</totfact>
</mgrwt>
</event>
<event>
 4    1  0.4758602E-002  0.4326872E+03  0.7818608E-02  0.1033014E+00
         21   -1    0    0  501  502  0.00000000000E+00  0.00000000000E+00  0.12418388212E+03  0.12418388212E+03  0.00000000000E+00 0. -1.
         21   -1    0    0  502  503 -0.00000000000E+00 -0.00000000000E+00 -0.15192086106E+04  0.15192086106E+04  0.00000000000E+00 0. -1.
    9000007    1    1    2  501    0  0.42555365753E+02 -0.15939641281E+03 -0.62564854667E+03  0.76069328873E+03  0.40000000000E+03 0. -1.
   -9000007    1    1    2    0  503 -0.42555365753E+02  0.15939641281E+03 -0.76937618182E+03  0.88269920399E+03  0.40000000000E+03 0. -1.
<mgrwt>
<rscale>  2 0.43268716E+03</rscale>
<asrwt>0</asrwt>
<pdfrwt beam="1">  1       21 0.19105212E-01 0.43268716E+03</pdfrwt>
<pdfrwt beam="2">  1       21 0.23372441E+00 0.43268716E+03</pdfrwt>
<totfact> 0.17565465E+03</totfact>
</mgrwt>
</event>
<event>
 4    1  0.4758602E-002  0.5462175E+03  0.7818608E-02  0.1002373E+00
         21   -1    0    0  501  502  0.00000000000E+00  0.00000000000E+00  0.65704423585E+03  0.65704423585E+03  0.00000000000E+00 0.  1.
         21   -1    0    0  502  503 -0.00000000000E+00 -0.00000000000E+00 -0.78184056357E+03  0.78184056357E+03  0.00000000000E+00 0. -1.
    9000007    1    1    2  501    0 -0.84804734899E+02 -0.36216254049E+03  0.40341563771E+03  0.67904177010E+03  0.40000000000E+03 0.  1.
   -9000007    1    1    2    0  503  0.84804734899E+02  0.36216254049E+03 -0.52821196542E+03  0.75984302932E+03  0.40000000000E+03 0. -1.
<mgrwt>
<rscale>  2 0.54621749E+03</rscale>
<asrwt>0</asrwt>
<pdfrwt beam="1">  1       21 0.10108373E+00 0.54621749E+03</pdfrwt>
<pdfrwt beam="2">  1       21 0.12028316E+00 0.54621749E+03</pdfrwt>
<totfact> 0.33433457E+02</totfact>
</mgrwt>
</event>
<event>
 4    1  0.4758602E-002  0.4160069E+03  0.7818608E-02  0.1038374E+00
         21   -1    0    0  503  502  0.00000000000E+00  0.00000000000E+00  0.74660657376E+03  0.74660657376E+03  0.00000000000E+00 0.  1.
         21   -1    0    0  501  503 -0.00000000000E+00 -0.00000000000E+00 -0.23989064458E+03  0.23989064458E+03  0.00000000000E+00 0. -1.
    9000007    1    1    2  501    0 -0.11425698383E+03  0.26579325159E+01  0.16276151252E+03  0.44671359160E+03  0.40000000000E+03 0. -1.
   -9000007    1    1    2    0  502  0.11425698383E+03 -0.26579325159E+01  0.34395441667E+03  0.53978362675E+03  0.40000000000E+03 0.  1.
<mgrwt>
<rscale>  2 0.41600688E+03</rscale>
<asrwt>0</asrwt>
<pdfrwt beam="1">  1       21 0.11486255E+00 0.41600688E+03</pdfrwt>
<pdfrwt beam="2">  1       21 0.36906253E-01 0.41600688E+03</pdfrwt>
<totfact> 0.36724562E+03</totfact>
</mgrwt>
</event>
<event>
 4    1  0.4758602E-002  0.4432967E+03  0.7818608E-02  0.1029740E+00
         21   -1    0    0  501  502  0.00000000000E+00  0.00000000000E+00  0.54002192427E+03  0.54002192427E+03  0.00000000000E+00 0. -1.
         21   -1    0    0  502  503 -0.00000000000E+00 -0.00000000000E+00 -0.63958390298E+03  0.63958390298E+03  0.00000000000E+00 0. -1.
    9000007    1    1    2  501    0  0.17098313052E+03 -0.85303694772E+02  0.33744706317E+03  0.55711980014E+03  0.40000000000E+03 0. -1.
   -9000007    1    1    2    0  503 -0.17098313052E+03  0.85303694772E+02 -0.43700904188E+03  0.62248602711E+03  0.40000000000E+03 0. -1.
<mgrwt>
<rscale>  2 0.44329669E+03</rscale>
<asrwt>0</asrwt>
<pdfrwt beam="1">  1       21 0.83080296E-01 0.44329669E+03</pdfrwt>
<pdfrwt beam="2">  1       21 0.98397523E-01 0.44329669E+03</pdfrwt>
<totfact> 0.91623584E+02</totfact>
</mgrwt>
</event>
<event>
 4    1  0.4758602E-002  0.4298258E+03  0.7818608E-02  0.1033915E+00
         21   -1    0    0  503  502  0.00000000000E+00  0.00000000000E+00  0.79806728531E+03  0.79806728531E+03  0.00000000000E+00 0. -1.
         21   -1    0    0  501  503 -0.00000000000E+00 -0.00000000000E+00 -0.27703761311E+03  0.27703761311E+03  0.00000000000E+00 0. -1.
    9000007    1    1    2  501    0  0.11239712117E+03 -0.11007789407E+03  0.42568046879E+02  0.43192857538E+03  0.40000000000E+03 0. -1.
   -9000007    1    1    2    0  502 -0.11239712117E+03  0.11007789407E+03  0.47846162533E+03  0.64317632304E+03  0.40000000000E+03 0. -1.
<mgrwt>
<rscale>  2 0.42982584E+03</rscale>
<asrwt>0</asrwt>
<pdfrwt beam="1">  1       21 0.12277958E+00 0.42982584E+03</pdfrwt>
<pdfrwt beam="2">  1       21 0.42621172E-01 0.42982584E+03</pdfrwt>
<totfact> 0.22961889E+03</totfact>
</mgrwt>
</event>
<event>
 4    1  0.4758602E-002  0.4061557E+03  0.7818608E-02  0.1041669E+00
         21   -1    0    0  501  502  0.00000000000E+00  0.00000000000E+00  0.24042906415E+03  0.24042906415E+03  0.00000000000E+00 0.  1.
         21   -1    0    0  502  503 -0.00000000000E+00 -0.00000000000E+00 -0.88278329706E+03  0.88278329706E+03  0.00000000000E+00 0. -1.
    9000007    1    1    2  501    0  0.70349344878E+02  0.36644761998E+01 -0.56101464057E+02  0.41001199126E+03  0.40000000000E+03 0.  1.
   -9000007    1    1    2    0  503 -0.70349344878E+02 -0.36644761998E+01 -0.58625276885E+03  0.71320036995E+03  0.40000000000E+03 0. -1.
<mgrwt>
<rscale>  2 0.40615571E+03</rscale>
<asrwt>0</asrwt>
<pdfrwt beam="1">  1       21 0.36989087E-01 0.40615571E+03</pdfrwt>
<pdfrwt beam="2">  1       21 0.13581282E+00 0.40615571E+03</pdfrwt>
<totfact> 0.23901242E+03</totfact>
</mgrwt>
</event>
<event>
 4    1  0.4758602E-002  0.5202674E+03  0.7818608E-02  0.1008620E+00
         21   -1    0    0  501  502  0.00000000000E+00  0.00000000000E+00  0.60431026540E+03  0.60431026540E+03  0.00000000000E+00 0.  1.
         21   -1    0    0  502  503 -0.00000000000E+00 -0.00000000000E+00 -0.46883087232E+03  0.46883087232E+03  0.00000000000E+00 0. -1.
    9000007    1    1    2  501    0  0.28346798626E+03 -0.17413818987E+03  0.18107917308E+03  0.55087918397E+03  0.40000000000E+03 0.  1.
   -9000007    1    1    2    0  503 -0.28346798626E+03  0.17413818987E+03 -0.45599779999E+02  0.52226195376E+03  0.40000000000E+03 0. -1.
<mgrwt>
<rscale>  2 0.52026744E+03</rscale>
<asrwt>0</asrwt>
<pdfrwt beam="1">  1       21 0.92970810E-01 0.52026744E+03</pdfrwt>
<pdfrwt beam="2">  1       21 0.72127827E-01 0.52026744E+03</pdfrwt>
<totfact> 0.14117616E+03</totfact>
</mgrwt>
</event>
<event>
 4    1  0.4758602E-002  0.4270042E+03  0.7818608E-02  0.1034811E+00
         21   -1    0    0  501  502  0.00000000000E+00  0.00000000000E+00  0.85856518578E+03  0.85856518578E+03  0.00000000000E+00 0.  1.
         21   -1    0    0  502  503 -0.00000000000E+00 -0.00000000000E+00 -0.27345786057E+03  0.27345786057E+03  0.00000000000E+00 0.  1.
    9000007    1    1    2  501    0 -0.47034383017E+02 -0.14184632514E+03  0.56007667676E+03  0.70428580633E+03  0.40000000000E+03 0.  1.
   -9000007    1    1    2    0  503  0.47034383017E+02  0.14184632514E+03  0.25030648445E+02  0.42773724002E+03  0.40000000000E+03 0.  1.
<mgrwt>
<rscale>  2 0.42700423E+03</rscale>
<asrwt>0</asrwt>
<pdfrwt beam="1">  1       21 0.13208695E+00 0.42700423E+03</pdfrwt>
<pdfrwt beam="2">  1       21 0.42070440E-01 0.42700423E+03</pdfrwt>
<totfact> 0.19560782E+03</totfact>
</mgrwt>
</event>
<event>
 4    1  0.4758602E-002  0.4686299E+03  0.7818608E-02  0.1022308E+00
         21   -1    0    0  503  502  0.00000000000E+00  0.00000000000E+00  0.22905948811E+03  0.22905948811E+03  0.00000000000E+00 0.  1.
         21   -1    0    0  501  503 -0.00000000000E+00 -0.00000000000E+00 -0.10204861695E+04  0.10204861695E+04  0.00000000000E+00 0. -1.
    9000007    1    1    2  501    0 -0.17600390431E+03  0.16922363408E+03 -0.54936555807E+03  0.72209177329E+03  0.40000000000E+03 0. -1.
   -9000007    1    1    2    0  502  0.17600390431E+03 -0.16922363408E+03 -0.24206112333E+03  0.52745388433E+03  0.40000000000E+03 0.  1.
<mgrwt>
<rscale>  2 0.46862993E+03</rscale>
<asrwt>0</asrwt>
<pdfrwt beam="1">  1       21 0.35239921E-01 0.46862993E+03</pdfrwt>
<pdfrwt beam="2">  1       21 0.15699787E+00 0.46862993E+03</pdfrwt>
<totfact> 0.17403066E+03</totfact>
</mgrwt>
</event>
<event>
 4    1  0.4758602E-002  0.4029934E+03  0.7818608E-02  0.1042748E+00
         21   -1    0    0  501  502  0.00000000000E+00  0.00000000000E+00  0.44243837941E+03  0.44243837941E+03  0.00000000000E+00 0.  1.
         21   -1    0    0  502  503 -0.00000000000E+00 -0.00000000000E+00 -0.42823991546E+03  0.42823991546E+03  0.00000000000E+00 0.  1.
    9000007    1    1    2  501    0 -0.46266863054E+02 -0.16218953537E+02  0.17163888289E+03  0.43802235467E+03  0.40000000000E+03 0.  1.
   -9000007    1    1    2    0  503  0.46266863054E+02  0.16218953537E+02 -0.15744041894E+03  0.43265594020E+03  0.40000000000E+03 0.  1.
<mgrwt>
<rscale>  2 0.40299340E+03</rscale>
<asrwt>0</asrwt>
<pdfrwt beam="1">  1       21 0.68067443E-01 0.40299340E+03</pdfrwt>
<pdfrwt beam="2">  1       21 0.65883064E-01 0.40299340E+03</pdfrwt>
<totfact> 0.37095636E+03</totfact>
</mgrwt>
</event>
<event>
 4    1  0.4758602E-002  0.5577409E+03  0.7818608E-02  0.9997179E-01
         21   -1    0    0  503  502  0.00000000000E+00  0.00000000000E+00  0.10307152356E+04  0.10307152356E+04  0.00000000000E+00 0.  1.
         21   -1    0    0  501  503 -0.00000000000E+00 -0.00000000000E+00 -0.32187842809E+03  0.32187842809E+03  0.00000000000E+00 0. -1.
    9000007    1    1    2  501    0 -0.25393681952E+02 -0.38785319772E+03  0.18552879836E+03  0.58778897326E+03  0.40000000000E+03 0. -1.
   -9000007    1    1    2    0  502  0.25393681952E+02  0.38785319772E+03  0.52330800915E+03  0.76480469043E+03  0.40000000000E+03 0.  1.
<mgrwt>
<rscale>  2 0.55774093E+03</rscale>
<asrwt>0</asrwt>
<pdfrwt beam="1">  1       21 0.15857157E+00 0.55774093E+03</pdfrwt>
<pdfrwt beam="2">  1       21 0.49519759E-01 0.55774093E+03</pdfrwt>
<totfact> 0.80742992E+02</totfact>
</mgrwt>
</event>
<event>
 4    1  0.4758602E-002  0.6388098E+03  0.7818608E-02  0.9828006E-01
         21   -1    0    0  501  502  0.00000000000E+00  0.00000000000E+00  0.10972888500E+04  0.10972888500E+04  0.00000000000E+00 0.  1.
         21   -1    0    0  502  503 -0.00000000000E+00 -0.00000000000E+00 -0.90633105316E+03  0.90633105316E+03  0.00000000000E+00 0.  1.
    9000007    1    1    2  501    0 -0.39404417842E+03 -0.30464257082E+03  0.86476726626E+03  0.10751280553E+04  0.40000000000E+03 0.  1.
   -9000007    1    1    2    0  503  0.39404417842E+03  0.30464257082E+03 -0.67380946941E+03  0.92849184787E+03  0.40000000000E+03 0.  1.
<mgrwt>
<rscale>  2 0.63880976E+03</rscale>
<asrwt>0</asrwt>
<pdfrwt beam="1">  1       21 0.16881367E+00 0.63880976E+03</pdfrwt>
<pdfrwt beam="2">  1       21 0.13943555E+00 0.63880976E+03</pdfrwt>
<totfact> 0.56676691E+01</totfact>
</mgrwt>
</event>
<event>
 4    1  0.4758602E-002  0.5487077E+03  0.7818608E-02  0.1001793E+00
         21   -1    0    0  503  502  0.00000000000E+00  0.00000000000E+00  0.13538050256E+03  0.13538050256E+03  0.00000000000E+00 0. -1.
         21   -1    0    0  501  503 -0.00000000000E+00 -0.00000000000E+00 -0.25980471612E+04  0.25980471612E+04  0.00000000000E+00 0. -1.
    9000007    1    1    2  501    0 -0.34173434008E+02  0.37404856975E+03 -0.71272040771E+03  0.89947236517E+03  0.40000000000E+03 0. -1.
   -9000007    1    1    2    0  502  0.34173434008E+02 -0.37404856975E+03 -0.17499462509E+04  0.18339552986E+04  0.40000000000E+03 0. -1.
<mgrwt>
<rscale>  2 0.54870771E+03</rscale>
<asrwt>0</asrwt>
<pdfrwt beam="1">  1       21 0.20827771E-01 0.54870771E+03</pdfrwt>
<pdfrwt beam="2">  1       21 0.39969953E+00 0.54870771E+03</pdfrwt>
<totfact> 0.13357712E+02</totfact>
</mgrwt>
</event>
<event>
 4    1  0.4758602E-002  0.4585488E+03  0.7818608E-02  0.1025203E+00
         21   -1    0    0  503  502  0.00000000000E+00  0.00000000000E+00  0.14904385192E+04  0.14904385192E+04  0.00000000000E+00 0. -1.
         21   -1    0    0  501  503 -0.00000000000E+00 -0.00000000000E+00 -0.14115516345E+03  0.14115516345E+03  0.00000000000E+00 0. -1.
    9000007    1    1    2  501    0 -0.17023623039E+03 -0.14589940756E+03  0.65547891313E+03  0.79994975893E+03  0.40000000000E+03 0. -1.
   -9000007    1    1    2    0  502  0.17023623039E+03  0.14589940756E+03  0.69380444264E+03  0.83164392374E+03  0.40000000000E+03 0. -1.
<mgrwt>
<rscale>  2 0.45854881E+03</rscale>
<asrwt>0</asrwt>
<pdfrwt beam="1">  1       21 0.22929822E+00 0.45854881E+03</pdfrwt>
<pdfrwt beam="2">  1       21 0.21716180E-01 0.45854881E+03</pdfrwt>
<totfact> 0.14493076E+03</totfact>
</mgrwt>
</event>
<event>
 4    1  0.4758602E-002  0.5764134E+03  0.7818608E-02  0.9955586E-01
         21   -1    0    0  503  502  0.00000000000E+00  0.00000000000E+00  0.16104021920E+04  0.16104021920E+04  0.00000000000E+00 0.  1.
         21   -1    0    0  501  503 -0.00000000000E+00 -0.00000000000E+00 -0.23587711166E+03  0.23587711166E+03  0.00000000000E+00 0. -1.
    9000007    1    1    2  501    0  0.23457292382E+03 -0.34238567502E+03  0.10140623817E+04  0.11664368483E+04  0.40000000000E+03 0.  1.
   -9000007    1    1    2    0  502 -0.23457292382E+03  0.34238567502E+03  0.36046269870E+03  0.67984245543E+03  0.40000000000E+03 0. -1.
<mgrwt>
<rscale>  2 0.57641340E+03</rscale>
<asrwt>0</asrwt>
<pdfrwt beam="1">  1       21 0.24775418E+00 0.57641340E+03</pdfrwt>
<pdfrwt beam="2">  1       21 0.36288787E-01 0.57641340E+03</pdfrwt>
<totfact> 0.38221362E+02</totfact>
</mgrwt>
</event>
<event>
 4    1  0.4758602E-002  0.4442838E+03  0.7818608E-02  0.1029440E+00
         21   -1    0    0  501  502  0.00000000000E+00  0.00000000000E+00  0.17493024077E+03  0.17493024077E+03  0.00000000000E+00 0. -1.
         21   -1    0    0  502  503 -0.00000000000E+00 -0.00000000000E+00 -0.16913022708E+04  0.16913022708E+04  0.00000000000E+00 0. -1.
    9000007    1    1    2  501    0 -0.12498826574E+03  0.14753322973E+03 -0.21985597481E+03  0.49570633454E+03  0.40000000000E+03 0. -1.
   -9000007    1    1    2    0  503  0.12498826574E+03 -0.14753322973E+03 -0.12965160552E+04  0.13705261770E+04  0.40000000000E+03 0. -1.
<mgrwt>
<rscale>  2 0.44428383E+03</rscale>
<asrwt>0</asrwt>
<pdfrwt beam="1">  1       21 0.26912343E-01 0.44428383E+03</pdfrwt>
<pdfrwt beam="2">  1       21 0.26020036E+00 0.44428383E+03</pdfrwt>
<totfact> 0.62011548E+02</totfact>
</mgrwt>
</event>
<event>
 4    1  0.4758602E-002  0.4110836E+03  0.7818608E-02  0.1040008E+00
         21   -1    0    0  501  502  0.00000000000E+00  0.00000000000E+00  0.33573896278E+03  0.33573896278E+03  0.00000000000E+00 0. -1.
         21   -1    0    0  502  503 -0.00000000000E+00 -0.00000000000E+00 -0.89945645650E+03  0.89945645650E+03  0.00000000000E+00 0. -1.
    9000007    1    1    2  501    0 -0.16112161417E+02  0.93435245198E+02  0.12799494189E+03  0.43054901224E+03  0.40000000000E+03 0. -1.
   -9000007    1    1    2    0  503  0.16112161417E+02 -0.93435245198E+02 -0.69171243561E+03  0.80464640704E+03  0.40000000000E+03 0. -1.
<mgrwt>
<rscale>  2 0.41108363E+03</rscale>
<asrwt>0</asrwt>
<pdfrwt beam="1">  1       21 0.51652148E-01 0.41108363E+03</pdfrwt>
<pdfrwt beam="2">  1       21 0.13837792E+00 0.41108363E+03</pdfrwt>
<totfact> 0.11327054E+03</totfact>
</mgrwt>
</event>
<event>
 4    1  0.4758602E-002  0.4089785E+03  0.7818608E-02  0.1040714E+00
         21   -1    0    0  503  502  0.00000000000E+00  0.00000000000E+00  0.66782959646E+03  0.66782959646E+03  0.00000000000E+00 0.  1.
         21   -1    0    0  501  503 -0.00000000000E+00 -0.00000000000E+00 -0.13754723541E+04  0.13754723541E+04  0.00000000000E+00 0.  1.
    9000007    1    1    2  501    0  0.38504160109E+02  0.76031771530E+02 -0.12777865773E+04  0.13416415086E+04  0.40000000000E+03 0.  1.
   -9000007    1    1    2    0  502 -0.38504160109E+02 -0.76031771530E+02  0.57014381966E+03  0.70166044190E+03  0.40000000000E+03 0.  1.
<mgrwt>
<rscale>  2 0.40897848E+03</rscale>
<asrwt>0</asrwt>
<pdfrwt beam="1">  1       21 0.10274302E+00 0.40897848E+03</pdfrwt>
<pdfrwt beam="2">  1       21 0.21161113E+00 0.40897848E+03</pdfrwt>
<totfact> 0.70467793E+01</totfact>
</mgrwt>
</event>
<event>
 4    1  0.4758602E-002  0.4750071E+03  0.7818608E-02  0.1020516E+00
         21   -1    0    0  503  502  0.00000000000E+00  0.00000000000E+00  0.94156240040E+03  0.94156240040E+03  0.00000000000E+00 0.  1.
         21   -1    0    0  501  503 -0.00000000000E+00 -0.00000000000E+00 -0.25233186925E+03  0.25233186925E+03  0.00000000000E+00 0. -1.
    9000007    1    1    2  501    0  0.69892717158E+01  0.25609161351E+03  0.21071241794E+03  0.51964554025E+03  0.40000000000E+03 0. -1.
   -9000007    1    1    2    0  502 -0.69892717158E+01 -0.25609161351E+03  0.47851811321E+03  0.67424872940E+03  0.40000000000E+03 0.  1.
<mgrwt>
<rscale>  2 0.47500712E+03</rscale>
<asrwt>0</asrwt>
<pdfrwt beam="1">  1       21 0.14485575E+00 0.47500712E+03</pdfrwt>
<pdfrwt beam="2">  1       21 0.38820288E-01 0.47500712E+03</pdfrwt>
<totfact> 0.17747663E+03</totfact>
</mgrwt>
</event>
<event>
 4    1  0.4758602E-002  0.4502338E+03  0.7818608E-02  0.1027652E+00
         21   -1    0    0  501  502  0.00000000000E+00  0.00000000000E+00  0.24083009531E+03  0.24083009531E+03  0.00000000000E+00 0. -1.
         21   -1    0    0  502  503 -0.00000000000E+00 -0.00000000000E+00 -0.94094382720E+03  0.94094382720E+03  0.00000000000E+00 0.  1.
    9000007    1    1    2  501    0  0.14784361020E+02 -0.20613563257E+03 -0.15817235563E+03  0.47720956657E+03  0.40000000000E+03 0. -1.
   -9000007    1    1    2    0  503 -0.14784361020E+02  0.20613563257E+03 -0.54194137626E+03  0.70456435593E+03  0.40000000000E+03 0.  1.
<mgrwt>
<rscale>  2 0.45023380E+03</rscale>
<asrwt>0</asrwt>
<pdfrwt beam="1">  1       21 0.37050784E-01 0.45023380E+03</pdfrwt>
<pdfrwt beam="2">  1       21 0.14476059E+00 0.45023380E+03</pdfrwt>
<totfact> 0.19747929E+03</totfact>
</mgrwt>
</event>
<event>
 4    1  0.4758602E-002  0.5020517E+03  0.7818608E-02  0.1013245E+00
         21   -1    0    0  503  502  0.00000000000E+00  0.00000000000E+00  0.47910020224E+03  0.47910020224E+03  0.00000000000E+00 0.  1.
         21   -1    0    0  501  503 -0.00000000000E+00 -0.00000000000E+00 -0.17302751495E+04  0.17302751495E+04  0.00000000000E+00 0.  1.
    9000007    1    1    2  501    0 -0.27722565038E+03  0.12329585883E+03 -0.15471530830E+04  0.16265726520E+04  0.40000000000E+03 0.  1.
   -9000007    1    1    2    0  502  0.27722565038E+03 -0.12329585883E+03  0.29597813570E+03  0.58280269976E+03  0.40000000000E+03 0.  1.
<mgrwt>
<rscale>  2 0.50205172E+03</rscale>
<asrwt>0</asrwt>
<pdfrwt beam="1">  1       21 0.73707724E-01 0.50205172E+03</pdfrwt>
<pdfrwt beam="2">  1       21 0.26619617E+00 0.50205172E+03</pdfrwt>
<totfact> 0.66386346E+01</totfact>
</mgrwt>
</event>
<event>
 4    1  0.4758602E-002  0.4456553E+03  0.7818608E-02  0.1029026E+00
         21   -1    0    0  501  502  0.00000000000E+00  0.00000000000E+00  0.92829268626E+02  0.92829268626E+02  0.00000000000E+00 0. -1.
         21   -1    0    0  502  503 -0.00000000000E+00 -0.00000000000E+00 -0.21735345010E+04  0.21735345010E+04  0.00000000000E+00 0.  1.
    9000007    1    1    2  501    0  0.93562232328E+02  0.17278516182E+03 -0.89856127652E+03  0.10030059676E+04  0.40000000000E+03 0. -1.
   -9000007    1    1    2    0  503 -0.93562232328E+02 -0.17278516182E+03 -0.11821439558E+04  0.12633578019E+04  0.40000000000E+03 0.  1.
<mgrwt>
<rscale>  2 0.44565525E+03</rscale>
<asrwt>0</asrwt>
<pdfrwt beam="1">  1       21 0.14281426E-01 0.44565525E+03</pdfrwt>
<pdfrwt beam="2">  1       21 0.33438992E+00 0.44565525E+03</pdfrwt>
<totfact> 0.73727537E+02</totfact>
</mgrwt>
</event>
<event>
 4    1  0.4758602E-002  0.5998244E+03  0.7818608E-02  0.9905771E-01
         21   -1    0    0  503  502  0.00000000000E+00  0.00000000000E+00  0.14610326895E+04  0.14610326895E+04  0.00000000000E+00 0. -1.
         21   -1    0    0  501  503 -0.00000000000E+00 -0.00000000000E+00 -0.57645368365E+03  0.57645368365E+03  0.00000000000E+00 0. -1.
    9000007    1    1    2  501    0  0.23907455567E+03 -0.37766735085E+03 -0.32873641410E+03  0.68400065865E+03  0.40000000000E+03 0. -1.
   -9000007    1    1    2    0  502 -0.23907455567E+03  0.37766735085E+03  0.12133154199E+04  0.13534857145E+04  0.40000000000E+03 0. -1.
<mgrwt>
<rscale>  2 0.59982437E+03</rscale>
<asrwt>0</asrwt>
<pdfrwt beam="1">  1       21 0.22477426E+00 0.59982437E+03</pdfrwt>
<pdfrwt beam="2">  1       21 0.88685183E-01 0.59982437E+03</pdfrwt>
<totfact> 0.74516029E+01</totfact>
</mgrwt>
</event>
<event>
 4    1  0.4758602E-002  0.4772299E+03  0.7818608E-02  0.1019899E+00
         21   -1    0    0  501  502  0.00000000000E+00  0.00000000000E+00  0.17229473957E+04  0.17229473957E+04  0.00000000000E+00 0.  1.
         21   -1    0    0  502  503 -0.00000000000E+00 -0.00000000000E+00 -0.14468380390E+03  0.14468380390E+03  0.00000000000E+00 0.  1.
    9000007    1    1    2  501    0 -0.19088720037E+03  0.17694757961E+03  0.10635921809E+04  0.11657515586E+04  0.40000000000E+03 0.  1.
   -9000007    1    1    2    0  503  0.19088720037E+03 -0.17694757961E+03  0.51467141087E+03  0.70187964094E+03  0.40000000000E+03 0.  1.
<mgrwt>
<rscale>  2 0.47722989E+03</rscale>
<asrwt>0</asrwt>
<pdfrwt beam="1">  1       21 0.26506882E+00 0.47722989E+03</pdfrwt>
<pdfrwt beam="2">  1       21 0.22259048E-01 0.47722989E+03</pdfrwt>
<totfact> 0.82351371E+02</totfact>
</mgrwt>
</event>
<event>
 4    1  0.4758602E-002  0.4190396E+03  0.7818608E-02  0.1037379E+00
         21   -1    0    0  501  502  0.00000000000E+00  0.00000000000E+00  0.38194489848E+03  0.38194489848E+03  0.00000000000E+00 0.  1.
         21   -1    0    0  502  503 -0.00000000000E+00 -0.00000000000E+00 -0.79883142088E+03  0.79883142088E+03  0.00000000000E+00 0.  1.
    9000007    1    1    2  501    0  0.81791114565E+02  0.94362972945E+02  0.17621092813E+03  0.45458161894E+03  0.40000000000E+03 0.  1.
   -9000007    1    1    2    0  503 -0.81791114565E+02 -0.94362972945E+02 -0.59309745053E+03  0.72619470041E+03  0.40000000000E+03 0.  1.
<mgrwt>
<rscale>  2 0.41903957E+03</rscale>
<asrwt>0</asrwt>
<pdfrwt beam="1">  1       21 0.58760754E-01 0.41903957E+03</pdfrwt>
<pdfrwt beam="2">  1       21 0.12289714E+00 0.41903957E+03</pdfrwt>
<totfact> 0.11625434E+03</totfact>
</mgrwt>
</event>
<event>
 4    1  0.4758602E-002  0.5891574E+03  0.7818608E-02  0.9928160E-01
         21   -1    0    0  501  502  0.00000000000E+00  0.00000000000E+00  0.60256459648E+03  0.60256459648E+03  0.00000000000E+00 0.  1.
         21   -1    0    0  502  503 -0.00000000000E+00 -0.00000000000E+00 -0.58461816152E+03  0.58461816152E+03  0.00000000000E+00 0. -1.
    9000007    1    1    2  501    0  0.26586610700E+03  0.34120625032E+03  0.80840419724E+02  0.59467778298E+03  0.40000000000E+03 0.  1.
   -9000007    1    1    2    0  503 -0.26586610700E+03 -0.34120625032E+03 -0.62893984757E+02  0.59250497502E+03  0.40000000000E+03 0. -1.
<mgrwt>
<rscale>  2 0.58915744E+03</rscale>
<asrwt>0</asrwt>
<pdfrwt beam="1">  1       21 0.92702246E-01 0.58915744E+03</pdfrwt>
<pdfrwt beam="2">  1       21 0.89941256E-01 0.58915744E+03</pdfrwt>
<totfact> 0.83184276E+02</totfact>
</mgrwt>
</event>
<event>
 4    1  0.4758602E-002  0.5753142E+03  0.7818608E-02  0.9957987E-01
         21   -1    0    0  503  502  0.00000000000E+00  0.00000000000E+00  0.27563368746E+03  0.27563368746E+03  0.00000000000E+00 0.  1.
         21   -1    0    0  501  503 -0.00000000000E+00 -0.00000000000E+00 -0.15120347082E+04  0.15120347082E+04  0.00000000000E+00 0.  1.
    9000007    1    1    2  501    0 -0.39730440781E+03  0.11461087749E+03 -0.10237147793E+04  0.11742991080E+04  0.40000000000E+03 0.  1.
   -9000007    1    1    2    0  502  0.39730440781E+03 -0.11461087749E+03 -0.21268624140E+03  0.61336928761E+03  0.40000000000E+03 0.  1.
<mgrwt>
<rscale>  2 0.57531421E+03</rscale>
<asrwt>0</asrwt>
<pdfrwt beam="1">  1       21 0.42405183E-01 0.57531421E+03</pdfrwt>
<pdfrwt beam="2">  1       21 0.23262072E+00 0.57531421E+03</pdfrwt>
<totfact> 0.34497489E+02</totfact>
</mgrwt>
</event>
<event>
 4    1  0.4758602E-002  0.4173319E+03  0.7818608E-02  0.1037938E+00
         21   -1    0    0  503  502  0.00000000000E+00  0.00000000000E+00  0.50705235132E+03  0.50705235132E+03  0.00000000000E+00 0. -1.
         21   -1    0    0  501  503 -0.00000000000E+00 -0.00000000000E+00 -0.35506702021E+03  0.35506702021E+03  0.00000000000E+00 0. -1.
    9000007    1    1    2  501    0  0.61118283545E+02  0.10212955821E+03  0.15383877094E+03  0.44478338400E+03  0.40000000000E+03 0. -1.
   -9000007    1    1    2    0  502 -0.61118283545E+02 -0.10212955821E+03 -0.18534398240E+01  0.41733598752E+03  0.40000000000E+03 0. -1.
<mgrwt>
<rscale>  2 0.41733187E+03</rscale>
<asrwt>0</asrwt>
<pdfrwt beam="1">  1       21 0.78008055E-01 0.41733187E+03</pdfrwt>
<pdfrwt beam="2">  1       21 0.54625695E-01 0.41733187E+03</pdfrwt>
<totfact> 0.40824635E+03</totfact>
</mgrwt>
</event>
<event>
 4    1  0.4758602E-002  0.6045118E+03  0.7818608E-02  0.9896090E-01
         21   -1    0    0  503  502  0.00000000000E+00  0.00000000000E+00  0.94352844400E+03  0.94352844400E+03  0.00000000000E+00 0.  1.
         21   -1    0    0  501  503 -0.00000000000E+00 -0.00000000000E+00 -0.51411452075E+03  0.51411452075E+03  0.00000000000E+00 0. -1.
    9000007    1    1    2  501    0 -0.31997735616E+03 -0.32101241980E+03 -0.14725671109E+03  0.62218889502E+03  0.40000000000E+03 0. -1.
   -9000007    1    1    2    0  502  0.31997735616E+03  0.32101241980E+03  0.57667063434E+03  0.83545406973E+03  0.40000000000E+03 0.  1.
<mgrwt>
<rscale>  2 0.60451177E+03</rscale>
<asrwt>0</asrwt>
<pdfrwt beam="1">  1       21 0.14515822E+00 0.60451177E+03</pdfrwt>
<pdfrwt beam="2">  1       21 0.79094542E-01 0.60451177E+03</pdfrwt>
<totfact> 0.35783287E+02</totfact>
</mgrwt>
</event>
<event>
 4    1  0.4758602E-002  0.6432483E+03  0.7818608E-02  0.9819531E-01
         21   -1    0    0  503  502  0.00000000000E+00  0.00000000000E+00  0.12137630494E+04  0.12137630494E+04  0.00000000000E+00 0.  1.
         21   -1    0    0  501  503 -0.00000000000E+00 -0.00000000000E+00 -0.36561940851E+03  0.36561940851E+03  0.00000000000E+00 0.  1.
    9000007    1    1    2  501    0  0.49663260477E+03  0.84406604307E+02  0.21872576269E+03  0.67941841176E+03  0.40000000000E+03 0.  1.
   -9000007    1    1    2    0  502 -0.49663260477E+03 -0.84406604307E+02  0.62941787820E+03  0.89996404615E+03  0.40000000000E+03 0.  1.
<mgrwt>
<rscale>  2 0.64324833E+03</rscale>
<asrwt>0</asrwt>
<pdfrwt beam="1">  1       21 0.18673278E+00 0.64324833E+03</pdfrwt>
<pdfrwt beam="2">  1       21 0.56249140E-01 0.64324833E+03</pdfrwt>
<totfact> 0.37084233E+02</totfact>
</mgrwt>
</event>
<event>
 4    1  0.4758602E-002  0.4895681E+03  0.7818608E-02  0.1016538E+00
         21   -1    0    0  503  502  0.00000000000E+00  0.00000000000E+00  0.70457949256E+03  0.70457949256E+03  0.00000000000E+00 0.  1.
         21   -1    0    0  501  503 -0.00000000000E+00 -0.00000000000E+00 -0.73843493509E+03  0.73843493509E+03  0.00000000000E+00 0.  1.
    9000007    1    1    2  501    0  0.28020284494E+03  0.34106875609E+02 -0.54679916245E+03  0.73393885122E+03  0.40000000000E+03 0.  1.
   -9000007    1    1    2    0  502 -0.28020284494E+03 -0.34106875609E+02  0.51294371992E+03  0.70907557642E+03  0.40000000000E+03 0.  1.
<mgrwt>
<rscale>  2 0.48956809E+03</rscale>
<asrwt>0</asrwt>
<pdfrwt beam="1">  1       21 0.10839685E+00 0.48956809E+03</pdfrwt>
<pdfrwt beam="2">  1       21 0.11360537E+00 0.48956809E+03</pdfrwt>
<totfact> 0.33262868E+02</totfact>
</mgrwt>
</event>
<event>
 4    1  0.4758602E-002  0.4865822E+03  0.7818608E-02  0.1017342E+00
         21   -1    0    0  501  502  0.00000000000E+00  0.00000000000E+00  0.33792376340E+03  0.33792376340E+03  0.00000000000E+00 0. -1.
         21   -1    0    0  502  503 -0.00000000000E+00 -0.00000000000E+00 -0.74236017701E+03  0.74236017701E+03  0.00000000000E+00 0. -1.
    9000007    1    1    2  501    0 -0.36402029720E+02  0.27465815938E+03 -0.74166804052E+02  0.49220212018E+03  0.40000000000E+03 0. -1.
   -9000007    1    1    2    0  503  0.36402029720E+02 -0.27465815938E+03 -0.33026960956E+03  0.58808182023E+03  0.40000000000E+03 0. -1.
<mgrwt>
<rscale>  2 0.48658217E+03</rscale>
<asrwt>0</asrwt>
<pdfrwt beam="1">  1       21 0.51988272E-01 0.48658217E+03</pdfrwt>
<pdfrwt beam="2">  1       21 0.11420926E+00 0.48658217E+03</pdfrwt>
<totfact> 0.17750498E+03</totfact>
</mgrwt>
</event>
<event>
 4    1  0.4758602E-002  0.4136117E+03  0.7818608E-02  0.1039166E+00
         21   -1    0    0  501  502  0.00000000000E+00  0.00000000000E+00  0.31853465424E+03  0.31853465424E+03  0.00000000000E+00 0. -1.
         21   -1    0    0  502  503 -0.00000000000E+00 -0.00000000000E+00 -0.68475110816E+03  0.68475110816E+03  0.00000000000E+00 0. -1.
    9000007    1    1    2  501    0 -0.88473905862E+02 -0.56982339736E+02  0.49858763279E+02  0.41660594731E+03  0.40000000000E+03 0. -1.
   -9000007    1    1    2    0  503  0.88473905862E+02  0.56982339736E+02 -0.41607521720E+03  0.58667981509E+03  0.40000000000E+03 0. -1.
<mgrwt>
<rscale>  2 0.41361168E+03</rscale>
<asrwt>0</asrwt>
<pdfrwt beam="1">  1       21 0.49005331E-01 0.41361168E+03</pdfrwt>
<pdfrwt beam="2">  1       21 0.10534632E+00 0.41361168E+03</pdfrwt>
<totfact> 0.25285342E+03</totfact>
</mgrwt>
</event>
<event>
 4    1  0.4758602E-002  0.4470102E+03  0.7818608E-02  0.1028617E+00
         21   -1    0    0  503  502  0.00000000000E+00  0.00000000000E+00  0.98680997770E+03  0.98680997770E+03  0.00000000000E+00 0.  1.
         21   -1    0    0  501  503 -0.00000000000E+00 -0.00000000000E+00 -0.20448680884E+03  0.20448680884E+03  0.00000000000E+00 0. -1.
    9000007    1    1    2  501    0  0.10970220980E+03  0.16668391602E+03  0.33228518852E+03  0.55698433479E+03  0.40000000000E+03 0.  1.
   -9000007    1    1    2    0  502 -0.10970220980E+03 -0.16668391602E+03  0.45003798033E+03  0.63431245174E+03  0.40000000000E+03 0. -1.
<mgrwt>
<rscale>  2 0.44701018E+03</rscale>
<asrwt>0</asrwt>
<pdfrwt beam="1">  1       21 0.15181692E+00 0.44701018E+03</pdfrwt>
<pdfrwt beam="2">  1       21 0.31459510E-01 0.44701018E+03</pdfrwt>
<totfact> 0.24181912E+03</totfact>
</mgrwt>
</event>
<event>
 4    1  0.4758602E-002  0.4924847E+03  0.7818608E-02  0.1015759E+00
         21   -1    0    0  501  502  0.00000000000E+00  0.00000000000E+00  0.90403060652E+03  0.90403060652E+03  0.00000000000E+00 0. -1.
         21   -1    0    0  502  503 -0.00000000000E+00 -0.00000000000E+00 -0.26983154197E+03  0.26983154197E+03  0.00000000000E+00 0. -1.
    9000007    1    1    2  501    0 -0.37462117318E+02 -0.28484690665E+03  0.27271767503E+03  0.56295301823E+03  0.40000000000E+03 0. -1.
   -9000007    1    1    2    0  503  0.37462117318E+02  0.28484690665E+03  0.36148138952E+03  0.61090913026E+03  0.40000000000E+03 0. -1.
<mgrwt>
<rscale>  2 0.49248469E+03</rscale>
<asrwt>0</asrwt>
<pdfrwt beam="1">  1       21 0.13908163E+00 0.49248469E+03</pdfrwt>
<pdfrwt beam="2">  1       21 0.41512545E-01 0.49248469E+03</pdfrwt>
<totfact> 0.17120280E+03</totfact>
</mgrwt>
</event>
<event>
 4    1  0.4758602E-002  0.4544074E+03  0.7818608E-02  0.1026416E+00
         21   -1    0    0  503  502  0.00000000000E+00  0.00000000000E+00  0.28704462237E+03  0.28704462237E+03  0.00000000000E+00 0. -1.
         21   -1    0    0  501  503 -0.00000000000E+00 -0.00000000000E+00 -0.71971821189E+03  0.71971821189E+03  0.00000000000E+00 0. -1.
    9000007    1    1    2  501    0 -0.13978413996E+03  0.16415370694E+03 -0.20497771813E+03  0.49849965919E+03  0.40000000000E+03 0. -1.
   -9000007    1    1    2    0  502  0.13978413996E+03 -0.16415370694E+03 -0.22769587139E+03  0.50826317507E+03  0.40000000000E+03 0. -1.
<mgrwt>
<rscale>  2 0.45440736E+03</rscale>
<asrwt>0</asrwt>
<pdfrwt beam="1">  1       21 0.44160712E-01 0.45440736E+03</pdfrwt>
<pdfrwt beam="2">  1       21 0.11072588E+00 0.45440736E+03</pdfrwt>
<totfact> 0.27401614E+03</totfact>
</mgrwt>
</event>
<event>
 4    1  0.4758602E-002  0.4315080E+03  0.7818608E-02  0.1033385E+00
         21   -1    0    0  501  502  0.00000000000E+00  0.00000000000E+00  0.16342842033E+03  0.16342842033E+03  0.00000000000E+00 0. -1.
         21   -1    0    0  502  503 -0.00000000000E+00 -0.00000000000E+00 -0.11393372675E+04  0.11393372675E+04  0.00000000000E+00 0.  1.
    9000007    1    1    2  501    0  0.16818216809E+02  0.16098539505E+03 -0.48649085479E+03  0.65028647659E+03  0.40000000000E+03 0. -1.
   -9000007    1    1    2    0  503 -0.16818216809E+02 -0.16098539505E+03 -0.48941799235E+03  0.65247921122E+03  0.40000000000E+03 0.  1.
<mgrwt>
<rscale>  2 0.43150800E+03</rscale>
<asrwt>0</asrwt>
<pdfrwt beam="1">  1       21 0.25142833E-01 0.43150800E+03</pdfrwt>
<pdfrwt beam="2">  1       21 0.17528266E+00 0.43150800E+03</pdfrwt>
<totfact> 0.25300583E+03</totfact>
</mgrwt>
</event>
<event>
 4    1  0.4758602E-002  0.4163212E+03  0.7818608E-02  0.1038270E+00
         21   -1    0    0  503  502  0.00000000000E+00  0.00000000000E+00  0.15567836823E+04  0.15567836823E+04  0.00000000000E+00 0. -1.
         21   -1    0    0  501  503 -0.00000000000E+00 -0.00000000000E+00 -0.11225699944E+03  0.11225699944E+03  0.00000000000E+00 0. -1.
    9000007    1    1    2  501    0  0.10167215486E+03 -0.54645389662E+02  0.79792429361E+03  0.90000362445E+03  0.40000000000E+03 0. -1.
   -9000007    1    1    2    0  502 -0.10167215486E+03  0.54645389662E+02  0.64660238922E+03  0.76903705725E+03  0.40000000000E+03 0. -1.
<mgrwt>
<rscale>  2 0.41632120E+03</rscale>
<asrwt>0</asrwt>
<pdfrwt beam="1">  1       21 0.23950517E+00 0.41632120E+03</pdfrwt>
<pdfrwt beam="2">  1       21 0.17270309E-01 0.41632120E+03</pdfrwt>
<totfact> 0.19711800E+03</totfact>
</mgrwt>
</event>
<event>
 4    1  0.4758602E-002  0.4291552E+03  0.7818608E-02  0.1034127E+00
         21   -1    0    0  501  502  0.00000000000E+00  0.00000000000E+00  0.84336161463E+03  0.84336161463E+03  0.00000000000E+00 0.  1.
         21   -1    0    0  502  503 -0.00000000000E+00 -0.00000000000E+00 -0.22134145483E+03  0.22134145483E+03  0.00000000000E+00 0.  1.
    9000007    1    1    2  501    0 -0.52746804559E+02  0.14625999064E+03  0.24944402150E+03  0.49638345069E+03  0.40000000000E+03 0.  1.
   -9000007    1    1    2    0  503  0.52746804559E+02 -0.14625999064E+03  0.37257613829E+03  0.56831961877E+03  0.40000000000E+03 0.  1.
<mgrwt>
<rscale>  2 0.42915523E+03</rscale>
<asrwt>0</asrwt>
<pdfrwt beam="1">  1       21 0.12974794E+00 0.42915523E+03</pdfrwt>
<pdfrwt beam="2">  1       21 0.34052532E-01 0.42915523E+03</pdfrwt>
<totfact> 0.31530038E+03</totfact>
</mgrwt>
</event>
<event>
 4    1  0.4758602E-002  0.4371238E+03  0.7818608E-02  0.1031633E+00
         21   -1    0    0  501  502  0.00000000000E+00  0.00000000000E+00  0.32933292782E+03  0.32933292782E+03  0.00000000000E+00 0. -1.
         21   -1    0    0  502  503 -0.00000000000E+00 -0.00000000000E+00 -0.81265758742E+03  0.81265758742E+03  0.00000000000E+00 0. -1.
    9000007    1    1    2  501    0  0.16356396032E+03 -0.65757513513E+02  0.63728165736E+02  0.44174483450E+03  0.40000000000E+03 0. -1.
   -9000007    1    1    2    0  503 -0.16356396032E+03  0.65757513513E+02 -0.54705282533E+03  0.70024568074E+03  0.40000000000E+03 0. -1.
<mgrwt>
<rscale>  2 0.43712380E+03</rscale>
<asrwt>0</asrwt>
<pdfrwt beam="1">  1       21 0.50666605E-01 0.43712380E+03</pdfrwt>
<pdfrwt beam="2">  1       21 0.12502424E+00 0.43712380E+03</pdfrwt>
<totfact> 0.15192696E+03</totfact>
</mgrwt>
</event>
<event>
 4    1  0.4758602E-002  0.4571558E+03  0.7818608E-02  0.1025609E+00
         21   -1    0    0  503  502  0.00000000000E+00  0.00000000000E+00  0.17795529457E+03  0.17795529457E+03  0.00000000000E+00 0.  1.
         21   -1    0    0  501  503 -0.00000000000E+00 -0.00000000000E+00 -0.12008049095E+04  0.12008049095E+04  0.00000000000E+00 0.  1.
    9000007    1    1    2  501    0  0.20629996836E+03  0.80198252259E+02 -0.61364359374E+03  0.76521232135E+03  0.40000000000E+03 0.  1.
   -9000007    1    1    2    0  502 -0.20629996836E+03 -0.80198252259E+02 -0.40920602122E+03  0.61354788274E+03  0.40000000000E+03 0.  1.
<mgrwt>
<rscale>  2 0.45715581E+03</rscale>
<asrwt>0</asrwt>
<pdfrwt beam="1">  1       21 0.27377738E-01 0.45715581E+03</pdfrwt>
<pdfrwt beam="2">  1       21 0.18473921E+00 0.45715581E+03</pdfrwt>
<totfact> 0.18177304E+03</totfact>
</mgrwt>
</event>
<event>
 4    1  0.4758602E-002  0.4474819E+03  0.7818608E-02  0.1028476E+00
         21   -1    0    0  503  502  0.00000000000E+00  0.00000000000E+00  0.16549507267E+04  0.16549507267E+04  0.00000000000E+00 0.  1.
         21   -1    0    0  501  503 -0.00000000000E+00 -0.00000000000E+00 -0.14170113351E+03  0.14170113351E+03  0.00000000000E+00 0.  1.
    9000007    1    1    2  501    0 -0.15666202260E+03  0.12528777448E+03  0.41322382885E+03  0.60909272569E+03  0.40000000000E+03 0.  1.
   -9000007    1    1    2    0  502  0.15666202260E+03 -0.12528777448E+03  0.11000257644E+04  0.11875591345E+04  0.40000000000E+03 0.  1.
<mgrwt>
<rscale>  2 0.44748186E+03</rscale>
<asrwt>0</asrwt>
<pdfrwt beam="1">  1       21 0.25460779E+00 0.44748186E+03</pdfrwt>
<pdfrwt beam="2">  1       21 0.21800175E-01 0.44748186E+03</pdfrwt>
<totfact> 0.10076232E+03</totfact>
</mgrwt>
</event>
<event>
 4    1  0.4758602E-002  0.4310509E+03  0.7818608E-02  0.1033528E+00
         21   -1    0    0  503  502  0.00000000000E+00  0.00000000000E+00  0.12343430165E+04  0.12343430165E+04  0.00000000000E+00 0.  1.
         21   -1    0    0  501  503 -0.00000000000E+00 -0.00000000000E+00 -0.40566432521E+03  0.40566432521E+03  0.00000000000E+00 0.  1.
    9000007    1    1    2  501    0  0.14310575982E+03 -0.72976995979E+02 -0.23596604450E+03  0.49141110548E+03  0.40000000000E+03 0.  1.
   -9000007    1    1    2    0  502 -0.14310575982E+03  0.72976995979E+02  0.10646447358E+04  0.11485962362E+04  0.40000000000E+03 0.  1.
<mgrwt>
<rscale>  2 0.43105093E+03</rscale>
<asrwt>0</asrwt>
<pdfrwt beam="1">  1       21 0.18989892E+00 0.43105093E+03</pdfrwt>
<pdfrwt beam="2">  1       21 0.62409897E-01 0.43105093E+03</pdfrwt>
<totfact> 0.30695326E+02</totfact>
</mgrwt>
</event>
<event>
 4    1  0.4758602E-002  0.4172215E+03  0.7818608E-02  0.1037974E+00
         21   -1    0    0  501  502  0.00000000000E+00  0.00000000000E+00  0.18796793334E+04  0.18796793334E+04  0.00000000000E+00 0.  1.
         21   -1    0    0  502  503 -0.00000000000E+00 -0.00000000000E+00 -0.13205948168E+03  0.13205948168E+03  0.00000000000E+00 0.  1.
    9000007    1    1    2  501    0  0.48526287673E+02  0.10825426900E+03  0.14235876837E+04  0.14834674518E+04  0.40000000000E+03 0.  1.
   -9000007    1    1    2    0  503 -0.48526287673E+02 -0.10825426900E+03  0.32403216803E+03  0.52827136329E+03  0.40000000000E+03 0.  1.
<mgrwt>
<rscale>  2 0.41722151E+03</rscale>
<asrwt>0</asrwt>
<pdfrwt beam="1">  1       21 0.28918142E+00 0.41722151E+03</pdfrwt>
<pdfrwt beam="2">  1       21 0.20316845E-01 0.41722151E+03</pdfrwt>
<totfact> 0.72444297E+02</totfact>
</mgrwt>
</event>
<event>
 4    1  0.4758602E-002  0.4723863E+03  0.7818608E-02  0.1021249E+00
         21   -1    0    0  503  502  0.00000000000E+00  0.00000000000E+00  0.11155908081E+04  0.11155908081E+04  0.00000000000E+00 0.  1.
         21   -1    0    0  501  503 -0.00000000000E+00 -0.00000000000E+00 -0.21456227745E+03  0.21456227745E+03  0.00000000000E+00 0.  1.
    9000007    1    1    2  501    0  0.24482608515E+03  0.56647956099E+02  0.27741323997E+03  0.54782014257E+03  0.40000000000E+03 0.  1.
   -9000007    1    1    2    0  502 -0.24482608515E+03 -0.56647956099E+02  0.62361529069E+03  0.78233294299E+03  0.40000000000E+03 0.  1.
<mgrwt>
<rscale>  2 0.47238629E+03</rscale>
<asrwt>0</asrwt>
<pdfrwt beam="1">  1       21 0.17162935E+00 0.47238629E+03</pdfrwt>
<pdfrwt beam="2">  1       21 0.33009582E-01 0.47238629E+03</pdfrwt>
<totfact> 0.15428585E+03</totfact>
</mgrwt>
</event>
<event>
 4    1  0.4758602E-002  0.4748259E+03  0.7818608E-02  0.1020567E+00
         21   -1    0    0  501  502  0.00000000000E+00  0.00000000000E+00  0.16064827975E+04  0.16064827975E+04  0.00000000000E+00 0.  1.
         21   -1    0    0  502  503 -0.00000000000E+00 -0.00000000000E+00 -0.18202407241E+03  0.18202407241E+03  0.00000000000E+00 0.  1.
    9000007    1    1    2  501    0  0.37781147899E+02  0.25304585782E+03  0.11401491640E+04  0.12350707418E+04  0.40000000000E+03 0.  1.
   -9000007    1    1    2    0  503 -0.37781147899E+02 -0.25304585782E+03  0.28430956116E+03  0.55343612808E+03  0.40000000000E+03 0.  1.
<mgrwt>
<rscale>  2 0.47482589E+03</rscale>
<asrwt>0</asrwt>
<pdfrwt beam="1">  1       21 0.24715119E+00 0.47482589E+03</pdfrwt>
<pdfrwt beam="2">  1       21 0.28003704E-01 0.47482589E+03</pdfrwt>
<totfact> 0.67873630E+02</totfact>
</mgrwt>
</event>
<event>
 4    1  0.4758602E-002  0.7059465E+03  0.7818608E-02  0.9707117E-01
         21   -1    0    0  503  502  0.00000000000E+00  0.00000000000E+00  0.43933315928E+03  0.43933315928E+03  0.00000000000E+00 0. -1.
         21   -1    0    0  501  503 -0.00000000000E+00 -0.00000000000E+00 -0.11677113927E+04  0.11677113927E+04  0.00000000000E+00 0. -1.
    9000007    1    1    2  501    0 -0.25018119025E+03 -0.52513797990E+03 -0.49999182763E+03  0.86507361166E+03  0.40000000000E+03 0. -1.
   -9000007    1    1    2    0  502  0.25018119025E+03  0.52513797990E+03 -0.22838640574E+03  0.74197094028E+03  0.40000000000E+03 0. -1.
<mgrwt>
<rscale>  2 0.70594655E+03</rscale>
<asrwt>0</asrwt>
<pdfrwt beam="1">  1       21 0.67589718E-01 0.70594655E+03</pdfrwt>
<pdfrwt beam="2">  1       21 0.17964790E+00 0.70594655E+03</pdfrwt>
<totfact> 0.27122607E+02</totfact>
</mgrwt>
</event>
<event>
 4    1  0.4758602E-002  0.4004343E+03  0.7818608E-02  0.1043629E+00
         21   -1    0    0  501  502  0.00000000000E+00  0.00000000000E+00  0.80530171264E+03  0.80530171264E+03  0.00000000000E+00 0.  1.
         21   -1    0    0  502  503 -0.00000000000E+00 -0.00000000000E+00 -0.20112175839E+03  0.20112175839E+03  0.00000000000E+00 0.  1.
    9000007    1    1    2  501    0 -0.15632575685E+02  0.10160588529E+02  0.25182406707E+03  0.47303591379E+03  0.40000000000E+03 0. -1.
   -9000007    1    1    2    0  503  0.15632575685E+02 -0.10160588529E+02  0.35235588718E+03  0.53338755724E+03  0.40000000000E+03 0. -1.
<mgrwt>
<rscale>  2 0.40043428E+03</rscale>
<asrwt>0</asrwt>
<pdfrwt beam="1">  1       21 0.12389257E+00 0.40043428E+03</pdfrwt>
<pdfrwt beam="2">  1       21 0.30941809E-01 0.40043428E+03</pdfrwt>
<totfact> 0.43498377E+03</totfact>
</mgrwt>
</event>
<event>
 4    1  0.4758602E-002  0.4362241E+03  0.7818608E-02  0.1031912E+00
         21   -1    0    0  503  502  0.00000000000E+00  0.00000000000E+00  0.18242125614E+03  0.18242125614E+03  0.00000000000E+00 0. -1.
         21   -1    0    0  501  503 -0.00000000000E+00 -0.00000000000E+00 -0.13776344986E+04  0.13776344986E+04  0.00000000000E+00 0. -1.
    9000007    1    1    2  501    0  0.12256349026E+03  0.12357028801E+03 -0.98196448620E+03  0.10744978722E+04  0.40000000000E+03 0. -1.
   -9000007    1    1    2    0  502 -0.12256349026E+03 -0.12357028801E+03 -0.21324875625E+03  0.48555788251E+03  0.40000000000E+03 0. -1.
<mgrwt>
<rscale>  2 0.43622405E+03</rscale>
<asrwt>0</asrwt>
<pdfrwt beam="1">  1       21 0.28064809E-01 0.43622405E+03</pdfrwt>
<pdfrwt beam="2">  1       21 0.21194377E+00 0.43622405E+03</pdfrwt>
<totfact> 0.11483561E+03</totfact>
</mgrwt>
</event>
<event>
 4    1  0.4758602E-002  0.4170065E+03  0.7818608E-02  0.1038045E+00
         21   -1    0    0  501  502  0.00000000000E+00  0.00000000000E+00  0.37645465854E+03  0.37645465854E+03  0.00000000000E+00 0.  1.
         21   -1    0    0  502  503 -0.00000000000E+00 -0.00000000000E+00 -0.47369476731E+03  0.47369476731E+03  0.00000000000E+00 0.  1.
    9000007    1    1    2  501    0 -0.11007625095E+03 -0.42162029175E+02 -0.11561939495E+03  0.43273809887E+03  0.40000000000E+03 0. -1.
   -9000007    1    1    2    0  503  0.11007625095E+03  0.42162029175E+02  0.18379286186E+02  0.41741132698E+03  0.40000000000E+03 0. -1.
<mgrwt>
<rscale>  2 0.41700650E+03</rscale>
<asrwt>0</asrwt>
<pdfrwt beam="1">  1       21 0.57916102E-01 0.41700650E+03</pdfrwt>
<pdfrwt beam="2">  1       21 0.72876117E-01 0.41700650E+03</pdfrwt>
<totfact> 0.42013591E+03</totfact>
</mgrwt>
</event>
<event>
 4    1  0.4758602E-002  0.5114848E+03  0.7818608E-02  0.1010824E+00
         21   -1    0    0  503  502  0.00000000000E+00  0.00000000000E+00  0.76586578705E+03  0.76586578705E+03  0.00000000000E+00 0.  1.
         21   -1    0    0  501  503 -0.00000000000E+00 -0.00000000000E+00 -0.35552890575E+03  0.35552890575E+03  0.00000000000E+00 0.  1.
    9000007    1    1    2  501    0  0.31286946421E+03  0.61068661881E+02  0.94171241426E+02  0.52008163379E+03  0.40000000000E+03 0.  1.
   -9000007    1    1    2    0  502 -0.31286946421E+03 -0.61068661881E+02  0.31616563988E+03  0.60131305901E+03  0.40000000000E+03 0.  1.
<mgrwt>
<rscale>  2 0.51148478E+03</rscale>
<asrwt>0</asrwt>
<pdfrwt beam="1">  1       21 0.11782551E+00 0.51148478E+03</pdfrwt>
<pdfrwt beam="2">  1       21 0.54696755E-01 0.51148478E+03</pdfrwt>
<totfact> 0.14585702E+03</totfact>
</mgrwt>
</event>
<event>
 4    1  0.4758602E-002  0.4299951E+03  0.7818608E-02  0.1033862E+00
         21   -1    0    0  501  502  0.00000000000E+00  0.00000000000E+00  0.16029198140E+03  0.16029198140E+03  0.00000000000E+00 0.  1.
         21   -1    0    0  502  503 -0.00000000000E+00 -0.00000000000E+00 -0.12174292647E+04  0.12174292647E+04  0.00000000000E+00 0.  1.
    9000007    1    1    2  501    0 -0.14049113690E+03 -0.71819535924E+02 -0.68643167186E+03  0.80999027489E+03  0.40000000000E+03 0.  1.
   -9000007    1    1    2    0  503  0.14049113690E+03  0.71819535924E+02 -0.37070561140E+03  0.56773097116E+03  0.40000000000E+03 0.  1.
<mgrwt>
<rscale>  2 0.42999512E+03</rscale>
<asrwt>0</asrwt>
<pdfrwt beam="1">  1       21 0.24660305E-01 0.42999512E+03</pdfrwt>
<pdfrwt beam="2">  1       21 0.18729681E+00 0.42999512E+03</pdfrwt>
<totfact> 0.21653347E+03</totfact>
</mgrwt>
</event>
<event>
 4    1  0.4758602E-002  0.4023171E+03  0.7818608E-02  0.1042980E+00
         21   -1    0    0  503  502  0.00000000000E+00  0.00000000000E+00  0.62904154784E+03  0.62904154784E+03  0.00000000000E+00 0.  1.
         21   -1    0    0  501  503 -0.00000000000E+00 -0.00000000000E+00 -0.84661383451E+03  0.84661383451E+03  0.00000000000E+00 0.  1.
    9000007    1    1    2  501    0 -0.24403223016E+02  0.35546399060E+02 -0.72436214316E+03  0.82858890786E+03  0.40000000000E+03 0.  1.
   -9000007    1    1    2    0  502  0.24403223016E+02 -0.35546399060E+02  0.50678985649E+03  0.64706647450E+03  0.40000000000E+03 0.  1.
<mgrwt>
<rscale>  2 0.40231712E+03</rscale>
<asrwt>0</asrwt>
<pdfrwt beam="1">  1       21 0.96775623E-01 0.40231712E+03</pdfrwt>
<pdfrwt beam="2">  1       21 0.13024828E+00 0.40231712E+03</pdfrwt>
<totfact> 0.32321063E+02</totfact>
</mgrwt>
</event>
<event>
 4    1  0.4758602E-002  0.4538991E+03  0.7818608E-02  0.1026566E+00
         21   -1    0    0  501  502  0.00000000000E+00  0.00000000000E+00  0.43236735968E+03  0.43236735968E+03  0.00000000000E+00 0. -1.
         21   -1    0    0  502  503 -0.00000000000E+00 -0.00000000000E+00 -0.47775164419E+03  0.47775164419E+03  0.00000000000E+00 0. -1.
    9000007    1    1    2  501    0 -0.12449647437E+02  0.21417146360E+03 -0.45954839816E+02  0.45621952703E+03  0.40000000000E+03 0. -1.
   -9000007    1    1    2    0  503  0.12449647437E+02 -0.21417146360E+03  0.57055529924E+00  0.45389947684E+03  0.40000000000E+03 0. -1.
<mgrwt>
<rscale>  2 0.45389912E+03</rscale>
<asrwt>0</asrwt>
<pdfrwt beam="1">  1       21 0.66518056E-01 0.45389912E+03</pdfrwt>
<pdfrwt beam="2">  1       21 0.73500253E-01 0.45389912E+03</pdfrwt>
<totfact> 0.29976832E+03</totfact>
</mgrwt>
</event>
<event>
 4    1  0.4758602E-002  0.5116065E+03  0.7818608E-02  0.1010793E+00
         21   -1    0    0  503  502  0.00000000000E+00  0.00000000000E+00  0.19934800311E+04  0.19934800311E+04  0.00000000000E+00 0. -1.
         21   -1    0    0  501  503 -0.00000000000E+00 -0.00000000000E+00 -0.19779320186E+03  0.19779320186E+03  0.00000000000E+00 0. -1.
    9000007    1    1    2  501    0 -0.30043109051E+03 -0.10715559288E+03  0.26257975331E+03  0.57505589996E+03  0.40000000000E+03 0. -1.
   -9000007    1    1    2    0  502  0.30043109051E+03  0.10715559288E+03  0.15331070759E+04  0.16162173330E+04  0.40000000000E+03 0. -1.
<mgrwt>
<rscale>  2 0.51160645E+03</rscale>
<asrwt>0</asrwt>
<pdfrwt beam="1">  1       21 0.30668922E+00 0.51160645E+03</pdfrwt>
<pdfrwt beam="2">  1       21 0.30429725E-01 0.51160645E+03</pdfrwt>
<totfact> 0.24553368E+02</totfact>
</mgrwt>
</event>
<event>
 4    1  0.4758602E-002  0.4136738E+03  0.7818608E-02  0.1039145E+00
         21   -1    0    0  503  502  0.00000000000E+00  0.00000000000E+00  0.16117290681E+04  0.16117290681E+04  0.00000000000E+00 0.  1.
         21   -1    0    0  501  503 -0.00000000000E+00 -0.00000000000E+00 -0.12669151911E+03  0.12669151911E+03  0.00000000000E+00 0.  1.
    9000007    1    1    2  501    0  0.12035725382E+02 -0.10479090023E+03  0.39273584578E+03  0.57040988422E+03  0.40000000000E+03 0.  1.
   -9000007    1    1    2    0  502 -0.12035725382E+02  0.10479090023E+03  0.10923017032E+04  0.11680107030E+04  0.40000000000E+03 0.  1.
<mgrwt>
<rscale>  2 0.41367377E+03</rscale>
<asrwt>0</asrwt>
<pdfrwt beam="1">  1       21 0.24795830E+00 0.41367377E+03</pdfrwt>
<pdfrwt beam="2">  1       21 0.19491004E-01 0.41367377E+03</pdfrwt>
<totfact> 0.13939973E+03</totfact>
</mgrwt>
</event>
<event>
 4    1  0.4758602E-002  0.5105198E+03  0.7818608E-02  0.1011069E+00
         21   -1    0    0  501  502  0.00000000000E+00  0.00000000000E+00  0.75721657633E+03  0.75721657633E+03  0.00000000000E+00 0.  1.
         21   -1    0    0  502  503 -0.00000000000E+00 -0.00000000000E+00 -0.34687436527E+03  0.34687436527E+03  0.00000000000E+00 0.  1.
    9000007    1    1    2  501    0 -0.14340503396E+03 -0.28295845634E+03  0.25368533549E+03  0.57007608372E+03  0.40000000000E+03 0.  1.
   -9000007    1    1    2    0  503  0.14340503396E+03  0.28295845634E+03  0.15665687557E+03  0.53401485789E+03  0.40000000000E+03 0.  1.
<mgrwt>
<rscale>  2 0.51051983E+03</rscale>
<asrwt>0</asrwt>
<pdfrwt beam="1">  1       21 0.11649486E+00 0.51051983E+03</pdfrwt>
<pdfrwt beam="2">  1       21 0.53365287E-01 0.51051983E+03</pdfrwt>
<totfact> 0.15834256E+03</totfact>
</mgrwt>
</event>
<event>
 4    1  0.4758602E-002  0.4432427E+03  0.7818608E-02  0.1029757E+00
         21   -1    0    0  501  502  0.00000000000E+00  0.00000000000E+00  0.53235679118E+03  0.53235679118E+03  0.00000000000E+00 0. -1.
         21   -1    0    0  502  503 -0.00000000000E+00 -0.00000000000E+00 -0.39616239494E+03  0.39616239494E+03  0.00000000000E+00 0. -1.
    9000007    1    1    2  501    0  0.14229990204E+03  0.12733749985E+03  0.18955932729E+03  0.48207555378E+03  0.40000000000E+03 0. -1.
   -9000007    1    1    2    0  503 -0.14229990204E+03 -0.12733749985E+03 -0.53364931055E+02  0.44644363234E+03  0.40000000000E+03 0. -1.
<mgrwt>
<rscale>  2 0.44324271E+03</rscale>
<asrwt>0</asrwt>
<pdfrwt beam="1">  1       21 0.81901045E-01 0.44324271E+03</pdfrwt>
<pdfrwt beam="2">  1       21 0.60948061E-01 0.44324271E+03</pdfrwt>
<totfact> 0.28484271E+03</totfact>
</mgrwt>
</event>
<event>
 4    1  0.4758602E-002  0.4317995E+03  0.7818608E-02  0.1033293E+00
         21   -1    0    0  503  502  0.00000000000E+00  0.00000000000E+00  0.11010154689E+04  0.11010154689E+04  0.00000000000E+00 0. -1.
         21   -1    0    0  501  503 -0.00000000000E+00 -0.00000000000E+00 -0.37102143067E+03  0.37102143067E+03  0.00000000000E+00 0. -1.
    9000007    1    1    2  501    0 -0.23738384480E+02 -0.16089529095E+03 -0.17764999888E+03  0.46691576076E+03  0.40000000000E+03 0. -1.
   -9000007    1    1    2    0  502  0.23738384480E+02  0.16089529095E+03  0.90764403708E+03  0.10051211388E+04  0.40000000000E+03 0. -1.
<mgrwt>
<rscale>  2 0.43179950E+03</rscale>
<asrwt>0</asrwt>
<pdfrwt beam="1">  1       21 0.16938699E+00 0.43179950E+03</pdfrwt>
<pdfrwt beam="2">  1       21 0.57080221E-01 0.43179950E+03</pdfrwt>
<totfact> 0.52034662E+02</totfact>
</mgrwt>
</event>
<event>
 4    1  0.4758602E-002  0.6103521E+03  0.7818608E-02  0.9884159E-01
         21   -1    0    0  501  502  0.00000000000E+00  0.00000000000E+00  0.56028883590E+03  0.56028883590E+03  0.00000000000E+00 0.  1.
         21   -1    0    0  502  503 -0.00000000000E+00 -0.00000000000E+00 -0.78162306195E+03  0.78162306195E+03  0.00000000000E+00 0. -1.
    9000007    1    1    2  501    0 -0.43391126671E+03  0.15572631984E+03  0.14862829197E+03  0.62818790441E+03  0.40000000000E+03 0. -1.
   -9000007    1    1    2    0  503  0.43391126671E+03 -0.15572631984E+03 -0.36996251803E+03  0.71372399344E+03  0.40000000000E+03 0. -1.
<mgrwt>
<rscale>  2 0.61035209E+03</rscale>
<asrwt>0</asrwt>
<pdfrwt beam="1">  1       21 0.86198283E-01 0.61035209E+03</pdfrwt>
<pdfrwt beam="2">  1       21 0.12024970E+00 0.61035209E+03</pdfrwt>
<totfact> 0.47960271E+02</totfact>
</mgrwt>
</event>
<event>
 4    1  0.4758602E-002  0.6285609E+03  0.7818608E-02  0.9847861E-01
         21   -1    0    0  501  502  0.00000000000E+00  0.00000000000E+00  0.24327945490E+04  0.24327945490E+04  0.00000000000E+00 0.  1.
         21   -1    0    0  502  503 -0.00000000000E+00 -0.00000000000E+00 -0.16389273423E+03  0.16389273423E+03  0.00000000000E+00 0.  1.
    9000007    1    1    2  501    0 -0.45063832144E+03  0.17892420915E+03  0.10105924965E+04  0.11901201466E+04  0.40000000000E+03 0.  1.
   -9000007    1    1    2    0  503  0.45063832144E+03 -0.17892420915E+03  0.12583093183E+04  0.14065671366E+04  0.40000000000E+03 0.  1.
<mgrwt>
<rscale>  2 0.62856087E+03</rscale>
<asrwt>0</asrwt>
<pdfrwt beam="1">  1       21 0.37427606E+00 0.62856087E+03</pdfrwt>
<pdfrwt beam="2">  1       21 0.25214269E-01 0.62856087E+03</pdfrwt>
<totfact> 0.12870851E+02</totfact>
</mgrwt>
</event>
<event>
 4    1  0.4758602E-002  0.4913295E+03  0.7818608E-02  0.1016067E+00
         21   -1    0    0  503  502  0.00000000000E+00  0.00000000000E+00  0.70556224054E+02  0.70556224054E+02  0.00000000000E+00 0. -1.
         21   -1    0    0  501  503 -0.00000000000E+00 -0.00000000000E+00 -0.34717300620E+04  0.34717300620E+04  0.00000000000E+00 0. -1.
    9000007    1    1    2  501    0  0.22017721527E+03  0.18145717727E+03 -0.14874438513E+04  0.15664909588E+04  0.40000000000E+03 0. -1.
   -9000007    1    1    2    0  502 -0.22017721527E+03 -0.18145717727E+03 -0.19137299866E+04  0.19757953272E+04  0.40000000000E+03 0. -1.
<mgrwt>
<rscale>  2 0.49132954E+03</rscale>
<asrwt>0</asrwt>
<pdfrwt beam="1">  1       21 0.10854799E-01 0.49132954E+03</pdfrwt>
<pdfrwt beam="2">  1       21 0.53411255E+00 0.49132954E+03</pdfrwt>
<totfact> 0.54754083E+01</totfact>
</mgrwt>
</event>
<event>
 4    1  0.4758602E-002  0.6082701E+03  0.7818608E-02  0.9888395E-01
         21   -1    0    0  501  502  0.00000000000E+00  0.00000000000E+00  0.95160228032E+03  0.95160228032E+03  0.00000000000E+00 0. -1.
         21   -1    0    0  502  503 -0.00000000000E+00 -0.00000000000E+00 -0.92486127407E+03  0.92486127407E+03  0.00000000000E+00 0.  1.
    9000007    1    1    2  501    0  0.19176571309E+03 -0.41619523712E+03  0.72766116445E+03  0.94841095226E+03  0.40000000000E+03 0. -1.
   -9000007    1    1    2    0  503 -0.19176571309E+03  0.41619523712E+03 -0.70092015821E+03  0.92805260212E+03  0.40000000000E+03 0.  1.
<mgrwt>
<rscale>  2 0.60827014E+03</rscale>
<asrwt>0</asrwt>
<pdfrwt beam="1">  1       21 0.14640035E+00 0.60827014E+03</pdfrwt>
<pdfrwt beam="2">  1       21 0.14228635E+00 0.60827014E+03</pdfrwt>
<totfact> 0.80927284E+01</totfact>
</mgrwt>
</event>
<event>
 4    1  0.4758602E-002  0.5295262E+03  0.7818608E-02  0.1006347E+00
         21   -1    0    0  501  502  0.00000000000E+00  0.00000000000E+00  0.91053841971E+03  0.91053841971E+03  0.00000000000E+00 0. -1.
         21   -1    0    0  502  503 -0.00000000000E+00 -0.00000000000E+00 -0.44862215134E+03  0.44862215134E+03  0.00000000000E+00 0.  1.
    9000007    1    1    2  501    0 -0.15016821306E+03  0.31280584916E+03  0.61150522286E+03  0.80891076706E+03  0.40000000000E+03 0.  1.
   -9000007    1    1    2    0  503  0.15016821306E+03 -0.31280584916E+03 -0.14958895449E+03  0.55024980398E+03  0.40000000000E+03 0.  1.
<mgrwt>
<rscale>  2 0.52952620E+03</rscale>
<asrwt>0</asrwt>
<pdfrwt beam="1">  1       21 0.14008283E+00 0.52952620E+03</pdfrwt>
<pdfrwt beam="2">  1       21 0.69018793E-01 0.52952620E+03</pdfrwt>
<totfact> 0.55279891E+02</totfact>
</mgrwt>
</event>
<event>
 4    1  0.4758602E-002  0.4220233E+03  0.7818608E-02  0.1036410E+00
         21   -1    0    0  503  502  0.00000000000E+00  0.00000000000E+00  0.67928950107E+03  0.67928950107E+03  0.00000000000E+00 0. -1.
         21   -1    0    0  501  503 -0.00000000000E+00 -0.00000000000E+00 -0.36032462900E+03  0.36032462900E+03  0.00000000000E+00 0. -1.
    9000007    1    1    2  501    0  0.12699178185E+03  0.44460889873E+02 -0.11178885924E+03  0.43657809432E+03  0.40000000000E+03 0. -1.
   -9000007    1    1    2    0  502 -0.12699178185E+03 -0.44460889873E+02  0.43075373131E+03  0.60303603576E+03  0.40000000000E+03 0. -1.
<mgrwt>
<rscale>  2 0.42202332E+03</rscale>
<asrwt>0</asrwt>
<pdfrwt beam="1">  1       21 0.10450608E+00 0.42202332E+03</pdfrwt>
<pdfrwt beam="2">  1       21 0.55434559E-01 0.42202332E+03</pdfrwt>
<totfact> 0.19747811E+03</totfact>
</mgrwt>
</event>
<event>
 4    1  0.4758602E-002  0.4002850E+03  0.7818608E-02  0.1043681E+00
         21   -1    0    0  503  502  0.00000000000E+00  0.00000000000E+00  0.12840168353E+04  0.12840168353E+04  0.00000000000E+00 0. -1.
         21   -1    0    0  501  503 -0.00000000000E+00 -0.00000000000E+00 -0.87315148234E+03  0.87315148234E+03  0.00000000000E+00 0. -1.
    9000007    1    1    2  501    0  0.13352474509E+02  0.70573937371E+01 -0.79310841049E+03  0.88839689676E+03  0.40000000000E+03 0. -1.
   -9000007    1    1    2    0  502 -0.13352474509E+02 -0.70573937371E+01  0.12039737634E+04  0.12687714208E+04  0.40000000000E+03 0. -1.
<mgrwt>
<rscale>  2 0.40028502E+03</rscale>
<asrwt>0</asrwt>
<pdfrwt beam="1">  1       21 0.19754105E+00 0.40028502E+03</pdfrwt>
<pdfrwt beam="2">  1       21 0.13433100E+00 0.40028502E+03</pdfrwt>
<totfact> 0.44645001E+01</totfact>
</mgrwt>
</event>
<event>
 4    1  0.4758602E-002  0.4512763E+03  0.7818608E-02  0.1027342E+00
         21   -1    0    0  501  502  0.00000000000E+00  0.00000000000E+00  0.22744439439E+04  0.22744439439E+04  0.00000000000E+00 0.  1.
         21   -1    0    0  502  503 -0.00000000000E+00 -0.00000000000E+00 -0.45159224347E+03  0.45159224347E+03  0.00000000000E+00 0.  1.
    9000007    1    1    2  501    0 -0.20471655926E+03  0.41730635768E+02  0.21318615440E+04  0.21791016402E+04  0.40000000000E+03 0.  1.
   -9000007    1    1    2    0  503  0.20471655926E+03 -0.41730635768E+02 -0.30900984348E+03  0.54693454724E+03  0.40000000000E+03 0.  1.
<mgrwt>
<rscale>  2 0.45127632E+03</rscale>
<asrwt>0</asrwt>
<pdfrwt beam="1">  1       21 0.34991445E+00 0.45127632E+03</pdfrwt>
<pdfrwt beam="2">  1       21 0.69475731E-01 0.45127632E+03</pdfrwt>
<totfact> 0.24397138E+01</totfact>
</mgrwt>
</event>
<event>
 4    1  0.4758602E-002  0.5424072E+03  0.7818608E-02  0.1003267E+00
         21   -1    0    0  501  502  0.00000000000E+00  0.00000000000E+00  0.14106986898E+03  0.14106986898E+03  0.00000000000E+00 0.  1.
         21   -1    0    0  502  503 -0.00000000000E+00 -0.00000000000E+00 -0.22853884834E+04  0.22853884834E+04  0.00000000000E+00 0.  1.
    9000007    1    1    2  501    0 -0.36411512799E+03  0.40320156902E+02 -0.71338331805E+03  0.89617035209E+03  0.40000000000E+03 0.  1.
   -9000007    1    1    2    0  503  0.36411512799E+03 -0.40320156902E+02 -0.14309352964E+04  0.15302880003E+04  0.40000000000E+03 0.  1.
<mgrwt>
<rscale>  2 0.54240717E+03</rscale>
<asrwt>0</asrwt>
<pdfrwt beam="1">  1       21 0.21703058E-01 0.54240717E+03</pdfrwt>
<pdfrwt beam="2">  1       21 0.35159821E+00 0.54240717E+03</pdfrwt>
<totfact> 0.24916100E+02</totfact>
</mgrwt>
</event>
<event>
 4    1  0.4758602E-002  0.4627459E+03  0.7818608E-02  0.1023988E+00
         21   -1    0    0  503  502  0.00000000000E+00  0.00000000000E+00  0.17196240755E+03  0.17196240755E+03  0.00000000000E+00 0. -1.
         21   -1    0    0  501  503 -0.00000000000E+00 -0.00000000000E+00 -0.14093597855E+04  0.14093597855E+04  0.00000000000E+00 0.  1.
    9000007    1    1    2  501    0  0.19223098677E+03 -0.13107621008E+03 -0.88851339814E+03  0.10017932840E+04  0.40000000000E+03 0. -1.
   -9000007    1    1    2    0  502 -0.19223098677E+03  0.13107621008E+03 -0.34888397985E+03  0.57952890913E+03  0.40000000000E+03 0. -1.
<mgrwt>
<rscale>  2 0.46274585E+03</rscale>
<asrwt>0</asrwt>
<pdfrwt beam="1">  1       21 0.26455755E-01 0.46274585E+03</pdfrwt>
<pdfrwt beam="2">  1       21 0.21682458E+00 0.46274585E+03</pdfrwt>
<totfact> 0.11845426E+03</totfact>
</mgrwt>
</event>
<event>
 4    1  0.4758602E-002  0.4425393E+03  0.7818608E-02  0.1029971E+00
         21   -1    0    0  503  502  0.00000000000E+00  0.00000000000E+00  0.43376089642E+03  0.43376089642E+03  0.00000000000E+00 0.  1.
         21   -1    0    0  501  503 -0.00000000000E+00 -0.00000000000E+00 -0.48495470184E+03  0.48495470184E+03  0.00000000000E+00 0.  1.
    9000007    1    1    2  501    0 -0.16215108101E+03  0.97714142047E+02 -0.14625578163E+03  0.46608130223E+03  0.40000000000E+03 0.  1.
   -9000007    1    1    2    0  502  0.16215108101E+03 -0.97714142047E+02  0.95061976205E+02  0.45263429604E+03  0.40000000000E+03 0.  1.
<mgrwt>
<rscale>  2 0.44253929E+03</rscale>
<asrwt>0</asrwt>
<pdfrwt beam="1">  1       21 0.66732446E-01 0.44253929E+03</pdfrwt>
<pdfrwt beam="2">  1       21 0.74608415E-01 0.44253929E+03</pdfrwt>
<totfact> 0.28882569E+03</totfact>
</mgrwt>
</event>
<event>
 4    1  0.4758602E-002  0.4744749E+03  0.7818608E-02  0.1020665E+00
         21   -1    0    0  501  502  0.00000000000E+00  0.00000000000E+00  0.29075165147E+03  0.29075165147E+03  0.00000000000E+00 0. -1.
         21   -1    0    0  502  503 -0.00000000000E+00 -0.00000000000E+00 -0.77875728817E+03  0.77875728817E+03  0.00000000000E+00 0.  1.
    9000007    1    1    2  501    0 -0.12660864610E+03 -0.22157781633E+03 -0.20350687533E+03  0.51627659860E+03  0.40000000000E+03 0. -1.
   -9000007    1    1    2    0  503  0.12660864610E+03  0.22157781633E+03 -0.28449876136E+03  0.55323234104E+03  0.40000000000E+03 0.  1.
<mgrwt>
<rscale>  2 0.47447495E+03</rscale>
<asrwt>0</asrwt>
<pdfrwt beam="1">  1       21 0.44731023E-01 0.47447495E+03</pdfrwt>
<pdfrwt beam="2">  1       21 0.11980881E+00 0.47447495E+03</pdfrwt>
<totfact> 0.21731468E+03</totfact>
</mgrwt>
</event>
<event>
 4    1  0.4758602E-002  0.4008043E+03  0.7818608E-02  0.1043502E+00
         21   -1    0    0  501  502  0.00000000000E+00  0.00000000000E+00  0.25405972258E+03  0.25405972258E+03  0.00000000000E+00 0. -1.
         21   -1    0    0  502  503 -0.00000000000E+00 -0.00000000000E+00 -0.70998753128E+03  0.70998753128E+03  0.00000000000E+00 0. -1.
    9000007    1    1    2  501    0  0.12217166086E+02 -0.22243829058E+02 -0.68524489745E+02  0.40661978896E+03  0.40000000000E+03 0. -1.
   -9000007    1    1    2    0  503 -0.12217166086E+02  0.22243829058E+02 -0.38740331896E+03  0.55742746489E+03  0.40000000000E+03 0. -1.
<mgrwt>
<rscale>  2 0.40080425E+03</rscale>
<asrwt>0</asrwt>
<pdfrwt beam="1">  1       21 0.39086112E-01 0.40080425E+03</pdfrwt>
<pdfrwt beam="2">  1       21 0.10922885E+00 0.40080425E+03</pdfrwt>
<totfact> 0.37230977E+03</totfact>
</mgrwt>
</event>
<event>
 4    1  0.4758602E-002  0.4558679E+03  0.7818608E-02  0.1025986E+00
         21   -1    0    0  501  502  0.00000000000E+00  0.00000000000E+00  0.34821626360E+03  0.34821626360E+03  0.00000000000E+00 0.  1.
         21   -1    0    0  502  503 -0.00000000000E+00 -0.00000000000E+00 -0.60035636852E+03  0.60035636852E+03  0.00000000000E+00 0.  1.
    9000007    1    1    2  501    0  0.15517309849E+03  0.15406777830E+03 -0.16257242182E+03  0.48398901138E+03  0.40000000000E+03 0.  1.
   -9000007    1    1    2    0  503 -0.15517309849E+03 -0.15406777830E+03 -0.89567683096E+02  0.46458362074E+03  0.40000000000E+03 0.  1.
<mgrwt>
<rscale>  2 0.45586793E+03</rscale>
<asrwt>0</asrwt>
<pdfrwt beam="1">  1       21 0.53571734E-01 0.45586793E+03</pdfrwt>
<pdfrwt beam="2">  1       21 0.92362516E-01 0.45586793E+03</pdfrwt>
<totfact> 0.28290288E+03</totfact>
</mgrwt>
</event>
<event>
 4    1  0.4758602E-002  0.4101324E+03  0.7818608E-02  0.1040327E+00
         21   -1    0    0  501  502  0.00000000000E+00  0.00000000000E+00  0.27980700339E+03  0.27980700339E+03  0.00000000000E+00 0. -1.
         21   -1    0    0  502  503 -0.00000000000E+00 -0.00000000000E+00 -0.60423191729E+03  0.60423191729E+03  0.00000000000E+00 0. -1.
    9000007    1    1    2  501    0  0.86219330175E+02 -0.27835114754E+02 -0.13069161714E+03  0.43045193146E+03  0.40000000000E+03 0. -1.
   -9000007    1    1    2    0  503 -0.86219330175E+02  0.27835114754E+02 -0.19373329676E+03  0.45358698921E+03  0.40000000000E+03 0. -1.
<mgrwt>
<rscale>  2 0.41013238E+03</rscale>
<asrwt>0</asrwt>
<pdfrwt beam="1">  1       21 0.43047232E-01 0.41013238E+03</pdfrwt>
<pdfrwt beam="2">  1       21 0.92958756E-01 0.41013238E+03</pdfrwt>
<totfact> 0.44965596E+03</totfact>
</mgrwt>
</event>
<event>
 4    1  0.4758602E-002  0.4675931E+03  0.7818608E-02  0.1022602E+00
         21   -1    0    0  503  502  0.00000000000E+00  0.00000000000E+00  0.20632936708E+04  0.20632936708E+04  0.00000000000E+00 0.  1.
         21   -1    0    0  501  503 -0.00000000000E+00 -0.00000000000E+00 -0.11182810001E+03  0.11182810001E+03  0.00000000000E+00 0.  1.
    9000007    1    1    2  501    0  0.19210930040E+03 -0.14743571394E+03  0.72677392959E+03  0.86420114428E+03  0.40000000000E+03 0.  1.
   -9000007    1    1    2    0  502 -0.19210930040E+03  0.14743571394E+03  0.12246916413E+04  0.13109206266E+04  0.40000000000E+03 0.  1.
<mgrwt>
<rscale>  2 0.46759306E+03</rscale>
<asrwt>0</asrwt>
<pdfrwt beam="1">  1       21 0.31742977E+00 0.46759306E+03</pdfrwt>
<pdfrwt beam="2">  1       21 0.17204325E-01 0.46759306E+03</pdfrwt>
<totfact> 0.65209427E+02</totfact>
</mgrwt>
</event>
<event>
 4    1  0.4758602E-002  0.5172169E+03  0.7818608E-02  0.1009380E+00
         21   -1    0    0  503  502  0.00000000000E+00  0.00000000000E+00  0.51479053198E+03  0.51479053198E+03  0.00000000000E+00 0.  1.
         21   -1    0    0  501  503 -0.00000000000E+00 -0.00000000000E+00 -0.57440633958E+03  0.57440633958E+03  0.00000000000E+00 0.  1.
    9000007    1    1    2  501    0 -0.18476249630E+03  0.27088040193E+03 -0.19794553927E+03  0.55380123574E+03  0.40000000000E+03 0.  1.
   -9000007    1    1    2    0  502  0.18476249630E+03 -0.27088040193E+03  0.13832973168E+03  0.53539563582E+03  0.40000000000E+03 0.  1.
<mgrwt>
<rscale>  2 0.51721695E+03</rscale>
<asrwt>0</asrwt>
<pdfrwt beam="1">  1       21 0.79198543E-01 0.51721695E+03</pdfrwt>
<pdfrwt beam="2">  1       21 0.88370206E-01 0.51721695E+03</pdfrwt>
<totfact> 0.12870044E+03</totfact>
</mgrwt>
</event>
<event>
 4    1  0.4758602E-002  0.4222773E+03  0.7818608E-02  0.1036328E+00
         21   -1    0    0  503  502  0.00000000000E+00  0.00000000000E+00  0.22509898282E+03  0.22509898282E+03  0.00000000000E+00 0.  1.
         21   -1    0    0  501  503 -0.00000000000E+00 -0.00000000000E+00 -0.95228371668E+03  0.95228371668E+03  0.00000000000E+00 0.  1.
    9000007    1    1    2  501    0  0.97737361501E+02 -0.93624216542E+02 -0.60497730175E+03  0.73777748772E+03  0.40000000000E+03 0.  1.
   -9000007    1    1    2    0  502 -0.97737361501E+02  0.93624216542E+02 -0.12220743211E+03  0.43960521178E+03  0.40000000000E+03 0.  1.
<mgrwt>
<rscale>  2 0.42227726E+03</rscale>
<asrwt>0</asrwt>
<pdfrwt beam="1">  1       21 0.34630612E-01 0.42227726E+03</pdfrwt>
<pdfrwt beam="2">  1       21 0.14650519E+00 0.42227726E+03</pdfrwt>
<totfact> 0.22178641E+03</totfact>
</mgrwt>
</event>
<event>
 4    1  0.4758602E-002  0.7401107E+03  0.7818608E-02  0.9650994E-01
         21   -1    0    0  501  502  0.00000000000E+00  0.00000000000E+00  0.69018821631E+03  0.69018821631E+03  0.00000000000E+00 0.  1.
         21   -1    0    0  502  503 -0.00000000000E+00 -0.00000000000E+00 -0.12913526090E+04  0.12913526090E+04  0.00000000000E+00 0. -1.
    9000007    1    1    2  501    0  0.61491076014E+03 -0.98227246170E+02  0.31450703131E+03  0.80416323441E+03  0.40000000000E+03 0.  1.
   -9000007    1    1    2    0  503 -0.61491076014E+03  0.98227246170E+02 -0.91567142399E+03  0.11773775909E+04  0.40000000000E+03 0. -1.
<mgrwt>
<rscale>  2 0.74011069E+03</rscale>
<asrwt>0</asrwt>
<pdfrwt beam="1">  1       21 0.10618280E+00 0.74011069E+03</pdfrwt>
<pdfrwt beam="2">  1       21 0.19866963E+00 0.74011069E+03</pdfrwt>
<totfact> 0.67710764E+01</totfact>
</mgrwt>
</event>
<event>
 4    1  0.4758602E-002  0.4547856E+03  0.7818608E-02  0.1026304E+00
         21   -1    0    0  501  502  0.00000000000E+00  0.00000000000E+00  0.11752072849E+04  0.11752072849E+04  0.00000000000E+00 0. -1.
         21   -1    0    0  502  503 -0.00000000000E+00 -0.00000000000E+00 -0.66248115762E+03  0.66248115762E+03  0.00000000000E+00 0. -1.
    9000007    1    1    2  501    0 -0.12138731697E+03 -0.17915094188E+03  0.10437543774E+04  0.11385311331E+04  0.40000000000E+03 0. -1.
   -9000007    1    1    2    0  503  0.12138731697E+03  0.17915094188E+03 -0.53102825020E+03  0.69915730934E+03  0.40000000000E+03 0. -1.
<mgrwt>
<rscale>  2 0.45478560E+03</rscale>
<asrwt>0</asrwt>
<pdfrwt beam="1">  1       21 0.18080112E+00 0.45478560E+03</pdfrwt>
<pdfrwt beam="2">  1       21 0.10192018E+00 0.45478560E+03</pdfrwt>
<totfact> 0.11268978E+02</totfact>
</mgrwt>
</event>
<event>
 4    1  0.4758602E-002  0.5069651E+03  0.7818608E-02  0.1011977E+00
         21   -1    0    0  503  502  0.00000000000E+00  0.00000000000E+00  0.67561091427E+03  0.67561091427E+03  0.00000000000E+00 0. -1.
         21   -1    0    0  501  503 -0.00000000000E+00 -0.00000000000E+00 -0.71051832740E+03  0.71051832740E+03  0.00000000000E+00 0. -1.
    9000007    1    1    2  501    0 -0.15364422443E+03 -0.27093732161E+03 -0.48985384060E+03  0.70496125078E+03  0.40000000000E+03 0. -1.
   -9000007    1    1    2    0  502  0.15364422443E+03  0.27093732161E+03  0.45494642747E+03  0.68116799089E+03  0.40000000000E+03 0. -1.
<mgrwt>
<rscale>  2 0.50696507E+03</rscale>
<asrwt>0</asrwt>
<pdfrwt beam="1">  1       21 0.10394014E+00 0.50696507E+03</pdfrwt>
<pdfrwt beam="2">  1       21 0.10931051E+00 0.50696507E+03</pdfrwt>
<totfact> 0.40329766E+02</totfact>
</mgrwt>
</event>
<event>
 4    1  0.4758602E-002  0.4167554E+03  0.7818608E-02  0.1038127E+00
         21   -1    0    0  503  502  0.00000000000E+00  0.00000000000E+00  0.18363599351E+03  0.18363599351E+03  0.00000000000E+00 0. -1.
         21   -1    0    0  501  503 -0.00000000000E+00 -0.00000000000E+00 -0.99562978337E+03  0.99562978337E+03  0.00000000000E+00 0. -1.
    9000007    1    1    2  501    0 -0.11419803327E+03  0.25375436631E+02 -0.27410275550E+03  0.49881602235E+03  0.40000000000E+03 0. -1.
   -9000007    1    1    2    0  502  0.11419803327E+03 -0.25375436631E+02 -0.53789103437E+03  0.68044975453E+03  0.40000000000E+03 0. -1.
<mgrwt>
<rscale>  2 0.41675545E+03</rscale>
<asrwt>0</asrwt>
<pdfrwt beam="1">  1       21 0.28251692E-01 0.41675545E+03</pdfrwt>
<pdfrwt beam="2">  1       21 0.15317381E+00 0.41675545E+03</pdfrwt>
<totfact> 0.29571038E+03</totfact>
</mgrwt>
</event>
<event>
 4    1  0.4758602E-002  0.4892057E+03  0.7818608E-02  0.1016635E+00
         21   -1    0    0  503  502  0.00000000000E+00  0.00000000000E+00  0.32522519188E+03  0.32522519188E+03  0.00000000000E+00 0. -1.
         21   -1    0    0  501  503 -0.00000000000E+00 -0.00000000000E+00 -0.73939410059E+03  0.73939410059E+03  0.00000000000E+00 0.  1.
    9000007    1    1    2  501    0 -0.24096406149E+03  0.14580302862E+03 -0.24385406743E+03  0.54661413107E+03  0.40000000000E+03 0.  1.
   -9000007    1    1    2    0  502  0.24096406149E+03 -0.14580302862E+03 -0.17031484128E+03  0.51800516141E+03  0.40000000000E+03 0.  1.
<mgrwt>
<rscale>  2 0.48920568E+03</rscale>
<asrwt>0</asrwt>
<pdfrwt beam="1">  1       21 0.50034646E-01 0.48920568E+03</pdfrwt>
<pdfrwt beam="2">  1       21 0.11375294E+00 0.48920568E+03</pdfrwt>
<totfact> 0.19440583E+03</totfact>
</mgrwt>
</event>
<event>
 4    1  0.4758602E-002  0.4458674E+03  0.7818608E-02  0.1028962E+00
         21   -1    0    0  503  502  0.00000000000E+00  0.00000000000E+00  0.93465357720E+03  0.93465357720E+03  0.00000000000E+00 0.  1.
         21   -1    0    0  501  503 -0.00000000000E+00 -0.00000000000E+00 -0.25083526790E+03  0.25083526790E+03  0.00000000000E+00 0.  1.
    9000007    1    1    2  501    0 -0.79051236709E+00  0.19696988098E+03  0.11077975015E+03  0.45942345605E+03  0.40000000000E+03 0.  1.
   -9000007    1    1    2    0  502  0.79051236709E+00 -0.19696988098E+03  0.57303855914E+03  0.72606538906E+03  0.40000000000E+03 0.  1.
<mgrwt>
<rscale>  2 0.44586742E+03</rscale>
<asrwt>0</asrwt>
<pdfrwt beam="1">  1       21 0.14379286E+00 0.44586742E+03</pdfrwt>
<pdfrwt beam="2">  1       21 0.38590042E-01 0.44586742E+03</pdfrwt>
<totfact> 0.18534149E+03</totfact>
</mgrwt>
</event>
<event>
 4    1  0.4758602E-002  0.4722800E+03  0.7818608E-02  0.1021279E+00
         21   -1    0    0  501  502  0.00000000000E+00  0.00000000000E+00  0.18239150052E+04  0.18239150052E+04  0.00000000000E+00 0.  1.
         21   -1    0    0  502  503 -0.00000000000E+00 -0.00000000000E+00 -0.15214642107E+03  0.15214642107E+03  0.00000000000E+00 0.  1.
    9000007    1    1    2  501    0 -0.12206073529E+03 -0.21943020338E+03  0.12735585317E+04  0.13583076864E+04  0.40000000000E+03 0.  1.
   -9000007    1    1    2    0  503  0.12206073529E+03  0.21943020338E+03  0.39821005237E+03  0.61775373982E+03  0.40000000000E+03 0.  1.
<mgrwt>
<rscale>  2 0.47228004E+03</rscale>
<asrwt>0</asrwt>
<pdfrwt beam="1">  1       21 0.28060229E+00 0.47228004E+03</pdfrwt>
<pdfrwt beam="2">  1       21 0.23407143E-01 0.47228004E+03</pdfrwt>
<totfact> 0.60318281E+02</totfact>
</mgrwt>
</event>
<event>
 4    1  0.4758602E-002  0.5068463E+03  0.7818608E-02  0.1012007E+00
         21   -1    0    0  503  502  0.00000000000E+00  0.00000000000E+00  0.16945110348E+03  0.16945110348E+03  0.00000000000E+00 0. -1.
         21   -1    0    0  501  503 -0.00000000000E+00 -0.00000000000E+00 -0.15329020273E+04  0.15329020273E+04  0.00000000000E+00 0.  1.
    9000007    1    1    2  501    0  0.10859501450E+03  0.29171962944E+03 -0.77102025157E+03  0.92269466657E+03  0.40000000000E+03 0.  1.
   -9000007    1    1    2    0  502 -0.10859501450E+03 -0.29171962944E+03 -0.59243067221E+03  0.77965846417E+03  0.40000000000E+03 0.  1.
<mgrwt>
<rscale>  2 0.50684635E+03</rscale>
<asrwt>0</asrwt>
<pdfrwt beam="1">  1       21 0.26069401E-01 0.50684635E+03</pdfrwt>
<pdfrwt beam="2">  1       21 0.23583108E+00 0.50684635E+03</pdfrwt>
<totfact> 0.90545172E+02</totfact>
</mgrwt>
</event>
<event>
 4    1  0.4758602E-002  0.4520685E+03  0.7818608E-02  0.1027107E+00
         21   -1    0    0  503  502  0.00000000000E+00  0.00000000000E+00  0.55684662630E+03  0.55684662630E+03  0.00000000000E+00 0.  1.
         21   -1    0    0  501  503 -0.00000000000E+00 -0.00000000000E+00 -0.13874372353E+04  0.13874372353E+04  0.00000000000E+00 0.  1.
    9000007    1    1    2  501    0 -0.11534847812E+03 -0.17624042171E+03 -0.12490051135E+04  0.13282995638E+04  0.40000000000E+03 0.  1.
   -9000007    1    1    2    0  502  0.11534847812E+03  0.17624042171E+03  0.41841450445E+03  0.61598429784E+03  0.40000000000E+03 0.  1.
<mgrwt>
<rscale>  2 0.45206853E+03</rscale>
<asrwt>0</asrwt>
<pdfrwt beam="1">  1       21 0.85668711E-01 0.45206853E+03</pdfrwt>
<pdfrwt beam="2">  1       21 0.21345188E+00 0.45206853E+03</pdfrwt>
<totfact> 0.10307259E+02</totfact>
</mgrwt>
</event>
<event>
 4    1  0.4758602E-002  0.4310833E+03  0.7818608E-02  0.1033518E+00
         21   -1    0    0  501  502  0.00000000000E+00  0.00000000000E+00  0.21478515203E+03  0.21478515203E+03  0.00000000000E+00 0. -1.
         21   -1    0    0  502  503 -0.00000000000E+00 -0.00000000000E+00 -0.10577667623E+04  0.10577667623E+04  0.00000000000E+00 0. -1.
    9000007    1    1    2  501    0  0.85687900961E+02 -0.13597925780E+03 -0.15001086381E+03  0.45643842321E+03  0.40000000000E+03 0. -1.
   -9000007    1    1    2    0  503 -0.85687900961E+02  0.13597925780E+03 -0.69297074644E+03  0.81611349110E+03  0.40000000000E+03 0. -1.
<mgrwt>
<rscale>  2 0.43108326E+03</rscale>
<asrwt>0</asrwt>
<pdfrwt beam="1">  1       21 0.33043870E-01 0.43108326E+03</pdfrwt>
<pdfrwt beam="2">  1       21 0.16273334E+00 0.43108326E+03</pdfrwt>
<totfact> 0.18207108E+03</totfact>
</mgrwt>
</event>
<event>
 4    1  0.4758602E-002  0.4583297E+03  0.7818608E-02  0.1025267E+00
         21   -1    0    0  501  502  0.00000000000E+00  0.00000000000E+00  0.15000592911E+03  0.15000592911E+03  0.00000000000E+00 0. -1.
         21   -1    0    0  502  503 -0.00000000000E+00 -0.00000000000E+00 -0.14029862346E+04  0.14029862346E+04  0.00000000000E+00 0. -1.
    9000007    1    1    2  501    0  0.13423335969E+03 -0.17901814048E+03 -0.65992366835E+03  0.80347080689E+03  0.40000000000E+03 0. -1.
   -9000007    1    1    2    0  503 -0.13423335969E+03  0.17901814048E+03 -0.59305663709E+03  0.74952135678E+03  0.40000000000E+03 0. -1.
<mgrwt>
<rscale>  2 0.45832967E+03</rscale>
<asrwt>0</asrwt>
<pdfrwt beam="1">  1       21 0.23077836E-01 0.45832967E+03</pdfrwt>
<pdfrwt beam="2">  1       21 0.21584403E+00 0.45832967E+03</pdfrwt>
<totfact> 0.15706871E+03</totfact>
</mgrwt>
</event>
<event>
 4    1  0.4758602E-002  0.4180746E+03  0.7818608E-02  0.1037695E+00
         21   -1    0    0  501  502  0.00000000000E+00  0.00000000000E+00  0.25095067607E+03  0.25095067607E+03  0.00000000000E+00 0. -1.
         21   -1    0    0  502  503 -0.00000000000E+00 -0.00000000000E+00 -0.74926320413E+03  0.74926320413E+03  0.00000000000E+00 0. -1.
    9000007    1    1    2  501    0  0.93642711153E+02 -0.77571849093E+02 -0.11643994571E+03  0.43398687778E+03  0.40000000000E+03 0.  1.
   -9000007    1    1    2    0  503 -0.93642711153E+02  0.77571849093E+02 -0.38187258235E+03  0.56622700243E+03  0.40000000000E+03 0.  1.
<mgrwt>
<rscale>  2 0.41807457E+03</rscale>
<asrwt>0</asrwt>
<pdfrwt beam="1">  1       21 0.38607797E-01 0.41807457E+03</pdfrwt>
<pdfrwt beam="2">  1       21 0.11527126E+00 0.41807457E+03</pdfrwt>
<totfact> 0.33176761E+03</totfact>
</mgrwt>
</event>
<event>
 4    1  0.4758602E-002  0.5258917E+03  0.7818608E-02  0.1007233E+00
         21   -1    0    0  501  502  0.00000000000E+00  0.00000000000E+00  0.25241616620E+03  0.25241616620E+03  0.00000000000E+00 0.  1.
         21   -1    0    0  502  503 -0.00000000000E+00 -0.00000000000E+00 -0.11083966970E+04  0.11083966970E+04  0.00000000000E+00 0.  1.
    9000007    1    1    2  501    0  0.23980813569E+03 -0.24301059341E+03 -0.50092982469E+03  0.72628698165E+03  0.40000000000E+03 0.  1.
   -9000007    1    1    2    0  503 -0.23980813569E+03  0.24301059341E+03 -0.35505070611E+03  0.63452588156E+03  0.40000000000E+03 0.  1.
<mgrwt>
<rscale>  2 0.52589171E+03</rscale>
<asrwt>0</asrwt>
<pdfrwt beam="1">  1       21 0.38833258E-01 0.52589171E+03</pdfrwt>
<pdfrwt beam="2">  1       21 0.17052256E+00 0.52589171E+03</pdfrwt>
<totfact> 0.11065111E+03</totfact>
</mgrwt>
</event>
<event>
 4    1  0.4758602E-002  0.5247621E+03  0.7818608E-02  0.1007510E+00
         21   -1    0    0  501  502  0.00000000000E+00  0.00000000000E+00  0.57346439583E+03  0.57346439583E+03  0.00000000000E+00 0.  1.
         21   -1    0    0  502  503 -0.00000000000E+00 -0.00000000000E+00 -0.50933421488E+03  0.50933421488E+03  0.00000000000E+00 0.  1.
    9000007    1    1    2  501    0 -0.33953916435E+03  0.94022669467E+01  0.16155876323E+03  0.54906873953E+03  0.40000000000E+03 0.  1.
   -9000007    1    1    2    0  503  0.33953916435E+03 -0.94022669467E+01 -0.97428582286E+02  0.53372987119E+03  0.40000000000E+03 0.  1.
<mgrwt>
<rscale>  2 0.52476209E+03</rscale>
<asrwt>0</asrwt>
<pdfrwt beam="1">  1       21 0.88225292E-01 0.52476209E+03</pdfrwt>
<pdfrwt beam="2">  1       21 0.78359110E-01 0.52476209E+03</pdfrwt>
<totfact> 0.13208648E+03</totfact>
</mgrwt>
</event>
<event>
 4    1  0.4758602E-002  0.4081536E+03  0.7818608E-02  0.1040992E+00
         21   -1    0    0  501  502  0.00000000000E+00  0.00000000000E+00  0.58676085471E+03  0.58676085471E+03  0.00000000000E+00 0.  1.
         21   -1    0    0  502  503 -0.00000000000E+00 -0.00000000000E+00 -0.32321024621E+03  0.32321024621E+03  0.00000000000E+00 0.  1.
    9000007    1    1    2  501    0 -0.22270207275E+02 -0.78060104964E+02  0.29042279475E+03  0.50093386972E+03  0.40000000000E+03 0. -1.
   -9000007    1    1    2    0  503  0.22270207275E+02  0.78060104964E+02 -0.26872186253E+02  0.40903723121E+03  0.40000000000E+03 0. -1.
<mgrwt>
<rscale>  2 0.40815358E+03</rscale>
<asrwt>0</asrwt>
<pdfrwt beam="1">  1       21 0.90270901E-01 0.40815358E+03</pdfrwt>
<pdfrwt beam="2">  1       21 0.49724653E-01 0.40815358E+03</pdfrwt>
<totfact> 0.35643584E+03</totfact>
</mgrwt>
</event>
<event>
 4    1  0.4758602E-002  0.5211865E+03  0.7818608E-02  0.1008392E+00
         21   -1    0    0  503  502  0.00000000000E+00  0.00000000000E+00  0.82983712262E+03  0.82983712262E+03  0.00000000000E+00 0.  1.
         21   -1    0    0  501  503 -0.00000000000E+00 -0.00000000000E+00 -0.33760220598E+03  0.33760220598E+03  0.00000000000E+00 0.  1.
    9000007    1    1    2  501    0  0.22185671876E+03 -0.24982985641E+03  0.14432587693E+03  0.54080062830E+03  0.40000000000E+03 0.  1.
   -9000007    1    1    2    0  502 -0.22185671876E+03  0.24982985641E+03  0.34790903971E+03  0.62663870031E+03  0.40000000000E+03 0.  1.
<mgrwt>
<rscale>  2 0.52118649E+03</rscale>
<asrwt>0</asrwt>
<pdfrwt beam="1">  1       21 0.12766725E+00 0.52118649E+03</pdfrwt>
<pdfrwt beam="2">  1       21 0.51938801E-01 0.52118649E+03</pdfrwt>
<totfact> 0.13224241E+03</totfact>
</mgrwt>
</event>
<event>
 4    1  0.4758602E-002  0.4690667E+03  0.7818608E-02  0.1022184E+00
         21   -1    0    0  503  502  0.00000000000E+00  0.00000000000E+00  0.17823297858E+03  0.17823297858E+03  0.00000000000E+00 0.  1.
         21   -1    0    0  501  503 -0.00000000000E+00 -0.00000000000E+00 -0.12442107995E+04  0.12442107995E+04  0.00000000000E+00 0.  1.
    9000007    1    1    2  501    0 -0.65747208694E+02  0.23601036746E+03 -0.59591270653E+03  0.75837691342E+03  0.40000000000E+03 0.  1.
   -9000007    1    1    2    0  502  0.65747208694E+02 -0.23601036746E+03 -0.47006511443E+03  0.66406686471E+03  0.40000000000E+03 0.  1.
<mgrwt>
<rscale>  2 0.46906672E+03</rscale>
<asrwt>0</asrwt>
<pdfrwt beam="1">  1       21 0.27420459E-01 0.46906672E+03</pdfrwt>
<pdfrwt beam="2">  1       21 0.19141704E+00 0.46906672E+03</pdfrwt>
<totfact> 0.16221403E+03</totfact>
</mgrwt>
</event>
<event>
 4    1  0.4758602E-002  0.4415606E+03  0.7818608E-02  0.1030269E+00
         21   -1    0    0  503  502  0.00000000000E+00  0.00000000000E+00  0.53944166976E+03  0.53944166976E+03  0.00000000000E+00 0. -1.
         21   -1    0    0  501  503 -0.00000000000E+00 -0.00000000000E+00 -0.42053651278E+03  0.42053651278E+03  0.00000000000E+00 0.  1.
    9000007    1    1    2  501    0 -0.12730008331E+03  0.13700515016E+03 -0.12048047457E+03  0.45770215985E+03  0.40000000000E+03 0. -1.
   -9000007    1    1    2    0  502  0.12730008331E+03 -0.13700515016E+03  0.23938563155E+03  0.50227602269E+03  0.40000000000E+03 0. -1.
<mgrwt>
<rscale>  2 0.44156055E+03</rscale>
<asrwt>0</asrwt>
<pdfrwt beam="1">  1       21 0.82991026E-01 0.44156055E+03</pdfrwt>
<pdfrwt beam="2">  1       21 0.64697925E-01 0.44156055E+03</pdfrwt>
<totfact> 0.24225675E+03</totfact>
</mgrwt>
</event>
<event>
 4    1  0.4758602E-002  0.4492892E+03  0.7818608E-02  0.1027934E+00
         21   -1    0    0  501  502  0.00000000000E+00  0.00000000000E+00  0.20441978203E+03  0.20441978203E+03  0.00000000000E+00 0. -1.
         21   -1    0    0  502  503 -0.00000000000E+00 -0.00000000000E+00 -0.10203113023E+04  0.10203113023E+04  0.00000000000E+00 0.  1.
    9000007    1    1    2  501    0  0.83268987178E+02  0.18688794057E+03 -0.51778971219E+03  0.68554140109E+03  0.40000000000E+03 0. -1.
   -9000007    1    1    2    0  503 -0.83268987178E+02 -0.18688794057E+03 -0.29810180811E+03  0.53918968328E+03  0.40000000000E+03 0. -1.
<mgrwt>
<rscale>  2 0.44928925E+03</rscale>
<asrwt>0</asrwt>
<pdfrwt beam="1">  1       21 0.31449197E-01 0.44928925E+03</pdfrwt>
<pdfrwt beam="2">  1       21 0.15697097E+00 0.44928925E+03</pdfrwt>
<totfact> 0.22059891E+03</totfact>
</mgrwt>
</event>
<event>
 4    1  0.4758602E-002  0.4798790E+03  0.7818608E-02  0.1019168E+00
         21   -1    0    0  501  502  0.00000000000E+00  0.00000000000E+00  0.10324294565E+04  0.10324294565E+04  0.00000000000E+00 0. -1.
         21   -1    0    0  502  503 -0.00000000000E+00 -0.00000000000E+00 -0.23872524493E+03  0.23872524493E+03  0.00000000000E+00 0. -1.
    9000007    1    1    2  501    0  0.19766862606E+03  0.17666638480E+03  0.55971404576E+03  0.73726773310E+03  0.40000000000E+03 0. -1.
   -9000007    1    1    2    0  503 -0.19766862606E+03 -0.17666638480E+03  0.23399016580E+03  0.53388696832E+03  0.40000000000E+03 0. -1.
<mgrwt>
<rscale>  2 0.47987904E+03</rscale>
<asrwt>0</asrwt>
<pdfrwt beam="1">  1       21 0.15883530E+00 0.47987904E+03</pdfrwt>
<pdfrwt beam="2">  1       21 0.36726961E-01 0.47987904E+03</pdfrwt>
<totfact> 0.15423353E+03</totfact>
</mgrwt>
</event>
<event>
 4    1  0.4758602E-002  0.4418064E+03  0.7818608E-02  0.1030194E+00
         21   -1    0    0  503  502  0.00000000000E+00  0.00000000000E+00  0.77727634828E+03  0.77727634828E+03  0.00000000000E+00 0. -1.
         21   -1    0    0  501  503 -0.00000000000E+00 -0.00000000000E+00 -0.25115227851E+03  0.25115227851E+03  0.00000000000E+00 0. -1.
    9000007    1    1    2  501    0  0.47899495283E+02  0.18137941839E+03  0.25761925704E+03  0.51142989418E+03  0.40000000000E+03 0.  1.
   -9000007    1    1    2    0  502 -0.47899495283E+02 -0.18137941839E+03  0.26850481273E+03  0.51699873261E+03  0.40000000000E+03 0.  1.
<mgrwt>
<rscale>  2 0.44180635E+03</rscale>
<asrwt>0</asrwt>
<pdfrwt beam="1">  1       21 0.11958098E+00 0.44180635E+03</pdfrwt>
<pdfrwt beam="2">  1       21 0.38638812E-01 0.44180635E+03</pdfrwt>
<totfact> 0.29933330E+03</totfact>
</mgrwt>
</event>
<event>
 4    1  0.4758602E-002  0.5145867E+03  0.7818608E-02  0.1010040E+00
         21   -1    0    0  501  502  0.00000000000E+00  0.00000000000E+00  0.13385317251E+04  0.13385317251E+04  0.00000000000E+00 0.  1.
         21   -1    0    0  502  503 -0.00000000000E+00 -0.00000000000E+00 -0.20256412888E+03  0.20256412888E+03  0.00000000000E+00 0. -1.
    9000007    1    1    2  501    0  0.27628096427E+03 -0.16872547065E+03  0.68580308417E+03  0.85739449842E+03  0.40000000000E+03 0.  1.
   -9000007    1    1    2    0  503 -0.27628096427E+03  0.16872547065E+03  0.45016451200E+03  0.68370135551E+03  0.40000000000E+03 0.  1.
<mgrwt>
<rscale>  2 0.51458668E+03</rscale>
<asrwt>0</asrwt>
<pdfrwt beam="1">  1       21 0.20592795E+00 0.51458668E+03</pdfrwt>
<pdfrwt beam="2">  1       21 0.31163713E-01 0.51458668E+03</pdfrwt>
<totfact> 0.98679302E+02</totfact>
</mgrwt>
</event>
<event>
 4    1  0.4758602E-002  0.4538605E+03  0.7818608E-02  0.1026577E+00
         21   -1    0    0  501  502  0.00000000000E+00  0.00000000000E+00  0.49099016885E+03  0.49099016885E+03  0.00000000000E+00 0. -1.
         21   -1    0    0  502  503 -0.00000000000E+00 -0.00000000000E+00 -0.66769666588E+03  0.66769666588E+03  0.00000000000E+00 0. -1.
    9000007    1    1    2  501    0 -0.18348829549E+03  0.11100169005E+03  0.26483859673E+03  0.52547960198E+03  0.40000000000E+03 0. -1.
   -9000007    1    1    2    0  503  0.18348829549E+03 -0.11100169005E+03 -0.44154509376E+03  0.63320723274E+03  0.40000000000E+03 0. -1.
<mgrwt>
<rscale>  2 0.45386047E+03</rscale>
<asrwt>0</asrwt>
<pdfrwt beam="1">  1       21 0.75536949E-01 0.45386047E+03</pdfrwt>
<pdfrwt beam="2">  1       21 0.10272256E+00 0.45386047E+03</pdfrwt>
<totfact> 0.10231048E+03</totfact>
</mgrwt>
</event>
<event>
 4    1  0.4758602E-002  0.5292021E+03  0.7818608E-02  0.1006426E+00
         21   -1    0    0  503  502  0.00000000000E+00  0.00000000000E+00  0.63080647783E+03  0.63080647783E+03  0.00000000000E+00 0. -1.
         21   -1    0    0  501  503 -0.00000000000E+00 -0.00000000000E+00 -0.45039446710E+03  0.45039446710E+03  0.00000000000E+00 0.  1.
    9000007    1    1    2  501    0 -0.31641166409E+03 -0.14120381565E+03  0.25606622081E+02  0.52982125082E+03  0.40000000000E+03 0. -1.
   -9000007    1    1    2    0  502  0.31641166409E+03  0.14120381565E+03  0.15480538865E+03  0.55137969411E+03  0.40000000000E+03 0. -1.
<mgrwt>
<rscale>  2 0.52920210E+03</rscale>
<asrwt>0</asrwt>
<pdfrwt beam="1">  1       21 0.97047150E-01 0.52920210E+03</pdfrwt>
<pdfrwt beam="2">  1       21 0.69291456E-01 0.52920210E+03</pdfrwt>
<totfact> 0.13901892E+03</totfact>
</mgrwt>
</event>
<event>
 4    1  0.4758602E-002  0.4632161E+03  0.7818608E-02  0.1023853E+00
         21   -1    0    0  501  502  0.00000000000E+00  0.00000000000E+00  0.13533653158E+04  0.13533653158E+04  0.00000000000E+00 0. -1.
         21   -1    0    0  502  503 -0.00000000000E+00 -0.00000000000E+00 -0.19847479886E+03  0.19847479886E+03  0.00000000000E+00 0.  1.
    9000007    1    1    2  501    0 -0.20794379077E+03  0.10643570841E+03  0.22941792658E+03  0.51691562675E+03  0.40000000000E+03 0.  1.
   -9000007    1    1    2    0  503  0.20794379077E+03 -0.10643570841E+03  0.92547259037E+03  0.10349244879E+04  0.40000000000E+03 0. -1.
<mgrwt>
<rscale>  2 0.46321613E+03</rscale>
<asrwt>0</asrwt>
<pdfrwt beam="1">  1       21 0.20821004E+00 0.46321613E+03</pdfrwt>
<pdfrwt beam="2">  1       21 0.30534585E-01 0.46321613E+03</pdfrwt>
<totfact> 0.10148418E+03</totfact>
</mgrwt>
</event>
<event>
 4    1  0.4758602E-002  0.4082691E+03  0.7818608E-02  0.1040953E+00
         21   -1    0    0  503  502  0.00000000000E+00  0.00000000000E+00  0.20564976062E+03  0.20564976062E+03  0.00000000000E+00 0.  1.
         21   -1    0    0  501  503 -0.00000000000E+00 -0.00000000000E+00 -0.10638894907E+04  0.10638894907E+04  0.00000000000E+00 0.  1.
    9000007    1    1    2  501    0 -0.34325275653E+01  0.81681788099E+02 -0.73889257145E+03  0.84418358720E+03  0.40000000000E+03 0.  1.
   -9000007    1    1    2    0  502  0.34325275653E+01 -0.81681788099E+02 -0.11934715866E+03  0.42535566416E+03  0.40000000000E+03 0.  1.
<mgrwt>
<rscale>  2 0.40826915E+03</rscale>
<asrwt>0</asrwt>
<pdfrwt beam="1">  1       21 0.31638425E-01 0.40826915E+03</pdfrwt>
<pdfrwt beam="2">  1       21 0.16367531E+00 0.40826915E+03</pdfrwt>
<totfact> 0.19737996E+03</totfact>
</mgrwt>
</event>
<event>
 4    1  0.4758602E-002  0.4932608E+03  0.7818608E-02  0.1015553E+00
         21   -1    0    0  501  502  0.00000000000E+00  0.00000000000E+00  0.77857970034E+03  0.77857970034E+03  0.00000000000E+00 0.  1.
         21   -1    0    0  502  503 -0.00000000000E+00 -0.00000000000E+00 -0.32683617158E+03  0.32683617158E+03  0.00000000000E+00 0. -1.
    9000007    1    1    2  501    0 -0.28316671248E+03  0.55882093367E+02  0.34162855521E+03  0.60001355414E+03  0.40000000000E+03 0. -1.
   -9000007    1    1    2    0  503  0.28316671248E+03 -0.55882093367E+02  0.11011497356E+03  0.50540231778E+03  0.40000000000E+03 0.  1.
<mgrwt>
<rscale>  2 0.49326078E+03</rscale>
<asrwt>0</asrwt>
<pdfrwt beam="1">  1       21 0.11978149E+00 0.49326078E+03</pdfrwt>
<pdfrwt beam="2">  1       21 0.50282488E-01 0.49326078E+03</pdfrwt>
<totfact> 0.16864958E+03</totfact>
</mgrwt>
</event>
<event>
 4    1  0.4758602E-002  0.4268346E+03  0.7818608E-02  0.1034865E+00
         21   -1    0    0  501  502  0.00000000000E+00  0.00000000000E+00  0.51963930662E+03  0.51963930662E+03  0.00000000000E+00 0. -1.
         21   -1    0    0  502  503 -0.00000000000E+00 -0.00000000000E+00 -0.47260951904E+03  0.47260951904E+03  0.00000000000E+00 0. -1.
    9000007    1    1    2  501    0  0.11862530445E+03  0.90087863949E+02  0.27558917257E+03  0.50807202061E+03  0.40000000000E+03 0. -1.
   -9000007    1    1    2    0  503 -0.11862530445E+03 -0.90087863949E+02 -0.22855938499E+03  0.48417680506E+03  0.40000000000E+03 0. -1.
<mgrwt>
<rscale>  2 0.42683461E+03</rscale>
<asrwt>0</asrwt>
<pdfrwt beam="1">  1       21 0.79944508E-01 0.42683461E+03</pdfrwt>
<pdfrwt beam="2">  1       21 0.72709157E-01 0.42683461E+03</pdfrwt>
<totfact> 0.20449616E+03</totfact>
</mgrwt>
</event>
<event>
 4    1  0.4758602E-002  0.4208935E+03  0.7818608E-02  0.1036776E+00
         21   -1    0    0  501  502  0.00000000000E+00  0.00000000000E+00  0.38877481699E+03  0.38877481699E+03  0.00000000000E+00 0. -1.
         21   -1    0    0  502  503 -0.00000000000E+00 -0.00000000000E+00 -0.12548341717E+04  0.12548341717E+04  0.00000000000E+00 0. -1.
    9000007    1    1    2  501    0  0.90161775872E+02  0.94985299156E+02  0.22280520484E+03  0.47622842438E+03  0.40000000000E+03 0. -1.
   -9000007    1    1    2    0  503 -0.90161775872E+02 -0.94985299156E+02 -0.10888645596E+04  0.11673805643E+04  0.40000000000E+03 0. -1.
<mgrwt>
<rscale>  2 0.42089352E+03</rscale>
<asrwt>0</asrwt>
<pdfrwt beam="1">  1       21 0.59811511E-01 0.42089352E+03</pdfrwt>
<pdfrwt beam="2">  1       21 0.19305141E+00 0.42089352E+03</pdfrwt>
<totfact> 0.32252069E+02</totfact>
</mgrwt>
</event>
<event>
 4    1  0.4758602E-002  0.6350848E+03  0.7818608E-02  0.9835176E-01
         21   -1    0    0  501  502  0.00000000000E+00  0.00000000000E+00  0.20790357039E+04  0.20790357039E+04  0.00000000000E+00 0.  1.
         21   -1    0    0  502  503 -0.00000000000E+00 -0.00000000000E+00 -0.31630648733E+03  0.31630648733E+03  0.00000000000E+00 0.  1.
    9000007    1    1    2  501    0 -0.41247203036E+03  0.27055417211E+03  0.16261110354E+04  0.17457290269E+04  0.40000000000E+03 0.  1.
   -9000007    1    1    2    0  503  0.41247203036E+03 -0.27055417211E+03  0.13661818120E+03  0.64961316437E+03  0.40000000000E+03 0.  1.
<mgrwt>
<rscale>  2 0.63508483E+03</rscale>
<asrwt>0</asrwt>
<pdfrwt beam="1">  1       21 0.31985164E+00 0.63508483E+03</pdfrwt>
<pdfrwt beam="2">  1       21 0.48662538E-01 0.63508483E+03</pdfrwt>
<totfact> 0.73023861E+01</totfact>
</mgrwt>
</event>
<event>
 4    1  0.4758602E-002  0.5875801E+03  0.7818608E-02  0.9931514E-01
         21   -1    0    0  503  502  0.00000000000E+00  0.00000000000E+00  0.17968527483E+03  0.17968527483E+03  0.00000000000E+00 0.  1.
         21   -1    0    0  501  503 -0.00000000000E+00 -0.00000000000E+00 -0.20317866873E+04  0.20317866873E+04  0.00000000000E+00 0. -1.
    9000007    1    1    2  501    0 -0.20398712997E+03 -0.37899816548E+03 -0.11837641697E+04  0.13215702661E+04  0.40000000000E+03 0. -1.
   -9000007    1    1    2    0  502  0.20398712997E+03  0.37899816548E+03 -0.66833724277E+03  0.88990169609E+03  0.40000000000E+03 0.  1.
<mgrwt>
<rscale>  2 0.58758009E+03</rscale>
<asrwt>0</asrwt>
<pdfrwt beam="1">  1       21 0.27643889E-01 0.58758009E+03</pdfrwt>
<pdfrwt beam="2">  1       21 0.31258256E+00 0.58758009E+03</pdfrwt>
<totfact> 0.26367694E+02</totfact>
</mgrwt>
</event>
<event>
 4    1  0.4758602E-002  0.4665978E+03  0.7818608E-02  0.1022885E+00
         21   -1    0    0  503  502  0.00000000000E+00  0.00000000000E+00  0.13039524196E+04  0.13039524196E+04  0.00000000000E+00 0. -1.
         21   -1    0    0  501  503 -0.00000000000E+00 -0.00000000000E+00 -0.17996249803E+03  0.17996249803E+03  0.00000000000E+00 0.  1.
    9000007    1    1    2  501    0 -0.17652025226E+03  0.16295439769E+03  0.36259312120E+03  0.59092072795E+03  0.40000000000E+03 0. -1.
   -9000007    1    1    2    0  502  0.17652025226E+03 -0.16295439769E+03  0.76139680040E+03  0.89299418970E+03  0.40000000000E+03 0.  1.
<mgrwt>
<rscale>  2 0.46659783E+03</rscale>
<asrwt>0</asrwt>
<pdfrwt beam="1">  1       21 0.20060806E+00 0.46659783E+03</pdfrwt>
<pdfrwt beam="2">  1       21 0.27686539E-01 0.46659783E+03</pdfrwt>
<totfact> 0.13811052E+03</totfact>
</mgrwt>
</event>
<event>
 4    1  0.4758602E-002  0.4981548E+03  0.7818608E-02  0.1014262E+00
         21   -1    0    0  501  502  0.00000000000E+00  0.00000000000E+00  0.31493356151E+03  0.31493356151E+03  0.00000000000E+00 0.  1.
         21   -1    0    0  502  503 -0.00000000000E+00 -0.00000000000E+00 -0.12596527915E+04  0.12596527915E+04  0.00000000000E+00 0.  1.
    9000007    1    1    2  501    0  0.11130112759E+03  0.27526407961E+03  0.94062161629E+01  0.49824364665E+03  0.40000000000E+03 0.  1.
   -9000007    1    1    2    0  503 -0.11130112759E+03 -0.27526407961E+03 -0.95412544616E+03  0.10763427064E+04  0.40000000000E+03 0.  1.
<mgrwt>
<rscale>  2 0.49815485E+03</rscale>
<asrwt>0</asrwt>
<pdfrwt beam="1">  1       21 0.48451318E-01 0.49815485E+03</pdfrwt>
<pdfrwt beam="2">  1       21 0.19379273E+00 0.49815485E+03</pdfrwt>
<totfact> 0.48308899E+02</totfact>
</mgrwt>
</event>
<event>
 4    1  0.4758602E-002  0.4258152E+03  0.7818608E-02  0.1035190E+00
         21   -1    0    0  501  502  0.00000000000E+00  0.00000000000E+00  0.11722504819E+04  0.11722504819E+04  0.00000000000E+00 0. -1.
         21   -1    0    0  502  503 -0.00000000000E+00 -0.00000000000E+00 -0.21463191725E+03  0.21463191725E+03  0.00000000000E+00 0. -1.
    9000007    1    1    2  501    0 -0.56373767918E+02 -0.13468691672E+03  0.84531427846E+03  0.94650662788E+03  0.40000000000E+03 0. -1.
   -9000007    1    1    2    0  503  0.56373767918E+02  0.13468691672E+03  0.11230428622E+03  0.44037577130E+03  0.40000000000E+03 0. -1.
<mgrwt>
<rscale>  2 0.42581518E+03</rscale>
<asrwt>0</asrwt>
<pdfrwt beam="1">  1       21 0.18034622E+00 0.42581518E+03</pdfrwt>
<pdfrwt beam="2">  1       21 0.33020296E-01 0.42581518E+03</pdfrwt>
<totfact> 0.13628452E+03</totfact>
</mgrwt>
</event>
<event>
 4    1  0.4758602E-002  0.5277932E+03  0.7818608E-02  0.1006769E+00
         21   -1    0    0  503  502  0.00000000000E+00  0.00000000000E+00  0.14764887681E+03  0.14764887681E+03  0.00000000000E+00 0. -1.
         21   -1    0    0  501  503 -0.00000000000E+00 -0.00000000000E+00 -0.20680463367E+04  0.20680463367E+04  0.00000000000E+00 0. -1.
    9000007    1    1    2  501    0 -0.27831113562E+03 -0.20275242100E+03 -0.12882809503E+04  0.13922045250E+04  0.40000000000E+03 0. -1.
   -9000007    1    1    2    0  502  0.27831113562E+03  0.20275242100E+03 -0.63211650961E+03  0.82349068857E+03  0.40000000000E+03 0. -1.
<mgrwt>
<rscale>  2 0.52779317E+03</rscale>
<asrwt>0</asrwt>
<pdfrwt beam="1">  1       21 0.22715214E-01 0.52779317E+03</pdfrwt>
<pdfrwt beam="2">  1       21 0.31816094E+00 0.52779317E+03</pdfrwt>
<totfact> 0.36838591E+02</totfact>
</mgrwt>
</event>
<event>
 4    1  0.4758602E-002  0.4282793E+03  0.7818608E-02  0.1034405E+00
         21   -1    0    0  501  502  0.00000000000E+00  0.00000000000E+00  0.12499465841E+04  0.12499465841E+04  0.00000000000E+00 0. -1.
         21   -1    0    0  502  503 -0.00000000000E+00 -0.00000000000E+00 -0.26843217502E+03  0.26843217502E+03  0.00000000000E+00 0. -1.
    9000007    1    1    2  501    0 -0.15111013420E+03  0.24266468840E+02  0.10019157661E+04  0.10896138474E+04  0.40000000000E+03 0. -1.
   -9000007    1    1    2    0  503  0.15111013420E+03 -0.24266468840E+02 -0.20401356977E+02  0.42876491173E+03  0.40000000000E+03 0. -1.
<mgrwt>
<rscale>  2 0.42827927E+03</rscale>
<asrwt>0</asrwt>
<pdfrwt beam="1">  1       21 0.19229947E+00 0.42827927E+03</pdfrwt>
<pdfrwt beam="2">  1       21 0.41297258E-01 0.42827927E+03</pdfrwt>
<totfact> 0.71400512E+02</totfact>
</mgrwt>
</event>
<event>
 4    1  0.4758602E-002  0.4150932E+03  0.7818608E-02  0.1038675E+00
         21   -1    0    0  503  502  0.00000000000E+00  0.00000000000E+00  0.70410630202E+03  0.70410630202E+03  0.00000000000E+00 0. -1.
         21   -1    0    0  501  503 -0.00000000000E+00 -0.00000000000E+00 -0.25008083677E+03  0.25008083677E+03  0.00000000000E+00 0. -1.
    9000007    1    1    2  501    0 -0.58769531990E+02  0.94066582574E+02  0.29692511277E+03  0.51035958151E+03  0.40000000000E+03 0. -1.
   -9000007    1    1    2    0  502  0.58769531990E+02 -0.94066582574E+02  0.15710035248E+03  0.44382755728E+03  0.40000000000E+03 0. -1.
<mgrwt>
<rscale>  2 0.41509322E+03</rscale>
<asrwt>0</asrwt>
<pdfrwt beam="1">  1       21 0.10832405E+00 0.41509322E+03</pdfrwt>
<pdfrwt beam="2">  1       21 0.38473975E-01 0.41509322E+03</pdfrwt>
<totfact> 0.39033687E+03</totfact>
</mgrwt>
</event>
<event>
 4    1  0.4758602E-002  0.5162894E+03  0.7818608E-02  0.1009612E+00
         21   -1    0    0  501  502  0.00000000000E+00  0.00000000000E+00  0.14986112159E+03  0.14986112159E+03  0.00000000000E+00 0.  1.
         21   -1    0    0  502  503 -0.00000000000E+00 -0.00000000000E+00 -0.17805435455E+04  0.17805435455E+04  0.00000000000E+00 0. -1.
    9000007    1    1    2  501    0  0.26111003134E+03 -0.19589875686E+03 -0.84657854876E+03  0.99158963822E+03  0.40000000000E+03 0.  1.
   -9000007    1    1    2    0  503 -0.26111003134E+03  0.19589875686E+03 -0.78410387512E+03  0.93881502885E+03  0.40000000000E+03 0.  1.
<mgrwt>
<rscale>  2 0.51628943E+03</rscale>
<asrwt>0</asrwt>
<pdfrwt beam="1">  1       21 0.23055557E-01 0.51628943E+03</pdfrwt>
<pdfrwt beam="2">  1       21 0.27392978E+00 0.51628943E+03</pdfrwt>
<totfact> 0.66721038E+02</totfact>
</mgrwt>
</event>
<event>
 4    1  0.4758602E-002  0.4168833E+03  0.7818608E-02  0.1038085E+00
         21   -1    0    0  503  502  0.00000000000E+00  0.00000000000E+00  0.30698118670E+03  0.30698118670E+03  0.00000000000E+00 0.  1.
         21   -1    0    0  501  503 -0.00000000000E+00 -0.00000000000E+00 -0.79488727213E+03  0.79488727213E+03  0.00000000000E+00 0.  1.
    9000007    1    1    2  501    0 -0.24697290251E+02 -0.11481173830E+03 -0.53950449823E+03  0.68180407377E+03  0.40000000000E+03 0.  1.
   -9000007    1    1    2    0  502  0.24697290251E+02  0.11481173830E+03  0.51598412797E+02  0.42006438506E+03  0.40000000000E+03 0.  1.
<mgrwt>
<rscale>  2 0.41688331E+03</rscale>
<asrwt>0</asrwt>
<pdfrwt beam="1">  1       21 0.47227875E-01 0.41688331E+03</pdfrwt>
<pdfrwt beam="2">  1       21 0.12229035E+00 0.41688331E+03</pdfrwt>
<totfact> 0.18814966E+03</totfact>
</mgrwt>
</event>
<event>
 4    1  0.4758602E-002  0.4394220E+03  0.7818608E-02  0.1030924E+00
         21   -1    0    0  501  502  0.00000000000E+00  0.00000000000E+00  0.25215100247E+03  0.25215100247E+03  0.00000000000E+00 0.  1.
         21   -1    0    0  502  503 -0.00000000000E+00 -0.00000000000E+00 -0.82599052951E+03  0.82599052951E+03  0.00000000000E+00 0. -1.
    9000007    1    1    2  501    0 -0.80272910824E+02  0.16324211342E+03 -0.43246605605E+03  0.61653760424E+03  0.40000000000E+03 0.  1.
   -9000007    1    1    2    0  503  0.80272910824E+02 -0.16324211342E+03 -0.14137347100E+03  0.46160392774E+03  0.40000000000E+03 0.  1.
<mgrwt>
<rscale>  2 0.43942204E+03</rscale>
<asrwt>0</asrwt>
<pdfrwt beam="1">  1       21 0.38792461E-01 0.43942204E+03</pdfrwt>
<pdfrwt beam="2">  1       21 0.12707547E+00 0.43942204E+03</pdfrwt>
<totfact> 0.25431922E+03</totfact>
</mgrwt>
</event>
<event>
 4    1  0.4758602E-002  0.4765874E+03  0.7818608E-02  0.1020077E+00
         21   -1    0    0  501  502  0.00000000000E+00  0.00000000000E+00  0.90840481508E+03  0.90840481508E+03  0.00000000000E+00 0.  1.
         21   -1    0    0  502  503 -0.00000000000E+00 -0.00000000000E+00 -0.25188817442E+03  0.25188817442E+03  0.00000000000E+00 0.  1.
    9000007    1    1    2  501    0  0.16000798921E+03  0.20379652584E+03  0.27853518085E+03  0.55201216248E+03  0.40000000000E+03 0.  1.
   -9000007    1    1    2    0  503 -0.16000798921E+03 -0.20379652584E+03  0.37798145982E+03  0.60828082702E+03  0.40000000000E+03 0.  1.
<mgrwt>
<rscale>  2 0.47658743E+03</rscale>
<asrwt>0</asrwt>
<pdfrwt beam="1">  1       21 0.13975459E+00 0.47658743E+03</pdfrwt>
<pdfrwt beam="2">  1       21 0.38752027E-01 0.47658743E+03</pdfrwt>
<totfact> 0.19596101E+03</totfact>
</mgrwt>
</event>
<event>
 4    1  0.4758602E-002  0.4663223E+03  0.7818608E-02  0.1022963E+00
         21   -1    0    0  503  502  0.00000000000E+00  0.00000000000E+00  0.65058406747E+03  0.65058406747E+03  0.00000000000E+00 0. -1.
         21   -1    0    0  501  503 -0.00000000000E+00 -0.00000000000E+00 -0.34264493846E+03  0.34264493846E+03  0.00000000000E+00 0. -1.
    9000007    1    1    2  501    0  0.13175855450E+03  0.20024020806E+03  0.23171168150E+03  0.52071754431E+03  0.40000000000E+03 0. -1.
   -9000007    1    1    2    0  502 -0.13175855450E+03 -0.20024020806E+03  0.76227447504E+02  0.47251146162E+03  0.40000000000E+03 0. -1.
<mgrwt>
<rscale>  2 0.46632227E+03</rscale>
<asrwt>0</asrwt>
<pdfrwt beam="1">  1       21 0.10008986E+00 0.46632227E+03</pdfrwt>
<pdfrwt beam="2">  1       21 0.52714606E-01 0.46632227E+03</pdfrwt>
<totfact> 0.24051514E+03</totfact>
</mgrwt>
</event>
<event>
 4    1  0.4758602E-002  0.5263723E+03  0.7818608E-02  0.1007116E+00
         21   -1    0    0  501  502  0.00000000000E+00  0.00000000000E+00  0.59455623315E+03  0.59455623315E+03  0.00000000000E+00 0. -1.
         21   -1    0    0  502  503 -0.00000000000E+00 -0.00000000000E+00 -0.48184138044E+03  0.48184138044E+03  0.00000000000E+00 0. -1.
    9000007    1    1    2  501    0 -0.33091169477E+03  0.86978523140E+02  0.15391947649E+03  0.54841500569E+03  0.40000000000E+03 0. -1.
   -9000007    1    1    2    0  503  0.33091169477E+03 -0.86978523140E+02 -0.41204623782E+02  0.52798260790E+03  0.40000000000E+03 0. -1.
<mgrwt>
<rscale>  2 0.52637231E+03</rscale>
<asrwt>0</asrwt>
<pdfrwt beam="1">  1       21 0.91470189E-01 0.52637231E+03</pdfrwt>
<pdfrwt beam="2">  1       21 0.74129443E-01 0.52637231E+03</pdfrwt>
<totfact> 0.13762185E+03</totfact>
</mgrwt>
</event>
<event>
 4    1  0.4758602E-002  0.4789800E+03  0.7818608E-02  0.1019416E+00
         21   -1    0    0  501  502  0.00000000000E+00  0.00000000000E+00  0.11569895274E+04  0.11569895274E+04  0.00000000000E+00 0.  1.
         21   -1    0    0  502  503 -0.00000000000E+00 -0.00000000000E+00 -0.27173646323E+03  0.27173646323E+03  0.00000000000E+00 0.  1.
    9000007    1    1    2  501    0 -0.14239340438E+03 -0.22168886431E+03  0.81401152460E+03  0.94447689032E+03  0.40000000000E+03 0.  1.
   -9000007    1    1    2    0  503  0.14239340438E+03  0.22168886431E+03  0.71241539548E+02  0.48424910029E+03  0.40000000000E+03 0.  1.
<mgrwt>
<rscale>  2 0.47897999E+03</rscale>
<asrwt>0</asrwt>
<pdfrwt beam="1">  1       21 0.17799839E+00 0.47897999E+03</pdfrwt>
<pdfrwt beam="2">  1       21 0.41805610E-01 0.47897999E+03</pdfrwt>
<totfact> 0.85478721E+02</totfact>
</mgrwt>
</event>
<event>
 4    1  0.4758602E-002  0.4370418E+03  0.7818608E-02  0.1031658E+00
         21   -1    0    0  501  502  0.00000000000E+00  0.00000000000E+00  0.38361655332E+04  0.38361655332E+04  0.00000000000E+00 0.  1.
         21   -1    0    0  502  503 -0.00000000000E+00 -0.00000000000E+00 -0.50215029881E+02  0.50215029881E+02  0.00000000000E+00 0. -1.
    9000007    1    1    2  501    0  0.17291077507E+03 -0.33277495410E+02  0.17143557610E+04  0.17691865936E+04  0.40000000000E+03 0.  1.
   -9000007    1    1    2    0  503 -0.17291077507E+03  0.33277495410E+02  0.20715947423E+04  0.21171939695E+04  0.40000000000E+03 0. -1.
<mgrwt>
<rscale>  2 0.43704179E+03</rscale>
<asrwt>0</asrwt>
<pdfrwt beam="1">  1       21 0.59017908E+00 0.43704179E+03</pdfrwt>
<pdfrwt beam="2">  1       21 0.77253922E-02 0.43704179E+03</pdfrwt>
<totfact> 0.39286344E+01</totfact>
</mgrwt>
</event>
<event>
 4    1  0.4758602E-002  0.4133671E+03  0.7818608E-02  0.1039247E+00
         21   -1    0    0  501  502  0.00000000000E+00  0.00000000000E+00  0.24073120949E+03  0.24073120949E+03  0.00000000000E+00 0. -1.
         21   -1    0    0  502  503 -0.00000000000E+00 -0.00000000000E+00 -0.12570058462E+04  0.12570058462E+04  0.00000000000E+00 0. -1.
    9000007    1    1    2  501    0  0.91571755277E+02 -0.49869921992E+02 -0.14042823610E+02  0.41360560487E+03  0.40000000000E+03 0. -1.
   -9000007    1    1    2    0  503 -0.91571755277E+02  0.49869921992E+02 -0.10022318131E+04  0.10841314508E+04  0.40000000000E+03 0. -1.
<mgrwt>
<rscale>  2 0.41336714E+03</rscale>
<asrwt>0</asrwt>
<pdfrwt beam="1">  1       21 0.37035571E-01 0.41336714E+03</pdfrwt>
<pdfrwt beam="2">  1       21 0.19338551E+00 0.41336714E+03</pdfrwt>
<totfact> 0.88417653E+02</totfact>
</mgrwt>
</event>
<event>
 4    1  0.4758602E-002  0.4091260E+03  0.7818608E-02  0.1040665E+00
         21   -1    0    0  503  502  0.00000000000E+00  0.00000000000E+00  0.16382654982E+04  0.16382654982E+04  0.00000000000E+00 0. -1.
         21   -1    0    0  501  503 -0.00000000000E+00 -0.00000000000E+00 -0.10307939446E+03  0.10307939446E+03  0.00000000000E+00 0. -1.
    9000007    1    1    2  501    0 -0.30939511539E+02 -0.80167660642E+02  0.68588267108E+03  0.79863580290E+03  0.40000000000E+03 0.  1.
   -9000007    1    1    2    0  502  0.30939511539E+02  0.80167660642E+02  0.84930343263E+03  0.94270908973E+03  0.40000000000E+03 0.  1.
<mgrwt>
<rscale>  2 0.40912603E+03</rscale>
<asrwt>0</asrwt>
<pdfrwt beam="1">  1       21 0.25204083E+00 0.40912603E+03</pdfrwt>
<pdfrwt beam="2">  1       21 0.15858370E-01 0.40912603E+03</pdfrwt>
<totfact> 0.19427887E+03</totfact>
</mgrwt>
</event>
<event>
 4    1  0.4758602E-002  0.4439463E+03  0.7818608E-02  0.1029543E+00
         21   -1    0    0  501  502  0.00000000000E+00  0.00000000000E+00  0.20504668265E+03  0.20504668265E+03  0.00000000000E+00 0. -1.
         21   -1    0    0  502  503 -0.00000000000E+00 -0.00000000000E+00 -0.13812360499E+04  0.13812360499E+04  0.00000000000E+00 0.  1.
    9000007    1    1    2  501    0  0.13384378579E+03  0.13847077827E+03 -0.15070717528E+03  0.46882935927E+03  0.40000000000E+03 0. -1.
   -9000007    1    1    2    0  503 -0.13384378579E+03 -0.13847077827E+03 -0.10254821920E+04  0.11174533733E+04  0.40000000000E+03 0.  1.
<mgrwt>
<rscale>  2 0.44394630E+03</rscale>
<asrwt>0</asrwt>
<pdfrwt beam="1">  1       21 0.31545643E-01 0.44394630E+03</pdfrwt>
<pdfrwt beam="2">  1       21 0.21249786E+00 0.44394630E+03</pdfrwt>
<totfact> 0.89976130E+02</totfact>
</mgrwt>
</event>
<event>
 4    1  0.4758602E-002  0.4141114E+03  0.7818608E-02  0.1039000E+00
         21   -1    0    0  503  502  0.00000000000E+00  0.00000000000E+00  0.75873965071E+03  0.75873965071E+03  0.00000000000E+00 0. -1.
         21   -1    0    0  501  503 -0.00000000000E+00 -0.00000000000E+00 -0.40853141714E+03  0.40853141714E+03  0.00000000000E+00 0. -1.
    9000007    1    1    2  501    0 -0.11003802736E+02  0.10661688069E+03 -0.21499709174E+03  0.46659617699E+03  0.40000000000E+03 0. -1.
   -9000007    1    1    2    0  502  0.11003802736E+02 -0.10661688069E+03  0.56520532531E+03  0.70067489086E+03  0.40000000000E+03 0. -1.
<mgrwt>
<rscale>  2 0.41411139E+03</rscale>
<asrwt>0</asrwt>
<pdfrwt beam="1">  1       21 0.11672918E+00 0.41411139E+03</pdfrwt>
<pdfrwt beam="2">  1       21 0.62850988E-01 0.41411139E+03</pdfrwt>
<totfact> 0.11453575E+03</totfact>
</mgrwt>
</event>
<event>
 4    1  0.4758602E-002  0.5267352E+03  0.7818608E-02  0.1007027E+00
         21   -1    0    0  501  502  0.00000000000E+00  0.00000000000E+00  0.28956060365E+03  0.28956060365E+03  0.00000000000E+00 0. -1.
         21   -1    0    0  502  503 -0.00000000000E+00 -0.00000000000E+00 -0.12452376749E+04  0.12452376749E+04  0.00000000000E+00 0. -1.
    9000007    1    1    2  501    0  0.33771464935E+03 -0.58299519416E+02 -0.10938494268E+03  0.53797312576E+03  0.40000000000E+03 0. -1.
   -9000007    1    1    2    0  503 -0.33771464935E+03  0.58299519416E+02 -0.84629212854E+03  0.99682515276E+03  0.40000000000E+03 0. -1.
<mgrwt>
<rscale>  2 0.52673525E+03</rscale>
<asrwt>0</asrwt>
<pdfrwt beam="1">  1       21 0.44547786E-01 0.52673525E+03</pdfrwt>
<pdfrwt beam="2">  1       21 0.19157502E+00 0.52673525E+03</pdfrwt>
<totfact> 0.59022482E+02</totfact>
</mgrwt>
</event>
<event>
 4    1  0.4758602E-002  0.4169327E+03  0.7818608E-02  0.1038069E+00
         21   -1    0    0  503  502  0.00000000000E+00  0.00000000000E+00  0.57627608126E+03  0.57627608126E+03  0.00000000000E+00 0.  1.
         21   -1    0    0  501  503 -0.00000000000E+00 -0.00000000000E+00 -0.30804850232E+03  0.30804850232E+03  0.00000000000E+00 0. -1.
    9000007    1    1    2  501    0  0.41447696779E+02  0.11006785181E+03  0.19784623222E+03  0.46149320166E+03  0.40000000000E+03 0.  1.
   -9000007    1    1    2    0  502 -0.41447696779E+02 -0.11006785181E+03  0.70381346727E+02  0.42283138192E+03  0.40000000000E+03 0. -1.
<mgrwt>
<rscale>  2 0.41693266E+03</rscale>
<asrwt>0</asrwt>
<pdfrwt beam="1">  1       21 0.88657859E-01 0.41693266E+03</pdfrwt>
<pdfrwt beam="2">  1       21 0.47392077E-01 0.41693266E+03</pdfrwt>
<totfact> 0.41034040E+03</totfact>
</mgrwt>
</event>
<event>
 4    1  0.4758602E-002  0.5209693E+03  0.7818608E-02  0.1008446E+00
         21   -1    0    0  503  502  0.00000000000E+00  0.00000000000E+00  0.46156682813E+03  0.46156682813E+03  0.00000000000E+00 0.  1.
         21   -1    0    0  501  503 -0.00000000000E+00 -0.00000000000E+00 -0.83903399384E+03  0.83903399384E+03  0.00000000000E+00 0. -1.
    9000007    1    1    2  501    0  0.15892494173E+03  0.29351640775E+03 -0.54442717584E+03  0.75353166391E+03  0.40000000000E+03 0. -1.
   -9000007    1    1    2    0  502 -0.15892494173E+03 -0.29351640775E+03  0.16696001013E+03  0.54706915806E+03  0.40000000000E+03 0.  1.
<mgrwt>
<rscale>  2 0.52096931E+03</rscale>
<asrwt>0</asrwt>
<pdfrwt beam="1">  1       21 0.71010282E-01 0.52096931E+03</pdfrwt>
<pdfrwt beam="2">  1       21 0.12908215E+00 0.52096931E+03</pdfrwt>
<totfact> 0.64505729E+02</totfact>
</mgrwt>
</event>
<event>
 4    1  0.4758602E-002  0.4847619E+03  0.7818608E-02  0.1017835E+00
         21   -1    0    0  501  502  0.00000000000E+00  0.00000000000E+00  0.45054034758E+03  0.45054034758E+03  0.00000000000E+00 0. -1.
         21   -1    0    0  502  503 -0.00000000000E+00 -0.00000000000E+00 -0.74150062524E+03  0.74150062524E+03  0.00000000000E+00 0. -1.
    9000007    1    1    2  501    0 -0.14440674785E+03  0.23268183080E+03  0.17911016273E+03  0.51679260211E+03  0.40000000000E+03 0.  1.
   -9000007    1    1    2    0  503  0.14440674785E+03 -0.23268183080E+03 -0.47007044040E+03  0.67524837071E+03  0.40000000000E+03 0.  1.
<mgrwt>
<rscale>  2 0.48476194E+03</rscale>
<asrwt>0</asrwt>
<pdfrwt beam="1">  1       21 0.69313900E-01 0.48476194E+03</pdfrwt>
<pdfrwt beam="2">  1       21 0.11407702E+00 0.48476194E+03</pdfrwt>
<totfact> 0.94721197E+02</totfact>
</mgrwt>
</event>
<event>
 4    1  0.4758602E-002  0.4084455E+03  0.7818608E-02  0.1040894E+00
         21   -1    0    0  501  502  0.00000000000E+00  0.00000000000E+00  0.33688632656E+03  0.33688632656E+03  0.00000000000E+00 0. -1.
         21   -1    0    0  502  503 -0.00000000000E+00 -0.00000000000E+00 -0.66613901827E+03  0.66613901827E+03  0.00000000000E+00 0. -1.
    9000007    1    1    2  501    0 -0.70013382242E+02  0.43884074589E+02  0.89420689984E+02  0.41811929577E+03  0.40000000000E+03 0. -1.
   -9000007    1    1    2    0  503  0.70013382242E+02 -0.43884074589E+02 -0.41867338170E+03  0.58490604907E+03  0.40000000000E+03 0. -1.
<mgrwt>
<rscale>  2 0.40844545E+03</rscale>
<asrwt>0</asrwt>
<pdfrwt beam="1">  1       21 0.51828666E-01 0.40844545E+03</pdfrwt>
<pdfrwt beam="2">  1       21 0.10248292E+00 0.40844545E+03</pdfrwt>
<totfact> 0.24065140E+03</totfact>
</mgrwt>
</event>
<event>
 4    1  0.4758602E-002  0.4156532E+03  0.7818608E-02  0.1038490E+00
         21   -1    0    0  503  502  0.00000000000E+00  0.00000000000E+00  0.47800367412E+03  0.47800367412E+03  0.00000000000E+00 0.  1.
         21   -1    0    0  501  503 -0.00000000000E+00 -0.00000000000E+00 -0.43360388819E+03  0.43360388819E+03  0.00000000000E+00 0.  1.
    9000007    1    1    2  501    0 -0.86594131123E+02  0.72588084212E+02 -0.16375360858E+03  0.44674692818E+03  0.40000000000E+03 0.  1.
   -9000007    1    1    2    0  502  0.86594131123E+02 -0.72588084212E+02  0.20815339452E+03  0.46486063413E+03  0.40000000000E+03 0.  1.
<mgrwt>
<rscale>  2 0.41565319E+03</rscale>
<asrwt>0</asrwt>
<pdfrwt beam="1">  1       21 0.73539026E-01 0.41565319E+03</pdfrwt>
<pdfrwt beam="2">  1       21 0.66708291E-01 0.41565319E+03</pdfrwt>
<totfact> 0.30169731E+03</totfact>
</mgrwt>
</event>
<event>
 4    1  0.4758602E-002  0.4214731E+03  0.7818608E-02  0.1036588E+00
         21   -1    0    0  503  502  0.00000000000E+00  0.00000000000E+00  0.26800424452E+03  0.26800424452E+03  0.00000000000E+00 0. -1.
         21   -1    0    0  501  503 -0.00000000000E+00 -0.00000000000E+00 -0.82008846471E+03  0.82008846471E+03  0.00000000000E+00 0. -1.
    9000007    1    1    2  501    0 -0.50832875261E+02 -0.12270116123E+03 -0.51428574861E+03  0.66492810694E+03  0.40000000000E+03 0. -1.
   -9000007    1    1    2    0  502  0.50832875261E+02  0.12270116123E+03 -0.37798471573E+02  0.42316460229E+03  0.40000000000E+03 0. -1.
<mgrwt>
<rscale>  2 0.42147308E+03</rscale>
<asrwt>0</asrwt>
<pdfrwt beam="1">  1       21 0.41231423E-01 0.42147308E+03</pdfrwt>
<pdfrwt beam="2">  1       21 0.12616745E+00 0.42147308E+03</pdfrwt>
<totfact> 0.23012130E+03</totfact>
</mgrwt>
</event>
