<event>
 4    1  0.1091654E+000  0.1775702E+03  0.7546771E-02  0.1170175E+00
         21   -1    0    0  503  502  0.00000000000E+00  0.00000000000E+00  0.23461086091E+02  0.23461086091E+02  0.00000000000E+00 0.  1.
         21   -1    0    0  501  503 -0.00000000000E+00 -0.00000000000E+00 -0.13839640826E+04  0.13839640826E+04  0.00000000000E+00 0.  1.
          6    1    1    2  501    0  0.41223003250E+02  0.15743460932E+02 -0.56063660569E+03  0.58808553476E+03  0.17200000000E+03 0.  1.
         -6    1    1    2    0  502 -0.41223003250E+02 -0.15743460932E+02 -0.79986639078E+03  0.81933963388E+03  0.17200000000E+03 0.  1.
<mgrwt>
<rscale>  2 0.17757025E+03</rscale>
<asrwt>0</asrwt>
<pdfrwt beam="1">  1       21 0.58652715E-02 0.17757025E+03</pdfrwt>
<pdfrwt beam="2">  1       21 0.34599102E+00 0.17757025E+03</pdfrwt>
<totfact> 0.38629810E+03</totfact>
</mgrwt>
</event>
<event>
 4    1  0.1091654E+000  0.3142535E+03  0.7546771E-02  0.1078325E+00
         21   -1    0    0  501  502  0.00000000000E+00  0.00000000000E+00  0.30935998289E+03  0.30935998289E+03  0.00000000000E+00 0.  1.
         21   -1    0    0  502  503 -0.00000000000E+00 -0.00000000000E+00 -0.45428251016E+03  0.45428251016E+03  0.00000000000E+00 0. -1.
          6    1    1    2  501    0  0.20739240781E+03 -0.16173945454E+03  0.13572754518E+03  0.34231159561E+03  0.17200000000E+03 0.  1.
         -6    1    1    2    0  503 -0.20739240781E+03  0.16173945454E+03 -0.28065007244E+03  0.42133089743E+03  0.17200000000E+03 0. -1.
<mgrwt>
<rscale>  2 0.31425350E+03</rscale>
<asrwt>0</asrwt>
<pdfrwt beam="1">  1       21 0.77339996E-01 0.31425350E+03</pdfrwt>
<pdfrwt beam="2">  1       21 0.11357063E+00 0.31425350E+03</pdfrwt>
<totfact> 0.81267653E+02</totfact>
</mgrwt>
</event>
<event>
 4    1  0.1091654E+000  0.1764133E+03  0.7546771E-02  0.1171320E+00
         21   -1    0    0  503  502  0.00000000000E+00  0.00000000000E+00  0.70502814286E+02  0.70502814286E+02  0.00000000000E+00 0.  1.
         21   -1    0    0  501  503 -0.00000000000E+00 -0.00000000000E+00 -0.97514262126E+03  0.97514262126E+03  0.00000000000E+00 0.  1.
          6    1    1    2  501    0 -0.69518007703E+01 -0.38591834867E+02 -0.83911096222E+03  0.85745487588E+03  0.17200000000E+03 0.  1.
         -6    1    1    2    0  502  0.69518007703E+01  0.38591834867E+02 -0.65528844753E+02  0.18819055966E+03  0.17200000000E+03 0.  1.
<mgrwt>
<rscale>  2 0.17641331E+03</rscale>
<asrwt>0</asrwt>
<pdfrwt beam="1">  1       21 0.17625704E-01 0.17641331E+03</pdfrwt>
<pdfrwt beam="2">  1       21 0.24378566E+00 0.17641331E+03</pdfrwt>
<totfact> 0.21522197E+03</totfact>
</mgrwt>
</event>
<event>
 4    1  0.1091654E+000  0.2106355E+03  0.7546771E-02  0.1141064E+00
         21   -1    0    0  501  502  0.00000000000E+00  0.00000000000E+00  0.48311849620E+03  0.48311849620E+03  0.00000000000E+00 0. -1.
         21   -1    0    0  502  503 -0.00000000000E+00 -0.00000000000E+00 -0.11183644708E+03  0.11183644708E+03  0.00000000000E+00 0. -1.
          6    1    1    2  501    0  0.11775017451E+03  0.30302139930E+02  0.59838299319E+02  0.21897019283E+03  0.17200000000E+03 0. -1.
         -6    1    1    2    0  503 -0.11775017451E+03 -0.30302139930E+02  0.31144374980E+03  0.37598475045E+03  0.17200000000E+03 0. -1.
<mgrwt>
<rscale>  2 0.21063552E+03</rscale>
<asrwt>0</asrwt>
<pdfrwt beam="1">  1       21 0.12077962E+00 0.21063552E+03</pdfrwt>
<pdfrwt beam="2">  1       21 0.27959113E-01 0.21063552E+03</pdfrwt>
<totfact> 0.62624066E+03</totfact>
</mgrwt>
</event>
<event>
 4    1  0.1091654E+000  0.1999998E+03  0.7546771E-02  0.1149739E+00
         21   -1    0    0  501  502  0.00000000000E+00  0.00000000000E+00  0.52485306436E+03  0.52485306436E+03  0.00000000000E+00 0.  1.
         21   -1    0    0  502  503 -0.00000000000E+00 -0.00000000000E+00 -0.85484505789E+02  0.85484505789E+02  0.00000000000E+00 0.  1.
          6    1    1    2  501    0  0.26004934912E+02  0.98689789803E+02  0.32019272792E+03  0.37752260100E+03  0.17200000000E+03 0.  1.
         -6    1    1    2    0  503 -0.26004934912E+02 -0.98689789803E+02  0.11917583066E+03  0.23281496916E+03  0.17200000000E+03 0.  1.
<mgrwt>
<rscale>  2 0.19999983E+03</rscale>
<asrwt>0</asrwt>
<pdfrwt beam="1">  1       21 0.13121326E+00 0.19999983E+03</pdfrwt>
<pdfrwt beam="2">  1       21 0.21371128E-01 0.19999983E+03</pdfrwt>
<totfact> 0.85601006E+03</totfact>
</mgrwt>
</event>
<event>
 4    1  0.1091654E+000  0.1818908E+03  0.7546771E-02  0.1165986E+00
         21   -1    0    0  503  502  0.00000000000E+00  0.00000000000E+00  0.33620069567E+03  0.33620069567E+03  0.00000000000E+00 0. -1.
         21   -1    0    0  501  503 -0.00000000000E+00 -0.00000000000E+00 -0.15424217856E+03  0.15424217856E+03  0.00000000000E+00 0. -1.
          6    1    1    2  501    0 -0.56916533593E+02 -0.16148305759E+02 -0.56562044675E+02  0.19048234688E+03  0.17200000000E+03 0. -1.
         -6    1    1    2    0  502  0.56916533593E+02  0.16148305759E+02  0.23852056178E+03  0.29996052735E+03  0.17200000000E+03 0. -1.
<mgrwt>
<rscale>  2 0.18189079E+03</rscale>
<asrwt>0</asrwt>
<pdfrwt beam="1">  1       21 0.84050173E-01 0.18189079E+03</pdfrwt>
<pdfrwt beam="2">  1       21 0.38560545E-01 0.18189079E+03</pdfrwt>
<totfact> 0.80357238E+03</totfact>
</mgrwt>
</event>
<event>
 4    1  0.1091654E+000  0.2486363E+03  0.7546771E-02  0.1114170E+00
         21   -1    0    0  503  502  0.00000000000E+00  0.00000000000E+00  0.35275957968E+03  0.35275957968E+03  0.00000000000E+00 0.  1.
         21   -1    0    0  501  503 -0.00000000000E+00 -0.00000000000E+00 -0.35231792365E+03  0.35231792365E+03  0.00000000000E+00 0.  1.
          6    1    1    2  501    0  0.17874433865E+03 -0.16924793961E+02 -0.24970628119E+03  0.35238219892E+03  0.17200000000E+03 0.  1.
         -6    1    1    2    0  502 -0.17874433865E+03  0.16924793961E+02  0.25014793723E+03  0.35269530441E+03  0.17200000000E+03 0.  1.
<mgrwt>
<rscale>  2 0.24863625E+03</rscale>
<asrwt>0</asrwt>
<pdfrwt beam="1">  1       21 0.88189895E-01 0.24863625E+03</pdfrwt>
<pdfrwt beam="2">  1       21 0.88079481E-01 0.24863625E+03</pdfrwt>
<totfact> 0.11572982E+03</totfact>
</mgrwt>
</event>
<event>
 4    1  0.1091654E+000  0.2316013E+03  0.7546771E-02  0.1125518E+00
         21   -1    0    0  503  502  0.00000000000E+00  0.00000000000E+00  0.27154690560E+03  0.27154690560E+03  0.00000000000E+00 0.  1.
         21   -1    0    0  501  503 -0.00000000000E+00 -0.00000000000E+00 -0.24076745950E+03  0.24076745950E+03  0.00000000000E+00 0. -1.
          6    1    1    2  501    0  0.15139481316E+03 -0.33686356397E+02 -0.93159940835E+02  0.24963560370E+03  0.17200000000E+03 0. -1.
         -6    1    1    2    0  502 -0.15139481316E+03  0.33686356397E+02  0.12393938693E+03  0.26267876140E+03  0.17200000000E+03 0.  1.
<mgrwt>
<rscale>  2 0.23160130E+03</rscale>
<asrwt>0</asrwt>
<pdfrwt beam="1">  1       21 0.67886726E-01 0.23160130E+03</pdfrwt>
<pdfrwt beam="2">  1       21 0.60191865E-01 0.23160130E+03</pdfrwt>
<totfact> 0.49570384E+03</totfact>
</mgrwt>
</event>
<event>
 4    1  0.1091654E+000  0.2001439E+03  0.7546771E-02  0.1149618E+00
         21   -1    0    0  503  502  0.00000000000E+00  0.00000000000E+00  0.21512376000E+03  0.21512376000E+03  0.00000000000E+00 0.  1.
         21   -1    0    0  501  503 -0.00000000000E+00 -0.00000000000E+00 -0.20942968669E+03  0.20942968669E+03  0.00000000000E+00 0.  1.
          6    1    1    2  501    0 -0.96633669149E+01  0.10188320432E+03 -0.67839825396E+02  0.21132867740E+03  0.17200000000E+03 0.  1.
         -6    1    1    2    0  502  0.96633669149E+01 -0.10188320432E+03  0.73533898701E+02  0.21322476929E+03  0.17200000000E+03 0.  1.
<mgrwt>
<rscale>  2 0.20014387E+03</rscale>
<asrwt>0</asrwt>
<pdfrwt beam="1">  1       21 0.53780940E-01 0.20014387E+03</pdfrwt>
<pdfrwt beam="2">  1       21 0.52357422E-01 0.20014387E+03</pdfrwt>
<totfact> 0.11259315E+04</totfact>
</mgrwt>
</event>
<event>
 4    1  0.1091654E+000  0.2461022E+03  0.7546771E-02  0.1115793E+00
         21   -1    0    0  501  502  0.00000000000E+00  0.00000000000E+00  0.61418050318E+03  0.61418050318E+03  0.00000000000E+00 0. -1.
         21   -1    0    0  502  503 -0.00000000000E+00 -0.00000000000E+00 -0.62610923675E+03  0.62610923675E+03  0.00000000000E+00 0. -1.
          6    1    1    2  501    0 -0.98507458238E+02  0.14587174677E+03  0.56325243814E+03  0.61467031399E+03  0.17200000000E+03 0. -1.
         -6    1    1    2    0  503  0.98507458238E+02 -0.14587174677E+03 -0.57518117170E+03  0.62561942594E+03  0.17200000000E+03 0. -1.
<mgrwt>
<rscale>  2 0.24610219E+03</rscale>
<asrwt>0</asrwt>
<pdfrwt beam="1">  1       21 0.15354513E+00 0.24610219E+03</pdfrwt>
<pdfrwt beam="2">  1       21 0.15652731E+00 0.24610219E+03</pdfrwt>
<totfact> 0.69964920E+01</totfact>
</mgrwt>
</event>
<event>
 4    1  0.1091654E+000  0.1778643E+03  0.7546771E-02  0.1169886E+00
         21   -1    0    0  501  502  0.00000000000E+00  0.00000000000E+00  0.19497695335E+03  0.19497695335E+03  0.00000000000E+00 0. -1.
         21   -1    0    0  502  503 -0.00000000000E+00 -0.00000000000E+00 -0.26825664254E+03  0.26825664254E+03  0.00000000000E+00 0. -1.
          6    1    1    2  501    0 -0.41141239213E+02 -0.18950049335E+02 -0.18223738763E+03  0.25464911424E+03  0.17200000000E+03 0. -1.
         -6    1    1    2    0  503  0.41141239213E+02  0.18950049335E+02  0.10895769844E+03  0.20858448164E+03  0.17200000000E+03 0. -1.
<mgrwt>
<rscale>  2 0.17786429E+03</rscale>
<asrwt>0</asrwt>
<pdfrwt beam="1">  1       21 0.48744239E-01 0.17786429E+03</pdfrwt>
<pdfrwt beam="2">  1       21 0.67064160E-01 0.17786429E+03</pdfrwt>
<totfact> 0.82669558E+03</totfact>
</mgrwt>
</event>
<event>
 4    1  0.1091654E+000  0.1904164E+03  0.7546771E-02  0.1158086E+00
         21   -1    0    0  501  502  0.00000000000E+00  0.00000000000E+00  0.20024742382E+03  0.20024742382E+03  0.00000000000E+00 0. -1.
         21   -1    0    0  502  503 -0.00000000000E+00 -0.00000000000E+00 -0.89482895531E+03  0.89482895531E+03  0.00000000000E+00 0. -1.
          6    1    1    2  501    0  0.63186618670E+02 -0.51786804891E+02  0.14172263701E+03  0.23736833778E+03  0.17200000000E+03 0. -1.
         -6    1    1    2    0  503 -0.63186618670E+02  0.51786804891E+02 -0.83630416851E+03  0.85770804135E+03  0.17200000000E+03 0. -1.
<mgrwt>
<rscale>  2 0.19041644E+03</rscale>
<asrwt>0</asrwt>
<pdfrwt beam="1">  1       21 0.50061857E-01 0.19041644E+03</pdfrwt>
<pdfrwt beam="2">  1       21 0.22370724E+00 0.19041644E+03</pdfrwt>
<totfact> 0.36396999E+02</totfact>
</mgrwt>
</event>
<event>
 4    1  0.1091654E+000  0.2616960E+03  0.7546771E-02  0.1106129E+00
         21   -1    0    0  501  502  0.00000000000E+00  0.00000000000E+00  0.93391511804E+02  0.93391511804E+02  0.00000000000E+00 0.  1.
         21   -1    0    0  502  503 -0.00000000000E+00 -0.00000000000E+00 -0.73727873202E+03  0.73727873202E+03  0.00000000000E+00 0. -1.
          6    1    1    2  501    0  0.11240088410E+03 -0.16207041525E+03 -0.35242237054E+03  0.43896048285E+03  0.17200000000E+03 0.  1.
         -6    1    1    2    0  503 -0.11240088410E+03  0.16207041525E+03 -0.29146484968E+03  0.39170976097E+03  0.17200000000E+03 0.  1.
<mgrwt>
<rscale>  2 0.26169597E+03</rscale>
<asrwt>0</asrwt>
<pdfrwt beam="1">  1       21 0.23347878E-01 0.26169597E+03</pdfrwt>
<pdfrwt beam="2">  1       21 0.18431968E+00 0.26169597E+03</pdfrwt>
<totfact> 0.27687629E+03</totfact>
</mgrwt>
</event>
<event>
 4    1  0.1091654E+000  0.2894721E+03  0.7546771E-02  0.1090625E+00
         21   -1    0    0  503  502  0.00000000000E+00  0.00000000000E+00  0.10036500030E+03  0.10036500030E+03  0.00000000000E+00 0.  1.
         21   -1    0    0  501  503 -0.00000000000E+00 -0.00000000000E+00 -0.91631767449E+03  0.91631767449E+03  0.00000000000E+00 0.  1.
          6    1    1    2  501    0 -0.23110481637E+03 -0.28296381599E+02 -0.25644301376E+03  0.38672618306E+03  0.17200000000E+03 0.  1.
         -6    1    1    2    0  502  0.23110481637E+03  0.28296381599E+02 -0.55950966043E+03  0.62995649173E+03  0.17200000000E+03 0.  1.
<mgrwt>
<rscale>  2 0.28947214E+03</rscale>
<asrwt>0</asrwt>
<pdfrwt beam="1">  1       21 0.25091250E-01 0.28947214E+03</pdfrwt>
<pdfrwt beam="2">  1       21 0.22907942E+00 0.28947214E+03</pdfrwt>
<totfact> 0.12156537E+03</totfact>
</mgrwt>
</event>
<event>
 4    1  0.1091654E+000  0.1768599E+03  0.7546771E-02  0.1170877E+00
         21   -1    0    0  501  502  0.00000000000E+00  0.00000000000E+00  0.15177832436E+03  0.15177832436E+03  0.00000000000E+00 0.  1.
         21   -1    0    0  502  503 -0.00000000000E+00 -0.00000000000E+00 -0.24887423143E+03  0.24887423143E+03  0.00000000000E+00 0.  1.
          6    1    1    2  501    0  0.60188133359E+01 -0.40733410005E+02  0.34515213116E+02  0.18019638382E+03  0.17200000000E+03 0. -1.
         -6    1    1    2    0  503 -0.60188133359E+01  0.40733410005E+02 -0.13161112019E+03  0.22045617198E+03  0.17200000000E+03 0. -1.
<mgrwt>
<rscale>  2 0.17685994E+03</rscale>
<asrwt>0</asrwt>
<pdfrwt beam="1">  1       21 0.37944581E-01 0.17685994E+03</pdfrwt>
<pdfrwt beam="2">  1       21 0.62218557E-01 0.17685994E+03</pdfrwt>
<totfact> 0.16211621E+04</totfact>
</mgrwt>
</event>
<event>
 4    1  0.1091654E+000  0.1760705E+03  0.7546771E-02  0.1171661E+00
         21   -1    0    0  501  502  0.00000000000E+00  0.00000000000E+00  0.42090634829E+03  0.42090634829E+03  0.00000000000E+00 0.  1.
         21   -1    0    0  502  503 -0.00000000000E+00 -0.00000000000E+00 -0.26887227960E+03  0.26887227960E+03  0.00000000000E+00 0. -1.
          6    1    1    2  501    0  0.33970020122E+02 -0.16212982947E+02  0.36989605543E+03  0.40966317250E+03  0.17200000000E+03 0.  1.
         -6    1    1    2    0  503 -0.33970020122E+02  0.16212982947E+02 -0.21786198674E+03  0.28011545539E+03  0.17200000000E+03 0. -1.
<mgrwt>
<rscale>  2 0.17607051E+03</rscale>
<asrwt>0</asrwt>
<pdfrwt beam="1">  1       21 0.10522659E+00 0.17607051E+03</pdfrwt>
<pdfrwt beam="2">  1       21 0.67218070E-01 0.17607051E+03</pdfrwt>
<totfact> 0.14966134E+03</totfact>
</mgrwt>
</event>
<event>
 4    1  0.1091654E+000  0.2204968E+03  0.7546771E-02  0.1133513E+00
         21   -1    0    0  501  502  0.00000000000E+00  0.00000000000E+00  0.12561438001E+04  0.12561438001E+04  0.00000000000E+00 0.  1.
         21   -1    0    0  502  503 -0.00000000000E+00 -0.00000000000E+00 -0.52874677454E+02  0.52874677454E+02  0.00000000000E+00 0. -1.
          6    1    1    2  501    0  0.12739125542E+03  0.52974420779E+02  0.94045892990E+03  0.96596160382E+03  0.17200000000E+03 0.  1.
         -6    1    1    2    0  503 -0.12739125542E+03 -0.52974420779E+02  0.26281019278E+03  0.34305687377E+03  0.17200000000E+03 0. -1.
<mgrwt>
<rscale>  2 0.22049676E+03</rscale>
<asrwt>0</asrwt>
<pdfrwt beam="1">  1       21 0.31403585E+00 0.22049676E+03</pdfrwt>
<pdfrwt beam="2">  1       21 0.13218673E-01 0.22049676E+03</pdfrwt>
<totfact> 0.13490936E+03</totfact>
</mgrwt>
</event>
<event>
 4    1  0.1091654E+000  0.2102041E+03  0.7546771E-02  0.1141404E+00
         21   -1    0    0  501  502  0.00000000000E+00  0.00000000000E+00  0.81882641628E+02  0.81882641628E+02  0.00000000000E+00 0.  1.
         21   -1    0    0  502  503 -0.00000000000E+00 -0.00000000000E+00 -0.97843570647E+03  0.97843570647E+03  0.00000000000E+00 0. -1.
          6    1    1    2  501    0 -0.97549990408E+02 -0.71314542763E+02 -0.93234571196E+02  0.22995314719E+03  0.17200000000E+03 0. -1.
         -6    1    1    2    0  503  0.97549990408E+02  0.71314542763E+02 -0.80331849364E+03  0.83036520090E+03  0.17200000000E+03 0. -1.
<mgrwt>
<rscale>  2 0.21020410E+03</rscale>
<asrwt>0</asrwt>
<pdfrwt beam="1">  1       21 0.20470661E-01 0.21020410E+03</pdfrwt>
<pdfrwt beam="2">  1       21 0.24460892E+00 0.21020410E+03</pdfrwt>
<totfact> 0.15500834E+03</totfact>
</mgrwt>
</event>
<event>
 4    1  0.1091654E+000  0.1864801E+03  0.7546771E-02  0.1161675E+00
         21   -1    0    0  503  502  0.00000000000E+00  0.00000000000E+00  0.68110002708E+03  0.68110002708E+03  0.00000000000E+00 0.  1.
         21   -1    0    0  501  503 -0.00000000000E+00 -0.00000000000E+00 -0.66992789513E+02  0.66992789513E+02  0.00000000000E+00 0.  1.
          6    1    1    2  501    0  0.72035849218E+02 -0.12855222264E+01  0.12462187477E+03  0.22428871530E+03  0.17200000000E+03 0.  1.
         -6    1    1    2    0  502 -0.72035849218E+02  0.12855222264E+01  0.48948536279E+03  0.52380410129E+03  0.17200000000E+03 0.  1.
<mgrwt>
<rscale>  2 0.18648007E+03</rscale>
<asrwt>0</asrwt>
<pdfrwt beam="1">  1       21 0.17027499E+00 0.18648007E+03</pdfrwt>
<pdfrwt beam="2">  1       21 0.16748200E-01 0.18648007E+03</pdfrwt>
<totfact> 0.68470970E+03</totfact>
</mgrwt>
</event>
<event>
 4    1  0.1091654E+000  0.1803349E+03  0.7546771E-02  0.1167479E+00
         21   -1    0    0  503  502  0.00000000000E+00  0.00000000000E+00  0.22511518491E+03  0.22511518491E+03  0.00000000000E+00 0.  1.
         21   -1    0    0  501  503 -0.00000000000E+00 -0.00000000000E+00 -0.15270547683E+03  0.15270547683E+03  0.00000000000E+00 0.  1.
          6    1    1    2  501    0 -0.27166835681E+02  0.46889523592E+02 -0.76860867606E+01  0.18049858812E+03  0.17200000000E+03 0.  1.
         -6    1    1    2    0  502  0.27166835681E+02 -0.46889523592E+02  0.80095794842E+02  0.19732207361E+03  0.17200000000E+03 0.  1.
<mgrwt>
<rscale>  2 0.18033487E+03</rscale>
<asrwt>0</asrwt>
<pdfrwt beam="1">  1       21 0.56278796E-01 0.18033487E+03</pdfrwt>
<pdfrwt beam="2">  1       21 0.38176369E-01 0.18033487E+03</pdfrwt>
<totfact> 0.19803115E+04</totfact>
</mgrwt>
</event>
<event>
 4    1  0.1091654E+000  0.1938384E+03  0.7546771E-02  0.1155044E+00
         21   -1    0    0  501  502  0.00000000000E+00  0.00000000000E+00  0.47269716537E+02  0.47269716537E+02  0.00000000000E+00 0. -1.
         21   -1    0    0  502  503 -0.00000000000E+00 -0.00000000000E+00 -0.95385988585E+03  0.95385988585E+03  0.00000000000E+00 0. -1.
          6    1    1    2  501    0  0.88911990427E+02 -0.91646086424E+01 -0.24893256596E+03  0.31550079951E+03  0.17200000000E+03 0. -1.
         -6    1    1    2    0  503 -0.88911990427E+02  0.91646086424E+01 -0.65765760335E+03  0.68562880288E+03  0.17200000000E+03 0. -1.
<mgrwt>
<rscale>  2 0.19383842E+03</rscale>
<asrwt>0</asrwt>
<pdfrwt beam="1">  1       21 0.11817430E-01 0.19383842E+03</pdfrwt>
<pdfrwt beam="2">  1       21 0.23846496E+00 0.19383842E+03</pdfrwt>
<totfact> 0.46871806E+03</totfact>
</mgrwt>
</event>
<event>
 4    1  0.1091654E+000  0.1720966E+03  0.7546771E-02  0.1175679E+00
         21   -1    0    0  503  502  0.00000000000E+00  0.00000000000E+00  0.14568831368E+03  0.14568831368E+03  0.00000000000E+00 0.  1.
         21   -1    0    0  501  503 -0.00000000000E+00 -0.00000000000E+00 -0.32073212827E+03  0.32073212827E+03  0.00000000000E+00 0.  1.
          6    1    1    2  501    0  0.18511366925E+01 -0.54612859628E+01 -0.22864068718E+03  0.28617095623E+03  0.17200000000E+03 0.  1.
         -6    1    1    2    0  502 -0.18511366925E+01  0.54612859628E+01  0.53596872599E+02  0.18024948572E+03  0.17200000000E+03 0.  1.
<mgrwt>
<rscale>  2 0.17209664E+03</rscale>
<asrwt>0</asrwt>
<pdfrwt beam="1">  1       21 0.36422079E-01 0.17209664E+03</pdfrwt>
<pdfrwt beam="2">  1       21 0.80183031E-01 0.17209664E+03</pdfrwt>
<totfact> 0.10093620E+04</totfact>
</mgrwt>
</event>
<event>
 4    1  0.1091654E+000  0.2348146E+03  0.7546771E-02  0.1123296E+00
         21   -1    0    0  503  502  0.00000000000E+00  0.00000000000E+00  0.14538406263E+04  0.14538406263E+04  0.00000000000E+00 0.  1.
         21   -1    0    0  501  503 -0.00000000000E+00 -0.00000000000E+00 -0.81967827082E+02  0.81967827082E+02  0.00000000000E+00 0.  1.
          6    1    1    2  501    0  0.98853745738E+02  0.12562585688E+03  0.12305162077E+03  0.26510303721E+03  0.17200000000E+03 0.  1.
         -6    1    1    2    0  502 -0.98853745738E+02 -0.12562585688E+03  0.12488211784E+04  0.12707054161E+04  0.17200000000E+03 0.  1.
<mgrwt>
<rscale>  2 0.23481465E+03</rscale>
<asrwt>0</asrwt>
<pdfrwt beam="1">  1       21 0.36346007E+00 0.23481465E+03</pdfrwt>
<pdfrwt beam="2">  1       21 0.20491961E-01 0.23481465E+03</pdfrwt>
<totfact> 0.30136334E+02</totfact>
</mgrwt>
</event>
<event>
 4    1  0.1091654E+000  0.2016036E+03  0.7546771E-02  0.1148393E+00
         21   -1    0    0  503  502  0.00000000000E+00  0.00000000000E+00  0.37953778985E+03  0.37953778985E+03  0.00000000000E+00 0.  1.
         21   -1    0    0  501  503 -0.00000000000E+00 -0.00000000000E+00 -0.10709069128E+03  0.10709069128E+03  0.00000000000E+00 0. -1.
          6    1    1    2  501    0 -0.87339102717E+02 -0.58582329560E+02  0.13740362870E+03  0.24397492777E+03  0.17200000000E+03 0. -1.
         -6    1    1    2    0  502  0.87339102717E+02  0.58582329560E+02  0.13504346987E+03  0.24265355335E+03  0.17200000000E+03 0.  1.
<mgrwt>
<rscale>  2 0.20160359E+03</rscale>
<asrwt>0</asrwt>
<pdfrwt beam="1">  1       21 0.94884444E-01 0.20160359E+03</pdfrwt>
<pdfrwt beam="2">  1       21 0.26772674E-01 0.20160359E+03</pdfrwt>
<totfact> 0.12265682E+04</totfact>
</mgrwt>
</event>
<event>
 4    1  0.1091654E+000  0.1879394E+03  0.7546771E-02  0.1160333E+00
         21   -1    0    0  503  502  0.00000000000E+00  0.00000000000E+00  0.92654485463E+03  0.92654485463E+03  0.00000000000E+00 0.  1.
         21   -1    0    0  501  503 -0.00000000000E+00 -0.00000000000E+00 -0.43799212365E+02  0.43799212365E+02  0.00000000000E+00 0.  1.
          6    1    1    2  501    0 -0.41098961340E+02 -0.63624591082E+02  0.26668925646E+03  0.32625813817E+03  0.17200000000E+03 0.  1.
         -6    1    1    2    0  502  0.41098961340E+02  0.63624591082E+02  0.61605638580E+03  0.64408592882E+03  0.17200000000E+03 0.  1.
<mgrwt>
<rscale>  2 0.18793939E+03</rscale>
<asrwt>0</asrwt>
<pdfrwt beam="1">  1       21 0.23163615E+00 0.18793939E+03</pdfrwt>
<pdfrwt beam="2">  1       21 0.10949806E-01 0.18793939E+03</pdfrwt>
<totfact> 0.59342636E+03</totfact>
</mgrwt>
</event>
<event>
 4    1  0.1091654E+000  0.2185379E+03  0.7546771E-02  0.1134978E+00
         21   -1    0    0  503  502  0.00000000000E+00  0.00000000000E+00  0.17484276427E+03  0.17484276427E+03  0.00000000000E+00 0. -1.
         21   -1    0    0  501  503 -0.00000000000E+00 -0.00000000000E+00 -0.30001172598E+03  0.30001172598E+03  0.00000000000E+00 0.  1.
          6    1    1    2  501    0  0.40299219983E+02  0.12864991736E+03 -0.13362465451E+03  0.25615303368E+03  0.17200000000E+03 0.  1.
         -6    1    1    2    0  502 -0.40299219983E+02 -0.12864991736E+03  0.84556928048E+01  0.21870145658E+03  0.17200000000E+03 0. -1.
<mgrwt>
<rscale>  2 0.21853793E+03</rscale>
<asrwt>0</asrwt>
<pdfrwt beam="1">  1       21 0.43710691E-01 0.21853793E+03</pdfrwt>
<pdfrwt beam="2">  1       21 0.75002931E-01 0.21853793E+03</pdfrwt>
<totfact> 0.78521629E+03</totfact>
</mgrwt>
</event>
<event>
 4    1  0.1091654E+000  0.1925436E+03  0.7546771E-02  0.1156187E+00
         21   -1    0    0  503  502  0.00000000000E+00  0.00000000000E+00  0.70305638490E+03  0.70305638490E+03  0.00000000000E+00 0.  1.
         21   -1    0    0  501  503 -0.00000000000E+00 -0.00000000000E+00 -0.10467152143E+03  0.10467152143E+03  0.00000000000E+00 0.  1.
          6    1    1    2  501    0  0.83378934195E+02 -0.23172706215E+02  0.14698468115E+02  0.19310376989E+03  0.17200000000E+03 0.  1.
         -6    1    1    2    0  502 -0.83378934195E+02  0.23172706215E+02  0.58368639535E+03  0.61462413644E+03  0.17200000000E+03 0.  1.
<mgrwt>
<rscale>  2 0.19254356E+03</rscale>
<asrwt>0</asrwt>
<pdfrwt beam="1">  1       21 0.17576408E+00 0.19254356E+03</pdfrwt>
<pdfrwt beam="2">  1       21 0.26167882E-01 0.19254356E+03</pdfrwt>
<totfact> 0.27005548E+03</totfact>
</mgrwt>
</event>
<event>
 4    1  0.1091654E+000  0.2246310E+03  0.7546771E-02  0.1130477E+00
         21   -1    0    0  501  502  0.00000000000E+00  0.00000000000E+00  0.91714261683E+02  0.91714261683E+02  0.00000000000E+00 0. -1.
         21   -1    0    0  502  503 -0.00000000000E+00 -0.00000000000E+00 -0.56434358393E+03  0.56434358393E+03  0.00000000000E+00 0.  1.
          6    1    1    2  501    0 -0.15595898529E+02 -0.14363797373E+03 -0.28828663378E+03  0.36546994783E+03  0.17200000000E+03 0.  1.
         -6    1    1    2    0  503  0.15595898529E+02  0.14363797373E+03 -0.18434268847E+03  0.29058789779E+03  0.17200000000E+03 0. -1.
<mgrwt>
<rscale>  2 0.22463103E+03</rscale>
<asrwt>0</asrwt>
<pdfrwt beam="1">  1       21 0.22928566E-01 0.22463103E+03</pdfrwt>
<pdfrwt beam="2">  1       21 0.14108589E+00 0.22463103E+03</pdfrwt>
<totfact> 0.61098535E+03</totfact>
</mgrwt>
</event>
<event>
 4    1  0.1091654E+000  0.2331611E+03  0.7546771E-02  0.1124434E+00
         21   -1    0    0  501  502  0.00000000000E+00  0.00000000000E+00  0.90587423980E+03  0.90587423980E+03  0.00000000000E+00 0. -1.
         21   -1    0    0  502  503 -0.00000000000E+00 -0.00000000000E+00 -0.60080433393E+02  0.60080433393E+02  0.00000000000E+00 0.  1.
          6    1    1    2  501    0  0.67273979894E+02 -0.14231770383E+03  0.43909265204E+03  0.49715839957E+03  0.17200000000E+03 0.  1.
         -6    1    1    2    0  503 -0.67273979894E+02  0.14231770383E+03  0.40670115437E+03  0.46879627362E+03  0.17200000000E+03 0. -1.
<mgrwt>
<rscale>  2 0.23316114E+03</rscale>
<asrwt>0</asrwt>
<pdfrwt beam="1">  1       21 0.22646852E+00 0.23316114E+03</pdfrwt>
<pdfrwt beam="2">  1       21 0.15020111E-01 0.23316114E+03</pdfrwt>
<totfact> 0.34584490E+03</totfact>
</mgrwt>
</event>
<event>
 4    1  0.1091654E+000  0.1851177E+03  0.7546771E-02  0.1162940E+00
         21   -1    0    0  503  502  0.00000000000E+00  0.00000000000E+00  0.20457931533E+03  0.20457931533E+03  0.00000000000E+00 0.  1.
         21   -1    0    0  501  503 -0.00000000000E+00 -0.00000000000E+00 -0.16960793928E+03  0.16960793928E+03  0.00000000000E+00 0. -1.
          6    1    1    2  501    0 -0.39378410989E+02  0.55981124119E+02 -0.33353883542E+01  0.18514769868E+03  0.17200000000E+03 0.  1.
         -6    1    1    2    0  502  0.39378410989E+02 -0.55981124119E+02  0.38306764410E+02  0.18903955594E+03  0.17200000000E+03 0.  1.
<mgrwt>
<rscale>  2 0.18511765E+03</rscale>
<asrwt>0</asrwt>
<pdfrwt beam="1">  1       21 0.51144829E-01 0.18511765E+03</pdfrwt>
<pdfrwt beam="2">  1       21 0.42401985E-01 0.18511765E+03</pdfrwt>
<totfact> 0.19536989E+04</totfact>
</mgrwt>
</event>
<event>
 4    1  0.1091654E+000  0.2102782E+03  0.7546771E-02  0.1141346E+00
         21   -1    0    0  501  502  0.00000000000E+00  0.00000000000E+00  0.15736325637E+03  0.15736325637E+03  0.00000000000E+00 0. -1.
         21   -1    0    0  502  503 -0.00000000000E+00 -0.00000000000E+00 -0.40547356001E+03  0.40547356001E+03  0.00000000000E+00 0.  1.
          6    1    1    2  501    0  0.71175735273E+02  0.97810633645E+02  0.31876341972E+02  0.21268052690E+03  0.17200000000E+03 0.  1.
         -6    1    1    2    0  503 -0.71175735273E+02 -0.97810633645E+02 -0.27998664561E+03  0.35015628948E+03  0.17200000000E+03 0. -1.
<mgrwt>
<rscale>  2 0.21027816E+03</rscale>
<asrwt>0</asrwt>
<pdfrwt beam="1">  1       21 0.39340814E-01 0.21027816E+03</pdfrwt>
<pdfrwt beam="2">  1       21 0.10136839E+00 0.21027816E+03</pdfrwt>
<totfact> 0.48830476E+03</totfact>
</mgrwt>
</event>
<event>
 4    1  0.1091654E+000  0.1722060E+03  0.7546771E-02  0.1175567E+00
         21   -1    0    0  503  502  0.00000000000E+00  0.00000000000E+00  0.14204586611E+03  0.14204586611E+03  0.00000000000E+00 0.  1.
         21   -1    0    0  501  503 -0.00000000000E+00 -0.00000000000E+00 -0.22775917710E+03  0.22775917710E+03  0.00000000000E+00 0.  1.
          6    1    1    2  501    0 -0.83867530324E+01  0.76204637695E+00 -0.96246386464E+02  0.19727717873E+03  0.17200000000E+03 0. -1.
         -6    1    1    2    0  502  0.83867530324E+01 -0.76204637695E+00  0.10533075473E+02  0.17252786447E+03  0.17200000000E+03 0. -1.
<mgrwt>
<rscale>  2 0.17220603E+03</rscale>
<asrwt>0</asrwt>
<pdfrwt beam="1">  1       21 0.35511467E-01 0.17220603E+03</pdfrwt>
<pdfrwt beam="2">  1       21 0.56939794E-01 0.17220603E+03</pdfrwt>
<totfact> 0.22427889E+04</totfact>
</mgrwt>
</event>
<event>
 4    1  0.1091654E+000  0.2286554E+03  0.7546771E-02  0.1127590E+00
         21   -1    0    0  501  502  0.00000000000E+00  0.00000000000E+00  0.40288748926E+02  0.40288748926E+02  0.00000000000E+00 0. -1.
         21   -1    0    0  502  503 -0.00000000000E+00 -0.00000000000E+00 -0.13463893817E+04  0.13463893817E+04  0.00000000000E+00 0. -1.
          6    1    1    2  501    0  0.84419734315E+02 -0.12479020129E+03 -0.78488013263E+03  0.81750847609E+03  0.17200000000E+03 0. -1.
         -6    1    1    2    0  503 -0.84419734315E+02  0.12479020129E+03 -0.52122050018E+03  0.56916965458E+03  0.17200000000E+03 0. -1.
<mgrwt>
<rscale>  2 0.22865539E+03</rscale>
<asrwt>0</asrwt>
<pdfrwt beam="1">  1       21 0.10072187E-01 0.22865539E+03</pdfrwt>
<pdfrwt beam="2">  1       21 0.33659734E+00 0.22865539E+03</pdfrwt>
<totfact> 0.16039160E+03</totfact>
</mgrwt>
</event>
<event>
 4    1  0.1091654E+000  0.2450244E+03  0.7546771E-02  0.1116490E+00
         21   -1    0    0  503  502  0.00000000000E+00  0.00000000000E+00  0.30319691201E+03  0.30319691201E+03  0.00000000000E+00 0.  1.
         21   -1    0    0  501  503 -0.00000000000E+00 -0.00000000000E+00 -0.31642160558E+03  0.31642160558E+03  0.00000000000E+00 0.  1.
          6    1    1    2  501    0  0.11870957115E+03  0.12791015843E+03 -0.19613132861E+03  0.31385421612E+03  0.17200000000E+03 0.  1.
         -6    1    1    2    0  502 -0.11870957115E+03 -0.12791015843E+03  0.18290663504E+03  0.30576430148E+03  0.17200000000E+03 0.  1.
<mgrwt>
<rscale>  2 0.24502443E+03</rscale>
<asrwt>0</asrwt>
<pdfrwt beam="1">  1       21 0.75799228E-01 0.24502443E+03</pdfrwt>
<pdfrwt beam="2">  1       21 0.79105401E-01 0.24502443E+03</pdfrwt>
<totfact> 0.20989983E+03</totfact>
</mgrwt>
</event>
<event>
 4    1  0.1091654E+000  0.1828287E+03  0.7546771E-02  0.1165093E+00
         21   -1    0    0  503  502  0.00000000000E+00  0.00000000000E+00  0.17278862262E+03  0.17278862262E+03  0.00000000000E+00 0.  1.
         21   -1    0    0  501  503 -0.00000000000E+00 -0.00000000000E+00 -0.26149486695E+03  0.26149486695E+03  0.00000000000E+00 0. -1.
          6    1    1    2  501    0 -0.60028545103E+02 -0.15456504627E+02 -0.15511812852E+03  0.23976647714E+03  0.17200000000E+03 0. -1.
         -6    1    1    2    0  502  0.60028545103E+02  0.15456504627E+02  0.66411884202E+02  0.19451701243E+03  0.17200000000E+03 0. -1.
<mgrwt>
<rscale>  2 0.18282869E+03</rscale>
<asrwt>0</asrwt>
<pdfrwt beam="1">  1       21 0.43197156E-01 0.18282869E+03</pdfrwt>
<pdfrwt beam="2">  1       21 0.65373716E-01 0.18282869E+03</pdfrwt>
<totfact> 0.11164365E+04</totfact>
</mgrwt>
</event>
<event>
 4    1  0.1091654E+000  0.1824669E+03  0.7546771E-02  0.1165437E+00
         21   -1    0    0  501  502  0.00000000000E+00  0.00000000000E+00  0.87325216466E+03  0.87325216466E+03  0.00000000000E+00 0. -1.
         21   -1    0    0  502  503 -0.00000000000E+00 -0.00000000000E+00 -0.40137919517E+02  0.40137919517E+02  0.00000000000E+00 0.  1.
          6    1    1    2  501    0  0.36280183915E+02  0.48927864379E+02  0.51878821766E+03  0.54994127181E+03  0.17200000000E+03 0.  1.
         -6    1    1    2    0  503 -0.36280183915E+02 -0.48927864379E+02  0.31432602748E+03  0.36344881237E+03  0.17200000000E+03 0.  1.
<mgrwt>
<rscale>  2 0.18246695E+03</rscale>
<asrwt>0</asrwt>
<pdfrwt beam="1">  1       21 0.21831298E+00 0.18246695E+03</pdfrwt>
<pdfrwt beam="2">  1       21 0.10034483E-01 0.18246695E+03</pdfrwt>
<totfact> 0.83877259E+03</totfact>
</mgrwt>
</event>
<event>
 4    1  0.1091654E+000  0.2318611E+03  0.7546771E-02  0.1125337E+00
         21   -1    0    0  501  502  0.00000000000E+00  0.00000000000E+00  0.38140010709E+03  0.38140010709E+03  0.00000000000E+00 0.  1.
         21   -1    0    0  502  503 -0.00000000000E+00 -0.00000000000E+00 -0.15897005757E+03  0.15897005757E+03  0.00000000000E+00 0. -1.
          6    1    1    2  501    0  0.38868147852E+02  0.15054847587E+03  0.20256610942E+02  0.23274429486E+03  0.17200000000E+03 0. -1.
         -6    1    1    2    0  503 -0.38868147852E+02 -0.15054847587E+03  0.20217343858E+03  0.30762586980E+03  0.17200000000E+03 0. -1.
<mgrwt>
<rscale>  2 0.23186111E+03</rscale>
<asrwt>0</asrwt>
<pdfrwt beam="1">  1       21 0.95350025E-01 0.23186111E+03</pdfrwt>
<pdfrwt beam="2">  1       21 0.39742515E-01 0.23186111E+03</pdfrwt>
<totfact> 0.54459720E+03</totfact>
</mgrwt>
</event>
<event>
 4    1  0.1091654E+000  0.1727783E+03  0.7546771E-02  0.1174981E+00
         21   -1    0    0  501  502  0.00000000000E+00  0.00000000000E+00  0.36258967968E+03  0.36258967968E+03  0.00000000000E+00 0.  1.
         21   -1    0    0  502  503 -0.00000000000E+00 -0.00000000000E+00 -0.95694450250E+02  0.95694450250E+02  0.00000000000E+00 0.  1.
          6    1    1    2  501    0  0.12697945300E+02 -0.10348385102E+02  0.21907697910E+03  0.27901084148E+03  0.17200000000E+03 0.  1.
         -6    1    1    2    0  503 -0.12697945300E+02  0.10348385102E+02  0.47818250331E+02  0.17927328846E+03  0.17200000000E+03 0.  1.
<mgrwt>
<rscale>  2 0.17277826E+03</rscale>
<asrwt>0</asrwt>
<pdfrwt beam="1">  1       21 0.90647417E-01 0.17277826E+03</pdfrwt>
<pdfrwt beam="2">  1       21 0.23923613E-01 0.17277826E+03</pdfrwt>
<totfact> 0.17238295E+04</totfact>
</mgrwt>
</event>
<event>
 4    1  0.1091654E+000  0.2210251E+03  0.7546771E-02  0.1133121E+00
         21   -1    0    0  503  502  0.00000000000E+00  0.00000000000E+00  0.54292193975E+03  0.54292193975E+03  0.00000000000E+00 0.  1.
         21   -1    0    0  501  503 -0.00000000000E+00 -0.00000000000E+00 -0.10731339437E+03  0.10731339437E+03  0.00000000000E+00 0.  1.
          6    1    1    2  501    0  0.92399095313E+02  0.10358812691E+03  0.87140272291E+02  0.23758265910E+03  0.17200000000E+03 0.  1.
         -6    1    1    2    0  502 -0.92399095313E+02 -0.10358812691E+03  0.34846827309E+03  0.41265267502E+03  0.17200000000E+03 0.  1.
<mgrwt>
<rscale>  2 0.22102510E+03</rscale>
<asrwt>0</asrwt>
<pdfrwt beam="1">  1       21 0.13573048E+00 0.22102510E+03</pdfrwt>
<pdfrwt beam="2">  1       21 0.26828350E-01 0.22102510E+03</pdfrwt>
<totfact> 0.50126957E+03</totfact>
</mgrwt>
</event>
<event>
 4    1  0.1091654E+000  0.2064766E+03  0.7546771E-02  0.1144387E+00
         21   -1    0    0  503  502  0.00000000000E+00  0.00000000000E+00  0.41893169919E+02  0.41893169919E+02  0.00000000000E+00 0. -1.
         21   -1    0    0  501  503 -0.00000000000E+00 -0.00000000000E+00 -0.12773963389E+04  0.12773963389E+04  0.00000000000E+00 0. -1.
          6    1    1    2  501    0 -0.91787040793E+02 -0.67997926532E+02 -0.91520715526E+03  0.93820931349E+03  0.17200000000E+03 0. -1.
         -6    1    1    2    0  502  0.91787040793E+02  0.67997926532E+02 -0.32029601371E+03  0.38108019533E+03  0.17200000000E+03 0. -1.
<mgrwt>
<rscale>  2 0.20647658E+03</rscale>
<asrwt>0</asrwt>
<pdfrwt beam="1">  1       21 0.10473292E-01 0.20647658E+03</pdfrwt>
<pdfrwt beam="2">  1       21 0.31934910E+00 0.20647658E+03</pdfrwt>
<totfact> 0.19395279E+03</totfact>
</mgrwt>
</event>
<event>
 4    1  0.1091654E+000  0.1836230E+03  0.7546771E-02  0.1164342E+00
         21   -1    0    0  501  502  0.00000000000E+00  0.00000000000E+00  0.49872625275E+03  0.49872625275E+03  0.00000000000E+00 0.  1.
         21   -1    0    0  502  503 -0.00000000000E+00 -0.00000000000E+00 -0.12442969148E+03  0.12442969148E+03  0.00000000000E+00 0.  1.
          6    1    1    2  501    0  0.20887285118E+01 -0.64257638284E+02  0.39770323896E+03  0.43804711293E+03  0.17200000000E+03 0.  1.
         -6    1    1    2    0  503 -0.20887285118E+01  0.64257638284E+02 -0.23406677687E+02  0.18510883130E+03  0.17200000000E+03 0.  1.
<mgrwt>
<rscale>  2 0.18362300E+03</rscale>
<asrwt>0</asrwt>
<pdfrwt beam="1">  1       21 0.12468156E+00 0.18362300E+03</pdfrwt>
<pdfrwt beam="2">  1       21 0.31107424E-01 0.18362300E+03</pdfrwt>
<totfact> 0.48018994E+03</totfact>
</mgrwt>
</event>
<event>
 4    1  0.1091654E+000  0.1969450E+03  0.7546771E-02  0.1152342E+00
         21   -1    0    0  501  502  0.00000000000E+00  0.00000000000E+00  0.20308731038E+03  0.20308731038E+03  0.00000000000E+00 0.  1.
         21   -1    0    0  502  503 -0.00000000000E+00 -0.00000000000E+00 -0.20097558439E+03  0.20097558439E+03  0.00000000000E+00 0.  1.
          6    1    1    2  501    0 -0.95853789295E+02  0.39201428986E+01 -0.43981120078E+02  0.20179607371E+03  0.17200000000E+03 0.  1.
         -6    1    1    2    0  503  0.95853789295E+02 -0.39201428986E+01  0.46092846066E+02  0.20226682106E+03  0.17200000000E+03 0.  1.
<mgrwt>
<rscale>  2 0.19694496E+03</rscale>
<asrwt>0</asrwt>
<pdfrwt beam="1">  1       21 0.50771828E-01 0.19694496E+03</pdfrwt>
<pdfrwt beam="2">  1       21 0.50243896E-01 0.19694496E+03</pdfrwt>
<totfact> 0.13881880E+04</totfact>
</mgrwt>
</event>
<event>
 4    1  0.1091654E+000  0.1791314E+03  0.7546771E-02  0.1168646E+00
         21   -1    0    0  501  502  0.00000000000E+00  0.00000000000E+00  0.78506857318E+03  0.78506857318E+03  0.00000000000E+00 0.  1.
         21   -1    0    0  502  503 -0.00000000000E+00 -0.00000000000E+00 -0.45407849673E+02  0.45407849673E+02  0.00000000000E+00 0.  1.
          6    1    1    2  501    0 -0.38437608095E+02 -0.32040530419E+02  0.50105551918E+03  0.53211340766E+03  0.17200000000E+03 0.  1.
         -6    1    1    2    0  503  0.38437608095E+02  0.32040530419E+02  0.23860520432E+03  0.29836301519E+03  0.17200000000E+03 0.  1.
<mgrwt>
<rscale>  2 0.17913136E+03</rscale>
<asrwt>0</asrwt>
<pdfrwt beam="1">  1       21 0.19626710E+00 0.17913136E+03</pdfrwt>
<pdfrwt beam="2">  1       21 0.11351965E-01 0.17913136E+03</pdfrwt>
<totfact> 0.93042548E+03</totfact>
</mgrwt>
</event>
<event>
 4    1  0.1091654E+000  0.1879848E+03  0.7546771E-02  0.1160292E+00
         21   -1    0    0  501  502  0.00000000000E+00  0.00000000000E+00  0.34879085879E+03  0.34879085879E+03  0.00000000000E+00 0. -1.
         21   -1    0    0  502  503 -0.00000000000E+00 -0.00000000000E+00 -0.18388956559E+03  0.18388956559E+03  0.00000000000E+00 0.  1.
          6    1    1    2  501    0 -0.75686947802E+02  0.50753440947E+01  0.26092563852E+03  0.32159051917E+03  0.17200000000E+03 0. -1.
         -6    1    1    2    0  503  0.75686947802E+02 -0.50753440947E+01 -0.96024345315E+02  0.21108990520E+03  0.17200000000E+03 0.  1.
<mgrwt>
<rscale>  2 0.18798477E+03</rscale>
<asrwt>0</asrwt>
<pdfrwt beam="1">  1       21 0.87197714E-01 0.18798477E+03</pdfrwt>
<pdfrwt beam="2">  1       21 0.45972392E-01 0.18798477E+03</pdfrwt>
<totfact> 0.51437059E+03</totfact>
</mgrwt>
</event>
<event>
 4    1  0.1091654E+000  0.1846111E+03  0.7546771E-02  0.1163414E+00
         21   -1    0    0  503  502  0.00000000000E+00  0.00000000000E+00  0.11145374006E+03  0.11145374006E+03  0.00000000000E+00 0.  1.
         21   -1    0    0  501  503 -0.00000000000E+00 -0.00000000000E+00 -0.13036500906E+04  0.13036500906E+04  0.00000000000E+00 0.  1.
          6    1    1    2  501    0 -0.49156836778E+02 -0.45616443292E+02 -0.12151300025E+04  0.12290737071E+04  0.17200000000E+03 0.  1.
         -6    1    1    2    0  502  0.49156836778E+02  0.45616443292E+02  0.22933651917E+02  0.18603012361E+03  0.17200000000E+03 0.  1.
<mgrwt>
<rscale>  2 0.18461109E+03</rscale>
<asrwt>0</asrwt>
<pdfrwt beam="1">  1       21 0.27863435E-01 0.18461109E+03</pdfrwt>
<pdfrwt beam="2">  1       21 0.32591252E+00 0.18461109E+03</pdfrwt>
<totfact> 0.30136170E+02</totfact>
</mgrwt>
</event>
<event>
 4    1  0.1091654E+000  0.1744035E+03  0.7546771E-02  0.1173332E+00
         21   -1    0    0  503  502  0.00000000000E+00  0.00000000000E+00  0.55847978057E+02  0.55847978057E+02  0.00000000000E+00 0. -1.
         21   -1    0    0  501  503 -0.00000000000E+00 -0.00000000000E+00 -0.73010913165E+03  0.73010913165E+03  0.00000000000E+00 0. -1.
          6    1    1    2  501    0 -0.97585742157E+01 -0.27153888246E+02 -0.53520154720E+03  0.56290075462E+03  0.17200000000E+03 0. -1.
         -6    1    1    2    0  502  0.97585742157E+01  0.27153888246E+02 -0.13905960639E+03  0.22305635509E+03  0.17200000000E+03 0. -1.
<mgrwt>
<rscale>  2 0.17440345E+03</rscale>
<asrwt>0</asrwt>
<pdfrwt beam="1">  1       21 0.13961995E-01 0.17440345E+03</pdfrwt>
<pdfrwt beam="2">  1       21 0.18252728E+00 0.17440345E+03</pdfrwt>
<totfact> 0.79406383E+03</totfact>
</mgrwt>
</event>
<event>
 4    1  0.1091654E+000  0.1779890E+03  0.7546771E-02  0.1169764E+00
         21   -1    0    0  503  502  0.00000000000E+00  0.00000000000E+00  0.44825511966E+03  0.44825511966E+03  0.00000000000E+00 0. -1.
         21   -1    0    0  501  503 -0.00000000000E+00 -0.00000000000E+00 -0.15766224134E+03  0.15766224134E+03  0.00000000000E+00 0. -1.
          6    1    1    2  501    0 -0.37388403978E+01  0.45630085401E+02 -0.79738143183E+02  0.19503398447E+03  0.17200000000E+03 0. -1.
         -6    1    1    2    0  502  0.37388403978E+01 -0.45630085401E+02  0.37033102150E+03  0.41088337653E+03  0.17200000000E+03 0. -1.
<mgrwt>
<rscale>  2 0.17798900E+03</rscale>
<asrwt>0</asrwt>
<pdfrwt beam="1">  1       21 0.11206378E+00 0.17798900E+03</pdfrwt>
<pdfrwt beam="2">  1       21 0.39415561E-01 0.17798900E+03</pdfrwt>
<totfact> 0.39228479E+03</totfact>
</mgrwt>
</event>
<event>
 4    1  0.1091654E+000  0.1723746E+03  0.7546771E-02  0.1175394E+00
         21   -1    0    0  501  502  0.00000000000E+00  0.00000000000E+00  0.51274972953E+02  0.51274972953E+02  0.00000000000E+00 0. -1.
         21   -1    0    0  502  503 -0.00000000000E+00 -0.00000000000E+00 -0.58359900893E+03  0.58359900893E+03  0.00000000000E+00 0. -1.
          6    1    1    2  501    0  0.30265232533E+01 -0.10947371122E+02 -0.29281881294E+03  0.33978796622E+03  0.17200000000E+03 0. -1.
         -6    1    1    2    0  503 -0.30265232533E+01  0.10947371122E+02 -0.23950522304E+03  0.29508601567E+03  0.17200000000E+03 0. -1.
<mgrwt>
<rscale>  2 0.17237461E+03</rscale>
<asrwt>0</asrwt>
<pdfrwt beam="1">  1       21 0.12818744E-01 0.17237461E+03</pdfrwt>
<pdfrwt beam="2">  1       21 0.14589975E+00 0.17237461E+03</pdfrwt>
<totfact> 0.16998006E+04</totfact>
</mgrwt>
</event>
<event>
 4    1  0.1091654E+000  0.1845417E+03  0.7546771E-02  0.1163479E+00
         21   -1    0    0  503  502  0.00000000000E+00  0.00000000000E+00  0.44476680454E+03  0.44476680454E+03  0.00000000000E+00 0.  1.
         21   -1    0    0  501  503 -0.00000000000E+00 -0.00000000000E+00 -0.25049802413E+03  0.25049802413E+03  0.00000000000E+00 0.  1.
          6    1    1    2  501    0 -0.60223029747E+02  0.29065652352E+02 -0.19253550867E+03  0.26669373363E+03  0.17200000000E+03 0.  1.
         -6    1    1    2    0  502  0.60223029747E+02 -0.29065652352E+02  0.38680428907E+03  0.42857109504E+03  0.17200000000E+03 0.  1.
<mgrwt>
<rscale>  2 0.18454166E+03</rscale>
<asrwt>0</asrwt>
<pdfrwt beam="1">  1       21 0.11119170E+00 0.18454166E+03</pdfrwt>
<pdfrwt beam="2">  1       21 0.62624507E-01 0.18454166E+03</pdfrwt>
<totfact> 0.15153382E+03</totfact>
</mgrwt>
</event>
<event>
 4    1  0.1091654E+000  0.1897158E+03  0.7546771E-02  0.1158718E+00
         21   -1    0    0  501  502  0.00000000000E+00  0.00000000000E+00  0.44199666501E+03  0.44199666501E+03  0.00000000000E+00 0. -1.
         21   -1    0    0  502  503 -0.00000000000E+00 -0.00000000000E+00 -0.81484460463E+02  0.81484460463E+02  0.00000000000E+00 0. -1.
          6    1    1    2  501    0  0.70484046649E+02 -0.37948270152E+02  0.17352942349E+03  0.25710801788E+03  0.17200000000E+03 0. -1.
         -6    1    1    2    0  503 -0.70484046649E+02  0.37948270152E+02  0.18698278105E+03  0.26637310760E+03  0.17200000000E+03 0. -1.
<mgrwt>
<rscale>  2 0.18971577E+03</rscale>
<asrwt>0</asrwt>
<pdfrwt beam="1">  1       21 0.11049916E+00 0.18971577E+03</pdfrwt>
<pdfrwt beam="2">  1       21 0.20371116E-01 0.18971577E+03</pdfrwt>
<totfact> 0.14435896E+04</totfact>
</mgrwt>
</event>
<event>
 4    1  0.1091654E+000  0.2304584E+03  0.7546771E-02  0.1126318E+00
         21   -1    0    0  503  502  0.00000000000E+00  0.00000000000E+00  0.81042298851E+03  0.81042298851E+03  0.00000000000E+00 0.  1.
         21   -1    0    0  501  503 -0.00000000000E+00 -0.00000000000E+00 -0.12621343362E+03  0.12621343362E+03  0.00000000000E+00 0.  1.
          6    1    1    2  501    0 -0.13703249306E+03  0.68914351453E+02  0.17387541784E+02  0.23111343232E+03  0.17200000000E+03 0.  1.
         -6    1    1    2    0  502  0.13703249306E+03 -0.68914351453E+02  0.66682201310E+03  0.70552298981E+03  0.17200000000E+03 0.  1.
<mgrwt>
<rscale>  2 0.23045844E+03</rscale>
<asrwt>0</asrwt>
<pdfrwt beam="1">  1       21 0.20260573E+00 0.23045844E+03</pdfrwt>
<pdfrwt beam="2">  1       21 0.31553361E-01 0.23045844E+03</pdfrwt>
<totfact> 0.11996925E+03</totfact>
</mgrwt>
</event>
<event>
 4    1  0.1091654E+000  0.2104587E+03  0.7546771E-02  0.1141203E+00
         21   -1    0    0  501  502  0.00000000000E+00  0.00000000000E+00  0.42459228030E+03  0.42459228030E+03  0.00000000000E+00 0.  1.
         21   -1    0    0  502  503 -0.00000000000E+00 -0.00000000000E+00 -0.14629462275E+03  0.14629462275E+03  0.00000000000E+00 0. -1.
          6    1    1    2  501    0 -0.46704175179E+02 -0.11192669987E+03  0.29204852424E+03  0.35997945307E+03  0.17200000000E+03 0.  1.
         -6    1    1    2    0  503  0.46704175179E+02  0.11192669987E+03 -0.13750866694E+02  0.21090744998E+03  0.17200000000E+03 0. -1.
<mgrwt>
<rscale>  2 0.21045870E+03</rscale>
<asrwt>0</asrwt>
<pdfrwt beam="1">  1       21 0.10614807E+00 0.21045870E+03</pdfrwt>
<pdfrwt beam="2">  1       21 0.36573657E-01 0.21045870E+03</pdfrwt>
<totfact> 0.50607600E+03</totfact>
</mgrwt>
</event>
<event>
 4    1  0.1091654E+000  0.2067658E+03  0.7546771E-02  0.1144153E+00
         21   -1    0    0  503  502  0.00000000000E+00  0.00000000000E+00  0.46984338592E+03  0.46984338592E+03  0.00000000000E+00 0. -1.
         21   -1    0    0  501  503 -0.00000000000E+00 -0.00000000000E+00 -0.11680266336E+03  0.11680266336E+03  0.00000000000E+00 0. -1.
          6    1    1    2  501    0  0.11162549397E+03 -0.26605458672E+02  0.38635254365E+02  0.21034444184E+03  0.17200000000E+03 0. -1.
         -6    1    1    2    0  502 -0.11162549397E+03  0.26605458672E+02  0.31440546819E+03  0.37630160744E+03  0.17200000000E+03 0. -1.
<mgrwt>
<rscale>  2 0.20676581E+03</rscale>
<asrwt>0</asrwt>
<pdfrwt beam="1">  1       21 0.11746084E+00 0.20676581E+03</pdfrwt>
<pdfrwt beam="2">  1       21 0.29200667E-01 0.20676581E+03</pdfrwt>
<totfact> 0.61847735E+03</totfact>
</mgrwt>
</event>
<event>
 4    1  0.1091654E+000  0.2099372E+03  0.7546771E-02  0.1141616E+00
         21   -1    0    0  501  502  0.00000000000E+00  0.00000000000E+00  0.18145293353E+03  0.18145293353E+03  0.00000000000E+00 0.  1.
         21   -1    0    0  502  503 -0.00000000000E+00 -0.00000000000E+00 -0.25175362138E+03  0.25175362138E+03  0.00000000000E+00 0. -1.
          6    1    1    2  501    0  0.39799712866E+02  0.11360279355E+03  0.54859459678E+01  0.21000882708E+03  0.17200000000E+03 0.  1.
         -6    1    1    2    0  503 -0.39799712866E+02 -0.11360279355E+03 -0.75786633817E+02  0.22319772784E+03  0.17200000000E+03 0. -1.
<mgrwt>
<rscale>  2 0.20993716E+03</rscale>
<asrwt>0</asrwt>
<pdfrwt beam="1">  1       21 0.45363234E-01 0.20993716E+03</pdfrwt>
<pdfrwt beam="2">  1       21 0.62938405E-01 0.20993716E+03</pdfrwt>
<totfact> 0.10768975E+04</totfact>
</mgrwt>
</event>
<event>
 4    1  0.1091654E+000  0.2227129E+03  0.7546771E-02  0.1131877E+00
         21   -1    0    0  501  502  0.00000000000E+00  0.00000000000E+00  0.71006786132E+03  0.71006786132E+03  0.00000000000E+00 0.  1.
         21   -1    0    0  502  503 -0.00000000000E+00 -0.00000000000E+00 -0.73497006831E+02  0.73497006831E+02  0.00000000000E+00 0.  1.
          6    1    1    2  501    0  0.13805258583E+03  0.30959651338E+02  0.40551133386E+03  0.46264506736E+03  0.17200000000E+03 0.  1.
         -6    1    1    2    0  503 -0.13805258583E+03 -0.30959651338E+02  0.23105952062E+03  0.32091980079E+03  0.17200000000E+03 0.  1.
<mgrwt>
<rscale>  2 0.22271286E+03</rscale>
<asrwt>0</asrwt>
<pdfrwt beam="1">  1       21 0.17751694E+00 0.22271286E+03</pdfrwt>
<pdfrwt beam="2">  1       21 0.18374254E-01 0.22271286E+03</pdfrwt>
<totfact> 0.49854482E+03</totfact>
</mgrwt>
</event>
<event>
 4    1  0.1091654E+000  0.2391979E+03  0.7546771E-02  0.1120328E+00
         21   -1    0    0  501  502  0.00000000000E+00  0.00000000000E+00  0.65712636638E+02  0.65712636638E+02  0.00000000000E+00 0.  1.
         21   -1    0    0  502  503 -0.00000000000E+00 -0.00000000000E+00 -0.90390230398E+03  0.90390230398E+03  0.00000000000E+00 0.  1.
          6    1    1    2  501    0 -0.16508548624E+03 -0.19453092387E+02 -0.32617087293E+03  0.40447877437E+03  0.17200000000E+03 0.  1.
         -6    1    1    2    0  503  0.16508548624E+03  0.19453092387E+02 -0.51201879441E+03  0.56513616624E+03  0.17200000000E+03 0.  1.
<mgrwt>
<rscale>  2 0.23919791E+03</rscale>
<asrwt>0</asrwt>
<pdfrwt beam="1">  1       21 0.16428160E-01 0.23919791E+03</pdfrwt>
<pdfrwt beam="2">  1       21 0.22597557E+00 0.23919791E+03</pdfrwt>
<totfact> 0.29391735E+03</totfact>
</mgrwt>
</event>
<event>
 4    1  0.1091654E+000  0.3372396E+03  0.7546771E-02  0.1067978E+00
         21   -1    0    0  501  502  0.00000000000E+00  0.00000000000E+00  0.35635091779E+03  0.35635091779E+03  0.00000000000E+00 0.  1.
         21   -1    0    0  502  503 -0.00000000000E+00 -0.00000000000E+00 -0.39281136016E+03  0.39281136016E+03  0.00000000000E+00 0.  1.
          6    1    1    2  501    0  0.70141694555E+02  0.28147230309E+03  0.14397487452E+03  0.36668689534E+03  0.17200000000E+03 0.  1.
         -6    1    1    2    0  503 -0.70141694555E+02 -0.28147230309E+03 -0.18043531689E+03  0.38247538261E+03  0.17200000000E+03 0.  1.
<mgrwt>
<rscale>  2 0.33723955E+03</rscale>
<asrwt>0</asrwt>
<pdfrwt beam="1">  1       21 0.89087729E-01 0.33723955E+03</pdfrwt>
<pdfrwt beam="2">  1       21 0.98202840E-01 0.33723955E+03</pdfrwt>
<totfact> 0.82411885E+02</totfact>
</mgrwt>
</event>
<event>
 4    1  0.1091654E+000  0.2715873E+03  0.7546771E-02  0.1100375E+00
         21   -1    0    0  503  502  0.00000000000E+00  0.00000000000E+00  0.13178983411E+03  0.13178983411E+03  0.00000000000E+00 0.  1.
         21   -1    0    0  501  503 -0.00000000000E+00 -0.00000000000E+00 -0.81702596875E+03  0.81702596875E+03  0.00000000000E+00 0. -1.
          6    1    1    2  501    0 -0.18096886693E+03 -0.10689217047E+03 -0.60887177309E+03  0.66669670989E+03  0.17200000000E+03 0. -1.
         -6    1    1    2    0  502  0.18096886693E+03  0.10689217047E+03 -0.76364361552E+02  0.28211909298E+03  0.17200000000E+03 0.  1.
<mgrwt>
<rscale>  2 0.27158731E+03</rscale>
<asrwt>0</asrwt>
<pdfrwt beam="1">  1       21 0.32947459E-01 0.27158731E+03</pdfrwt>
<pdfrwt beam="2">  1       21 0.20425649E+00 0.27158731E+03</pdfrwt>
<totfact> 0.10370759E+03</totfact>
</mgrwt>
</event>
<event>
 4    1  0.1091654E+000  0.1940471E+03  0.7546771E-02  0.1154861E+00
         21   -1    0    0  501  502  0.00000000000E+00  0.00000000000E+00  0.54325358205E+02  0.54325358205E+02  0.00000000000E+00 0. -1.
         21   -1    0    0  502  503 -0.00000000000E+00 -0.00000000000E+00 -0.71600773574E+03  0.71600773574E+03  0.00000000000E+00 0. -1.
          6    1    1    2  501    0 -0.18407398319E+02 -0.87928706865E+02 -0.39969677047E+03  0.44431047492E+03  0.17200000000E+03 0. -1.
         -6    1    1    2    0  503  0.18407398319E+02  0.87928706865E+02 -0.26198560707E+03  0.32602261902E+03  0.17200000000E+03 0. -1.
<mgrwt>
<rscale>  2 0.19404713E+03</rscale>
<asrwt>0</asrwt>
<pdfrwt beam="1">  1       21 0.13581340E-01 0.19404713E+03</pdfrwt>
<pdfrwt beam="2">  1       21 0.17900193E+00 0.19404713E+03</pdfrwt>
<totfact> 0.86727260E+03</totfact>
</mgrwt>
</event>
<event>
 4    1  0.1091654E+000  0.1805734E+03  0.7546771E-02  0.1167249E+00
         21   -1    0    0  503  502  0.00000000000E+00  0.00000000000E+00  0.31787023165E+03  0.31787023165E+03  0.00000000000E+00 0.  1.
         21   -1    0    0  501  503 -0.00000000000E+00 -0.00000000000E+00 -0.26566717328E+03  0.26566717328E+03  0.00000000000E+00 0.  1.
          6    1    1    2  501    0  0.48760688007E+02  0.25399735183E+02 -0.20250110946E+03  0.27131798793E+03  0.17200000000E+03 0.  1.
         -6    1    1    2    0  502 -0.48760688007E+02 -0.25399735183E+02  0.25470416783E+03  0.31221941700E+03  0.17200000000E+03 0.  1.
<mgrwt>
<rscale>  2 0.18057340E+03</rscale>
<asrwt>0</asrwt>
<pdfrwt beam="1">  1       21 0.79467558E-01 0.18057340E+03</pdfrwt>
<pdfrwt beam="2">  1       21 0.66416793E-01 0.18057340E+03</pdfrwt>
<totfact> 0.29340531E+03</totfact>
</mgrwt>
</event>
<event>
 4    1  0.1091654E+000  0.2807506E+03  0.7546771E-02  0.1095280E+00
         21   -1    0    0  501  502  0.00000000000E+00  0.00000000000E+00  0.75075970939E+03  0.75075970939E+03  0.00000000000E+00 0.  1.
         21   -1    0    0  502  503 -0.00000000000E+00 -0.00000000000E+00 -0.19777388831E+03  0.19777388831E+03  0.00000000000E+00 0. -1.
          6    1    1    2  501    0 -0.25380653549E+02  0.22043754394E+03  0.60133987500E+03  0.66364940564E+03  0.17200000000E+03 0.  1.
         -6    1    1    2    0  503  0.25380653549E+02 -0.22043754394E+03 -0.48354053921E+02  0.28488419205E+03  0.17200000000E+03 0. -1.
<mgrwt>
<rscale>  2 0.28075058E+03</rscale>
<asrwt>0</asrwt>
<pdfrwt beam="1">  1       21 0.18768992E+00 0.28075058E+03</pdfrwt>
<pdfrwt beam="2">  1       21 0.49443474E-01 0.28075058E+03</pdfrwt>
<totfact> 0.57813679E+02</totfact>
</mgrwt>
</event>
<event>
 4    1  0.1091654E+000  0.1974930E+03  0.7546771E-02  0.1151872E+00
         21   -1    0    0  503  502  0.00000000000E+00  0.00000000000E+00  0.39962501261E+03  0.39962501261E+03  0.00000000000E+00 0.  1.
         21   -1    0    0  501  503 -0.00000000000E+00 -0.00000000000E+00 -0.12243753647E+03  0.12243753647E+03  0.00000000000E+00 0.  1.
          6    1    1    2  501    0  0.22990569911E+00 -0.97053744241E+02  0.25616136215E+03  0.32345343651E+03  0.17200000000E+03 0.  1.
         -6    1    1    2    0  502 -0.22990569911E+00  0.97053744241E+02  0.21026113997E+02  0.19860911257E+03  0.17200000000E+03 0.  1.
<mgrwt>
<rscale>  2 0.19749299E+03</rscale>
<asrwt>0</asrwt>
<pdfrwt beam="1">  1       21 0.99906250E-01 0.19749299E+03</pdfrwt>
<pdfrwt beam="2">  1       21 0.30609385E-01 0.19749299E+03</pdfrwt>
<totfact> 0.84009030E+03</totfact>
</mgrwt>
</event>
<event>
 4    1  0.1091654E+000  0.1914131E+03  0.7546771E-02  0.1157193E+00
         21   -1    0    0  503  502  0.00000000000E+00  0.00000000000E+00  0.12385806957E+03  0.12385806957E+03  0.00000000000E+00 0.  1.
         21   -1    0    0  501  503 -0.00000000000E+00 -0.00000000000E+00 -0.30061237796E+03  0.30061237796E+03  0.00000000000E+00 0.  1.
          6    1    1    2  501    0  0.82000686742E+01  0.83592654888E+02 -0.61563673673E+02  0.20106978638E+03  0.17200000000E+03 0.  1.
         -6    1    1    2    0  502 -0.82000686742E+01 -0.83592654888E+02 -0.11519063471E+03  0.22340066115E+03  0.17200000000E+03 0.  1.
<mgrwt>
<rscale>  2 0.19141310E+03</rscale>
<asrwt>0</asrwt>
<pdfrwt beam="1">  1       21 0.30964518E-01 0.19141310E+03</pdfrwt>
<pdfrwt beam="2">  1       21 0.75153094E-01 0.19141310E+03</pdfrwt>
<totfact> 0.15868053E+04</totfact>
</mgrwt>
</event>
<event>
 4    1  0.1091654E+000  0.1748400E+03  0.7546771E-02  0.1172892E+00
         21   -1    0    0  501  502  0.00000000000E+00  0.00000000000E+00  0.11451249540E+03  0.11451249540E+03  0.00000000000E+00 0.  1.
         21   -1    0    0  502  503 -0.00000000000E+00 -0.00000000000E+00 -0.60355110378E+03  0.60355110378E+03  0.00000000000E+00 0.  1.
          6    1    1    2  501    0 -0.12001659465E+02 -0.28999829397E+02  0.23603723111E+02  0.17642609127E+03  0.17200000000E+03 0.  1.
         -6    1    1    2    0  503  0.12001659465E+02  0.28999829397E+02 -0.51264233149E+03  0.54163750791E+03  0.17200000000E+03 0.  1.
<mgrwt>
<rscale>  2 0.17484001E+03</rscale>
<asrwt>0</asrwt>
<pdfrwt beam="1">  1       21 0.28628124E-01 0.17484001E+03</pdfrwt>
<pdfrwt beam="2">  1       21 0.15088777E+00 0.17484001E+03</pdfrwt>
<totfact> 0.34915229E+03</totfact>
</mgrwt>
</event>
<event>
 4    1  0.1091654E+000  0.2479025E+03  0.7546771E-02  0.1114638E+00
         21   -1    0    0  501  502  0.00000000000E+00  0.00000000000E+00  0.51474087128E+03  0.51474087128E+03  0.00000000000E+00 0.  1.
         21   -1    0    0  502  503 -0.00000000000E+00 -0.00000000000E+00 -0.30601048095E+03  0.30601048095E+03  0.00000000000E+00 0. -1.
          6    1    1    2  501    0  0.12253074567E+03 -0.12983782571E+03  0.42483820411E+03  0.49187716383E+03  0.17200000000E+03 0.  1.
         -6    1    1    2    0  503 -0.12253074567E+03  0.12983782571E+03 -0.21610781379E+03  0.32887418841E+03  0.17200000000E+03 0. -1.
<mgrwt>
<rscale>  2 0.24790249E+03</rscale>
<asrwt>0</asrwt>
<pdfrwt beam="1">  1       21 0.12868522E+00 0.24790249E+03</pdfrwt>
<pdfrwt beam="2">  1       21 0.76502621E-01 0.24790249E+03</pdfrwt>
<totfact> 0.63925672E+02</totfact>
</mgrwt>
</event>
<event>
 4    1  0.1091654E+000  0.2205084E+03  0.7546771E-02  0.1133505E+00
         21   -1    0    0  503  502  0.00000000000E+00  0.00000000000E+00  0.50375299637E+02  0.50375299637E+02  0.00000000000E+00 0.  1.
         21   -1    0    0  501  503 -0.00000000000E+00 -0.00000000000E+00 -0.11522651121E+04  0.11522651121E+04  0.00000000000E+00 0.  1.
          6    1    1    2  501    0 -0.11729216199E+03 -0.72680833771E+02 -0.79320755014E+03  0.82328741789E+03  0.17200000000E+03 0.  1.
         -6    1    1    2    0  502  0.11729216199E+03  0.72680833771E+02 -0.30868226229E+03  0.37935299381E+03  0.17200000000E+03 0.  1.
<mgrwt>
<rscale>  2 0.22050840E+03</rscale>
<asrwt>0</asrwt>
<pdfrwt beam="1">  1       21 0.12593825E-01 0.22050840E+03</pdfrwt>
<pdfrwt beam="2">  1       21 0.28806628E+00 0.22050840E+03</pdfrwt>
<totfact> 0.20830602E+03</totfact>
</mgrwt>
</event>
<event>
 4    1  0.1091654E+000  0.1912413E+03  0.7546771E-02  0.1157346E+00
         21   -1    0    0  503  502  0.00000000000E+00  0.00000000000E+00  0.13948582312E+03  0.13948582312E+03  0.00000000000E+00 0. -1.
         21   -1    0    0  501  503 -0.00000000000E+00 -0.00000000000E+00 -0.27238554115E+03  0.27238554115E+03  0.00000000000E+00 0. -1.
          6    1    1    2  501    0 -0.20944148110E+02  0.80935725191E+02 -0.26628000633E+02  0.19308624853E+03  0.17200000000E+03 0. -1.
         -6    1    1    2    0  502  0.20944148110E+02 -0.80935725191E+02 -0.10627171740E+03  0.21878511575E+03  0.17200000000E+03 0. -1.
<mgrwt>
<rscale>  2 0.19124134E+03</rscale>
<asrwt>0</asrwt>
<pdfrwt beam="1">  1       21 0.34871456E-01 0.19124134E+03</pdfrwt>
<pdfrwt beam="2">  1       21 0.68096385E-01 0.19124134E+03</pdfrwt>
<totfact> 0.15620863E+04</totfact>
</mgrwt>
</event>
<event>
 4    1  0.1091654E+000  0.1738417E+03  0.7546771E-02  0.1173900E+00
         21   -1    0    0  501  502  0.00000000000E+00  0.00000000000E+00  0.25499020789E+03  0.25499020789E+03  0.00000000000E+00 0. -1.
         21   -1    0    0  502  503 -0.00000000000E+00 -0.00000000000E+00 -0.12219177695E+03  0.12219177695E+03  0.00000000000E+00 0. -1.
          6    1    1    2  501    0  0.20261915697E+02  0.15046309114E+02  0.99099737232E+02  0.20010420926E+03  0.17200000000E+03 0. -1.
         -6    1    1    2    0  503 -0.20261915697E+02 -0.15046309114E+02  0.33698693711E+02  0.17707777558E+03  0.17200000000E+03 0. -1.
<mgrwt>
<rscale>  2 0.17384170E+03</rscale>
<asrwt>0</asrwt>
<pdfrwt beam="1">  1       21 0.63747551E-01 0.17384170E+03</pdfrwt>
<pdfrwt beam="2">  1       21 0.30547945E-01 0.17384170E+03</pdfrwt>
<totfact> 0.23645833E+04</totfact>
</mgrwt>
</event>
<event>
 4    1  0.1091654E+000  0.2005886E+03  0.7546771E-02  0.1149243E+00
         21   -1    0    0  503  502  0.00000000000E+00  0.00000000000E+00  0.58611969144E+03  0.58611969144E+03  0.00000000000E+00 0.  1.
         21   -1    0    0  501  503 -0.00000000000E+00 -0.00000000000E+00 -0.68780593804E+02  0.68780593804E+02  0.00000000000E+00 0.  1.
          6    1    1    2  501    0  0.70696276511E+02 -0.75191832611E+02  0.27306239137E+03  0.33881978216E+03  0.17200000000E+03 0.  1.
         -6    1    1    2    0  502 -0.70696276511E+02  0.75191832611E+02  0.24427670626E+03  0.31608050308E+03  0.17200000000E+03 0.  1.
<mgrwt>
<rscale>  2 0.20058857E+03</rscale>
<asrwt>0</asrwt>
<pdfrwt beam="1">  1       21 0.14652991E+00 0.20058857E+03</pdfrwt>
<pdfrwt beam="2">  1       21 0.17195150E-01 0.20058857E+03</pdfrwt>
<totfact> 0.96511328E+03</totfact>
</mgrwt>
</event>
<event>
 4    1  0.1091654E+000  0.2240727E+03  0.7546771E-02  0.1130883E+00
         21   -1    0    0  501  502  0.00000000000E+00  0.00000000000E+00  0.64956842885E+03  0.64956842885E+03  0.00000000000E+00 0. -1.
         21   -1    0    0  502  503 -0.00000000000E+00 -0.00000000000E+00 -0.15237385902E+03  0.15237385902E+03  0.00000000000E+00 0. -1.
          6    1    1    2  501    0 -0.61723025653E+02  0.12967209852E+03  0.53005674967E+03  0.57547262567E+03  0.17200000000E+03 0. -1.
         -6    1    1    2    0  503  0.61723025653E+02 -0.12967209852E+03 -0.32862179838E+02  0.22646966219E+03  0.17200000000E+03 0. -1.
<mgrwt>
<rscale>  2 0.22407272E+03</rscale>
<asrwt>0</asrwt>
<pdfrwt beam="1">  1       21 0.16239210E+00 0.22407272E+03</pdfrwt>
<pdfrwt beam="2">  1       21 0.38093466E-01 0.22407272E+03</pdfrwt>
<totfact> 0.15594248E+03</totfact>
</mgrwt>
</event>
<event>
 4    1  0.1091654E+000  0.2133071E+03  0.7546771E-02  0.1138974E+00
         21   -1    0    0  503  502  0.00000000000E+00  0.00000000000E+00  0.15884678116E+04  0.15884678116E+04  0.00000000000E+00 0. -1.
         21   -1    0    0  501  503 -0.00000000000E+00 -0.00000000000E+00 -0.42557071096E+02  0.42557071096E+02  0.00000000000E+00 0. -1.
          6    1    1    2  501    0 -0.84304261875E+02 -0.93854700883E+02  0.12392471780E+04  0.12574710660E+04  0.17200000000E+03 0. -1.
         -6    1    1    2    0  502  0.84304261875E+02  0.93854700883E+02  0.30666356242E+03  0.37355381669E+03  0.17200000000E+03 0. -1.
<mgrwt>
<rscale>  2 0.21330709E+03</rscale>
<asrwt>0</asrwt>
<pdfrwt beam="1">  1       21 0.39711675E+00 0.21330709E+03</pdfrwt>
<pdfrwt beam="2">  1       21 0.10639273E-01 0.21330709E+03</pdfrwt>
<totfact> 0.63983534E+02</totfact>
</mgrwt>
</event>
<event>
 4    1  0.1091654E+000  0.1842496E+03  0.7546771E-02  0.1163753E+00
         21   -1    0    0  503  502  0.00000000000E+00  0.00000000000E+00  0.12692929025E+04  0.12692929025E+04  0.00000000000E+00 0. -1.
         21   -1    0    0  501  503 -0.00000000000E+00 -0.00000000000E+00 -0.40099543415E+02  0.40099543415E+02  0.00000000000E+00 0. -1.
          6    1    1    2  501    0 -0.20726705919E+02 -0.62724052450E+02  0.99240901392E+03  0.10093678982E+04  0.17200000000E+03 0. -1.
         -6    1    1    2    0  502  0.20726705919E+02  0.62724052450E+02  0.23678434520E+03  0.30002454770E+03  0.17200000000E+03 0. -1.
<mgrwt>
<rscale>  2 0.18424957E+03</rscale>
<asrwt>0</asrwt>
<pdfrwt beam="1">  1       21 0.31732309E+00 0.18424957E+03</pdfrwt>
<pdfrwt beam="2">  1       21 0.10024890E-01 0.18424957E+03</pdfrwt>
<totfact> 0.22158756E+03</totfact>
</mgrwt>
</event>
<event>
 4    1  0.1091654E+000  0.1728100E+03  0.7546771E-02  0.1174949E+00
         21   -1    0    0  501  502  0.00000000000E+00  0.00000000000E+00  0.27824045310E+03  0.27824045310E+03  0.00000000000E+00 0. -1.
         21   -1    0    0  502  503 -0.00000000000E+00 -0.00000000000E+00 -0.42700208777E+03  0.42700208777E+03  0.00000000000E+00 0. -1.
          6    1    1    2  501    0  0.94228691262E+01 -0.13802577913E+02  0.23072217451E+03  0.28826380874E+03  0.17200000000E+03 0. -1.
         -6    1    1    2    0  503 -0.94228691262E+01  0.13802577913E+02 -0.37948380918E+03  0.41697873213E+03  0.17200000000E+03 0. -1.
<mgrwt>
<rscale>  2 0.17281002E+03</rscale>
<asrwt>0</asrwt>
<pdfrwt beam="1">  1       21 0.69560114E-01 0.17281002E+03</pdfrwt>
<pdfrwt beam="2">  1       21 0.10675052E+00 0.17281002E+03</pdfrwt>
<totfact> 0.13460065E+03</totfact>
</mgrwt>
</event>
<event>
 4    1  0.1091654E+000  0.3185267E+03  0.7546771E-02  0.1076329E+00
         21   -1    0    0  503  502  0.00000000000E+00  0.00000000000E+00  0.65532830917E+03  0.65532830917E+03  0.00000000000E+00 0.  1.
         21   -1    0    0  501  503 -0.00000000000E+00 -0.00000000000E+00 -0.19465365191E+03  0.19465365191E+03  0.00000000000E+00 0. -1.
          6    1    1    2  501    0  0.25955809455E+03  0.67118063229E+02  0.38088988214E+02  0.32079590066E+03  0.17200000000E+03 0. -1.
         -6    1    1    2    0  502 -0.25955809455E+03 -0.67118063229E+02  0.42258566905E+03  0.52918606042E+03  0.17200000000E+03 0.  1.
<mgrwt>
<rscale>  2 0.31852667E+03</rscale>
<asrwt>0</asrwt>
<pdfrwt beam="1">  1       21 0.16383207E+00 0.31852667E+03</pdfrwt>
<pdfrwt beam="2">  1       21 0.48663415E-01 0.31852667E+03</pdfrwt>
<totfact> 0.85630254E+02</totfact>
</mgrwt>
</event>
<event>
 4    1  0.1091654E+000  0.1873237E+03  0.7546771E-02  0.1160898E+00
         21   -1    0    0  503  502  0.00000000000E+00  0.00000000000E+00  0.43763473658E+03  0.43763473658E+03  0.00000000000E+00 0. -1.
         21   -1    0    0  501  503 -0.00000000000E+00 -0.00000000000E+00 -0.10234403265E+03  0.10234403265E+03  0.00000000000E+00 0. -1.
          6    1    1    2  501    0 -0.12033454802E+02  0.73221287288E+02  0.42005848767E+02  0.19197565543E+03  0.17200000000E+03 0. -1.
         -6    1    1    2    0  502  0.12033454802E+02 -0.73221287288E+02  0.29328485517E+03  0.34800311380E+03  0.17200000000E+03 0. -1.
<mgrwt>
<rscale>  2 0.18732368E+03</rscale>
<asrwt>0</asrwt>
<pdfrwt beam="1">  1       21 0.10940868E+00 0.18732368E+03</pdfrwt>
<pdfrwt beam="2">  1       21 0.25586009E-01 0.18732368E+03</pdfrwt>
<totfact> 0.96248225E+03</totfact>
</mgrwt>
</event>
<event>
 4    1  0.1091654E+000  0.2091113E+03  0.7546771E-02  0.1142272E+00
         21   -1    0    0  501  502  0.00000000000E+00  0.00000000000E+00  0.82696635844E+02  0.82696635844E+02  0.00000000000E+00 0. -1.
         21   -1    0    0  502  503 -0.00000000000E+00 -0.00000000000E+00 -0.63706050054E+03  0.63706050054E+03  0.00000000000E+00 0. -1.
          6    1    1    2  501    0  0.12607132695E+02  0.11825641588E+03 -0.12880706248E+03  0.24559881725E+03  0.17200000000E+03 0. -1.
         -6    1    1    2    0  503 -0.12607132695E+02 -0.11825641588E+03 -0.42555680221E+03  0.47415831913E+03  0.17200000000E+03 0. -1.
<mgrwt>
<rscale>  2 0.20911126E+03</rscale>
<asrwt>0</asrwt>
<pdfrwt beam="1">  1       21 0.20674159E-01 0.20911126E+03</pdfrwt>
<pdfrwt beam="2">  1       21 0.15926512E+00 0.20911126E+03</pdfrwt>
<totfact> 0.54535947E+03</totfact>
</mgrwt>
</event>
<event>
 4    1  0.1091654E+000  0.2123487E+03  0.7546771E-02  0.1139719E+00
         21   -1    0    0  501  502  0.00000000000E+00  0.00000000000E+00  0.28963992269E+03  0.28963992269E+03  0.00000000000E+00 0.  1.
         21   -1    0    0  502  503 -0.00000000000E+00 -0.00000000000E+00 -0.20267576245E+03  0.20267576245E+03  0.00000000000E+00 0. -1.
          6    1    1    2  501    0 -0.13194815692E+02  0.12383007298E+03  0.16201216821E+03  0.26709536272E+03  0.17200000000E+03 0.  1.
         -6    1    1    2    0  503  0.13194815692E+02 -0.12383007298E+03 -0.75048007967E+02  0.22522032243E+03  0.17200000000E+03 0. -1.
<mgrwt>
<rscale>  2 0.21234875E+03</rscale>
<asrwt>0</asrwt>
<pdfrwt beam="1">  1       21 0.72409980E-01 0.21234875E+03</pdfrwt>
<pdfrwt beam="2">  1       21 0.50668941E-01 0.21234875E+03</pdfrwt>
<totfact> 0.62801397E+03</totfact>
</mgrwt>
</event>
<event>
 4    1  0.1091654E+000  0.2281579E+03  0.7546771E-02  0.1127943E+00
         21   -1    0    0  503  502  0.00000000000E+00  0.00000000000E+00  0.31278145047E+03  0.31278145047E+03  0.00000000000E+00 0.  1.
         21   -1    0    0  501  503 -0.00000000000E+00 -0.00000000000E+00 -0.21302359480E+03  0.21302359480E+03  0.00000000000E+00 0. -1.
          6    1    1    2  501    0 -0.11251104007E+02  0.14948394791E+03 -0.73076207390E+02  0.23957497806E+03  0.17200000000E+03 0. -1.
         -6    1    1    2    0  502  0.11251104007E+02 -0.14948394791E+03  0.17283406306E+03  0.28623006722E+03  0.17200000000E+03 0.  1.
<mgrwt>
<rscale>  2 0.22815792E+03</rscale>
<asrwt>0</asrwt>
<pdfrwt beam="1">  1       21 0.78195362E-01 0.22815792E+03</pdfrwt>
<pdfrwt beam="2">  1       21 0.53255899E-01 0.22815792E+03</pdfrwt>
<totfact> 0.47075922E+03</totfact>
</mgrwt>
</event>
<event>
 4    1  0.1091654E+000  0.1900089E+03  0.7546771E-02  0.1158453E+00
         21   -1    0    0  503  502  0.00000000000E+00  0.00000000000E+00  0.62195484056E+02  0.62195484056E+02  0.00000000000E+00 0. -1.
         21   -1    0    0  501  503 -0.00000000000E+00 -0.00000000000E+00 -0.58650681660E+03  0.58650681660E+03  0.00000000000E+00 0. -1.
          6    1    1    2  501    0  0.80645089821E+02 -0.39699251517E+01 -0.29502813892E+03  0.35092020970E+03  0.17200000000E+03 0. -1.
         -6    1    1    2    0  502 -0.80645089821E+02  0.39699251517E+01 -0.22928319362E+03  0.29778209096E+03  0.17200000000E+03 0. -1.
<mgrwt>
<rscale>  2 0.19000892E+03</rscale>
<asrwt>0</asrwt>
<pdfrwt beam="1">  1       21 0.15548871E-01 0.19000892E+03</pdfrwt>
<pdfrwt beam="2">  1       21 0.14662670E+00 0.19000892E+03</pdfrwt>
<totfact> 0.11679834E+04</totfact>
</mgrwt>
</event>
<event>
 4    1  0.1091654E+000  0.1894210E+03  0.7546771E-02  0.1158985E+00
         21   -1    0    0  503  502  0.00000000000E+00  0.00000000000E+00  0.76508981595E+03  0.76508981595E+03  0.00000000000E+00 0.  1.
         21   -1    0    0  501  503 -0.00000000000E+00 -0.00000000000E+00 -0.58536018625E+02  0.58536018625E+02  0.00000000000E+00 0.  1.
          6    1    1    2  501    0 -0.49521761574E+02  0.61999288730E+02  0.16964462762E+03  0.25428255220E+03  0.17200000000E+03 0.  1.
         -6    1    1    2    0  502  0.49521761574E+02 -0.61999288730E+02  0.53690916971E+03  0.56934328238E+03  0.17200000000E+03 0.  1.
<mgrwt>
<rscale>  2 0.18942100E+03</rscale>
<asrwt>0</asrwt>
<pdfrwt beam="1">  1       21 0.19127242E+00 0.18942100E+03</pdfrwt>
<pdfrwt beam="2">  1       21 0.14634007E-01 0.18942100E+03</pdfrwt>
<totfact> 0.62956238E+03</totfact>
</mgrwt>
</event>
<event>
 4    1  0.1091654E+000  0.1782215E+03  0.7546771E-02  0.1169535E+00
         21   -1    0    0  501  502  0.00000000000E+00  0.00000000000E+00  0.23199947564E+03  0.23199947564E+03  0.00000000000E+00 0. -1.
         21   -1    0    0  502  503 -0.00000000000E+00 -0.00000000000E+00 -0.78251931637E+03  0.78251931637E+03  0.00000000000E+00 0. -1.
          6    1    1    2  501    0 -0.37003679145E+02 -0.28453786187E+02  0.18549256895E+03  0.25723604599E+03  0.17200000000E+03 0. -1.
         -6    1    1    2    0  503  0.37003679145E+02  0.28453786187E+02 -0.73601240968E+03  0.75728274602E+03  0.17200000000E+03 0. -1.
<mgrwt>
<rscale>  2 0.17822146E+03</rscale>
<asrwt>0</asrwt>
<pdfrwt beam="1">  1       21 0.57999869E-01 0.17822146E+03</pdfrwt>
<pdfrwt beam="2">  1       21 0.19562983E+00 0.17822146E+03</pdfrwt>
<totfact> 0.40671830E+02</totfact>
</mgrwt>
</event>
<event>
 4    1  0.1091654E+000  0.1898903E+03  0.7546771E-02  0.1158560E+00
         21   -1    0    0  503  502  0.00000000000E+00  0.00000000000E+00  0.51853555443E+02  0.51853555443E+02  0.00000000000E+00 0.  1.
         21   -1    0    0  501  503 -0.00000000000E+00 -0.00000000000E+00 -0.15596203090E+04  0.15596203090E+04  0.00000000000E+00 0.  1.
          6    1    1    2  501    0  0.79918706729E+02  0.93442685661E+01 -0.13536733493E+04  0.13669271567E+04  0.17200000000E+03 0.  1.
         -6    1    1    2    0  502 -0.79918706729E+02 -0.93442685661E+01 -0.15409340422E+03  0.24454670774E+03  0.17200000000E+03 0.  1.
<mgrwt>
<rscale>  2 0.18989027E+03</rscale>
<asrwt>0</asrwt>
<pdfrwt beam="1">  1       21 0.12963389E-01 0.18989027E+03</pdfrwt>
<pdfrwt beam="2">  1       21 0.38990507E+00 0.18989027E+03</pdfrwt>
<totfact> 0.51623498E+02</totfact>
</mgrwt>
</event>
<event>
 4    1  0.1091654E+000  0.1787104E+03  0.7546771E-02  0.1169057E+00
         21   -1    0    0  501  502  0.00000000000E+00  0.00000000000E+00  0.30902977639E+03  0.30902977639E+03  0.00000000000E+00 0. -1.
         21   -1    0    0  502  503 -0.00000000000E+00 -0.00000000000E+00 -0.10521343392E+03  0.10521343392E+03  0.00000000000E+00 0. -1.
          6    1    1    2  501    0 -0.48096158600E+02 -0.63364040716E+01  0.74323859111E+02  0.19354954539E+03  0.17200000000E+03 0. -1.
         -6    1    1    2    0  503  0.48096158600E+02  0.63364040716E+01  0.12949248336E+03  0.22069366492E+03  0.17200000000E+03 0. -1.
<mgrwt>
<rscale>  2 0.17871035E+03</rscale>
<asrwt>0</asrwt>
<pdfrwt beam="1">  1       21 0.77257442E-01 0.17871035E+03</pdfrwt>
<pdfrwt beam="2">  1       21 0.26303359E-01 0.17871035E+03</pdfrwt>
<totfact> 0.20618415E+04</totfact>
</mgrwt>
</event>
<event>
 4    1  0.1091654E+000  0.1722368E+03  0.7546771E-02  0.1175535E+00
         21   -1    0    0  501  502  0.00000000000E+00  0.00000000000E+00  0.13087176379E+03  0.13087176379E+03  0.00000000000E+00 0. -1.
         21   -1    0    0  502  503 -0.00000000000E+00 -0.00000000000E+00 -0.10077182085E+04  0.10077182085E+04  0.00000000000E+00 0. -1.
          6    1    1    2  501    0 -0.81805900689E+01  0.38179101184E+01  0.62769822645E+02  0.18331816366E+03  0.17200000000E+03 0. -1.
         -6    1    1    2    0  503  0.81805900689E+01 -0.38179101184E+01 -0.93961626739E+03  0.95527180867E+03  0.17200000000E+03 0. -1.
<mgrwt>
<rscale>  2 0.17223675E+03</rscale>
<asrwt>0</asrwt>
<pdfrwt beam="1">  1       21 0.32717941E-01 0.17223675E+03</pdfrwt>
<pdfrwt beam="2">  1       21 0.25192955E+00 0.17223675E+03</pdfrwt>
<totfact> 0.59908269E+02</totfact>
</mgrwt>
</event>
<event>
 4    1  0.1091654E+000  0.1916651E+03  0.7546771E-02  0.1156968E+00
         21   -1    0    0  503  502  0.00000000000E+00  0.00000000000E+00  0.22885228840E+03  0.22885228840E+03  0.00000000000E+00 0. -1.
         21   -1    0    0  501  503 -0.00000000000E+00 -0.00000000000E+00 -0.20934750346E+03  0.20934750346E+03  0.00000000000E+00 0. -1.
          6    1    1    2  501    0  0.13662287012E+02  0.83455760687E+02 -0.96060252310E+02  0.21439005143E+03  0.17200000000E+03 0. -1.
         -6    1    1    2    0  502 -0.13662287012E+02 -0.83455760687E+02  0.11556503725E+03  0.22380974043E+03  0.17200000000E+03 0. -1.
<mgrwt>
<rscale>  2 0.19166513E+03</rscale>
<asrwt>0</asrwt>
<pdfrwt beam="1">  1       21 0.57213072E-01 0.19166513E+03</pdfrwt>
<pdfrwt beam="2">  1       21 0.52336876E-01 0.19166513E+03</pdfrwt>
<totfact> 0.99417703E+03</totfact>
</mgrwt>
</event>
<event>
 4    1  0.1091654E+000  0.2851311E+03  0.7546771E-02  0.1092919E+00
         21   -1    0    0  501  502  0.00000000000E+00  0.00000000000E+00  0.56360563914E+02  0.56360563914E+02  0.00000000000E+00 0. -1.
         21   -1    0    0  502  503 -0.00000000000E+00 -0.00000000000E+00 -0.14883134029E+04  0.14883134029E+04  0.00000000000E+00 0.  1.
          6    1    1    2  501    0 -0.48941910882E+02 -0.22208200287E+03 -0.58046108606E+03  0.64671075379E+03  0.17200000000E+03 0. -1.
         -6    1    1    2    0  503  0.48941910882E+02  0.22208200287E+03 -0.85149175289E+03  0.89796321299E+03  0.17200000000E+03 0.  1.
<mgrwt>
<rscale>  2 0.28513107E+03</rscale>
<asrwt>0</asrwt>
<pdfrwt beam="1">  1       21 0.14090141E-01 0.28513107E+03</pdfrwt>
<pdfrwt beam="2">  1       21 0.37207835E+00 0.28513107E+03</pdfrwt>
<totfact> 0.50400881E+02</totfact>
</mgrwt>
</event>
<event>
 4    1  0.1091654E+000  0.2577837E+03  0.7546771E-02  0.1108482E+00
         21   -1    0    0  501  502  0.00000000000E+00  0.00000000000E+00  0.13369882294E+03  0.13369882294E+03  0.00000000000E+00 0. -1.
         21   -1    0    0  502  503 -0.00000000000E+00 -0.00000000000E+00 -0.49741927017E+03  0.49741927017E+03  0.00000000000E+00 0.  1.
          6    1    1    2  501    0  0.20052628388E+02 -0.19096158109E+03 -0.19067875723E+03  0.32064126655E+03  0.17200000000E+03 0. -1.
         -6    1    1    2    0  503 -0.20052628388E+02  0.19096158109E+03 -0.17304168999E+03  0.31047682656E+03  0.17200000000E+03 0.  1.
<mgrwt>
<rscale>  2 0.25778369E+03</rscale>
<asrwt>0</asrwt>
<pdfrwt beam="1">  1       21 0.33424706E-01 0.25778369E+03</pdfrwt>
<pdfrwt beam="2">  1       21 0.12435482E+00 0.25778369E+03</pdfrwt>
<totfact> 0.39689654E+03</totfact>
</mgrwt>
</event>
<event>
 4    1  0.1091654E+000  0.1729520E+03  0.7546771E-02  0.1174804E+00
         21   -1    0    0  501  502  0.00000000000E+00  0.00000000000E+00  0.19961043983E+03  0.19961043983E+03  0.00000000000E+00 0. -1.
         21   -1    0    0  502  503 -0.00000000000E+00 -0.00000000000E+00 -0.17697454714E+03  0.17697454714E+03  0.00000000000E+00 0. -1.
          6    1    1    2  501    0 -0.62996286752E+01 -0.16991689174E+02  0.85028152970E+02  0.19272309052E+03  0.17200000000E+03 0. -1.
         -6    1    1    2    0  503  0.62996286752E+01  0.16991689174E+02 -0.62392260288E+02  0.18386189645E+03  0.17200000000E+03 0. -1.
<mgrwt>
<rscale>  2 0.17295202E+03</rscale>
<asrwt>0</asrwt>
<pdfrwt beam="1">  1       21 0.49902610E-01 0.17295202E+03</pdfrwt>
<pdfrwt beam="2">  1       21 0.44243637E-01 0.17295202E+03</pdfrwt>
<totfact> 0.18999444E+04</totfact>
</mgrwt>
</event>
<event>
 4    1  0.1091654E+000  0.1795223E+03  0.7546771E-02  0.1168266E+00
         21   -1    0    0  501  502  0.00000000000E+00  0.00000000000E+00  0.14613465752E+03  0.14613465752E+03  0.00000000000E+00 0.  1.
         21   -1    0    0  502  503 -0.00000000000E+00 -0.00000000000E+00 -0.22524610785E+03  0.22524610785E+03  0.00000000000E+00 0.  1.
          6    1    1    2  501    0 -0.50645944632E+02 -0.89027693692E+01 -0.66401490349E+02  0.19140906178E+03  0.17200000000E+03 0.  1.
         -6    1    1    2    0  503  0.50645944632E+02  0.89027693692E+01 -0.12709959988E+02  0.17997170359E+03  0.17200000000E+03 0.  1.
<mgrwt>
<rscale>  2 0.17952234E+03</rscale>
<asrwt>0</asrwt>
<pdfrwt beam="1">  1       21 0.36533665E-01 0.17952234E+03</pdfrwt>
<pdfrwt beam="2">  1       21 0.56311527E-01 0.17952234E+03</pdfrwt>
<totfact> 0.21605738E+04</totfact>
</mgrwt>
</event>
<event>
 4    1  0.1091654E+000  0.2434980E+03  0.7546771E-02  0.1117484E+00
         21   -1    0    0  503  502  0.00000000000E+00  0.00000000000E+00  0.53786640115E+03  0.53786640115E+03  0.00000000000E+00 0. -1.
         21   -1    0    0  501  503 -0.00000000000E+00 -0.00000000000E+00 -0.26660839278E+03  0.26660839278E+03  0.00000000000E+00 0. -1.
          6    1    1    2  501    0  0.66620559754E+02  0.15896222406E+03 -0.17242583698E+03  0.29836547541E+03  0.17200000000E+03 0. -1.
         -6    1    1    2    0  502 -0.66620559754E+02 -0.15896222406E+03  0.44368384535E+03  0.50610931851E+03  0.17200000000E+03 0. -1.
<mgrwt>
<rscale>  2 0.24349802E+03</rscale>
<asrwt>0</asrwt>
<pdfrwt beam="1">  1       21 0.13446660E+00 0.24349802E+03</pdfrwt>
<pdfrwt beam="2">  1       21 0.66652099E-01 0.24349802E+03</pdfrwt>
<totfact> 0.77970576E+02</totfact>
</mgrwt>
</event>
<event>
 4    1  0.1091654E+000  0.1759365E+03  0.7546771E-02  0.1171795E+00
         21   -1    0    0  503  502  0.00000000000E+00  0.00000000000E+00  0.93255862685E+02  0.93255862685E+02  0.00000000000E+00 0. -1.
         21   -1    0    0  501  503 -0.00000000000E+00 -0.00000000000E+00 -0.37649433450E+03  0.37649433450E+03  0.00000000000E+00 0. -1.
          6    1    1    2  501    0  0.31406666868E+02  0.19577305964E+02 -0.22243417231E+03  0.28360291015E+03  0.17200000000E+03 0. -1.
         -6    1    1    2    0  502 -0.31406666868E+02 -0.19577305964E+02 -0.60804299501E+02  0.18614728703E+03  0.17200000000E+03 0. -1.
<mgrwt>
<rscale>  2 0.17593649E+03</rscale>
<asrwt>0</asrwt>
<pdfrwt beam="1">  1       21 0.23313966E-01 0.17593649E+03</pdfrwt>
<pdfrwt beam="2">  1       21 0.94123582E-01 0.17593649E+03</pdfrwt>
<totfact> 0.16553176E+04</totfact>
</mgrwt>
</event>
<event>
 4    1  0.1091654E+000  0.1764757E+03  0.7546771E-02  0.1171258E+00
         21   -1    0    0  503  502  0.00000000000E+00  0.00000000000E+00  0.15113303263E+03  0.15113303263E+03  0.00000000000E+00 0. -1.
         21   -1    0    0  501  503 -0.00000000000E+00 -0.00000000000E+00 -0.41001951701E+03  0.41001951701E+03  0.00000000000E+00 0. -1.
          6    1    1    2  501    0  0.38791097107E+02 -0.74118241678E+01 -0.32732790343E+03  0.37186992446E+03  0.17200000000E+03 0. -1.
         -6    1    1    2    0  502 -0.38791097107E+02  0.74118241678E+01  0.68441419054E+02  0.18928262518E+03  0.17200000000E+03 0. -1.
<mgrwt>
<rscale>  2 0.17647573E+03</rscale>
<asrwt>0</asrwt>
<pdfrwt beam="1">  1       21 0.37783258E-01 0.17647573E+03</pdfrwt>
<pdfrwt beam="2">  1       21 0.10250488E+00 0.17647573E+03</pdfrwt>
<totfact> 0.52971509E+03</totfact>
</mgrwt>
</event>
<event>
 4    1  0.1091654E+000  0.1734645E+03  0.7546771E-02  0.1174282E+00
         21   -1    0    0  503  502  0.00000000000E+00  0.00000000000E+00  0.26807573624E+02  0.26807573624E+02  0.00000000000E+00 0.  1.
         21   -1    0    0  501  503 -0.00000000000E+00 -0.00000000000E+00 -0.12081049956E+04  0.12081049956E+04  0.00000000000E+00 0.  1.
          6    1    1    2  501    0 -0.22219658825E+02 -0.34934376108E+01 -0.75506818933E+03  0.77473730249E+03  0.17200000000E+03 0.  1.
         -6    1    1    2    0  502  0.22219658825E+02  0.34934376108E+01 -0.42622923267E+03  0.46017526675E+03  0.17200000000E+03 0.  1.
<mgrwt>
<rscale>  2 0.17346446E+03</rscale>
<asrwt>0</asrwt>
<pdfrwt beam="1">  1       21 0.67018929E-02 0.17346446E+03</pdfrwt>
<pdfrwt beam="2">  1       21 0.30202627E+00 0.17346446E+03</pdfrwt>
<totfact> 0.55457695E+03</totfact>
</mgrwt>
</event>
<event>
 4    1  0.1091654E+000  0.2650775E+03  0.7546771E-02  0.1104130E+00
         21   -1    0    0  501  502  0.00000000000E+00  0.00000000000E+00  0.11351330030E+03  0.11351330030E+03  0.00000000000E+00 0. -1.
         21   -1    0    0  502  503 -0.00000000000E+00 -0.00000000000E+00 -0.65863634613E+03  0.65863634613E+03  0.00000000000E+00 0. -1.
          6    1    1    2  501    0 -0.19268183573E+03 -0.59630536552E+02 -0.17786590149E+03  0.31922150557E+03  0.17200000000E+03 0. -1.
         -6    1    1    2    0  503  0.19268183573E+03  0.59630536552E+02 -0.36725714434E+03  0.45292814085E+03  0.17200000000E+03 0. -1.
<mgrwt>
<rscale>  2 0.26507752E+03</rscale>
<asrwt>0</asrwt>
<pdfrwt beam="1">  1       21 0.28378326E-01 0.26507752E+03</pdfrwt>
<pdfrwt beam="2">  1       21 0.16465908E+00 0.26507752E+03</pdfrwt>
<totfact> 0.26053056E+03</totfact>
</mgrwt>
</event>
<event>
 4    1  0.1091654E+000  0.2196252E+03  0.7546771E-02  0.1134163E+00
         21   -1    0    0  503  502  0.00000000000E+00  0.00000000000E+00  0.10780911030E+03  0.10780911030E+03  0.00000000000E+00 0. -1.
         21   -1    0    0  501  503 -0.00000000000E+00 -0.00000000000E+00 -0.62933077585E+03  0.62933077585E+03  0.00000000000E+00 0. -1.
          6    1    1    2  501    0  0.12998996433E+03 -0.41878732171E+02 -0.45892163892E+03  0.50876742202E+03  0.17200000000E+03 0. -1.
         -6    1    1    2    0  502 -0.12998996433E+03  0.41878732171E+02 -0.62600026627E+02  0.22837246412E+03  0.17200000000E+03 0. -1.
<mgrwt>
<rscale>  2 0.21962518E+03</rscale>
<asrwt>0</asrwt>
<pdfrwt beam="1">  1       21 0.26952278E-01 0.21962518E+03</pdfrwt>
<pdfrwt beam="2">  1       21 0.15733269E+00 0.21962518E+03</pdfrwt>
<totfact> 0.33736257E+03</totfact>
</mgrwt>
</event>
<event>
 4    1  0.1091654E+000  0.1926632E+03  0.7546771E-02  0.1156081E+00
         21   -1    0    0  503  502  0.00000000000E+00  0.00000000000E+00  0.18805286328E+03  0.18805286328E+03  0.00000000000E+00 0.  1.
         21   -1    0    0  501  503 -0.00000000000E+00 -0.00000000000E+00 -0.22927601409E+03  0.22927601409E+03  0.00000000000E+00 0. -1.
          6    1    1    2  501    0  0.34117733401E+02 -0.79819074857E+02 -0.98431856130E+02  0.21635141494E+03  0.17200000000E+03 0. -1.
         -6    1    1    2    0  502 -0.34117733401E+02  0.79819074857E+02  0.57208705325E+02  0.20097746244E+03  0.17200000000E+03 0.  1.
<mgrwt>
<rscale>  2 0.19266319E+03</rscale>
<asrwt>0</asrwt>
<pdfrwt beam="1">  1       21 0.47013216E-01 0.19266319E+03</pdfrwt>
<pdfrwt beam="2">  1       21 0.57319003E-01 0.19266319E+03</pdfrwt>
<totfact> 0.12373554E+04</totfact>
</mgrwt>
</event>
<event>
 4    1  0.1091654E+000  0.1763118E+03  0.7546771E-02  0.1171421E+00
         21   -1    0    0  501  502  0.00000000000E+00  0.00000000000E+00  0.11015507215E+03  0.11015507215E+03  0.00000000000E+00 0. -1.
         21   -1    0    0  502  503 -0.00000000000E+00 -0.00000000000E+00 -0.40710946123E+03  0.40710946123E+03  0.00000000000E+00 0. -1.
          6    1    1    2  501    0 -0.33208142522E+02 -0.19976464193E+02 -0.52176595589E+01  0.17638895607E+03  0.17200000000E+03 0. -1.
         -6    1    1    2    0  503  0.33208142522E+02  0.19976464193E+02 -0.29173672952E+03  0.34087557731E+03  0.17200000000E+03 0. -1.
<mgrwt>
<rscale>  2 0.17631177E+03</rscale>
<asrwt>0</asrwt>
<pdfrwt beam="1">  1       21 0.27538768E-01 0.17631177E+03</pdfrwt>
<pdfrwt beam="2">  1       21 0.10177736E+00 0.17631177E+03</pdfrwt>
<totfact> 0.10020986E+04</totfact>
</mgrwt>
</event>
<event>
 4    1  0.1091654E+000  0.1730467E+03  0.7546771E-02  0.1174707E+00
         21   -1    0    0  503  502  0.00000000000E+00  0.00000000000E+00  0.58720400516E+02  0.58720400516E+02  0.00000000000E+00 0.  1.
         21   -1    0    0  501  503 -0.00000000000E+00 -0.00000000000E+00 -0.63064530050E+03  0.63064530050E+03  0.00000000000E+00 0.  1.
          6    1    1    2  501    0  0.10014250433E+02  0.16151248467E+02 -0.43674512539E+03  0.46977808867E+03  0.17200000000E+03 0.  1.
         -6    1    1    2    0  502 -0.10014250433E+02 -0.16151248467E+02 -0.13517977459E+03  0.21958761235E+03  0.17200000000E+03 0.  1.
<mgrwt>
<rscale>  2 0.17304666E+03</rscale>
<asrwt>0</asrwt>
<pdfrwt beam="1">  1       21 0.14680100E-01 0.17304666E+03</pdfrwt>
<pdfrwt beam="2">  1       21 0.15766132E+00 0.17304666E+03</pdfrwt>
<totfact> 0.10848529E+04</totfact>
</mgrwt>
</event>
<event>
 4    1  0.1091654E+000  0.1834483E+03  0.7546771E-02  0.1164507E+00
         21   -1    0    0  501  502  0.00000000000E+00  0.00000000000E+00  0.63498835455E+02  0.63498835455E+02  0.00000000000E+00 0.  1.
         21   -1    0    0  502  503 -0.00000000000E+00 -0.00000000000E+00 -0.54792969222E+03  0.54792969222E+03  0.00000000000E+00 0.  1.
          6    1    1    2  501    0 -0.61575975805E+02  0.16663667038E+02 -0.29754409466E+03  0.34955080727E+03  0.17200000000E+03 0.  1.
         -6    1    1    2    0  503  0.61575975805E+02 -0.16663667038E+02 -0.18688676211E+03  0.26187772041E+03  0.17200000000E+03 0.  1.
<mgrwt>
<rscale>  2 0.18344830E+03</rscale>
<asrwt>0</asrwt>
<pdfrwt beam="1">  1       21 0.15874709E-01 0.18344830E+03</pdfrwt>
<pdfrwt beam="2">  1       21 0.13698242E+00 0.18344830E+03</pdfrwt>
<totfact> 0.13475983E+04</totfact>
</mgrwt>
</event>
<event>
 4    1  0.1091654E+000  0.1912004E+03  0.7546771E-02  0.1157383E+00
         21   -1    0    0  503  502  0.00000000000E+00  0.00000000000E+00  0.11904656500E+04  0.11904656500E+04  0.00000000000E+00 0. -1.
         21   -1    0    0  501  503 -0.00000000000E+00 -0.00000000000E+00 -0.30711003551E+02  0.30711003551E+02  0.00000000000E+00 0. -1.
          6    1    1    2  501    0 -0.56236349714E+02  0.61733713202E+02  0.57451821463E+03  0.60549876740E+03  0.17200000000E+03 0. -1.
         -6    1    1    2    0  502  0.56236349714E+02 -0.61733713202E+02  0.58523643184E+03  0.61567788617E+03  0.17200000000E+03 0. -1.
<mgrwt>
<rscale>  2 0.19120036E+03</rscale>
<asrwt>0</asrwt>
<pdfrwt beam="1">  1       21 0.29761626E+00 0.19120036E+03</pdfrwt>
<pdfrwt beam="2">  1       21 0.76777549E-02 0.19120036E+03</pdfrwt>
<totfact> 0.45487617E+03</totfact>
</mgrwt>
</event>
<event>
 4    1  0.1091654E+000  0.1853696E+03  0.7546771E-02  0.1162705E+00
         21   -1    0    0  503  502  0.00000000000E+00  0.00000000000E+00  0.18472303500E+03  0.18472303500E+03  0.00000000000E+00 0.  1.
         21   -1    0    0  501  503 -0.00000000000E+00 -0.00000000000E+00 -0.67432646652E+03  0.67432646652E+03  0.00000000000E+00 0.  1.
          6    1    1    2  501    0 -0.22924326153E+02 -0.65210117403E+02 -0.61031236880E+03  0.63784251321E+03  0.17200000000E+03 0.  1.
         -6    1    1    2    0  502  0.22924326153E+02  0.65210117403E+02  0.12070893728E+03  0.22120698832E+03  0.17200000000E+03 0.  1.
<mgrwt>
<rscale>  2 0.18536959E+03</rscale>
<asrwt>0</asrwt>
<pdfrwt beam="1">  1       21 0.46180759E-01 0.18536959E+03</pdfrwt>
<pdfrwt beam="2">  1       21 0.16858161E+00 0.18536959E+03</pdfrwt>
<totfact> 0.98886054E+02</totfact>
</mgrwt>
</event>
<event>
 4    1  0.1091654E+000  0.2048220E+03  0.7546771E-02  0.1145733E+00
         21   -1    0    0  501  502  0.00000000000E+00  0.00000000000E+00  0.22025719171E+03  0.22025719171E+03  0.00000000000E+00 0.  1.
         21   -1    0    0  502  503 -0.00000000000E+00 -0.00000000000E+00 -0.19754201713E+03  0.19754201713E+03  0.00000000000E+00 0.  1.
          6    1    1    2  501    0 -0.48099454176E+02 -0.10027211301E+03 -0.28172335659E+02  0.20675041629E+03  0.17200000000E+03 0.  1.
         -6    1    1    2    0  503  0.48099454176E+02  0.10027211301E+03  0.50887510238E+02  0.21104879255E+03  0.17200000000E+03 0.  1.
<mgrwt>
<rscale>  2 0.20482201E+03</rscale>
<asrwt>0</asrwt>
<pdfrwt beam="1">  1       21 0.55064298E-01 0.20482201E+03</pdfrwt>
<pdfrwt beam="2">  1       21 0.49385504E-01 0.20482201E+03</pdfrwt>
<totfact> 0.12067700E+04</totfact>
</mgrwt>
</event>
<event>
 4    1  0.1091654E+000  0.1834197E+03  0.7546771E-02  0.1164534E+00
         21   -1    0    0  503  502  0.00000000000E+00  0.00000000000E+00  0.13867095097E+03  0.13867095097E+03  0.00000000000E+00 0. -1.
         21   -1    0    0  501  503 -0.00000000000E+00 -0.00000000000E+00 -0.42040196694E+03  0.42040196694E+03  0.00000000000E+00 0. -1.
          6    1    1    2  501    0 -0.47723623614E+02 -0.42204830281E+02 -0.32265284680E+03  0.37114370734E+03  0.17200000000E+03 0. -1.
         -6    1    1    2    0  502  0.47723623614E+02  0.42204830281E+02  0.40921830823E+02  0.18792921058E+03  0.17200000000E+03 0. -1.
<mgrwt>
<rscale>  2 0.18341972E+03</rscale>
<asrwt>0</asrwt>
<pdfrwt beam="1">  1       21 0.34667738E-01 0.18341972E+03</pdfrwt>
<pdfrwt beam="2">  1       21 0.10510049E+00 0.18341972E+03</pdfrwt>
<totfact> 0.58882478E+03</totfact>
</mgrwt>
</event>
<event>
 4    1  0.1091654E+000  0.1729781E+03  0.7546771E-02  0.1174777E+00
         21   -1    0    0  501  502  0.00000000000E+00  0.00000000000E+00  0.25219324324E+03  0.25219324324E+03  0.00000000000E+00 0. -1.
         21   -1    0    0  502  503 -0.00000000000E+00 -0.00000000000E+00 -0.11974128815E+03  0.11974128815E+03  0.00000000000E+00 0. -1.
          6    1    1    2  501    0  0.17679689913E+02  0.49848752913E+01  0.84021623479E+02  0.19230458556E+03  0.17200000000E+03 0.  1.
         -6    1    1    2    0  503 -0.17679689913E+02 -0.49848752913E+01  0.48430331614E+02  0.17962994583E+03  0.17200000000E+03 0.  1.
<mgrwt>
<rscale>  2 0.17297809E+03</rscale>
<asrwt>0</asrwt>
<pdfrwt beam="1">  1       21 0.63048310E-01 0.17297809E+03</pdfrwt>
<pdfrwt beam="2">  1       21 0.29935322E-01 0.17297809E+03</pdfrwt>
<totfact> 0.25202931E+04</totfact>
</mgrwt>
</event>
<event>
 4    1  0.1091654E+000  0.1995257E+03  0.7546771E-02  0.1150140E+00
         21   -1    0    0  503  502  0.00000000000E+00  0.00000000000E+00  0.76126948988E+03  0.76126948988E+03  0.00000000000E+00 0. -1.
         21   -1    0    0  501  503 -0.00000000000E+00 -0.00000000000E+00 -0.57932338850E+02  0.57932338850E+02  0.00000000000E+00 0. -1.
          6    1    1    2  501    0  0.53961986427E+02  0.85525512171E+02  0.22389488414E+03  0.29989903027E+03  0.17200000000E+03 0. -1.
         -6    1    1    2    0  502 -0.53961986427E+02 -0.85525512171E+02  0.47944226690E+03  0.51930279847E+03  0.17200000000E+03 0. -1.
<mgrwt>
<rscale>  2 0.19952571E+03</rscale>
<asrwt>0</asrwt>
<pdfrwt beam="1">  1       21 0.19031734E+00 0.19952571E+03</pdfrwt>
<pdfrwt beam="2">  1       21 0.14483087E-01 0.19952571E+03</pdfrwt>
<totfact> 0.64511150E+03</totfact>
</mgrwt>
</event>
<event>
 4    1  0.1091654E+000  0.3902261E+03  0.7546771E-02  0.1047218E+00
         21   -1    0    0  503  502  0.00000000000E+00  0.00000000000E+00  0.43972645515E+03  0.43972645515E+03  0.00000000000E+00 0.  1.
         21   -1    0    0  501  503 -0.00000000000E+00 -0.00000000000E+00 -0.71472098333E+03  0.71472098333E+03  0.00000000000E+00 0. -1.
          6    1    1    2  501    0  0.28342505428E+03  0.20582194745E+03 -0.55192537069E+03  0.67594234240E+03  0.17200000000E+03 0. -1.
         -6    1    1    2    0  502 -0.28342505428E+03 -0.20582194745E+03  0.27693084250E+03  0.47850509608E+03  0.17200000000E+03 0.  1.
<mgrwt>
<rscale>  2 0.39022613E+03</rscale>
<asrwt>0</asrwt>
<pdfrwt beam="1">  1       21 0.10993162E+00 0.39022613E+03</pdfrwt>
<pdfrwt beam="2">  1       21 0.17868024E+00 0.39022613E+03</pdfrwt>
<totfact> 0.10067249E+02</totfact>
</mgrwt>
</event>
<event>
 4    1  0.1091654E+000  0.2131083E+03  0.7546771E-02  0.1139128E+00
         21   -1    0    0  503  502  0.00000000000E+00  0.00000000000E+00  0.12702146948E+03  0.12702146948E+03  0.00000000000E+00 0.  1.
         21   -1    0    0  501  503 -0.00000000000E+00 -0.00000000000E+00 -0.36222136858E+03  0.36222136858E+03  0.00000000000E+00 0. -1.
          6    1    1    2  501    0  0.21968202442E+02 -0.12388920766E+03 -0.89787634805E+02  0.23125085310E+03  0.17200000000E+03 0. -1.
         -6    1    1    2    0  502 -0.21968202442E+02  0.12388920766E+03 -0.14541226430E+03  0.25799198496E+03  0.17200000000E+03 0. -1.
<mgrwt>
<rscale>  2 0.21310828E+03</rscale>
<asrwt>0</asrwt>
<pdfrwt beam="1">  1       21 0.31755368E-01 0.21310828E+03</pdfrwt>
<pdfrwt beam="2">  1       21 0.90555341E-01 0.21310828E+03</pdfrwt>
<totfact> 0.97371054E+03</totfact>
</mgrwt>
</event>
<event>
 4    1  0.1091654E+000  0.2004799E+03  0.7546771E-02  0.1149335E+00
         21   -1    0    0  501  502  0.00000000000E+00  0.00000000000E+00  0.56427871211E+03  0.56427871211E+03  0.00000000000E+00 0.  1.
         21   -1    0    0  502  503 -0.00000000000E+00 -0.00000000000E+00 -0.88953970740E+02  0.88953970740E+02  0.00000000000E+00 0.  1.
          6    1    1    2  501    0 -0.81340127074E+02 -0.63182204846E+02  0.38346501335E+03  0.43270962983E+03  0.17200000000E+03 0.  1.
         -6    1    1    2    0  503  0.81340127074E+02  0.63182204846E+02  0.91859728014E+02  0.22052305302E+03  0.17200000000E+03 0.  1.
<mgrwt>
<rscale>  2 0.20047994E+03</rscale>
<asrwt>0</asrwt>
<pdfrwt beam="1">  1       21 0.14106967E+00 0.20047994E+03</pdfrwt>
<pdfrwt beam="2">  1       21 0.22238494E-01 0.20047994E+03</pdfrwt>
<totfact> 0.65950047E+03</totfact>
</mgrwt>
</event>
<event>
 4    1  0.1091654E+000  0.2298310E+03  0.7546771E-02  0.1126759E+00
         21   -1    0    0  503  502  0.00000000000E+00  0.00000000000E+00  0.26133904829E+03  0.26133904829E+03  0.00000000000E+00 0.  1.
         21   -1    0    0  501  503 -0.00000000000E+00 -0.00000000000E+00 -0.30216099197E+03  0.30216099197E+03  0.00000000000E+00 0. -1.
          6    1    1    2  501    0 -0.12945886989E+02 -0.15189032260E+03 -0.18252861551E+03  0.29349439785E+03  0.17200000000E+03 0. -1.
         -6    1    1    2    0  502  0.12945886989E+02  0.15189032260E+03  0.14170667183E+03  0.27000564241E+03  0.17200000000E+03 0.  1.
<mgrwt>
<rscale>  2 0.22983095E+03</rscale>
<asrwt>0</asrwt>
<pdfrwt beam="1">  1       21 0.65334762E-01 0.22983095E+03</pdfrwt>
<pdfrwt beam="2">  1       21 0.75540248E-01 0.22983095E+03</pdfrwt>
<totfact> 0.32746876E+03</totfact>
</mgrwt>
</event>
<event>
 4    1  0.1091654E+000  0.3224501E+03  0.7546771E-02  0.1074527E+00
         21   -1    0    0  503  502  0.00000000000E+00  0.00000000000E+00  0.37696801067E+03  0.37696801067E+03  0.00000000000E+00 0.  1.
         21   -1    0    0  501  503 -0.00000000000E+00 -0.00000000000E+00 -0.39393153509E+03  0.39393153509E+03  0.00000000000E+00 0.  1.
          6    1    1    2  501    0  0.35229657992E+02 -0.27046063199E+03 -0.21954354262E+03  0.39009415448E+03  0.17200000000E+03 0.  1.
         -6    1    1    2    0  502 -0.35229657992E+02  0.27046063199E+03  0.20258001819E+03  0.38080539128E+03  0.17200000000E+03 0.  1.
<mgrwt>
<rscale>  2 0.32245012E+03</rscale>
<asrwt>0</asrwt>
<pdfrwt beam="1">  1       21 0.94242003E-01 0.32245012E+03</pdfrwt>
<pdfrwt beam="2">  1       21 0.98482884E-01 0.32245012E+03</pdfrwt>
<totfact> 0.72330502E+02</totfact>
</mgrwt>
</event>
<event>
 4    1  0.1091654E+000  0.1796301E+03  0.7546771E-02  0.1168162E+00
         21   -1    0    0  503  502  0.00000000000E+00  0.00000000000E+00  0.62469137255E+02  0.62469137255E+02  0.00000000000E+00 0.  1.
         21   -1    0    0  501  503 -0.00000000000E+00 -0.00000000000E+00 -0.55932429165E+03  0.55932429165E+03  0.00000000000E+00 0.  1.
          6    1    1    2  501    0 -0.12789339727E+02  0.50193649598E+02 -0.33442681027E+03  0.37961593894E+03  0.17200000000E+03 0.  1.
         -6    1    1    2    0  502  0.12789339727E+02 -0.50193649598E+02 -0.16242834413E+03  0.24217748997E+03  0.17200000000E+03 0.  1.
<mgrwt>
<rscale>  2 0.17963009E+03</rscale>
<asrwt>0</asrwt>
<pdfrwt beam="1">  1       21 0.15617284E-01 0.17963009E+03</pdfrwt>
<pdfrwt beam="2">  1       21 0.13983107E+00 0.17963009E+03</pdfrwt>
<totfact> 0.13205205E+04</totfact>
</mgrwt>
</event>
<event>
 4    1  0.1091654E+000  0.2004209E+03  0.7546771E-02  0.1149384E+00
         21   -1    0    0  501  502  0.00000000000E+00  0.00000000000E+00  0.20804519619E+03  0.20804519619E+03  0.00000000000E+00 0.  1.
         21   -1    0    0  502  503 -0.00000000000E+00 -0.00000000000E+00 -0.23502437825E+03  0.23502437825E+03  0.00000000000E+00 0.  1.
          6    1    1    2  501    0  0.25564852020E+02 -0.99654371513E+02  0.80103230127E+02  0.21583577761E+03  0.17200000000E+03 0.  1.
         -6    1    1    2    0  503 -0.25564852020E+02  0.99654371513E+02 -0.10708241219E+03  0.22723379683E+03  0.17200000000E+03 0.  1.
<mgrwt>
<rscale>  2 0.20042095E+03</rscale>
<asrwt>0</asrwt>
<pdfrwt beam="1">  1       21 0.52011299E-01 0.20042095E+03</pdfrwt>
<pdfrwt beam="2">  1       21 0.58756094E-01 0.20042095E+03</pdfrwt>
<totfact> 0.94581395E+03</totfact>
</mgrwt>
</event>
<event>
 4    1  0.1091654E+000  0.2191173E+03  0.7546771E-02  0.1134543E+00
         21   -1    0    0  503  502  0.00000000000E+00  0.00000000000E+00  0.14568307354E+03  0.14568307354E+03  0.00000000000E+00 0.  1.
         21   -1    0    0  501  503 -0.00000000000E+00 -0.00000000000E+00 -0.48237295511E+03  0.48237295511E+03  0.00000000000E+00 0. -1.
          6    1    1    2  501    0 -0.19773659747E+02  0.13430330669E+03 -0.34508974066E+03  0.40877781852E+03  0.17200000000E+03 0. -1.
         -6    1    1    2    0  502  0.19773659747E+02 -0.13430330669E+03  0.83998590937E+01  0.21927821013E+03  0.17200000000E+03 0.  1.
<mgrwt>
<rscale>  2 0.21911726E+03</rscale>
<asrwt>0</asrwt>
<pdfrwt beam="1">  1       21 0.36420769E-01 0.21911726E+03</pdfrwt>
<pdfrwt beam="2">  1       21 0.12059324E+00 0.21911726E+03</pdfrwt>
<totfact> 0.37117877E+03</totfact>
</mgrwt>
</event>
<event>
 4    1  0.1091654E+000  0.1947322E+03  0.7546771E-02  0.1154261E+00
         21   -1    0    0  501  502  0.00000000000E+00  0.00000000000E+00  0.37683763487E+03  0.37683763487E+03  0.00000000000E+00 0. -1.
         21   -1    0    0  502  503 -0.00000000000E+00 -0.00000000000E+00 -0.12751580069E+03  0.12751580069E+03  0.00000000000E+00 0.  1.
          6    1    1    2  501    0 -0.17124841917E+02  0.89684866037E+02  0.24045755690E+03  0.30941957287E+03  0.17200000000E+03 0.  1.
         -6    1    1    2    0  503  0.17124841917E+02 -0.89684866037E+02  0.88642772809E+01  0.19493386268E+03  0.17200000000E+03 0.  1.
<mgrwt>
<rscale>  2 0.19473221E+03</rscale>
<asrwt>0</asrwt>
<pdfrwt beam="1">  1       21 0.94209406E-01 0.19473221E+03</pdfrwt>
<pdfrwt beam="2">  1       21 0.31878951E-01 0.19473221E+03</pdfrwt>
<totfact> 0.89255371E+03</totfact>
</mgrwt>
</event>
<event>
 4    1  0.1091654E+000  0.2371475E+03  0.7546771E-02  0.1121708E+00
         21   -1    0    0  503  502  0.00000000000E+00  0.00000000000E+00  0.48106252945E+03  0.48106252945E+03  0.00000000000E+00 0. -1.
         21   -1    0    0  501  503 -0.00000000000E+00 -0.00000000000E+00 -0.33737707612E+03  0.33737707612E+03  0.00000000000E+00 0.  1.
          6    1    1    2  501    0  0.47751092236E+02  0.15612423684E+03 -0.25896449261E+03  0.35114320807E+03  0.17200000000E+03 0.  1.
         -6    1    1    2    0  502 -0.47751092236E+02 -0.15612423684E+03  0.40264994594E+03  0.46729639749E+03  0.17200000000E+03 0. -1.
<mgrwt>
<rscale>  2 0.23714752E+03</rscale>
<asrwt>0</asrwt>
<pdfrwt beam="1">  1       21 0.12026563E+00 0.23714752E+03</pdfrwt>
<pdfrwt beam="2">  1       21 0.84344270E-01 0.23714752E+03</pdfrwt>
<totfact> 0.61275981E+02</totfact>
</mgrwt>
</event>
<event>
 4    1  0.1091654E+000  0.1730805E+03  0.7546771E-02  0.1174673E+00
         21   -1    0    0  501  502  0.00000000000E+00  0.00000000000E+00  0.10082169257E+04  0.10082169257E+04  0.00000000000E+00 0.  1.
         21   -1    0    0  502  503 -0.00000000000E+00 -0.00000000000E+00 -0.32651607614E+02  0.32651607614E+02  0.00000000000E+00 0.  1.
          6    1    1    2  501    0  0.86789967406E+01 -0.17249566327E+02  0.64391925243E+03  0.66677498166E+03  0.17200000000E+03 0.  1.
         -6    1    1    2    0  503 -0.86789967406E+01  0.17249566327E+02  0.33164606568E+03  0.37409355168E+03  0.17200000000E+03 0.  1.
<mgrwt>
<rscale>  2 0.17308054E+03</rscale>
<asrwt>0</asrwt>
<pdfrwt beam="1">  1       21 0.25205413E+00 0.17308054E+03</pdfrwt>
<pdfrwt beam="2">  1       21 0.81629052E-02 0.17308054E+03</pdfrwt>
<totfact> 0.76462409E+03</totfact>
</mgrwt>
</event>
<event>
 4    1  0.1091654E+000  0.2460552E+03  0.7546771E-02  0.1115824E+00
         21   -1    0    0  501  502  0.00000000000E+00  0.00000000000E+00  0.15419253142E+03  0.15419253142E+03  0.00000000000E+00 0.  1.
         21   -1    0    0  502  503 -0.00000000000E+00 -0.00000000000E+00 -0.54341557252E+03  0.54341557252E+03  0.00000000000E+00 0. -1.
          6    1    1    2  501    0  0.16578324888E+03  0.58949674803E+02 -0.10885068682E+02  0.24629582719E+03  0.17200000000E+03 0. -1.
         -6    1    1    2    0  503 -0.16578324888E+03 -0.58949674803E+02 -0.37833797242E+03  0.45131227675E+03  0.17200000000E+03 0.  1.
<mgrwt>
<rscale>  2 0.24605518E+03</rscale>
<asrwt>0</asrwt>
<pdfrwt beam="1">  1       21 0.38548133E-01 0.24605518E+03</pdfrwt>
<pdfrwt beam="2">  1       21 0.13585389E+00 0.24605518E+03</pdfrwt>
<totfact> 0.24000546E+03</totfact>
</mgrwt>
</event>
<event>
 4    1  0.1091654E+000  0.1748800E+03  0.7546771E-02  0.1172852E+00
         21   -1    0    0  503  502  0.00000000000E+00  0.00000000000E+00  0.71056586199E+02  0.71056586199E+02  0.00000000000E+00 0. -1.
         21   -1    0    0  501  503 -0.00000000000E+00 -0.00000000000E+00 -0.75995090558E+03  0.75995090558E+03  0.00000000000E+00 0. -1.
          6    1    1    2  501    0 -0.22982324844E+02 -0.21698507454E+02 -0.61806287593E+03  0.64232758860E+03  0.17200000000E+03 0. -1.
         -6    1    1    2    0  502  0.22982324844E+02  0.21698507454E+02 -0.70831443453E+02  0.18867990318E+03  0.17200000000E+03 0. -1.
<mgrwt>
<rscale>  2 0.17487999E+03</rscale>
<asrwt>0</asrwt>
<pdfrwt beam="1">  1       21 0.17764147E-01 0.17487999E+03</pdfrwt>
<pdfrwt beam="2">  1       21 0.18998772E+00 0.17487999E+03</pdfrwt>
<totfact> 0.45644406E+03</totfact>
</mgrwt>
</event>
<event>
 4    1  0.1091654E+000  0.1892717E+03  0.7546771E-02  0.1159120E+00
         21   -1    0    0  501  502  0.00000000000E+00  0.00000000000E+00  0.73301257332E+03  0.73301257332E+03  0.00000000000E+00 0. -1.
         21   -1    0    0  502  503 -0.00000000000E+00 -0.00000000000E+00 -0.48905593101E+02  0.48905593101E+02  0.00000000000E+00 0. -1.
          6    1    1    2  501    0  0.67865800412E+02  0.40422995728E+02  0.33180590634E+03  0.38199338336E+03  0.17200000000E+03 0. -1.
         -6    1    1    2    0  503 -0.67865800412E+02 -0.40422995728E+02  0.35230107388E+03  0.39992478306E+03  0.17200000000E+03 0. -1.
<mgrwt>
<rscale>  2 0.18927172E+03</rscale>
<asrwt>0</asrwt>
<pdfrwt beam="1">  1       21 0.18325311E+00 0.18927172E+03</pdfrwt>
<pdfrwt beam="2">  1       21 0.12226401E-01 0.18927172E+03</pdfrwt>
<totfact> 0.98431375E+03</totfact>
</mgrwt>
</event>
<event>
 4    1  0.1091654E+000  0.1915644E+03  0.7546771E-02  0.1157058E+00
         21   -1    0    0  501  502  0.00000000000E+00  0.00000000000E+00  0.51185356764E+03  0.51185356764E+03  0.00000000000E+00 0. -1.
         21   -1    0    0  502  503 -0.00000000000E+00 -0.00000000000E+00 -0.81303723419E+02  0.81303723419E+02  0.00000000000E+00 0.  1.
          6    1    1    2  501    0  0.82349609799E+02 -0.18205642551E+02  0.31723656819E+03  0.37058864507E+03  0.17200000000E+03 0. -1.
         -6    1    1    2    0  503 -0.82349609799E+02  0.18205642551E+02  0.11331327603E+03  0.22256864599E+03  0.17200000000E+03 0.  1.
<mgrwt>
<rscale>  2 0.19156436E+03</rscale>
<asrwt>0</asrwt>
<pdfrwt beam="1">  1       21 0.12796338E+00 0.19156436E+03</pdfrwt>
<pdfrwt beam="2">  1       21 0.20325932E-01 0.19156436E+03</pdfrwt>
<totfact> 0.10081911E+04</totfact>
</mgrwt>
</event>
<event>
 4    1  0.1091654E+000  0.2232569E+03  0.7546771E-02  0.1131478E+00
         21   -1    0    0  503  502  0.00000000000E+00  0.00000000000E+00  0.10364702409E+03  0.10364702409E+03  0.00000000000E+00 0.  1.
         21   -1    0    0  501  503 -0.00000000000E+00 -0.00000000000E+00 -0.74617967359E+03  0.74617967359E+03  0.00000000000E+00 0. -1.
          6    1    1    2  501    0 -0.90271628453E+02  0.11004844813E+03 -0.57462305184E+03  0.61647001512E+03  0.17200000000E+03 0. -1.
         -6    1    1    2    0  502  0.90271628453E+02 -0.11004844813E+03 -0.67909597667E+02  0.23335668256E+03  0.17200000000E+03 0. -1.
<mgrwt>
<rscale>  2 0.22325687E+03</rscale>
<asrwt>0</asrwt>
<pdfrwt beam="1">  1       21 0.25911756E-01 0.22325687E+03</pdfrwt>
<pdfrwt beam="2">  1       21 0.18654492E+00 0.22325687E+03</pdfrwt>
<totfact> 0.22587657E+03</totfact>
</mgrwt>
</event>
<event>
 4    1  0.1091654E+000  0.2254618E+03  0.7546771E-02  0.1129875E+00
         21   -1    0    0  503  502  0.00000000000E+00  0.00000000000E+00  0.36739181361E+03  0.36739181361E+03  0.00000000000E+00 0.  1.
         21   -1    0    0  501  503 -0.00000000000E+00 -0.00000000000E+00 -0.13927109647E+03  0.13927109647E+03  0.00000000000E+00 0.  1.
          6    1    1    2  501    0 -0.20871971093E+02  0.14426844054E+03  0.13452915050E+03  0.26254735658E+03  0.17200000000E+03 0.  1.
         -6    1    1    2    0  502  0.20871971093E+02 -0.14426844054E+03  0.93591566642E+02  0.24411555350E+03  0.17200000000E+03 0.  1.
<mgrwt>
<rscale>  2 0.22546180E+03</rscale>
<asrwt>0</asrwt>
<pdfrwt beam="1">  1       21 0.91847952E-01 0.22546180E+03</pdfrwt>
<pdfrwt beam="2">  1       21 0.34817775E-01 0.22546180E+03</pdfrwt>
<totfact> 0.77882732E+03</totfact>
</mgrwt>
</event>
<event>
 4    1  0.1091654E+000  0.2248741E+03  0.7546771E-02  0.1130301E+00
         21   -1    0    0  501  502  0.00000000000E+00  0.00000000000E+00  0.50115000885E+03  0.50115000885E+03  0.00000000000E+00 0. -1.
         21   -1    0    0  502  503 -0.00000000000E+00 -0.00000000000E+00 -0.10406246803E+03  0.10406246803E+03  0.00000000000E+00 0.  1.
          6    1    1    2  501    0 -0.12802535978E+03  0.67778078891E+02  0.25125766733E+03  0.33719249119E+03  0.17200000000E+03 0. -1.
         -6    1    1    2    0  503  0.12802535978E+03 -0.67778078891E+02  0.14582987348E+03  0.26801998568E+03  0.17200000000E+03 0.  1.
<mgrwt>
<rscale>  2 0.22487410E+03</rscale>
<asrwt>0</asrwt>
<pdfrwt beam="1">  1       21 0.12528750E+00 0.22487410E+03</pdfrwt>
<pdfrwt beam="2">  1       21 0.26015618E-01 0.22487410E+03</pdfrwt>
<totfact> 0.64990617E+03</totfact>
</mgrwt>
</event>
<event>
 4    1  0.1091654E+000  0.1941680E+03  0.7546771E-02  0.1154755E+00
         21   -1    0    0  501  502  0.00000000000E+00  0.00000000000E+00  0.73224139285E+02  0.73224139285E+02  0.00000000000E+00 0. -1.
         21   -1    0    0  502  503 -0.00000000000E+00 -0.00000000000E+00 -0.51621585410E+03  0.51621585410E+03  0.00000000000E+00 0.  1.
          6    1    1    2  501    0 -0.80816392808E+02 -0.39823854938E+02 -0.20647152680E+03  0.28342850977E+03  0.17200000000E+03 0.  1.
         -6    1    1    2    0  503  0.80816392808E+02  0.39823854938E+02 -0.23652018802E+03  0.30601148362E+03  0.17200000000E+03 0. -1.
<mgrwt>
<rscale>  2 0.19416804E+03</rscale>
<asrwt>0</asrwt>
<pdfrwt beam="1">  1       21 0.18306035E-01 0.19416804E+03</pdfrwt>
<pdfrwt beam="2">  1       21 0.12905396E+00 0.19416804E+03</pdfrwt>
<totfact> 0.11969306E+04</totfact>
</mgrwt>
</event>
<event>
 4    1  0.1091654E+000  0.2094653E+03  0.7546771E-02  0.1141990E+00
         21   -1    0    0  501  502  0.00000000000E+00  0.00000000000E+00  0.18991277373E+03  0.18991277373E+03  0.00000000000E+00 0.  1.
         21   -1    0    0  502  503 -0.00000000000E+00 -0.00000000000E+00 -0.99406752943E+03  0.99406752943E+03  0.00000000000E+00 0.  1.
          6    1    1    2  501    0 -0.81664701361E+02 -0.87307475940E+02  0.11657841330E+03  0.23972118231E+03  0.17200000000E+03 0.  1.
         -6    1    1    2    0  503  0.81664701361E+02  0.87307475940E+02 -0.92073316900E+03  0.94425912084E+03  0.17200000000E+03 0.  1.
<mgrwt>
<rscale>  2 0.20946532E+03</rscale>
<asrwt>0</asrwt>
<pdfrwt beam="1">  1       21 0.47478194E-01 0.20946532E+03</pdfrwt>
<pdfrwt beam="2">  1       21 0.24851688E+00 0.20946532E+03</pdfrwt>
<totfact> 0.28141524E+02</totfact>
</mgrwt>
</event>
<event>
 4    1  0.1091654E+000  0.2028728E+03  0.7546771E-02  0.1147338E+00
         21   -1    0    0  503  502  0.00000000000E+00  0.00000000000E+00  0.38782503539E+03  0.38782503539E+03  0.00000000000E+00 0. -1.
         21   -1    0    0  501  503 -0.00000000000E+00 -0.00000000000E+00 -0.12762277271E+03  0.12762277271E+03  0.00000000000E+00 0. -1.
          6    1    1    2  501    0  0.10060223135E+03  0.38112564760E+02  0.24321558151E+02  0.20432551171E+03  0.17200000000E+03 0. -1.
         -6    1    1    2    0  502 -0.10060223135E+03 -0.38112564760E+02  0.23588070453E+03  0.31112229640E+03  0.17200000000E+03 0. -1.
<mgrwt>
<rscale>  2 0.20287281E+03</rscale>
<asrwt>0</asrwt>
<pdfrwt beam="1">  1       21 0.96956256E-01 0.20287281E+03</pdfrwt>
<pdfrwt beam="2">  1       21 0.31905694E-01 0.20287281E+03</pdfrwt>
<totfact> 0.82807247E+03</totfact>
</mgrwt>
</event>
<event>
 4    1  0.1091654E+000  0.1819579E+03  0.7546771E-02  0.1165922E+00
         21   -1    0    0  501  502  0.00000000000E+00  0.00000000000E+00  0.48719740485E+02  0.48719740485E+02  0.00000000000E+00 0.  1.
         21   -1    0    0  502  503 -0.00000000000E+00 -0.00000000000E+00 -0.70789892039E+03  0.70789892039E+03  0.00000000000E+00 0.  1.
          6    1    1    2  501    0  0.50181381139E+02 -0.31725225056E+02 -0.25391552981E+03  0.31238078878E+03  0.17200000000E+03 0.  1.
         -6    1    1    2    0  503 -0.50181381139E+02  0.31725225056E+02 -0.40526365009E+03  0.44423787210E+03  0.17200000000E+03 0.  1.
<mgrwt>
<rscale>  2 0.18195785E+03</rscale>
<asrwt>0</asrwt>
<pdfrwt beam="1">  1       21 0.12179935E-01 0.18195785E+03</pdfrwt>
<pdfrwt beam="2">  1       21 0.17697473E+00 0.18195785E+03</pdfrwt>
<totfact> 0.10998014E+04</totfact>
</mgrwt>
</event>
<event>
 4    1  0.1091654E+000  0.2576460E+03  0.7546771E-02  0.1108566E+00
         21   -1    0    0  503  502  0.00000000000E+00  0.00000000000E+00  0.18811097087E+03  0.18811097087E+03  0.00000000000E+00 0.  1.
         21   -1    0    0  501  503 -0.00000000000E+00 -0.00000000000E+00 -0.61802860871E+03  0.61802860871E+03  0.00000000000E+00 0. -1.
          6    1    1    2  501    0  0.10147509336E+03 -0.16278909458E+03 -0.47896663518E+03  0.54386627170E+03  0.17200000000E+03 0. -1.
         -6    1    1    2    0  502 -0.10147509336E+03  0.16278909458E+03  0.49048997330E+02  0.26227330788E+03  0.17200000000E+03 0.  1.
<mgrwt>
<rscale>  2 0.25764604E+03</rscale>
<asrwt>0</asrwt>
<pdfrwt beam="1">  1       21 0.47027743E-01 0.25764604E+03</pdfrwt>
<pdfrwt beam="2">  1       21 0.15450715E+00 0.25764604E+03</pdfrwt>
<totfact> 0.11274958E+03</totfact>
</mgrwt>
</event>
<event>
 4    1  0.1091654E+000  0.1964099E+03  0.7546771E-02  0.1152804E+00
         21   -1    0    0  503  502  0.00000000000E+00  0.00000000000E+00  0.11465291395E+03  0.11465291395E+03  0.00000000000E+00 0. -1.
         21   -1    0    0  501  503 -0.00000000000E+00 -0.00000000000E+00 -0.63916353021E+03  0.63916353021E+03  0.00000000000E+00 0.  1.
          6    1    1    2  501    0 -0.90408502183E+02 -0.28621124167E+02 -0.52163363813E+03  0.55738543078E+03  0.17200000000E+03 0.  1.
         -6    1    1    2    0  502  0.90408502183E+02  0.28621124167E+02 -0.28769781259E+01  0.19643101338E+03  0.17200000000E+03 0. -1.
<mgrwt>
<rscale>  2 0.19640994E+03</rscale>
<asrwt>0</asrwt>
<pdfrwt beam="1">  1       21 0.28663229E-01 0.19640994E+03</pdfrwt>
<pdfrwt beam="2">  1       21 0.15979088E+00 0.19640994E+03</pdfrwt>
<totfact> 0.29308297E+03</totfact>
</mgrwt>
</event>
<event>
 4    1  0.1091654E+000  0.2437771E+03  0.7546771E-02  0.1117302E+00
         21   -1    0    0  503  502  0.00000000000E+00  0.00000000000E+00  0.13519762580E+03  0.13519762580E+03  0.00000000000E+00 0. -1.
         21   -1    0    0  501  503 -0.00000000000E+00 -0.00000000000E+00 -0.13815541931E+04  0.13815541931E+04  0.00000000000E+00 0.  1.
          6    1    1    2  501    0 -0.16030517192E+03  0.64385573904E+02 -0.12493955685E+04  0.12729558267E+04  0.17200000000E+03 0.  1.
         -6    1    1    2    0  502  0.16030517192E+03 -0.64385573904E+02  0.30390011746E+01  0.24379599217E+03  0.17200000000E+03 0. -1.
<mgrwt>
<rscale>  2 0.24377705E+03</rscale>
<asrwt>0</asrwt>
<pdfrwt beam="1">  1       21 0.33799406E-01 0.24377705E+03</pdfrwt>
<pdfrwt beam="2">  1       21 0.34538855E+00 0.24377705E+03</pdfrwt>
<totfact> 0.14538710E+02</totfact>
</mgrwt>
</event>
<event>
 4    1  0.1091654E+000  0.1934801E+03  0.7546771E-02  0.1155359E+00
         21   -1    0    0  501  502  0.00000000000E+00  0.00000000000E+00  0.37298355966E+02  0.37298355966E+02  0.00000000000E+00 0.  1.
         21   -1    0    0  502  503 -0.00000000000E+00 -0.00000000000E+00 -0.10286516804E+04  0.10286516804E+04  0.00000000000E+00 0.  1.
          6    1    1    2  501    0 -0.12100087797E+02 -0.87773158128E+02 -0.41258701169E+03  0.45570010053E+03  0.17200000000E+03 0. -1.
         -6    1    1    2    0  503  0.12100087797E+02  0.87773158128E+02 -0.57876631273E+03  0.61024993581E+03  0.17200000000E+03 0. -1.
<mgrwt>
<rscale>  2 0.19348007E+03</rscale>
<asrwt>0</asrwt>
<pdfrwt beam="1">  1       21 0.93245893E-02 0.19348007E+03</pdfrwt>
<pdfrwt beam="2">  1       21 0.25716291E+00 0.19348007E+03</pdfrwt>
<totfact> 0.55361581E+03</totfact>
</mgrwt>
</event>
<event>
 4    1  0.1091654E+000  0.1726998E+03  0.7546771E-02  0.1175061E+00
         21   -1    0    0  503  502  0.00000000000E+00  0.00000000000E+00  0.14493749817E+03  0.14493749817E+03  0.00000000000E+00 0. -1.
         21   -1    0    0  501  503 -0.00000000000E+00 -0.00000000000E+00 -0.22208067075E+03  0.22208067075E+03  0.00000000000E+00 0. -1.
          6    1    1    2  501    0  0.14101419967E+02 -0.65091578465E+01 -0.88288789499E+02  0.19395909242E+03  0.17200000000E+03 0.  1.
         -6    1    1    2    0  502 -0.14101419967E+02  0.65091578465E+01  0.11145616921E+02  0.17305907650E+03  0.17200000000E+03 0.  1.
<mgrwt>
<rscale>  2 0.17269979E+03</rscale>
<asrwt>0</asrwt>
<pdfrwt beam="1">  1       21 0.36234375E-01 0.17269979E+03</pdfrwt>
<pdfrwt beam="2">  1       21 0.55520167E-01 0.17269979E+03</pdfrwt>
<totfact> 0.22724302E+04</totfact>
</mgrwt>
</event>
<event>
 4    1  0.1091654E+000  0.1906117E+03  0.7546771E-02  0.1157911E+00
         21   -1    0    0  501  502  0.00000000000E+00  0.00000000000E+00  0.20110771525E+03  0.20110771525E+03  0.00000000000E+00 0. -1.
         21   -1    0    0  502  503 -0.00000000000E+00 -0.00000000000E+00 -0.37972724741E+03  0.37972724741E+03  0.00000000000E+00 0. -1.
          6    1    1    2  501    0  0.70297091055E+02 -0.42510611557E+02  0.12096294340E+03  0.22575399616E+03  0.17200000000E+03 0. -1.
         -6    1    1    2    0  503 -0.70297091055E+02  0.42510611557E+02 -0.29958247556E+03  0.35508096650E+03  0.17200000000E+03 0. -1.
<mgrwt>
<rscale>  2 0.19061173E+03</rscale>
<asrwt>0</asrwt>
<pdfrwt beam="1">  1       21 0.50276929E-01 0.19061173E+03</pdfrwt>
<pdfrwt beam="2">  1       21 0.94931811E-01 0.19061173E+03</pdfrwt>
<totfact> 0.35013153E+03</totfact>
</mgrwt>
</event>
<event>
 4    1  0.1091654E+000  0.2937475E+03  0.7546771E-02  0.1088409E+00
         21   -1    0    0  501  502  0.00000000000E+00  0.00000000000E+00  0.26820469148E+03  0.26820469148E+03  0.00000000000E+00 0.  1.
         21   -1    0    0  502  503 -0.00000000000E+00 -0.00000000000E+00 -0.50412577644E+03  0.50412577644E+03  0.00000000000E+00 0.  1.
          6    1    1    2  501    0 -0.23238743224E+03  0.51958651843E+02  0.11432353059E+03  0.31521023113E+03  0.17200000000E+03 0.  1.
         -6    1    1    2    0  503  0.23238743224E+03 -0.51958651843E+02 -0.35024461555E+03  0.45712023679E+03  0.17200000000E+03 0.  1.
<mgrwt>
<rscale>  2 0.29374754E+03</rscale>
<asrwt>0</asrwt>
<pdfrwt beam="1">  1       21 0.67051173E-01 0.29374754E+03</pdfrwt>
<pdfrwt beam="2">  1       21 0.12603144E+00 0.29374754E+03</pdfrwt>
<totfact> 0.87382342E+02</totfact>
</mgrwt>
</event>
<event>
 4    1  0.1091654E+000  0.1956602E+03  0.7546771E-02  0.1153453E+00
         21   -1    0    0  503  502  0.00000000000E+00  0.00000000000E+00  0.38860406901E+03  0.38860406901E+03  0.00000000000E+00 0. -1.
         21   -1    0    0  501  503 -0.00000000000E+00 -0.00000000000E+00 -0.21158208612E+03  0.21158208612E+03  0.00000000000E+00 0. -1.
          6    1    1    2  501    0  0.18960899183E+02 -0.91320398082E+02 -0.13086374000E+03  0.23538956912E+03  0.17200000000E+03 0. -1.
         -6    1    1    2    0  502 -0.18960899183E+02  0.91320398082E+02  0.30788572289E+03  0.36479658601E+03  0.17200000000E+03 0. -1.
<mgrwt>
<rscale>  2 0.19566024E+03</rscale>
<asrwt>0</asrwt>
<pdfrwt beam="1">  1       21 0.97151016E-01 0.19566024E+03</pdfrwt>
<pdfrwt beam="2">  1       21 0.52895522E-01 0.19566024E+03</pdfrwt>
<totfact> 0.29690780E+03</totfact>
</mgrwt>
</event>
<event>
 4    1  0.1091654E+000  0.1741281E+03  0.7546771E-02  0.1173610E+00
         21   -1    0    0  503  502  0.00000000000E+00  0.00000000000E+00  0.15891555799E+03  0.15891555799E+03  0.00000000000E+00 0.  1.
         21   -1    0    0  501  503 -0.00000000000E+00 -0.00000000000E+00 -0.19388646014E+03  0.19388646014E+03  0.00000000000E+00 0.  1.
          6    1    1    2  501    0  0.13964926371E+02  0.23271589441E+02 -0.39753387757E+02  0.17860828055E+03  0.17200000000E+03 0.  1.
         -6    1    1    2    0  502 -0.13964926371E+02 -0.23271589441E+02  0.47824856106E+01  0.17419373758E+03  0.17200000000E+03 0.  1.
<mgrwt>
<rscale>  2 0.17412807E+03</rscale>
<asrwt>0</asrwt>
<pdfrwt beam="1">  1       21 0.39728890E-01 0.17412807E+03</pdfrwt>
<pdfrwt beam="2">  1       21 0.48471615E-01 0.17412807E+03</pdfrwt>
<totfact> 0.25086626E+04</totfact>
</mgrwt>
</event>
<event>
 4    1  0.1091654E+000  0.2345508E+03  0.7546771E-02  0.1123477E+00
         21   -1    0    0  501  502  0.00000000000E+00  0.00000000000E+00  0.46137742129E+03  0.46137742129E+03  0.00000000000E+00 0. -1.
         21   -1    0    0  502  503 -0.00000000000E+00 -0.00000000000E+00 -0.15167231263E+03  0.15167231263E+03  0.00000000000E+00 0. -1.
          6    1    1    2  501    0  0.14712140763E+03 -0.61525460782E+02  0.29659813884E+03  0.37813297512E+03  0.17200000000E+03 0. -1.
         -6    1    1    2    0  503 -0.14712140763E+03  0.61525460782E+02  0.13106969820E+02  0.23491675880E+03  0.17200000000E+03 0. -1.
<mgrwt>
<rscale>  2 0.23455083E+03</rscale>
<asrwt>0</asrwt>
<pdfrwt beam="1">  1       21 0.11534435E+00 0.23455083E+03</pdfrwt>
<pdfrwt beam="2">  1       21 0.37918079E-01 0.23455083E+03</pdfrwt>
<totfact> 0.37778304E+03</totfact>
</mgrwt>
</event>
<event>
 4    1  0.1091654E+000  0.2210496E+03  0.7546771E-02  0.1133103E+00
         21   -1    0    0  503  502  0.00000000000E+00  0.00000000000E+00  0.67192216568E+02  0.67192216568E+02  0.00000000000E+00 0.  1.
         21   -1    0    0  501  503 -0.00000000000E+00 -0.00000000000E+00 -0.15129909632E+04  0.15129909632E+04  0.00000000000E+00 0. -1.
          6    1    1    2  501    0 -0.11602230299E+03  0.76274309025E+02 -0.12922891172E+04  0.13110583921E+04  0.17200000000E+03 0. -1.
         -6    1    1    2    0  502  0.11602230299E+03 -0.76274309025E+02 -0.15350962938E+03  0.26912478763E+03  0.17200000000E+03 0.  1.
<mgrwt>
<rscale>  2 0.22104964E+03</rscale>
<asrwt>0</asrwt>
<pdfrwt beam="1">  1       21 0.16798054E-01 0.22104964E+03</pdfrwt>
<pdfrwt beam="2">  1       21 0.37824774E+00 0.22104964E+03</pdfrwt>
<totfact> 0.36184109E+02</totfact>
</mgrwt>
</event>
<event>
 4    1  0.1091654E+000  0.2925472E+03  0.7546771E-02  0.1089027E+00
         21   -1    0    0  503  502  0.00000000000E+00  0.00000000000E+00  0.66874329714E+03  0.66874329714E+03  0.00000000000E+00 0. -1.
         21   -1    0    0  501  503 -0.00000000000E+00 -0.00000000000E+00 -0.14789186359E+03  0.14789186359E+03  0.00000000000E+00 0.  1.
          6    1    1    2  501    0  0.30379459679E+02  0.23468475015E+03  0.11059072102E+03  0.31275253971E+03  0.17200000000E+03 0. -1.
         -6    1    1    2    0  502 -0.30379459679E+02 -0.23468475015E+03  0.41026071253E+03  0.50388262102E+03  0.17200000000E+03 0. -1.
<mgrwt>
<rscale>  2 0.29254716E+03</rscale>
<asrwt>0</asrwt>
<pdfrwt beam="1">  1       21 0.16718582E+00 0.29254716E+03</pdfrwt>
<pdfrwt beam="2">  1       21 0.36972968E-01 0.29254716E+03</pdfrwt>
<totfact> 0.14500125E+03</totfact>
</mgrwt>
</event>
<event>
 4    1  0.1091654E+000  0.2074946E+03  0.7546771E-02  0.1143565E+00
         21   -1    0    0  503  502  0.00000000000E+00  0.00000000000E+00  0.36211440908E+03  0.36211440908E+03  0.00000000000E+00 0.  1.
         21   -1    0    0  501  503 -0.00000000000E+00 -0.00000000000E+00 -0.12210999103E+03  0.12210999103E+03  0.00000000000E+00 0.  1.
          6    1    1    2  501    0  0.64783141145E+02 -0.96297211609E+02  0.80723843163E+02  0.22264399205E+03  0.17200000000E+03 0.  1.
         -6    1    1    2    0  502 -0.64783141145E+02  0.96297211609E+02  0.15928057489E+03  0.26158040805E+03  0.17200000000E+03 0.  1.
<mgrwt>
<rscale>  2 0.20749460E+03</rscale>
<asrwt>0</asrwt>
<pdfrwt beam="1">  1       21 0.90528600E-01 0.20749460E+03</pdfrwt>
<pdfrwt beam="2">  1       21 0.30527499E-01 0.20749460E+03</pdfrwt>
<totfact> 0.10566822E+04</totfact>
</mgrwt>
</event>
<event>
 4    1  0.1091654E+000  0.1854279E+03  0.7546771E-02  0.1162651E+00
         21   -1    0    0  503  502  0.00000000000E+00  0.00000000000E+00  0.20143607359E+03  0.20143607359E+03  0.00000000000E+00 0. -1.
         21   -1    0    0  501  503 -0.00000000000E+00 -0.00000000000E+00 -0.23254232960E+03  0.23254232960E+03  0.00000000000E+00 0. -1.
          6    1    1    2  501    0 -0.64920406222E+02 -0.24183380147E+02 -0.12746049208E+03  0.22501038212E+03  0.17200000000E+03 0. -1.
         -6    1    1    2    0  502  0.64920406222E+02  0.24183380147E+02  0.96354236073E+02  0.20896802107E+03  0.17200000000E+03 0. -1.
<mgrwt>
<rscale>  2 0.18542787E+03</rscale>
<asrwt>0</asrwt>
<pdfrwt beam="1">  1       21 0.50359019E-01 0.18542787E+03</pdfrwt>
<pdfrwt beam="2">  1       21 0.58135582E-01 0.18542787E+03</pdfrwt>
<totfact> 0.10458991E+04</totfact>
</mgrwt>
</event>
<event>
 4    1  0.1091654E+000  0.2095217E+03  0.7546771E-02  0.1141945E+00
         21   -1    0    0  501  502  0.00000000000E+00  0.00000000000E+00  0.14483161783E+03  0.14483161783E+03  0.00000000000E+00 0.  1.
         21   -1    0    0  502  503 -0.00000000000E+00 -0.00000000000E+00 -0.13896770190E+04  0.13896770190E+04  0.00000000000E+00 0.  1.
          6    1    1    2  501    0 -0.11884996844E+03  0.13784434984E+02  0.56017340212E+02  0.21688076921E+03  0.17200000000E+03 0.  1.
         -6    1    1    2    0  503  0.11884996844E+03 -0.13784434984E+02 -0.13008627414E+04  0.13176278676E+04  0.17200000000E+03 0.  1.
<mgrwt>
<rscale>  2 0.20952166E+03</rscale>
<asrwt>0</asrwt>
<pdfrwt beam="1">  1       21 0.36207904E-01 0.20952166E+03</pdfrwt>
<pdfrwt beam="2">  1       21 0.34741926E+00 0.20952166E+03</pdfrwt>
<totfact> 0.12958458E+02</totfact>
</mgrwt>
</event>
<event>
 4    1  0.1091654E+000  0.1898339E+03  0.7546771E-02  0.1158611E+00
         21   -1    0    0  501  502  0.00000000000E+00  0.00000000000E+00  0.14219869774E+03  0.14219869774E+03  0.00000000000E+00 0. -1.
         21   -1    0    0  502  503 -0.00000000000E+00 -0.00000000000E+00 -0.34959903814E+03  0.34959903814E+03  0.00000000000E+00 0. -1.
          6    1    1    2  501    0 -0.78380825834E+02  0.17588173189E+02  0.25272377973E+02  0.19150872247E+03  0.17200000000E+03 0. -1.
         -6    1    1    2    0  503  0.78380825834E+02 -0.17588173189E+02 -0.23267271837E+03  0.30028901340E+03  0.17200000000E+03 0. -1.
<mgrwt>
<rscale>  2 0.18983387E+03</rscale>
<asrwt>0</asrwt>
<pdfrwt beam="1">  1       21 0.35549675E-01 0.18983387E+03</pdfrwt>
<pdfrwt beam="2">  1       21 0.87399759E-01 0.18983387E+03</pdfrwt>
<totfact> 0.85939141E+03</totfact>
</mgrwt>
</event>
<event>
 4    1  0.1091654E+000  0.1729876E+03  0.7546771E-02  0.1174768E+00
         21   -1    0    0  503  502  0.00000000000E+00  0.00000000000E+00  0.93949904669E+03  0.93949904669E+03  0.00000000000E+00 0.  1.
         21   -1    0    0  501  503 -0.00000000000E+00 -0.00000000000E+00 -0.40404051292E+02  0.40404051292E+02  0.00000000000E+00 0.  1.
          6    1    1    2  501    0 -0.44440430191E+01 -0.17915732922E+02  0.22413330919E+03  0.28312623208E+03  0.17200000000E+03 0.  1.
         -6    1    1    2    0  502  0.44440430191E+01  0.17915732922E+02  0.67496168621E+03  0.69677686590E+03  0.17200000000E+03 0.  1.
<mgrwt>
<rscale>  2 0.17298764E+03</rscale>
<asrwt>0</asrwt>
<pdfrwt beam="1">  1       21 0.23487469E+00 0.17298764E+03</pdfrwt>
<pdfrwt beam="2">  1       21 0.10101016E-01 0.17298764E+03</pdfrwt>
<totfact> 0.66472061E+03</totfact>
</mgrwt>
</event>
<event>
 4    1  0.1091654E+000  0.2072574E+03  0.7546771E-02  0.1143756E+00
         21   -1    0    0  501  502  0.00000000000E+00  0.00000000000E+00  0.14466757560E+03  0.14466757560E+03  0.00000000000E+00 0. -1.
         21   -1    0    0  502  503 -0.00000000000E+00 -0.00000000000E+00 -0.42929142922E+03  0.42929142922E+03  0.00000000000E+00 0. -1.
          6    1    1    2  501    0  0.54306474544E+02  0.10209042986E+03  0.17041386292E+02  0.20795686546E+03  0.17200000000E+03 0. -1.
         -6    1    1    2    0  503 -0.54306474544E+02 -0.10209042986E+03 -0.30166523991E+03  0.36600213936E+03  0.17200000000E+03 0. -1.
<mgrwt>
<rscale>  2 0.20725745E+03</rscale>
<asrwt>0</asrwt>
<pdfrwt beam="1">  1       21 0.36166894E-01 0.20725745E+03</pdfrwt>
<pdfrwt beam="2">  1       21 0.10732286E+00 0.20725745E+03</pdfrwt>
<totfact> 0.50517466E+03</totfact>
</mgrwt>
</event>
<event>
 4    1  0.1091654E+000  0.1767532E+03  0.7546771E-02  0.1170983E+00
         21   -1    0    0  503  502  0.00000000000E+00  0.00000000000E+00  0.27918277212E+03  0.27918277212E+03  0.00000000000E+00 0. -1.
         21   -1    0    0  501  503 -0.00000000000E+00 -0.00000000000E+00 -0.11330112783E+03  0.11330112783E+03  0.00000000000E+00 0. -1.
          6    1    1    2  501    0  0.38894922808E-01  0.40714830474E+02  0.61149875222E+02  0.18703209931E+03  0.17200000000E+03 0. -1.
         -6    1    1    2    0  502 -0.38894922808E-01 -0.40714830474E+02  0.10473176906E+03  0.20545180063E+03  0.17200000000E+03 0. -1.
<mgrwt>
<rscale>  2 0.17675321E+03</rscale>
<asrwt>0</asrwt>
<pdfrwt beam="1">  1       21 0.69795692E-01 0.17675321E+03</pdfrwt>
<pdfrwt beam="2">  1       21 0.28325282E-01 0.17675321E+03</pdfrwt>
<totfact> 0.22427939E+04</totfact>
</mgrwt>
</event>
<event>
 4    1  0.1091654E+000  0.2624398E+03  0.7546771E-02  0.1105686E+00
         21   -1    0    0  501  502  0.00000000000E+00  0.00000000000E+00  0.12459845088E+03  0.12459845088E+03  0.00000000000E+00 0. -1.
         21   -1    0    0  502  503 -0.00000000000E+00 -0.00000000000E+00 -0.11807681001E+04  0.11807681001E+04  0.00000000000E+00 0.  1.
          6    1    1    2  501    0 -0.16116795218E+03 -0.11539303491E+03 -0.52094306978E+02  0.26756023272E+03  0.17200000000E+03 0. -1.
         -6    1    1    2    0  503  0.16116795218E+03  0.11539303491E+03 -0.10040753422E+04  0.10378063182E+04  0.17200000000E+03 0.  1.
<mgrwt>
<rscale>  2 0.26243982E+03</rscale>
<asrwt>0</asrwt>
<pdfrwt beam="1">  1       21 0.31149613E-01 0.26243982E+03</pdfrwt>
<pdfrwt beam="2">  1       21 0.29519202E+00 0.26243982E+03</pdfrwt>
<totfact> 0.32987621E+02</totfact>
</mgrwt>
</event>
<event>
 4    1  0.1091654E+000  0.2145276E+03  0.7546771E-02  0.1138030E+00
         21   -1    0    0  503  502  0.00000000000E+00  0.00000000000E+00  0.82789160666E+02  0.82789160666E+02  0.00000000000E+00 0. -1.
         21   -1    0    0  501  503 -0.00000000000E+00 -0.00000000000E+00 -0.55708450169E+03  0.55708450169E+03  0.00000000000E+00 0.  1.
          6    1    1    2  501    0 -0.12469488194E+03 -0.29820734176E+02 -0.22236456343E+03  0.30897910745E+03  0.17200000000E+03 0. -1.
         -6    1    1    2    0  502  0.12469488194E+03  0.29820734176E+02 -0.25193077759E+03  0.33089455491E+03  0.17200000000E+03 0. -1.
<mgrwt>
<rscale>  2 0.21452760E+03</rscale>
<asrwt>0</asrwt>
<pdfrwt beam="1">  1       21 0.20697291E-01 0.21452760E+03</pdfrwt>
<pdfrwt beam="2">  1       21 0.13927112E+00 0.21452760E+03</pdfrwt>
<totfact> 0.77232468E+03</totfact>
</mgrwt>
</event>
<event>
 4    1  0.1091654E+000  0.1872498E+03  0.7546771E-02  0.1160965E+00
         21   -1    0    0  501  502  0.00000000000E+00  0.00000000000E+00  0.42297699012E+02  0.42297699012E+02  0.00000000000E+00 0.  1.
         21   -1    0    0  502  503 -0.00000000000E+00 -0.00000000000E+00 -0.91493847406E+03  0.91493847406E+03  0.00000000000E+00 0.  1.
          6    1    1    2  501    0 -0.54290381972E+02  0.50309429404E+02 -0.58305238321E+03  0.61238269556E+03  0.17200000000E+03 0.  1.
         -6    1    1    2    0  503  0.54290381972E+02 -0.50309429404E+02 -0.28958839184E+03  0.34485347751E+03  0.17200000000E+03 0.  1.
<mgrwt>
<rscale>  2 0.18724979E+03</rscale>
<asrwt>0</asrwt>
<pdfrwt beam="1">  1       21 0.10574426E-01 0.18724979E+03</pdfrwt>
<pdfrwt beam="2">  1       21 0.22873460E+00 0.18724979E+03</pdfrwt>
<totfact> 0.65769442E+03</totfact>
</mgrwt>
</event>
<event>
 4    1  0.1091654E+000  0.1785349E+03  0.7546771E-02  0.1169229E+00
         21   -1    0    0  501  502  0.00000000000E+00  0.00000000000E+00  0.33148773478E+03  0.33148773478E+03  0.00000000000E+00 0.  1.
         21   -1    0    0  502  503 -0.00000000000E+00 -0.00000000000E+00 -0.98285552538E+02  0.98285552538E+02  0.00000000000E+00 0.  1.
          6    1    1    2  501    0  0.43054674956E+02  0.20904840344E+02  0.14822769321E+03  0.23204776754E+03  0.17200000000E+03 0.  1.
         -6    1    1    2    0  503 -0.43054674956E+02 -0.20904840344E+02  0.84974489031E+02  0.19772551978E+03  0.17200000000E+03 0.  1.
<mgrwt>
<rscale>  2 0.17853492E+03</rscale>
<asrwt>0</asrwt>
<pdfrwt beam="1">  1       21 0.82871931E-01 0.17853492E+03</pdfrwt>
<pdfrwt beam="2">  1       21 0.24571389E-01 0.17853492E+03</pdfrwt>
<totfact> 0.20047144E+04</totfact>
</mgrwt>
</event>
<event>
 4    1  0.1091654E+000  0.2122421E+03  0.7546771E-02  0.1139803E+00
         21   -1    0    0  501  502  0.00000000000E+00  0.00000000000E+00  0.51615316530E+03  0.51615316530E+03  0.00000000000E+00 0. -1.
         21   -1    0    0  502  503 -0.00000000000E+00 -0.00000000000E+00 -0.12627750640E+03  0.12627750640E+03  0.00000000000E+00 0. -1.
          6    1    1    2  501    0  0.12421869524E+03 -0.56946984246E+01  0.37345726439E+03  0.42955446937E+03  0.17200000000E+03 0. -1.
         -6    1    1    2    0  503 -0.12421869524E+03  0.56946984246E+01  0.16418394515E+02  0.21287620232E+03  0.17200000000E+03 0. -1.
<mgrwt>
<rscale>  2 0.21224211E+03</rscale>
<asrwt>0</asrwt>
<pdfrwt beam="1">  1       21 0.12903829E+00 0.21224211E+03</pdfrwt>
<pdfrwt beam="2">  1       21 0.31569378E-01 0.21224211E+03</pdfrwt>
<totfact> 0.41802221E+03</totfact>
</mgrwt>
</event>
<event>
 4    1  0.1091654E+000  0.2557177E+03  0.7546771E-02  0.1109744E+00
         21   -1    0    0  501  502  0.00000000000E+00  0.00000000000E+00  0.99147004087E+03  0.99147004087E+03  0.00000000000E+00 0. -1.
         21   -1    0    0  502  503 -0.00000000000E+00 -0.00000000000E+00 -0.10153348034E+03  0.10153348034E+03  0.00000000000E+00 0. -1.
          6    1    1    2  501    0 -0.14757017408E+03 -0.11845087629E+03  0.76847685615E+03  0.80990631854E+03  0.17200000000E+03 0. -1.
         -6    1    1    2    0  503  0.14757017408E+03  0.11845087629E+03  0.12145970438E+03  0.28309720267E+03  0.17200000000E+03 0. -1.
<mgrwt>
<rscale>  2 0.25571775E+03</rscale>
<asrwt>0</asrwt>
<pdfrwt beam="1">  1       21 0.24786748E+00 0.25571775E+03</pdfrwt>
<pdfrwt beam="2">  1       21 0.25383373E-01 0.25571775E+03</pdfrwt>
<totfact> 0.94078030E+02</totfact>
</mgrwt>
</event>
<event>
 4    1  0.1091654E+000  0.2226758E+03  0.7546771E-02  0.1131904E+00
         21   -1    0    0  501  502  0.00000000000E+00  0.00000000000E+00  0.17626609867E+03  0.17626609867E+03  0.00000000000E+00 0. -1.
         21   -1    0    0  502  503 -0.00000000000E+00 -0.00000000000E+00 -0.28395156350E+03  0.28395156350E+03  0.00000000000E+00 0.  1.
          6    1    1    2  501    0 -0.55099393286E+02 -0.13024813059E+03 -0.76058425419E+02  0.23530703929E+03  0.17200000000E+03 0.  1.
         -6    1    1    2    0  503  0.55099393286E+02  0.13024813059E+03 -0.31627039406E+02  0.22491062288E+03  0.17200000000E+03 0. -1.
<mgrwt>
<rscale>  2 0.22267582E+03</rscale>
<asrwt>0</asrwt>
<pdfrwt beam="1">  1       21 0.44066525E-01 0.22267582E+03</pdfrwt>
<pdfrwt beam="2">  1       21 0.70987890E-01 0.22267582E+03</pdfrwt>
<totfact> 0.87067959E+03</totfact>
</mgrwt>
</event>
<event>
 4    1  0.1091654E+000  0.1877434E+03  0.7546771E-02  0.1160513E+00
         21   -1    0    0  503  502  0.00000000000E+00  0.00000000000E+00  0.62912178990E+02  0.62912178990E+02  0.00000000000E+00 0. -1.
         21   -1    0    0  501  503 -0.00000000000E+00 -0.00000000000E+00 -0.82635617387E+03  0.82635617387E+03  0.00000000000E+00 0. -1.
          6    1    1    2  501    0 -0.33498357352E+02  0.67390287772E+02 -0.63403123748E+03  0.66124367742E+03  0.17200000000E+03 0. -1.
         -6    1    1    2    0  502  0.33498357352E+02 -0.67390287772E+02 -0.12941275741E+03  0.22802467544E+03  0.17200000000E+03 0. -1.
<mgrwt>
<rscale>  2 0.18774342E+03</rscale>
<asrwt>0</asrwt>
<pdfrwt beam="1">  1       21 0.15728045E-01 0.18774342E+03</pdfrwt>
<pdfrwt beam="2">  1       21 0.20658904E+00 0.18774342E+03</pdfrwt>
<totfact> 0.44071124E+03</totfact>
</mgrwt>
</event>
<event>
 4    1  0.1091654E+000  0.2707356E+03  0.7546771E-02  0.1100859E+00
         21   -1    0    0  501  502  0.00000000000E+00  0.00000000000E+00  0.35313855854E+03  0.35313855854E+03  0.00000000000E+00 0. -1.
         21   -1    0    0  502  503 -0.00000000000E+00 -0.00000000000E+00 -0.20786010458E+03  0.20786010458E+03  0.00000000000E+00 0. -1.
          6    1    1    2  501    0 -0.17902643415E+03  0.10799679754E+03  0.83280627655E+02  0.28325507117E+03  0.17200000000E+03 0. -1.
         -6    1    1    2    0  503  0.17902643415E+03 -0.10799679754E+03  0.61997826296E+02  0.27774359195E+03  0.17200000000E+03 0. -1.
<mgrwt>
<rscale>  2 0.27073561E+03</rscale>
<asrwt>0</asrwt>
<pdfrwt beam="1">  1       21 0.88284639E-01 0.27073561E+03</pdfrwt>
<pdfrwt beam="2">  1       21 0.51965027E-01 0.27073561E+03</pdfrwt>
<totfact> 0.36526945E+03</totfact>
</mgrwt>
</event>
<event>
 4    1  0.1091654E+000  0.2255137E+03  0.7546771E-02  0.1129838E+00
         21   -1    0    0  503  502  0.00000000000E+00  0.00000000000E+00  0.61748184158E+03  0.61748184158E+03  0.00000000000E+00 0.  1.
         21   -1    0    0  501  503 -0.00000000000E+00 -0.00000000000E+00 -0.90193894381E+02  0.90193894381E+02  0.00000000000E+00 0.  1.
          6    1    1    2  501    0 -0.52900813827E+02  0.13591882471E+03  0.15936978296E+03  0.27614335179E+03  0.17200000000E+03 0.  1.
         -6    1    1    2    0  502  0.52900813827E+02 -0.13591882471E+03  0.36791816424E+03  0.43153238418E+03  0.17200000000E+03 0.  1.
<mgrwt>
<rscale>  2 0.22551369E+03</rscale>
<asrwt>0</asrwt>
<pdfrwt beam="1">  1       21 0.15437045E+00 0.22551369E+03</pdfrwt>
<pdfrwt beam="2">  1       21 0.22548475E-01 0.22551369E+03</pdfrwt>
<totfact> 0.49714691E+03</totfact>
</mgrwt>
</event>
<event>
 4    1  0.1091654E+000  0.1767372E+03  0.7546771E-02  0.1170999E+00
         21   -1    0    0  503  502  0.00000000000E+00  0.00000000000E+00  0.20715938165E+03  0.20715938165E+03  0.00000000000E+00 0.  1.
         21   -1    0    0  501  503 -0.00000000000E+00 -0.00000000000E+00 -0.17517842787E+03  0.17517842787E+03  0.00000000000E+00 0.  1.
          6    1    1    2  501    0  0.39772633760E+02 -0.83761081906E+01  0.87330802835E+02  0.19713622373E+03  0.17200000000E+03 0.  1.
         -6    1    1    2    0  502 -0.39772633760E+02  0.83761081906E+01 -0.55349849061E+02  0.18520158578E+03  0.17200000000E+03 0.  1.
<mgrwt>
<rscale>  2 0.17673715E+03</rscale>
<asrwt>0</asrwt>
<pdfrwt beam="1">  1       21 0.51789845E-01 0.17673715E+03</pdfrwt>
<pdfrwt beam="2">  1       21 0.43794607E-01 0.17673715E+03</pdfrwt>
<totfact> 0.17911123E+04</totfact>
</mgrwt>
</event>
<event>
 4    1  0.1091654E+000  0.2134522E+03  0.7546771E-02  0.1138861E+00
         21   -1    0    0  501  502  0.00000000000E+00  0.00000000000E+00  0.24538181599E+03  0.24538181599E+03  0.00000000000E+00 0.  1.
         21   -1    0    0  502  503 -0.00000000000E+00 -0.00000000000E+00 -0.18567743523E+03  0.18567743523E+03  0.00000000000E+00 0. -1.
          6    1    1    2  501    0 -0.12430893538E+03 -0.22916066265E+02  0.29946573136E+02  0.21554269821E+03  0.17200000000E+03 0.  1.
         -6    1    1    2    0  503  0.12430893538E+03  0.22916066265E+02  0.29757807626E+02  0.21551655301E+03  0.17200000000E+03 0.  1.
<mgrwt>
<rscale>  2 0.21345224E+03</rscale>
<asrwt>0</asrwt>
<pdfrwt beam="1">  1       21 0.61345454E-01 0.21345224E+03</pdfrwt>
<pdfrwt beam="2">  1       21 0.46419359E-01 0.21345224E+03</pdfrwt>
<totfact> 0.10830864E+04</totfact>
</mgrwt>
</event>
<event>
 4    1  0.1091654E+000  0.1865785E+03  0.7546771E-02  0.1161584E+00
         21   -1    0    0  501  502  0.00000000000E+00  0.00000000000E+00  0.37892327893E+03  0.37892327893E+03  0.00000000000E+00 0.  1.
         21   -1    0    0  502  503 -0.00000000000E+00 -0.00000000000E+00 -0.49686068028E+03  0.49686068028E+03  0.00000000000E+00 0. -1.
          6    1    1    2  501    0  0.48942758258E+02  0.53217763276E+02  0.33637280663E+03  0.38465333608E+03  0.17200000000E+03 0.  1.
         -6    1    1    2    0  503 -0.48942758258E+02 -0.53217763276E+02 -0.45431020797E+03  0.49113062314E+03  0.17200000000E+03 0. -1.
<mgrwt>
<rscale>  2 0.18657847E+03</rscale>
<asrwt>0</asrwt>
<pdfrwt beam="1">  1       21 0.94730820E-01 0.18657847E+03</pdfrwt>
<pdfrwt beam="2">  1       21 0.12421517E+00 0.18657847E+03</pdfrwt>
<totfact> 0.45508767E+02</totfact>
</mgrwt>
</event>
<event>
 4    1  0.1091654E+000  0.1864563E+03  0.7546771E-02  0.1161697E+00
         21   -1    0    0  503  502  0.00000000000E+00  0.00000000000E+00  0.56973520439E+03  0.56973520439E+03  0.00000000000E+00 0. -1.
         21   -1    0    0  501  503 -0.00000000000E+00 -0.00000000000E+00 -0.19102940756E+03  0.19102940756E+03  0.00000000000E+00 0. -1.
          6    1    1    2  501    0  0.67267836800E+02 -0.25631665599E+02 -0.12444896935E+03  0.22417290229E+03  0.17200000000E+03 0. -1.
         -6    1    1    2    0  502 -0.67267836800E+02  0.25631665599E+02  0.50315476618E+03  0.53659170966E+03  0.17200000000E+03 0. -1.
<mgrwt>
<rscale>  2 0.18645628E+03</rscale>
<asrwt>0</asrwt>
<pdfrwt beam="1">  1       21 0.14243380E+00 0.18645628E+03</pdfrwt>
<pdfrwt beam="2">  1       21 0.47757353E-01 0.18645628E+03</pdfrwt>
<totfact> 0.14433968E+03</totfact>
</mgrwt>
</event>
<event>
 4    1  0.1091654E+000  0.1962168E+03  0.7546771E-02  0.1152971E+00
         21   -1    0    0  503  502  0.00000000000E+00  0.00000000000E+00  0.54225583115E+03  0.54225583115E+03  0.00000000000E+00 0. -1.
         21   -1    0    0  501  503 -0.00000000000E+00 -0.00000000000E+00 -0.75564226090E+02  0.75564226090E+02  0.00000000000E+00 0. -1.
          6    1    1    2  501    0  0.92399978048E+02 -0.19475002799E+02  0.15743889070E+03  0.25157113503E+03  0.17200000000E+03 0. -1.
         -6    1    1    2    0  502 -0.92399978048E+02  0.19475002799E+02  0.30925271437E+03  0.36624892221E+03  0.17200000000E+03 0. -1.
<mgrwt>
<rscale>  2 0.19621680E+03</rscale>
<asrwt>0</asrwt>
<pdfrwt beam="1">  1       21 0.13556395E+00 0.19621680E+03</pdfrwt>
<pdfrwt beam="2">  1       21 0.18891058E-01 0.19621680E+03</pdfrwt>
<totfact> 0.99519818E+03</totfact>
</mgrwt>
</event>
<event>
 4    1  0.1091654E+000  0.2108082E+03  0.7546771E-02  0.1140928E+00
         21   -1    0    0  503  502  0.00000000000E+00  0.00000000000E+00  0.16688636139E+03  0.16688636139E+03  0.00000000000E+00 0.  1.
         21   -1    0    0  501  503 -0.00000000000E+00 -0.00000000000E+00 -0.35087985867E+03  0.35087985867E+03  0.00000000000E+00 0. -1.
          6    1    1    2  501    0 -0.11975185143E+03 -0.22706903572E+02 -0.21910816760E+03  0.30405344678E+03  0.17200000000E+03 0. -1.
         -6    1    1    2    0  502  0.11975185143E+03  0.22706903572E+02  0.35114670318E+02  0.21371277328E+03  0.17200000000E+03 0.  1.
<mgrwt>
<rscale>  2 0.21080823E+03</rscale>
<asrwt>0</asrwt>
<pdfrwt beam="1">  1       21 0.41721591E-01 0.21080823E+03</pdfrwt>
<pdfrwt beam="2">  1       21 0.87719964E-01 0.21080823E+03</pdfrwt>
<totfact> 0.60816652E+03</totfact>
</mgrwt>
</event>
<event>
 4    1  0.1091654E+000  0.1964097E+03  0.7546771E-02  0.1152804E+00
         21   -1    0    0  503  502  0.00000000000E+00  0.00000000000E+00  0.10024431570E+03  0.10024431570E+03  0.00000000000E+00 0. -1.
         21   -1    0    0  501  503 -0.00000000000E+00 -0.00000000000E+00 -0.46110607369E+03  0.46110607369E+03  0.00000000000E+00 0. -1.
          6    1    1    2  501    0 -0.30017188963E+02 -0.89954193507E+02 -0.29458835257E+03  0.35406085075E+03  0.17200000000E+03 0. -1.
         -6    1    1    2    0  502  0.30017188963E+02  0.89954193507E+02 -0.66273405417E+02  0.20728953864E+03  0.17200000000E+03 0. -1.
<mgrwt>
<rscale>  2 0.19640975E+03</rscale>
<asrwt>0</asrwt>
<pdfrwt beam="1">  1       21 0.25061079E-01 0.19640975E+03</pdfrwt>
<pdfrwt beam="2">  1       21 0.11527652E+00 0.19640975E+03</pdfrwt>
<totfact> 0.87629333E+03</totfact>
</mgrwt>
</event>
<event>
 4    1  0.1091654E+000  0.2112892E+03  0.7546771E-02  0.1140549E+00
         21   -1    0    0  503  502  0.00000000000E+00  0.00000000000E+00  0.10120652341E+03  0.10120652341E+03  0.00000000000E+00 0.  1.
         21   -1    0    0  501  503 -0.00000000000E+00 -0.00000000000E+00 -0.53336190133E+03  0.53336190133E+03  0.00000000000E+00 0.  1.
          6    1    1    2  501    0  0.11837439193E+03 -0.32351485850E+02 -0.84122241907E+02  0.22741958333E+03  0.17200000000E+03 0.  1.
         -6    1    1    2    0  502 -0.11837439193E+03  0.32351485850E+02 -0.34803313601E+03  0.40714884141E+03  0.17200000000E+03 0.  1.
<mgrwt>
<rscale>  2 0.21128917E+03</rscale>
<asrwt>0</asrwt>
<pdfrwt beam="1">  1       21 0.25301631E-01 0.21128917E+03</pdfrwt>
<pdfrwt beam="2">  1       21 0.13334047E+00 0.21128917E+03</pdfrwt>
<totfact> 0.59138618E+03</totfact>
</mgrwt>
</event>
<event>
 4    1  0.1091654E+000  0.2343954E+03  0.7546771E-02  0.1123584E+00
         21   -1    0    0  503  502  0.00000000000E+00  0.00000000000E+00  0.13254301022E+03  0.13254301022E+03  0.00000000000E+00 0.  1.
         21   -1    0    0  501  503 -0.00000000000E+00 -0.00000000000E+00 -0.49347705468E+03  0.49347705468E+03  0.00000000000E+00 0.  1.
          6    1    1    2  501    0 -0.13579832803E+03  0.83162470963E+02 -0.55259166844E+02  0.24082100820E+03  0.17200000000E+03 0.  1.
         -6    1    1    2    0  502  0.13579832803E+03 -0.83162470963E+02 -0.30567487762E+03  0.38519905670E+03  0.17200000000E+03 0.  1.
<mgrwt>
<rscale>  2 0.23439536E+03</rscale>
<asrwt>0</asrwt>
<pdfrwt beam="1">  1       21 0.33135753E-01 0.23439536E+03</pdfrwt>
<pdfrwt beam="2">  1       21 0.12336926E+00 0.23439536E+03</pdfrwt>
<totfact> 0.41845984E+03</totfact>
</mgrwt>
</event>
<event>
 4    1  0.1091654E+000  0.1788941E+03  0.7546771E-02  0.1168878E+00
         21   -1    0    0  503  502  0.00000000000E+00  0.00000000000E+00  0.29631045131E+03  0.29631045131E+03  0.00000000000E+00 0. -1.
         21   -1    0    0  501  503 -0.00000000000E+00 -0.00000000000E+00 -0.20426185662E+03  0.20426185662E+03  0.00000000000E+00 0.  1.
          6    1    1    2  501    0 -0.29817907282E+02 -0.39114958349E+02 -0.12578965825E+03  0.21869185098E+03  0.17200000000E+03 0.  1.
         -6    1    1    2    0  502  0.29817907282E+02  0.39114958349E+02  0.21783825294E+03  0.28188045694E+03  0.17200000000E+03 0. -1.
<mgrwt>
<rscale>  2 0.17889407E+03</rscale>
<asrwt>0</asrwt>
<pdfrwt beam="1">  1       21 0.74077612E-01 0.17889407E+03</pdfrwt>
<pdfrwt beam="2">  1       21 0.51065464E-01 0.17889407E+03</pdfrwt>
<totfact> 0.60229333E+03</totfact>
</mgrwt>
</event>
<event>
 4    1  0.1091654E+000  0.2044945E+03  0.7546771E-02  0.1146001E+00
         21   -1    0    0  503  502  0.00000000000E+00  0.00000000000E+00  0.16217952716E+03  0.16217952716E+03  0.00000000000E+00 0.  1.
         21   -1    0    0  501  503 -0.00000000000E+00 -0.00000000000E+00 -0.45629991667E+03  0.45629991667E+03  0.00000000000E+00 0. -1.
          6    1    1    2  501    0 -0.11074229196E+02  0.11005168220E+03 -0.35099690217E+03  0.40622264417E+03  0.17200000000E+03 0. -1.
         -6    1    1    2    0  502  0.11074229196E+02 -0.11005168220E+03  0.56876512655E+02  0.21225679965E+03  0.17200000000E+03 0.  1.
<mgrwt>
<rscale>  2 0.20449453E+03</rscale>
<asrwt>0</asrwt>
<pdfrwt beam="1">  1       21 0.40544882E-01 0.20449453E+03</pdfrwt>
<pdfrwt beam="2">  1       21 0.11407498E+00 0.20449453E+03</pdfrwt>
<totfact> 0.34695068E+03</totfact>
</mgrwt>
</event>
<event>
 4    1  0.1091654E+000  0.1746333E+03  0.7546771E-02  0.1173100E+00
         21   -1    0    0  501  502  0.00000000000E+00  0.00000000000E+00  0.11259210478E+03  0.11259210478E+03  0.00000000000E+00 0. -1.
         21   -1    0    0  502  503 -0.00000000000E+00 -0.00000000000E+00 -0.27169972503E+03  0.27169972503E+03  0.00000000000E+00 0. -1.
          6    1    1    2  501    0 -0.14595400112E+02 -0.26453346965E+02 -0.68877837615E+02  0.18772576218E+03  0.17200000000E+03 0. -1.
         -6    1    1    2    0  503  0.14595400112E+02  0.26453346965E+02 -0.90229782642E+02  0.19656606764E+03  0.17200000000E+03 0. -1.
<mgrwt>
<rscale>  2 0.17463335E+03</rscale>
<asrwt>0</asrwt>
<pdfrwt beam="1">  1       21 0.28148026E-01 0.17463335E+03</pdfrwt>
<pdfrwt beam="2">  1       21 0.67924931E-01 0.17463335E+03</pdfrwt>
<totfact> 0.24126183E+04</totfact>
</mgrwt>
</event>
<event>
 4    1  0.1091654E+000  0.1744376E+03  0.7546771E-02  0.1173298E+00
         21   -1    0    0  503  502  0.00000000000E+00  0.00000000000E+00  0.15649335368E+03  0.15649335368E+03  0.00000000000E+00 0. -1.
         21   -1    0    0  501  503 -0.00000000000E+00 -0.00000000000E+00 -0.19444300947E+03  0.19444300947E+03  0.00000000000E+00 0. -1.
          6    1    1    2  501    0 -0.23776031102E+02 -0.16709004163E+02 -0.18230070284E+02  0.17538764477E+03  0.17200000000E+03 0. -1.
         -6    1    1    2    0  502  0.23776031102E+02  0.16709004163E+02 -0.19719585508E+02  0.17554871839E+03  0.17200000000E+03 0. -1.
<mgrwt>
<rscale>  2 0.17443764E+03</rscale>
<asrwt>0</asrwt>
<pdfrwt beam="1">  1       21 0.39123339E-01 0.17443764E+03</pdfrwt>
<pdfrwt beam="2">  1       21 0.48610752E-01 0.17443764E+03</pdfrwt>
<totfact> 0.25715646E+04</totfact>
</mgrwt>
</event>
<event>
 4    1  0.1091654E+000  0.1949481E+03  0.7546771E-02  0.1154073E+00
         21   -1    0    0  501  502  0.00000000000E+00  0.00000000000E+00  0.24680487419E+03  0.24680487419E+03  0.00000000000E+00 0. -1.
         21   -1    0    0  502  503 -0.00000000000E+00 -0.00000000000E+00 -0.24157959426E+03  0.24157959426E+03  0.00000000000E+00 0. -1.
          6    1    1    2  501    0  0.51825378292E+02  0.75728941190E+02  0.14965261395E+03  0.24576543132E+03  0.17200000000E+03 0. -1.
         -6    1    1    2    0  503 -0.51825378292E+02 -0.75728941190E+02 -0.14442733402E+03  0.24261903713E+03  0.17200000000E+03 0. -1.
<mgrwt>
<rscale>  2 0.19494805E+03</rscale>
<asrwt>0</asrwt>
<pdfrwt beam="1">  1       21 0.61701219E-01 0.19494805E+03</pdfrwt>
<pdfrwt beam="2">  1       21 0.60394898E-01 0.19494805E+03</pdfrwt>
<totfact> 0.62232061E+03</totfact>
</mgrwt>
</event>
<event>
 4    1  0.1091654E+000  0.2637169E+03  0.7546771E-02  0.1104930E+00
         21   -1    0    0  501  502  0.00000000000E+00  0.00000000000E+00  0.13137714803E+03  0.13137714803E+03  0.00000000000E+00 0.  1.
         21   -1    0    0  502  503 -0.00000000000E+00 -0.00000000000E+00 -0.59860485666E+03  0.59860485666E+03  0.00000000000E+00 0. -1.
          6    1    1    2  501    0 -0.14150889766E+03 -0.14120147175E+03 -0.10948112440E+03  0.28553938492E+03  0.17200000000E+03 0.  1.
         -6    1    1    2    0  503  0.14150889766E+03  0.14120147175E+03 -0.35774658423E+03  0.44444261977E+03  0.17200000000E+03 0. -1.
<mgrwt>
<rscale>  2 0.26371694E+03</rscale>
<asrwt>0</asrwt>
<pdfrwt beam="1">  1       21 0.32844288E-01 0.26371694E+03</pdfrwt>
<pdfrwt beam="2">  1       21 0.14965121E+00 0.26371694E+03</pdfrwt>
<totfact> 0.25343174E+03</totfact>
</mgrwt>
</event>
<event>
 4    1  0.1091654E+000  0.2131595E+03  0.7546771E-02  0.1139088E+00
         21   -1    0    0  501  502  0.00000000000E+00  0.00000000000E+00  0.11958957680E+03  0.11958957680E+03  0.00000000000E+00 0.  1.
         21   -1    0    0  502  503 -0.00000000000E+00 -0.00000000000E+00 -0.85668095528E+03  0.85668095528E+03  0.00000000000E+00 0. -1.
          6    1    1    2  501    0 -0.10975202069E+03  0.61704776477E+02 -0.44031665012E+01  0.21320500313E+03  0.17200000000E+03 0.  1.
         -6    1    1    2    0  503  0.10975202069E+03 -0.61704776477E+02 -0.73268821198E+03  0.76306552894E+03  0.17200000000E+03 0. -1.
<mgrwt>
<rscale>  2 0.21315953E+03</rscale>
<asrwt>0</asrwt>
<pdfrwt beam="1">  1       21 0.29897395E-01 0.21315953E+03</pdfrwt>
<pdfrwt beam="2">  1       21 0.21417023E+00 0.21315953E+03</pdfrwt>
<totfact> 0.11463215E+03</totfact>
</mgrwt>
</event>
<event>
 4    1  0.1091654E+000  0.2104030E+03  0.7546771E-02  0.1141247E+00
         21   -1    0    0  501  502  0.00000000000E+00  0.00000000000E+00  0.10584983592E+03  0.10584983592E+03  0.00000000000E+00 0.  1.
         21   -1    0    0  502  503 -0.00000000000E+00 -0.00000000000E+00 -0.75325836513E+03  0.75325836513E+03  0.00000000000E+00 0. -1.
          6    1    1    2  501    0 -0.72429296330E+02 -0.97156695034E+02 -0.37228690653E+02  0.21367124693E+03  0.17200000000E+03 0.  1.
         -6    1    1    2    0  503  0.72429296330E+02  0.97156695034E+02 -0.61017983855E+03  0.64543695411E+03  0.17200000000E+03 0. -1.
<mgrwt>
<rscale>  2 0.21040301E+03</rscale>
<asrwt>0</asrwt>
<pdfrwt beam="1">  1       21 0.26462459E-01 0.21040301E+03</pdfrwt>
<pdfrwt beam="2">  1       21 0.18831459E+00 0.21040301E+03</pdfrwt>
<totfact> 0.21361383E+03</totfact>
</mgrwt>
</event>
<event>
 4    1  0.1091654E+000  0.1833512E+03  0.7546771E-02  0.1164599E+00
         21   -1    0    0  503  502  0.00000000000E+00  0.00000000000E+00  0.18137353585E+03  0.18137353585E+03  0.00000000000E+00 0. -1.
         21   -1    0    0  501  503 -0.00000000000E+00 -0.00000000000E+00 -0.19514073544E+03  0.19514073544E+03  0.00000000000E+00 0. -1.
          6    1    1    2  501    0  0.51418074027E+02 -0.37280389621E+02  0.35283883974E+02  0.18671528661E+03  0.17200000000E+03 0. -1.
         -6    1    1    2    0  502 -0.51418074027E+02  0.37280389621E+02 -0.49051083566E+02  0.18979898468E+03  0.17200000000E+03 0. -1.
<mgrwt>
<rscale>  2 0.18335115E+03</rscale>
<asrwt>0</asrwt>
<pdfrwt beam="1">  1       21 0.45343384E-01 0.18335115E+03</pdfrwt>
<pdfrwt beam="2">  1       21 0.48785184E-01 0.18335115E+03</pdfrwt>
<totfact> 0.18815063E+04</totfact>
</mgrwt>
</event>
<event>
 4    1  0.1091654E+000  0.1763862E+03  0.7546771E-02  0.1171347E+00
         21   -1    0    0  501  502  0.00000000000E+00  0.00000000000E+00  0.28346705641E+02  0.28346705641E+02  0.00000000000E+00 0.  1.
         21   -1    0    0  502  503 -0.00000000000E+00 -0.00000000000E+00 -0.11063367280E+04  0.11063367280E+04  0.00000000000E+00 0. -1.
          6    1    1    2  501    0  0.11686244846E+02  0.37303160116E+02 -0.58953891054E+03  0.61536023687E+03  0.17200000000E+03 0. -1.
         -6    1    1    2    0  503 -0.11686244846E+02 -0.37303160116E+02 -0.48845111182E+03  0.51932319677E+03  0.17200000000E+03 0.  1.
<mgrwt>
<rscale>  2 0.17638621E+03</rscale>
<asrwt>0</asrwt>
<pdfrwt beam="1">  1       21 0.70866764E-02 0.17638621E+03</pdfrwt>
<pdfrwt beam="2">  1       21 0.27658418E+00 0.17638621E+03</pdfrwt>
<totfact> 0.70207124E+03</totfact>
</mgrwt>
</event>
<event>
 4    1  0.1091654E+000  0.1790823E+03  0.7546771E-02  0.1168694E+00
         21   -1    0    0  503  502  0.00000000000E+00  0.00000000000E+00  0.42275596572E+02  0.42275596572E+02  0.00000000000E+00 0. -1.
         21   -1    0    0  501  503 -0.00000000000E+00 -0.00000000000E+00 -0.78230386459E+03  0.78230386459E+03  0.00000000000E+00 0. -1.
          6    1    1    2  501    0 -0.46335756219E+02  0.18424599772E+02 -0.29825439003E+03  0.34788812764E+03  0.17200000000E+03 0. -1.
         -6    1    1    2    0  502  0.46335756219E+02 -0.18424599772E+02 -0.44177387799E+03  0.47669133352E+03  0.17200000000E+03 0. -1.
<mgrwt>
<rscale>  2 0.17908229E+03</rscale>
<asrwt>0</asrwt>
<pdfrwt beam="1">  1       21 0.10568899E-01 0.17908229E+03</pdfrwt>
<pdfrwt beam="2">  1       21 0.19557596E+00 0.17908229E+03</pdfrwt>
<totfact> 0.10672174E+04</totfact>
</mgrwt>
</event>
<event>
 4    1  0.1091654E+000  0.1748849E+03  0.7546771E-02  0.1172847E+00
         21   -1    0    0  501  502  0.00000000000E+00  0.00000000000E+00  0.14855177053E+04  0.14855177053E+04  0.00000000000E+00 0. -1.
         21   -1    0    0  502  503 -0.00000000000E+00 -0.00000000000E+00 -0.35357241590E+02  0.35357241590E+02  0.00000000000E+00 0. -1.
          6    1    1    2  501    0 -0.10301221700E+01  0.31617288224E+02  0.12165476751E+04  0.12290536847E+04  0.17200000000E+03 0.  1.
         -6    1    1    2    0  503  0.10301221700E+01 -0.31617288224E+02  0.23361278860E+03  0.29182126218E+03  0.17200000000E+03 0.  1.
<mgrwt>
<rscale>  2 0.17488486E+03</rscale>
<asrwt>0</asrwt>
<pdfrwt beam="1">  1       21 0.37137922E+00 0.17488486E+03</pdfrwt>
<pdfrwt beam="2">  1       21 0.88393154E-02 0.17488486E+03</pdfrwt>
<totfact> 0.13513384E+03</totfact>
</mgrwt>
</event>
<event>
 4    1  0.1091654E+000  0.2196509E+03  0.7546771E-02  0.1134144E+00
         21   -1    0    0  501  502  0.00000000000E+00  0.00000000000E+00  0.28182887197E+03  0.28182887197E+03  0.00000000000E+00 0.  1.
         21   -1    0    0  502  503 -0.00000000000E+00 -0.00000000000E+00 -0.28164219252E+03  0.28164219252E+03  0.00000000000E+00 0.  1.
          6    1    1    2  501    0 -0.12156528476E+03  0.62324992007E+02  0.17652571131E+03  0.28179398475E+03  0.17200000000E+03 0.  1.
         -6    1    1    2    0  503  0.12156528476E+03 -0.62324992007E+02 -0.17633903186E+03  0.28167707973E+03  0.17200000000E+03 0.  1.
<mgrwt>
<rscale>  2 0.21965091E+03</rscale>
<asrwt>0</asrwt>
<pdfrwt beam="1">  1       21 0.70457218E-01 0.21965091E+03</pdfrwt>
<pdfrwt beam="2">  1       21 0.70410548E-01 0.21965091E+03</pdfrwt>
<totfact> 0.32690103E+03</totfact>
</mgrwt>
</event>
<event>
 4    1  0.1091654E+000  0.1969673E+03  0.7546771E-02  0.1152323E+00
         21   -1    0    0  501  502  0.00000000000E+00  0.00000000000E+00  0.20096976905E+03  0.20096976905E+03  0.00000000000E+00 0. -1.
         21   -1    0    0  502  503 -0.00000000000E+00 -0.00000000000E+00 -0.47301305597E+03  0.47301305597E+03  0.00000000000E+00 0. -1.
          6    1    1    2  501    0 -0.50482686923E+02  0.81630883690E+02  0.12323919465E+03  0.23234457590E+03  0.17200000000E+03 0. -1.
         -6    1    1    2    0  503  0.50482686923E+02 -0.81630883690E+02 -0.39528248157E+03  0.44163824913E+03  0.17200000000E+03 0. -1.
<mgrwt>
<rscale>  2 0.19696726E+03</rscale>
<asrwt>0</asrwt>
<pdfrwt beam="1">  1       21 0.50242443E-01 0.19696726E+03</pdfrwt>
<pdfrwt beam="2">  1       21 0.11825326E+00 0.19696726E+03</pdfrwt>
<totfact> 0.20575458E+03</totfact>
</mgrwt>
</event>
<event>
 4    1  0.1091654E+000  0.2353514E+03  0.7546771E-02  0.1122929E+00
         21   -1    0    0  503  502  0.00000000000E+00  0.00000000000E+00  0.23389858852E+03  0.23389858852E+03  0.00000000000E+00 0.  1.
         21   -1    0    0  501  503 -0.00000000000E+00 -0.00000000000E+00 -0.26261673781E+03  0.26261673781E+03  0.00000000000E+00 0. -1.
          6    1    1    2  501    0 -0.85349687844E+02  0.13609447916E+03 -0.92177237240E+02  0.25275861912E+03  0.17200000000E+03 0. -1.
         -6    1    1    2    0  502  0.85349687844E+02 -0.13609447916E+03  0.63459087950E+02  0.24375670722E+03  0.17200000000E+03 0.  1.
<mgrwt>
<rscale>  2 0.23535139E+03</rscale>
<asrwt>0</asrwt>
<pdfrwt beam="1">  1       21 0.58474647E-01 0.23535139E+03</pdfrwt>
<pdfrwt beam="2">  1       21 0.65654184E-01 0.23535139E+03</pdfrwt>
<totfact> 0.56642473E+03</totfact>
</mgrwt>
</event>
<event>
 4    1  0.1091654E+000  0.1735196E+03  0.7546771E-02  0.1174226E+00
         21   -1    0    0  501  502  0.00000000000E+00  0.00000000000E+00  0.24510865906E+03  0.24510865906E+03  0.00000000000E+00 0. -1.
         21   -1    0    0  502  503 -0.00000000000E+00 -0.00000000000E+00 -0.15375994962E+03  0.15375994962E+03  0.00000000000E+00 0. -1.
          6    1    1    2  501    0  0.21899031728E+02  0.67433029669E+01  0.13510795835E+03  0.21991634804E+03  0.17200000000E+03 0. -1.
         -6    1    1    2    0  503 -0.21899031728E+02 -0.67433029669E+01 -0.43759248908E+02  0.17895226065E+03  0.17200000000E+03 0. -1.
<mgrwt>
<rscale>  2 0.17351957E+03</rscale>
<asrwt>0</asrwt>
<pdfrwt beam="1">  1       21 0.61277164E-01 0.17351957E+03</pdfrwt>
<pdfrwt beam="2">  1       21 0.38439988E-01 0.17351957E+03</pdfrwt>
<totfact> 0.16358855E+04</totfact>
</mgrwt>
</event>
<event>
 4    1  0.1091654E+000  0.1825279E+03  0.7546771E-02  0.1165379E+00
         21   -1    0    0  501  502  0.00000000000E+00  0.00000000000E+00  0.75868087929E+03  0.75868087929E+03  0.00000000000E+00 0.  1.
         21   -1    0    0  502  503 -0.00000000000E+00 -0.00000000000E+00 -0.10052266814E+03  0.10052266814E+03  0.00000000000E+00 0.  1.
          6    1    1    2  501    0 -0.58502243192E+02  0.17605096997E+02  0.65146560489E+03  0.67655294416E+03  0.17200000000E+03 0.  1.
         -6    1    1    2    0  503  0.58502243192E+02 -0.17605096997E+02  0.66926062691E+01  0.18265060328E+03  0.17200000000E+03 0.  1.
<mgrwt>
<rscale>  2 0.18252795E+03</rscale>
<asrwt>0</asrwt>
<pdfrwt beam="1">  1       21 0.18967020E+00 0.18252795E+03</pdfrwt>
<pdfrwt beam="2">  1       21 0.25130669E-01 0.18252795E+03</pdfrwt>
<totfact> 0.23752197E+03</totfact>
</mgrwt>
</event>
<event>
 4    1  0.1091654E+000  0.2216410E+03  0.7546771E-02  0.1132666E+00
         21   -1    0    0  503  502  0.00000000000E+00  0.00000000000E+00  0.14723087584E+03  0.14723087584E+03  0.00000000000E+00 0. -1.
         21   -1    0    0  501  503 -0.00000000000E+00 -0.00000000000E+00 -0.34705082688E+03  0.34705082688E+03  0.00000000000E+00 0.  1.
          6    1    1    2  501    0 -0.35998846750E+02  0.13507334400E+03 -0.14845982709E+03  0.26676777445E+03  0.17200000000E+03 0.  1.
         -6    1    1    2    0  502  0.35998846750E+02 -0.13507334400E+03 -0.51360123950E+02  0.22751392827E+03  0.17200000000E+03 0.  1.
<mgrwt>
<rscale>  2 0.22164098E+03</rscale>
<asrwt>0</asrwt>
<pdfrwt beam="1">  1       21 0.36807719E-01 0.22164098E+03</pdfrwt>
<pdfrwt beam="2">  1       21 0.86762706E-01 0.22164098E+03</pdfrwt>
<totfact> 0.79746272E+03</totfact>
</mgrwt>
</event>
<event>
 4    1  0.1091654E+000  0.1725832E+03  0.7546771E-02  0.1175180E+00
         21   -1    0    0  501  502  0.00000000000E+00  0.00000000000E+00  0.43095358346E+03  0.43095358346E+03  0.00000000000E+00 0. -1.
         21   -1    0    0  502  503 -0.00000000000E+00 -0.00000000000E+00 -0.10249055801E+03  0.10249055801E+03  0.00000000000E+00 0. -1.
          6    1    1    2  501    0  0.10686647286E+02  0.93136281859E+01  0.31643950769E+03  0.36044265859E+03  0.17200000000E+03 0. -1.
         -6    1    1    2    0  503 -0.10686647286E+02 -0.93136281859E+01  0.12023517763E+02  0.17300148288E+03  0.17200000000E+03 0. -1.
<mgrwt>
<rscale>  2 0.17258316E+03</rscale>
<asrwt>0</asrwt>
<pdfrwt beam="1">  1       21 0.10773839E+00 0.17258316E+03</pdfrwt>
<pdfrwt beam="2">  1       21 0.25622641E-01 0.17258316E+03</pdfrwt>
<totfact> 0.10070224E+04</totfact>
</mgrwt>
</event>
<event>
 4    1  0.1091654E+000  0.1848247E+03  0.7546771E-02  0.1163214E+00
         21   -1    0    0  503  502  0.00000000000E+00  0.00000000000E+00  0.39741475252E+03  0.39741475252E+03  0.00000000000E+00 0. -1.
         21   -1    0    0  501  503 -0.00000000000E+00 -0.00000000000E+00 -0.87586233912E+02  0.87586233912E+02  0.00000000000E+00 0.  1.
          6    1    1    2  501    0 -0.63708465905E+01  0.67346655269E+02  0.12182955138E+03  0.22136530725E+03  0.17200000000E+03 0.  1.
         -6    1    1    2    0  502  0.63708465905E+01 -0.67346655269E+02  0.18799896723E+03  0.26363567919E+03  0.17200000000E+03 0. -1.
<mgrwt>
<rscale>  2 0.18482467E+03</rscale>
<asrwt>0</asrwt>
<pdfrwt beam="1">  1       21 0.99353683E-01 0.18482467E+03</pdfrwt>
<pdfrwt beam="2">  1       21 0.21896560E-01 0.18482467E+03</pdfrwt>
<totfact> 0.16317522E+04</totfact>
</mgrwt>
</event>
<event>
 4    1  0.1091654E+000  0.2034730E+03  0.7546771E-02  0.1146842E+00
         21   -1    0    0  503  502  0.00000000000E+00  0.00000000000E+00  0.36592111348E+03  0.36592111348E+03  0.00000000000E+00 0. -1.
         21   -1    0    0  501  503 -0.00000000000E+00 -0.00000000000E+00 -0.11342215774E+03  0.11342215774E+03  0.00000000000E+00 0.  1.
          6    1    1    2  501    0 -0.74615088154E+02  0.79055867443E+02  0.13814971721E+03  0.24594020802E+03  0.17200000000E+03 0. -1.
         -6    1    1    2    0  502  0.74615088154E+02 -0.79055867443E+02  0.11434923852E+03  0.23340306319E+03  0.17200000000E+03 0. -1.
<mgrwt>
<rscale>  2 0.20347295E+03</rscale>
<asrwt>0</asrwt>
<pdfrwt beam="1">  1       21 0.91480276E-01 0.20347295E+03</pdfrwt>
<pdfrwt beam="2">  1       21 0.28355540E-01 0.20347295E+03</pdfrwt>
<totfact> 0.11939564E+04</totfact>
</mgrwt>
</event>
<event>
 4    1  0.1091654E+000  0.1828021E+03  0.7546771E-02  0.1165118E+00
         21   -1    0    0  503  502  0.00000000000E+00  0.00000000000E+00  0.58016645454E+03  0.58016645454E+03  0.00000000000E+00 0.  1.
         21   -1    0    0  501  503 -0.00000000000E+00 -0.00000000000E+00 -0.79962619084E+02  0.79962619084E+02  0.00000000000E+00 0.  1.
          6    1    1    2  501    0  0.11884232742E+02  0.60756628221E+02  0.75546562662E+02  0.19779758843E+03  0.17200000000E+03 0.  1.
         -6    1    1    2    0  502 -0.11884232742E+02 -0.60756628221E+02  0.42465727279E+03  0.46233148519E+03  0.17200000000E+03 0.  1.
<mgrwt>
<rscale>  2 0.18280209E+03</rscale>
<asrwt>0</asrwt>
<pdfrwt beam="1">  1       21 0.14504160E+00 0.18280209E+03</pdfrwt>
<pdfrwt beam="2">  1       21 0.19990656E-01 0.18280209E+03</pdfrwt>
<totfact> 0.76005313E+03</totfact>
</mgrwt>
</event>
<event>
 4    1  0.1091654E+000  0.2845259E+03  0.7546771E-02  0.1093242E+00
         21   -1    0    0  501  502  0.00000000000E+00  0.00000000000E+00  0.11871041276E+04  0.11871041276E+04  0.00000000000E+00 0. -1.
         21   -1    0    0  502  503 -0.00000000000E+00 -0.00000000000E+00 -0.80524089320E+02  0.80524089320E+02  0.00000000000E+00 0.  1.
          6    1    1    2  501    0 -0.10792337967E+03 -0.19930757169E+03  0.80129396178E+03  0.85030993008E+03  0.17200000000E+03 0. -1.
         -6    1    1    2    0  503  0.10792337967E+03  0.19930757169E+03  0.30528607646E+03  0.41731828679E+03  0.17200000000E+03 0.  1.
<mgrwt>
<rscale>  2 0.28452586E+03</rscale>
<asrwt>0</asrwt>
<pdfrwt beam="1">  1       21 0.29677598E+00 0.28452586E+03</pdfrwt>
<pdfrwt beam="2">  1       21 0.20131026E-01 0.28452586E+03</pdfrwt>
<totfact> 0.73233258E+02</totfact>
</mgrwt>
</event>
<event>
 4    1  0.1091654E+000  0.2353209E+03  0.7546771E-02  0.1122950E+00
         21   -1    0    0  503  502  0.00000000000E+00  0.00000000000E+00  0.10292411088E+03  0.10292411088E+03  0.00000000000E+00 0.  1.
         21   -1    0    0  501  503 -0.00000000000E+00 -0.00000000000E+00 -0.54652042415E+03  0.54652042415E+03  0.00000000000E+00 0. -1.
          6    1    1    2  501    0 -0.15545597930E+03 -0.40315754342E+02 -0.18131657281E+03  0.29707174407E+03  0.17200000000E+03 0.  1.
         -6    1    1    2    0  502  0.15545597930E+03  0.40315754342E+02 -0.26227974046E+03  0.35237279096E+03  0.17200000000E+03 0. -1.
<mgrwt>
<rscale>  2 0.23532089E+03</rscale>
<asrwt>0</asrwt>
<pdfrwt beam="1">  1       21 0.25731028E-01 0.23532089E+03</pdfrwt>
<pdfrwt beam="2">  1       21 0.13663010E+00 0.23532089E+03</pdfrwt>
<totfact> 0.52866988E+03</totfact>
</mgrwt>
</event>
<event>
 4    1  0.1091654E+000  0.1920026E+03  0.7546771E-02  0.1156667E+00
         21   -1    0    0  501  502  0.00000000000E+00  0.00000000000E+00  0.97525051333E+02  0.97525051333E+02  0.00000000000E+00 0. -1.
         21   -1    0    0  502  503 -0.00000000000E+00 -0.00000000000E+00 -0.63333272914E+03  0.63333272914E+03  0.00000000000E+00 0. -1.
          6    1    1    2  501    0 -0.43416271628E+02 -0.73457735780E+02 -0.35878493094E+02  0.19532608084E+03  0.17200000000E+03 0. -1.
         -6    1    1    2    0  503  0.43416271628E+02  0.73457735780E+02 -0.49992918471E+03  0.53553169963E+03  0.17200000000E+03 0. -1.
<mgrwt>
<rscale>  2 0.19200263E+03</rscale>
<asrwt>0</asrwt>
<pdfrwt beam="1">  1       21 0.24381263E-01 0.19200263E+03</pdfrwt>
<pdfrwt beam="2">  1       21 0.15833318E+00 0.19200263E+03</pdfrwt>
<totfact> 0.41158439E+03</totfact>
</mgrwt>
</event>
<event>
 4    1  0.1091654E+000  0.1884294E+03  0.7546771E-02  0.1159886E+00
         21   -1    0    0  503  502  0.00000000000E+00  0.00000000000E+00  0.82156772023E+02  0.82156772023E+02  0.00000000000E+00 0. -1.
         21   -1    0    0  501  503 -0.00000000000E+00 -0.00000000000E+00 -0.61505314492E+03  0.61505314492E+03  0.00000000000E+00 0. -1.
          6    1    1    2  501    0 -0.14060065443E+02 -0.75656811489E+02 -0.76355742752E+02  0.20331216888E+03  0.17200000000E+03 0. -1.
         -6    1    1    2    0  502  0.14060065443E+02  0.75656811489E+02 -0.45654063014E+03  0.49389774806E+03  0.17200000000E+03 0. -1.
<mgrwt>
<rscale>  2 0.18842940E+03</rscale>
<asrwt>0</asrwt>
<pdfrwt beam="1">  1       21 0.20539193E-01 0.18842940E+03</pdfrwt>
<pdfrwt beam="2">  1       21 0.15376328E+00 0.18842940E+03</pdfrwt>
<totfact> 0.61703462E+03</totfact>
</mgrwt>
</event>
<event>
 4    1  0.1091654E+000  0.2612468E+03  0.7546771E-02  0.1106396E+00
         21   -1    0    0  503  502  0.00000000000E+00  0.00000000000E+00  0.31342997449E+03  0.31342997449E+03  0.00000000000E+00 0.  1.
         21   -1    0    0  501  503 -0.00000000000E+00 -0.00000000000E+00 -0.23165474229E+03  0.23165474229E+03  0.00000000000E+00 0. -1.
          6    1    1    2  501    0 -0.16663687568E+03 -0.10439365466E+03 -0.25880580306E+02  0.26252559476E+03  0.17200000000E+03 0. -1.
         -6    1    1    2    0  502  0.16663687568E+03  0.10439365466E+03  0.10765581250E+03  0.28255912202E+03  0.17200000000E+03 0.  1.
<mgrwt>
<rscale>  2 0.26124679E+03</rscale>
<asrwt>0</asrwt>
<pdfrwt beam="1">  1       21 0.78357493E-01 0.26124679E+03</pdfrwt>
<pdfrwt beam="2">  1       21 0.57913686E-01 0.26124679E+03</pdfrwt>
<totfact> 0.38354465E+03</totfact>
</mgrwt>
</event>
<event>
 4    1  0.1091654E+000  0.2912859E+03  0.7546771E-02  0.1089680E+00
         21   -1    0    0  503  502  0.00000000000E+00  0.00000000000E+00  0.11674898624E+03  0.11674898624E+03  0.00000000000E+00 0. -1.
         21   -1    0    0  501  503 -0.00000000000E+00 -0.00000000000E+00 -0.72796627958E+03  0.72796627958E+03  0.00000000000E+00 0. -1.
          6    1    1    2  501    0  0.21540002445E+03 -0.94161167118E+02 -0.32286229871E+03  0.43484199412E+03  0.17200000000E+03 0. -1.
         -6    1    1    2    0  502 -0.21540002445E+03  0.94161167118E+02 -0.28835499463E+03  0.40987327170E+03  0.17200000000E+03 0. -1.
<mgrwt>
<rscale>  2 0.29128593E+03</rscale>
<asrwt>0</asrwt>
<pdfrwt beam="1">  1       21 0.29187247E-01 0.29128593E+03</pdfrwt>
<pdfrwt beam="2">  1       21 0.18199157E+00 0.29128593E+03</pdfrwt>
<totfact> 0.18265893E+03</totfact>
</mgrwt>
</event>
<event>
 4    1  0.1091654E+000  0.1913932E+03  0.7546771E-02  0.1157211E+00
         21   -1    0    0  503  502  0.00000000000E+00  0.00000000000E+00  0.27260223757E+02  0.27260223757E+02  0.00000000000E+00 0. -1.
         21   -1    0    0  501  503 -0.00000000000E+00 -0.00000000000E+00 -0.17142242403E+04  0.17142242403E+04  0.00000000000E+00 0. -1.
          6    1    1    2  501    0 -0.81456359752E+02  0.20302826904E+02 -0.12482683224E+04  0.12628559491E+04  0.17200000000E+03 0. -1.
         -6    1    1    2    0  502  0.81456359752E+02 -0.20302826904E+02 -0.43869569413E+03  0.47862851500E+03  0.17200000000E+03 0. -1.
<mgrwt>
<rscale>  2 0.19139316E+03</rscale>
<asrwt>0</asrwt>
<pdfrwt beam="1">  1       21 0.68150563E-02 0.19139316E+03</pdfrwt>
<pdfrwt beam="2">  1       21 0.42855604E+00 0.19139316E+03</pdfrwt>
<totfact> 0.91199024E+02</totfact>
</mgrwt>
</event>
<event>
 4    1  0.1091654E+000  0.2380546E+03  0.7546771E-02  0.1121096E+00
         21   -1    0    0  501  502  0.00000000000E+00  0.00000000000E+00  0.10666168256E+03  0.10666168256E+03  0.00000000000E+00 0.  1.
         21   -1    0    0  502  503 -0.00000000000E+00 -0.00000000000E+00 -0.13133771252E+04  0.13133771252E+04  0.00000000000E+00 0.  1.
          6    1    1    2  501    0  0.10589437141E+03  0.12598567324E+03 -0.55461155717E+02  0.24442984178E+03  0.17200000000E+03 0.  1.
         -6    1    1    2    0  503 -0.10589437141E+03 -0.12598567324E+03 -0.11512542869E+04  0.11756089660E+04  0.17200000000E+03 0.  1.
<mgrwt>
<rscale>  2 0.23805463E+03</rscale>
<asrwt>0</asrwt>
<pdfrwt beam="1">  1       21 0.26665421E-01 0.23805463E+03</pdfrwt>
<pdfrwt beam="2">  1       21 0.32834428E+00 0.23805463E+03</pdfrwt>
<totfact> 0.29391177E+02</totfact>
</mgrwt>
</event>
<event>
 4    1  0.1091654E+000  0.2162131E+03  0.7546771E-02  0.1136738E+00
         21   -1    0    0  501  502  0.00000000000E+00  0.00000000000E+00  0.90249613489E+02  0.90249613489E+02  0.00000000000E+00 0.  1.
         21   -1    0    0  502  503 -0.00000000000E+00 -0.00000000000E+00 -0.56886051372E+03  0.56886051372E+03  0.00000000000E+00 0.  1.
          6    1    1    2  501    0 -0.49225059490E+02  0.12141253011E+03 -0.14075200880E+03  0.25799076908E+03  0.17200000000E+03 0.  1.
         -6    1    1    2    0  503  0.49225059490E+02 -0.12141253011E+03 -0.33785889143E+03  0.40111935813E+03  0.17200000000E+03 0.  1.
<mgrwt>
<rscale>  2 0.21621311E+03</rscale>
<asrwt>0</asrwt>
<pdfrwt beam="1">  1       21 0.22562404E-01 0.21621311E+03</pdfrwt>
<pdfrwt beam="2">  1       21 0.14221513E+00 0.21621311E+03</pdfrwt>
<totfact> 0.62080591E+03</totfact>
</mgrwt>
</event>
<event>
 4    1  0.1091654E+000  0.1852068E+03  0.7546771E-02  0.1162857E+00
         21   -1    0    0  503  502  0.00000000000E+00  0.00000000000E+00  0.12918504009E+03  0.12918504009E+03  0.00000000000E+00 0. -1.
         21   -1    0    0  501  503 -0.00000000000E+00 -0.00000000000E+00 -0.30741140657E+03  0.30741140657E+03  0.00000000000E+00 0. -1.
          6    1    1    2  501    0  0.26412415410E+02 -0.63403095339E+02 -0.16969524680E+03  0.25119324229E+03  0.17200000000E+03 0. -1.
         -6    1    1    2    0  502 -0.26412415410E+02  0.63403095339E+02 -0.85311196856E+01  0.18540320437E+03  0.17200000000E+03 0. -1.
<mgrwt>
<rscale>  2 0.18520683E+03</rscale>
<asrwt>0</asrwt>
<pdfrwt beam="1">  1       21 0.32296260E-01 0.18520683E+03</pdfrwt>
<pdfrwt beam="2">  1       21 0.76852851E-01 0.18520683E+03</pdfrwt>
<totfact> 0.13952729E+04</totfact>
</mgrwt>
</event>
<event>
 4    1  0.1091654E+000  0.3304640E+03  0.7546771E-02  0.1070932E+00
         21   -1    0    0  503  502  0.00000000000E+00  0.00000000000E+00  0.38329700068E+03  0.38329700068E+03  0.00000000000E+00 0. -1.
         21   -1    0    0  501  503 -0.00000000000E+00 -0.00000000000E+00 -0.62421117118E+03  0.62421117118E+03  0.00000000000E+00 0.  1.
          6    1    1    2  501    0 -0.26930330702E+03  0.84250688639E+02 -0.49185830014E+03  0.59256310814E+03  0.17200000000E+03 0.  1.
         -6    1    1    2    0  502  0.26930330702E+03 -0.84250688639E+02  0.25094412964E+03  0.41494506372E+03  0.17200000000E+03 0. -1.
<mgrwt>
<rscale>  2 0.33046399E+03</rscale>
<asrwt>0</asrwt>
<pdfrwt beam="1">  1       21 0.95824251E-01 0.33046399E+03</pdfrwt>
<pdfrwt beam="2">  1       21 0.15605279E+00 0.33046399E+03</pdfrwt>
<totfact> 0.21426363E+02</totfact>
</mgrwt>
</event>
<event>
 4    1  0.1091654E+000  0.1991061E+03  0.7546771E-02  0.1150495E+00
         21   -1    0    0  501  502  0.00000000000E+00  0.00000000000E+00  0.41829612505E+03  0.41829612505E+03  0.00000000000E+00 0. -1.
         21   -1    0    0  502  503 -0.00000000000E+00 -0.00000000000E+00 -0.15073157270E+03  0.15073157270E+03  0.00000000000E+00 0. -1.
          6    1    1    2  501    0  0.81420640152E+02  0.58565457830E+02 -0.39571817268E+02  0.20300039955E+03  0.17200000000E+03 0. -1.
         -6    1    1    2    0  503 -0.81420640152E+02 -0.58565457830E+02  0.30713636961E+03  0.36602729821E+03  0.17200000000E+03 0. -1.
<mgrwt>
<rscale>  2 0.19910609E+03</rscale>
<asrwt>0</asrwt>
<pdfrwt beam="1">  1       21 0.10457403E+00 0.19910609E+03</pdfrwt>
<pdfrwt beam="2">  1       21 0.37682894E-01 0.19910609E+03</pdfrwt>
<totfact> 0.49850870E+03</totfact>
</mgrwt>
</event>
<event>
 4    1  0.1091654E+000  0.2116694E+03  0.7546771E-02  0.1140251E+00
         21   -1    0    0  501  502  0.00000000000E+00  0.00000000000E+00  0.10359470278E+03  0.10359470278E+03  0.00000000000E+00 0. -1.
         21   -1    0    0  502  503 -0.00000000000E+00 -0.00000000000E+00 -0.75034653384E+03  0.75034653384E+03  0.00000000000E+00 0.  1.
          6    1    1    2  501    0  0.70928184592E+02  0.10094130054E+03 -0.45480890657E+02  0.21650049639E+03  0.17200000000E+03 0. -1.
         -6    1    1    2    0  503 -0.70928184592E+02 -0.10094130054E+03 -0.60127094041E+03  0.63744074023E+03  0.17200000000E+03 0. -1.
<mgrwt>
<rscale>  2 0.21166944E+03</rscale>
<asrwt>0</asrwt>
<pdfrwt beam="1">  1       21 0.25898676E-01 0.21166944E+03</pdfrwt>
<pdfrwt beam="2">  1       21 0.18758663E+00 0.21166944E+03</pdfrwt>
<totfact> 0.22487265E+03</totfact>
</mgrwt>
</event>
<event>
 4    1  0.1091654E+000  0.1972474E+03  0.7546771E-02  0.1152082E+00
         21   -1    0    0  501  502  0.00000000000E+00  0.00000000000E+00  0.32149165022E+03  0.32149165022E+03  0.00000000000E+00 0.  1.
         21   -1    0    0  502  503 -0.00000000000E+00 -0.00000000000E+00 -0.12310373420E+03  0.12310373420E+03  0.00000000000E+00 0. -1.
          6    1    1    2  501    0 -0.63455161769E+02 -0.72773404571E+02  0.12812393103E+03  0.23520686145E+03  0.17200000000E+03 0.  1.
         -6    1    1    2    0  503  0.63455161769E+02  0.72773404571E+02  0.70263984994E+02  0.20938852298E+03  0.17200000000E+03 0.  1.
<mgrwt>
<rscale>  2 0.19724737E+03</rscale>
<asrwt>0</asrwt>
<pdfrwt beam="1">  1       21 0.80372911E-01 0.19724737E+03</pdfrwt>
<pdfrwt beam="2">  1       21 0.30775934E-01 0.19724737E+03</pdfrwt>
<totfact> 0.13756214E+04</totfact>
</mgrwt>
</event>
<event>
 4    1  0.1091654E+000  0.2118062E+03  0.7546771E-02  0.1140144E+00
         21   -1    0    0  501  502  0.00000000000E+00  0.00000000000E+00  0.39221908595E+03  0.39221908595E+03  0.00000000000E+00 0. -1.
         21   -1    0    0  502  503 -0.00000000000E+00 -0.00000000000E+00 -0.30249900451E+03  0.30249900451E+03  0.00000000000E+00 0. -1.
          6    1    1    2  501    0  0.71741855278E+02 -0.10065271844E+03  0.31878615133E+03  0.38273551418E+03  0.17200000000E+03 0. -1.
         -6    1    1    2    0  503 -0.71741855278E+02  0.10065271844E+03 -0.22906606989E+03  0.31198257628E+03  0.17200000000E+03 0. -1.
<mgrwt>
<rscale>  2 0.21180619E+03</rscale>
<asrwt>0</asrwt>
<pdfrwt beam="1">  1       21 0.98054771E-01 0.21180619E+03</pdfrwt>
<pdfrwt beam="2">  1       21 0.75624751E-01 0.21180619E+03</pdfrwt>
<totfact> 0.13181495E+03</totfact>
</mgrwt>
</event>
<event>
 4    1  0.1091654E+000  0.1894512E+03  0.7546771E-02  0.1158957E+00
         21   -1    0    0  501  502  0.00000000000E+00  0.00000000000E+00  0.68738674404E+03  0.68738674404E+03  0.00000000000E+00 0. -1.
         21   -1    0    0  502  503 -0.00000000000E+00 -0.00000000000E+00 -0.98232777898E+02  0.98232777898E+02  0.00000000000E+00 0. -1.
          6    1    1    2  501    0  0.69261745718E+02  0.38866132765E+02  0.56343178282E+03  0.59443009647E+03  0.17200000000E+03 0. -1.
         -6    1    1    2    0  503 -0.69261745718E+02 -0.38866132765E+02  0.25722183320E+02  0.19118942547E+03  0.17200000000E+03 0. -1.
<mgrwt>
<rscale>  2 0.18945122E+03</rscale>
<asrwt>0</asrwt>
<pdfrwt beam="1">  1       21 0.17184667E+00 0.18945122E+03</pdfrwt>
<pdfrwt beam="2">  1       21 0.24558196E-01 0.18945122E+03</pdfrwt>
<totfact> 0.32554952E+03</totfact>
</mgrwt>
</event>
<event>
 4    1  0.1091654E+000  0.1994587E+03  0.7546771E-02  0.1150196E+00
         21   -1    0    0  503  502  0.00000000000E+00  0.00000000000E+00  0.89221772841E+02  0.89221772841E+02  0.00000000000E+00 0. -1.
         21   -1    0    0  501  503 -0.00000000000E+00 -0.00000000000E+00 -0.47485551539E+03  0.47485551539E+03  0.00000000000E+00 0. -1.
          6    1    1    2  501    0 -0.70043537025E+02 -0.72757744672E+02 -0.26246516869E+03  0.32965398718E+03  0.17200000000E+03 0. -1.
         -6    1    1    2    0  502  0.70043537025E+02  0.72757744672E+02 -0.12316857386E+03  0.23442330105E+03  0.17200000000E+03 0. -1.
<mgrwt>
<rscale>  2 0.19945873E+03</rscale>
<asrwt>0</asrwt>
<pdfrwt beam="1">  1       21 0.22305444E-01 0.19945873E+03</pdfrwt>
<pdfrwt beam="2">  1       21 0.11871388E+00 0.19945873E+03</pdfrwt>
<totfact> 0.10151113E+04</totfact>
</mgrwt>
</event>
<event>
 4    1  0.1091654E+000  0.2497226E+03  0.7546771E-02  0.1113480E+00
         21   -1    0    0  501  502  0.00000000000E+00  0.00000000000E+00  0.37633382600E+03  0.37633382600E+03  0.00000000000E+00 0.  1.
         21   -1    0    0  502  503 -0.00000000000E+00 -0.00000000000E+00 -0.25048993562E+03  0.25048993562E+03  0.00000000000E+00 0.  1.
          6    1    1    2  501    0  0.13906629081E+03 -0.11592223596E+03  0.24525812326E+03  0.35001849245E+03  0.17200000000E+03 0.  1.
         -6    1    1    2    0  503 -0.13906629081E+03  0.11592223596E+03 -0.11941423288E+03  0.27680526917E+03  0.17200000000E+03 0.  1.
<mgrwt>
<rscale>  2 0.24972264E+03</rscale>
<asrwt>0</asrwt>
<pdfrwt beam="1">  1       21 0.94083456E-01 0.24972264E+03</pdfrwt>
<pdfrwt beam="2">  1       21 0.62622484E-01 0.24972264E+03</pdfrwt>
<totfact> 0.21384478E+03</totfact>
</mgrwt>
</event>
<event>
 4    1  0.1091654E+000  0.2043226E+03  0.7546771E-02  0.1146142E+00
         21   -1    0    0  501  502  0.00000000000E+00  0.00000000000E+00  0.65238311736E+02  0.65238311736E+02  0.00000000000E+00 0. -1.
         21   -1    0    0  502  503 -0.00000000000E+00 -0.00000000000E+00 -0.75630665572E+03  0.75630665572E+03  0.00000000000E+00 0. -1.
          6    1    1    2  501    0 -0.50834014888E+02  0.97875531707E+02 -0.50666998348E+03  0.54631693085E+03  0.17200000000E+03 0.  1.
         -6    1    1    2    0  503  0.50834014888E+02 -0.97875531707E+02 -0.18439836051E+03  0.27522803660E+03  0.17200000000E+03 0.  1.
<mgrwt>
<rscale>  2 0.20432258E+03</rscale>
<asrwt>0</asrwt>
<pdfrwt beam="1">  1       21 0.16309578E-01 0.20432258E+03</pdfrwt>
<pdfrwt beam="2">  1       21 0.18907666E+00 0.20432258E+03</pdfrwt>
<totfact> 0.52699471E+03</totfact>
</mgrwt>
</event>
<event>
 4    1  0.1091654E+000  0.1838093E+03  0.7546771E-02  0.1164167E+00
         21   -1    0    0  501  502  0.00000000000E+00  0.00000000000E+00  0.27574840376E+03  0.27574840376E+03  0.00000000000E+00 0. -1.
         21   -1    0    0  502  503 -0.00000000000E+00 -0.00000000000E+00 -0.13887207904E+03  0.13887207904E+03  0.00000000000E+00 0. -1.
          6    1    1    2  501    0 -0.58297325487E+02  0.28342075744E+02  0.13956672820E+03  0.23079151422E+03  0.17200000000E+03 0.  1.
         -6    1    1    2    0  503  0.58297325487E+02 -0.28342075744E+02 -0.26904034854E+01  0.18382896857E+03  0.17200000000E+03 0.  1.
<mgrwt>
<rscale>  2 0.18380928E+03</rscale>
<asrwt>0</asrwt>
<pdfrwt beam="1">  1       21 0.68937100E-01 0.18380928E+03</pdfrwt>
<pdfrwt beam="2">  1       21 0.34718020E-01 0.18380928E+03</pdfrwt>
<totfact> 0.15410725E+04</totfact>
</mgrwt>
</event>
<event>
 4    1  0.1091654E+000  0.2265074E+03  0.7546771E-02  0.1129122E+00
         21   -1    0    0  501  502  0.00000000000E+00  0.00000000000E+00  0.23038019145E+03  0.23038019145E+03  0.00000000000E+00 0.  1.
         21   -1    0    0  502  503 -0.00000000000E+00 -0.00000000000E+00 -0.39928002418E+03  0.39928002418E+03  0.00000000000E+00 0. -1.
          6    1    1    2  501    0 -0.46744049645E+02  0.13977337096E+03  0.12491726743E+03  0.25866952876E+03  0.17200000000E+03 0.  1.
         -6    1    1    2    0  503  0.46744049645E+02 -0.13977337096E+03 -0.29381710015E+03  0.37099068688E+03  0.17200000000E+03 0. -1.
<mgrwt>
<rscale>  2 0.22650740E+03</rscale>
<asrwt>0</asrwt>
<pdfrwt beam="1">  1       21 0.57595049E-01 0.22650740E+03</pdfrwt>
<pdfrwt beam="2">  1       21 0.99820005E-01 0.22650740E+03</pdfrwt>
<totfact> 0.22658996E+03</totfact>
</mgrwt>
</event>
<event>
 4    1  0.1091654E+000  0.2100828E+03  0.7546771E-02  0.1141500E+00
         21   -1    0    0  501  502  0.00000000000E+00  0.00000000000E+00  0.24599367284E+03  0.24599367284E+03  0.00000000000E+00 0. -1.
         21   -1    0    0  502  503 -0.00000000000E+00 -0.00000000000E+00 -0.18525147538E+03  0.18525147538E+03  0.00000000000E+00 0.  1.
          6    1    1    2  501    0  0.85875205714E+02 -0.84712612032E+02  0.68646126918E+02  0.22101372884E+03  0.17200000000E+03 0.  1.
         -6    1    1    2    0  503 -0.85875205714E+02  0.84712612032E+02 -0.79039294629E+01  0.21023141938E+03  0.17200000000E+03 0.  1.
<mgrwt>
<rscale>  2 0.21008279E+03</rscale>
<asrwt>0</asrwt>
<pdfrwt beam="1">  1       21 0.61498418E-01 0.21008279E+03</pdfrwt>
<pdfrwt beam="2">  1       21 0.46312869E-01 0.21008279E+03</pdfrwt>
<totfact> 0.10847518E+04</totfact>
</mgrwt>
</event>
<event>
 4    1  0.1091654E+000  0.3591573E+03  0.7546771E-02  0.1058918E+00
         21   -1    0    0  501  502  0.00000000000E+00  0.00000000000E+00  0.78097933175E+03  0.78097933175E+03  0.00000000000E+00 0.  1.
         21   -1    0    0  502  503 -0.00000000000E+00 -0.00000000000E+00 -0.16720253610E+03  0.16720253610E+03  0.00000000000E+00 0.  1.
          6    1    1    2  501    0  0.29949539315E+03  0.98551966033E+02  0.25461138755E+03  0.44025099568E+03  0.17200000000E+03 0.  1.
         -6    1    1    2    0  503 -0.29949539315E+03 -0.98551966033E+02  0.35916540809E+03  0.50793087217E+03  0.17200000000E+03 0.  1.
<mgrwt>
<rscale>  2 0.35915732E+03</rscale>
<asrwt>0</asrwt>
<pdfrwt beam="1">  1       21 0.19524482E+00 0.35915732E+03</pdfrwt>
<pdfrwt beam="2">  1       21 0.41800636E-01 0.35915732E+03</pdfrwt>
<totfact> 0.69095466E+02</totfact>
</mgrwt>
</event>
<event>
 4    1  0.1091654E+000  0.1815099E+03  0.7546771E-02  0.1166350E+00
         21   -1    0    0  503  502  0.00000000000E+00  0.00000000000E+00  0.28663953708E+03  0.28663953708E+03  0.00000000000E+00 0. -1.
         21   -1    0    0  501  503 -0.00000000000E+00 -0.00000000000E+00 -0.13627720629E+03  0.13627720629E+03  0.00000000000E+00 0. -1.
          6    1    1    2  501    0 -0.57926013159E+02 -0.25344079218E+01 -0.84946357422E+01  0.18170857179E+03  0.17200000000E+03 0.  1.
         -6    1    1    2    0  502  0.57926013159E+02  0.25344079218E+01  0.15885696653E+03  0.24120817159E+03  0.17200000000E+03 0.  1.
<mgrwt>
<rscale>  2 0.18150991E+03</rscale>
<asrwt>0</asrwt>
<pdfrwt beam="1">  1       21 0.71659883E-01 0.18150991E+03</pdfrwt>
<pdfrwt beam="2">  1       21 0.34069302E-01 0.18150991E+03</pdfrwt>
<totfact> 0.14709763E+04</totfact>
</mgrwt>
</event>
<event>
 4    1  0.1091654E+000  0.1723446E+03  0.7546771E-02  0.1175425E+00
         21   -1    0    0  503  502  0.00000000000E+00  0.00000000000E+00  0.54871713974E+03  0.54871713974E+03  0.00000000000E+00 0.  1.
         21   -1    0    0  501  503 -0.00000000000E+00 -0.00000000000E+00 -0.54159116408E+02  0.54159116408E+02  0.00000000000E+00 0.  1.
          6    1    1    2  501    0 -0.59767285595E+01 -0.91074926741E+01  0.24042423788E+03  0.29581494531E+03  0.17200000000E+03 0.  1.
         -6    1    1    2    0  502  0.59767285595E+01  0.91074926741E+01  0.25413378545E+03  0.30706131084E+03  0.17200000000E+03 0.  1.
<mgrwt>
<rscale>  2 0.17234462E+03</rscale>
<asrwt>0</asrwt>
<pdfrwt beam="1">  1       21 0.13717927E+00 0.17234462E+03</pdfrwt>
<pdfrwt beam="2">  1       21 0.13539781E-01 0.17234462E+03</pdfrwt>
<totfact> 0.18061651E+04</totfact>
</mgrwt>
</event>
<event>
 4    1  0.1091654E+000  0.1976847E+03  0.7546771E-02  0.1151707E+00
         21   -1    0    0  501  502  0.00000000000E+00  0.00000000000E+00  0.10757852619E+04  0.10757852619E+04  0.00000000000E+00 0. -1.
         21   -1    0    0  502  503 -0.00000000000E+00 -0.00000000000E+00 -0.36799882390E+02  0.36799882390E+02  0.00000000000E+00 0. -1.
          6    1    1    2  501    0  0.67734205634E+02 -0.70052276057E+02  0.58260308536E+03  0.61522808703E+03  0.17200000000E+03 0. -1.
         -6    1    1    2    0  503 -0.67734205634E+02  0.70052276057E+02  0.45638229410E+03  0.49735705722E+03  0.17200000000E+03 0. -1.
<mgrwt>
<rscale>  2 0.19768471E+03</rscale>
<asrwt>0</asrwt>
<pdfrwt beam="1">  1       21 0.26894621E+00 0.19768471E+03</pdfrwt>
<pdfrwt beam="2">  1       21 0.91999742E-02 0.19768471E+03</pdfrwt>
<totfact> 0.48190777E+03</totfact>
</mgrwt>
</event>
<event>
 4    1  0.1091654E+000  0.2095816E+03  0.7546771E-02  0.1141898E+00
         21   -1    0    0  503  502  0.00000000000E+00  0.00000000000E+00  0.69841447038E+03  0.69841447038E+03  0.00000000000E+00 0. -1.
         21   -1    0    0  501  503 -0.00000000000E+00 -0.00000000000E+00 -0.18540004593E+03  0.18540004593E+03  0.00000000000E+00 0. -1.
          6    1    1    2  501    0 -0.11975132897E+03  0.26334290472E+00 -0.10271163352E+03  0.23339693614E+03  0.17200000000E+03 0. -1.
         -6    1    1    2    0  502  0.11975132897E+03 -0.26334290472E+00  0.61572605796E+03  0.65041758017E+03  0.17200000000E+03 0. -1.
<mgrwt>
<rscale>  2 0.20958161E+03</rscale>
<asrwt>0</asrwt>
<pdfrwt beam="1">  1       21 0.17460361E+00 0.20958161E+03</pdfrwt>
<pdfrwt beam="2">  1       21 0.46350013E-01 0.20958161E+03</pdfrwt>
<totfact> 0.86774637E+02</totfact>
</mgrwt>
</event>
<event>
 4    1  0.1091654E+000  0.2501245E+03  0.7546771E-02  0.1113226E+00
         21   -1    0    0  503  502  0.00000000000E+00  0.00000000000E+00  0.75801135853E+02  0.75801135853E+02  0.00000000000E+00 0. -1.
         21   -1    0    0  501  503 -0.00000000000E+00 -0.00000000000E+00 -0.85364553549E+03  0.85364553549E+03  0.00000000000E+00 0.  1.
          6    1    1    2  501    0 -0.12025193513E+03 -0.13607981646E+03 -0.30430917101E+03  0.39391155849E+03  0.17200000000E+03 0. -1.
         -6    1    1    2    0  502  0.12025193513E+03  0.13607981646E+03 -0.47353522863E+03  0.53553511286E+03  0.17200000000E+03 0.  1.
<mgrwt>
<rscale>  2 0.25012446E+03</rscale>
<asrwt>0</asrwt>
<pdfrwt beam="1">  1       21 0.18950284E-01 0.25012446E+03</pdfrwt>
<pdfrwt beam="2">  1       21 0.21341139E+00 0.25012446E+03</pdfrwt>
<totfact> 0.26750481E+03</totfact>
</mgrwt>
</event>
<event>
 4    1  0.1091654E+000  0.1759941E+03  0.7546771E-02  0.1171737E+00
         21   -1    0    0  503  502  0.00000000000E+00  0.00000000000E+00  0.61578380986E+03  0.61578380986E+03  0.00000000000E+00 0. -1.
         21   -1    0    0  501  503 -0.00000000000E+00 -0.00000000000E+00 -0.84115779143E+02  0.84115779143E+02  0.00000000000E+00 0. -1.
          6    1    1    2  501    0  0.37084712812E+02 -0.38259043426E+01  0.43949582938E+02  0.18139867505E+03  0.17200000000E+03 0. -1.
         -6    1    1    2    0  502 -0.37084712812E+02  0.38259043426E+01  0.48771844778E+03  0.51850091396E+03  0.17200000000E+03 0. -1.
<mgrwt>
<rscale>  2 0.17599407E+03</rscale>
<asrwt>0</asrwt>
<pdfrwt beam="1">  1       21 0.15394594E+00 0.17599407E+03</pdfrwt>
<pdfrwt beam="2">  1       21 0.21028947E-01 0.17599407E+03</pdfrwt>
<totfact> 0.59482742E+03</totfact>
</mgrwt>
</event>
<event>
 4    1  0.1091654E+000  0.2018495E+03  0.7546771E-02  0.1148188E+00
         21   -1    0    0  501  502  0.00000000000E+00  0.00000000000E+00  0.99706427210E+02  0.99706427210E+02  0.00000000000E+00 0. -1.
         21   -1    0    0  502  503 -0.00000000000E+00 -0.00000000000E+00 -0.70448358719E+03  0.70448358719E+03  0.00000000000E+00 0. -1.
          6    1    1    2  501    0  0.92614451452E+02 -0.50811321885E+02 -0.41815069423E+02  0.20613521553E+03  0.17200000000E+03 0. -1.
         -6    1    1    2    0  503 -0.92614451452E+02  0.50811321885E+02 -0.56296209056E+03  0.59805479887E+03  0.17200000000E+03 0. -1.
<mgrwt>
<rscale>  2 0.20184952E+03</rscale>
<asrwt>0</asrwt>
<pdfrwt beam="1">  1       21 0.24926607E-01 0.20184952E+03</pdfrwt>
<pdfrwt beam="2">  1       21 0.17612090E+00 0.20184952E+03</pdfrwt>
<totfact> 0.29210909E+03</totfact>
</mgrwt>
</event>
<event>
 4    1  0.1091654E+000  0.2022036E+03  0.7546771E-02  0.1147893E+00
         21   -1    0    0  501  502  0.00000000000E+00  0.00000000000E+00  0.22131040734E+03  0.22131040734E+03  0.00000000000E+00 0. -1.
         21   -1    0    0  502  503 -0.00000000000E+00 -0.00000000000E+00 -0.26764246949E+03  0.26764246949E+03  0.00000000000E+00 0.  1.
          6    1    1    2  501    0 -0.42503780147E+02  0.97445906675E+02  0.11289280801E+03  0.23158381238E+03  0.17200000000E+03 0. -1.
         -6    1    1    2    0  503  0.42503780147E+02 -0.97445906675E+02 -0.15922487016E+03  0.25736906444E+03  0.17200000000E+03 0.  1.
<mgrwt>
<rscale>  2 0.20220355E+03</rscale>
<asrwt>0</asrwt>
<pdfrwt beam="1">  1       21 0.55327602E-01 0.20220355E+03</pdfrwt>
<pdfrwt beam="2">  1       21 0.66910617E-01 0.20220355E+03</pdfrwt>
<totfact> 0.62571423E+03</totfact>
</mgrwt>
</event>
<event>
 4    1  0.1091654E+000  0.1811196E+03  0.7546771E-02  0.1166724E+00
         21   -1    0    0  501  502  0.00000000000E+00  0.00000000000E+00  0.29730322833E+03  0.29730322833E+03  0.00000000000E+00 0. -1.
         21   -1    0    0  502  503 -0.00000000000E+00 -0.00000000000E+00 -0.16723326974E+03  0.16723326974E+03  0.00000000000E+00 0. -1.
          6    1    1    2  501    0  0.72140218630E+01  0.56287254721E+02  0.20051047954E+03  0.27020131302E+03  0.17200000000E+03 0. -1.
         -6    1    1    2    0  503 -0.72140218630E+01 -0.56287254721E+02 -0.70440520949E+02  0.19433518505E+03  0.17200000000E+03 0. -1.
<mgrwt>
<rscale>  2 0.18111957E+03</rscale>
<asrwt>0</asrwt>
<pdfrwt beam="1">  1       21 0.74325806E-01 0.18111957E+03</pdfrwt>
<pdfrwt beam="2">  1       21 0.41808318E-01 0.18111957E+03</pdfrwt>
<totfact> 0.90076751E+03</totfact>
</mgrwt>
</event>
<event>
 4    1  0.1091654E+000  0.1838283E+03  0.7546771E-02  0.1164149E+00
         21   -1    0    0  503  502  0.00000000000E+00  0.00000000000E+00  0.39682039873E+02  0.39682039873E+02  0.00000000000E+00 0.  1.
         21   -1    0    0  501  503 -0.00000000000E+00 -0.00000000000E+00 -0.12013181214E+04  0.12013181214E+04  0.00000000000E+00 0.  1.
          6    1    1    2  501    0 -0.32025123388E+02  0.56420238246E+02 -0.91561209630E+03  0.93388348455E+03  0.17200000000E+03 0. -1.
         -6    1    1    2    0  502  0.32025123388E+02 -0.56420238246E+02 -0.24602398517E+03  0.30711667668E+03  0.17200000000E+03 0. -1.
<mgrwt>
<rscale>  2 0.18382832E+03</rscale>
<asrwt>0</asrwt>
<pdfrwt beam="1">  1       21 0.99205100E-02 0.18382832E+03</pdfrwt>
<pdfrwt beam="2">  1       21 0.30032953E+00 0.18382832E+03</pdfrwt>
<totfact> 0.28283129E+03</totfact>
</mgrwt>
</event>
<event>
 4    1  0.1091654E+000  0.1831358E+03  0.7546771E-02  0.1164802E+00
         21   -1    0    0  503  502  0.00000000000E+00  0.00000000000E+00  0.63726820777E+03  0.63726820777E+03  0.00000000000E+00 0.  1.
         21   -1    0    0  501  503 -0.00000000000E+00 -0.00000000000E+00 -0.52880876449E+02  0.52880876449E+02  0.00000000000E+00 0.  1.
          6    1    1    2  501    0  0.42267965013E+02 -0.46563427393E+02  0.26837422299E+03  0.32490530498E+03  0.17200000000E+03 0.  1.
         -6    1    1    2    0  502 -0.42267965013E+02  0.46563427393E+02  0.31601310833E+03  0.36524377924E+03  0.17200000000E+03 0.  1.
<mgrwt>
<rscale>  2 0.18313583E+03</rscale>
<asrwt>0</asrwt>
<pdfrwt beam="1">  1       21 0.15931703E+00 0.18313583E+03</pdfrwt>
<pdfrwt beam="2">  1       21 0.13220221E-01 0.18313583E+03</pdfrwt>
<totfact> 0.12646072E+04</totfact>
</mgrwt>
</event>
<event>
 4    1  0.1091654E+000  0.1775263E+03  0.7546771E-02  0.1170219E+00
         21   -1    0    0  503  502  0.00000000000E+00  0.00000000000E+00  0.30056383268E+03  0.30056383268E+03  0.00000000000E+00 0. -1.
         21   -1    0    0  501  503 -0.00000000000E+00 -0.00000000000E+00 -0.11992599355E+03  0.11992599355E+03  0.00000000000E+00 0. -1.
          6    1    1    2  501    0  0.15536873567E+02 -0.41112090329E+02  0.15787251097E+02  0.17822692195E+03  0.17200000000E+03 0. -1.
         -6    1    1    2    0  502 -0.15536873567E+02  0.41112090329E+02  0.16485058804E+03  0.24226290427E+03  0.17200000000E+03 0. -1.
<mgrwt>
<rscale>  2 0.17752633E+03</rscale>
<asrwt>0</asrwt>
<pdfrwt beam="1">  1       21 0.75140957E-01 0.17752633E+03</pdfrwt>
<pdfrwt beam="2">  1       21 0.29981499E-01 0.17752633E+03</pdfrwt>
<totfact> 0.17053182E+04</totfact>
</mgrwt>
</event>
<event>
 4    1  0.1091654E+000  0.1799745E+03  0.7546771E-02  0.1167828E+00
         21   -1    0    0  501  502  0.00000000000E+00  0.00000000000E+00  0.83268437680E+03  0.83268437680E+03  0.00000000000E+00 0.  1.
         21   -1    0    0  502  503 -0.00000000000E+00 -0.00000000000E+00 -0.38936439766E+02  0.38936439766E+02  0.00000000000E+00 0.  1.
          6    1    1    2  501    0 -0.23235448263E+02 -0.47612483749E+02  0.41033480834E+03  0.44806862153E+03  0.17200000000E+03 0.  1.
         -6    1    1    2    0  503  0.23235448263E+02  0.47612483749E+02  0.38341312869E+03  0.42355219503E+03  0.17200000000E+03 0.  1.
<mgrwt>
<rscale>  2 0.17997454E+03</rscale>
<asrwt>0</asrwt>
<pdfrwt beam="1">  1       21 0.20817104E+00 0.17997454E+03</pdfrwt>
<pdfrwt beam="2">  1       21 0.97341127E-02 0.17997454E+03</pdfrwt>
<totfact> 0.10252242E+04</totfact>
</mgrwt>
</event>
<event>
 4    1  0.1091654E+000  0.2406878E+03  0.7546771E-02  0.1119336E+00
         21   -1    0    0  501  502  0.00000000000E+00  0.00000000000E+00  0.19381421912E+03  0.19381421912E+03  0.00000000000E+00 0.  1.
         21   -1    0    0  502  503 -0.00000000000E+00 -0.00000000000E+00 -0.35113409928E+03  0.35113409928E+03  0.00000000000E+00 0. -1.
          6    1    1    2  501    0  0.92536755096E+02  0.14065399948E+03  0.26433591306E+02  0.24213494866E+03  0.17200000000E+03 0.  1.
         -6    1    1    2    0  503 -0.92536755096E+02 -0.14065399948E+03 -0.18375347148E+03  0.30281336974E+03  0.17200000000E+03 0. -1.
<mgrwt>
<rscale>  2 0.24068776E+03</rscale>
<asrwt>0</asrwt>
<pdfrwt beam="1">  1       21 0.48453555E-01 0.24068776E+03</pdfrwt>
<pdfrwt beam="2">  1       21 0.87783524E-01 0.24068776E+03</pdfrwt>
<totfact> 0.43690556E+03</totfact>
</mgrwt>
</event>
<event>
 4    1  0.1091654E+000  0.1826623E+03  0.7546771E-02  0.1165251E+00
         21   -1    0    0  501  502  0.00000000000E+00  0.00000000000E+00  0.39040825718E+02  0.39040825718E+02  0.00000000000E+00 0.  1.
         21   -1    0    0  502  503 -0.00000000000E+00 -0.00000000000E+00 -0.95734073580E+03  0.95734073580E+03  0.00000000000E+00 0.  1.
          6    1    1    2  501    0  0.59112735583E+02  0.16947035531E+02 -0.62233008328E+03  0.64858326380E+03  0.17200000000E+03 0.  1.
         -6    1    1    2    0  503 -0.59112735583E+02 -0.16947035531E+02 -0.29596982681E+03  0.34779829773E+03  0.17200000000E+03 0.  1.
<mgrwt>
<rscale>  2 0.18266230E+03</rscale>
<asrwt>0</asrwt>
<pdfrwt beam="1">  1       21 0.97602063E-02 0.18266230E+03</pdfrwt>
<pdfrwt beam="2">  1       21 0.23933519E+00 0.18266230E+03</pdfrwt>
<totfact> 0.65773201E+03</totfact>
</mgrwt>
</event>
<event>
 4    1  0.1091654E+000  0.2109230E+03  0.7546771E-02  0.1140837E+00
         21   -1    0    0  501  502  0.00000000000E+00  0.00000000000E+00  0.41793579288E+03  0.41793579288E+03  0.00000000000E+00 0. -1.
         21   -1    0    0  502  503 -0.00000000000E+00 -0.00000000000E+00 -0.13787418448E+03  0.13787418448E+03  0.00000000000E+00 0. -1.
          6    1    1    2  501    0  0.58635244597E+02 -0.10708137905E+03  0.27270892065E+03  0.34475885638E+03  0.17200000000E+03 0. -1.
         -6    1    1    2    0  503 -0.58635244597E+02  0.10708137905E+03  0.73526877501E+01  0.21105112098E+03  0.17200000000E+03 0. -1.
<mgrwt>
<rscale>  2 0.21092300E+03</rscale>
<asrwt>0</asrwt>
<pdfrwt beam="1">  1       21 0.10448395E+00 0.21092300E+03</pdfrwt>
<pdfrwt beam="2">  1       21 0.34468547E-01 0.21092300E+03</pdfrwt>
<totfact> 0.59142568E+03</totfact>
</mgrwt>
</event>
<event>
 4    1  0.1091654E+000  0.1777102E+03  0.7546771E-02  0.1170038E+00
         21   -1    0    0  503  502  0.00000000000E+00  0.00000000000E+00  0.11205552808E+03  0.11205552808E+03  0.00000000000E+00 0. -1.
         21   -1    0    0  501  503 -0.00000000000E+00 -0.00000000000E+00 -0.29476786896E+03  0.29476786896E+03  0.00000000000E+00 0. -1.
          6    1    1    2  501    0 -0.12996561541E+02  0.42755185799E+02 -0.48745218657E+02  0.18427428705E+03  0.17200000000E+03 0. -1.
         -6    1    1    2    0  502  0.12996561541E+02 -0.42755185799E+02 -0.13396712221E+03  0.22254910999E+03  0.17200000000E+03 0. -1.
<mgrwt>
<rscale>  2 0.17771020E+03</rscale>
<asrwt>0</asrwt>
<pdfrwt beam="1">  1       21 0.28013882E-01 0.17771020E+03</pdfrwt>
<pdfrwt beam="2">  1       21 0.73691966E-01 0.17771020E+03</pdfrwt>
<totfact> 0.20308638E+04</totfact>
</mgrwt>
</event>
<event>
 4    1  0.1091654E+000  0.1834507E+03  0.7546771E-02  0.1164505E+00
         21   -1    0    0  501  502  0.00000000000E+00  0.00000000000E+00  0.22890675911E+03  0.22890675911E+03  0.00000000000E+00 0.  1.
         21   -1    0    0  502  503 -0.00000000000E+00 -0.00000000000E+00 -0.14949044889E+03  0.14949044889E+03  0.00000000000E+00 0.  1.
          6    1    1    2  501    0  0.12409477191E+02 -0.62579283100E+02  0.15392401882E+02  0.18409532268E+03  0.17200000000E+03 0.  1.
         -6    1    1    2    0  503 -0.12409477191E+02  0.62579283100E+02  0.64023908345E+02  0.19430188532E+03  0.17200000000E+03 0.  1.
<mgrwt>
<rscale>  2 0.18345071E+03</rscale>
<asrwt>0</asrwt>
<pdfrwt beam="1">  1       21 0.57226689E-01 0.18345071E+03</pdfrwt>
<pdfrwt beam="2">  1       21 0.37372612E-01 0.18345071E+03</pdfrwt>
<totfact> 0.19907011E+04</totfact>
</mgrwt>
</event>
<event>
 4    1  0.1091654E+000  0.1734378E+03  0.7546771E-02  0.1174309E+00
         21   -1    0    0  501  502  0.00000000000E+00  0.00000000000E+00  0.12015352223E+03  0.12015352223E+03  0.00000000000E+00 0. -1.
         21   -1    0    0  502  503 -0.00000000000E+00 -0.00000000000E+00 -0.29374558343E+03  0.29374558343E+03  0.00000000000E+00 0. -1.
          6    1    1    2  501    0 -0.11121857444E+02 -0.19312639145E+02 -0.72549269170E+01  0.17358948041E+03  0.17200000000E+03 0. -1.
         -6    1    1    2    0  503  0.11121857444E+02  0.19312639145E+02 -0.16633713429E+03  0.24030962525E+03  0.17200000000E+03 0. -1.
<mgrwt>
<rscale>  2 0.17343781E+03</rscale>
<asrwt>0</asrwt>
<pdfrwt beam="1">  1       21 0.30038381E-01 0.17343781E+03</pdfrwt>
<pdfrwt beam="2">  1       21 0.73436395E-01 0.17343781E+03</pdfrwt>
<totfact> 0.17927286E+04</totfact>
</mgrwt>
</event>
<event>
 4    1  0.1091654E+000  0.1808436E+03  0.7546771E-02  0.1166989E+00
         21   -1    0    0  501  502  0.00000000000E+00  0.00000000000E+00  0.34709365507E+03  0.34709365507E+03  0.00000000000E+00 0. -1.
         21   -1    0    0  502  503 -0.00000000000E+00 -0.00000000000E+00 -0.11715184016E+03  0.11715184016E+03  0.00000000000E+00 0. -1.
          6    1    1    2  501    0  0.55497096081E+02  0.63618431895E+01  0.21766107463E+03  0.28298541329E+03  0.17200000000E+03 0. -1.
         -6    1    1    2    0  503 -0.55497096081E+02 -0.63618431895E+01  0.12280740277E+02  0.18126008194E+03  0.17200000000E+03 0. -1.
<mgrwt>
<rscale>  2 0.18084358E+03</rscale>
<asrwt>0</asrwt>
<pdfrwt beam="1">  1       21 0.86773412E-01 0.18084358E+03</pdfrwt>
<pdfrwt beam="2">  1       21 0.29287961E-01 0.18084358E+03</pdfrwt>
<totfact> 0.12862404E+04</totfact>
</mgrwt>
</event>
<event>
 4    1  0.1091654E+000  0.2332937E+03  0.7546771E-02  0.1124343E+00
         21   -1    0    0  501  502  0.00000000000E+00  0.00000000000E+00  0.46263797233E+03  0.46263797233E+03  0.00000000000E+00 0. -1.
         21   -1    0    0  502  503 -0.00000000000E+00 -0.00000000000E+00 -0.13208120598E+03  0.13208120598E+03  0.00000000000E+00 0. -1.
          6    1    1    2  501    0 -0.99982690767E+02 -0.12184178829E+03  0.26359416239E+03  0.35200545773E+03  0.17200000000E+03 0. -1.
         -6    1    1    2    0  503  0.99982690767E+02  0.12184178829E+03  0.66962603960E+02  0.24271372058E+03  0.17200000000E+03 0. -1.
<mgrwt>
<rscale>  2 0.23329372E+03</rscale>
<asrwt>0</asrwt>
<pdfrwt beam="1">  1       21 0.11565949E+00 0.23329372E+03</pdfrwt>
<pdfrwt beam="2">  1       21 0.33020303E-01 0.23329372E+03</pdfrwt>
<totfact> 0.49506746E+03</totfact>
</mgrwt>
</event>
<event>
 4    1  0.1091654E+000  0.2014292E+03  0.7546771E-02  0.1148539E+00
         21   -1    0    0  501  502  0.00000000000E+00  0.00000000000E+00  0.10894775372E+03  0.10894775372E+03  0.00000000000E+00 0.  1.
         21   -1    0    0  502  503 -0.00000000000E+00 -0.00000000000E+00 -0.39909245325E+03  0.39909245325E+03  0.00000000000E+00 0.  1.
          6    1    1    2  501    0 -0.77717009870E+02 -0.70354606973E+02 -0.21074869773E+03  0.29152824553E+03  0.17200000000E+03 0.  1.
         -6    1    1    2    0  503  0.77717009870E+02  0.70354606973E+02 -0.79396001799E+02  0.21651196144E+03  0.17200000000E+03 0.  1.
<mgrwt>
<rscale>  2 0.20142915E+03</rscale>
<asrwt>0</asrwt>
<pdfrwt beam="1">  1       21 0.27236939E-01 0.20142915E+03</pdfrwt>
<pdfrwt beam="2">  1       21 0.99773113E-01 0.20142915E+03</pdfrwt>
<totfact> 0.10542419E+04</totfact>
</mgrwt>
</event>
<event>
 4    1  0.1091654E+000  0.1903751E+03  0.7546771E-02  0.1158123E+00
         21   -1    0    0  501  502  0.00000000000E+00  0.00000000000E+00  0.47860952663E+03  0.47860952663E+03  0.00000000000E+00 0. -1.
         21   -1    0    0  502  503 -0.00000000000E+00 -0.00000000000E+00 -0.89410827949E+02  0.89410827949E+02  0.00000000000E+00 0. -1.
          6    1    1    2  501    0  0.81032887035E+02 -0.96105144004E+01  0.30571491489E+03  0.36014483191E+03  0.17200000000E+03 0. -1.
         -6    1    1    2    0  503 -0.81032887035E+02  0.96105144004E+01  0.83483783795E+02  0.20787552267E+03  0.17200000000E+03 0. -1.
<mgrwt>
<rscale>  2 0.19037513E+03</rscale>
<asrwt>0</asrwt>
<pdfrwt beam="1">  1       21 0.11965237E+00 0.19037513E+03</pdfrwt>
<pdfrwt beam="2">  1       21 0.22352708E-01 0.19037513E+03</pdfrwt>
<totfact> 0.99806997E+03</totfact>
</mgrwt>
</event>
<event>
 4    1  0.1091654E+000  0.1823720E+03  0.7546771E-02  0.1165527E+00
         21   -1    0    0  501  502  0.00000000000E+00  0.00000000000E+00  0.19818175951E+03  0.19818175951E+03  0.00000000000E+00 0. -1.
         21   -1    0    0  502  503 -0.00000000000E+00 -0.00000000000E+00 -0.54663586785E+03  0.54663586785E+03  0.00000000000E+00 0. -1.
          6    1    1    2  501    0  0.59747970511E+02  0.10282709105E+02  0.13578813337E+03  0.22737187876E+03  0.17200000000E+03 0. -1.
         -6    1    1    2    0  503 -0.59747970511E+02 -0.10282709105E+02 -0.48424224171E+03  0.51744574860E+03  0.17200000000E+03 0. -1.
<mgrwt>
<rscale>  2 0.18237202E+03</rscale>
<asrwt>0</asrwt>
<pdfrwt beam="1">  1       21 0.49545440E-01 0.18237202E+03</pdfrwt>
<pdfrwt beam="2">  1       21 0.13665897E+00 0.18237202E+03</pdfrwt>
<totfact> 0.14941960E+03</totfact>
</mgrwt>
</event>
<event>
 4    1  0.1091654E+000  0.2257036E+03  0.7546771E-02  0.1129701E+00
         21   -1    0    0  501  502  0.00000000000E+00  0.00000000000E+00  0.10943712033E+03  0.10943712033E+03  0.00000000000E+00 0. -1.
         21   -1    0    0  502  503 -0.00000000000E+00 -0.00000000000E+00 -0.83526969835E+03  0.83526969835E+03  0.00000000000E+00 0. -1.
          6    1    1    2  501    0 -0.81046723770E+02  0.12161228401E+03 -0.48631061735E+02  0.23088330217E+03  0.17200000000E+03 0. -1.
         -6    1    1    2    0  503  0.81046723770E+02 -0.12161228401E+03 -0.67720151629E+03  0.71382351651E+03  0.17200000000E+03 0. -1.
<mgrwt>
<rscale>  2 0.22570361E+03</rscale>
<asrwt>0</asrwt>
<pdfrwt beam="1">  1       21 0.27359280E-01 0.22570361E+03</pdfrwt>
<pdfrwt beam="2">  1       21 0.20881742E+00 0.22570361E+03</pdfrwt>
<totfact> 0.14533922E+03</totfact>
</mgrwt>
</event>
<event>
 4    1  0.1091654E+000  0.1903796E+03  0.7546771E-02  0.1158119E+00
         21   -1    0    0  501  502  0.00000000000E+00  0.00000000000E+00  0.10045580761E+04  0.10045580761E+04  0.00000000000E+00 0. -1.
         21   -1    0    0  502  503 -0.00000000000E+00 -0.00000000000E+00 -0.37731874691E+02  0.37731874691E+02  0.00000000000E+00 0. -1.
          6    1    1    2  501    0  0.45319684121E+02  0.67871309583E+02  0.59245707558E+03  0.62229396176E+03  0.17200000000E+03 0. -1.
         -6    1    1    2    0  503 -0.45319684121E+02 -0.67871309583E+02  0.37436912585E+03  0.41999598906E+03  0.17200000000E+03 0. -1.
<mgrwt>
<rscale>  2 0.19037959E+03</rscale>
<asrwt>0</asrwt>
<pdfrwt beam="1">  1       21 0.25113943E+00 0.19037959E+03</pdfrwt>
<pdfrwt beam="2">  1       21 0.94329720E-02 0.19037959E+03</pdfrwt>
<totfact> 0.59027817E+03</totfact>
</mgrwt>
</event>
<event>
 4    1  0.1091654E+000  0.1849312E+03  0.7546771E-02  0.1163114E+00
         21   -1    0    0  503  502  0.00000000000E+00  0.00000000000E+00  0.17703562561E+03  0.17703562561E+03  0.00000000000E+00 0. -1.
         21   -1    0    0  501  503 -0.00000000000E+00 -0.00000000000E+00 -0.24470230808E+03  0.24470230808E+03  0.00000000000E+00 0. -1.
          6    1    1    2  501    0  0.66906825903E+02 -0.11790826254E+02 -0.13059335910E+03  0.22639384351E+03  0.17200000000E+03 0. -1.
         -6    1    1    2    0  502 -0.66906825903E+02  0.11790826254E+02  0.62926676630E+02  0.19534409018E+03  0.17200000000E+03 0. -1.
<mgrwt>
<rscale>  2 0.18493120E+03</rscale>
<asrwt>0</asrwt>
<pdfrwt beam="1">  1       21 0.44258907E-01 0.18493120E+03</pdfrwt>
<pdfrwt beam="2">  1       21 0.61175577E-01 0.18493120E+03</pdfrwt>
<totfact> 0.12247265E+04</totfact>
</mgrwt>
</event>
<event>
 4    1  0.1091654E+000  0.2067938E+03  0.7546771E-02  0.1144130E+00
         21   -1    0    0  503  502  0.00000000000E+00  0.00000000000E+00  0.12364511660E+04  0.12364511660E+04  0.00000000000E+00 0. -1.
         21   -1    0    0  501  503 -0.00000000000E+00 -0.00000000000E+00 -0.43292283028E+02  0.43292283028E+02  0.00000000000E+00 0.  1.
          6    1    1    2  501    0 -0.69683134255E+02 -0.91235610364E+02  0.30962788248E+03  0.37233466319E+03  0.17200000000E+03 0.  1.
         -6    1    1    2    0  502  0.69683134255E+02  0.91235610364E+02  0.88353100048E+03  0.90740878584E+03  0.17200000000E+03 0. -1.
<mgrwt>
<rscale>  2 0.20679380E+03</rscale>
<asrwt>0</asrwt>
<pdfrwt beam="1">  1       21 0.30911267E+00 0.20679380E+03</pdfrwt>
<pdfrwt beam="2">  1       21 0.10823075E-01 0.20679380E+03</pdfrwt>
<totfact> 0.20965272E+03</totfact>
</mgrwt>
</event>
<event>
 4    1  0.1091654E+000  0.1721004E+03  0.7546771E-02  0.1175675E+00
         21   -1    0    0  503  502  0.00000000000E+00  0.00000000000E+00  0.98281243422E+03  0.98281243422E+03  0.00000000000E+00 0.  1.
         21   -1    0    0  501  503 -0.00000000000E+00 -0.00000000000E+00 -0.45440223777E+02  0.45440223777E+02  0.00000000000E+00 0.  1.
          6    1    1    2  501    0  0.12652546129E+01 -0.57404238469E+01  0.17032116304E+03  0.24213188950E+03  0.17200000000E+03 0.  1.
         -6    1    1    2    0  502 -0.12652546129E+01  0.57404238469E+01  0.76705104741E+03  0.78612076850E+03  0.17200000000E+03 0.  1.
<mgrwt>
<rscale>  2 0.17210042E+03</rscale>
<asrwt>0</asrwt>
<pdfrwt beam="1">  1       21 0.24570304E+00 0.17210042E+03</pdfrwt>
<pdfrwt beam="2">  1       21 0.11360059E-01 0.17210042E+03</pdfrwt>
<totfact> 0.46644117E+03</totfact>
</mgrwt>
</event>
<event>
 4    1  0.1091654E+000  0.2506981E+03  0.7546771E-02  0.1112864E+00
         21   -1    0    0  501  502  0.00000000000E+00  0.00000000000E+00  0.42564135443E+03  0.42564135443E+03  0.00000000000E+00 0. -1.
         21   -1    0    0  502  503 -0.00000000000E+00 -0.00000000000E+00 -0.39455357565E+03  0.39455357565E+03  0.00000000000E+00 0.  1.
          6    1    1    2  501    0 -0.17490558599E+03  0.51706656593E+02  0.33995099009E+03  0.42239343982E+03  0.17200000000E+03 0. -1.
         -6    1    1    2    0  503  0.17490558599E+03 -0.51706656593E+02 -0.30886321132E+03  0.39780149026E+03  0.17200000000E+03 0.  1.
<mgrwt>
<rscale>  2 0.25069811E+03</rscale>
<asrwt>0</asrwt>
<pdfrwt beam="1">  1       21 0.10641034E+00 0.25069811E+03</pdfrwt>
<pdfrwt beam="2">  1       21 0.98638394E-01 0.25069811E+03</pdfrwt>
<totfact> 0.56713212E+02</totfact>
</mgrwt>
</event>
<event>
 4    1  0.1091654E+000  0.1826173E+03  0.7546771E-02  0.1165294E+00
         21   -1    0    0  501  502  0.00000000000E+00  0.00000000000E+00  0.22790780230E+03  0.22790780230E+03  0.00000000000E+00 0. -1.
         21   -1    0    0  502  503 -0.00000000000E+00 -0.00000000000E+00 -0.15149750429E+03  0.15149750429E+03  0.00000000000E+00 0.  1.
          6    1    1    2  501    0 -0.32784064472E+02  0.51868100041E+02  0.73250599309E+02  0.19676062864E+03  0.17200000000E+03 0.  1.
         -6    1    1    2    0  503  0.32784064472E+02 -0.51868100041E+02  0.31596986986E+01  0.18264467794E+03  0.17200000000E+03 0. -1.
<mgrwt>
<rscale>  2 0.18261734E+03</rscale>
<asrwt>0</asrwt>
<pdfrwt beam="1">  1       21 0.56976950E-01 0.18261734E+03</pdfrwt>
<pdfrwt beam="2">  1       21 0.37874376E-01 0.18261734E+03</pdfrwt>
<totfact> 0.19573811E+04</totfact>
</mgrwt>
</event>
<event>
 4    1  0.1091654E+000  0.1874021E+03  0.7546771E-02  0.1160826E+00
         21   -1    0    0  503  502  0.00000000000E+00  0.00000000000E+00  0.25091839649E+03  0.25091839649E+03  0.00000000000E+00 0. -1.
         21   -1    0    0  501  503 -0.00000000000E+00 -0.00000000000E+00 -0.14362995186E+03  0.14362995186E+03  0.00000000000E+00 0. -1.
          6    1    1    2  501    0  0.32016426780E+02  0.67160135476E+02  0.85161070031E+02  0.20584446368E+03  0.17200000000E+03 0. -1.
         -6    1    1    2    0  502 -0.32016426780E+02 -0.67160135476E+02  0.22127374594E+02  0.18870388466E+03  0.17200000000E+03 0. -1.
<mgrwt>
<rscale>  2 0.18740207E+03</rscale>
<asrwt>0</asrwt>
<pdfrwt beam="1">  1       21 0.62729599E-01 0.18740207E+03</pdfrwt>
<pdfrwt beam="2">  1       21 0.35907488E-01 0.18740207E+03</pdfrwt>
<totfact> 0.17664143E+04</totfact>
</mgrwt>
</event>
<event>
 4    1  0.1091654E+000  0.2150054E+03  0.7546771E-02  0.1137662E+00
         21   -1    0    0  501  502  0.00000000000E+00  0.00000000000E+00  0.16013523247E+03  0.16013523247E+03  0.00000000000E+00 0.  1.
         21   -1    0    0  502  503 -0.00000000000E+00 -0.00000000000E+00 -0.58291623404E+03  0.58291623404E+03  0.00000000000E+00 0.  1.
          6    1    1    2  501    0  0.10132325263E+03  0.79855603255E+02  0.52568391995E+02  0.22133855229E+03  0.17200000000E+03 0.  1.
         -6    1    1    2    0  503 -0.10132325263E+03 -0.79855603255E+02 -0.47534939356E+03  0.52171291421E+03  0.17200000000E+03 0.  1.
<mgrwt>
<rscale>  2 0.21500539E+03</rscale>
<asrwt>0</asrwt>
<pdfrwt beam="1">  1       21 0.40033809E-01 0.21500539E+03</pdfrwt>
<pdfrwt beam="2">  1       21 0.14572906E+00 0.21500539E+03</pdfrwt>
<totfact> 0.18989692E+03</totfact>
</mgrwt>
</event>
<event>
 4    1  0.1091654E+000  0.1940298E+03  0.7546771E-02  0.1154876E+00
         21   -1    0    0  503  502  0.00000000000E+00  0.00000000000E+00  0.34908330192E+03  0.34908330192E+03  0.00000000000E+00 0.  1.
         21   -1    0    0  501  503 -0.00000000000E+00 -0.00000000000E+00 -0.13524577950E+03  0.13524577950E+03  0.00000000000E+00 0.  1.
          6    1    1    2  501    0  0.89290746821E+02 -0.95253466413E+01 -0.20782749866E+01  0.19404094651E+03  0.17200000000E+03 0.  1.
         -6    1    1    2    0  502 -0.89290746821E+02  0.95253466413E+01  0.21591579740E+03  0.29028813490E+03  0.17200000000E+03 0.  1.
<mgrwt>
<rscale>  2 0.19402982E+03</rscale>
<asrwt>0</asrwt>
<pdfrwt beam="1">  1       21 0.87270824E-01 0.19402982E+03</pdfrwt>
<pdfrwt beam="2">  1       21 0.33811446E-01 0.19402982E+03</pdfrwt>
<totfact> 0.94961163E+03</totfact>
</mgrwt>
</event>
<event>
 4    1  0.1091654E+000  0.1783082E+03  0.7546771E-02  0.1169451E+00
         21   -1    0    0  503  502  0.00000000000E+00  0.00000000000E+00  0.61946611249E+02  0.61946611249E+02  0.00000000000E+00 0. -1.
         21   -1    0    0  501  503 -0.00000000000E+00 -0.00000000000E+00 -0.54601687323E+03  0.54601687323E+03  0.00000000000E+00 0. -1.
          6    1    1    2  501    0 -0.22558352343E+01  0.46954419014E+02 -0.31650716243E+03  0.36327756624E+03  0.17200000000E+03 0.  1.
         -6    1    1    2    0  502  0.22558352343E+01 -0.46954419014E+02 -0.16756309955E+03  0.24468591825E+03  0.17200000000E+03 0.  1.
<mgrwt>
<rscale>  2 0.17830818E+03</rscale>
<asrwt>0</asrwt>
<pdfrwt beam="1">  1       21 0.15486653E-01 0.17830818E+03</pdfrwt>
<pdfrwt beam="2">  1       21 0.13650422E+00 0.17830818E+03</pdfrwt>
<totfact> 0.14277737E+04</totfact>
</mgrwt>
</event>
<event>
 4    1  0.1091654E+000  0.1914572E+03  0.7546771E-02  0.1157154E+00
         21   -1    0    0  501  502  0.00000000000E+00  0.00000000000E+00  0.64172123218E+02  0.64172123218E+02  0.00000000000E+00 0.  1.
         21   -1    0    0  502  503 -0.00000000000E+00 -0.00000000000E+00 -0.84605142265E+03  0.84605142265E+03  0.00000000000E+00 0.  1.
          6    1    1    2  501    0  0.15090932010E+02  0.82729133605E+02 -0.13154577919E+03  0.23229321514E+03  0.17200000000E+03 0.  1.
         -6    1    1    2    0  503 -0.15090932010E+02 -0.82729133605E+02 -0.65033352024E+03  0.67793033073E+03  0.17200000000E+03 0.  1.
<mgrwt>
<rscale>  2 0.19145716E+03</rscale>
<asrwt>0</asrwt>
<pdfrwt beam="1">  1       21 0.16043031E-01 0.19145716E+03</pdfrwt>
<pdfrwt beam="2">  1       21 0.21151285E+00 0.19145716E+03</pdfrwt>
<totfact> 0.39441762E+03</totfact>
</mgrwt>
</event>
<event>
 4    1  0.1091654E+000  0.1762264E+03  0.7546771E-02  0.1171506E+00
         21   -1    0    0  501  502  0.00000000000E+00  0.00000000000E+00  0.10971070765E+03  0.10971070765E+03  0.00000000000E+00 0. -1.
         21   -1    0    0  502  503 -0.00000000000E+00 -0.00000000000E+00 -0.64411821866E+03  0.64411821866E+03  0.00000000000E+00 0. -1.
          6    1    1    2  501    0  0.38351336608E+02 -0.94953807769E+00  0.14987187916E+02  0.17686249587E+03  0.17200000000E+03 0. -1.
         -6    1    1    2    0  503 -0.38351336608E+02  0.94953807769E+00 -0.54939469893E+03  0.57696643044E+03  0.17200000000E+03 0. -1.
<mgrwt>
<rscale>  2 0.17622635E+03</rscale>
<asrwt>0</asrwt>
<pdfrwt beam="1">  1       21 0.27427678E-01 0.17622635E+03</pdfrwt>
<pdfrwt beam="2">  1       21 0.16102955E+00 0.17622635E+03</pdfrwt>
<totfact> 0.31856367E+03</totfact>
</mgrwt>
</event>
<event>
 4    1  0.1091654E+000  0.1942363E+03  0.7546771E-02  0.1154695E+00
         21   -1    0    0  501  502  0.00000000000E+00  0.00000000000E+00  0.15424923542E+03  0.15424923542E+03  0.00000000000E+00 0.  1.
         21   -1    0    0  502  503 -0.00000000000E+00 -0.00000000000E+00 -0.83803791771E+03  0.83803791771E+03  0.00000000000E+00 0.  1.
          6    1    1    2  501    0  0.86623440005E+02  0.25300268906E+02  0.75615842162E+02  0.20843579239E+03  0.17200000000E+03 0.  1.
         -6    1    1    2    0  503 -0.86623440005E+02 -0.25300268906E+02 -0.75940452445E+03  0.78385136073E+03  0.17200000000E+03 0.  1.
<mgrwt>
<rscale>  2 0.19423626E+03</rscale>
<asrwt>0</asrwt>
<pdfrwt beam="1">  1       21 0.38562310E-01 0.19423626E+03</pdfrwt>
<pdfrwt beam="2">  1       21 0.20950947E+00 0.19423626E+03</pdfrwt>
<totfact> 0.75641512E+02</totfact>
</mgrwt>
</event>
<event>
 4    1  0.1091654E+000  0.2031907E+03  0.7546771E-02  0.1147075E+00
         21   -1    0    0  503  502  0.00000000000E+00  0.00000000000E+00  0.89481363457E+03  0.89481363457E+03  0.00000000000E+00 0. -1.
         21   -1    0    0  501  503 -0.00000000000E+00 -0.00000000000E+00 -0.48428124609E+02  0.48428124609E+02  0.00000000000E+00 0.  1.
          6    1    1    2  501    0 -0.30922289789E+02 -0.10366413733E+03  0.32067205130E+03  0.37962745667E+03  0.17200000000E+03 0.  1.
         -6    1    1    2    0  502  0.30922289789E+02  0.10366413733E+03  0.52571345867E+03  0.56361430251E+03  0.17200000000E+03 0. -1.
<mgrwt>
<rscale>  2 0.20319065E+03</rscale>
<asrwt>0</asrwt>
<pdfrwt beam="1">  1       21 0.22370336E+00 0.20319065E+03</pdfrwt>
<pdfrwt beam="2">  1       21 0.12107034E-01 0.20319065E+03</pdfrwt>
<totfact> 0.54598676E+03</totfact>
</mgrwt>
</event>
<event>
 4    1  0.1091654E+000  0.1752556E+03  0.7546771E-02  0.1172475E+00
         21   -1    0    0  501  502  0.00000000000E+00  0.00000000000E+00  0.14498205643E+04  0.14498205643E+04  0.00000000000E+00 0. -1.
         21   -1    0    0  502  503 -0.00000000000E+00 -0.00000000000E+00 -0.49901430911E+02  0.49901430911E+02  0.00000000000E+00 0. -1.
          6    1    1    2  501    0  0.21521469407E+02 -0.25832966222E+02  0.12687982813E+04  0.12808448753E+04  0.17200000000E+03 0. -1.
         -6    1    1    2    0  503 -0.21521469407E+02  0.25832966222E+02  0.13112085205E+03  0.21887711994E+03  0.17200000000E+03 0. -1.
<mgrwt>
<rscale>  2 0.17525557E+03</rscale>
<asrwt>0</asrwt>
<pdfrwt beam="1">  1       21 0.36245500E+00 0.17525557E+03</pdfrwt>
<pdfrwt beam="2">  1       21 0.12475363E-01 0.17525557E+03</pdfrwt>
<totfact> 0.83004917E+02</totfact>
</mgrwt>
</event>
<event>
 4    1  0.1091654E+000  0.1798872E+03  0.7546771E-02  0.1167912E+00
         21   -1    0    0  503  502  0.00000000000E+00  0.00000000000E+00  0.25652977419E+03  0.25652977419E+03  0.00000000000E+00 0. -1.
         21   -1    0    0  501  503 -0.00000000000E+00 -0.00000000000E+00 -0.12704035935E+03  0.12704035935E+03  0.00000000000E+00 0. -1.
          6    1    1    2  501    0 -0.52662825805E+02 -0.14210437408E+01  0.48624618969E+02  0.18634308723E+03  0.17200000000E+03 0. -1.
         -6    1    1    2    0  502  0.52662825805E+02  0.14210437408E+01  0.80864795873E+02  0.19722704632E+03  0.17200000000E+03 0. -1.
<mgrwt>
<rscale>  2 0.17988717E+03</rscale>
<asrwt>0</asrwt>
<pdfrwt beam="1">  1       21 0.64132443E-01 0.17988717E+03</pdfrwt>
<pdfrwt beam="2">  1       21 0.31760090E-01 0.17988717E+03</pdfrwt>
<totfact> 0.21552256E+04</totfact>
</mgrwt>
</event>
<event>
 4    1  0.1091654E+000  0.1745379E+03  0.7546771E-02  0.1173197E+00
         21   -1    0    0  503  502  0.00000000000E+00  0.00000000000E+00  0.41548869599E+03  0.41548869599E+03  0.00000000000E+00 0.  1.
         21   -1    0    0  501  503 -0.00000000000E+00 -0.00000000000E+00 -0.23473426802E+03  0.23473426802E+03  0.00000000000E+00 0.  1.
          6    1    1    2  501    0 -0.23798533841E+02 -0.17694587958E+02 -0.17922009126E+03  0.25016656405E+03  0.17200000000E+03 0.  1.
         -6    1    1    2    0  502  0.23798533841E+02  0.17694587958E+02  0.35997451923E+03  0.40005639997E+03  0.17200000000E+03 0.  1.
<mgrwt>
<rscale>  2 0.17453787E+03</rscale>
<asrwt>0</asrwt>
<pdfrwt beam="1">  1       21 0.10387217E+00 0.17453787E+03</pdfrwt>
<pdfrwt beam="2">  1       21 0.58683568E-01 0.17453787E+03</pdfrwt>
<totfact> 0.20726109E+03</totfact>
</mgrwt>
</event>
<event>
 4    1  0.1091654E+000  0.2166539E+03  0.7546771E-02  0.1136403E+00
         21   -1    0    0  501  502  0.00000000000E+00  0.00000000000E+00  0.54067023506E+03  0.54067023506E+03  0.00000000000E+00 0. -1.
         21   -1    0    0  502  503 -0.00000000000E+00 -0.00000000000E+00 -0.87741637423E+02  0.87741637423E+02  0.00000000000E+00 0. -1.
          6    1    1    2  501    0 -0.84130532644E+02 -0.10137530237E+03  0.25873445154E+03  0.33746468685E+03  0.17200000000E+03 0. -1.
         -6    1    1    2    0  503  0.84130532644E+02  0.10137530237E+03  0.19419414610E+03  0.29094718564E+03  0.17200000000E+03 0. -1.
<mgrwt>
<rscale>  2 0.21665387E+03</rscale>
<asrwt>0</asrwt>
<pdfrwt beam="1">  1       21 0.13516755E+00 0.21665387E+03</pdfrwt>
<pdfrwt beam="2">  1       21 0.21935411E-01 0.21665387E+03</pdfrwt>
<totfact> 0.74651510E+03</totfact>
</mgrwt>
</event>
<event>
 4    1  0.1091654E+000  0.2380126E+03  0.7546771E-02  0.1121124E+00
         21   -1    0    0  503  502  0.00000000000E+00  0.00000000000E+00  0.50491342478E+03  0.50491342478E+03  0.00000000000E+00 0.  1.
         21   -1    0    0  501  503 -0.00000000000E+00 -0.00000000000E+00 -0.16825355247E+03  0.16825355247E+03  0.00000000000E+00 0.  1.
          6    1    1    2  501    0  0.37158450963E+02  0.16026610387E+03 -0.25947481016E+02  0.23942273555E+03  0.17200000000E+03 0.  1.
         -6    1    1    2    0  502 -0.37158450963E+02 -0.16026610387E+03  0.36260735332E+03  0.43374424170E+03  0.17200000000E+03 0.  1.
<mgrwt>
<rscale>  2 0.23801255E+03</rscale>
<asrwt>0</asrwt>
<pdfrwt beam="1">  1       21 0.12622835E+00 0.23801255E+03</pdfrwt>
<pdfrwt beam="2">  1       21 0.42063389E-01 0.23801255E+03</pdfrwt>
<totfact> 0.24379241E+03</totfact>
</mgrwt>
</event>
<event>
 4    1  0.1091654E+000  0.3253341E+03  0.7546771E-02  0.1073220E+00
         21   -1    0    0  503  502  0.00000000000E+00  0.00000000000E+00  0.30485761915E+03  0.30485761915E+03  0.00000000000E+00 0. -1.
         21   -1    0    0  501  503 -0.00000000000E+00 -0.00000000000E+00 -0.37164601392E+03  0.37164601392E+03  0.00000000000E+00 0.  1.
          6    1    1    2  501    0 -0.26536153731E+03 -0.76429862821E+02 -0.12017118337E+03  0.34681894805E+03  0.17200000000E+03 0. -1.
         -6    1    1    2    0  502  0.26536153731E+03  0.76429862821E+02  0.53382788599E+02  0.32968468501E+03  0.17200000000E+03 0.  1.
<mgrwt>
<rscale>  2 0.32533409E+03</rscale>
<asrwt>0</asrwt>
<pdfrwt beam="1">  1       21 0.76214405E-01 0.32533409E+03</pdfrwt>
<pdfrwt beam="2">  1       21 0.92911503E-01 0.32533409E+03</pdfrwt>
<totfact> 0.13571509E+03</totfact>
</mgrwt>
</event>
<event>
 4    1  0.1091654E+000  0.2154888E+03  0.7546771E-02  0.1137292E+00
         21   -1    0    0  501  502  0.00000000000E+00  0.00000000000E+00  0.28999802973E+03  0.28999802973E+03  0.00000000000E+00 0. -1.
         21   -1    0    0  502  503 -0.00000000000E+00 -0.00000000000E+00 -0.16542226470E+03  0.16542226470E+03  0.00000000000E+00 0. -1.
          6    1    1    2  501    0 -0.25034785886E+02  0.12737612729E+03  0.10304319200E+03  0.23885836332E+03  0.17200000000E+03 0. -1.
         -6    1    1    2    0  503  0.25034785886E+02 -0.12737612729E+03  0.21532573023E+02  0.21656193112E+03  0.17200000000E+03 0. -1.
<mgrwt>
<rscale>  2 0.21548879E+03</rscale>
<asrwt>0</asrwt>
<pdfrwt beam="1">  1       21 0.72499507E-01 0.21548879E+03</pdfrwt>
<pdfrwt beam="2">  1       21 0.41355567E-01 0.21548879E+03</pdfrwt>
<totfact> 0.95045716E+03</totfact>
</mgrwt>
</event>
<event>
 4    1  0.1091654E+000  0.2395528E+03  0.7546771E-02  0.1120091E+00
         21   -1    0    0  503  502  0.00000000000E+00  0.00000000000E+00  0.53577435931E+03  0.53577435931E+03  0.00000000000E+00 0. -1.
         21   -1    0    0  501  503 -0.00000000000E+00 -0.00000000000E+00 -0.25168230586E+03  0.25168230586E+03  0.00000000000E+00 0. -1.
          6    1    1    2  501    0 -0.13656230300E+03  0.95667491127E+02 -0.15636606179E+03  0.28606970608E+03  0.17200000000E+03 0. -1.
         -6    1    1    2    0  502  0.13656230300E+03 -0.95667491127E+02  0.44045811524E+03  0.50138695909E+03  0.17200000000E+03 0. -1.
<mgrwt>
<rscale>  2 0.23955277E+03</rscale>
<asrwt>0</asrwt>
<pdfrwt beam="1">  1       21 0.13394359E+00 0.23955277E+03</pdfrwt>
<pdfrwt beam="2">  1       21 0.62920577E-01 0.23955277E+03</pdfrwt>
<totfact> 0.89630134E+02</totfact>
</mgrwt>
</event>
<event>
 4    1  0.1091654E+000  0.2497844E+03  0.7546771E-02  0.1113441E+00
         21   -1    0    0  503  502  0.00000000000E+00  0.00000000000E+00  0.14904728195E+03  0.14904728195E+03  0.00000000000E+00 0. -1.
         21   -1    0    0  501  503 -0.00000000000E+00 -0.00000000000E+00 -0.64062050951E+03  0.64062050951E+03  0.00000000000E+00 0.  1.
          6    1    1    2  501    0  0.18071264200E+03  0.12296330352E+02 -0.47822270243E+03  0.53952684071E+03  0.17200000000E+03 0.  1.
         -6    1    1    2    0  502 -0.18071264200E+03 -0.12296330352E+02 -0.13350525131E+02  0.25014095075E+03  0.17200000000E+03 0. -1.
<mgrwt>
<rscale>  2 0.24978442E+03</rscale>
<asrwt>0</asrwt>
<pdfrwt beam="1">  1       21 0.37261821E-01 0.24978442E+03</pdfrwt>
<pdfrwt beam="2">  1       21 0.16015513E+00 0.24978442E+03</pdfrwt>
<totfact> 0.16573972E+03</totfact>
</mgrwt>
</event>
<event>
 4    1  0.1091654E+000  0.1840993E+03  0.7546771E-02  0.1163894E+00
         21   -1    0    0  501  502  0.00000000000E+00  0.00000000000E+00  0.17719389743E+03  0.17719389743E+03  0.00000000000E+00 0. -1.
         21   -1    0    0  502  503 -0.00000000000E+00 -0.00000000000E+00 -0.37672023361E+03  0.37672023361E+03  0.00000000000E+00 0. -1.
          6    1    1    2  501    0 -0.51303354795E+02 -0.40945428341E+02  0.94554431837E+02  0.20696159763E+03  0.17200000000E+03 0. -1.
         -6    1    1    2    0  503  0.51303354795E+02  0.40945428341E+02 -0.29408076802E+03  0.34695253340E+03  0.17200000000E+03 0. -1.
<mgrwt>
<rscale>  2 0.18409933E+03</rscale>
<asrwt>0</asrwt>
<pdfrwt beam="1">  1       21 0.44298475E-01 0.18409933E+03</pdfrwt>
<pdfrwt beam="2">  1       21 0.94180058E-01 0.18409933E+03</pdfrwt>
<totfact> 0.46582809E+03</totfact>
</mgrwt>
</event>
<event>
 4    1  0.1091654E+000  0.2215280E+03  0.7546771E-02  0.1132749E+00
         21   -1    0    0  503  502  0.00000000000E+00  0.00000000000E+00  0.19987326510E+03  0.19987326510E+03  0.00000000000E+00 0.  1.
         21   -1    0    0  501  503 -0.00000000000E+00 -0.00000000000E+00 -0.25268367310E+03  0.25268367310E+03  0.00000000000E+00 0.  1.
          6    1    1    2  501    0 -0.11087886468E+03  0.84832500054E+02 -0.64481143975E+02  0.23072168001E+03  0.17200000000E+03 0.  1.
         -6    1    1    2    0  502  0.11087886468E+03 -0.84832500054E+02  0.11670735968E+02  0.22183525819E+03  0.17200000000E+03 0.  1.
<mgrwt>
<rscale>  2 0.22152805E+03</rscale>
<asrwt>0</asrwt>
<pdfrwt beam="1">  1       21 0.49968317E-01 0.22152805E+03</pdfrwt>
<pdfrwt beam="2">  1       21 0.63170918E-01 0.22152805E+03</pdfrwt>
<totfact> 0.86749213E+03</totfact>
</mgrwt>
</event>
<event>
 4    1  0.1091654E+000  0.1764900E+03  0.7546771E-02  0.1171244E+00
         21   -1    0    0  501  502  0.00000000000E+00  0.00000000000E+00  0.17556427928E+03  0.17556427928E+03  0.00000000000E+00 0. -1.
         21   -1    0    0  502  503 -0.00000000000E+00 -0.00000000000E+00 -0.18325936533E+03  0.18325936533E+03  0.00000000000E+00 0. -1.
          6    1    1    2  501    0 -0.37406687512E+02 -0.12862497774E+02  0.28176915346E+02  0.17872504771E+03  0.17200000000E+03 0. -1.
         -6    1    1    2    0  503  0.37406687512E+02  0.12862497774E+02 -0.35872001396E+02  0.18009859690E+03  0.17200000000E+03 0. -1.
<mgrwt>
<rscale>  2 0.17648995E+03</rscale>
<asrwt>0</asrwt>
<pdfrwt beam="1">  1       21 0.43891070E-01 0.17648995E+03</pdfrwt>
<pdfrwt beam="2">  1       21 0.45814841E-01 0.17648995E+03</pdfrwt>
<totfact> 0.22992071E+04</totfact>
</mgrwt>
</event>
<event>
 4    1  0.1091654E+000  0.1792690E+03  0.7546771E-02  0.1168512E+00
         21   -1    0    0  503  502  0.00000000000E+00  0.00000000000E+00  0.27222656399E+03  0.27222656399E+03  0.00000000000E+00 0.  1.
         21   -1    0    0  501  503 -0.00000000000E+00 -0.00000000000E+00 -0.13689060133E+03  0.13689060133E+03  0.00000000000E+00 0.  1.
          6    1    1    2  501    0 -0.49508981820E+02 -0.10111479915E+02 -0.82132602008E+01  0.17945706715E+03  0.17200000000E+03 0.  1.
         -6    1    1    2    0  502  0.49508981820E+02  0.10111479915E+02  0.14354922286E+03  0.22966009817E+03  0.17200000000E+03 0.  1.
<mgrwt>
<rscale>  2 0.17926902E+03</rscale>
<asrwt>0</asrwt>
<pdfrwt beam="1">  1       21 0.68056640E-01 0.17926902E+03</pdfrwt>
<pdfrwt beam="2">  1       21 0.34222651E-01 0.17926902E+03</pdfrwt>
<totfact> 0.16355977E+04</totfact>
</mgrwt>
</event>
<event>
 4    1  0.1091654E+000  0.1848203E+03  0.7546771E-02  0.1163218E+00
         21   -1    0    0  503  502  0.00000000000E+00  0.00000000000E+00  0.12784862824E+03  0.12784862824E+03  0.00000000000E+00 0. -1.
         21   -1    0    0  501  503 -0.00000000000E+00 -0.00000000000E+00 -0.28398377925E+03  0.28398377925E+03  0.00000000000E+00 0.  1.
          6    1    1    2  501    0 -0.24463132424E+02  0.63056420975E+02 -0.27977553354E+02  0.18692592267E+03  0.17200000000E+03 0. -1.
         -6    1    1    2    0  502  0.24463132424E+02 -0.63056420975E+02 -0.12815759766E+03  0.22490648482E+03  0.17200000000E+03 0.  1.
<mgrwt>
<rscale>  2 0.18482034E+03</rscale>
<asrwt>0</asrwt>
<pdfrwt beam="1">  1       21 0.31962157E-01 0.18482034E+03</pdfrwt>
<pdfrwt beam="2">  1       21 0.70995945E-01 0.18482034E+03</pdfrwt>
<totfact> 0.16990029E+04</totfact>
</mgrwt>
</event>
<event>
 4    1  0.1091654E+000  0.1746392E+03  0.7546771E-02  0.1173094E+00
         21   -1    0    0  503  502  0.00000000000E+00  0.00000000000E+00  0.20457085975E+03  0.20457085975E+03  0.00000000000E+00 0.  1.
         21   -1    0    0  501  503 -0.00000000000E+00 -0.00000000000E+00 -0.15459732678E+03  0.15459732678E+03  0.00000000000E+00 0.  1.
          6    1    1    2  501    0 -0.24961918497E+02 -0.17081199537E+02  0.58890991570E+02  0.18430142062E+03  0.17200000000E+03 0.  1.
         -6    1    1    2    0  502  0.24961918497E+02  0.17081199537E+02 -0.89174585984E+01  0.17486676591E+03  0.17200000000E+03 0.  1.
<mgrwt>
<rscale>  2 0.17463924E+03</rscale>
<asrwt>0</asrwt>
<pdfrwt beam="1">  1       21 0.51142715E-01 0.17463924E+03</pdfrwt>
<pdfrwt beam="2">  1       21 0.38649332E-01 0.17463924E+03</pdfrwt>
<totfact> 0.23709561E+04</totfact>
</mgrwt>
</event>
<event>
 4    1  0.1091654E+000  0.1966494E+03  0.7546771E-02  0.1152597E+00
         21   -1    0    0  503  502  0.00000000000E+00  0.00000000000E+00  0.60622153533E+03  0.60622153533E+03  0.00000000000E+00 0.  1.
         21   -1    0    0  501  503 -0.00000000000E+00 -0.00000000000E+00 -0.10671830904E+03  0.10671830904E+03  0.00000000000E+00 0.  1.
          6    1    1    2  501    0  0.28316366851E+02 -0.91022832044E+02  0.23665195147E+02  0.19806820554E+03  0.17200000000E+03 0.  1.
         -6    1    1    2    0  502 -0.28316366851E+02  0.91022832044E+02  0.47583803114E+03  0.51487163882E+03  0.17200000000E+03 0.  1.
<mgrwt>
<rscale>  2 0.19664936E+03</rscale>
<asrwt>0</asrwt>
<pdfrwt beam="1">  1       21 0.15155537E+00 0.19664936E+03</pdfrwt>
<pdfrwt beam="2">  1       21 0.26679579E-01 0.19664936E+03</pdfrwt>
<totfact> 0.38763836E+03</totfact>
</mgrwt>
</event>
<event>
 4    1  0.1091654E+000  0.1892545E+03  0.7546771E-02  0.1159135E+00
         21   -1    0    0  501  502  0.00000000000E+00  0.00000000000E+00  0.22011059123E+03  0.22011059123E+03  0.00000000000E+00 0. -1.
         21   -1    0    0  502  503 -0.00000000000E+00 -0.00000000000E+00 -0.17378806949E+03  0.17378806949E+03  0.00000000000E+00 0. -1.
          6    1    1    2  501    0 -0.70183844497E+02  0.36159114186E+02 -0.26532739980E+02  0.19110531091E+03  0.17200000000E+03 0.  1.
         -6    1    1    2    0  503  0.70183844497E+02 -0.36159114186E+02  0.72855261723E+02  0.20279334981E+03  0.17200000000E+03 0.  1.
<mgrwt>
<rscale>  2 0.18925447E+03</rscale>
<asrwt>0</asrwt>
<pdfrwt beam="1">  1       21 0.55027648E-01 0.18925447E+03</pdfrwt>
<pdfrwt beam="2">  1       21 0.43447018E-01 0.18925447E+03</pdfrwt>
<totfact> 0.15900297E+04</totfact>
</mgrwt>
</event>
<event>
 4    1  0.1091654E+000  0.2738037E+03  0.7546771E-02  0.1099122E+00
         21   -1    0    0  501  502  0.00000000000E+00  0.00000000000E+00  0.19690734344E+04  0.19690734344E+04  0.00000000000E+00 0.  1.
         21   -1    0    0  502  503 -0.00000000000E+00 -0.00000000000E+00 -0.53237183600E+02  0.53237183600E+02  0.00000000000E+00 0. -1.
          6    1    1    2  501    0 -0.21137693633E+03 -0.26537485140E+02  0.14975784242E+04  0.15224025696E+04  0.17200000000E+03 0. -1.
         -6    1    1    2    0  503  0.21137693633E+03  0.26537485140E+02  0.41825782658E+03  0.49990804837E+03  0.17200000000E+03 0.  1.
<mgrwt>
<rscale>  2 0.27380367E+03</rscale>
<asrwt>0</asrwt>
<pdfrwt beam="1">  1       21 0.49226812E+00 0.27380367E+03</pdfrwt>
<pdfrwt beam="2">  1       21 0.13309302E-01 0.27380367E+03</pdfrwt>
<totfact> 0.92172653E+01</totfact>
</mgrwt>
</event>
<event>
 4    1  0.1091654E+000  0.1736901E+03  0.7546771E-02  0.1174053E+00
         21   -1    0    0  503  502  0.00000000000E+00  0.00000000000E+00  0.12554927284E+03  0.12554927284E+03  0.00000000000E+00 0. -1.
         21   -1    0    0  501  503 -0.00000000000E+00 -0.00000000000E+00 -0.24179668694E+03  0.24179668694E+03  0.00000000000E+00 0. -1.
          6    1    1    2  501    0 -0.24028045470E+02  0.26287412859E+01 -0.43625783489E+02  0.17908508099E+03  0.17200000000E+03 0. -1.
         -6    1    1    2    0  502  0.24028045470E+02 -0.26287412859E+01 -0.72621630605E+02  0.18826087879E+03  0.17200000000E+03 0. -1.
<mgrwt>
<rscale>  2 0.17369012E+03</rscale>
<asrwt>0</asrwt>
<pdfrwt beam="1">  1       21 0.31387319E-01 0.17369012E+03</pdfrwt>
<pdfrwt beam="2">  1       21 0.60449171E-01 0.17369012E+03</pdfrwt>
<totfact> 0.25148681E+04</totfact>
</mgrwt>
</event>
<event>
 4    1  0.1091654E+000  0.1920328E+03  0.7546771E-02  0.1156641E+00
         21   -1    0    0  501  502  0.00000000000E+00  0.00000000000E+00  0.65867344848E+03  0.65867344848E+03  0.00000000000E+00 0. -1.
         21   -1    0    0  502  503 -0.00000000000E+00 -0.00000000000E+00 -0.62770079019E+02  0.62770079019E+02  0.00000000000E+00 0. -1.
          6    1    1    2  501    0 -0.23915095755E+02  0.81979748905E+02  0.41653829553E+03  0.45867282749E+03  0.17200000000E+03 0. -1.
         -6    1    1    2    0  503  0.23915095755E+02 -0.81979748905E+02  0.17936507392E+03  0.26277070000E+03  0.17200000000E+03 0. -1.
<mgrwt>
<rscale>  2 0.19203284E+03</rscale>
<asrwt>0</asrwt>
<pdfrwt beam="1">  1       21 0.16466834E+00 0.19203284E+03</pdfrwt>
<pdfrwt beam="2">  1       21 0.15692522E-01 0.19203284E+03</pdfrwt>
<totfact> 0.84159337E+03</totfact>
</mgrwt>
</event>
<event>
 4    1  0.1091654E+000  0.1931868E+03  0.7546771E-02  0.1155618E+00
         21   -1    0    0  501  502  0.00000000000E+00  0.00000000000E+00  0.11184257094E+04  0.11184257094E+04  0.00000000000E+00 0. -1.
         21   -1    0    0  502  503 -0.00000000000E+00 -0.00000000000E+00 -0.54286871246E+02  0.54286871246E+02  0.00000000000E+00 0. -1.
          6    1    1    2  501    0  0.54064857578E+02  0.69383880732E+02  0.89604257865E+03  0.91663156965E+03  0.17200000000E+03 0. -1.
         -6    1    1    2    0  503 -0.54064857578E+02 -0.69383880732E+02  0.16809625950E+03  0.25608101098E+03  0.17200000000E+03 0. -1.
<mgrwt>
<rscale>  2 0.19318678E+03</rscale>
<asrwt>0</asrwt>
<pdfrwt beam="1">  1       21 0.27960635E+00 0.19318678E+03</pdfrwt>
<pdfrwt beam="2">  1       21 0.13571721E-01 0.19318678E+03</pdfrwt>
<totfact> 0.21026727E+03</totfact>
</mgrwt>
</event>
<event>
 4    1  0.1091654E+000  0.2241142E+03  0.7546771E-02  0.1130852E+00
         21   -1    0    0  501  502  0.00000000000E+00  0.00000000000E+00  0.90366918841E+02  0.90366918841E+02  0.00000000000E+00 0. -1.
         21   -1    0    0  502  503 -0.00000000000E+00 -0.00000000000E+00 -0.62407333116E+03  0.62407333116E+03  0.00000000000E+00 0.  1.
          6    1    1    2  501    0 -0.98860248028E+02 -0.10425836834E+03 -0.14871221212E+03  0.26896557036E+03  0.17200000000E+03 0. -1.
         -6    1    1    2    0  503  0.98860248028E+02  0.10425836834E+03 -0.38499420021E+03  0.44547467964E+03  0.17200000000E+03 0.  1.
<mgrwt>
<rscale>  2 0.22411416E+03</rscale>
<asrwt>0</asrwt>
<pdfrwt beam="1">  1       21 0.22591730E-01 0.22411416E+03</pdfrwt>
<pdfrwt beam="2">  1       21 0.15601833E+00 0.22411416E+03</pdfrwt>
<totfact> 0.48195085E+03</totfact>
</mgrwt>
</event>
<event>
 4    1  0.1091654E+000  0.2515532E+03  0.7546771E-02  0.1112327E+00
         21   -1    0    0  501  502  0.00000000000E+00  0.00000000000E+00  0.34934155355E+03  0.34934155355E+03  0.00000000000E+00 0. -1.
         21   -1    0    0  502  503 -0.00000000000E+00 -0.00000000000E+00 -0.18122239410E+03  0.18122239410E+03  0.00000000000E+00 0.  1.
          6    1    1    2  501    0  0.17862740993E+03  0.42275871362E+02  0.78331953758E+02  0.26346706788E+03  0.17200000000E+03 0.  1.
         -6    1    1    2    0  503 -0.17862740993E+03 -0.42275871362E+02  0.89787205698E+02  0.26709687977E+03  0.17200000000E+03 0.  1.
<mgrwt>
<rscale>  2 0.25155318E+03</rscale>
<asrwt>0</asrwt>
<pdfrwt beam="1">  1       21 0.87335387E-01 0.25155318E+03</pdfrwt>
<pdfrwt beam="2">  1       21 0.45305599E-01 0.25155318E+03</pdfrwt>
<totfact> 0.50485518E+03</totfact>
</mgrwt>
</event>
<event>
 4    1  0.1091654E+000  0.1770227E+03  0.7546771E-02  0.1170716E+00
         21   -1    0    0  503  502  0.00000000000E+00  0.00000000000E+00  0.42533198306E+03  0.42533198306E+03  0.00000000000E+00 0. -1.
         21   -1    0    0  501  503 -0.00000000000E+00 -0.00000000000E+00 -0.28486701883E+03  0.28486701883E+03  0.00000000000E+00 0.  1.
          6    1    1    2  501    0 -0.19713041935E+02 -0.36938136576E+02 -0.23551722150E+03  0.29462754721E+03  0.17200000000E+03 0.  1.
         -6    1    1    2    0  502  0.19713041935E+02  0.36938136576E+02  0.37598218573E+03  0.41557145468E+03  0.17200000000E+03 0. -1.
<mgrwt>
<rscale>  2 0.17702268E+03</rscale>
<asrwt>0</asrwt>
<pdfrwt beam="1">  1       21 0.10633300E+00 0.17702268E+03</pdfrwt>
<pdfrwt beam="2">  1       21 0.71216755E-01 0.17702268E+03</pdfrwt>
<totfact> 0.12844064E+03</totfact>
</mgrwt>
</event>
<event>
 4    1  0.1091654E+000  0.1853160E+03  0.7546771E-02  0.1162755E+00
         21   -1    0    0  501  502  0.00000000000E+00  0.00000000000E+00  0.40151787095E+02  0.40151787095E+02  0.00000000000E+00 0. -1.
         21   -1    0    0  502  503 -0.00000000000E+00 -0.00000000000E+00 -0.91905274045E+03  0.91905274045E+03  0.00000000000E+00 0. -1.
          6    1    1    2  501    0 -0.94641817824E+01  0.68326115466E+02 -0.56576201393E+03  0.59533913461E+03  0.17200000000E+03 0. -1.
         -6    1    1    2    0  503  0.94641817824E+01 -0.68326115466E+02 -0.31313893942E+03  0.36386539293E+03  0.17200000000E+03 0. -1.
<mgrwt>
<rscale>  2 0.18531602E+03</rscale>
<asrwt>0</asrwt>
<pdfrwt beam="1">  1       21 0.10037947E-01 0.18531602E+03</pdfrwt>
<pdfrwt beam="2">  1       21 0.22976317E+00 0.18531602E+03</pdfrwt>
<totfact> 0.71224842E+03</totfact>
</mgrwt>
</event>
<event>
 4    1  0.1091654E+000  0.1764405E+03  0.7546771E-02  0.1171293E+00
         21   -1    0    0  503  502  0.00000000000E+00  0.00000000000E+00  0.33232067485E+03  0.33232067485E+03  0.00000000000E+00 0.  1.
         21   -1    0    0  501  503 -0.00000000000E+00 -0.00000000000E+00 -0.20340367943E+03  0.20340367943E+03  0.00000000000E+00 0.  1.
          6    1    1    2  501    0 -0.35616290438E+02 -0.16695410871E+02 -0.13227821595E+03  0.22051934904E+03  0.17200000000E+03 0.  1.
         -6    1    1    2    0  502  0.35616290438E+02  0.16695410871E+02  0.26119521136E+03  0.31520500524E+03  0.17200000000E+03 0.  1.
<mgrwt>
<rscale>  2 0.17644052E+03</rscale>
<asrwt>0</asrwt>
<pdfrwt beam="1">  1       21 0.83080168E-01 0.17644052E+03</pdfrwt>
<pdfrwt beam="2">  1       21 0.50850920E-01 0.17644052E+03</pdfrwt>
<totfact> 0.47052483E+03</totfact>
</mgrwt>
</event>
<event>
 4    1  0.1091654E+000  0.1965638E+03  0.7546771E-02  0.1152671E+00
         21   -1    0    0  503  502  0.00000000000E+00  0.00000000000E+00  0.17871858860E+04  0.17871858860E+04  0.00000000000E+00 0.  1.
         21   -1    0    0  501  503 -0.00000000000E+00 -0.00000000000E+00 -0.38158071313E+02  0.38158071313E+02  0.00000000000E+00 0.  1.
          6    1    1    2  501    0  0.84763987598E+02  0.43225068733E+02  0.27365039624E+03  0.33693008106E+03  0.17200000000E+03 0.  1.
         -6    1    1    2    0  502 -0.84763987598E+02 -0.43225068733E+02  0.14753774184E+04  0.14884138762E+04  0.17200000000E+03 0.  1.
<mgrwt>
<rscale>  2 0.19656383E+03</rscale>
<asrwt>0</asrwt>
<pdfrwt beam="1">  1       21 0.44679619E+00 0.19656383E+03</pdfrwt>
<pdfrwt beam="2">  1       21 0.95395238E-02 0.19656383E+03</pdfrwt>
<totfact> 0.38268832E+02</totfact>
</mgrwt>
</event>
<event>
 4    1  0.1091654E+000  0.1938603E+03  0.7546771E-02  0.1155025E+00
         21   -1    0    0  501  502  0.00000000000E+00  0.00000000000E+00  0.87379710877E+03  0.87379710877E+03  0.00000000000E+00 0.  1.
         21   -1    0    0  502  503 -0.00000000000E+00 -0.00000000000E+00 -0.69736347290E+02  0.69736347290E+02  0.00000000000E+00 0. -1.
          6    1    1    2  501    0 -0.87116175149E+02 -0.20213242819E+02  0.69408862594E+03  0.72065305371E+03  0.17200000000E+03 0.  1.
         -6    1    1    2    0  503  0.87116175149E+02  0.20213242819E+02  0.10997213554E+03  0.22288040235E+03  0.17200000000E+03 0. -1.
<mgrwt>
<rscale>  2 0.19386027E+03</rscale>
<asrwt>0</asrwt>
<pdfrwt beam="1">  1       21 0.21844924E+00 0.19386027E+03</pdfrwt>
<pdfrwt beam="2">  1       21 0.17434090E-01 0.19386027E+03</pdfrwt>
<totfact> 0.30586878E+03</totfact>
</mgrwt>
</event>
<event>
 4    1  0.1091654E+000  0.1739439E+03  0.7546771E-02  0.1173796E+00
         21   -1    0    0  503  502  0.00000000000E+00  0.00000000000E+00  0.11445650938E+03  0.11445650938E+03  0.00000000000E+00 0. -1.
         21   -1    0    0  501  503 -0.00000000000E+00 -0.00000000000E+00 -0.26541385090E+03  0.26541385090E+03  0.00000000000E+00 0. -1.
          6    1    1    2  501    0 -0.24994576067E+02 -0.69093557198E+01 -0.63448259196E+02  0.18515439402E+03  0.17200000000E+03 0.  1.
         -6    1    1    2    0  502  0.24994576067E+02  0.69093557198E+01 -0.87509082316E+02  0.19471596626E+03  0.17200000000E+03 0.  1.
<mgrwt>
<rscale>  2 0.17394386E+03</rscale>
<asrwt>0</asrwt>
<pdfrwt beam="1">  1       21 0.28614128E-01 0.17394386E+03</pdfrwt>
<pdfrwt beam="2">  1       21 0.66353462E-01 0.17394386E+03</pdfrwt>
<totfact> 0.24608135E+04</totfact>
</mgrwt>
</event>
<event>
 4    1  0.1091654E+000  0.1906236E+03  0.7546771E-02  0.1157900E+00
         21   -1    0    0  501  502  0.00000000000E+00  0.00000000000E+00  0.15030746543E+03  0.15030746543E+03  0.00000000000E+00 0.  1.
         21   -1    0    0  502  503 -0.00000000000E+00 -0.00000000000E+00 -0.26253686890E+03  0.26253686890E+03  0.00000000000E+00 0.  1.
          6    1    1    2  501    0  0.43382105759E+02 -0.69794983837E+02  0.19643851106E+01  0.19063369502E+03  0.17200000000E+03 0.  1.
         -6    1    1    2    0  503 -0.43382105759E+02  0.69794983837E+02 -0.11419378859E+03  0.22221063931E+03  0.17200000000E+03 0.  1.
<mgrwt>
<rscale>  2 0.19062357E+03</rscale>
<asrwt>0</asrwt>
<pdfrwt beam="1">  1       21 0.37576867E-01 0.19062357E+03</pdfrwt>
<pdfrwt beam="2">  1       21 0.65634217E-01 0.19062357E+03</pdfrwt>
<totfact> 0.14594033E+04</totfact>
</mgrwt>
</event>
<event>
 4    1  0.1091654E+000  0.1744253E+03  0.7546771E-02  0.1173310E+00
         21   -1    0    0  501  502  0.00000000000E+00  0.00000000000E+00  0.11102643470E+03  0.11102643470E+03  0.00000000000E+00 0.  1.
         21   -1    0    0  502  503 -0.00000000000E+00 -0.00000000000E+00 -0.27722311250E+03  0.27722311250E+03  0.00000000000E+00 0.  1.
          6    1    1    2  501    0 -0.16235881454E+01 -0.28940645706E+02 -0.62253234206E+02  0.18520167975E+03  0.17200000000E+03 0. -1.
         -6    1    1    2    0  503  0.16235881454E+01  0.28940645706E+02 -0.10394344360E+03  0.20304786746E+03  0.17200000000E+03 0. -1.
<mgrwt>
<rscale>  2 0.17442533E+03</rscale>
<asrwt>0</asrwt>
<pdfrwt beam="1">  1       21 0.27756609E-01 0.17442533E+03</pdfrwt>
<pdfrwt beam="2">  1       21 0.69305778E-01 0.17442533E+03</pdfrwt>
<totfact> 0.23720414E+04</totfact>
</mgrwt>
</event>
<event>
 4    1  0.1091654E+000  0.1835518E+03  0.7546771E-02  0.1164409E+00
         21   -1    0    0  503  502  0.00000000000E+00  0.00000000000E+00  0.32732439066E+02  0.32732439066E+02  0.00000000000E+00 0.  1.
         21   -1    0    0  501  503 -0.00000000000E+00 -0.00000000000E+00 -0.11082703897E+04  0.11082703897E+04  0.00000000000E+00 0.  1.
          6    1    1    2  501    0  0.58068310289E+01  0.63824333031E+02 -0.69006400189E+03  0.71405853505E+03  0.17200000000E+03 0.  1.
         -6    1    1    2    0  502 -0.58068310289E+01 -0.63824333031E+02 -0.38547394871E+03  0.42694429369E+03  0.17200000000E+03 0.  1.
<mgrwt>
<rscale>  2 0.18355180E+03</rscale>
<asrwt>0</asrwt>
<pdfrwt beam="1">  1       21 0.81831101E-02 0.18355180E+03</pdfrwt>
<pdfrwt beam="2">  1       21 0.27706759E+00 0.18355180E+03</pdfrwt>
<totfact> 0.53924384E+03</totfact>
</mgrwt>
</event>
<event>
 4    1  0.1091654E+000  0.2044967E+03  0.7546771E-02  0.1146000E+00
         21   -1    0    0  503  502  0.00000000000E+00  0.00000000000E+00  0.18269396060E+03  0.18269396060E+03  0.00000000000E+00 0.  1.
         21   -1    0    0  501  503 -0.00000000000E+00 -0.00000000000E+00 -0.23666392060E+03  0.23666392060E+03  0.00000000000E+00 0. -1.
          6    1    1    2  501    0 -0.10226742272E+03  0.42145997254E+02  0.10989254110E+02  0.20479178338E+03  0.17200000000E+03 0. -1.
         -6    1    1    2    0  502  0.10226742272E+03 -0.42145997254E+02 -0.64959214107E+02  0.21456609782E+03  0.17200000000E+03 0. -1.
<mgrwt>
<rscale>  2 0.20449673E+03</rscale>
<asrwt>0</asrwt>
<pdfrwt beam="1">  1       21 0.45673490E-01 0.20449673E+03</pdfrwt>
<pdfrwt beam="2">  1       21 0.59165980E-01 0.20449673E+03</pdfrwt>
<totfact> 0.12176527E+04</totfact>
</mgrwt>
</event>
<event>
 4    1  0.1091654E+000  0.1860195E+03  0.7546771E-02  0.1162101E+00
         21   -1    0    0  503  502  0.00000000000E+00  0.00000000000E+00  0.34717648142E+03  0.34717648142E+03  0.00000000000E+00 0. -1.
         21   -1    0    0  501  503 -0.00000000000E+00 -0.00000000000E+00 -0.10357644677E+03  0.10357644677E+03  0.00000000000E+00 0.  1.
          6    1    1    2  501    0 -0.24364359396E+01  0.70804879363E+02  0.78033798439E+02  0.20172392238E+03  0.17200000000E+03 0. -1.
         -6    1    1    2    0  502  0.24364359396E+01 -0.70804879363E+02  0.16556623621E+03  0.24902900581E+03  0.17200000000E+03 0.  1.
<mgrwt>
<rscale>  2 0.18601953E+03</rscale>
<asrwt>0</asrwt>
<pdfrwt beam="1">  1       21 0.86794118E-01 0.18601953E+03</pdfrwt>
<pdfrwt beam="2">  1       21 0.25894112E-01 0.18601953E+03</pdfrwt>
<totfact> 0.16244438E+04</totfact>
</mgrwt>
</event>
<event>
 4    1  0.1091654E+000  0.2083916E+03  0.7546771E-02  0.1142846E+00
         21   -1    0    0  503  502  0.00000000000E+00  0.00000000000E+00  0.15777689009E+03  0.15777689009E+03  0.00000000000E+00 0. -1.
         21   -1    0    0  501  503 -0.00000000000E+00 -0.00000000000E+00 -0.37224515520E+03  0.37224515520E+03  0.00000000000E+00 0.  1.
          6    1    1    2  501    0  0.73133705875E+02  0.92165682369E+02 -0.24251586201E+03  0.31975145858E+03  0.17200000000E+03 0.  1.
         -6    1    1    2    0  502 -0.73133705875E+02 -0.92165682369E+02  0.28047596906E+02  0.21027058671E+03  0.17200000000E+03 0. -1.
<mgrwt>
<rscale>  2 0.20839158E+03</rscale>
<asrwt>0</asrwt>
<pdfrwt beam="1">  1       21 0.39444223E-01 0.20839158E+03</pdfrwt>
<pdfrwt beam="2">  1       21 0.93061288E-01 0.20839158E+03</pdfrwt>
<totfact> 0.59516163E+03</totfact>
</mgrwt>
</event>
<event>
 4    1  0.1091654E+000  0.1988780E+03  0.7546771E-02  0.1150689E+00
         21   -1    0    0  503  502  0.00000000000E+00  0.00000000000E+00  0.33272180304E+03  0.33272180304E+03  0.00000000000E+00 0.  1.
         21   -1    0    0  501  503 -0.00000000000E+00 -0.00000000000E+00 -0.12884087448E+03  0.12884087448E+03  0.00000000000E+00 0. -1.
          6    1    1    2  501    0 -0.71050039955E+02 -0.70145325473E+02  0.37757407739E+02  0.20243047375E+03  0.17200000000E+03 0. -1.
         -6    1    1    2    0  502  0.71050039955E+02  0.70145325473E+02  0.16612352082E+03  0.25913220377E+03  0.17200000000E+03 0.  1.
<mgrwt>
<rscale>  2 0.19887804E+03</rscale>
<asrwt>0</asrwt>
<pdfrwt beam="1">  1       21 0.83180449E-01 0.19887804E+03</pdfrwt>
<pdfrwt beam="2">  1       21 0.32210219E-01 0.19887804E+03</pdfrwt>
<totfact> 0.11623913E+04</totfact>
</mgrwt>
</event>
<event>
 4    1  0.1091654E+000  0.1724737E+03  0.7546771E-02  0.1175292E+00
         21   -1    0    0  501  502  0.00000000000E+00  0.00000000000E+00  0.45544155629E+02  0.45544155629E+02  0.00000000000E+00 0. -1.
         21   -1    0    0  502  503 -0.00000000000E+00 -0.00000000000E+00 -0.68144348625E+03  0.68144348625E+03  0.00000000000E+00 0. -1.
          6    1    1    2  501    0  0.60077072307E+01  0.11273541789E+02 -0.24388314107E+03  0.29870750206E+03  0.17200000000E+03 0.  1.
         -6    1    1    2    0  503 -0.60077072307E+01 -0.11273541789E+02 -0.39201618956E+03  0.42828013982E+03  0.17200000000E+03 0.  1.
<mgrwt>
<rscale>  2 0.17247372E+03</rscale>
<asrwt>0</asrwt>
<pdfrwt beam="1">  1       21 0.11386039E-01 0.17247372E+03</pdfrwt>
<pdfrwt beam="2">  1       21 0.17036087E+00 0.17247372E+03</pdfrwt>
<totfact> 0.13887399E+04</totfact>
</mgrwt>
</event>
<event>
 4    1  0.1091654E+000  0.1776828E+03  0.7546771E-02  0.1170065E+00
         21   -1    0    0  503  502  0.00000000000E+00  0.00000000000E+00  0.40867254162E+02  0.40867254162E+02  0.00000000000E+00 0. -1.
         21   -1    0    0  501  503 -0.00000000000E+00 -0.00000000000E+00 -0.96871817860E+03  0.96871817860E+03  0.00000000000E+00 0. -1.
          6    1    1    2  501    0 -0.38521729011E+02  0.22433075015E+02 -0.69109554460E+03  0.71357145279E+03  0.17200000000E+03 0. -1.
         -6    1    1    2    0  502  0.38521729011E+02 -0.22433075015E+02 -0.23675537983E+03  0.29601397998E+03  0.17200000000E+03 0. -1.
<mgrwt>
<rscale>  2 0.17768277E+03</rscale>
<asrwt>0</asrwt>
<pdfrwt beam="1">  1       21 0.10216814E-01 0.17768277E+03</pdfrwt>
<pdfrwt beam="2">  1       21 0.24217955E+00 0.17768277E+03</pdfrwt>
<totfact> 0.58675455E+03</totfact>
</mgrwt>
</event>
<event>
 4    1  0.1091654E+000  0.1828974E+03  0.7546771E-02  0.1165028E+00
         21   -1    0    0  503  502  0.00000000000E+00  0.00000000000E+00  0.10798936014E+03  0.10798936014E+03  0.00000000000E+00 0.  1.
         21   -1    0    0  501  503 -0.00000000000E+00 -0.00000000000E+00 -0.45027946922E+03  0.45027946922E+03  0.00000000000E+00 0.  1.
          6    1    1    2  501    0 -0.61716599673E+02 -0.76492498754E+01 -0.32707554265E+03  0.37473972341E+03  0.17200000000E+03 0.  1.
         -6    1    1    2    0  502  0.61716599673E+02  0.76492498754E+01 -0.15214566428E+02  0.18352910595E+03  0.17200000000E+03 0.  1.
<mgrwt>
<rscale>  2 0.18289737E+03</rscale>
<asrwt>0</asrwt>
<pdfrwt beam="1">  1       21 0.26997340E-01 0.18289737E+03</pdfrwt>
<pdfrwt beam="2">  1       21 0.11256987E+00 0.18289737E+03</pdfrwt>
<totfact> 0.81312838E+03</totfact>
</mgrwt>
</event>
<event>
 4    1  0.1091654E+000  0.1785577E+03  0.7546771E-02  0.1169206E+00
         21   -1    0    0  501  502  0.00000000000E+00  0.00000000000E+00  0.11213576710E+03  0.11213576710E+03  0.00000000000E+00 0.  1.
         21   -1    0    0  502  503 -0.00000000000E+00 -0.00000000000E+00 -0.53422023727E+03  0.53422023727E+03  0.00000000000E+00 0.  1.
          6    1    1    2  501    0 -0.15959608656E+02 -0.45212048606E+02  0.99931887720E+01  0.17883708304E+03  0.17200000000E+03 0.  1.
         -6    1    1    2    0  503  0.15959608656E+02  0.45212048606E+02 -0.43207765894E+03  0.46751892133E+03  0.17200000000E+03 0.  1.
<mgrwt>
<rscale>  2 0.17855766E+03</rscale>
<asrwt>0</asrwt>
<pdfrwt beam="1">  1       21 0.28033942E-01 0.17855766E+03</pdfrwt>
<pdfrwt beam="2">  1       21 0.13355506E+00 0.17855766E+03</pdfrwt>
<totfact> 0.49658464E+03</totfact>
</mgrwt>
</event>
<event>
 4    1  0.1091654E+000  0.2074197E+03  0.7546771E-02  0.1143626E+00
         21   -1    0    0  501  502  0.00000000000E+00  0.00000000000E+00  0.39862609386E+03  0.39862609386E+03  0.00000000000E+00 0. -1.
         21   -1    0    0  502  503 -0.00000000000E+00 -0.00000000000E+00 -0.27483967798E+03  0.27483967798E+03  0.00000000000E+00 0. -1.
          6    1    1    2  501    0 -0.64150689804E+02 -0.96558999172E+02  0.32430845591E+03  0.38496613604E+03  0.17200000000E+03 0. -1.
         -6    1    1    2    0  503  0.64150689804E+02  0.96558999172E+02 -0.20052204002E+03  0.28849963580E+03  0.17200000000E+03 0. -1.
<mgrwt>
<rscale>  2 0.20741975E+03</rscale>
<asrwt>0</asrwt>
<pdfrwt beam="1">  1       21 0.99656523E-01 0.20741975E+03</pdfrwt>
<pdfrwt beam="2">  1       21 0.68709920E-01 0.20741975E+03</pdfrwt>
<totfact> 0.15759641E+03</totfact>
</mgrwt>
</event>
<event>
 4    1  0.1091654E+000  0.2300020E+03  0.7546771E-02  0.1126638E+00
         21   -1    0    0  503  502  0.00000000000E+00  0.00000000000E+00  0.18690483896E+03  0.18690483896E+03  0.00000000000E+00 0.  1.
         21   -1    0    0  501  503 -0.00000000000E+00 -0.00000000000E+00 -0.30929801863E+03  0.30929801863E+03  0.00000000000E+00 0.  1.
          6    1    1    2  501    0  0.10663051185E+03 -0.10930157236E+03 -0.13349025553E+03  0.26593335274E+03  0.17200000000E+03 0.  1.
         -6    1    1    2    0  502 -0.10663051185E+03  0.10930157236E+03  0.11097075855E+02  0.23026950486E+03  0.17200000000E+03 0.  1.
<mgrwt>
<rscale>  2 0.23000196E+03</rscale>
<asrwt>0</asrwt>
<pdfrwt beam="1">  1       21 0.46726210E-01 0.23000196E+03</pdfrwt>
<pdfrwt beam="2">  1       21 0.77324504E-01 0.23000196E+03</pdfrwt>
<totfact> 0.63412416E+03</totfact>
</mgrwt>
</event>
<event>
 4    1  0.1091654E+000  0.2175211E+03  0.7546771E-02  0.1135745E+00
         21   -1    0    0  503  502  0.00000000000E+00  0.00000000000E+00  0.62709155555E+03  0.62709155555E+03  0.00000000000E+00 0.  1.
         21   -1    0    0  501  503 -0.00000000000E+00 -0.00000000000E+00 -0.36711794374E+03  0.36711794374E+03  0.00000000000E+00 0. -1.
          6    1    1    2  501    0  0.66108489860E+02  0.11559011916E+03 -0.31309901604E+03  0.38124323197E+03  0.17200000000E+03 0. -1.
         -6    1    1    2    0  502 -0.66108489860E+02 -0.11559011916E+03  0.57307262785E+03  0.61296626732E+03  0.17200000000E+03 0.  1.
<mgrwt>
<rscale>  2 0.21752105E+03</rscale>
<asrwt>0</asrwt>
<pdfrwt beam="1">  1       21 0.15677289E+00 0.21752105E+03</pdfrwt>
<pdfrwt beam="2">  1       21 0.91779487E-01 0.21752105E+03</pdfrwt>
<totfact> 0.25914742E+02</totfact>
</mgrwt>
</event>
<event>
 4    1  0.1091654E+000  0.2318659E+03  0.7546771E-02  0.1125333E+00
         21   -1    0    0  501  502  0.00000000000E+00  0.00000000000E+00  0.36969490363E+03  0.36969490363E+03  0.00000000000E+00 0. -1.
         21   -1    0    0  502  503 -0.00000000000E+00 -0.00000000000E+00 -0.35442612571E+03  0.35442612571E+03  0.00000000000E+00 0.  1.
          6    1    1    2  501    0 -0.10900946491E+03  0.11088163206E+03  0.28566694544E+03  0.36792309453E+03  0.17200000000E+03 0. -1.
         -6    1    1    2    0  503  0.10900946491E+03 -0.11088163206E+03 -0.27039816752E+03  0.35619793481E+03  0.17200000000E+03 0.  1.
<mgrwt>
<rscale>  2 0.23186591E+03</rscale>
<asrwt>0</asrwt>
<pdfrwt beam="1">  1       21 0.92423726E-01 0.23186591E+03</pdfrwt>
<pdfrwt beam="2">  1       21 0.88606531E-01 0.23186591E+03</pdfrwt>
<totfact> 0.10371161E+03</totfact>
</mgrwt>
</event>
<event>
 4    1  0.1091654E+000  0.1838522E+03  0.7546771E-02  0.1164126E+00
         21   -1    0    0  503  502  0.00000000000E+00  0.00000000000E+00  0.34673134116E+02  0.34673134116E+02  0.00000000000E+00 0.  1.
         21   -1    0    0  501  503 -0.00000000000E+00 -0.00000000000E+00 -0.11763379027E+04  0.11763379027E+04  0.00000000000E+00 0.  1.
          6    1    1    2  501    0 -0.59562775552E+02  0.25882632607E+02 -0.32024449921E+03  0.36926707703E+03  0.17200000000E+03 0.  1.
         -6    1    1    2    0  502  0.59562775552E+02 -0.25882632607E+02 -0.82142026936E+03  0.84174395977E+03  0.17200000000E+03 0.  1.
<mgrwt>
<rscale>  2 0.18385221E+03</rscale>
<asrwt>0</asrwt>
<pdfrwt beam="1">  1       21 0.86682842E-02 0.18385221E+03</pdfrwt>
<pdfrwt beam="2">  1       21 0.29408445E+00 0.18385221E+03</pdfrwt>
<totfact> 0.38925826E+03</totfact>
</mgrwt>
</event>
<event>
 4    1  0.1091654E+000  0.2074667E+03  0.7546771E-02  0.1143588E+00
         21   -1    0    0  503  502  0.00000000000E+00  0.00000000000E+00  0.12210374447E+04  0.12210374447E+04  0.00000000000E+00 0.  1.
         21   -1    0    0  501  503 -0.00000000000E+00 -0.00000000000E+00 -0.35934150596E+02  0.35934150596E+02  0.00000000000E+00 0.  1.
          6    1    1    2  501    0  0.27599855219E+02  0.11267955315E+03  0.50587681997E+03  0.54676666933E+03  0.17200000000E+03 0. -1.
         -6    1    1    2    0  502 -0.27599855219E+02 -0.11267955315E+03  0.67922647417E+03  0.71020492600E+03  0.17200000000E+03 0. -1.
<mgrwt>
<rscale>  2 0.20746671E+03</rscale>
<asrwt>0</asrwt>
<pdfrwt beam="1">  1       21 0.30525922E+00 0.20746671E+03</pdfrwt>
<pdfrwt beam="2">  1       21 0.89835417E-02 0.20746671E+03</pdfrwt>
<totfact> 0.30654028E+03</totfact>
</mgrwt>
</event>
<event>
 4    1  0.1091654E+000  0.1819107E+03  0.7546771E-02  0.1165967E+00
         21   -1    0    0  503  502  0.00000000000E+00  0.00000000000E+00  0.57030073828E+03  0.57030073828E+03  0.00000000000E+00 0.  1.
         21   -1    0    0  501  503 -0.00000000000E+00 -0.00000000000E+00 -0.65971376142E+02  0.65971376142E+02  0.00000000000E+00 0.  1.
          6    1    1    2  501    0  0.19897513603E+02 -0.55781597836E+02  0.14174934690E+03  0.23061737804E+03  0.17200000000E+03 0.  1.
         -6    1    1    2    0  502 -0.19897513603E+02  0.55781597836E+02  0.36258001524E+03  0.40565473639E+03  0.17200000000E+03 0.  1.
<mgrwt>
<rscale>  2 0.18191069E+03</rscale>
<asrwt>0</asrwt>
<pdfrwt beam="1">  1       21 0.14257517E+00 0.18191069E+03</pdfrwt>
<pdfrwt beam="2">  1       21 0.16492846E-01 0.18191069E+03</pdfrwt>
<totfact> 0.11347269E+04</totfact>
</mgrwt>
</event>
<event>
 4    1  0.1091654E+000  0.1958838E+03  0.7546771E-02  0.1153259E+00
         21   -1    0    0  503  502  0.00000000000E+00  0.00000000000E+00  0.15638996177E+03  0.15638996177E+03  0.00000000000E+00 0.  1.
         21   -1    0    0  501  503 -0.00000000000E+00 -0.00000000000E+00 -0.38899447487E+03  0.38899447487E+03  0.00000000000E+00 0. -1.
          6    1    1    2  501    0 -0.47865704487E+02  0.80593721197E+02 -0.28201030116E+03  0.34336610713E+03  0.17200000000E+03 0. -1.
         -6    1    1    2    0  502  0.47865704487E+02 -0.80593721197E+02  0.49405788069E+02  0.20201832951E+03  0.17200000000E+03 0.  1.
<mgrwt>
<rscale>  2 0.19588383E+03</rscale>
<asrwt>0</asrwt>
<pdfrwt beam="1">  1       21 0.39097491E-01 0.19588383E+03</pdfrwt>
<pdfrwt beam="2">  1       21 0.97248618E-01 0.19588383E+03</pdfrwt>
<totfact> 0.55167691E+03</totfact>
</mgrwt>
</event>
<event>
 4    1  0.1091654E+000  0.2270498E+03  0.7546771E-02  0.1128734E+00
         21   -1    0    0  501  502  0.00000000000E+00  0.00000000000E+00  0.26474961967E+03  0.26474961967E+03  0.00000000000E+00 0. -1.
         21   -1    0    0  502  503 -0.00000000000E+00 -0.00000000000E+00 -0.20073497951E+03  0.20073497951E+03  0.00000000000E+00 0. -1.
          6    1    1    2  501    0  0.13179294658E+03  0.67810132384E+02 -0.82868647092E+01  0.22720093959E+03  0.17200000000E+03 0. -1.
         -6    1    1    2    0  503 -0.13179294658E+03 -0.67810132384E+02  0.72301504873E+02  0.23828365960E+03  0.17200000000E+03 0. -1.
<mgrwt>
<rscale>  2 0.22704976E+03</rscale>
<asrwt>0</asrwt>
<pdfrwt beam="1">  1       21 0.66187405E-01 0.22704976E+03</pdfrwt>
<pdfrwt beam="2">  1       21 0.50183745E-01 0.22704976E+03</pdfrwt>
<totfact> 0.77373187E+03</totfact>
</mgrwt>
</event>
<event>
 4    1  0.1091654E+000  0.3240824E+03  0.7546771E-02  0.1073786E+00
         21   -1    0    0  503  502  0.00000000000E+00  0.00000000000E+00  0.89955348794E+02  0.89955348794E+02  0.00000000000E+00 0.  1.
         21   -1    0    0  501  503 -0.00000000000E+00 -0.00000000000E+00 -0.11917999570E+04  0.11917999570E+04  0.00000000000E+00 0. -1.
          6    1    1    2  501    0 -0.15739328033E+03  0.22510612938E+03 -0.64229682223E+03  0.71942659252E+03  0.17200000000E+03 0. -1.
         -6    1    1    2    0  502  0.15739328033E+03 -0.22510612938E+03 -0.45954778597E+03  0.56232871327E+03  0.17200000000E+03 0.  1.
<mgrwt>
<rscale>  2 0.32408242E+03</rscale>
<asrwt>0</asrwt>
<pdfrwt beam="1">  1       21 0.22488837E-01 0.32408242E+03</pdfrwt>
<pdfrwt beam="2">  1       21 0.29794999E+00 0.32408242E+03</pdfrwt>
<totfact> 0.56454504E+02</totfact>
</mgrwt>
</event>
<event>
 4    1  0.1091654E+000  0.1797276E+03  0.7546771E-02  0.1168067E+00
         21   -1    0    0  501  502  0.00000000000E+00  0.00000000000E+00  0.19729040099E+03  0.19729040099E+03  0.00000000000E+00 0.  1.
         21   -1    0    0  502  503 -0.00000000000E+00 -0.00000000000E+00 -0.20328743578E+03  0.20328743578E+03  0.00000000000E+00 0.  1.
          6    1    1    2  501    0 -0.24944145973E+02 -0.45779717368E+02  0.85355409691E+02  0.19896617528E+03  0.17200000000E+03 0.  1.
         -6    1    1    2    0  503  0.24944145973E+02  0.45779717368E+02 -0.91352444482E+02  0.20161166150E+03  0.17200000000E+03 0.  1.
<mgrwt>
<rscale>  2 0.17972755E+03</rscale>
<asrwt>0</asrwt>
<pdfrwt beam="1">  1       21 0.49322600E-01 0.17972755E+03</pdfrwt>
<pdfrwt beam="2">  1       21 0.50821859E-01 0.17972755E+03</pdfrwt>
<totfact> 0.14558006E+04</totfact>
</mgrwt>
</event>
<event>
 4    1  0.1091654E+000  0.1771231E+03  0.7546771E-02  0.1170617E+00
         21   -1    0    0  503  502  0.00000000000E+00  0.00000000000E+00  0.14953920505E+03  0.14953920505E+03  0.00000000000E+00 0.  1.
         21   -1    0    0  501  503 -0.00000000000E+00 -0.00000000000E+00 -0.29247772212E+03  0.29247772212E+03  0.00000000000E+00 0.  1.
          6    1    1    2  501    0 -0.39040776475E+02 -0.16261076524E+02 -0.18897779385E+03  0.25900813000E+03  0.17200000000E+03 0. -1.
         -6    1    1    2    0  502  0.39040776475E+02  0.16261076524E+02  0.46039276776E+02  0.18300879718E+03  0.17200000000E+03 0. -1.
<mgrwt>
<rscale>  2 0.17712313E+03</rscale>
<asrwt>0</asrwt>
<pdfrwt beam="1">  1       21 0.37384802E-01 0.17712313E+03</pdfrwt>
<pdfrwt beam="2">  1       21 0.73119430E-01 0.17712313E+03</pdfrwt>
<totfact> 0.11732976E+04</totfact>
</mgrwt>
</event>
<event>
 4    1  0.1091654E+000  0.1915016E+03  0.7546771E-02  0.1157114E+00
         21   -1    0    0  503  502  0.00000000000E+00  0.00000000000E+00  0.24244975076E+03  0.24244975076E+03  0.00000000000E+00 0.  1.
         21   -1    0    0  501  503 -0.00000000000E+00 -0.00000000000E+00 -0.54400171974E+03  0.54400171974E+03  0.00000000000E+00 0.  1.
          6    1    1    2  501    0  0.39503645033E+02  0.74352747685E+02 -0.48489061903E+03  0.52133653380E+03  0.17200000000E+03 0.  1.
         -6    1    1    2    0  502 -0.39503645033E+02 -0.74352747685E+02  0.18333865004E+03  0.26511493670E+03  0.17200000000E+03 0.  1.
<mgrwt>
<rscale>  2 0.19150162E+03</rscale>
<asrwt>0</asrwt>
<pdfrwt beam="1">  1       21 0.60612438E-01 0.19150162E+03</pdfrwt>
<pdfrwt beam="2">  1       21 0.13600043E+00 0.19150162E+03</pdfrwt>
<totfact> 0.97860706E+02</totfact>
</mgrwt>
</event>
<event>
 4    1  0.1091654E+000  0.1933210E+03  0.7546771E-02  0.1155500E+00
         21   -1    0    0  501  502  0.00000000000E+00  0.00000000000E+00  0.73552504717E+02  0.73552504717E+02  0.00000000000E+00 0. -1.
         21   -1    0    0  502  503 -0.00000000000E+00 -0.00000000000E+00 -0.53934297325E+03  0.53934297325E+03  0.00000000000E+00 0. -1.
          6    1    1    2  501    0 -0.84118782712E+02  0.26703026104E+02 -0.15915471671E+03  0.25040616018E+03  0.17200000000E+03 0. -1.
         -6    1    1    2    0  503  0.84118782712E+02 -0.26703026104E+02 -0.30663575183E+03  0.36248931778E+03  0.17200000000E+03 0. -1.
<mgrwt>
<rscale>  2 0.19332103E+03</rscale>
<asrwt>0</asrwt>
<pdfrwt beam="1">  1       21 0.18388127E-01 0.19332103E+03</pdfrwt>
<pdfrwt beam="2">  1       21 0.13483574E+00 0.19332103E+03</pdfrwt>
<totfact> 0.10630499E+04</totfact>
</mgrwt>
</event>
<event>
 4    1  0.1091654E+000  0.1742975E+03  0.7546771E-02  0.1173439E+00
         21   -1    0    0  503  502  0.00000000000E+00  0.00000000000E+00  0.25332419026E+03  0.25332419026E+03  0.00000000000E+00 0.  1.
         21   -1    0    0  501  503 -0.00000000000E+00 -0.00000000000E+00 -0.16954844937E+03  0.16954844937E+03  0.00000000000E+00 0.  1.
          6    1    1    2  501    0  0.28118474664E+02  0.22312481354E+01 -0.72500251440E+02  0.18877476935E+03  0.17200000000E+03 0.  1.
         -6    1    1    2    0  502 -0.28118474664E+02 -0.22312481354E+01  0.15627599234E+03  0.23409787027E+03  0.17200000000E+03 0.  1.
<mgrwt>
<rscale>  2 0.17429752E+03</rscale>
<asrwt>0</asrwt>
<pdfrwt beam="1">  1       21 0.63331047E-01 0.17429752E+03</pdfrwt>
<pdfrwt beam="2">  1       21 0.42387113E-01 0.17429752E+03</pdfrwt>
<totfact> 0.12503349E+04</totfact>
</mgrwt>
</event>
<event>
 4    1  0.1091654E+000  0.2441075E+03  0.7546771E-02  0.1117086E+00
         21   -1    0    0  503  502  0.00000000000E+00  0.00000000000E+00  0.16852941026E+03  0.16852941026E+03  0.00000000000E+00 0. -1.
         21   -1    0    0  501  503 -0.00000000000E+00 -0.00000000000E+00 -0.10081789010E+04  0.10081789010E+04  0.00000000000E+00 0. -1.
          6    1    1    2  501    0 -0.11909253373E+03  0.12578328751E+03 -0.89391167007E+03  0.92664261768E+03  0.17200000000E+03 0. -1.
         -6    1    1    2    0  502  0.11909253373E+03 -0.12578328751E+03  0.54262179315E+02  0.25006569359E+03  0.17200000000E+03 0. -1.
<mgrwt>
<rscale>  2 0.24410749E+03</rscale>
<asrwt>0</asrwt>
<pdfrwt beam="1">  1       21 0.42132353E-01 0.24410749E+03</pdfrwt>
<pdfrwt beam="2">  1       21 0.25204472E+00 0.24410749E+03</pdfrwt>
<totfact> 0.32909440E+02</totfact>
</mgrwt>
</event>
<event>
 4    1  0.1091654E+000  0.1775410E+03  0.7546771E-02  0.1170204E+00
         21   -1    0    0  501  502  0.00000000000E+00  0.00000000000E+00  0.17160012536E+03  0.17160012536E+03  0.00000000000E+00 0. -1.
         21   -1    0    0  502  503 -0.00000000000E+00 -0.00000000000E+00 -0.19815605102E+03  0.19815605102E+03  0.00000000000E+00 0. -1.
          6    1    1    2  501    0 -0.10722649233E+02  0.42682881650E+02  0.36678744424E+02  0.18129019247E+03  0.17200000000E+03 0. -1.
         -6    1    1    2    0  503  0.10722649233E+02 -0.42682881650E+02 -0.63234670081E+02  0.18846598391E+03  0.17200000000E+03 0. -1.
<mgrwt>
<rscale>  2 0.17754099E+03</rscale>
<asrwt>0</asrwt>
<pdfrwt beam="1">  1       21 0.42900032E-01 0.17754099E+03</pdfrwt>
<pdfrwt beam="2">  1       21 0.49539013E-01 0.17754099E+03</pdfrwt>
<totfact> 0.20483410E+04</totfact>
</mgrwt>
</event>
<event>
 4    1  0.1091654E+000  0.1751233E+03  0.7546771E-02  0.1172608E+00
         21   -1    0    0  501  502  0.00000000000E+00  0.00000000000E+00  0.77288314540E+02  0.77288314540E+02  0.00000000000E+00 0. -1.
         21   -1    0    0  502  503 -0.00000000000E+00 -0.00000000000E+00 -0.54653764887E+03  0.54653764887E+03  0.00000000000E+00 0. -1.
          6    1    1    2  501    0  0.10112931406E+02 -0.31335503826E+02 -0.39788681236E+03  0.43472071567E+03  0.17200000000E+03 0. -1.
         -6    1    1    2    0  503 -0.10112931406E+02  0.31335503826E+02 -0.71362521971E+02  0.18910524774E+03  0.17200000000E+03 0. -1.
<mgrwt>
<rscale>  2 0.17512334E+03</rscale>
<asrwt>0</asrwt>
<pdfrwt beam="1">  1       21 0.19322079E-01 0.17512334E+03</pdfrwt>
<pdfrwt beam="2">  1       21 0.13663441E+00 0.17512334E+03</pdfrwt>
<totfact> 0.95046346E+03</totfact>
</mgrwt>
</event>
<event>
 4    1  0.1091654E+000  0.1721418E+03  0.7546771E-02  0.1175633E+00
         21   -1    0    0  501  502  0.00000000000E+00  0.00000000000E+00  0.20608117866E+03  0.20608117866E+03  0.00000000000E+00 0. -1.
         21   -1    0    0  502  503 -0.00000000000E+00 -0.00000000000E+00 -0.17175550190E+03  0.17175550190E+03  0.00000000000E+00 0. -1.
          6    1    1    2  501    0 -0.29609845205E+01  0.63257639664E+01  0.93391125061E+02  0.19584352162E+03  0.17200000000E+03 0. -1.
         -6    1    1    2    0  503  0.29609845205E+01 -0.63257639664E+01 -0.59065448301E+02  0.18199315894E+03  0.17200000000E+03 0. -1.
<mgrwt>
<rscale>  2 0.17214175E+03</rscale>
<asrwt>0</asrwt>
<pdfrwt beam="1">  1       21 0.51520294E-01 0.17214175E+03</pdfrwt>
<pdfrwt beam="2">  1       21 0.42938876E-01 0.17214175E+03</pdfrwt>
<totfact> 0.18906172E+04</totfact>
</mgrwt>
</event>
<event>
 4    1  0.1091654E+000  0.2045540E+03  0.7546771E-02  0.1145953E+00
         21   -1    0    0  501  502  0.00000000000E+00  0.00000000000E+00  0.31185181108E+03  0.31185181108E+03  0.00000000000E+00 0. -1.
         21   -1    0    0  502  503 -0.00000000000E+00 -0.00000000000E+00 -0.16356161563E+03  0.16356161563E+03  0.00000000000E+00 0. -1.
          6    1    1    2  501    0  0.30630980301E+02 -0.10639587357E+03  0.17490424687E+03  0.26913534595E+03  0.17200000000E+03 0. -1.
         -6    1    1    2    0  503 -0.30630980301E+02  0.10639587357E+03 -0.26614051420E+02  0.20627808075E+03  0.17200000000E+03 0. -1.
<mgrwt>
<rscale>  2 0.20455400E+03</rscale>
<asrwt>0</asrwt>
<pdfrwt beam="1">  1       21 0.77962952E-01 0.20455400E+03</pdfrwt>
<pdfrwt beam="2">  1       21 0.40890404E-01 0.20455400E+03</pdfrwt>
<totfact> 0.83268548E+03</totfact>
</mgrwt>
</event>
<event>
 4    1  0.1091654E+000  0.1907523E+03  0.7546771E-02  0.1157785E+00
         21   -1    0    0  501  502  0.00000000000E+00  0.00000000000E+00  0.38112210538E+03  0.38112210538E+03  0.00000000000E+00 0.  1.
         21   -1    0    0  502  503 -0.00000000000E+00 -0.00000000000E+00 -0.11647783745E+03  0.11647783745E+03  0.00000000000E+00 0. -1.
          6    1    1    2  501    0 -0.29003078634E+02 -0.77209222982E+02  0.23797954157E+03  0.30499295875E+03  0.17200000000E+03 0.  1.
         -6    1    1    2    0  503  0.29003078634E+02  0.77209222982E+02  0.26664726370E+02  0.19260698408E+03  0.17200000000E+03 0. -1.
<mgrwt>
<rscale>  2 0.19075231E+03</rscale>
<asrwt>0</asrwt>
<pdfrwt beam="1">  1       21 0.95280524E-01 0.19075231E+03</pdfrwt>
<pdfrwt beam="2">  1       21 0.29119460E-01 0.19075231E+03</pdfrwt>
<totfact> 0.10402500E+04</totfact>
</mgrwt>
</event>
<event>
 4    1  0.1091654E+000  0.6829752E+03  0.7546771E-02  0.9746798E-01
         21   -1    0    0  501  502  0.00000000000E+00  0.00000000000E+00  0.81646986761E+03  0.81646986761E+03  0.00000000000E+00 0.  1.
         21   -1    0    0  502  503 -0.00000000000E+00 -0.00000000000E+00 -0.57145045671E+03  0.57145045671E+03  0.00000000000E+00 0. -1.
          6    1    1    2  501    0 -0.63741484514E+03  0.17485249093E+03  0.11152043822E+03  0.69202014894E+03  0.17200000000E+03 0. -1.
         -6    1    1    2    0  503  0.63741484514E+03 -0.17485249093E+03  0.13349897268E+03  0.69590017538E+03  0.17200000000E+03 0.  1.
<mgrwt>
<rscale>  2 0.68297517E+03</rscale>
<asrwt>0</asrwt>
<pdfrwt beam="1">  1       21 0.20411747E+00 0.68297517E+03</pdfrwt>
<pdfrwt beam="2">  1       21 0.14286262E+00 0.68297517E+03</pdfrwt>
<totfact> 0.29436550E+01</totfact>
</mgrwt>
</event>
<event>
 4    1  0.1091654E+000  0.2065889E+03  0.7546771E-02  0.1144296E+00
         21   -1    0    0  501  502  0.00000000000E+00  0.00000000000E+00  0.91295322368E+03  0.91295322368E+03  0.00000000000E+00 0.  1.
         21   -1    0    0  502  503 -0.00000000000E+00 -0.00000000000E+00 -0.21320510445E+03  0.21320510445E+03  0.00000000000E+00 0.  1.
          6    1    1    2  501    0  0.65344591706E+02 -0.93941866847E+02  0.84740657077E+03  0.87222524969E+03  0.17200000000E+03 0.  1.
         -6    1    1    2    0  503 -0.65344591706E+02  0.93941866847E+02 -0.14765845154E+03  0.25393307844E+03  0.17200000000E+03 0.  1.
<mgrwt>
<rscale>  2 0.20658894E+03</rscale>
<asrwt>0</asrwt>
<pdfrwt beam="1">  1       21 0.22823830E+00 0.20658894E+03</pdfrwt>
<pdfrwt beam="2">  1       21 0.53301278E-01 0.20658894E+03</pdfrwt>
<totfact> 0.29329829E+02</totfact>
</mgrwt>
</event>
<event>
 4    1  0.1091654E+000  0.1744935E+03  0.7546771E-02  0.1173241E+00
         21   -1    0    0  501  502  0.00000000000E+00  0.00000000000E+00  0.48069937050E+03  0.48069937050E+03  0.00000000000E+00 0.  1.
         21   -1    0    0  502  503 -0.00000000000E+00 -0.00000000000E+00 -0.80681464137E+02  0.80681464137E+02  0.00000000000E+00 0.  1.
          6    1    1    2  501    0  0.27236727627E+02 -0.11052304210E+02  0.69880970644E+02  0.18796633427E+03  0.17200000000E+03 0. -1.
         -6    1    1    2    0  503 -0.27236727627E+02  0.11052304210E+02  0.33013693572E+03  0.37341450037E+03  0.17200000000E+03 0. -1.
<mgrwt>
<rscale>  2 0.17449353E+03</rscale>
<asrwt>0</asrwt>
<pdfrwt beam="1">  1       21 0.12017483E+00 0.17449353E+03</pdfrwt>
<pdfrwt beam="2">  1       21 0.20170367E-01 0.17449353E+03</pdfrwt>
<totfact> 0.12111045E+04</totfact>
</mgrwt>
</event>
<event>
 4    1  0.1091654E+000  0.1728167E+03  0.7546771E-02  0.1174942E+00
         21   -1    0    0  501  502  0.00000000000E+00  0.00000000000E+00  0.55195993939E+03  0.55195993939E+03  0.00000000000E+00 0. -1.
         21   -1    0    0  502  503 -0.00000000000E+00 -0.00000000000E+00 -0.77618734994E+02  0.77618734994E+02  0.00000000000E+00 0. -1.
          6    1    1    2  501    0 -0.10249723244E+02  0.13288020902E+02  0.41041804193E+03  0.44531853483E+03  0.17200000000E+03 0. -1.
         -6    1    1    2    0  503  0.10249723244E+02 -0.13288020902E+02  0.63923162462E+02  0.18426013955E+03  0.17200000000E+03 0. -1.
<mgrwt>
<rscale>  2 0.17281675E+03</rscale>
<asrwt>0</asrwt>
<pdfrwt beam="1">  1       21 0.13798997E+00 0.17281675E+03</pdfrwt>
<pdfrwt beam="2">  1       21 0.19404685E-01 0.17281675E+03</pdfrwt>
<totfact> 0.92113124E+03</totfact>
</mgrwt>
</event>
<event>
 4    1  0.1091654E+000  0.1897535E+03  0.7546771E-02  0.1158684E+00
         21   -1    0    0  503  502  0.00000000000E+00  0.00000000000E+00  0.28417432236E+03  0.28417432236E+03  0.00000000000E+00 0.  1.
         21   -1    0    0  501  503 -0.00000000000E+00 -0.00000000000E+00 -0.15577752932E+03  0.15577752932E+03  0.00000000000E+00 0.  1.
          6    1    1    2  501    0 -0.56320482371E+02  0.57012248393E+02 -0.30831860725E+02  0.19224202672E+03  0.17200000000E+03 0.  1.
         -6    1    1    2    0  502  0.56320482371E+02 -0.57012248393E+02  0.15922865376E+03  0.24770982496E+03  0.17200000000E+03 0.  1.
<mgrwt>
<rscale>  2 0.18975351E+03</rscale>
<asrwt>0</asrwt>
<pdfrwt beam="1">  1       21 0.71043580E-01 0.18975351E+03</pdfrwt>
<pdfrwt beam="2">  1       21 0.38944383E-01 0.18975351E+03</pdfrwt>
<totfact> 0.11423234E+04</totfact>
</mgrwt>
</event>
<event>
 4    1  0.1091654E+000  0.2141401E+03  0.7546771E-02  0.1138329E+00
         21   -1    0    0  501  502  0.00000000000E+00  0.00000000000E+00  0.29347167951E+03  0.29347167951E+03  0.00000000000E+00 0. -1.
         21   -1    0    0  502  503 -0.00000000000E+00 -0.00000000000E+00 -0.31433950592E+03  0.31433950592E+03  0.00000000000E+00 0.  1.
          6    1    1    2  501    0  0.10844391339E+03 -0.67170722147E+02  0.20508523922E+03  0.29650622862E+03  0.17200000000E+03 0. -1.
         -6    1    1    2    0  503 -0.10844391339E+03  0.67170722147E+02 -0.22595306562E+03  0.31130495680E+03  0.17200000000E+03 0.  1.
<mgrwt>
<rscale>  2 0.21414011E+03</rscale>
<asrwt>0</asrwt>
<pdfrwt beam="1">  1       21 0.73367920E-01 0.21414011E+03</pdfrwt>
<pdfrwt beam="2">  1       21 0.78584876E-01 0.21414011E+03</pdfrwt>
<totfact> 0.23472254E+03</totfact>
</mgrwt>
</event>
<event>
 4    1  0.1091654E+000  0.1725919E+03  0.7546771E-02  0.1175172E+00
         21   -1    0    0  501  502  0.00000000000E+00  0.00000000000E+00  0.21400365524E+03  0.21400365524E+03  0.00000000000E+00 0. -1.
         21   -1    0    0  502  503 -0.00000000000E+00 -0.00000000000E+00 -0.14130574806E+03  0.14130574806E+03  0.00000000000E+00 0. -1.
          6    1    1    2  501    0 -0.77654488799E+01 -0.11986454083E+02  0.58067995879E+02  0.18209851571E+03  0.17200000000E+03 0. -1.
         -6    1    1    2    0  503  0.77654488799E+01  0.11986454083E+02  0.14629911297E+02  0.17321088760E+03  0.17200000000E+03 0. -1.
<mgrwt>
<rscale>  2 0.17259194E+03</rscale>
<asrwt>0</asrwt>
<pdfrwt beam="1">  1       21 0.53500913E-01 0.17259194E+03</pdfrwt>
<pdfrwt beam="2">  1       21 0.35326437E-01 0.17259194E+03</pdfrwt>
<totfact> 0.25839640E+04</totfact>
</mgrwt>
</event>
<event>
 4    1  0.1091654E+000  0.2594592E+03  0.7546771E-02  0.1107469E+00
         21   -1    0    0  501  502  0.00000000000E+00  0.00000000000E+00  0.65288365279E+02  0.65288365279E+02  0.00000000000E+00 0. -1.
         21   -1    0    0  502  503 -0.00000000000E+00 -0.00000000000E+00 -0.12007578759E+04  0.12007578759E+04  0.00000000000E+00 0.  1.
          6    1    1    2  501    0 -0.67054091222E+02  0.18231520777E+03 -0.80567829027E+03  0.84642577556E+03  0.17200000000E+03 0.  1.
         -6    1    1    2    0  503  0.67054091222E+02 -0.18231520777E+03 -0.32979122032E+03  0.41962046558E+03  0.17200000000E+03 0. -1.
<mgrwt>
<rscale>  2 0.25945922E+03</rscale>
<asrwt>0</asrwt>
<pdfrwt beam="1">  1       21 0.16322091E-01 0.25945922E+03</pdfrwt>
<pdfrwt beam="2">  1       21 0.30018947E+00 0.25945922E+03</pdfrwt>
<totfact> 0.10595552E+03</totfact>
</mgrwt>
</event>
<event>
 4    1  0.1091654E+000  0.1816837E+03  0.7546771E-02  0.1166183E+00
         21   -1    0    0  501  502  0.00000000000E+00  0.00000000000E+00  0.11718070463E+03  0.11718070463E+03  0.00000000000E+00 0.  1.
         21   -1    0    0  502  503 -0.00000000000E+00 -0.00000000000E+00 -0.29998711441E+03  0.29998711441E+03  0.00000000000E+00 0.  1.
          6    1    1    2  501    0 -0.45412482029E+02  0.36914647771E+02 -0.14291244539E+03  0.23115568735E+03  0.17200000000E+03 0.  1.
         -6    1    1    2    0  503  0.45412482029E+02 -0.36914647771E+02 -0.39893964379E+02  0.18601213170E+03  0.17200000000E+03 0.  1.
<mgrwt>
<rscale>  2 0.18168375E+03</rscale>
<asrwt>0</asrwt>
<pdfrwt beam="1">  1       21 0.29295177E-01 0.18168375E+03</pdfrwt>
<pdfrwt beam="2">  1       21 0.74996778E-01 0.18168375E+03</pdfrwt>
<totfact> 0.17867034E+04</totfact>
</mgrwt>
</event>
<event>
 4    1  0.1091654E+000  0.2081627E+03  0.7546771E-02  0.1143029E+00
         21   -1    0    0  501  502  0.00000000000E+00  0.00000000000E+00  0.44908258261E+03  0.44908258261E+03  0.00000000000E+00 0.  1.
         21   -1    0    0  502  503 -0.00000000000E+00 -0.00000000000E+00 -0.97257105163E+02  0.97257105163E+02  0.00000000000E+00 0.  1.
          6    1    1    2  501    0 -0.11416419833E+03 -0.26725079582E+02  0.20018323702E+03  0.28879927708E+03  0.17200000000E+03 0.  1.
         -6    1    1    2    0  503  0.11416419833E+03  0.26725079582E+02  0.15164224043E+03  0.25754041069E+03  0.17200000000E+03 0.  1.
<mgrwt>
<rscale>  2 0.20816266E+03</rscale>
<asrwt>0</asrwt>
<pdfrwt beam="1">  1       21 0.11227064E+00 0.20816266E+03</pdfrwt>
<pdfrwt beam="2">  1       21 0.24314277E-01 0.20816266E+03</pdfrwt>
<totfact> 0.98182257E+03</totfact>
</mgrwt>
</event>
<event>
 4    1  0.1091654E+000  0.1761642E+03  0.7546771E-02  0.1171568E+00
         21   -1    0    0  503  502  0.00000000000E+00  0.00000000000E+00  0.10957165005E+03  0.10957165005E+03  0.00000000000E+00 0.  1.
         21   -1    0    0  501  503 -0.00000000000E+00 -0.00000000000E+00 -0.52624985693E+03  0.52624985693E+03  0.00000000000E+00 0.  1.
          6    1    1    2  501    0 -0.32162064790E+02 -0.20381999146E+02 -0.42437770652E+03  0.45948913164E+03  0.17200000000E+03 0.  1.
         -6    1    1    2    0  502  0.32162064790E+02  0.20381999146E+02  0.76994996438E+01  0.17633237535E+03  0.17200000000E+03 0.  1.
<mgrwt>
<rscale>  2 0.17616420E+03</rscale>
<asrwt>0</asrwt>
<pdfrwt beam="1">  1       21 0.27392913E-01 0.17616420E+03</pdfrwt>
<pdfrwt beam="2">  1       21 0.13156246E+00 0.17616420E+03</pdfrwt>
<totfact> 0.54044175E+03</totfact>
</mgrwt>
</event>
<event>
 4    1  0.1091654E+000  0.2094864E+03  0.7546771E-02  0.1141973E+00
         21   -1    0    0  501  502  0.00000000000E+00  0.00000000000E+00  0.90630937483E+02  0.90630937483E+02  0.00000000000E+00 0. -1.
         21   -1    0    0  502  503 -0.00000000000E+00 -0.00000000000E+00 -0.50900495530E+03  0.50900495530E+03  0.00000000000E+00 0. -1.
          6    1    1    2  501    0  0.72907486488E+02  0.94789439994E+02 -0.27535765960E+03  0.34598609830E+03  0.17200000000E+03 0. -1.
         -6    1    1    2    0  503 -0.72907486488E+02 -0.94789439994E+02 -0.14301635822E+03  0.25364979448E+03  0.17200000000E+03 0. -1.
<mgrwt>
<rscale>  2 0.20948637E+03</rscale>
<asrwt>0</asrwt>
<pdfrwt beam="1">  1       21 0.22657735E-01 0.20948637E+03</pdfrwt>
<pdfrwt beam="2">  1       21 0.12725124E+00 0.20948637E+03</pdfrwt>
<totfact> 0.82252661E+03</totfact>
</mgrwt>
</event>
<event>
 4    1  0.1091654E+000  0.1756955E+03  0.7546771E-02  0.1172035E+00
         21   -1    0    0  501  502  0.00000000000E+00  0.00000000000E+00  0.27858183003E+03  0.27858183003E+03  0.00000000000E+00 0.  1.
         21   -1    0    0  502  503 -0.00000000000E+00 -0.00000000000E+00 -0.12493675845E+03  0.12493675845E+03  0.00000000000E+00 0.  1.
          6    1    1    2  501    0 -0.35662591739E+02 -0.36192491991E+01  0.14467258130E+03  0.22759410185E+03  0.17200000000E+03 0.  1.
         -6    1    1    2    0  503  0.35662591739E+02  0.36192491991E+01  0.89724902755E+01  0.17592448663E+03  0.17200000000E+03 0.  1.
<mgrwt>
<rscale>  2 0.17569553E+03</rscale>
<asrwt>0</asrwt>
<pdfrwt beam="1">  1       21 0.69645456E-01 0.17569553E+03</pdfrwt>
<pdfrwt beam="2">  1       21 0.31234190E-01 0.17569553E+03</pdfrwt>
<totfact> 0.18648821E+04</totfact>
</mgrwt>
</event>
<event>
 4    1  0.1091654E+000  0.1764143E+03  0.7546771E-02  0.1171319E+00
         21   -1    0    0  503  502  0.00000000000E+00  0.00000000000E+00  0.65894506258E+02  0.65894506258E+02  0.00000000000E+00 0. -1.
         21   -1    0    0  501  503 -0.00000000000E+00 -0.00000000000E+00 -0.52114765349E+03  0.52114765349E+03  0.00000000000E+00 0. -1.
          6    1    1    2  501    0  0.39189716535E+02 -0.14728796618E+01 -0.31748915100E+03  0.36320980750E+03  0.17200000000E+03 0. -1.
         -6    1    1    2    0  502 -0.39189716535E+02  0.14728796618E+01 -0.13776399622E+03  0.22383235225E+03  0.17200000000E+03 0. -1.
<mgrwt>
<rscale>  2 0.17641429E+03</rscale>
<asrwt>0</asrwt>
<pdfrwt beam="1">  1       21 0.16473627E-01 0.17641429E+03</pdfrwt>
<pdfrwt beam="2">  1       21 0.13028691E+00 0.17641429E+03</pdfrwt>
<totfact> 0.14370123E+04</totfact>
</mgrwt>
</event>
<event>
 4    1  0.1091654E+000  0.1995178E+03  0.7546771E-02  0.1150146E+00
         21   -1    0    0  503  502  0.00000000000E+00  0.00000000000E+00  0.20592488095E+03  0.20592488095E+03  0.00000000000E+00 0.  1.
         21   -1    0    0  501  503 -0.00000000000E+00 -0.00000000000E+00 -0.36756358502E+03  0.36756358502E+03  0.00000000000E+00 0.  1.
          6    1    1    2  501    0 -0.90178924266E+02 -0.45728885273E+02 -0.27825207192E+03  0.34239098245E+03  0.17200000000E+03 0.  1.
         -6    1    1    2    0  502  0.90178924266E+02  0.45728885273E+02  0.11661336785E+03  0.23109748352E+03  0.17200000000E+03 0.  1.
<mgrwt>
<rscale>  2 0.19951784E+03</rscale>
<asrwt>0</asrwt>
<pdfrwt beam="1">  1       21 0.51481221E-01 0.19951784E+03</pdfrwt>
<pdfrwt beam="2">  1       21 0.91890895E-01 0.19951784E+03</pdfrwt>
<totfact> 0.35685154E+03</totfact>
</mgrwt>
</event>
<event>
 4    1  0.1091654E+000  0.2062986E+03  0.7546771E-02  0.1144531E+00
         21   -1    0    0  503  502  0.00000000000E+00  0.00000000000E+00  0.90089679226E+03  0.90089679226E+03  0.00000000000E+00 0.  1.
         21   -1    0    0  501  503 -0.00000000000E+00 -0.00000000000E+00 -0.71576949122E+02  0.71576949122E+02  0.00000000000E+00 0. -1.
          6    1    1    2  501    0 -0.75759148273E+02  0.85062744543E+02  0.13113783944E+03  0.24445091939E+03  0.17200000000E+03 0. -1.
         -6    1    1    2    0  502  0.75759148273E+02 -0.85062744543E+02  0.69818200369E+03  0.72802282199E+03  0.17200000000E+03 0. -1.
<mgrwt>
<rscale>  2 0.20629862E+03</rscale>
<asrwt>0</asrwt>
<pdfrwt beam="1">  1       21 0.22522416E+00 0.20629862E+03</pdfrwt>
<pdfrwt beam="2">  1       21 0.17894240E-01 0.20629862E+03</pdfrwt>
<totfact> 0.26158091E+03</totfact>
</mgrwt>
</event>
<event>
 4    1  0.1091654E+000  0.2072243E+03  0.7546771E-02  0.1143783E+00
         21   -1    0    0  501  502  0.00000000000E+00  0.00000000000E+00  0.58853394790E+03  0.58853394790E+03  0.00000000000E+00 0.  1.
         21   -1    0    0  502  503 -0.00000000000E+00 -0.00000000000E+00 -0.85349491951E+02  0.85349491951E+02  0.00000000000E+00 0. -1.
          6    1    1    2  501    0  0.16245900259E+02  0.11442894855E+03  0.12323885153E+03  0.24110107438E+03  0.17200000000E+03 0. -1.
         -6    1    1    2    0  503 -0.16245900259E+02 -0.11442894855E+03  0.37994560443E+03  0.43278236547E+03  0.17200000000E+03 0.  1.
<mgrwt>
<rscale>  2 0.20722431E+03</rscale>
<asrwt>0</asrwt>
<pdfrwt beam="1">  1       21 0.14713348E+00 0.20722431E+03</pdfrwt>
<pdfrwt beam="2">  1       21 0.21337375E-01 0.20722431E+03</pdfrwt>
<totfact> 0.63546638E+03</totfact>
</mgrwt>
</event>
<event>
 4    1  0.1091654E+000  0.2092215E+03  0.7546771E-02  0.1142184E+00
         21   -1    0    0  503  502  0.00000000000E+00  0.00000000000E+00  0.24400578840E+03  0.24400578840E+03  0.00000000000E+00 0.  1.
         21   -1    0    0  501  503 -0.00000000000E+00 -0.00000000000E+00 -0.24265905949E+03  0.24265905949E+03  0.00000000000E+00 0.  1.
          6    1    1    2  501    0  0.30388239849E+02  0.11517896600E+03 -0.12357112840E+03  0.24298860694E+03  0.17200000000E+03 0.  1.
         -6    1    1    2    0  502 -0.30388239849E+02 -0.11517896600E+03  0.12491785731E+03  0.24367624095E+03  0.17200000000E+03 0.  1.
<mgrwt>
<rscale>  2 0.20922151E+03</rscale>
<asrwt>0</asrwt>
<pdfrwt beam="1">  1       21 0.61001447E-01 0.20922151E+03</pdfrwt>
<pdfrwt beam="2">  1       21 0.60664765E-01 0.20922151E+03</pdfrwt>
<totfact> 0.62507600E+03</totfact>
</mgrwt>
</event>
<event>
 4    1  0.1091654E+000  0.1768841E+03  0.7546771E-02  0.1170853E+00
         21   -1    0    0  503  502  0.00000000000E+00  0.00000000000E+00  0.42178105166E+03  0.42178105166E+03  0.00000000000E+00 0.  1.
         21   -1    0    0  501  503 -0.00000000000E+00 -0.00000000000E+00 -0.92556891193E+02  0.92556891193E+02  0.00000000000E+00 0.  1.
          6    1    1    2  501    0 -0.62477640499E+01  0.40803854923E+02  0.50023160328E+02  0.18382139620E+03  0.17200000000E+03 0.  1.
         -6    1    1    2    0  502  0.62477640499E+01 -0.40803854923E+02  0.27920100014E+03  0.33051654666E+03  0.17200000000E+03 0.  1.
<mgrwt>
<rscale>  2 0.17688411E+03</rscale>
<asrwt>0</asrwt>
<pdfrwt beam="1">  1       21 0.10544526E+00 0.17688411E+03</pdfrwt>
<pdfrwt beam="2">  1       21 0.23139224E-01 0.17688411E+03</pdfrwt>
<totfact> 0.12828625E+04</totfact>
</mgrwt>
</event>
<event>
 4    1  0.1091654E+000  0.2163367E+03  0.7546771E-02  0.1136644E+00
         21   -1    0    0  501  502  0.00000000000E+00  0.00000000000E+00  0.79950064706E+03  0.79950064706E+03  0.00000000000E+00 0. -1.
         21   -1    0    0  502  503 -0.00000000000E+00 -0.00000000000E+00 -0.96181475569E+02  0.96181475569E+02  0.00000000000E+00 0. -1.
          6    1    1    2  501    0 -0.95317415982E+02  0.90178547712E+02  0.63182858677E+03  0.66783901003E+03  0.17200000000E+03 0. -1.
         -6    1    1    2    0  503  0.95317415982E+02 -0.90178547712E+02  0.71490584725E+02  0.22784311260E+03  0.17200000000E+03 0. -1.
<mgrwt>
<rscale>  2 0.21633673E+03</rscale>
<asrwt>0</asrwt>
<pdfrwt beam="1">  1       21 0.19987514E+00 0.21633673E+03</pdfrwt>
<pdfrwt beam="2">  1       21 0.24045371E-01 0.21633673E+03</pdfrwt>
<totfact> 0.21434569E+03</totfact>
</mgrwt>
</event>
<event>
 4    1  0.1091654E+000  0.1930786E+03  0.7546771E-02  0.1155714E+00
         21   -1    0    0  501  502  0.00000000000E+00  0.00000000000E+00  0.23127093185E+03  0.23127093185E+03  0.00000000000E+00 0. -1.
         21   -1    0    0  502  503 -0.00000000000E+00 -0.00000000000E+00 -0.55569240364E+03  0.55569240364E+03  0.00000000000E+00 0. -1.
          6    1    1    2  501    0  0.49381797741E+01  0.87584014236E+02  0.16932491427E+03  0.25680784988E+03  0.17200000000E+03 0. -1.
         -6    1    1    2    0  503 -0.49381797741E+01 -0.87584014236E+02 -0.49374638606E+03  0.53015548560E+03  0.17200000000E+03 0. -1.
<mgrwt>
<rscale>  2 0.19307860E+03</rscale>
<asrwt>0</asrwt>
<pdfrwt beam="1">  1       21 0.57817733E-01 0.19307860E+03</pdfrwt>
<pdfrwt beam="2">  1       21 0.13892310E+00 0.19307860E+03</pdfrwt>
<totfact> 0.10235623E+03</totfact>
</mgrwt>
</event>
<event>
 4    1  0.1091654E+000  0.2111100E+03  0.7546771E-02  0.1140690E+00
         21   -1    0    0  503  502  0.00000000000E+00  0.00000000000E+00  0.50066480418E+02  0.50066480418E+02  0.00000000000E+00 0. -1.
         21   -1    0    0  501  503 -0.00000000000E+00 -0.00000000000E+00 -0.10474368848E+04  0.10474368848E+04  0.00000000000E+00 0. -1.
          6    1    1    2  501    0 -0.11453775760E+03  0.43180016292E+02 -0.28604863968E+03  0.35551545112E+03  0.17200000000E+03 0.  1.
         -6    1    1    2    0  502  0.11453775760E+03 -0.43180016292E+02 -0.71132176466E+03  0.74198791406E+03  0.17200000000E+03 0.  1.
<mgrwt>
<rscale>  2 0.21110995E+03</rscale>
<asrwt>0</asrwt>
<pdfrwt beam="1">  1       21 0.12516620E-01 0.21110995E+03</pdfrwt>
<pdfrwt beam="2">  1       21 0.26185921E+00 0.21110995E+03</pdfrwt>
<totfact> 0.30227467E+03</totfact>
</mgrwt>
</event>
<event>
 4    1  0.1091654E+000  0.2398243E+03  0.7546771E-02  0.1119910E+00
         21   -1    0    0  503  502  0.00000000000E+00  0.00000000000E+00  0.10679481266E+03  0.10679481266E+03  0.00000000000E+00 0. -1.
         21   -1    0    0  501  503 -0.00000000000E+00 -0.00000000000E+00 -0.94982261749E+03  0.94982261749E+03  0.00000000000E+00 0. -1.
          6    1    1    2  501    0  0.15392223232E+03 -0.65112537091E+02 -0.76914990385E+03  0.80567193738E+03  0.17200000000E+03 0. -1.
         -6    1    1    2    0  502 -0.15392223232E+03  0.65112537091E+02 -0.73877900982E+02  0.25094549277E+03  0.17200000000E+03 0. -1.
<mgrwt>
<rscale>  2 0.23982430E+03</rscale>
<asrwt>0</asrwt>
<pdfrwt beam="1">  1       21 0.26698703E-01 0.23982430E+03</pdfrwt>
<pdfrwt beam="2">  1       21 0.23745565E+00 0.23982430E+03</pdfrwt>
<totfact> 0.10005820E+03</totfact>
</mgrwt>
</event>
<event>
 4    1  0.1091654E+000  0.1760745E+03  0.7546771E-02  0.1171657E+00
         21   -1    0    0  501  502  0.00000000000E+00  0.00000000000E+00  0.10718229562E+03  0.10718229562E+03  0.00000000000E+00 0.  1.
         21   -1    0    0  502  503 -0.00000000000E+00 -0.00000000000E+00 -0.32295818897E+03  0.32295818897E+03  0.00000000000E+00 0.  1.
          6    1    1    2  501    0  0.10301113578E+01 -0.37645317643E+02 -0.38403150951E+02  0.18021385372E+03  0.17200000000E+03 0.  1.
         -6    1    1    2    0  503 -0.10301113578E+01  0.37645317643E+02 -0.17737274240E+03  0.24992663087E+03  0.17200000000E+03 0.  1.
<mgrwt>
<rscale>  2 0.17607450E+03</rscale>
<asrwt>0</asrwt>
<pdfrwt beam="1">  1       21 0.26795574E-01 0.17607450E+03</pdfrwt>
<pdfrwt beam="2">  1       21 0.80739547E-01 0.17607450E+03</pdfrwt>
<totfact> 0.18049962E+04</totfact>
</mgrwt>
</event>
<event>
 4    1  0.1091654E+000  0.1854696E+03  0.7546771E-02  0.1162612E+00
         21   -1    0    0  501  502  0.00000000000E+00  0.00000000000E+00  0.96713596607E+02  0.96713596607E+02  0.00000000000E+00 0. -1.
         21   -1    0    0  502  503 -0.00000000000E+00 -0.00000000000E+00 -0.36121812298E+03  0.36121812298E+03  0.00000000000E+00 0. -1.
          6    1    1    2  501    0  0.12291476108E+00 -0.69389818387E+02 -0.10389789487E+03  0.21258818068E+03  0.17200000000E+03 0. -1.
         -6    1    1    2    0  503 -0.12291476108E+00  0.69389818387E+02 -0.16060663150E+03  0.24534353891E+03  0.17200000000E+03 0. -1.
<mgrwt>
<rscale>  2 0.18546957E+03</rscale>
<asrwt>0</asrwt>
<pdfrwt beam="1">  1       21 0.24178399E-01 0.18546957E+03</pdfrwt>
<pdfrwt beam="2">  1       21 0.90304530E-01 0.18546957E+03</pdfrwt>
<totfact> 0.16903440E+04</totfact>
</mgrwt>
</event>
<event>
 4    1  0.1091654E+000  0.2126033E+03  0.7546771E-02  0.1139521E+00
         21   -1    0    0  501  502  0.00000000000E+00  0.00000000000E+00  0.27688134169E+03  0.27688134169E+03  0.00000000000E+00 0.  1.
         21   -1    0    0  502  503 -0.00000000000E+00 -0.00000000000E+00 -0.18036993675E+03  0.18036993675E+03  0.00000000000E+00 0.  1.
          6    1    1    2  501    0  0.11630200402E+03 -0.45716550044E+02  0.11869692944E+03  0.24349357311E+03  0.17200000000E+03 0.  1.
         -6    1    1    2    0  503 -0.11630200402E+03  0.45716550044E+02 -0.22185524503E+02  0.21375770532E+03  0.17200000000E+03 0.  1.
<mgrwt>
<rscale>  2 0.21260329E+03</rscale>
<asrwt>0</asrwt>
<pdfrwt beam="1">  1       21 0.69220335E-01 0.21260329E+03</pdfrwt>
<pdfrwt beam="2">  1       21 0.45092485E-01 0.21260329E+03</pdfrwt>
<totfact> 0.88385908E+03</totfact>
</mgrwt>
</event>
<event>
 4    1  0.1091654E+000  0.1758166E+03  0.7546771E-02  0.1171914E+00
         21   -1    0    0  503  502  0.00000000000E+00  0.00000000000E+00  0.30551835524E+03  0.30551835524E+03  0.00000000000E+00 0. -1.
         21   -1    0    0  501  503 -0.00000000000E+00 -0.00000000000E+00 -0.10584898103E+03  0.10584898103E+03  0.00000000000E+00 0. -1.
          6    1    1    2  501    0  0.29879456663E+02 -0.20848922236E+02  0.56622861667E+02  0.18470952318E+03  0.17200000000E+03 0. -1.
         -6    1    1    2    0  502 -0.29879456663E+02  0.20848922236E+02  0.14304651254E+03  0.22665781310E+03  0.17200000000E+03 0. -1.
<mgrwt>
<rscale>  2 0.17581655E+03</rscale>
<asrwt>0</asrwt>
<pdfrwt beam="1">  1       21 0.76379587E-01 0.17581655E+03</pdfrwt>
<pdfrwt beam="2">  1       21 0.26462246E-01 0.17581655E+03</pdfrwt>
<totfact> 0.20947421E+04</totfact>
</mgrwt>
</event>
<event>
 4    1  0.1091654E+000  0.3228129E+03  0.7546771E-02  0.1074362E+00
         21   -1    0    0  501  502  0.00000000000E+00  0.00000000000E+00  0.98595458034E+03  0.98595458034E+03  0.00000000000E+00 0. -1.
         21   -1    0    0  502  503 -0.00000000000E+00 -0.00000000000E+00 -0.12081323968E+03  0.12081323968E+03  0.00000000000E+00 0. -1.
          6    1    1    2  501    0  0.17266964627E+03 -0.21168225204E+03  0.62834384649E+03  0.70641642959E+03  0.17200000000E+03 0. -1.
         -6    1    1    2    0  503 -0.17266964627E+03  0.21168225204E+03  0.23679749418E+03  0.40035139043E+03  0.17200000000E+03 0. -1.
<mgrwt>
<rscale>  2 0.32281292E+03</rscale>
<asrwt>0</asrwt>
<pdfrwt beam="1">  1       21 0.24648862E+00 0.32281292E+03</pdfrwt>
<pdfrwt beam="2">  1       21 0.30203313E-01 0.32281292E+03</pdfrwt>
<totfact> 0.64617175E+02</totfact>
</mgrwt>
</event>
<event>
 4    1  0.1091654E+000  0.2068319E+03  0.7546771E-02  0.1144100E+00
         21   -1    0    0  503  502  0.00000000000E+00  0.00000000000E+00  0.14496313653E+03  0.14496313653E+03  0.00000000000E+00 0.  1.
         21   -1    0    0  501  503 -0.00000000000E+00 -0.00000000000E+00 -0.34280600741E+03  0.34280600741E+03  0.00000000000E+00 0. -1.
          6    1    1    2  501    0 -0.11447590259E+03  0.95243302593E+01 -0.18989616869E+03  0.28078461501E+03  0.17200000000E+03 0. -1.
         -6    1    1    2    0  502  0.11447590259E+03 -0.95243302593E+01 -0.79467021874E+01  0.20698452893E+03  0.17200000000E+03 0.  1.
<mgrwt>
<rscale>  2 0.20683192E+03</rscale>
<asrwt>0</asrwt>
<pdfrwt beam="1">  1       21 0.36240785E-01 0.20683192E+03</pdfrwt>
<pdfrwt beam="2">  1       21 0.85701501E-01 0.20683192E+03</pdfrwt>
<totfact> 0.85475699E+03</totfact>
</mgrwt>
</event>
<event>
 4    1  0.1091654E+000  0.2264926E+03  0.7546771E-02  0.1129133E+00
         21   -1    0    0  501  502  0.00000000000E+00  0.00000000000E+00  0.31270626339E+03  0.31270626339E+03  0.00000000000E+00 0. -1.
         21   -1    0    0  502  503 -0.00000000000E+00 -0.00000000000E+00 -0.19879240365E+03  0.19879240365E+03  0.00000000000E+00 0.  1.
          6    1    1    2  501    0 -0.12177156698E+03 -0.82985366522E+02  0.16387622329E+03  0.27956090954E+03  0.17200000000E+03 0. -1.
         -6    1    1    2    0  503  0.12177156698E+03  0.82985366522E+02 -0.49962363554E+02  0.23193775750E+03  0.17200000000E+03 0.  1.
<mgrwt>
<rscale>  2 0.22649257E+03</rscale>
<asrwt>0</asrwt>
<pdfrwt beam="1">  1       21 0.78176565E-01 0.22649257E+03</pdfrwt>
<pdfrwt beam="2">  1       21 0.49698101E-01 0.22649257E+03</pdfrwt>
<totfact> 0.54535031E+03</totfact>
</mgrwt>
</event>
<event>
 4    1  0.1091654E+000  0.2345524E+03  0.7546771E-02  0.1123476E+00
         21   -1    0    0  501  502  0.00000000000E+00  0.00000000000E+00  0.82045596638E+03  0.82045596638E+03  0.00000000000E+00 0.  1.
         21   -1    0    0  502  503 -0.00000000000E+00 -0.00000000000E+00 -0.74472317641E+02  0.74472317641E+02  0.00000000000E+00 0.  1.
          6    1    1    2  501    0  0.13215530779E+03  0.89251310016E+02  0.51421783173E+03  0.56518563338E+03  0.17200000000E+03 0.  1.
         -6    1    1    2    0  503 -0.13215530779E+03 -0.89251310016E+02  0.23176581702E+03  0.32974265064E+03  0.17200000000E+03 0.  1.
<mgrwt>
<rscale>  2 0.23455239E+03</rscale>
<asrwt>0</asrwt>
<pdfrwt beam="1">  1       21 0.20511396E+00 0.23455239E+03</pdfrwt>
<pdfrwt beam="2">  1       21 0.18618082E-01 0.23455239E+03</pdfrwt>
<totfact> 0.31608152E+03</totfact>
</mgrwt>
</event>
<event>
 4    1  0.1091654E+000  0.1749555E+03  0.7546771E-02  0.1172776E+00
         21   -1    0    0  501  502  0.00000000000E+00  0.00000000000E+00  0.43823238971E+02  0.43823238971E+02  0.00000000000E+00 0. -1.
         21   -1    0    0  502  503 -0.00000000000E+00 -0.00000000000E+00 -0.10277712206E+04  0.10277712206E+04  0.00000000000E+00 0. -1.
          6    1    1    2  501    0  0.28032239572E+02 -0.15479405110E+02 -0.18869251299E+03  0.25732136114E+03  0.17200000000E+03 0. -1.
         -6    1    1    2    0  503 -0.28032239572E+02  0.15479405110E+02 -0.79525546868E+03  0.81427309848E+03  0.17200000000E+03 0. -1.
<mgrwt>
<rscale>  2 0.17495548E+03</rscale>
<asrwt>0</asrwt>
<pdfrwt beam="1">  1       21 0.10955810E-01 0.17495548E+03</pdfrwt>
<pdfrwt beam="2">  1       21 0.25694279E+00 0.17495548E+03</pdfrwt>
<totfact> 0.42627460E+03</totfact>
</mgrwt>
</event>
<event>
 4    1  0.1091654E+000  0.2880661E+03  0.7546771E-02  0.1091363E+00
         21   -1    0    0  503  502  0.00000000000E+00  0.00000000000E+00  0.16696856498E+03  0.16696856498E+03  0.00000000000E+00 0. -1.
         21   -1    0    0  501  503 -0.00000000000E+00 -0.00000000000E+00 -0.59894344639E+03  0.59894344639E+03  0.00000000000E+00 0.  1.
          6    1    1    2  501    0 -0.90221586071E+02 -0.21273956054E+03 -0.37398576871E+03  0.47206716727E+03  0.17200000000E+03 0.  1.
         -6    1    1    2    0  502  0.90221586071E+02  0.21273956054E+03 -0.57989112703E+02  0.29384484410E+03  0.17200000000E+03 0. -1.
<mgrwt>
<rscale>  2 0.28806606E+03</rscale>
<asrwt>0</asrwt>
<pdfrwt beam="1">  1       21 0.41742142E-01 0.28806606E+03</pdfrwt>
<pdfrwt beam="2">  1       21 0.14973586E+00 0.28806606E+03</pdfrwt>
<totfact> 0.15347353E+03</totfact>
</mgrwt>
</event>
<event>
 4    1  0.1091654E+000  0.1845617E+03  0.7546771E-02  0.1163460E+00
         21   -1    0    0  503  502  0.00000000000E+00  0.00000000000E+00  0.30235973332E+02  0.30235973332E+02  0.00000000000E+00 0. -1.
         21   -1    0    0  501  503 -0.00000000000E+00 -0.00000000000E+00 -0.11780013891E+04  0.11780013891E+04  0.00000000000E+00 0. -1.
          6    1    1    2  501    0  0.13675344724E+02 -0.65513375742E+02 -0.70010984779E+03  0.72402818759E+03  0.17200000000E+03 0.  1.
         -6    1    1    2    0  502 -0.13675344724E+02  0.65513375742E+02 -0.44765556793E+03  0.48420917480E+03  0.17200000000E+03 0.  1.
<mgrwt>
<rscale>  2 0.18456169E+03</rscale>
<asrwt>0</asrwt>
<pdfrwt beam="1">  1       21 0.75589940E-02 0.18456169E+03</pdfrwt>
<pdfrwt beam="2">  1       21 0.29450032E+00 0.18456169E+03</pdfrwt>
<totfact> 0.49087118E+03</totfact>
</mgrwt>
</event>
<event>
 4    1  0.1091654E+000  0.1821961E+03  0.7546771E-02  0.1165694E+00
         21   -1    0    0  501  502  0.00000000000E+00  0.00000000000E+00  0.54402886551E+02  0.54402886551E+02  0.00000000000E+00 0. -1.
         21   -1    0    0  502  503 -0.00000000000E+00 -0.00000000000E+00 -0.64639217940E+03  0.64639217940E+03  0.00000000000E+00 0. -1.
          6    1    1    2  501    0 -0.29944375647E+02  0.52103419474E+02 -0.21305661911E+03  0.28033650298E+03  0.17200000000E+03 0. -1.
         -6    1    1    2    0  503  0.29944375647E+02 -0.52103419474E+02 -0.37893267374E+03  0.42045856298E+03  0.17200000000E+03 0. -1.
<mgrwt>
<rscale>  2 0.18219614E+03</rscale>
<asrwt>0</asrwt>
<pdfrwt beam="1">  1       21 0.13600722E-01 0.18219614E+03</pdfrwt>
<pdfrwt beam="2">  1       21 0.16159804E+00 0.18219614E+03</pdfrwt>
<totfact> 0.11572454E+04</totfact>
</mgrwt>
</event>
<event>
 4    1  0.1091654E+000  0.1747470E+03  0.7546771E-02  0.1172986E+00
         21   -1    0    0  503  502  0.00000000000E+00  0.00000000000E+00  0.30393427754E+03  0.30393427754E+03  0.00000000000E+00 0. -1.
         21   -1    0    0  501  503 -0.00000000000E+00 -0.00000000000E+00 -0.10081426831E+03  0.10081426831E+03  0.00000000000E+00 0. -1.
          6    1    1    2  501    0 -0.27600986772E+02 -0.13809940725E+02  0.89748123155E+02  0.19644656918E+03  0.17200000000E+03 0.  1.
         -6    1    1    2    0  502  0.27600986772E+02  0.13809940725E+02  0.11337188607E+03  0.20830197667E+03  0.17200000000E+03 0.  1.
<mgrwt>
<rscale>  2 0.17474704E+03</rscale>
<asrwt>0</asrwt>
<pdfrwt beam="1">  1       21 0.75983567E-01 0.17474704E+03</pdfrwt>
<pdfrwt beam="2">  1       21 0.25203568E-01 0.17474704E+03</pdfrwt>
<totfact> 0.23276008E+04</totfact>
</mgrwt>
</event>
<event>
 4    1  0.1091654E+000  0.3871136E+03  0.7546771E-02  0.1048335E+00
         21   -1    0    0  503  502  0.00000000000E+00  0.00000000000E+00  0.98246362350E+03  0.98246362350E+03  0.00000000000E+00 0. -1.
         21   -1    0    0  501  503 -0.00000000000E+00 -0.00000000000E+00 -0.88031466296E+03  0.88031466296E+03  0.00000000000E+00 0.  1.
          6    1    1    2  501    0  0.18361718530E+03  0.29420680186E+03 -0.79578845529E+03  0.88494981697E+03  0.17200000000E+03 0.  1.
         -6    1    1    2    0  502 -0.18361718530E+03 -0.29420680186E+03  0.89793741582E+03  0.97782846948E+03  0.17200000000E+03 0. -1.
<mgrwt>
<rscale>  2 0.38711357E+03</rscale>
<asrwt>0</asrwt>
<pdfrwt beam="1">  1       21 0.24561591E+00 0.38711357E+03</pdfrwt>
<pdfrwt beam="2">  1       21 0.22007867E+00 0.38711357E+03</pdfrwt>
<totfact> 0.54112913E+00</totfact>
</mgrwt>
</event>
<event>
 4    1  0.1091654E+000  0.1813916E+03  0.7546771E-02  0.1166463E+00
         21   -1    0    0  503  502  0.00000000000E+00  0.00000000000E+00  0.60965290026E+03  0.60965290026E+03  0.00000000000E+00 0. -1.
         21   -1    0    0  501  503 -0.00000000000E+00 -0.00000000000E+00 -0.92718814682E+02  0.92718814682E+02  0.00000000000E+00 0. -1.
          6    1    1    2  501    0 -0.98294313357E+01 -0.56765175653E+02  0.31437234018E+02  0.18409563430E+03  0.17200000000E+03 0. -1.
         -6    1    1    2    0  502  0.98294313357E+01  0.56765175653E+02  0.48549685156E+03  0.51827608064E+03  0.17200000000E+03 0. -1.
<mgrwt>
<rscale>  2 0.18139157E+03</rscale>
<asrwt>0</asrwt>
<pdfrwt beam="1">  1       21 0.15241321E+00 0.18139157E+03</pdfrwt>
<pdfrwt beam="2">  1       21 0.23179705E-01 0.18139157E+03</pdfrwt>
<totfact> 0.50606480E+03</totfact>
</mgrwt>
</event>
<event>
 4    1  0.1091654E+000  0.2331966E+03  0.7546771E-02  0.1124410E+00
         21   -1    0    0  501  502  0.00000000000E+00  0.00000000000E+00  0.80195475148E+02  0.80195475148E+02  0.00000000000E+00 0.  1.
         21   -1    0    0  502  503 -0.00000000000E+00 -0.00000000000E+00 -0.70262754634E+03  0.70262754634E+03  0.00000000000E+00 0. -1.
          6    1    1    2  501    0  0.45621239982E+02 -0.15071620052E+03 -0.38434424322E+03  0.44955663485E+03  0.17200000000E+03 0. -1.
         -6    1    1    2    0  503 -0.45621239982E+02  0.15071620052E+03 -0.23808782798E+03  0.33326638665E+03  0.17200000000E+03 0.  1.
<mgrwt>
<rscale>  2 0.23319664E+03</rscale>
<asrwt>0</asrwt>
<pdfrwt beam="1">  1       21 0.20048869E-01 0.23319664E+03</pdfrwt>
<pdfrwt beam="2">  1       21 0.17565688E+00 0.23319664E+03</pdfrwt>
<totfact> 0.43278202E+03</totfact>
</mgrwt>
</event>
<event>
 4    1  0.1091654E+000  0.1866374E+03  0.7546771E-02  0.1161530E+00
         21   -1    0    0  501  502  0.00000000000E+00  0.00000000000E+00  0.21267611566E+03  0.21267611566E+03  0.00000000000E+00 0.  1.
         21   -1    0    0  502  503 -0.00000000000E+00 -0.00000000000E+00 -0.16378789442E+03  0.16378789442E+03  0.00000000000E+00 0.  1.
          6    1    1    2  501    0 -0.65384881369E+02 -0.31214645184E+02  0.24934465588E+02  0.18829568333E+03  0.17200000000E+03 0.  1.
         -6    1    1    2    0  503  0.65384881369E+02  0.31214645184E+02  0.23953755653E+02  0.18816832676E+03  0.17200000000E+03 0.  1.
<mgrwt>
<rscale>  2 0.18663745E+03</rscale>
<asrwt>0</asrwt>
<pdfrwt beam="1">  1       21 0.53169029E-01 0.18663745E+03</pdfrwt>
<pdfrwt beam="2">  1       21 0.40946974E-01 0.18663745E+03</pdfrwt>
<totfact> 0.19315651E+04</totfact>
</mgrwt>
</event>
<event>
 4    1  0.1091654E+000  0.1880138E+03  0.7546771E-02  0.1160265E+00
         21   -1    0    0  501  502  0.00000000000E+00  0.00000000000E+00  0.14235718668E+03  0.14235718668E+03  0.00000000000E+00 0.  1.
         21   -1    0    0  502  503 -0.00000000000E+00 -0.00000000000E+00 -0.25374225610E+03  0.25374225610E+03  0.00000000000E+00 0.  1.
          6    1    1    2  501    0  0.37681500178E+01  0.75835195539E+02 -0.84661831890E+02  0.20619602716E+03  0.17200000000E+03 0.  1.
         -6    1    1    2    0  503 -0.37681500178E+01 -0.75835195539E+02 -0.26723237529E+02  0.18990341561E+03  0.17200000000E+03 0.  1.
<mgrwt>
<rscale>  2 0.18801377E+03</rscale>
<asrwt>0</asrwt>
<pdfrwt beam="1">  1       21 0.35589297E-01 0.18801377E+03</pdfrwt>
<pdfrwt beam="2">  1       21 0.63435563E-01 0.18801377E+03</pdfrwt>
<totfact> 0.17542950E+04</totfact>
</mgrwt>
</event>
<event>
 4    1  0.1091654E+000  0.2329108E+03  0.7546771E-02  0.1124608E+00
         21   -1    0    0  503  502  0.00000000000E+00  0.00000000000E+00  0.62135314665E+02  0.62135314665E+02  0.00000000000E+00 0.  1.
         21   -1    0    0  501  503 -0.00000000000E+00 -0.00000000000E+00 -0.14399583491E+04  0.14399583491E+04  0.00000000000E+00 0.  1.
          6    1    1    2  501    0  0.13334352504E+03  0.82963513734E+02 -0.11601570252E+04  0.11833054396E+04  0.17200000000E+03 0.  1.
         -6    1    1    2    0  502 -0.13334352504E+03 -0.82963513734E+02 -0.21766600921E+03  0.31878822414E+03  0.17200000000E+03 0.  1.
<mgrwt>
<rscale>  2 0.23291080E+03</rscale>
<asrwt>0</asrwt>
<pdfrwt beam="1">  1       21 0.15533828E-01 0.23291080E+03</pdfrwt>
<pdfrwt beam="2">  1       21 0.35998960E+00 0.23291080E+03</pdfrwt>
<totfact> 0.53016221E+02</totfact>
</mgrwt>
</event>
<event>
 4    1  0.1091654E+000  0.2696278E+03  0.7546771E-02  0.1101493E+00
         21   -1    0    0  503  502  0.00000000000E+00  0.00000000000E+00  0.28903106421E+03  0.28903106421E+03  0.00000000000E+00 0.  1.
         21   -1    0    0  501  503 -0.00000000000E+00 -0.00000000000E+00 -0.60000895472E+03  0.60000895472E+03  0.00000000000E+00 0. -1.
          6    1    1    2  501    0  0.20648485435E+03 -0.21889695506E+02 -0.49425705079E+03  0.56301792698E+03  0.17200000000E+03 0. -1.
         -6    1    1    2    0  502 -0.20648485435E+03  0.21889695506E+02  0.18327916028E+03  0.32602209195E+03  0.17200000000E+03 0.  1.
<mgrwt>
<rscale>  2 0.26962781E+03</rscale>
<asrwt>0</asrwt>
<pdfrwt beam="1">  1       21 0.72257767E-01 0.26962781E+03</pdfrwt>
<pdfrwt beam="2">  1       21 0.15000224E+00 0.26962781E+03</pdfrwt>
<totfact> 0.47893584E+02</totfact>
</mgrwt>
</event>
<event>
 4    1  0.1091654E+000  0.1775096E+03  0.7546771E-02  0.1170235E+00
         21   -1    0    0  501  502  0.00000000000E+00  0.00000000000E+00  0.76301345831E+03  0.76301345831E+03  0.00000000000E+00 0. -1.
         21   -1    0    0  502  503 -0.00000000000E+00 -0.00000000000E+00 -0.52401808643E+02  0.52401808643E+02  0.00000000000E+00 0. -1.
          6    1    1    2  501    0 -0.73010741647E+01  0.43270743976E+02  0.54299713045E+03  0.57127536849E+03  0.17200000000E+03 0. -1.
         -6    1    1    2    0  503  0.73010741647E+01 -0.43270743976E+02  0.16761451921E+03  0.24413989846E+03  0.17200000000E+03 0. -1.
<mgrwt>
<rscale>  2 0.17750961E+03</rscale>
<asrwt>0</asrwt>
<pdfrwt beam="1">  1       21 0.19075333E+00 0.17750961E+03</pdfrwt>
<pdfrwt beam="2">  1       21 0.13100455E-01 0.17750961E+03</pdfrwt>
<totfact> 0.78335405E+03</totfact>
</mgrwt>
</event>
<event>
 4    1  0.1091654E+000  0.3521470E+03  0.7546771E-02  0.1061737E+00
         21   -1    0    0  501  502  0.00000000000E+00  0.00000000000E+00  0.88864845304E+03  0.88864845304E+03  0.00000000000E+00 0. -1.
         21   -1    0    0  502  503 -0.00000000000E+00 -0.00000000000E+00 -0.13957259310E+03  0.13957259310E+03  0.00000000000E+00 0.  1.
          6    1    1    2  501    0 -0.27086753034E+03 -0.14510093534E+03  0.36746606012E+03  0.50895855015E+03  0.17200000000E+03 0. -1.
         -6    1    1    2    0  503  0.27086753034E+03  0.14510093534E+03  0.38160979982E+03  0.51926249599E+03  0.17200000000E+03 0.  1.
<mgrwt>
<rscale>  2 0.35214699E+03</rscale>
<asrwt>0</asrwt>
<pdfrwt beam="1">  1       21 0.22216210E+00 0.35214699E+03</pdfrwt>
<pdfrwt beam="2">  1       21 0.34893151E-01 0.35214699E+03</pdfrwt>
<totfact> 0.67097910E+02</totfact>
</mgrwt>
</event>
<event>
 4    1  0.1091654E+000  0.2736963E+03  0.7546771E-02  0.1099183E+00
         21   -1    0    0  503  502  0.00000000000E+00  0.00000000000E+00  0.12208859561E+03  0.12208859561E+03  0.00000000000E+00 0. -1.
         21   -1    0    0  501  503 -0.00000000000E+00 -0.00000000000E+00 -0.61903066823E+03  0.61903066823E+03  0.00000000000E+00 0.  1.
          6    1    1    2  501    0  0.51335385651E+02  0.20661636081E+03 -0.28328141014E+03  0.39390100242E+03  0.17200000000E+03 0. -1.
         -6    1    1    2    0  502 -0.51335385651E+02 -0.20661636081E+03 -0.21366066247E+03  0.34721826142E+03  0.17200000000E+03 0.  1.
<mgrwt>
<rscale>  2 0.27369626E+03</rscale>
<asrwt>0</asrwt>
<pdfrwt beam="1">  1       21 0.30522149E-01 0.27369626E+03</pdfrwt>
<pdfrwt beam="2">  1       21 0.15475766E+00 0.27369626E+03</pdfrwt>
<totfact> 0.26598612E+03</totfact>
</mgrwt>
</event>
<event>
 4    1  0.1091654E+000  0.2231338E+03  0.7546771E-02  0.1131568E+00
         21   -1    0    0  503  502  0.00000000000E+00  0.00000000000E+00  0.51901774982E+02  0.51901774982E+02  0.00000000000E+00 0.  1.
         21   -1    0    0  501  503 -0.00000000000E+00 -0.00000000000E+00 -0.10447554827E+04  0.10447554827E+04  0.00000000000E+00 0.  1.
          6    1    1    2  501    0 -0.28373667781E+01  0.14211493006E+03 -0.65325943719E+03  0.69031630161E+03  0.17200000000E+03 0.  1.
         -6    1    1    2    0  502  0.28373667781E+01 -0.14211493006E+03 -0.33959427048E+03  0.40634095602E+03  0.17200000000E+03 0.  1.
<mgrwt>
<rscale>  2 0.22313383E+03</rscale>
<asrwt>0</asrwt>
<pdfrwt beam="1">  1       21 0.12975444E-01 0.22313383E+03</pdfrwt>
<pdfrwt beam="2">  1       21 0.26118888E+00 0.22313383E+03</pdfrwt>
<totfact> 0.28234306E+03</totfact>
</mgrwt>
</event>
<event>
 4    1  0.1091654E+000  0.1738853E+03  0.7546771E-02  0.1173856E+00
         21   -1    0    0  503  502  0.00000000000E+00  0.00000000000E+00  0.92929159061E+02  0.92929159061E+02  0.00000000000E+00 0. -1.
         21   -1    0    0  501  503 -0.00000000000E+00 -0.00000000000E+00 -0.44974974111E+03  0.44974974111E+03  0.00000000000E+00 0. -1.
          6    1    1    2  501    0  0.22577359658E+02 -0.11932070256E+02 -0.32110470816E+03  0.36516344981E+03  0.17200000000E+03 0. -1.
         -6    1    1    2    0  502 -0.22577359658E+02  0.11932070256E+02 -0.35715873882E+02  0.17751545036E+03  0.17200000000E+03 0. -1.
<mgrwt>
<rscale>  2 0.17388534E+03</rscale>
<asrwt>0</asrwt>
<pdfrwt beam="1">  1       21 0.23232290E-01 0.17388534E+03</pdfrwt>
<pdfrwt beam="2">  1       21 0.11243743E+00 0.17388534E+03</pdfrwt>
<totfact> 0.10931372E+04</totfact>
</mgrwt>
</event>
<event>
 4    1  0.1091654E+000  0.2021391E+03  0.7546771E-02  0.1147947E+00
         21   -1    0    0  501  502  0.00000000000E+00  0.00000000000E+00  0.28239399509E+03  0.28239399509E+03  0.00000000000E+00 0. -1.
         21   -1    0    0  502  503 -0.00000000000E+00 -0.00000000000E+00 -0.14485028635E+03  0.14485028635E+03  0.00000000000E+00 0. -1.
          6    1    1    2  501    0 -0.27241842013E+02 -0.10263577640E+03  0.61715591992E+02  0.21135050236E+03  0.17200000000E+03 0. -1.
         -6    1    1    2    0  503  0.27241842013E+02  0.10263577640E+03  0.75828116752E+02  0.21589377907E+03  0.17200000000E+03 0. -1.
<mgrwt>
<rscale>  2 0.20213911E+03</rscale>
<asrwt>0</asrwt>
<pdfrwt beam="1">  1       21 0.70598498E-01 0.20213911E+03</pdfrwt>
<pdfrwt beam="2">  1       21 0.36212572E-01 0.20213911E+03</pdfrwt>
<totfact> 0.13289619E+04</totfact>
</mgrwt>
</event>
<event>
 4    1  0.1091654E+000  0.1884010E+03  0.7546771E-02  0.1159911E+00
         21   -1    0    0  501  502  0.00000000000E+00  0.00000000000E+00  0.21805435702E+03  0.21805435702E+03  0.00000000000E+00 0.  1.
         21   -1    0    0  502  503 -0.00000000000E+00 -0.00000000000E+00 -0.34960380819E+03  0.34960380819E+03  0.00000000000E+00 0.  1.
          6    1    1    2  501    0 -0.68434627996E+02  0.35037848973E+02  0.14170926942E+03  0.23574661442E+03  0.17200000000E+03 0.  1.
         -6    1    1    2    0  503  0.68434627996E+02 -0.35037848973E+02 -0.27325872060E+03  0.33191155080E+03  0.17200000000E+03 0.  1.
<mgrwt>
<rscale>  2 0.18840103E+03</rscale>
<asrwt>0</asrwt>
<pdfrwt beam="1">  1       21 0.54513590E-01 0.18840103E+03</pdfrwt>
<pdfrwt beam="2">  1       21 0.87400952E-01 0.18840103E+03</pdfrwt>
<totfact> 0.35854084E+03</totfact>
</mgrwt>
</event>
<event>
 4    1  0.1091654E+000  0.1988756E+03  0.7546771E-02  0.1150691E+00
         21   -1    0    0  503  502  0.00000000000E+00  0.00000000000E+00  0.27351242934E+03  0.27351242934E+03  0.00000000000E+00 0.  1.
         21   -1    0    0  501  503 -0.00000000000E+00 -0.00000000000E+00 -0.36334015216E+03  0.36334015216E+03  0.00000000000E+00 0.  1.
          6    1    1    2  501    0  0.58815093384E+02 -0.80673968171E+02 -0.29197852963E+03  0.35327463271E+03  0.17200000000E+03 0.  1.
         -6    1    1    2    0  502 -0.58815093384E+02  0.80673968171E+02  0.20215080680E+03  0.28357794879E+03  0.17200000000E+03 0.  1.
<mgrwt>
<rscale>  2 0.19887560E+03</rscale>
<asrwt>0</asrwt>
<pdfrwt beam="1">  1       21 0.68378108E-01 0.19887560E+03</pdfrwt>
<pdfrwt beam="2">  1       21 0.90835037E-01 0.19887560E+03</pdfrwt>
<totfact> 0.19950104E+03</totfact>
</mgrwt>
</event>
<event>
 4    1  0.1091654E+000  0.1737370E+03  0.7546771E-02  0.1174006E+00
         21   -1    0    0  501  502  0.00000000000E+00  0.00000000000E+00  0.89061749811E+02  0.89061749811E+02  0.00000000000E+00 0. -1.
         21   -1    0    0  502  503 -0.00000000000E+00 -0.00000000000E+00 -0.34713402038E+03  0.34713402038E+03  0.00000000000E+00 0. -1.
          6    1    1    2  501    0  0.15327910884E+02 -0.19120289854E+02 -0.95480672771E+02  0.19824502316E+03  0.17200000000E+03 0.  1.
         -6    1    1    2    0  503 -0.15327910884E+02  0.19120289854E+02 -0.16259159780E+03  0.23795074703E+03  0.17200000000E+03 0.  1.
<mgrwt>
<rscale>  2 0.17373696E+03</rscale>
<asrwt>0</asrwt>
<pdfrwt beam="1">  1       21 0.22265438E-01 0.17373696E+03</pdfrwt>
<pdfrwt beam="2">  1       21 0.86783504E-01 0.17373696E+03</pdfrwt>
<totfact> 0.21810324E+04</totfact>
</mgrwt>
</event>
<event>
 4    1  0.1091654E+000  0.2134941E+03  0.7546771E-02  0.1138829E+00
         21   -1    0    0  503  502  0.00000000000E+00  0.00000000000E+00  0.22434562052E+03  0.22434562052E+03  0.00000000000E+00 0. -1.
         21   -1    0    0  501  503 -0.00000000000E+00 -0.00000000000E+00 -0.48582547620E+03  0.48582547620E+03  0.00000000000E+00 0. -1.
          6    1    1    2  501    0 -0.94822656705E+02  0.83692261386E+02 -0.40158660058E+03  0.45480933215E+03  0.17200000000E+03 0. -1.
         -6    1    1    2    0  502  0.94822656705E+02 -0.83692261386E+02  0.14010674490E+03  0.25536176457E+03  0.17200000000E+03 0. -1.
<mgrwt>
<rscale>  2 0.21349410E+03</rscale>
<asrwt>0</asrwt>
<pdfrwt beam="1">  1       21 0.56086405E-01 0.21349410E+03</pdfrwt>
<pdfrwt beam="2">  1       21 0.12145637E+00 0.21349410E+03</pdfrwt>
<totfact> 0.15040837E+03</totfact>
</mgrwt>
</event>
<event>
 4    1  0.1091654E+000  0.2282803E+03  0.7546771E-02  0.1127856E+00
         21   -1    0    0  503  502  0.00000000000E+00  0.00000000000E+00  0.41059736342E+02  0.41059736342E+02  0.00000000000E+00 0. -1.
         21   -1    0    0  501  503 -0.00000000000E+00 -0.00000000000E+00 -0.13334113668E+04  0.13334113668E+04  0.00000000000E+00 0.  1.
          6    1    1    2  501    0  0.14843833014E+03  0.22225037993E+02 -0.49533380307E+03  0.54540578162E+03  0.17200000000E+03 0. -1.
         -6    1    1    2    0  502 -0.14843833014E+03 -0.22225037993E+02 -0.79701782741E+03  0.82906532154E+03  0.17200000000E+03 0.  1.
<mgrwt>
<rscale>  2 0.22828029E+03</rscale>
<asrwt>0</asrwt>
<pdfrwt beam="1">  1       21 0.10264934E-01 0.22828029E+03</pdfrwt>
<pdfrwt beam="2">  1       21 0.33335284E+00 0.22828029E+03</pdfrwt>
<totfact> 0.16212781E+03</totfact>
</mgrwt>
</event>
<event>
 4    1  0.1091654E+000  0.1848652E+03  0.7546771E-02  0.1163176E+00
         21   -1    0    0  501  502  0.00000000000E+00  0.00000000000E+00  0.71273437952E+02  0.71273437952E+02  0.00000000000E+00 0. -1.
         21   -1    0    0  502  503 -0.00000000000E+00 -0.00000000000E+00 -0.52165617757E+03  0.52165617757E+03  0.00000000000E+00 0. -1.
          6    1    1    2  501    0  0.24064471480E+02 -0.63340668526E+02 -0.14090722846E+03  0.23244351165E+03  0.17200000000E+03 0. -1.
         -6    1    1    2    0  503 -0.24064471480E+02  0.63340668526E+02 -0.30947551116E+03  0.36048610387E+03  0.17200000000E+03 0. -1.
<mgrwt>
<rscale>  2 0.18486519E+03</rscale>
<asrwt>0</asrwt>
<pdfrwt beam="1">  1       21 0.17818360E-01 0.18486519E+03</pdfrwt>
<pdfrwt beam="2">  1       21 0.13041404E+00 0.18486519E+03</pdfrwt>
<totfact> 0.12334344E+04</totfact>
</mgrwt>
</event>
<event>
 4    1  0.1091654E+000  0.2339183E+03  0.7546771E-02  0.1123912E+00
         21   -1    0    0  501  502  0.00000000000E+00  0.00000000000E+00  0.95811979457E+02  0.95811979457E+02  0.00000000000E+00 0. -1.
         21   -1    0    0  502  503 -0.00000000000E+00 -0.00000000000E+00 -0.57304431667E+03  0.57304431667E+03  0.00000000000E+00 0. -1.
          6    1    1    2  501    0 -0.69611592949E+02  0.14243594527E+03 -0.25811978162E+03  0.34834407421E+03  0.17200000000E+03 0. -1.
         -6    1    1    2    0  503  0.69611592949E+02 -0.14243594527E+03 -0.21911255559E+03  0.32051222191E+03  0.17200000000E+03 0. -1.
<mgrwt>
<rscale>  2 0.23391830E+03</rscale>
<asrwt>0</asrwt>
<pdfrwt beam="1">  1       21 0.23952995E-01 0.23391830E+03</pdfrwt>
<pdfrwt beam="2">  1       21 0.14326108E+00 0.23391830E+03</pdfrwt>
<totfact> 0.53658864E+03</totfact>
</mgrwt>
</event>
<event>
 4    1  0.1091654E+000  0.2609693E+03  0.7546771E-02  0.1106562E+00
         21   -1    0    0  501  502  0.00000000000E+00  0.00000000000E+00  0.87514667692E+03  0.87514667692E+03  0.00000000000E+00 0. -1.
         21   -1    0    0  502  503 -0.00000000000E+00 -0.00000000000E+00 -0.10549637402E+03  0.10549637402E+03  0.00000000000E+00 0.  1.
          6    1    1    2  501    0 -0.16915989040E+03  0.99528451006E+02  0.13369016191E+03  0.29322012290E+03  0.17200000000E+03 0.  1.
         -6    1    1    2    0  503  0.16915989040E+03 -0.99528451006E+02  0.63596014098E+03  0.68742292804E+03  0.17200000000E+03 0. -1.
<mgrwt>
<rscale>  2 0.26096931E+03</rscale>
<asrwt>0</asrwt>
<pdfrwt beam="1">  1       21 0.21878665E+00 0.26096931E+03</pdfrwt>
<pdfrwt beam="2">  1       21 0.26374096E-01 0.26096931E+03</pdfrwt>
<totfact> 0.13086633E+03</totfact>
</mgrwt>
</event>
<event>
 4    1  0.1091654E+000  0.1983801E+03  0.7546771E-02  0.1151113E+00
         21   -1    0    0  503  502  0.00000000000E+00  0.00000000000E+00  0.16494720367E+03  0.16494720367E+03  0.00000000000E+00 0. -1.
         21   -1    0    0  501  503 -0.00000000000E+00 -0.00000000000E+00 -0.39462350811E+03  0.39462350811E+03  0.00000000000E+00 0. -1.
          6    1    1    2  501    0  0.31732726525E+02  0.93614608911E+02 -0.29076949562E+03  0.35199653481E+03  0.17200000000E+03 0. -1.
         -6    1    1    2    0  502 -0.31732726525E+02 -0.93614608911E+02  0.61093191183E+02  0.20757417697E+03  0.17200000000E+03 0. -1.
<mgrwt>
<rscale>  2 0.19838009E+03</rscale>
<asrwt>0</asrwt>
<pdfrwt beam="1">  1       21 0.41236801E-01 0.19838009E+03</pdfrwt>
<pdfrwt beam="2">  1       21 0.98655876E-01 0.19838009E+03</pdfrwt>
<totfact> 0.47787209E+03</totfact>
</mgrwt>
</event>
<event>
 4    1  0.1091654E+000  0.1929517E+03  0.7546771E-02  0.1155826E+00
         21   -1    0    0  503  502  0.00000000000E+00  0.00000000000E+00  0.90505509884E+02  0.90505509884E+02  0.00000000000E+00 0.  1.
         21   -1    0    0  501  503 -0.00000000000E+00 -0.00000000000E+00 -0.45617069257E+03  0.45617069257E+03  0.00000000000E+00 0. -1.
          6    1    1    2  501    0 -0.37506164530E+02  0.78991488515E+02 -0.26850208148E+03  0.33064140000E+03  0.17200000000E+03 0. -1.
         -6    1    1    2    0  502  0.37506164530E+02 -0.78991488515E+02 -0.97163101208E+02  0.21603480246E+03  0.17200000000E+03 0. -1.
<mgrwt>
<rscale>  2 0.19295172E+03</rscale>
<asrwt>0</asrwt>
<pdfrwt beam="1">  1       21 0.22626378E-01 0.19295172E+03</pdfrwt>
<pdfrwt beam="2">  1       21 0.11404267E+00 0.19295172E+03</pdfrwt>
<totfact> 0.10951835E+04</totfact>
</mgrwt>
</event>
<event>
 4    1  0.1091654E+000  0.1735914E+03  0.7546771E-02  0.1174153E+00
         21   -1    0    0  503  502  0.00000000000E+00  0.00000000000E+00  0.63990467975E+03  0.63990467975E+03  0.00000000000E+00 0.  1.
         21   -1    0    0  501  503 -0.00000000000E+00 -0.00000000000E+00 -0.33240978525E+03  0.33240978525E+03  0.00000000000E+00 0.  1.
          6    1    1    2  501    0  0.21544606454E+02 -0.92634501472E+01 -0.29665916796E+03  0.34371593433E+03  0.17200000000E+03 0.  1.
         -6    1    1    2    0  502 -0.21544606454E+02  0.92634501472E+01  0.60415406246E+03  0.62859853067E+03  0.17200000000E+03 0.  1.
<mgrwt>
<rscale>  2 0.17359142E+03</rscale>
<asrwt>0</asrwt>
<pdfrwt beam="1">  1       21 0.15997617E+00 0.17359142E+03</pdfrwt>
<pdfrwt beam="2">  1       21 0.83102447E-01 0.17359142E+03</pdfrwt>
<totfact> 0.32550474E+02</totfact>
</mgrwt>
</event>
<event>
 4    1  0.1091654E+000  0.2543057E+03  0.7546771E-02  0.1110614E+00
         21   -1    0    0  503  502  0.00000000000E+00  0.00000000000E+00  0.38673028271E+03  0.38673028271E+03  0.00000000000E+00 0.  1.
         21   -1    0    0  501  503 -0.00000000000E+00 -0.00000000000E+00 -0.23266903269E+03  0.23266903269E+03  0.00000000000E+00 0. -1.
          6    1    1    2  501    0  0.17584508340E+03 -0.64543746596E+02 -0.87218430691E+02  0.26884650497E+03  0.17200000000E+03 0. -1.
         -6    1    1    2    0  502 -0.17584508340E+03  0.64543746596E+02  0.24127968071E+03  0.35055281044E+03  0.17200000000E+03 0.  1.
<mgrwt>
<rscale>  2 0.25430570E+03</rscale>
<asrwt>0</asrwt>
<pdfrwt beam="1">  1       21 0.96682570E-01 0.25430570E+03</pdfrwt>
<pdfrwt beam="2">  1       21 0.58167259E-01 0.25430570E+03</pdfrwt>
<totfact> 0.23449389E+03</totfact>
</mgrwt>
</event>
<event>
 4    1  0.1091654E+000  0.1841115E+03  0.7546771E-02  0.1163882E+00
         21   -1    0    0  503  502  0.00000000000E+00  0.00000000000E+00  0.34572619704E+03  0.34572619704E+03  0.00000000000E+00 0.  1.
         21   -1    0    0  501  503 -0.00000000000E+00 -0.00000000000E+00 -0.13152092990E+03  0.13152092990E+03  0.00000000000E+00 0.  1.
          6    1    1    2  501    0 -0.14952307465E+02  0.63948880279E+02 -0.13283503420E+02  0.18459003833E+03  0.17200000000E+03 0.  1.
         -6    1    1    2    0  502  0.14952307465E+02 -0.63948880279E+02  0.22748877056E+03  0.29265708862E+03  0.17200000000E+03 0.  1.
<mgrwt>
<rscale>  2 0.18411146E+03</rscale>
<asrwt>0</asrwt>
<pdfrwt beam="1">  1       21 0.86431547E-01 0.18411146E+03</pdfrwt>
<pdfrwt beam="2">  1       21 0.32880233E-01 0.18411146E+03</pdfrwt>
<totfact> 0.10329809E+04</totfact>
</mgrwt>
</event>
<event>
 4    1  0.1091654E+000  0.2276729E+03  0.7546771E-02  0.1128288E+00
         21   -1    0    0  503  502  0.00000000000E+00  0.00000000000E+00  0.35985526652E+03  0.35985526652E+03  0.00000000000E+00 0.  1.
         21   -1    0    0  501  503 -0.00000000000E+00 -0.00000000000E+00 -0.19633950005E+03  0.19633950005E+03  0.00000000000E+00 0.  1.
          6    1    1    2  501    0  0.60188096099E+02 -0.13648575028E+03 -0.61766441216E+02  0.23590264984E+03  0.17200000000E+03 0.  1.
         -6    1    1    2    0  502 -0.60188096099E+02  0.13648575028E+03  0.22528220769E+03  0.32029211673E+03  0.17200000000E+03 0.  1.
<mgrwt>
<rscale>  2 0.22767294E+03</rscale>
<asrwt>0</asrwt>
<pdfrwt beam="1">  1       21 0.89963816E-01 0.22767294E+03</pdfrwt>
<pdfrwt beam="2">  1       21 0.49084876E-01 0.22767294E+03</pdfrwt>
<totfact> 0.40530759E+03</totfact>
</mgrwt>
</event>
<event>
 4    1  0.1091654E+000  0.1733818E+03  0.7546771E-02  0.1174366E+00
         21   -1    0    0  501  502  0.00000000000E+00  0.00000000000E+00  0.10446021101E+03  0.10446021101E+03  0.00000000000E+00 0. -1.
         21   -1    0    0  502  503 -0.00000000000E+00 -0.00000000000E+00 -0.33790095484E+03  0.33790095484E+03  0.00000000000E+00 0. -1.
          6    1    1    2  501    0 -0.20591771934E+02  0.72955351346E+01 -0.31533050292E+02  0.17622593216E+03  0.17200000000E+03 0. -1.
         -6    1    1    2    0  503  0.20591771934E+02 -0.72955351346E+01 -0.20190769353E+03  0.26613523369E+03  0.17200000000E+03 0. -1.
<mgrwt>
<rscale>  2 0.17338179E+03</rscale>
<asrwt>0</asrwt>
<pdfrwt beam="1">  1       21 0.26115053E-01 0.17338179E+03</pdfrwt>
<pdfrwt beam="2">  1       21 0.84475238E-01 0.17338179E+03</pdfrwt>
<totfact> 0.17143435E+04</totfact>
</mgrwt>
</event>
<event>
 4    1  0.1091654E+000  0.2024085E+03  0.7546771E-02  0.1147723E+00
         21   -1    0    0  501  502  0.00000000000E+00  0.00000000000E+00  0.26592595650E+03  0.26592595650E+03  0.00000000000E+00 0.  1.
         21   -1    0    0  502  503 -0.00000000000E+00 -0.00000000000E+00 -0.18978542346E+03  0.18978542346E+03  0.00000000000E+00 0.  1.
          6    1    1    2  501    0  0.74635859685E+02 -0.76254119652E+02  0.13692609934E+03  0.24437258233E+03  0.17200000000E+03 0.  1.
         -6    1    1    2    0  503 -0.74635859685E+02  0.76254119652E+02 -0.60785566304E+02  0.21133879763E+03  0.17200000000E+03 0.  1.
<mgrwt>
<rscale>  2 0.20240850E+03</rscale>
<asrwt>0</asrwt>
<pdfrwt beam="1">  1       21 0.66481489E-01 0.20240850E+03</pdfrwt>
<pdfrwt beam="2">  1       21 0.47446356E-01 0.20240850E+03</pdfrwt>
<totfact> 0.87554953E+03</totfact>
</mgrwt>
</event>
<event>
 4    1  0.1091654E+000  0.2058220E+03  0.7546771E-02  0.1144918E+00
         21   -1    0    0  501  502  0.00000000000E+00  0.00000000000E+00  0.13976289861E+03  0.13976289861E+03  0.00000000000E+00 0.  1.
         21   -1    0    0  502  503 -0.00000000000E+00 -0.00000000000E+00 -0.12936836680E+04  0.12936836680E+04  0.00000000000E+00 0. -1.
          6    1    1    2  501    0  0.11274919793E+03  0.81434723795E+01  0.50205120546E+02  0.21185667775E+03  0.17200000000E+03 0.  1.
         -6    1    1    2    0  503 -0.11274919793E+03 -0.81434723795E+01 -0.12041258899E+04  0.12215898888E+04  0.17200000000E+03 0. -1.
<mgrwt>
<rscale>  2 0.20582201E+03</rscale>
<asrwt>0</asrwt>
<pdfrwt beam="1">  1       21 0.34940725E-01 0.20582201E+03</pdfrwt>
<pdfrwt beam="2">  1       21 0.32342092E+00 0.20582201E+03</pdfrwt>
<totfact> 0.19343396E+02</totfact>
</mgrwt>
</event>
<event>
 4    1  0.1091654E+000  0.1856724E+03  0.7546771E-02  0.1162423E+00
         21   -1    0    0  503  502  0.00000000000E+00  0.00000000000E+00  0.57809355038E+02  0.57809355038E+02  0.00000000000E+00 0.  1.
         21   -1    0    0  501  503 -0.00000000000E+00 -0.00000000000E+00 -0.67092717315E+03  0.67092717315E+03  0.00000000000E+00 0.  1.
          6    1    1    2  501    0 -0.39123431248E+02  0.57961993378E+02 -0.42804445629E+03  0.46657935242E+03  0.17200000000E+03 0.  1.
         -6    1    1    2    0  502  0.39123431248E+02 -0.57961993378E+02 -0.18507336183E+03  0.26215717577E+03  0.17200000000E+03 0.  1.
<mgrwt>
<rscale>  2 0.18567239E+03</rscale>
<asrwt>0</asrwt>
<pdfrwt beam="1">  1       21 0.14452339E-01 0.18567239E+03</pdfrwt>
<pdfrwt beam="2">  1       21 0.16773179E+00 0.18567239E+03</pdfrwt>
<totfact> 0.93444970E+03</totfact>
</mgrwt>
</event>
<event>
 4    1  0.1091654E+000  0.3361865E+03  0.7546771E-02  0.1068432E+00
         21   -1    0    0  501  502  0.00000000000E+00  0.00000000000E+00  0.20459497343E+03  0.20459497343E+03  0.00000000000E+00 0. -1.
         21   -1    0    0  502  503 -0.00000000000E+00 -0.00000000000E+00 -0.59390734485E+03  0.59390734485E+03  0.00000000000E+00 0.  1.
          6    1    1    2  501    0  0.56897532614E+02  0.28319607909E+03 -0.89127528251E+02  0.34780032306E+03  0.17200000000E+03 0. -1.
         -6    1    1    2    0  503 -0.56897532614E+02 -0.28319607909E+03 -0.30018484317E+03  0.45070199522E+03  0.17200000000E+03 0. -1.
<mgrwt>
<rscale>  2 0.33618648E+03</rscale>
<asrwt>0</asrwt>
<pdfrwt beam="1">  1       21 0.51148744E-01 0.33618648E+03</pdfrwt>
<pdfrwt beam="2">  1       21 0.14847684E+00 0.33618648E+03</pdfrwt>
<totfact> 0.99691281E+02</totfact>
</mgrwt>
</event>
<event>
 4    1  0.1091654E+000  0.1924288E+03  0.7546771E-02  0.1156289E+00
         21   -1    0    0  501  502  0.00000000000E+00  0.00000000000E+00  0.18511904141E+03  0.18511904141E+03  0.00000000000E+00 0.  1.
         21   -1    0    0  502  503 -0.00000000000E+00 -0.00000000000E+00 -0.35225704939E+03  0.35225704939E+03  0.00000000000E+00 0.  1.
          6    1    1    2  501    0 -0.41497405225E+01 -0.86183554777E+02  0.93062653998E+02  0.21375098369E+03  0.17200000000E+03 0.  1.
         -6    1    1    2    0  503  0.41497405225E+01  0.86183554777E+02 -0.26020066198E+03  0.32362510711E+03  0.17200000000E+03 0.  1.
<mgrwt>
<rscale>  2 0.19242875E+03</rscale>
<asrwt>0</asrwt>
<pdfrwt beam="1">  1       21 0.46279761E-01 0.19242875E+03</pdfrwt>
<pdfrwt beam="2">  1       21 0.88064262E-01 0.19242875E+03</pdfrwt>
<totfact> 0.49423564E+03</totfact>
</mgrwt>
</event>
<event>
 4    1  0.1091654E+000  0.1769434E+03  0.7546771E-02  0.1170794E+00
         21   -1    0    0  503  502  0.00000000000E+00  0.00000000000E+00  0.13851024725E+03  0.13851024725E+03  0.00000000000E+00 0. -1.
         21   -1    0    0  501  503 -0.00000000000E+00 -0.00000000000E+00 -0.49154468729E+03  0.49154468729E+03  0.00000000000E+00 0.  1.
          6    1    1    2  501    0  0.26993888309E+01  0.41444854868E+02 -0.40804461554E+03  0.44475765419E+03  0.17200000000E+03 0.  1.
         -6    1    1    2    0  502 -0.26993888309E+01 -0.41444854868E+02  0.55010175500E+02  0.18529728035E+03  0.17200000000E+03 0. -1.
<mgrwt>
<rscale>  2 0.17694339E+03</rscale>
<asrwt>0</asrwt>
<pdfrwt beam="1">  1       21 0.34627562E-01 0.17694339E+03</pdfrwt>
<pdfrwt beam="2">  1       21 0.12288617E+00 0.17694339E+03</pdfrwt>
<totfact> 0.40557484E+03</totfact>
</mgrwt>
</event>
<event>
 4    1  0.1091654E+000  0.1837932E+03  0.7546771E-02  0.1164182E+00
         21   -1    0    0  501  502  0.00000000000E+00  0.00000000000E+00  0.40817730100E+03  0.40817730100E+03  0.00000000000E+00 0. -1.
         21   -1    0    0  502  503 -0.00000000000E+00 -0.00000000000E+00 -0.10046171003E+03  0.10046171003E+03  0.00000000000E+00 0. -1.
          6    1    1    2  501    0 -0.42920972696E+02 -0.48515419772E+02  0.26061838591E+03  0.31890735163E+03  0.17200000000E+03 0. -1.
         -6    1    1    2    0  503  0.42920972696E+02  0.48515419772E+02  0.47097205058E+02  0.18973165940E+03  0.17200000000E+03 0. -1.
<mgrwt>
<rscale>  2 0.18379324E+03</rscale>
<asrwt>0</asrwt>
<pdfrwt beam="1">  1       21 0.10204432E+00 0.18379324E+03</pdfrwt>
<pdfrwt beam="2">  1       21 0.25115429E-01 0.18379324E+03</pdfrwt>
<totfact> 0.11817418E+04</totfact>
</mgrwt>
</event>
<event>
 4    1  0.1091654E+000  0.1992283E+03  0.7546771E-02  0.1150392E+00
         21   -1    0    0  503  502  0.00000000000E+00  0.00000000000E+00  0.11794790945E+03  0.11794790945E+03  0.00000000000E+00 0.  1.
         21   -1    0    0  501  503 -0.00000000000E+00 -0.00000000000E+00 -0.46669146475E+03  0.46669146475E+03  0.00000000000E+00 0. -1.
          6    1    1    2  501    0 -0.32837994741E+02 -0.95024186620E+02 -0.32875483074E+03  0.38441080718E+03  0.17200000000E+03 0. -1.
         -6    1    1    2    0  502  0.32837994741E+02  0.95024186620E+02 -0.19988724563E+02  0.20022856702E+03  0.17200000000E+03 0.  1.
<mgrwt>
<rscale>  2 0.19922834E+03</rscale>
<asrwt>0</asrwt>
<pdfrwt beam="1">  1       21 0.29486978E-01 0.19922834E+03</pdfrwt>
<pdfrwt beam="2">  1       21 0.11667286E+00 0.19922834E+03</pdfrwt>
<totfact> 0.62050205E+03</totfact>
</mgrwt>
</event>
<event>
 4    1  0.1091654E+000  0.2584503E+03  0.7546771E-02  0.1108078E+00
         21   -1    0    0  503  502  0.00000000000E+00  0.00000000000E+00  0.37456797152E+03  0.37456797152E+03  0.00000000000E+00 0.  1.
         21   -1    0    0  501  503 -0.00000000000E+00 -0.00000000000E+00 -0.18100521225E+03  0.18100521225E+03  0.00000000000E+00 0. -1.
          6    1    1    2  501    0 -0.79828089046E+01 -0.19274038018E+03  0.13055459232E+03  0.28955324375E+03  0.17200000000E+03 0.  1.
         -6    1    1    2    0  502  0.79828089046E+01  0.19274038018E+03  0.63008166958E+02  0.26601994003E+03  0.17200000000E+03 0. -1.
<mgrwt>
<rscale>  2 0.25845034E+03</rscale>
<asrwt>0</asrwt>
<pdfrwt beam="1">  1       21 0.93641992E-01 0.25845034E+03</pdfrwt>
<pdfrwt beam="2">  1       21 0.45251304E-01 0.25845034E+03</pdfrwt>
<totfact> 0.42823535E+03</totfact>
</mgrwt>
</event>
<event>
 4    1  0.1091654E+000  0.2563191E+03  0.7546771E-02  0.1109375E+00
         21   -1    0    0  503  502  0.00000000000E+00  0.00000000000E+00  0.45329035027E+02  0.45329035027E+02  0.00000000000E+00 0. -1.
         21   -1    0    0  501  503 -0.00000000000E+00 -0.00000000000E+00 -0.18483662018E+04  0.18483662018E+04  0.00000000000E+00 0.  1.
          6    1    1    2  501    0  0.81600230547E+02  0.17163006841E+03 -0.13414239319E+04  0.13656930999E+04  0.17200000000E+03 0.  1.
         -6    1    1    2    0  502 -0.81600230547E+02 -0.17163006841E+03 -0.46161323491E+03  0.52800213698E+03  0.17200000000E+03 0.  1.
<mgrwt>
<rscale>  2 0.25631909E+03</rscale>
<asrwt>0</asrwt>
<pdfrwt beam="1">  1       21 0.11332260E-01 0.25631909E+03</pdfrwt>
<pdfrwt beam="2">  1       21 0.46209152E+00 0.25631909E+03</pdfrwt>
<totfact> 0.20371056E+02</totfact>
</mgrwt>
</event>
<event>
 4    1  0.1091654E+000  0.1974146E+03  0.7546771E-02  0.1151939E+00
         21   -1    0    0  503  502  0.00000000000E+00  0.00000000000E+00  0.44383997414E+02  0.44383997414E+02  0.00000000000E+00 0. -1.
         21   -1    0    0  501  503 -0.00000000000E+00 -0.00000000000E+00 -0.10841070716E+04  0.10841070716E+04  0.00000000000E+00 0. -1.
          6    1    1    2  501    0  0.89454328244E+02 -0.37234858713E+02 -0.76584090024E+03  0.79087596754E+03  0.17200000000E+03 0. -1.
         -6    1    1    2    0  502 -0.89454328244E+02  0.37234858713E+02 -0.27388217398E+03  0.33761510151E+03  0.17200000000E+03 0. -1.
<mgrwt>
<rscale>  2 0.19741457E+03</rscale>
<asrwt>0</asrwt>
<pdfrwt beam="1">  1       21 0.11096000E-01 0.19741457E+03</pdfrwt>
<pdfrwt beam="2">  1       21 0.27102676E+00 0.19741457E+03</pdfrwt>
<totfact> 0.33656391E+03</totfact>
</mgrwt>
</event>
<event>
 4    1  0.1091654E+000  0.2145141E+03  0.7546771E-02  0.1138040E+00
         21   -1    0    0  503  502  0.00000000000E+00  0.00000000000E+00  0.75594378878E+03  0.75594378878E+03  0.00000000000E+00 0.  1.
         21   -1    0    0  501  503 -0.00000000000E+00 -0.00000000000E+00 -0.60917471306E+02  0.60917471306E+02  0.00000000000E+00 0.  1.
          6    1    1    2  501    0 -0.11756571022E+03 -0.51093955855E+02  0.35859402614E+03  0.41785878491E+03  0.17200000000E+03 0.  1.
         -6    1    1    2    0  502  0.11756571022E+03  0.51093955855E+02  0.33643229134E+03  0.39900247518E+03  0.17200000000E+03 0.  1.
<mgrwt>
<rscale>  2 0.21451408E+03</rscale>
<asrwt>0</asrwt>
<pdfrwt beam="1">  1       21 0.18898592E+00 0.21451408E+03</pdfrwt>
<pdfrwt beam="2">  1       21 0.15229370E-01 0.21451408E+03</pdfrwt>
<totfact> 0.59316463E+03</totfact>
</mgrwt>
</event>
<event>
 4    1  0.1091654E+000  0.1856523E+03  0.7546771E-02  0.1162442E+00
         21   -1    0    0  503  502  0.00000000000E+00  0.00000000000E+00  0.24935717538E+03  0.24935717538E+03  0.00000000000E+00 0. -1.
         21   -1    0    0  501  503 -0.00000000000E+00 -0.00000000000E+00 -0.23813776678E+03  0.23813776678E+03  0.00000000000E+00 0. -1.
          6    1    1    2  501    0  0.42068349860E+02  0.55794386543E+02 -0.15227571170E+03  0.24011383135E+03  0.17200000000E+03 0. -1.
         -6    1    1    2    0  502 -0.42068349860E+02 -0.55794386543E+02  0.16349512030E+03  0.24738111082E+03  0.17200000000E+03 0. -1.
<mgrwt>
<rscale>  2 0.18565225E+03</rscale>
<asrwt>0</asrwt>
<pdfrwt beam="1">  1       21 0.62339294E-01 0.18565225E+03</pdfrwt>
<pdfrwt beam="2">  1       21 0.59534442E-01 0.18565225E+03</pdfrwt>
<totfact> 0.63207086E+03</totfact>
</mgrwt>
</event>
<event>
 4    1  0.1091654E+000  0.2173842E+03  0.7546771E-02  0.1135848E+00
         21   -1    0    0  503  502  0.00000000000E+00  0.00000000000E+00  0.10446899590E+03  0.10446899590E+03  0.00000000000E+00 0. -1.
         21   -1    0    0  501  503 -0.00000000000E+00 -0.00000000000E+00 -0.12586632851E+04  0.12586632851E+04  0.00000000000E+00 0.  1.
          6    1    1    2  501    0 -0.75794260929E+02  0.10921127308E+03 -0.11226123757E+04  0.11434659672E+04  0.17200000000E+03 0.  1.
         -6    1    1    2    0  502  0.75794260929E+02 -0.10921127308E+03 -0.31581913552E+02  0.21966631380E+03  0.17200000000E+03 0. -1.
<mgrwt>
<rscale>  2 0.21738416E+03</rscale>
<asrwt>0</asrwt>
<pdfrwt beam="1">  1       21 0.26117249E-01 0.21738416E+03</pdfrwt>
<pdfrwt beam="2">  1       21 0.31466582E+00 0.21738416E+03</pdfrwt>
<totfact> 0.37788980E+02</totfact>
</mgrwt>
</event>
<event>
 4    1  0.1091654E+000  0.2219703E+03  0.7546771E-02  0.1132423E+00
         21   -1    0    0  503  502  0.00000000000E+00  0.00000000000E+00  0.14002132907E+03  0.14002132907E+03  0.00000000000E+00 0. -1.
         21   -1    0    0  501  503 -0.00000000000E+00 -0.00000000000E+00 -0.46901057558E+03  0.46901057558E+03  0.00000000000E+00 0. -1.
          6    1    1    2  501    0 -0.11747276285E+03 -0.76726436171E+02 -0.31667290210E+03  0.38672021274E+03  0.17200000000E+03 0. -1.
         -6    1    1    2    0  502  0.11747276285E+03  0.76726436171E+02 -0.12316344415E+02  0.22231169191E+03  0.17200000000E+03 0. -1.
<mgrwt>
<rscale>  2 0.22197026E+03</rscale>
<asrwt>0</asrwt>
<pdfrwt beam="1">  1       21 0.35005333E-01 0.22197026E+03</pdfrwt>
<pdfrwt beam="2">  1       21 0.11725264E+00 0.22197026E+03</pdfrwt>
<totfact> 0.42978978E+03</totfact>
</mgrwt>
</event>
<event>
 4    1  0.1091654E+000  0.1736588E+03  0.7546771E-02  0.1174085E+00
         21   -1    0    0  503  502  0.00000000000E+00  0.00000000000E+00  0.26642836122E+03  0.26642836122E+03  0.00000000000E+00 0. -1.
         21   -1    0    0  501  503 -0.00000000000E+00 -0.00000000000E+00 -0.11319135010E+03  0.11319135010E+03  0.00000000000E+00 0. -1.
          6    1    1    2  501    0 -0.22909790262E+02 -0.69653345494E+01  0.76501110369E+02  0.18976246800E+03  0.17200000000E+03 0. -1.
         -6    1    1    2    0  502  0.22909790262E+02  0.69653345494E+01  0.76735900753E+02  0.18985724332E+03  0.17200000000E+03 0. -1.
<mgrwt>
<rscale>  2 0.17365879E+03</rscale>
<asrwt>0</asrwt>
<pdfrwt beam="1">  1       21 0.66607089E-01 0.17365879E+03</pdfrwt>
<pdfrwt beam="2">  1       21 0.28297838E-01 0.17365879E+03</pdfrwt>
<totfact> 0.24938567E+04</totfact>
</mgrwt>
</event>
<event>
 4    1  0.1091654E+000  0.1770122E+03  0.7546771E-02  0.1170726E+00
         21   -1    0    0  503  502  0.00000000000E+00  0.00000000000E+00  0.18246537834E+03  0.18246537834E+03  0.00000000000E+00 0. -1.
         21   -1    0    0  501  503 -0.00000000000E+00 -0.00000000000E+00 -0.19633752942E+03  0.19633752942E+03  0.00000000000E+00 0. -1.
          6    1    1    2  501    0  0.32962353380E+02  0.25744711081E+02  0.60127523591E+02  0.18694551608E+03  0.17200000000E+03 0. -1.
         -6    1    1    2    0  502 -0.32962353380E+02 -0.25744711081E+02 -0.73999674677E+02  0.19185739168E+03  0.17200000000E+03 0. -1.
<mgrwt>
<rscale>  2 0.17701217E+03</rscale>
<asrwt>0</asrwt>
<pdfrwt beam="1">  1       21 0.45616345E-01 0.17701217E+03</pdfrwt>
<pdfrwt beam="2">  1       21 0.49084382E-01 0.17701217E+03</pdfrwt>
<totfact> 0.18422626E+04</totfact>
</mgrwt>
</event>
<event>
 4    1  0.1091654E+000  0.2163380E+03  0.7546771E-02  0.1136643E+00
         21   -1    0    0  503  502  0.00000000000E+00  0.00000000000E+00  0.95123105095E+03  0.95123105095E+03  0.00000000000E+00 0. -1.
         21   -1    0    0  501  503 -0.00000000000E+00 -0.00000000000E+00 -0.16266097132E+03  0.16266097132E+03  0.00000000000E+00 0.  1.
          6    1    1    2  501    0  0.49589159102E+02 -0.12148675066E+03 -0.70863382301E+02  0.22764826869E+03  0.17200000000E+03 0.  1.
         -6    1    1    2    0  502 -0.49589159102E+02  0.12148675066E+03  0.85943346193E+03  0.88624375359E+03  0.17200000000E+03 0. -1.
<mgrwt>
<rscale>  2 0.21633797E+03</rscale>
<asrwt>0</asrwt>
<pdfrwt beam="1">  1       21 0.23780775E+00 0.21633797E+03</pdfrwt>
<pdfrwt beam="2">  1       21 0.40665245E-01 0.21633797E+03</pdfrwt>
<totfact> 0.44406259E+02</totfact>
</mgrwt>
</event>
<event>
 4    1  0.1091654E+000  0.1723902E+03  0.7546771E-02  0.1175378E+00
         21   -1    0    0  503  502  0.00000000000E+00  0.00000000000E+00  0.78050962820E+02  0.78050962820E+02  0.00000000000E+00 0. -1.
         21   -1    0    0  501  503 -0.00000000000E+00 -0.00000000000E+00 -0.78975717273E+03  0.78975717273E+03  0.00000000000E+00 0. -1.
          6    1    1    2  501    0  0.11527183729E+02  0.12220421503E+01 -0.43598228472E+02  0.17781781372E+03  0.17200000000E+03 0. -1.
         -6    1    1    2    0  502 -0.11527183729E+02 -0.12220421503E+01 -0.66810798144E+03  0.68999032182E+03  0.17200000000E+03 0. -1.
<mgrwt>
<rscale>  2 0.17239017E+03</rscale>
<asrwt>0</asrwt>
<pdfrwt beam="1">  1       21 0.19512741E-01 0.17239017E+03</pdfrwt>
<pdfrwt beam="2">  1       21 0.19743929E+00 0.17239017E+03</pdfrwt>
<totfact> 0.34407298E+03</totfact>
</mgrwt>
</event>
<event>
 4    1  0.1091654E+000  0.1909328E+03  0.7546771E-02  0.1157623E+00
         21   -1    0    0  503  502  0.00000000000E+00  0.00000000000E+00  0.45520593917E+03  0.45520593917E+03  0.00000000000E+00 0. -1.
         21   -1    0    0  501  503 -0.00000000000E+00 -0.00000000000E+00 -0.80124414312E+02  0.80124414312E+02  0.00000000000E+00 0. -1.
          6    1    1    2  501    0  0.40380742226E+02  0.72392991591E+02  0.19344716713E+03  0.27180352471E+03  0.17200000000E+03 0. -1.
         -6    1    1    2    0  502 -0.40380742226E+02 -0.72392991591E+02  0.18163435773E+03  0.26352682877E+03  0.17200000000E+03 0. -1.
<mgrwt>
<rscale>  2 0.19093284E+03</rscale>
<asrwt>0</asrwt>
<pdfrwt beam="1">  1       21 0.11380148E+00 0.19093284E+03</pdfrwt>
<pdfrwt beam="2">  1       21 0.20031105E-01 0.19093284E+03</pdfrwt>
<totfact> 0.13858700E+04</totfact>
</mgrwt>
</event>
<event>
 4    1  0.1091654E+000  0.2087972E+03  0.7546771E-02  0.1142522E+00
         21   -1    0    0  503  502  0.00000000000E+00  0.00000000000E+00  0.51769780244E+03  0.51769780244E+03  0.00000000000E+00 0. -1.
         21   -1    0    0  501  503 -0.00000000000E+00 -0.00000000000E+00 -0.93054849870E+02  0.93054849870E+02  0.00000000000E+00 0. -1.
          6    1    1    2  501    0  0.92209227166E+02 -0.74227503278E+02  0.11818305825E+03  0.23992394436E+03  0.17200000000E+03 0. -1.
         -6    1    1    2    0  502 -0.92209227166E+02  0.74227503278E+02  0.30645989431E+03  0.37082870795E+03  0.17200000000E+03 0. -1.
<mgrwt>
<rscale>  2 0.20879718E+03</rscale>
<asrwt>0</asrwt>
<pdfrwt beam="1">  1       21 0.12942444E+00 0.20879718E+03</pdfrwt>
<pdfrwt beam="2">  1       21 0.23263714E-01 0.20879718E+03</pdfrwt>
<totfact> 0.75001630E+03</totfact>
</mgrwt>
</event>
<event>
 4    1  0.1091654E+000  0.2256074E+03  0.7546771E-02  0.1129770E+00
         21   -1    0    0  503  502  0.00000000000E+00  0.00000000000E+00  0.60218350450E+02  0.60218350450E+02  0.00000000000E+00 0.  1.
         21   -1    0    0  501  503 -0.00000000000E+00 -0.00000000000E+00 -0.13130715140E+04  0.13130715140E+04  0.00000000000E+00 0.  1.
          6    1    1    2  501    0 -0.81211965336E+02  0.12132315692E+03 -0.10362859086E+04  0.10605598409E+04  0.17200000000E+03 0.  1.
         -6    1    1    2    0  502  0.81211965336E+02 -0.12132315692E+03 -0.21656725491E+03  0.31273002353E+03  0.17200000000E+03 0.  1.
<mgrwt>
<rscale>  2 0.22560738E+03</rscale>
<asrwt>0</asrwt>
<pdfrwt beam="1">  1       21 0.15054587E-01 0.22560738E+03</pdfrwt>
<pdfrwt beam="2">  1       21 0.32826788E+00 0.22560738E+03</pdfrwt>
<totfact> 0.87405839E+02</totfact>
</mgrwt>
</event>
<event>
 4    1  0.1091654E+000  0.1849169E+03  0.7546771E-02  0.1163127E+00
         21   -1    0    0  501  502  0.00000000000E+00  0.00000000000E+00  0.49333492463E+02  0.49333492463E+02  0.00000000000E+00 0.  1.
         21   -1    0    0  502  503 -0.00000000000E+00 -0.00000000000E+00 -0.11275400065E+04  0.11275400065E+04  0.00000000000E+00 0.  1.
          6    1    1    2  501    0  0.29163438602E+02  0.61316899843E+02 -0.17385655388E+03  0.25381168154E+03  0.17200000000E+03 0.  1.
         -6    1    1    2    0  503 -0.29163438602E+02 -0.61316899843E+02 -0.90434996019E+03  0.92306181746E+03  0.17200000000E+03 0.  1.
<mgrwt>
<rscale>  2 0.18491692E+03</rscale>
<asrwt>0</asrwt>
<pdfrwt beam="1">  1       21 0.12333373E-01 0.18491692E+03</pdfrwt>
<pdfrwt beam="2">  1       21 0.28188500E+00 0.18491692E+03</pdfrwt>
<totfact> 0.24480978E+03</totfact>
</mgrwt>
</event>
<event>
 4    1  0.1091654E+000  0.2105304E+03  0.7546771E-02  0.1141147E+00
         21   -1    0    0  501  502  0.00000000000E+00  0.00000000000E+00  0.77108318992E+02  0.77108318992E+02  0.00000000000E+00 0.  1.
         21   -1    0    0  502  503 -0.00000000000E+00 -0.00000000000E+00 -0.63248590277E+03  0.63248590277E+03  0.00000000000E+00 0.  1.
          6    1    1    2  501    0  0.82963372774E+02 -0.88634823473E+02 -0.17055380358E+03  0.27094584896E+03  0.17200000000E+03 0.  1.
         -6    1    1    2    0  503 -0.82963372774E+02  0.88634823473E+02 -0.38482378020E+03  0.43864837280E+03  0.17200000000E+03 0.  1.
<mgrwt>
<rscale>  2 0.21053041E+03</rscale>
<asrwt>0</asrwt>
<pdfrwt beam="1">  1       21 0.19277080E-01 0.21053041E+03</pdfrwt>
<pdfrwt beam="2">  1       21 0.15812147E+00 0.21053041E+03</pdfrwt>
<totfact> 0.63315092E+03</totfact>
</mgrwt>
</event>
<event>
 4    1  0.1091654E+000  0.1743862E+03  0.7546771E-02  0.1173349E+00
         21   -1    0    0  501  502  0.00000000000E+00  0.00000000000E+00  0.50255282950E+03  0.50255282950E+03  0.00000000000E+00 0.  1.
         21   -1    0    0  502  503 -0.00000000000E+00 -0.00000000000E+00 -0.66742785438E+02  0.66742785438E+02  0.00000000000E+00 0.  1.
          6    1    1    2  501    0  0.20748656575E+02  0.19900806450E+02  0.13093449892E+03  0.21806969495E+03  0.17200000000E+03 0.  1.
         -6    1    1    2    0  503 -0.20748656575E+02 -0.19900806450E+02  0.30487554515E+03  0.35122591999E+03  0.17200000000E+03 0.  1.
<mgrwt>
<rscale>  2 0.17438621E+03</rscale>
<asrwt>0</asrwt>
<pdfrwt beam="1">  1       21 0.12563820E+00 0.17438621E+03</pdfrwt>
<pdfrwt beam="2">  1       21 0.16685698E-01 0.17438621E+03</pdfrwt>
<totfact> 0.15398129E+04</totfact>
</mgrwt>
</event>
<event>
 4    1  0.1091654E+000  0.1889880E+03  0.7546771E-02  0.1159377E+00
         21   -1    0    0  503  502  0.00000000000E+00  0.00000000000E+00  0.65773472675E+03  0.65773472675E+03  0.00000000000E+00 0. -1.
         21   -1    0    0  501  503 -0.00000000000E+00 -0.00000000000E+00 -0.54472197882E+02  0.54472197882E+02  0.00000000000E+00 0. -1.
          6    1    1    2  501    0 -0.13501902689E+02  0.77137179219E+02  0.32152445544E+03  0.37295364489E+03  0.17200000000E+03 0. -1.
         -6    1    1    2    0  502  0.13501902689E+02 -0.77137179219E+02  0.28173807343E+03  0.33925327974E+03  0.17200000000E+03 0. -1.
<mgrwt>
<rscale>  2 0.18898795E+03</rscale>
<asrwt>0</asrwt>
<pdfrwt beam="1">  1       21 0.16443366E+00 0.18898795E+03</pdfrwt>
<pdfrwt beam="2">  1       21 0.13618052E-01 0.18898795E+03</pdfrwt>
<totfact> 0.10956799E+04</totfact>
</mgrwt>
</event>
<event>
 4    1  0.1091654E+000  0.1789179E+03  0.7546771E-02  0.1168854E+00
         21   -1    0    0  501  502  0.00000000000E+00  0.00000000000E+00  0.26673921304E+03  0.26673921304E+03  0.00000000000E+00 0.  1.
         21   -1    0    0  502  503 -0.00000000000E+00 -0.00000000000E+00 -0.23754783373E+03  0.23754783373E+03  0.00000000000E+00 0.  1.
          6    1    1    2  501    0 -0.39210642591E+02  0.29835313394E+02  0.19195721178E+03  0.26241034959E+03  0.17200000000E+03 0.  1.
         -6    1    1    2    0  503  0.39210642591E+02 -0.29835313394E+02 -0.16276583248E+03  0.24187669718E+03  0.17200000000E+03 0.  1.
<mgrwt>
<rscale>  2 0.17891792E+03</rscale>
<asrwt>0</asrwt>
<pdfrwt beam="1">  1       21 0.66684803E-01 0.17891792E+03</pdfrwt>
<pdfrwt beam="2">  1       21 0.59386958E-01 0.17891792E+03</pdfrwt>
<totfact> 0.55187294E+03</totfact>
</mgrwt>
</event>
<event>
 4    1  0.1091654E+000  0.1798297E+03  0.7546771E-02  0.1167968E+00
         21   -1    0    0  503  502  0.00000000000E+00  0.00000000000E+00  0.16124306555E+03  0.16124306555E+03  0.00000000000E+00 0.  1.
         21   -1    0    0  501  503 -0.00000000000E+00 -0.00000000000E+00 -0.58315318605E+03  0.58315318605E+03  0.00000000000E+00 0. -1.
          6    1    1    2  501    0  0.48461050109E+02  0.20155845079E+02 -0.51243061068E+03  0.54306892953E+03  0.17200000000E+03 0. -1.
         -6    1    1    2    0  502 -0.48461050109E+02 -0.20155845079E+02  0.90520490175E+02  0.20132732207E+03  0.17200000000E+03 0.  1.
<mgrwt>
<rscale>  2 0.17982973E+03</rscale>
<asrwt>0</asrwt>
<pdfrwt beam="1">  1       21 0.40310767E-01 0.17982973E+03</pdfrwt>
<pdfrwt beam="2">  1       21 0.14578830E+00 0.17982973E+03</pdfrwt>
<totfact> 0.19341473E+03</totfact>
</mgrwt>
</event>
<event>
 4    1  0.1091654E+000  0.1731516E+03  0.7546771E-02  0.1174601E+00
         21   -1    0    0  503  502  0.00000000000E+00  0.00000000000E+00  0.10163615622E+03  0.10163615622E+03  0.00000000000E+00 0.  1.
         21   -1    0    0  501  503 -0.00000000000E+00 -0.00000000000E+00 -0.45794071104E+03  0.45794071104E+03  0.00000000000E+00 0.  1.
          6    1    1    2  501    0 -0.31705196168E+01  0.19682747259E+02 -0.34505203715E+03  0.38606006149E+03  0.17200000000E+03 0.  1.
         -6    1    1    2    0  502  0.31705196168E+01 -0.19682747259E+02 -0.11252517670E+02  0.17351680578E+03  0.17200000000E+03 0.  1.
<mgrwt>
<rscale>  2 0.17315156E+03</rscale>
<asrwt>0</asrwt>
<pdfrwt beam="1">  1       21 0.25409039E-01 0.17315156E+03</pdfrwt>
<pdfrwt beam="2">  1       21 0.11448518E+00 0.17315156E+03</pdfrwt>
<totfact> 0.88321847E+03</totfact>
</mgrwt>
</event>
<event>
 4    1  0.1091654E+000  0.1734037E+03  0.7546771E-02  0.1174344E+00
         21   -1    0    0  501  502  0.00000000000E+00  0.00000000000E+00  0.39285251869E+03  0.39285251869E+03  0.00000000000E+00 0.  1.
         21   -1    0    0  502  503 -0.00000000000E+00 -0.00000000000E+00 -0.79881260328E+02  0.79881260328E+02  0.00000000000E+00 0.  1.
          6    1    1    2  501    0 -0.10879637715E+02  0.19143936035E+02  0.10814283529E+03  0.20436176166E+03  0.17200000000E+03 0.  1.
         -6    1    1    2    0  503  0.10879637715E+02 -0.19143936035E+02  0.20482842307E+03  0.26837201736E+03  0.17200000000E+03 0.  1.
<mgrwt>
<rscale>  2 0.17340374E+03</rscale>
<asrwt>0</asrwt>
<pdfrwt beam="1">  1       21 0.98213124E-01 0.17340374E+03</pdfrwt>
<pdfrwt beam="2">  1       21 0.19970316E-01 0.17340374E+03</pdfrwt>
<totfact> 0.20070969E+04</totfact>
</mgrwt>
</event>
<event>
 4    1  0.1091654E+000  0.1754974E+03  0.7546771E-02  0.1172233E+00
         21   -1    0    0  503  502  0.00000000000E+00  0.00000000000E+00  0.25149251513E+03  0.25149251513E+03  0.00000000000E+00 0.  1.
         21   -1    0    0  501  503 -0.00000000000E+00 -0.00000000000E+00 -0.16228904428E+03  0.16228904428E+03  0.00000000000E+00 0.  1.
          6    1    1    2  501    0 -0.32161629513E+02  0.13452300550E+02 -0.57883812237E+02  0.18479683580E+03  0.17200000000E+03 0.  1.
         -6    1    1    2    0  502  0.32161629513E+02 -0.13452300550E+02  0.14708728308E+03  0.22898472361E+03  0.17200000000E+03 0.  1.
<mgrwt>
<rscale>  2 0.17549739E+03</rscale>
<asrwt>0</asrwt>
<pdfrwt beam="1">  1       21 0.62873128E-01 0.17549739E+03</pdfrwt>
<pdfrwt beam="2">  1       21 0.40572261E-01 0.17549739E+03</pdfrwt>
<totfact> 0.13866510E+04</totfact>
</mgrwt>
</event>
<event>
 4    1  0.1091654E+000  0.2015383E+03  0.7546771E-02  0.1148448E+00
         21   -1    0    0  501  502  0.00000000000E+00  0.00000000000E+00  0.28653053700E+03  0.28653053700E+03  0.00000000000E+00 0. -1.
         21   -1    0    0  502  503 -0.00000000000E+00 -0.00000000000E+00 -0.14516014594E+03  0.14516014594E+03  0.00000000000E+00 0. -1.
          6    1    1    2  501    0 -0.52783286686E+02  0.90816412888E+02  0.37635901058E+02  0.20502233354E+03  0.17200000000E+03 0. -1.
         -6    1    1    2    0  503  0.52783286686E+02 -0.90816412888E+02  0.10373449000E+03  0.22666834940E+03  0.17200000000E+03 0. -1.
<mgrwt>
<rscale>  2 0.20153832E+03</rscale>
<asrwt>0</asrwt>
<pdfrwt beam="1">  1       21 0.71632633E-01 0.20153832E+03</pdfrwt>
<pdfrwt beam="2">  1       21 0.36290037E-01 0.20153832E+03</pdfrwt>
<totfact> 0.12818869E+04</totfact>
</mgrwt>
</event>
<event>
 4    1  0.1091654E+000  0.1819458E+03  0.7546771E-02  0.1165933E+00
         21   -1    0    0  503  502  0.00000000000E+00  0.00000000000E+00  0.35935952680E+03  0.35935952680E+03  0.00000000000E+00 0. -1.
         21   -1    0    0  501  503 -0.00000000000E+00 -0.00000000000E+00 -0.92884648074E+02  0.92884648074E+02  0.00000000000E+00 0. -1.
          6    1    1    2  501    0  0.27112356291E+02  0.52774808262E+02  0.11272327229E+03  0.21403456816E+03  0.17200000000E+03 0. -1.
         -6    1    1    2    0  502 -0.27112356291E+02 -0.52774808262E+02  0.15375160644E+03  0.23820960672E+03  0.17200000000E+03 0. -1.
<mgrwt>
<rscale>  2 0.18194576E+03</rscale>
<asrwt>0</asrwt>
<pdfrwt beam="1">  1       21 0.89839878E-01 0.18194576E+03</pdfrwt>
<pdfrwt beam="2">  1       21 0.23221163E-01 0.18194576E+03</pdfrwt>
<totfact> 0.18509334E+04</totfact>
</mgrwt>
</event>
<event>
 4    1  0.1091654E+000  0.1766659E+03  0.7546771E-02  0.1171069E+00
         21   -1    0    0  503  502  0.00000000000E+00  0.00000000000E+00  0.52364452878E+02  0.52364452878E+02  0.00000000000E+00 0.  1.
         21   -1    0    0  501  503 -0.00000000000E+00 -0.00000000000E+00 -0.75742463600E+03  0.75742463600E+03  0.00000000000E+00 0.  1.
          6    1    1    2  501    0  0.14391869196E+02  0.37678862498E+02 -0.16562729888E+03  0.24216363210E+03  0.17200000000E+03 0.  1.
         -6    1    1    2    0  502 -0.14391869196E+02 -0.37678862498E+02 -0.53943288424E+03  0.56762545678E+03  0.17200000000E+03 0.  1.
<mgrwt>
<rscale>  2 0.17666585E+03</rscale>
<asrwt>0</asrwt>
<pdfrwt beam="1">  1       21 0.13091114E-01 0.17666585E+03</pdfrwt>
<pdfrwt beam="2">  1       21 0.18935615E+00 0.17666585E+03</pdfrwt>
<totfact> 0.80169788E+03</totfact>
</mgrwt>
</event>
<event>
 4    1  0.1091654E+000  0.3113281E+03  0.7546771E-02  0.1079711E+00
         21   -1    0    0  503  502  0.00000000000E+00  0.00000000000E+00  0.60422786908E+03  0.60422786908E+03  0.00000000000E+00 0.  1.
         21   -1    0    0  501  503 -0.00000000000E+00 -0.00000000000E+00 -0.28702027410E+03  0.28702027410E+03  0.00000000000E+00 0.  1.
          6    1    1    2  501    0  0.21118645914E+03 -0.15080280398E+03 -0.13736365338E+03  0.34028514438E+03  0.17200000000E+03 0.  1.
         -6    1    1    2    0  502 -0.21118645914E+03  0.15080280398E+03  0.45457124836E+03  0.55096299880E+03  0.17200000000E+03 0.  1.
<mgrwt>
<rscale>  2 0.31132813E+03</rscale>
<asrwt>0</asrwt>
<pdfrwt beam="1">  1       21 0.15105697E+00 0.31132813E+03</pdfrwt>
<pdfrwt beam="2">  1       21 0.71755070E-01 0.31132813E+03</pdfrwt>
<totfact> 0.46260512E+02</totfact>
</mgrwt>
</event>
<event>
 4    1  0.1091654E+000  0.1921351E+03  0.7546771E-02  0.1156550E+00
         21   -1    0    0  501  502  0.00000000000E+00  0.00000000000E+00  0.62528569442E+03  0.62528569442E+03  0.00000000000E+00 0. -1.
         21   -1    0    0  502  503 -0.00000000000E+00 -0.00000000000E+00 -0.89690480547E+02  0.89690480547E+02  0.00000000000E+00 0. -1.
          6    1    1    2  501    0  0.31437258267E+02  0.79646766853E+02  0.47678394935E+03  0.51404167442E+03  0.17200000000E+03 0. -1.
         -6    1    1    2    0  503 -0.31437258267E+02 -0.79646766853E+02  0.58811264523E+02  0.20093450055E+03  0.17200000000E+03 0. -1.
<mgrwt>
<rscale>  2 0.19213513E+03</rscale>
<asrwt>0</asrwt>
<pdfrwt beam="1">  1       21 0.15632141E+00 0.19213513E+03</pdfrwt>
<pdfrwt beam="2">  1       21 0.22422622E-01 0.19213513E+03</pdfrwt>
<totfact> 0.49919027E+03</totfact>
</mgrwt>
</event>
<event>
 4    1  0.1091654E+000  0.2501218E+03  0.7546771E-02  0.1113228E+00
         21   -1    0    0  501  502  0.00000000000E+00  0.00000000000E+00  0.97483114468E+03  0.97483114468E+03  0.00000000000E+00 0.  1.
         21   -1    0    0  502  503 -0.00000000000E+00 -0.00000000000E+00 -0.69706459133E+02  0.69706459133E+02  0.00000000000E+00 0. -1.
          6    1    1    2  501    0  0.14097777759E+03  0.11446482896E+03  0.30545599020E+03  0.39479652074E+03  0.17200000000E+03 0. -1.
         -6    1    1    2    0  503 -0.14097777759E+03 -0.11446482896E+03  0.59966869535E+03  0.64974108307E+03  0.17200000000E+03 0.  1.
<mgrwt>
<rscale>  2 0.25012183E+03</rscale>
<asrwt>0</asrwt>
<pdfrwt beam="1">  1       21 0.24370774E+00 0.25012183E+03</pdfrwt>
<pdfrwt beam="2">  1       21 0.17426618E-01 0.25012183E+03</pdfrwt>
<totfact> 0.20378281E+03</totfact>
</mgrwt>
</event>
<event>
 4    1  0.1091654E+000  0.2167186E+03  0.7546771E-02  0.1136353E+00
         21   -1    0    0  501  502  0.00000000000E+00  0.00000000000E+00  0.24197774513E+03  0.24197774513E+03  0.00000000000E+00 0.  1.
         21   -1    0    0  502  503 -0.00000000000E+00 -0.00000000000E+00 -0.27731877205E+03  0.27731877205E+03  0.00000000000E+00 0.  1.
          6    1    1    2  501    0  0.12311848503E+03 -0.47167511408E+02  0.12456780845E+03  0.24996814675E+03  0.17200000000E+03 0.  1.
         -6    1    1    2    0  503 -0.12311848503E+03  0.47167511408E+02 -0.15990883536E+03  0.26932837043E+03  0.17200000000E+03 0.  1.
<mgrwt>
<rscale>  2 0.21671856E+03</rscale>
<asrwt>0</asrwt>
<pdfrwt beam="1">  1       21 0.60494437E-01 0.21671856E+03</pdfrwt>
<pdfrwt beam="2">  1       21 0.69329693E-01 0.21671856E+03</pdfrwt>
<totfact> 0.47305830E+03</totfact>
</mgrwt>
</event>
<event>
 4    1  0.1091654E+000  0.2600993E+03  0.7546771E-02  0.1107084E+00
         21   -1    0    0  503  502  0.00000000000E+00  0.00000000000E+00  0.84295858227E+02  0.84295858227E+02  0.00000000000E+00 0. -1.
         21   -1    0    0  501  503 -0.00000000000E+00 -0.00000000000E+00 -0.10115268325E+04  0.10115268325E+04  0.00000000000E+00 0. -1.
          6    1    1    2  501    0  0.10008478147E+03  0.16748336444E+03 -0.71265637889E+03  0.75863743331E+03  0.17200000000E+03 0.  1.
         -6    1    1    2    0  502 -0.10008478147E+03 -0.16748336444E+03 -0.21457459543E+03  0.33718525746E+03  0.17200000000E+03 0.  1.
<mgrwt>
<rscale>  2 0.26009929E+03</rscale>
<asrwt>0</asrwt>
<pdfrwt beam="1">  1       21 0.21073964E-01 0.26009929E+03</pdfrwt>
<pdfrwt beam="2">  1       21 0.25288171E+00 0.26009929E+03</pdfrwt>
<totfact> 0.12471029E+03</totfact>
</mgrwt>
</event>
<event>
 4    1  0.1091654E+000  0.2203245E+03  0.7546771E-02  0.1133641E+00
         21   -1    0    0  501  502  0.00000000000E+00  0.00000000000E+00  0.67265011402E+03  0.67265011402E+03  0.00000000000E+00 0. -1.
         21   -1    0    0  502  503 -0.00000000000E+00 -0.00000000000E+00 -0.96486519004E+02  0.96486519004E+02  0.00000000000E+00 0. -1.
          6    1    1    2  501    0 -0.23997836745E+02 -0.13558383606E+03  0.95008937420E+02  0.23993659779E+03  0.17200000000E+03 0. -1.
         -6    1    1    2    0  503  0.23997836745E+02  0.13558383606E+03  0.48115465760E+03  0.52920003524E+03  0.17200000000E+03 0. -1.
<mgrwt>
<rscale>  2 0.22032447E+03</rscale>
<asrwt>0</asrwt>
<pdfrwt beam="1">  1       21 0.16816252E+00 0.22032447E+03</pdfrwt>
<pdfrwt beam="2">  1       21 0.24121632E-01 0.22032447E+03</pdfrwt>
<totfact> 0.34793832E+03</totfact>
</mgrwt>
</event>
<event>
 4    1  0.1091654E+000  0.1753025E+03  0.7546771E-02  0.1172428E+00
         21   -1    0    0  503  502  0.00000000000E+00  0.00000000000E+00  0.29697155156E+03  0.29697155156E+03  0.00000000000E+00 0.  1.
         21   -1    0    0  501  503 -0.00000000000E+00 -0.00000000000E+00 -0.11549440161E+03  0.11549440161E+03  0.00000000000E+00 0.  1.
          6    1    1    2  501    0 -0.14345848671E+02 -0.30678406447E+02  0.24225457797E+02  0.17696847403E+03  0.17200000000E+03 0.  1.
         -6    1    1    2    0  502  0.14345848671E+02  0.30678406447E+02  0.15725169215E+03  0.23549747914E+03  0.17200000000E+03 0.  1.
<mgrwt>
<rscale>  2 0.17530250E+03</rscale>
<asrwt>0</asrwt>
<pdfrwt beam="1">  1       21 0.74242886E-01 0.17530250E+03</pdfrwt>
<pdfrwt beam="2">  1       21 0.28873601E-01 0.17530250E+03</pdfrwt>
<totfact> 0.18870325E+04</totfact>
</mgrwt>
</event>
<event>
 4    1  0.1091654E+000  0.2158106E+03  0.7546771E-02  0.1137045E+00
         21   -1    0    0  503  502  0.00000000000E+00  0.00000000000E+00  0.17606185724E+03  0.17606185724E+03  0.00000000000E+00 0.  1.
         21   -1    0    0  501  503 -0.00000000000E+00 -0.00000000000E+00 -0.26563242317E+03  0.26563242317E+03  0.00000000000E+00 0.  1.
          6    1    1    2  501    0  0.30371119512E+02 -0.12675890975E+03 -0.30579271109E+02  0.21796632291E+03  0.17200000000E+03 0.  1.
         -6    1    1    2    0  502 -0.30371119512E+02  0.12675890975E+03 -0.58991294824E+02  0.22372795750E+03  0.17200000000E+03 0.  1.
<mgrwt>
<rscale>  2 0.21581063E+03</rscale>
<asrwt>0</asrwt>
<pdfrwt beam="1">  1       21 0.44015465E-01 0.21581063E+03</pdfrwt>
<pdfrwt beam="2">  1       21 0.66408105E-01 0.21581063E+03</pdfrwt>
<totfact> 0.10154542E+04</totfact>
</mgrwt>
</event>
<event>
 4    1  0.1091654E+000  0.3304662E+03  0.7546771E-02  0.1070931E+00
         21   -1    0    0  501  502  0.00000000000E+00  0.00000000000E+00  0.81178943611E+03  0.81178943611E+03  0.00000000000E+00 0. -1.
         21   -1    0    0  502  503 -0.00000000000E+00 -0.00000000000E+00 -0.18585002012E+03  0.18585002012E+03  0.00000000000E+00 0.  1.
          6    1    1    2  501    0  0.26133011620E+03 -0.10644485172E+03  0.57509966274E+03  0.66328542738E+03  0.17200000000E+03 0. -1.
         -6    1    1    2    0  503 -0.26133011620E+03  0.10644485172E+03  0.50839753249E+02  0.33435402884E+03  0.17200000000E+03 0.  1.
<mgrwt>
<rscale>  2 0.33046624E+03</rscale>
<asrwt>0</asrwt>
<pdfrwt beam="1">  1       21 0.20294735E+00 0.33046624E+03</pdfrwt>
<pdfrwt beam="2">  1       21 0.46462507E-01 0.33046624E+03</pdfrwt>
<totfact> 0.50262277E+02</totfact>
</mgrwt>
</event>
<event>
 4    1  0.1091654E+000  0.1907264E+03  0.7546771E-02  0.1157808E+00
         21   -1    0    0  501  502  0.00000000000E+00  0.00000000000E+00  0.74227340196E+03  0.74227340196E+03  0.00000000000E+00 0. -1.
         21   -1    0    0  502  503 -0.00000000000E+00 -0.00000000000E+00 -0.11952722826E+03  0.11952722826E+03  0.00000000000E+00 0. -1.
          6    1    1    2  501    0  0.69090243306E+02  0.44934370938E+02  0.64235204132E+03  0.67006917882E+03  0.17200000000E+03 0. -1.
         -6    1    1    2    0  503 -0.69090243306E+02 -0.44934370938E+02 -0.19605867622E+02  0.19173145140E+03  0.17200000000E+03 0. -1.
<mgrwt>
<rscale>  2 0.19072640E+03</rscale>
<asrwt>0</asrwt>
<pdfrwt beam="1">  1       21 0.18556834E+00 0.19072640E+03</pdfrwt>
<pdfrwt beam="2">  1       21 0.29881809E-01 0.19072640E+03</pdfrwt>
<totfact> 0.17957894E+03</totfact>
</mgrwt>
</event>
<event>
 4    1  0.1091654E+000  0.2002073E+03  0.7546771E-02  0.1149564E+00
         21   -1    0    0  501  502  0.00000000000E+00  0.00000000000E+00  0.31258316982E+03  0.31258316982E+03  0.00000000000E+00 0. -1.
         21   -1    0    0  502  503 -0.00000000000E+00 -0.00000000000E+00 -0.31074592310E+03  0.31074592310E+03  0.00000000000E+00 0. -1.
          6    1    1    2  501    0 -0.39597900992E+02 -0.94503900313E+02  0.23977309863E+03  0.31236856398E+03  0.17200000000E+03 0. -1.
         -6    1    1    2    0  503  0.39597900992E+02  0.94503900313E+02 -0.23793585191E+03  0.31096052894E+03  0.17200000000E+03 0. -1.
<mgrwt>
<rscale>  2 0.20020734E+03</rscale>
<asrwt>0</asrwt>
<pdfrwt beam="1">  1       21 0.78145792E-01 0.20020734E+03</pdfrwt>
<pdfrwt beam="2">  1       21 0.77686481E-01 0.20020734E+03</pdfrwt>
<totfact> 0.21163284E+03</totfact>
</mgrwt>
</event>
<event>
 4    1  0.1091654E+000  0.2329521E+03  0.7546771E-02  0.1124579E+00
         21   -1    0    0  503  502  0.00000000000E+00  0.00000000000E+00  0.61167968359E+03  0.61167968359E+03  0.00000000000E+00 0.  1.
         21   -1    0    0  501  503 -0.00000000000E+00 -0.00000000000E+00 -0.11156294992E+03  0.11156294992E+03  0.00000000000E+00 0.  1.
          6    1    1    2  501    0 -0.71926061448E+02 -0.13967574326E+03  0.86416581537E+02  0.24846427738E+03  0.17200000000E+03 0.  1.
         -6    1    1    2    0  502  0.71926061448E+02  0.13967574326E+03  0.41370015213E+03  0.47477835613E+03  0.17200000000E+03 0.  1.
<mgrwt>
<rscale>  2 0.23295208E+03</rscale>
<asrwt>0</asrwt>
<pdfrwt beam="1">  1       21 0.15291991E+00 0.23295208E+03</pdfrwt>
<pdfrwt beam="2">  1       21 0.27890739E-01 0.23295208E+03</pdfrwt>
<totfact> 0.33715535E+03</totfact>
</mgrwt>
</event>
<event>
 4    1  0.1091654E+000  0.2009161E+03  0.7546771E-02  0.1148968E+00
         21   -1    0    0  503  502  0.00000000000E+00  0.00000000000E+00  0.34661680421E+03  0.34661680421E+03  0.00000000000E+00 0. -1.
         21   -1    0    0  501  503 -0.00000000000E+00 -0.00000000000E+00 -0.11856579621E+03  0.11856579621E+03  0.00000000000E+00 0.  1.
          6    1    1    2  501    0 -0.23127138304E+01 -0.10381673957E+03  0.83034098281E+02  0.21739808080E+03  0.17200000000E+03 0.  1.
         -6    1    1    2    0  502  0.23127138304E+01  0.10381673957E+03  0.14501690972E+03  0.24778451962E+03  0.17200000000E+03 0. -1.
<mgrwt>
<rscale>  2 0.20091606E+03</rscale>
<asrwt>0</asrwt>
<pdfrwt beam="1">  1       21 0.86654199E-01 0.20091606E+03</pdfrwt>
<pdfrwt beam="2">  1       21 0.29641450E-01 0.20091606E+03</pdfrwt>
<totfact> 0.12437255E+04</totfact>
</mgrwt>
</event>
<event>
 4    1  0.1091654E+000  0.3367654E+03  0.7546771E-02  0.1068182E+00
         21   -1    0    0  503  502  0.00000000000E+00  0.00000000000E+00  0.56630031724E+03  0.56630031724E+03  0.00000000000E+00 0.  1.
         21   -1    0    0  501  503 -0.00000000000E+00 -0.00000000000E+00 -0.35409793762E+03  0.35409793762E+03  0.00000000000E+00 0. -1.
          6    1    1    2  501    0 -0.24355264522E+03 -0.15655364481E+03 -0.19722280056E+03  0.39026627802E+03  0.17200000000E+03 0. -1.
         -6    1    1    2    0  502  0.24355264522E+03  0.15655364481E+03  0.40942518018E+03  0.53013197683E+03  0.17200000000E+03 0.  1.
<mgrwt>
<rscale>  2 0.33676540E+03</rscale>
<asrwt>0</asrwt>
<pdfrwt beam="1">  1       21 0.14157508E+00 0.33676540E+03</pdfrwt>
<pdfrwt beam="2">  1       21 0.88524485E-01 0.33676540E+03</pdfrwt>
<totfact> 0.33395442E+02</totfact>
</mgrwt>
</event>
<event>
 4    1  0.1091654E+000  0.1799194E+03  0.7546771E-02  0.1167881E+00
         21   -1    0    0  501  502  0.00000000000E+00  0.00000000000E+00  0.28074118049E+03  0.28074118049E+03  0.00000000000E+00 0.  1.
         21   -1    0    0  502  503 -0.00000000000E+00 -0.00000000000E+00 -0.17981724885E+03  0.17981724885E+03  0.00000000000E+00 0.  1.
          6    1    1    2  501    0  0.50932153375E+02  0.13888573084E+02  0.18839197923E+03  0.26050434650E+03  0.17200000000E+03 0.  1.
         -6    1    1    2    0  503 -0.50932153375E+02 -0.13888573084E+02 -0.87468047583E+02  0.20005408283E+03  0.17200000000E+03 0.  1.
<mgrwt>
<rscale>  2 0.17991936E+03</rscale>
<asrwt>0</asrwt>
<pdfrwt beam="1">  1       21 0.70185295E-01 0.17991936E+03</pdfrwt>
<pdfrwt beam="2">  1       21 0.44954313E-01 0.17991936E+03</pdfrwt>
<totfact> 0.88272848E+03</totfact>
</mgrwt>
</event>
<event>
 4    1  0.1091654E+000  0.2221371E+03  0.7546771E-02  0.1132300E+00
         21   -1    0    0  503  502  0.00000000000E+00  0.00000000000E+00  0.83779729150E+03  0.83779729150E+03  0.00000000000E+00 0.  1.
         21   -1    0    0  501  503 -0.00000000000E+00 -0.00000000000E+00 -0.38515667991E+03  0.38515667991E+03  0.00000000000E+00 0.  1.
          6    1    1    2  501    0 -0.73040860364E+01 -0.14038358012E+03 -0.33646427024E+03  0.40317874992E+03  0.17200000000E+03 0.  1.
         -6    1    1    2    0  502  0.73040860364E+01  0.14038358012E+03  0.78910488183E+03  0.81977522149E+03  0.17200000000E+03 0.  1.
<mgrwt>
<rscale>  2 0.22213712E+03</rscale>
<asrwt>0</asrwt>
<pdfrwt beam="1">  1       21 0.20944932E+00 0.22213712E+03</pdfrwt>
<pdfrwt beam="2">  1       21 0.96289171E-01 0.22213712E+03</pdfrwt>
<totfact> 0.10081986E+02</totfact>
</mgrwt>
</event>
<event>
 4    1  0.1091654E+000  0.2063004E+03  0.7546771E-02  0.1144530E+00
         21   -1    0    0  503  502  0.00000000000E+00  0.00000000000E+00  0.58433341617E+03  0.58433341617E+03  0.00000000000E+00 0. -1.
         21   -1    0    0  501  503 -0.00000000000E+00 -0.00000000000E+00 -0.14642311969E+03  0.14642311969E+03  0.00000000000E+00 0. -1.
          6    1    1    2  501    0  0.10803276049E+03 -0.36121534334E+02 -0.40070131187E+02  0.21015579458E+03  0.17200000000E+03 0. -1.
         -6    1    1    2    0  502 -0.10803276049E+03  0.36121534334E+02  0.47798042767E+03  0.52060074128E+03  0.17200000000E+03 0. -1.
<mgrwt>
<rscale>  2 0.20630037E+03</rscale>
<asrwt>0</asrwt>
<pdfrwt beam="1">  1       21 0.14608335E+00 0.20630037E+03</pdfrwt>
<pdfrwt beam="2">  1       21 0.36605781E-01 0.20630037E+03</pdfrwt>
<totfact> 0.22769739E+03</totfact>
</mgrwt>
</event>
<event>
 4    1  0.1091654E+000  0.1744602E+03  0.7546771E-02  0.1173275E+00
         21   -1    0    0  501  502  0.00000000000E+00  0.00000000000E+00  0.20082437864E+03  0.20082437864E+03  0.00000000000E+00 0.  1.
         21   -1    0    0  502  503 -0.00000000000E+00 -0.00000000000E+00 -0.23892489087E+03  0.23892489087E+03  0.00000000000E+00 0.  1.
          6    1    1    2  501    0 -0.26556023317E+02  0.12130606828E+02  0.11390941810E+03  0.20835481643E+03  0.17200000000E+03 0.  1.
         -6    1    1    2    0  503  0.26556023317E+02 -0.12130606828E+02 -0.15200993033E+03  0.23139445308E+03  0.17200000000E+03 0.  1.
<mgrwt>
<rscale>  2 0.17446024E+03</rscale>
<asrwt>0</asrwt>
<pdfrwt beam="1">  1       21 0.50206095E-01 0.17446024E+03</pdfrwt>
<pdfrwt beam="2">  1       21 0.59731222E-01 0.17446024E+03</pdfrwt>
<totfact> 0.10011137E+04</totfact>
</mgrwt>
</event>
<event>
 4    1  0.1091654E+000  0.2578658E+03  0.7546771E-02  0.1108432E+00
         21   -1    0    0  501  502  0.00000000000E+00  0.00000000000E+00  0.79780721986E+02  0.79780721986E+02  0.00000000000E+00 0.  1.
         21   -1    0    0  502  503 -0.00000000000E+00 -0.00000000000E+00 -0.97295388312E+03  0.97295388312E+03  0.00000000000E+00 0. -1.
          6    1    1    2  501    0 -0.48038716364E+02 -0.18601891434E+03 -0.24728698317E+03  0.35727525357E+03  0.17200000000E+03 0. -1.
         -6    1    1    2    0  503  0.48038716364E+02  0.18601891434E+03 -0.64588617796E+03  0.69545935154E+03  0.17200000000E+03 0. -1.
<mgrwt>
<rscale>  2 0.25786577E+03</rscale>
<asrwt>0</asrwt>
<pdfrwt beam="1">  1       21 0.19945180E-01 0.25786577E+03</pdfrwt>
<pdfrwt beam="2">  1       21 0.24323847E+00 0.25786577E+03</pdfrwt>
<totfact> 0.15833677E+03</totfact>
</mgrwt>
</event>
<event>
 4    1  0.1091654E+000  0.2207486E+03  0.7546771E-02  0.1133326E+00
         21   -1    0    0  503  502  0.00000000000E+00  0.00000000000E+00  0.32067581000E+03  0.32067581000E+03  0.00000000000E+00 0.  1.
         21   -1    0    0  501  503 -0.00000000000E+00 -0.00000000000E+00 -0.19011057086E+03  0.19011057086E+03  0.00000000000E+00 0.  1.
          6    1    1    2  501    0 -0.59195113675E+01  0.13824216473E+03 -0.49125271365E+02  0.22614868784E+03  0.17200000000E+03 0.  1.
         -6    1    1    2    0  502  0.59195113675E+01 -0.13824216473E+03  0.17969051050E+03  0.28463769302E+03  0.17200000000E+03 0.  1.
<mgrwt>
<rscale>  2 0.22074858E+03</rscale>
<asrwt>0</asrwt>
<pdfrwt beam="1">  1       21 0.80168952E-01 0.22074858E+03</pdfrwt>
<pdfrwt beam="2">  1       21 0.47527643E-01 0.22074858E+03</pdfrwt>
<totfact> 0.56762753E+03</totfact>
</mgrwt>
</event>
<event>
 4    1  0.1091654E+000  0.2877954E+03  0.7546771E-02  0.1091506E+00
         21   -1    0    0  501  502  0.00000000000E+00  0.00000000000E+00  0.29575869399E+03  0.29575869399E+03  0.00000000000E+00 0. -1.
         21   -1    0    0  502  503 -0.00000000000E+00 -0.00000000000E+00 -0.36326434966E+03  0.36326434966E+03  0.00000000000E+00 0.  1.
          6    1    1    2  501    0  0.11815571347E+03 -0.19819543062E+03  0.12396011465E+03  0.31335652438E+03  0.17200000000E+03 0. -1.
         -6    1    1    2    0  503 -0.11815571347E+03  0.19819543062E+03 -0.19146577033E+03  0.34566651928E+03  0.17200000000E+03 0.  1.
<mgrwt>
<rscale>  2 0.28779542E+03</rscale>
<asrwt>0</asrwt>
<pdfrwt beam="1">  1       21 0.73939674E-01 0.28779542E+03</pdfrwt>
<pdfrwt beam="2">  1       21 0.90816087E-01 0.28779542E+03</pdfrwt>
<totfact> 0.15682866E+03</totfact>
</mgrwt>
</event>
<event>
 4    1  0.1091654E+000  0.3180858E+03  0.7546771E-02  0.1076534E+00
         21   -1    0    0  501  502  0.00000000000E+00  0.00000000000E+00  0.58110352164E+03  0.58110352164E+03  0.00000000000E+00 0. -1.
         21   -1    0    0  502  503 -0.00000000000E+00 -0.00000000000E+00 -0.30488456375E+03  0.30488456375E+03  0.00000000000E+00 0.  1.
          6    1    1    2  501    0  0.26146206899E+03 -0.56852216597E+02  0.42823385809E+03  0.53344430381E+03  0.17200000000E+03 0.  1.
         -6    1    1    2    0  503 -0.26146206899E+03  0.56852216597E+02 -0.15201490019E+03  0.35254378158E+03  0.17200000000E+03 0. -1.
<mgrwt>
<rscale>  2 0.31808582E+03</rscale>
<asrwt>0</asrwt>
<pdfrwt beam="1">  1       21 0.14527588E+00 0.31808582E+03</pdfrwt>
<pdfrwt beam="2">  1       21 0.76221142E-01 0.31808582E+03</pdfrwt>
<totfact> 0.44596268E+02</totfact>
</mgrwt>
</event>
<event>
 4    1  0.1091654E+000  0.2019484E+03  0.7546771E-02  0.1148105E+00
         21   -1    0    0  501  502  0.00000000000E+00  0.00000000000E+00  0.12176893620E+04  0.12176893620E+04  0.00000000000E+00 0.  1.
         21   -1    0    0  502  503 -0.00000000000E+00 -0.00000000000E+00 -0.46522041329E+02  0.46522041329E+02  0.00000000000E+00 0.  1.
          6    1    1    2  501    0  0.63897411596E+02 -0.84358021015E+02  0.92010904497E+03  0.94201051456E+03  0.17200000000E+03 0.  1.
         -6    1    1    2    0  503 -0.63897411596E+02  0.84358021015E+02  0.25105827568E+03  0.32220088874E+03  0.17200000000E+03 0.  1.
<mgrwt>
<rscale>  2 0.20194840E+03</rscale>
<asrwt>0</asrwt>
<pdfrwt beam="1">  1       21 0.30442224E+00 0.20194840E+03</pdfrwt>
<pdfrwt beam="2">  1       21 0.11630514E-01 0.20194840E+03</pdfrwt>
<totfact> 0.19745524E+03</totfact>
</mgrwt>
</event>
<event>
 4    1  0.1091654E+000  0.2676184E+03  0.7546771E-02  0.1102650E+00
         21   -1    0    0  503  502  0.00000000000E+00  0.00000000000E+00  0.47536847809E+02  0.47536847809E+02  0.00000000000E+00 0.  1.
         21   -1    0    0  501  503 -0.00000000000E+00 -0.00000000000E+00 -0.15082438674E+04  0.15082438674E+04  0.00000000000E+00 0.  1.
          6    1    1    2  501    0  0.18015290900E+03  0.97880325095E+02 -0.70477331936E+03  0.75387337156E+03  0.17200000000E+03 0.  1.
         -6    1    1    2    0  502 -0.18015290900E+03 -0.97880325095E+02 -0.75593370026E+03  0.80190734368E+03  0.17200000000E+03 0.  1.
<mgrwt>
<rscale>  2 0.26761844E+03</rscale>
<asrwt>0</asrwt>
<pdfrwt beam="1">  1       21 0.11884213E-01 0.26761844E+03</pdfrwt>
<pdfrwt beam="2">  1       21 0.37706095E+00 0.26761844E+03</pdfrwt>
<totfact> 0.65202235E+02</totfact>
</mgrwt>
</event>
<event>
 4    1  0.1091654E+000  0.1776963E+03  0.7546771E-02  0.1170051E+00
         21   -1    0    0  501  502  0.00000000000E+00  0.00000000000E+00  0.60478580401E+03  0.60478580401E+03  0.00000000000E+00 0. -1.
         21   -1    0    0  502  503 -0.00000000000E+00 -0.00000000000E+00 -0.66860463535E+02  0.66860463535E+02  0.00000000000E+00 0. -1.
          6    1    1    2  501    0  0.32869003417E+01 -0.44510541860E+02  0.42616121899E+03  0.46172435134E+03  0.17200000000E+03 0. -1.
         -6    1    1    2    0  503 -0.32869003417E+01  0.44510541860E+02  0.11176412148E+03  0.20992191620E+03  0.17200000000E+03 0. -1.
<mgrwt>
<rscale>  2 0.17769635E+03</rscale>
<asrwt>0</asrwt>
<pdfrwt beam="1">  1       21 0.15119643E+00 0.17769635E+03</pdfrwt>
<pdfrwt beam="2">  1       21 0.16715118E-01 0.17769635E+03</pdfrwt>
<totfact> 0.95303865E+03</totfact>
</mgrwt>
</event>
<event>
 4    1  0.1091654E+000  0.1766036E+03  0.7546771E-02  0.1171131E+00
         21   -1    0    0  503  502  0.00000000000E+00  0.00000000000E+00  0.19458855646E+03  0.19458855646E+03  0.00000000000E+00 0.  1.
         21   -1    0    0  501  503 -0.00000000000E+00 -0.00000000000E+00 -0.25093873536E+03  0.25093873536E+03  0.00000000000E+00 0. -1.
          6    1    1    2  501    0  0.17116034421E+02  0.36219607675E+02 -0.16206975189E+03  0.23969860886E+03  0.17200000000E+03 0. -1.
         -6    1    1    2    0  502 -0.17116034421E+02 -0.36219607675E+02  0.10571957298E+03  0.20582868295E+03  0.17200000000E+03 0.  1.
<mgrwt>
<rscale>  2 0.17660356E+03</rscale>
<asrwt>0</asrwt>
<pdfrwt beam="1">  1       21 0.48647139E-01 0.17660356E+03</pdfrwt>
<pdfrwt beam="2">  1       21 0.62734684E-01 0.17660356E+03</pdfrwt>
<totfact> 0.96041805E+03</totfact>
</mgrwt>
</event>
<event>
 4    1  0.1091654E+000  0.1843202E+03  0.7546771E-02  0.1163686E+00
         21   -1    0    0  503  502  0.00000000000E+00  0.00000000000E+00  0.17795130615E+03  0.17795130615E+03  0.00000000000E+00 0. -1.
         21   -1    0    0  501  503 -0.00000000000E+00 -0.00000000000E+00 -0.19313472360E+03  0.19313472360E+03  0.00000000000E+00 0.  1.
          6    1    1    2  501    0 -0.68841758732E+01 -0.65897960449E+02 -0.27473988580E+02  0.18635652153E+03  0.17200000000E+03 0. -1.
         -6    1    1    2    0  502  0.68841758732E+01  0.65897960449E+02  0.12290571134E+02  0.18472950822E+03  0.17200000000E+03 0. -1.
<mgrwt>
<rscale>  2 0.18432019E+03</rscale>
<asrwt>0</asrwt>
<pdfrwt beam="1">  1       21 0.44487827E-01 0.18432019E+03</pdfrwt>
<pdfrwt beam="2">  1       21 0.48283681E-01 0.18432019E+03</pdfrwt>
<totfact> 0.19976575E+04</totfact>
</mgrwt>
</event>
<event>
 4    1  0.1091654E+000  0.2810878E+03  0.7546771E-02  0.1095096E+00
         21   -1    0    0  501  502  0.00000000000E+00  0.00000000000E+00  0.79290187967E+02  0.79290187967E+02  0.00000000000E+00 0. -1.
         21   -1    0    0  502  503 -0.00000000000E+00 -0.00000000000E+00 -0.10868786798E+04  0.10868786798E+04  0.00000000000E+00 0. -1.
          6    1    1    2  501    0 -0.19147855181E+03 -0.11297045996E+03 -0.33562601862E+03  0.43778440470E+03  0.17200000000E+03 0. -1.
         -6    1    1    2    0  503  0.19147855181E+03  0.11297045996E+03 -0.67196247321E+03  0.72838446306E+03  0.17200000000E+03 0. -1.
<mgrwt>
<rscale>  2 0.28108782E+03</rscale>
<asrwt>0</asrwt>
<pdfrwt beam="1">  1       21 0.19822547E-01 0.28108782E+03</pdfrwt>
<pdfrwt beam="2">  1       21 0.27171967E+00 0.28108782E+03</pdfrwt>
<totfact> 0.10621296E+03</totfact>
</mgrwt>
</event>
<event>
 4    1  0.1091654E+000  0.1729888E+03  0.7546771E-02  0.1174766E+00
         21   -1    0    0  503  502  0.00000000000E+00  0.00000000000E+00  0.20383349916E+03  0.20383349916E+03  0.00000000000E+00 0. -1.
         21   -1    0    0  501  503 -0.00000000000E+00 -0.00000000000E+00 -0.19840786004E+03  0.19840786004E+03  0.00000000000E+00 0. -1.
          6    1    1    2  501    0  0.16954687961E+02  0.73245969890E+01 -0.99849215469E+02  0.19973726992E+03  0.17200000000E+03 0. -1.
         -6    1    1    2    0  502 -0.16954687961E+02 -0.73245969890E+01  0.10527485459E+03  0.20250408928E+03  0.17200000000E+03 0. -1.
<mgrwt>
<rscale>  2 0.17298876E+03</rscale>
<asrwt>0</asrwt>
<pdfrwt beam="1">  1       21 0.50958375E-01 0.17298876E+03</pdfrwt>
<pdfrwt beam="2">  1       21 0.49601965E-01 0.17298876E+03</pdfrwt>
<totfact> 0.14372707E+04</totfact>
</mgrwt>
</event>
<event>
 4    1  0.1091654E+000  0.1790558E+03  0.7546771E-02  0.1168720E+00
         21   -1    0    0  501  502  0.00000000000E+00  0.00000000000E+00  0.30684100303E+02  0.30684100303E+02  0.00000000000E+00 0. -1.
         21   -1    0    0  502  503 -0.00000000000E+00 -0.00000000000E+00 -0.10961250402E+04  0.10961250402E+04  0.00000000000E+00 0. -1.
          6    1    1    2  501    0 -0.64212408948E+01  0.49353459591E+02 -0.41089313629E+03  0.44821218832E+03  0.17200000000E+03 0. -1.
         -6    1    1    2    0  503  0.64212408948E+01 -0.49353459591E+02 -0.65454780364E+03  0.67859695222E+03  0.17200000000E+03 0. -1.
<mgrwt>
<rscale>  2 0.17905585E+03</rscale>
<asrwt>0</asrwt>
<pdfrwt beam="1">  1       21 0.76710255E-02 0.17905585E+03</pdfrwt>
<pdfrwt beam="2">  1       21 0.27403124E+00 0.17905585E+03</pdfrwt>
<totfact> 0.63130467E+03</totfact>
</mgrwt>
</event>
<event>
 4    1  0.1091654E+000  0.1925833E+03  0.7546771E-02  0.1156152E+00
         21   -1    0    0  503  502  0.00000000000E+00  0.00000000000E+00  0.17389061706E+03  0.17389061706E+03  0.00000000000E+00 0.  1.
         21   -1    0    0  501  503 -0.00000000000E+00 -0.00000000000E+00 -0.24281755898E+03  0.24281755898E+03  0.00000000000E+00 0.  1.
          6    1    1    2  501    0 -0.85392578143E+02 -0.14575157951E+02 -0.10712585999E+03  0.22037304170E+03  0.17200000000E+03 0.  1.
         -6    1    1    2    0  502  0.85392578143E+02  0.14575157951E+02  0.38198918069E+02  0.19633513433E+03  0.17200000000E+03 0.  1.
<mgrwt>
<rscale>  2 0.19258330E+03</rscale>
<asrwt>0</asrwt>
<pdfrwt beam="1">  1       21 0.43472655E-01 0.19258330E+03</pdfrwt>
<pdfrwt beam="2">  1       21 0.60704389E-01 0.19258330E+03</pdfrwt>
<totfact> 0.12853787E+04</totfact>
</mgrwt>
</event>
<event>
 4    1  0.1091654E+000  0.1762996E+03  0.7546771E-02  0.1171433E+00
         21   -1    0    0  503  502  0.00000000000E+00  0.00000000000E+00  0.13688638823E+03  0.13688638823E+03  0.00000000000E+00 0. -1.
         21   -1    0    0  501  503 -0.00000000000E+00 -0.00000000000E+00 -0.36627396358E+03  0.36627396358E+03  0.00000000000E+00 0. -1.
          6    1    1    2  501    0 -0.33623434444E+02 -0.19157455505E+02 -0.26979436798E+03  0.32228953510E+03  0.17200000000E+03 0. -1.
         -6    1    1    2    0  502  0.33623434444E+02  0.19157455505E+02  0.40406792623E+02  0.18087081670E+03  0.17200000000E+03 0. -1.
<mgrwt>
<rscale>  2 0.17629958E+03</rscale>
<asrwt>0</asrwt>
<pdfrwt beam="1">  1       21 0.34221597E-01 0.17629958E+03</pdfrwt>
<pdfrwt beam="2">  1       21 0.91568490E-01 0.17629958E+03</pdfrwt>
<totfact> 0.84054248E+03</totfact>
</mgrwt>
</event>
<event>
 4    1  0.1091654E+000  0.2298868E+03  0.7546771E-02  0.1126719E+00
         21   -1    0    0  501  502  0.00000000000E+00  0.00000000000E+00  0.10471295966E+03  0.10471295966E+03  0.00000000000E+00 0.  1.
         21   -1    0    0  502  503 -0.00000000000E+00 -0.00000000000E+00 -0.52730741528E+03  0.52730741528E+03  0.00000000000E+00 0. -1.
          6    1    1    2  501    0 -0.15229904836E+03  0.83036688170E+01 -0.14585517130E+03  0.27225297435E+03  0.17200000000E+03 0.  1.
         -6    1    1    2    0  503  0.15229904836E+03 -0.83036688170E+01 -0.27673928432E+03  0.35976740060E+03  0.17200000000E+03 0.  1.
<mgrwt>
<rscale>  2 0.22988682E+03</rscale>
<asrwt>0</asrwt>
<pdfrwt beam="1">  1       21 0.26178241E-01 0.22988682E+03</pdfrwt>
<pdfrwt beam="2">  1       21 0.13182685E+00 0.22988682E+03</pdfrwt>
<totfact> 0.56256616E+03</totfact>
</mgrwt>
</event>
<event>
 4    1  0.1091654E+000  0.2466821E+03  0.7546771E-02  0.1115420E+00
         21   -1    0    0  503  502  0.00000000000E+00  0.00000000000E+00  0.99197777736E+02  0.99197777736E+02  0.00000000000E+00 0.  1.
         21   -1    0    0  501  503 -0.00000000000E+00 -0.00000000000E+00 -0.61476755670E+03  0.61476755670E+03  0.00000000000E+00 0. -1.
          6    1    1    2  501    0 -0.16806427619E+03 -0.54977087039E+02 -0.27436144708E+03  0.36895295726E+03  0.17200000000E+03 0. -1.
         -6    1    1    2    0  502  0.16806427619E+03  0.54977087039E+02 -0.24120833188E+03  0.34501237717E+03  0.17200000000E+03 0.  1.
<mgrwt>
<rscale>  2 0.24668215E+03</rscale>
<asrwt>0</asrwt>
<pdfrwt beam="1">  1       21 0.24799445E-01 0.24668215E+03</pdfrwt>
<pdfrwt beam="2">  1       21 0.15369189E+00 0.24668215E+03</pdfrwt>
<totfact> 0.41318898E+03</totfact>
</mgrwt>
</event>
<event>
 4    1  0.1091654E+000  0.2482059E+03  0.7546771E-02  0.1114444E+00
         21   -1    0    0  501  502  0.00000000000E+00  0.00000000000E+00  0.14645585783E+03  0.14645585783E+03  0.00000000000E+00 0.  1.
         21   -1    0    0  502  503 -0.00000000000E+00 -0.00000000000E+00 -0.62108680210E+03  0.62108680210E+03  0.00000000000E+00 0.  1.
          6    1    1    2  501    0 -0.17656929804E+03  0.29076977739E+02 -0.19299366189E+02  0.24895512282E+03  0.17200000000E+03 0.  1.
         -6    1    1    2    0  503  0.17656929804E+03 -0.29076977739E+02 -0.45533157809E+03  0.51858753711E+03  0.17200000000E+03 0.  1.
<mgrwt>
<rscale>  2 0.24820594E+03</rscale>
<asrwt>0</asrwt>
<pdfrwt beam="1">  1       21 0.36613965E-01 0.24820594E+03</pdfrwt>
<pdfrwt beam="2">  1       21 0.15527170E+00 0.24820594E+03</pdfrwt>
<totfact> 0.18695947E+03</totfact>
</mgrwt>
</event>
<event>
 4    1  0.1091654E+000  0.1739021E+03  0.7546771E-02  0.1173839E+00
         21   -1    0    0  503  502  0.00000000000E+00  0.00000000000E+00  0.62992539017E+02  0.62992539017E+02  0.00000000000E+00 0. -1.
         21   -1    0    0  501  503 -0.00000000000E+00 -0.00000000000E+00 -0.59604009998E+03  0.59604009998E+03  0.00000000000E+00 0. -1.
          6    1    1    2  501    0  0.25305367414E+02 -0.41941546145E+01 -0.41186164708E+03  0.44707042945E+03  0.17200000000E+03 0. -1.
         -6    1    1    2    0  502 -0.25305367414E+02  0.41941546145E+01 -0.12118591388E+03  0.21196220955E+03  0.17200000000E+03 0. -1.
<mgrwt>
<rscale>  2 0.17390213E+03</rscale>
<asrwt>0</asrwt>
<pdfrwt beam="1">  1       21 0.15748135E-01 0.17390213E+03</pdfrwt>
<pdfrwt beam="2">  1       21 0.14901002E+00 0.17390213E+03</pdfrwt>
<totfact> 0.11075009E+04</totfact>
</mgrwt>
</event>
<event>
 4    1  0.1091654E+000  0.1804292E+03  0.7546771E-02  0.1167388E+00
         21   -1    0    0  503  502  0.00000000000E+00  0.00000000000E+00  0.74692503953E+02  0.74692503953E+02  0.00000000000E+00 0. -1.
         21   -1    0    0  501  503 -0.00000000000E+00 -0.00000000000E+00 -0.51985911540E+03  0.51985911540E+03  0.00000000000E+00 0. -1.
          6    1    1    2  501    0  0.54402622893E+02  0.33250482356E+01 -0.10307974033E+03  0.20779830170E+03  0.17200000000E+03 0. -1.
         -6    1    1    2    0  502 -0.54402622893E+02 -0.33250482356E+01 -0.34208687112E+03  0.38675331765E+03  0.17200000000E+03 0. -1.
<mgrwt>
<rscale>  2 0.18042921E+03</rscale>
<asrwt>0</asrwt>
<pdfrwt beam="1">  1       21 0.18673126E-01 0.18042921E+03</pdfrwt>
<pdfrwt beam="2">  1       21 0.12996478E+00 0.18042921E+03</pdfrwt>
<totfact> 0.11446484E+04</totfact>
</mgrwt>
</event>
<event>
 4    1  0.1091654E+000  0.1772864E+03  0.7546771E-02  0.1170455E+00
         21   -1    0    0  501  502  0.00000000000E+00  0.00000000000E+00  0.69656875814E+03  0.69656875814E+03  0.00000000000E+00 0. -1.
         21   -1    0    0  502  503 -0.00000000000E+00 -0.00000000000E+00 -0.67023968579E+02  0.67023968579E+02  0.00000000000E+00 0. -1.
          6    1    1    2  501    0 -0.28629926919E+02 -0.32043389958E+02  0.53302531219E+03  0.56173520006E+03  0.17200000000E+03 0. -1.
         -6    1    1    2    0  503  0.28629926919E+02  0.32043389958E+02  0.96519477370E+02  0.20185752665E+03  0.17200000000E+03 0. -1.
<mgrwt>
<rscale>  2 0.17728635E+03</rscale>
<asrwt>0</asrwt>
<pdfrwt beam="1">  1       21 0.17414217E+00 0.17728635E+03</pdfrwt>
<pdfrwt beam="2">  1       21 0.16755994E-01 0.17728635E+03</pdfrwt>
<totfact> 0.64820679E+03</totfact>
</mgrwt>
</event>
<event>
 4    1  0.1091654E+000  0.1800112E+03  0.7546771E-02  0.1167792E+00
         21   -1    0    0  503  502  0.00000000000E+00  0.00000000000E+00  0.15720146716E+03  0.15720146716E+03  0.00000000000E+00 0.  1.
         21   -1    0    0  501  503 -0.00000000000E+00 -0.00000000000E+00 -0.46612954256E+03  0.46612954256E+03  0.00000000000E+00 0.  1.
          6    1    1    2  501    0  0.10850612389E+01 -0.53092982774E+02 -0.38723090604E+03  0.42702671669E+03  0.17200000000E+03 0.  1.
         -6    1    1    2    0  502 -0.10850612389E+01  0.53092982774E+02  0.78302830634E+02  0.19630429303E+03  0.17200000000E+03 0.  1.
<mgrwt>
<rscale>  2 0.18001123E+03</rscale>
<asrwt>0</asrwt>
<pdfrwt beam="1">  1       21 0.39300367E-01 0.18001123E+03</pdfrwt>
<pdfrwt beam="2">  1       21 0.11653238E+00 0.18001123E+03</pdfrwt>
<totfact> 0.35819705E+03</totfact>
</mgrwt>
</event>
<event>
 4    1  0.1091654E+000  0.1839783E+03  0.7546771E-02  0.1164007E+00
         21   -1    0    0  501  502  0.00000000000E+00  0.00000000000E+00  0.45416526991E+03  0.45416526991E+03  0.00000000000E+00 0. -1.
         21   -1    0    0  502  503 -0.00000000000E+00 -0.00000000000E+00 -0.13681198293E+03  0.13681198293E+03  0.00000000000E+00 0. -1.
          6    1    1    2  501    0 -0.29554940002E+02 -0.58228246798E+02  0.35804991501E+03  0.40255156793E+03  0.17200000000E+03 0. -1.
         -6    1    1    2    0  503  0.29554940002E+02  0.58228246798E+02 -0.40696628022E+02  0.18842568492E+03  0.17200000000E+03 0. -1.
<mgrwt>
<rscale>  2 0.18397832E+03</rscale>
<asrwt>0</asrwt>
<pdfrwt beam="1">  1       21 0.11354131E+00 0.18397832E+03</pdfrwt>
<pdfrwt beam="2">  1       21 0.34202997E-01 0.18397832E+03</pdfrwt>
<totfact> 0.50166610E+03</totfact>
</mgrwt>
</event>
<event>
 4    1  0.1091654E+000  0.2439461E+03  0.7546771E-02  0.1117192E+00
         21   -1    0    0  503  502  0.00000000000E+00  0.00000000000E+00  0.79795055482E+03  0.79795055482E+03  0.00000000000E+00 0. -1.
         21   -1    0    0  501  503 -0.00000000000E+00 -0.00000000000E+00 -0.77129702843E+02  0.77129702843E+02  0.00000000000E+00 0. -1.
          6    1    1    2  501    0 -0.14873168176E+03  0.88343674811E+02  0.28083025293E+03  0.37198837213E+03  0.17200000000E+03 0. -1.
         -6    1    1    2    0  502  0.14873168176E+03 -0.88343674811E+02  0.43999059905E+03  0.50309188553E+03  0.17200000000E+03 0. -1.
<mgrwt>
<rscale>  2 0.24394614E+03</rscale>
<asrwt>0</asrwt>
<pdfrwt beam="1">  1       21 0.19948761E+00 0.24394614E+03</pdfrwt>
<pdfrwt beam="2">  1       21 0.19282428E-01 0.24394614E+03</pdfrwt>
<totfact> 0.31943204E+03</totfact>
</mgrwt>
</event>
<event>
 4    1  0.1091654E+000  0.3443176E+03  0.7546771E-02  0.1064972E+00
         21   -1    0    0  501  502  0.00000000000E+00  0.00000000000E+00  0.27565452062E+03  0.27565452062E+03  0.00000000000E+00 0. -1.
         21   -1    0    0  502  503 -0.00000000000E+00 -0.00000000000E+00 -0.47073173469E+03  0.47073173469E+03  0.00000000000E+00 0.  1.
          6    1    1    2  501    0  0.29337300435E+03  0.53878511385E+02  0.12125570342E+02  0.34453104813E+03  0.17200000000E+03 0. -1.
         -6    1    1    2    0  503 -0.29337300435E+03 -0.53878511385E+02 -0.20720278441E+03  0.40185520718E+03  0.17200000000E+03 0.  1.
<mgrwt>
<rscale>  2 0.34431761E+03</rscale>
<asrwt>0</asrwt>
<pdfrwt beam="1">  1       21 0.68913630E-01 0.34431761E+03</pdfrwt>
<pdfrwt beam="2">  1       21 0.11768293E+00 0.34431761E+03</pdfrwt>
<totfact> 0.94758754E+02</totfact>
</mgrwt>
</event>
<event>
 4    1  0.1091654E+000  0.2406738E+03  0.7546771E-02  0.1119345E+00
         21   -1    0    0  501  502  0.00000000000E+00  0.00000000000E+00  0.21134073801E+03  0.21134073801E+03  0.00000000000E+00 0. -1.
         21   -1    0    0  502  503 -0.00000000000E+00 -0.00000000000E+00 -0.27495280974E+03  0.27495280974E+03  0.00000000000E+00 0. -1.
          6    1    1    2  501    0 -0.90061495241E+02  0.14222794049E+03 -0.45520560109E+02  0.24494077115E+03  0.17200000000E+03 0. -1.
         -6    1    1    2    0  503  0.90061495241E+02 -0.14222794049E+03 -0.18091511623E+02  0.24135277660E+03  0.17200000000E+03 0. -1.
<mgrwt>
<rscale>  2 0.24067376E+03</rscale>
<asrwt>0</asrwt>
<pdfrwt beam="1">  1       21 0.52835185E-01 0.24067376E+03</pdfrwt>
<pdfrwt beam="2">  1       21 0.68738202E-01 0.24067376E+03</pdfrwt>
<totfact> 0.63339172E+03</totfact>
</mgrwt>
</event>
<event>
 4    1  0.1091654E+000  0.2021702E+03  0.7546771E-02  0.1147921E+00
         21   -1    0    0  503  502  0.00000000000E+00  0.00000000000E+00  0.21985873336E+03  0.21985873336E+03  0.00000000000E+00 0. -1.
         21   -1    0    0  501  503 -0.00000000000E+00 -0.00000000000E+00 -0.18610927210E+03  0.18610927210E+03  0.00000000000E+00 0.  1.
          6    1    1    2  501    0  0.87915526916E+02  0.59662684455E+02  0.23604219389E+02  0.20354344736E+03  0.17200000000E+03 0. -1.
         -6    1    1    2    0  502 -0.87915526916E+02 -0.59662684455E+02  0.10145241874E+02  0.20242455810E+03  0.17200000000E+03 0.  1.
<mgrwt>
<rscale>  2 0.20217017E+03</rscale>
<asrwt>0</asrwt>
<pdfrwt beam="1">  1       21 0.54964683E-01 0.20217017E+03</pdfrwt>
<pdfrwt beam="2">  1       21 0.46527318E-01 0.20217017E+03</pdfrwt>
<totfact> 0.13732952E+04</totfact>
</mgrwt>
</event>
<event>
 4    1  0.1091654E+000  0.1757131E+03  0.7546771E-02  0.1172018E+00
         21   -1    0    0  503  502  0.00000000000E+00  0.00000000000E+00  0.10456204981E+03  0.10456204981E+03  0.00000000000E+00 0. -1.
         21   -1    0    0  501  503 -0.00000000000E+00 -0.00000000000E+00 -0.40060181613E+03  0.40060181613E+03  0.00000000000E+00 0. -1.
          6    1    1    2  501    0 -0.27923253422E+02 -0.22613567567E+02 -0.27753039091E+03  0.32847861331E+03  0.17200000000E+03 0. -1.
         -6    1    1    2    0  502  0.27923253422E+02  0.22613567567E+02 -0.18509375408E+02  0.17668525263E+03  0.17200000000E+03 0. -1.
<mgrwt>
<rscale>  2 0.17571307E+03</rscale>
<asrwt>0</asrwt>
<pdfrwt beam="1">  1       21 0.26140513E-01 0.17571307E+03</pdfrwt>
<pdfrwt beam="2">  1       21 0.10015045E+00 0.17571307E+03</pdfrwt>
<totfact> 0.11512493E+04</totfact>
</mgrwt>
</event>
<event>
 4    1  0.1091654E+000  0.1966643E+03  0.7546771E-02  0.1152584E+00
         21   -1    0    0  501  502  0.00000000000E+00  0.00000000000E+00  0.60601584291E+02  0.60601584291E+02  0.00000000000E+00 0.  1.
         21   -1    0    0  502  503 -0.00000000000E+00 -0.00000000000E+00 -0.70406459021E+03  0.70406459021E+03  0.00000000000E+00 0.  1.
          6    1    1    2  501    0 -0.83678900382E+02  0.45723967961E+02 -0.20480520543E+03  0.28394015529E+03  0.17200000000E+03 0.  1.
         -6    1    1    2    0  503  0.83678900382E+02 -0.45723967961E+02 -0.43865780049E+03  0.48072601921E+03  0.17200000000E+03 0.  1.
<mgrwt>
<rscale>  2 0.19666428E+03</rscale>
<asrwt>0</asrwt>
<pdfrwt beam="1">  1       21 0.15150396E-01 0.19666428E+03</pdfrwt>
<pdfrwt beam="2">  1       21 0.17601614E+00 0.19666428E+03</pdfrwt>
<totfact> 0.74392853E+03</totfact>
</mgrwt>
</event>
<event>
 4    1  0.1091654E+000  0.1865093E+03  0.7546771E-02  0.1161648E+00
         21   -1    0    0  503  502  0.00000000000E+00  0.00000000000E+00  0.11536883800E+03  0.11536883800E+03  0.00000000000E+00 0.  1.
         21   -1    0    0  501  503 -0.00000000000E+00 -0.00000000000E+00 -0.36058482140E+03  0.36058482140E+03  0.00000000000E+00 0. -1.
          6    1    1    2  501    0  0.72120889022E+02 -0.56102365763E+00 -0.21892525927E+03  0.28760042859E+03  0.17200000000E+03 0. -1.
         -6    1    1    2    0  502 -0.72120889022E+02  0.56102365763E+00 -0.26290724134E+02  0.18835323081E+03  0.17200000000E+03 0.  1.
<mgrwt>
<rscale>  2 0.18650935E+03</rscale>
<asrwt>0</asrwt>
<pdfrwt beam="1">  1       21 0.28842210E-01 0.18650935E+03</pdfrwt>
<pdfrwt beam="2">  1       21 0.90146205E-01 0.18650935E+03</pdfrwt>
<totfact> 0.12090275E+04</totfact>
</mgrwt>
</event>
<event>
 4    1  0.1091654E+000  0.1971614E+03  0.7546771E-02  0.1152156E+00
         21   -1    0    0  503  502  0.00000000000E+00  0.00000000000E+00  0.91944654481E+03  0.91944654481E+03  0.00000000000E+00 0. -1.
         21   -1    0    0  501  503 -0.00000000000E+00 -0.00000000000E+00 -0.43309204902E+02  0.43309204902E+02  0.00000000000E+00 0. -1.
          6    1    1    2  501    0  0.12038973701E+02  0.95622569095E+02  0.36379910549E+03  0.41379028718E+03  0.17200000000E+03 0. -1.
         -6    1    1    2    0  502 -0.12038973701E+02 -0.95622569095E+02  0.51233823442E+03  0.54896546254E+03  0.17200000000E+03 0. -1.
<mgrwt>
<rscale>  2 0.19716139E+03</rscale>
<asrwt>0</asrwt>
<pdfrwt beam="1">  1       21 0.22986157E+00 0.19716139E+03</pdfrwt>
<pdfrwt beam="2">  1       21 0.10827304E-01 0.19716139E+03</pdfrwt>
<totfact> 0.61496251E+03</totfact>
</mgrwt>
</event>
<event>
 4    1  0.1091654E+000  0.2422260E+03  0.7546771E-02  0.1118319E+00
         21   -1    0    0  503  502  0.00000000000E+00  0.00000000000E+00  0.46778458828E+03  0.46778458828E+03  0.00000000000E+00 0.  1.
         21   -1    0    0  501  503 -0.00000000000E+00 -0.00000000000E+00 -0.23170257509E+03  0.23170257509E+03  0.00000000000E+00 0.  1.
          6    1    1    2  501    0  0.17055108447E+03 -0.13291119176E+01 -0.11882260160E+03  0.26980038844E+03  0.17200000000E+03 0.  1.
         -6    1    1    2    0  502 -0.17055108447E+03  0.13291119176E+01  0.35490461479E+03  0.42968677493E+03  0.17200000000E+03 0.  1.
<mgrwt>
<rscale>  2 0.24222601E+03</rscale>
<asrwt>0</asrwt>
<pdfrwt beam="1">  1       21 0.11694615E+00 0.24222601E+03</pdfrwt>
<pdfrwt beam="2">  1       21 0.57925644E-01 0.24222601E+03</pdfrwt>
<totfact> 0.15055580E+03</totfact>
</mgrwt>
</event>
<event>
 4    1  0.1091654E+000  0.2566158E+03  0.7546771E-02  0.1109194E+00
         21   -1    0    0  501  502  0.00000000000E+00  0.00000000000E+00  0.52524139888E+02  0.52524139888E+02  0.00000000000E+00 0. -1.
         21   -1    0    0  502  503 -0.00000000000E+00 -0.00000000000E+00 -0.13666978716E+04  0.13666978716E+04  0.00000000000E+00 0. -1.
          6    1    1    2  501    0  0.46874398356E+02  0.18458184346E+03 -0.45308202791E+03  0.52070624172E+03  0.17200000000E+03 0. -1.
         -6    1    1    2    0  503 -0.46874398356E+02 -0.18458184346E+03 -0.86109170381E+03  0.89851576977E+03  0.17200000000E+03 0. -1.
<mgrwt>
<rscale>  2 0.25661579E+03</rscale>
<asrwt>0</asrwt>
<pdfrwt beam="1">  1       21 0.13131036E-01 0.25661579E+03</pdfrwt>
<pdfrwt beam="2">  1       21 0.34167445E+00 0.25661579E+03</pdfrwt>
<totfact> 0.90171949E+02</totfact>
</mgrwt>
</event>
<event>
 4    1  0.1091654E+000  0.2629855E+03  0.7546771E-02  0.1105363E+00
         21   -1    0    0  503  502  0.00000000000E+00  0.00000000000E+00  0.11461583882E+03  0.11461583882E+03  0.00000000000E+00 0.  1.
         21   -1    0    0  501  503 -0.00000000000E+00 -0.00000000000E+00 -0.10454257389E+04  0.10454257389E+04  0.00000000000E+00 0.  1.
          6    1    1    2  501    0 -0.89864392082E+01 -0.19873758104E+03 -0.84255257685E+03  0.88264161865E+03  0.17200000000E+03 0.  1.
         -6    1    1    2    0  502  0.89864392082E+01  0.19873758104E+03 -0.88257323271E+02  0.27739995912E+03  0.17200000000E+03 0.  1.
<mgrwt>
<rscale>  2 0.26298552E+03</rscale>
<asrwt>0</asrwt>
<pdfrwt beam="1">  1       21 0.28653960E-01 0.26298552E+03</pdfrwt>
<pdfrwt beam="2">  1       21 0.26135643E+00 0.26298552E+03</pdfrwt>
<totfact> 0.61395833E+02</totfact>
</mgrwt>
</event>
<event>
 4    1  0.1091654E+000  0.2013619E+03  0.7546771E-02  0.1148595E+00
         21   -1    0    0  503  502  0.00000000000E+00  0.00000000000E+00  0.74303970408E+03  0.74303970408E+03  0.00000000000E+00 0. -1.
         21   -1    0    0  501  503 -0.00000000000E+00 -0.00000000000E+00 -0.56331727685E+02  0.56331727685E+02  0.00000000000E+00 0. -1.
          6    1    1    2  501    0 -0.96304536937E+02  0.41086079298E+02  0.41406467844E+03  0.46043043739E+03  0.17200000000E+03 0. -1.
         -6    1    1    2    0  502  0.96304536937E+02 -0.41086079298E+02  0.27264329796E+03  0.33894099438E+03  0.17200000000E+03 0. -1.
<mgrwt>
<rscale>  2 0.20136194E+03</rscale>
<asrwt>0</asrwt>
<pdfrwt beam="1">  1       21 0.18575990E+00 0.20136194E+03</pdfrwt>
<pdfrwt beam="2">  1       21 0.14082934E-01 0.20136194E+03</pdfrwt>
<totfact> 0.72661553E+03</totfact>
</mgrwt>
</event>
<event>
 4    1  0.1091654E+000  0.1722779E+03  0.7546771E-02  0.1175493E+00
         21   -1    0    0  501  502  0.00000000000E+00  0.00000000000E+00  0.31117726888E+03  0.31117726888E+03  0.00000000000E+00 0.  1.
         21   -1    0    0  502  503 -0.00000000000E+00 -0.00000000000E+00 -0.17119967474E+03  0.17119967474E+03  0.00000000000E+00 0.  1.
          6    1    1    2  501    0  0.75225105455E+01  0.62522387715E+01  0.23049795019E+03  0.28776550123E+03  0.17200000000E+03 0.  1.
         -6    1    1    2    0  503 -0.75225105455E+01 -0.62522387715E+01 -0.90520356046E+02  0.19461144240E+03  0.17200000000E+03 0.  1.
<mgrwt>
<rscale>  2 0.17227791E+03</rscale>
<asrwt>0</asrwt>
<pdfrwt beam="1">  1       21 0.77794316E-01 0.17227791E+03</pdfrwt>
<pdfrwt beam="2">  1       21 0.42799919E-01 0.17227791E+03</pdfrwt>
<totfact> 0.78089285E+03</totfact>
</mgrwt>
</event>
<event>
 4    1  0.1091654E+000  0.2284970E+03  0.7546771E-02  0.1127702E+00
         21   -1    0    0  501  502  0.00000000000E+00  0.00000000000E+00  0.61523717440E+02  0.61523717440E+02  0.00000000000E+00 0.  1.
         21   -1    0    0  502  503 -0.00000000000E+00 -0.00000000000E+00 -0.86341978938E+03  0.86341978938E+03  0.00000000000E+00 0.  1.
          6    1    1    2  501    0  0.13982156199E+03  0.55469186442E+02 -0.34042110659E+03  0.40999686542E+03  0.17200000000E+03 0.  1.
         -6    1    1    2    0  503 -0.13982156199E+03 -0.55469186442E+02 -0.46147496535E+03  0.51494664140E+03  0.17200000000E+03 0.  1.
<mgrwt>
<rscale>  2 0.22849705E+03</rscale>
<asrwt>0</asrwt>
<pdfrwt beam="1">  1       21 0.15380930E-01 0.22849705E+03</pdfrwt>
<pdfrwt beam="2">  1       21 0.21585495E+00 0.22849705E+03</pdfrwt>
<totfact> 0.38672313E+03</totfact>
</mgrwt>
</event>
<event>
 4    1  0.1091654E+000  0.1908714E+03  0.7546771E-02  0.1157678E+00
         21   -1    0    0  503  502  0.00000000000E+00  0.00000000000E+00  0.42417706253E+03  0.42417706253E+03  0.00000000000E+00 0. -1.
         21   -1    0    0  501  503 -0.00000000000E+00 -0.00000000000E+00 -0.10675359276E+03  0.10675359276E+03  0.00000000000E+00 0. -1.
          6    1    1    2  501    0  0.81847409490E+02 -0.12201936693E+02  0.41349642685E+02  0.19529894687E+03  0.17200000000E+03 0. -1.
         -6    1    1    2    0  502 -0.81847409490E+02  0.12201936693E+02  0.27607382708E+03  0.33563170842E+03  0.17200000000E+03 0. -1.
<mgrwt>
<rscale>  2 0.19087139E+03</rscale>
<asrwt>0</asrwt>
<pdfrwt beam="1">  1       21 0.10604426E+00 0.19087139E+03</pdfrwt>
<pdfrwt beam="2">  1       21 0.26688399E-01 0.19087139E+03</pdfrwt>
<totfact> 0.95471396E+03</totfact>
</mgrwt>
</event>
<event>
 4    1  0.1091654E+000  0.1978373E+03  0.7546771E-02  0.1151577E+00
         21   -1    0    0  503  502  0.00000000000E+00  0.00000000000E+00  0.54266854834E+02  0.54266854834E+02  0.00000000000E+00 0.  1.
         21   -1    0    0  501  503 -0.00000000000E+00 -0.00000000000E+00 -0.73184881805E+03  0.73184881805E+03  0.00000000000E+00 0.  1.
          6    1    1    2  501    0  0.79960500436E+02 -0.56231059797E+02 -0.38610704453E+03  0.43384128844E+03  0.17200000000E+03 0.  1.
         -6    1    1    2    0  502 -0.79960500436E+02  0.56231059797E+02 -0.29147491869E+03  0.35227438445E+03  0.17200000000E+03 0.  1.
<mgrwt>
<rscale>  2 0.19783734E+03</rscale>
<asrwt>0</asrwt>
<pdfrwt beam="1">  1       21 0.13566714E-01 0.19783734E+03</pdfrwt>
<pdfrwt beam="2">  1       21 0.18296220E+00 0.19783734E+03</pdfrwt>
<totfact> 0.81422651E+03</totfact>
</mgrwt>
</event>
<event>
 4    1  0.1091654E+000  0.2161876E+03  0.7546771E-02  0.1136758E+00
         21   -1    0    0  503  502  0.00000000000E+00  0.00000000000E+00  0.18272559389E+03  0.18272559389E+03  0.00000000000E+00 0.  1.
         21   -1    0    0  501  503 -0.00000000000E+00 -0.00000000000E+00 -0.36140520179E+03  0.36140520179E+03  0.00000000000E+00 0.  1.
          6    1    1    2  501    0 -0.55489675413E+02  0.11863383811E+03 -0.23642368153E+03  0.32036424397E+03  0.17200000000E+03 0.  1.
         -6    1    1    2    0  502  0.55489675413E+02 -0.11863383811E+03  0.57744073640E+02  0.22376655171E+03  0.17200000000E+03 0.  1.
<mgrwt>
<rscale>  2 0.21618763E+03</rscale>
<asrwt>0</asrwt>
<pdfrwt beam="1">  1       21 0.45681399E-01 0.21618763E+03</pdfrwt>
<pdfrwt beam="2">  1       21 0.90351300E-01 0.21618763E+03</pdfrwt>
<totfact> 0.46973871E+03</totfact>
</mgrwt>
</event>
<event>
 4    1  0.1091654E+000  0.1807973E+03  0.7546771E-02  0.1167034E+00
         21   -1    0    0  501  502  0.00000000000E+00  0.00000000000E+00  0.28135426204E+03  0.28135426204E+03  0.00000000000E+00 0. -1.
         21   -1    0    0  502  503 -0.00000000000E+00 -0.00000000000E+00 -0.16462722081E+03  0.16462722081E+03  0.00000000000E+00 0. -1.
          6    1    1    2  501    0 -0.12824628584E+02  0.54214170406E+02  0.17933190737E+03  0.25465188075E+03  0.17200000000E+03 0. -1.
         -6    1    1    2    0  503  0.12824628584E+02 -0.54214170406E+02 -0.62604866137E+02  0.19132960209E+03  0.17200000000E+03 0. -1.
<mgrwt>
<rscale>  2 0.18079725E+03</rscale>
<asrwt>0</asrwt>
<pdfrwt beam="1">  1       21 0.70338565E-01 0.18079725E+03</pdfrwt>
<pdfrwt beam="2">  1       21 0.41156806E-01 0.18079725E+03</pdfrwt>
<totfact> 0.10508893E+04</totfact>
</mgrwt>
</event>
<event>
 4    1  0.1091654E+000  0.2699292E+03  0.7546771E-02  0.1101320E+00
         21   -1    0    0  503  502  0.00000000000E+00  0.00000000000E+00  0.13650991663E+03  0.13650991663E+03  0.00000000000E+00 0.  1.
         21   -1    0    0  501  503 -0.00000000000E+00 -0.00000000000E+00 -0.54095704114E+03  0.54095704114E+03  0.00000000000E+00 0.  1.
          6    1    1    2  501    0  0.19582645300E+03 -0.70212239524E+02 -0.24132976512E+03  0.36207984452E+03  0.17200000000E+03 0.  1.
         -6    1    1    2    0  502 -0.19582645300E+03  0.70212239524E+02 -0.16311735939E+03  0.31538711326E+03  0.17200000000E+03 0.  1.
<mgrwt>
<rscale>  2 0.26992917E+03</rscale>
<asrwt>0</asrwt>
<pdfrwt beam="1">  1       21 0.34127480E-01 0.26992917E+03</pdfrwt>
<pdfrwt beam="2">  1       21 0.13523926E+00 0.26992917E+03</pdfrwt>
<totfact> 0.30505679E+03</totfact>
</mgrwt>
</event>
<event>
 4    1  0.1091654E+000  0.2075324E+03  0.7546771E-02  0.1143535E+00
         21   -1    0    0  501  502  0.00000000000E+00  0.00000000000E+00  0.17306222495E+03  0.17306222495E+03  0.00000000000E+00 0. -1.
         21   -1    0    0  502  503 -0.00000000000E+00 -0.00000000000E+00 -0.25140543409E+03  0.25140543409E+03  0.00000000000E+00 0. -1.
          6    1    1    2  501    0  0.60653031476E+02 -0.99029916046E+02 -0.17851336112E+02  0.20829878708E+03  0.17200000000E+03 0. -1.
         -6    1    1    2    0  503 -0.60653031476E+02  0.99029916046E+02 -0.60491873025E+02  0.21616887195E+03  0.17200000000E+03 0. -1.
<mgrwt>
<rscale>  2 0.20753244E+03</rscale>
<asrwt>0</asrwt>
<pdfrwt beam="1">  1       21 0.43265557E-01 0.20753244E+03</pdfrwt>
<pdfrwt beam="2">  1       21 0.62851358E-01 0.20753244E+03</pdfrwt>
<totfact> 0.11922628E+04</totfact>
</mgrwt>
</event>
<event>
 4    1  0.1091654E+000  0.2645280E+03  0.7546771E-02  0.1104453E+00
         21   -1    0    0  501  502  0.00000000000E+00  0.00000000000E+00  0.80832528126E+02  0.80832528126E+02  0.00000000000E+00 0. -1.
         21   -1    0    0  502  503 -0.00000000000E+00 -0.00000000000E+00 -0.10849803881E+04  0.10849803881E+04  0.00000000000E+00 0. -1.
          6    1    1    2  501    0 -0.17085327880E+03 -0.10583117207E+03 -0.76413825603E+03  0.80862992413E+03  0.17200000000E+03 0. -1.
         -6    1    1    2    0  503  0.17085327880E+03  0.10583117207E+03 -0.24000960394E+03  0.35718299210E+03  0.17200000000E+03 0. -1.
<mgrwt>
<rscale>  2 0.26452803E+03</rscale>
<asrwt>0</asrwt>
<pdfrwt beam="1">  1       21 0.20208132E-01 0.26452803E+03</pdfrwt>
<pdfrwt beam="2">  1       21 0.27124509E+00 0.26452803E+03</pdfrwt>
<totfact> 0.10465866E+03</totfact>
</mgrwt>
</event>
<event>
 4    1  0.1091654E+000  0.2098555E+03  0.7546771E-02  0.1141681E+00
         21   -1    0    0  503  502  0.00000000000E+00  0.00000000000E+00  0.11403922541E+03  0.11403922541E+03  0.00000000000E+00 0. -1.
         21   -1    0    0  501  503 -0.00000000000E+00 -0.00000000000E+00 -0.50838843832E+03  0.50838843832E+03  0.00000000000E+00 0.  1.
          6    1    1    2  501    0  0.84377689891E+02  0.85648806822E+02 -0.34976148647E+03  0.40788774201E+03  0.17200000000E+03 0.  1.
         -6    1    1    2    0  502 -0.84377689891E+02 -0.85648806822E+02 -0.44587726436E+02  0.21453992172E+03  0.17200000000E+03 0. -1.
<mgrwt>
<rscale>  2 0.20985546E+03</rscale>
<asrwt>0</asrwt>
<pdfrwt beam="1">  1       21 0.28509807E-01 0.20985546E+03</pdfrwt>
<pdfrwt beam="2">  1       21 0.12709711E+00 0.20985546E+03</pdfrwt>
<totfact> 0.53100027E+03</totfact>
</mgrwt>
</event>
<event>
 4    1  0.1091654E+000  0.3473191E+03  0.7546771E-02  0.1063721E+00
         21   -1    0    0  501  502  0.00000000000E+00  0.00000000000E+00  0.29812520022E+03  0.29812520022E+03  0.00000000000E+00 0. -1.
         21   -1    0    0  502  503 -0.00000000000E+00 -0.00000000000E+00 -0.41027142006E+03  0.41027142006E+03  0.00000000000E+00 0. -1.
          6    1    1    2  501    0 -0.92201776666E+01 -0.30159833821E+03 -0.97605142275E+02  0.36077324331E+03  0.17200000000E+03 0. -1.
         -6    1    1    2    0  503  0.92201776666E+01  0.30159833821E+03 -0.14541077562E+02  0.34762337698E+03  0.17200000000E+03 0. -1.
<mgrwt>
<rscale>  2 0.34731912E+03</rscale>
<asrwt>0</asrwt>
<pdfrwt beam="1">  1       21 0.74531300E-01 0.34731912E+03</pdfrwt>
<pdfrwt beam="2">  1       21 0.10256785E+00 0.34731912E+03</pdfrwt>
<totfact> 0.11128480E+03</totfact>
</mgrwt>
</event>
<event>
 4    1  0.1091654E+000  0.3082563E+03  0.7546771E-02  0.1081185E+00
         21   -1    0    0  503  502  0.00000000000E+00  0.00000000000E+00  0.91538582368E+03  0.91538582368E+03  0.00000000000E+00 0.  1.
         21   -1    0    0  501  503 -0.00000000000E+00 -0.00000000000E+00 -0.12624953049E+03  0.12624953049E+03  0.00000000000E+00 0. -1.
          6    1    1    2  501    0 -0.24896625165E+03 -0.58768421457E+02  0.17497288728E+03  0.35445371081E+03  0.17200000000E+03 0.  1.
         -6    1    1    2    0  502  0.24896625165E+03  0.58768421457E+02  0.61416340591E+03  0.68718164337E+03  0.17200000000E+03 0.  1.
<mgrwt>
<rscale>  2 0.30825626E+03</rscale>
<asrwt>0</asrwt>
<pdfrwt beam="1">  1       21 0.22884644E+00 0.30825626E+03</pdfrwt>
<pdfrwt beam="2">  1       21 0.31562385E-01 0.30825626E+03</pdfrwt>
<totfact> 0.76793584E+02</totfact>
</mgrwt>
</event>
<event>
 4    1  0.1091654E+000  0.2329843E+03  0.7546771E-02  0.1124557E+00
         21   -1    0    0  501  502  0.00000000000E+00  0.00000000000E+00  0.35275417727E+03  0.35275417727E+03  0.00000000000E+00 0. -1.
         21   -1    0    0  502  503 -0.00000000000E+00 -0.00000000000E+00 -0.31515926458E+03  0.31515926458E+03  0.00000000000E+00 0.  1.
          6    1    1    2  501    0  0.14713309572E+03 -0.55222734089E+02  0.25769674329E+03  0.34740366969E+03  0.17200000000E+03 0. -1.
         -6    1    1    2    0  503 -0.14713309572E+03  0.55222734089E+02 -0.22010183060E+03  0.32050977216E+03  0.17200000000E+03 0.  1.
<mgrwt>
<rscale>  2 0.23298433E+03</rscale>
<asrwt>0</asrwt>
<pdfrwt beam="1">  1       21 0.88188544E-01 0.23298433E+03</pdfrwt>
<pdfrwt beam="2">  1       21 0.78789816E-01 0.23298433E+03</pdfrwt>
<totfact> 0.15126243E+03</totfact>
</mgrwt>
</event>
<event>
 4    1  0.1091654E+000  0.2209136E+03  0.7546771E-02  0.1133204E+00
         21   -1    0    0  503  502  0.00000000000E+00  0.00000000000E+00  0.77371479692E+02  0.77371479692E+02  0.00000000000E+00 0.  1.
         21   -1    0    0  501  503 -0.00000000000E+00 -0.00000000000E+00 -0.10174526596E+04  0.10174526596E+04  0.00000000000E+00 0.  1.
          6    1    1    2  501    0 -0.73446152796E+02  0.11757748384E+03 -0.80751470162E+03  0.83718743146E+03  0.17200000000E+03 0.  1.
         -6    1    1    2    0  502  0.73446152796E+02 -0.11757748384E+03 -0.13256647833E+03  0.25763670787E+03  0.17200000000E+03 0.  1.
<mgrwt>
<rscale>  2 0.22091356E+03</rscale>
<asrwt>0</asrwt>
<pdfrwt beam="1">  1       21 0.19342870E-01 0.22091356E+03</pdfrwt>
<pdfrwt beam="2">  1       21 0.25436316E+00 0.22091356E+03</pdfrwt>
<totfact> 0.14915563E+03</totfact>
</mgrwt>
</event>
<event>
 4    1  0.1091654E+000  0.2152310E+03  0.7546771E-02  0.1137489E+00
         21   -1    0    0  501  502  0.00000000000E+00  0.00000000000E+00  0.67172534509E+03  0.67172534509E+03  0.00000000000E+00 0.  1.
         21   -1    0    0  502  503 -0.00000000000E+00 -0.00000000000E+00 -0.10069723230E+03  0.10069723230E+03  0.00000000000E+00 0.  1.
          6    1    1    2  501    0 -0.12675557850E+03  0.25949743249E+02  0.50232362949E+03  0.54649189801E+03  0.17200000000E+03 0.  1.
         -6    1    1    2    0  503  0.12675557850E+03 -0.25949743249E+02  0.68704483300E+02  0.22593067937E+03  0.17200000000E+03 0.  1.
<mgrwt>
<rscale>  2 0.21523096E+03</rscale>
<asrwt>0</asrwt>
<pdfrwt beam="1">  1       21 0.16793132E+00 0.21523096E+03</pdfrwt>
<pdfrwt beam="2">  1       21 0.25174310E-01 0.21523096E+03</pdfrwt>
<totfact> 0.32325410E+03</totfact>
</mgrwt>
</event>
<event>
 4    1  0.1091654E+000  0.2512933E+03  0.7546771E-02  0.1112490E+00
         21   -1    0    0  501  502  0.00000000000E+00  0.00000000000E+00  0.74158078710E+02  0.74158078710E+02  0.00000000000E+00 0.  1.
         21   -1    0    0  502  503 -0.00000000000E+00 -0.00000000000E+00 -0.14295531823E+04  0.14295531823E+04  0.00000000000E+00 0. -1.
          6    1    1    2  501    0  0.58931439864E+02 -0.17346882224E+03 -0.19961345028E+03  0.32092659040E+03  0.17200000000E+03 0.  1.
         -6    1    1    2    0  503 -0.58931439864E+02  0.17346882224E+03 -0.11557816533E+04  0.11827846706E+04  0.17200000000E+03 0. -1.
<mgrwt>
<rscale>  2 0.25129335E+03</rscale>
<asrwt>0</asrwt>
<pdfrwt beam="1">  1       21 0.18539520E-01 0.25129335E+03</pdfrwt>
<pdfrwt beam="2">  1       21 0.35738829E+00 0.25129335E+03</pdfrwt>
<totfact> 0.38748704E+02</totfact>
</mgrwt>
</event>
<event>
 4    1  0.1091654E+000  0.1898629E+03  0.7546771E-02  0.1158585E+00
         21   -1    0    0  501  502  0.00000000000E+00  0.00000000000E+00  0.31142707694E+02  0.31142707694E+02  0.00000000000E+00 0.  1.
         21   -1    0    0  502  503 -0.00000000000E+00 -0.00000000000E+00 -0.20402971730E+04  0.20402971730E+04  0.00000000000E+00 0.  1.
          6    1    1    2  501    0 -0.73034295902E+02  0.33614019465E+02 -0.32329933212E+03  0.37492715137E+03  0.17200000000E+03 0.  1.
         -6    1    1    2    0  503  0.73034295902E+02 -0.33614019465E+02 -0.16858551331E+04  0.16965127293E+04  0.17200000000E+03 0.  1.
<mgrwt>
<rscale>  2 0.18986287E+03</rscale>
<asrwt>0</asrwt>
<pdfrwt beam="1">  1       21 0.77856773E-02 0.18986287E+03</pdfrwt>
<pdfrwt beam="2">  1       21 0.51007427E+00 0.18986287E+03</pdfrwt>
<totfact> 0.20306853E+02</totfact>
</mgrwt>
</event>
<event>
 4    1  0.1091654E+000  0.2246780E+03  0.7546771E-02  0.1130443E+00
         21   -1    0    0  501  502  0.00000000000E+00  0.00000000000E+00  0.28534413196E+03  0.28534413196E+03  0.00000000000E+00 0.  1.
         21   -1    0    0  502  503 -0.00000000000E+00 -0.00000000000E+00 -0.19319389683E+03  0.19319389683E+03  0.00000000000E+00 0. -1.
          6    1    1    2  501    0  0.11523893865E+01  0.14455061771E+03  0.11554073913E+03  0.25264574305E+03  0.17200000000E+03 0.  1.
         -6    1    1    2    0  503 -0.11523893865E+01 -0.14455061771E+03 -0.23390503995E+02  0.22589228575E+03  0.17200000000E+03 0. -1.
<mgrwt>
<rscale>  2 0.22467801E+03</rscale>
<asrwt>0</asrwt>
<pdfrwt beam="1">  1       21 0.71336033E-01 0.22467801E+03</pdfrwt>
<pdfrwt beam="2">  1       21 0.48298474E-01 0.22467801E+03</pdfrwt>
<totfact> 0.71153399E+03</totfact>
</mgrwt>
</event>
<event>
 4    1  0.1091654E+000  0.1805036E+03  0.7546771E-02  0.1167317E+00
         21   -1    0    0  503  502  0.00000000000E+00  0.00000000000E+00  0.23612665690E+03  0.23612665690E+03  0.00000000000E+00 0.  1.
         21   -1    0    0  501  503 -0.00000000000E+00 -0.00000000000E+00 -0.52813575872E+03  0.52813575872E+03  0.00000000000E+00 0.  1.
          6    1    1    2  501    0 -0.44450036888E+02 -0.31964532463E+02 -0.47444519124E+03  0.50762168650E+03  0.17200000000E+03 0.  1.
         -6    1    1    2    0  502  0.44450036888E+02  0.31964532463E+02  0.18243608943E+03  0.25664072911E+03  0.17200000000E+03 0.  1.
<mgrwt>
<rscale>  2 0.18050357E+03</rscale>
<asrwt>0</asrwt>
<pdfrwt beam="1">  1       21 0.59031665E-01 0.18050357E+03</pdfrwt>
<pdfrwt beam="2">  1       21 0.13203394E+00 0.18050357E+03</pdfrwt>
<totfact> 0.11293826E+03</totfact>
</mgrwt>
</event>
<event>
 4    1  0.1091654E+000  0.1800961E+03  0.7546771E-02  0.1167710E+00
         21   -1    0    0  503  502  0.00000000000E+00  0.00000000000E+00  0.82604427929E+03  0.82604427929E+03  0.00000000000E+00 0. -1.
         21   -1    0    0  501  503 -0.00000000000E+00 -0.00000000000E+00 -0.42794833678E+02  0.42794833678E+02  0.00000000000E+00 0. -1.
          6    1    1    2  501    0 -0.35090021622E+02  0.40240424016E+02  0.26685970022E+03  0.32194518314E+03  0.17200000000E+03 0. -1.
         -6    1    1    2    0  502  0.35090021622E+02 -0.40240424016E+02  0.51638974539E+03  0.54689392983E+03  0.17200000000E+03 0. -1.
<mgrwt>
<rscale>  2 0.18009609E+03</rscale>
<asrwt>0</asrwt>
<pdfrwt beam="1">  1       21 0.20651102E+00 0.18009609E+03</pdfrwt>
<pdfrwt beam="2">  1       21 0.10698711E-01 0.18009609E+03</pdfrwt>
<totfact> 0.88861583E+03</totfact>
</mgrwt>
</event>
<event>
 4    1  0.1091654E+000  0.1811593E+03  0.7546771E-02  0.1166686E+00
         21   -1    0    0  501  502  0.00000000000E+00  0.00000000000E+00  0.12456241414E+03  0.12456241414E+03  0.00000000000E+00 0.  1.
         21   -1    0    0  502  503 -0.00000000000E+00 -0.00000000000E+00 -0.36820595086E+03  0.36820595086E+03  0.00000000000E+00 0.  1.
          6    1    1    2  501    0  0.29496430516E+02  0.48627533320E+02  0.95831731120E+01  0.18141255088E+03  0.17200000000E+03 0.  1.
         -6    1    1    2    0  503 -0.29496430516E+02 -0.48627533320E+02 -0.25322670983E+03  0.31135581411E+03  0.17200000000E+03 0.  1.
<mgrwt>
<rscale>  2 0.18115926E+03</rscale>
<asrwt>0</asrwt>
<pdfrwt beam="1">  1       21 0.31140604E-01 0.18115926E+03</pdfrwt>
<pdfrwt beam="2">  1       21 0.92051487E-01 0.18115926E+03</pdfrwt>
<totfact> 0.99584596E+03</totfact>
</mgrwt>
</event>
<event>
 4    1  0.1091654E+000  0.2061159E+03  0.7546771E-02  0.1144679E+00
         21   -1    0    0  501  502  0.00000000000E+00  0.00000000000E+00  0.81211382032E+02  0.81211382032E+02  0.00000000000E+00 0. -1.
         21   -1    0    0  502  503 -0.00000000000E+00 -0.00000000000E+00 -0.55442630965E+03  0.55442630965E+03  0.00000000000E+00 0. -1.
          6    1    1    2  501    0 -0.95885439524E+02  0.60874730474E+02 -0.16109214725E+03  0.26159975197E+03  0.17200000000E+03 0. -1.
         -6    1    1    2    0  503  0.95885439524E+02 -0.60874730474E+02 -0.31212278036E+03  0.37403793971E+03  0.17200000000E+03 0. -1.
<mgrwt>
<rscale>  2 0.20611587E+03</rscale>
<asrwt>0</asrwt>
<pdfrwt beam="1">  1       21 0.20302846E-01 0.20611587E+03</pdfrwt>
<pdfrwt beam="2">  1       21 0.13860658E+00 0.20611587E+03</pdfrwt>
<totfact> 0.81570536E+03</totfact>
</mgrwt>
</event>
<event>
 4    1  0.1091654E+000  0.1804948E+03  0.7546771E-02  0.1167325E+00
         21   -1    0    0  503  502  0.00000000000E+00  0.00000000000E+00  0.10578816553E+04  0.10578816553E+04  0.00000000000E+00 0. -1.
         21   -1    0    0  501  503 -0.00000000000E+00 -0.00000000000E+00 -0.56900596145E+02  0.56900596145E+02  0.00000000000E+00 0. -1.
          6    1    1    2  501    0 -0.46332865964E+02 -0.29114202012E+02  0.12295195817E+03  0.21839312087E+03  0.17200000000E+03 0. -1.
         -6    1    1    2    0  502  0.46332865964E+02  0.29114202012E+02  0.87802910096E+03  0.89638913054E+03  0.17200000000E+03 0. -1.
<mgrwt>
<rscale>  2 0.18049480E+03</rscale>
<asrwt>0</asrwt>
<pdfrwt beam="1">  1       21 0.26447035E+00 0.18049480E+03</pdfrwt>
<pdfrwt beam="2">  1       21 0.14225152E-01 0.18049480E+03</pdfrwt>
<totfact> 0.23989577E+03</totfact>
</mgrwt>
</event>
<event>
 4    1  0.1091654E+000  0.2151315E+03  0.7546771E-02  0.1137566E+00
         21   -1    0    0  503  502  0.00000000000E+00  0.00000000000E+00  0.17512306953E+03  0.17512306953E+03  0.00000000000E+00 0.  1.
         21   -1    0    0  501  503 -0.00000000000E+00 -0.00000000000E+00 -0.30793680829E+03  0.30793680829E+03  0.00000000000E+00 0. -1.
          6    1    1    2  501    0 -0.61518238706E+02 -0.11363575066E+03 -0.15734890338E+03  0.26653377819E+03  0.17200000000E+03 0. -1.
         -6    1    1    2    0  502  0.61518238706E+02  0.11363575066E+03  0.24535164620E+02  0.21652609964E+03  0.17200000000E+03 0.  1.
<mgrwt>
<rscale>  2 0.21513154E+03</rscale>
<asrwt>0</asrwt>
<pdfrwt beam="1">  1       21 0.43780768E-01 0.21513154E+03</pdfrwt>
<pdfrwt beam="2">  1       21 0.76984202E-01 0.21513154E+03</pdfrwt>
<totfact> 0.73983358E+03</totfact>
</mgrwt>
</event>
<event>
 4    1  0.1091654E+000  0.3131551E+03  0.7546771E-02  0.1078843E+00
         21   -1    0    0  503  502  0.00000000000E+00  0.00000000000E+00  0.59148336002E+03  0.59148336002E+03  0.00000000000E+00 0.  1.
         21   -1    0    0  501  503 -0.00000000000E+00 -0.00000000000E+00 -0.28307772827E+03  0.28307772827E+03  0.00000000000E+00 0. -1.
          6    1    1    2  501    0 -0.26054204445E+03  0.24493718311E+02 -0.12725987946E+03  0.33802540745E+03  0.17200000000E+03 0. -1.
         -6    1    1    2    0  502  0.26054204445E+03 -0.24493718311E+02  0.43566551120E+03  0.53653568084E+03  0.17200000000E+03 0.  1.
<mgrwt>
<rscale>  2 0.31315507E+03</rscale>
<asrwt>0</asrwt>
<pdfrwt beam="1">  1       21 0.14787084E+00 0.31315507E+03</pdfrwt>
<pdfrwt beam="2">  1       21 0.70769433E-01 0.31315507E+03</pdfrwt>
<totfact> 0.50454504E+02</totfact>
</mgrwt>
</event>
<event>
 4    1  0.1091654E+000  0.2078411E+03  0.7546771E-02  0.1143287E+00
         21   -1    0    0  503  502  0.00000000000E+00  0.00000000000E+00  0.77796810071E+02  0.77796810071E+02  0.00000000000E+00 0. -1.
         21   -1    0    0  501  503 -0.00000000000E+00 -0.00000000000E+00 -0.72605144741E+03  0.72605144741E+03  0.00000000000E+00 0. -1.
          6    1    1    2  501    0 -0.11352296932E+03 -0.26952839942E+02 -0.51906054358E+03  0.55912589641E+03  0.17200000000E+03 0. -1.
         -6    1    1    2    0  502  0.11352296932E+03  0.26952839942E+02 -0.12919409376E+03  0.24472236107E+03  0.17200000000E+03 0. -1.
<mgrwt>
<rscale>  2 0.20784109E+03</rscale>
<asrwt>0</asrwt>
<pdfrwt beam="1">  1       21 0.19449203E-01 0.20784109E+03</pdfrwt>
<pdfrwt beam="2">  1       21 0.18151286E+00 0.20784109E+03</pdfrwt>
<totfact> 0.42630197E+03</totfact>
</mgrwt>
</event>
<event>
 4    1  0.1091654E+000  0.1720966E+03  0.7546771E-02  0.1175679E+00
         21   -1    0    0  503  502  0.00000000000E+00  0.00000000000E+00  0.74075132064E+03  0.74075132064E+03  0.00000000000E+00 0.  1.
         21   -1    0    0  501  503 -0.00000000000E+00 -0.00000000000E+00 -0.12767400579E+03  0.12767400579E+03  0.00000000000E+00 0.  1.
          6    1    1    2  501    0  0.37822432422E+01 -0.43523109318E+01 -0.53317946622E+02  0.18016673224E+03  0.17200000000E+03 0.  1.
         -6    1    1    2    0  502 -0.37822432422E+01  0.43523109318E+01  0.66639526146E+03  0.68825859419E+03  0.17200000000E+03 0.  1.
<mgrwt>
<rscale>  2 0.17209662E+03</rscale>
<asrwt>0</asrwt>
<pdfrwt beam="1">  1       21 0.18518782E+00 0.17209662E+03</pdfrwt>
<pdfrwt beam="2">  1       21 0.31918503E-01 0.17209662E+03</pdfrwt>
<totfact> 0.16205573E+03</totfact>
</mgrwt>
</event>
<event>
 4    1  0.1091654E+000  0.2008085E+03  0.7546771E-02  0.1149059E+00
         21   -1    0    0  501  502  0.00000000000E+00  0.00000000000E+00  0.38235103395E+03  0.38235103395E+03  0.00000000000E+00 0. -1.
         21   -1    0    0  502  503 -0.00000000000E+00 -0.00000000000E+00 -0.14624009124E+03  0.14624009124E+03  0.00000000000E+00 0.  1.
          6    1    1    2  501    0 -0.10357944661E+03 -0.33703602777E+01  0.25761591619E+03  0.32663438484E+03  0.17200000000E+03 0. -1.
         -6    1    1    2    0  503  0.10357944661E+03  0.33703602777E+01 -0.21504973476E+02  0.20195674035E+03  0.17200000000E+03 0.  1.
<mgrwt>
<rscale>  2 0.20080852E+03</rscale>
<asrwt>0</asrwt>
<pdfrwt beam="1">  1       21 0.95587757E-01 0.20080852E+03</pdfrwt>
<pdfrwt beam="2">  1       21 0.36560024E-01 0.20080852E+03</pdfrwt>
<totfact> 0.65474229E+03</totfact>
</mgrwt>
</event>
<event>
 4    1  0.1091654E+000  0.2191152E+03  0.7546771E-02  0.1134544E+00
         21   -1    0    0  501  502  0.00000000000E+00  0.00000000000E+00  0.14058441228E+03  0.14058441228E+03  0.00000000000E+00 0. -1.
         21   -1    0    0  502  503 -0.00000000000E+00 -0.00000000000E+00 -0.34858637398E+03  0.34858637398E+03  0.00000000000E+00 0. -1.
          6    1    1    2  501    0  0.23857736306E+02  0.13363489323E+03 -0.69161399559E+02  0.22977113713E+03  0.17200000000E+03 0. -1.
         -6    1    1    2    0  503 -0.23857736306E+02 -0.13363489323E+03 -0.13884056214E+03  0.25939964913E+03  0.17200000000E+03 0. -1.
<mgrwt>
<rscale>  2 0.21911521E+03</rscale>
<asrwt>0</asrwt>
<pdfrwt beam="1">  1       21 0.35146103E-01 0.21911521E+03</pdfrwt>
<pdfrwt beam="2">  1       21 0.87146593E-01 0.21911521E+03</pdfrwt>
<totfact> 0.86714967E+03</totfact>
</mgrwt>
</event>
<event>
 4    1  0.1091654E+000  0.1881972E+03  0.7546771E-02  0.1160097E+00
         21   -1    0    0  501  502  0.00000000000E+00  0.00000000000E+00  0.32238096436E+03  0.32238096436E+03  0.00000000000E+00 0. -1.
         21   -1    0    0  502  503 -0.00000000000E+00 -0.00000000000E+00 -0.11025421969E+03  0.11025421969E+03  0.00000000000E+00 0. -1.
          6    1    1    2  501    0 -0.76371619042E+02 -0.12486731575E+01  0.93200449443E+02  0.21001073105E+03  0.17200000000E+03 0. -1.
         -6    1    1    2    0  503  0.76371619042E+02  0.12486731575E+01  0.11892629522E+03  0.22262445300E+03  0.17200000000E+03 0. -1.
<mgrwt>
<rscale>  2 0.18819719E+03</rscale>
<asrwt>0</asrwt>
<pdfrwt beam="1">  1       21 0.80595239E-01 0.18819719E+03</pdfrwt>
<pdfrwt beam="2">  1       21 0.27563556E-01 0.18819719E+03</pdfrwt>
<totfact> 0.17033148E+04</totfact>
</mgrwt>
</event>
<event>
 4    1  0.1091654E+000  0.2094725E+03  0.7546771E-02  0.1141984E+00
         21   -1    0    0  501  502  0.00000000000E+00  0.00000000000E+00  0.12450541158E+04  0.12450541158E+04  0.00000000000E+00 0. -1.
         21   -1    0    0  502  503 -0.00000000000E+00 -0.00000000000E+00 -0.36845014203E+02  0.36845014203E+02  0.00000000000E+00 0. -1.
          6    1    1    2  501    0 -0.61169544631E+02  0.10272796027E+03  0.47043165852E+03  0.51496086487E+03  0.17200000000E+03 0. -1.
         -6    1    1    2    0  503  0.61169544631E+02 -0.10272796027E+03  0.73777744312E+03  0.76693826518E+03  0.17200000000E+03 0. -1.
<mgrwt>
<rscale>  2 0.20947254E+03</rscale>
<asrwt>0</asrwt>
<pdfrwt beam="1">  1       21 0.31126339E+00 0.20947254E+03</pdfrwt>
<pdfrwt beam="2">  1       21 0.92112577E-02 0.20947254E+03</pdfrwt>
<totfact> 0.27013983E+03</totfact>
</mgrwt>
</event>
<event>
 4    1  0.1091654E+000  0.1944133E+03  0.7546771E-02  0.1154540E+00
         21   -1    0    0  501  502  0.00000000000E+00  0.00000000000E+00  0.13658318424E+03  0.13658318424E+03  0.00000000000E+00 0. -1.
         21   -1    0    0  502  503 -0.00000000000E+00 -0.00000000000E+00 -0.77241805934E+03  0.77241805934E+03  0.00000000000E+00 0. -1.
          6    1    1    2  501    0 -0.71999056499E+02 -0.55033306234E+02  0.46176070912E+02  0.19982181677E+03  0.17200000000E+03 0. -1.
         -6    1    1    2    0  503  0.71999056499E+02  0.55033306234E+02 -0.68201094601E+03  0.70917942681E+03  0.17200000000E+03 0. -1.
<mgrwt>
<rscale>  2 0.19441329E+03</rscale>
<asrwt>0</asrwt>
<pdfrwt beam="1">  1       21 0.34145797E-01 0.19441329E+03</pdfrwt>
<pdfrwt beam="2">  1       21 0.19310451E+00 0.19441329E+03</pdfrwt>
<totfact> 0.12275820E+03</totfact>
</mgrwt>
</event>
<event>
 4    1  0.1091654E+000  0.1766156E+03  0.7546771E-02  0.1171119E+00
         21   -1    0    0  503  502  0.00000000000E+00  0.00000000000E+00  0.56679899219E+03  0.56679899219E+03  0.00000000000E+00 0. -1.
         21   -1    0    0  501  503 -0.00000000000E+00 -0.00000000000E+00 -0.58023740799E+02  0.58023740799E+02  0.00000000000E+00 0. -1.
          6    1    1    2  501    0 -0.52736554572E+01  0.39765046360E+02  0.18346915496E+03  0.25466448746E+03  0.17200000000E+03 0. -1.
         -6    1    1    2    0  502  0.52736554572E+01 -0.39765046360E+02  0.32530609643E+03  0.37015824553E+03  0.17200000000E+03 0. -1.
<mgrwt>
<rscale>  2 0.17661560E+03</rscale>
<asrwt>0</asrwt>
<pdfrwt beam="1">  1       21 0.14169973E+00 0.17661560E+03</pdfrwt>
<pdfrwt beam="2">  1       21 0.14505937E-01 0.17661560E+03</pdfrwt>
<totfact> 0.14625598E+04</totfact>
</mgrwt>
</event>
<event>
 4    1  0.1091654E+000  0.2047886E+03  0.7546771E-02  0.1145761E+00
         21   -1    0    0  501  502  0.00000000000E+00  0.00000000000E+00  0.70839943770E+03  0.70839943770E+03  0.00000000000E+00 0.  1.
         21   -1    0    0  502  503 -0.00000000000E+00 -0.00000000000E+00 -0.90203856290E+02  0.90203856290E+02  0.00000000000E+00 0.  1.
          6    1    1    2  501    0  0.10809017196E+03  0.25901134296E+02  0.54318919054E+03  0.58051085326E+03  0.17200000000E+03 0.  1.
         -6    1    1    2    0  503 -0.10809017196E+03 -0.25901134296E+02  0.75006390865E+02  0.21809244073E+03  0.17200000000E+03 0.  1.
<mgrwt>
<rscale>  2 0.20478856E+03</rscale>
<asrwt>0</asrwt>
<pdfrwt beam="1">  1       21 0.17709984E+00 0.20478856E+03</pdfrwt>
<pdfrwt beam="2">  1       21 0.22550966E-01 0.20478856E+03</pdfrwt>
<totfact> 0.34699703E+03</totfact>
</mgrwt>
</event>
<event>
 4    1  0.1091654E+000  0.2034381E+03  0.7546771E-02  0.1146870E+00
         21   -1    0    0  501  502  0.00000000000E+00  0.00000000000E+00  0.15165120553E+04  0.15165120553E+04  0.00000000000E+00 0. -1.
         21   -1    0    0  502  503 -0.00000000000E+00 -0.00000000000E+00 -0.95120365074E+02  0.95120365074E+02  0.00000000000E+00 0. -1.
          6    1    1    2  501    0  0.71466142622E+02  0.81826865521E+02  0.13911647761E+04  0.14059610520E+04  0.17200000000E+03 0. -1.
         -6    1    1    2    0  503 -0.71466142622E+02 -0.81826865521E+02  0.30226914208E+02  0.20567136846E+03  0.17200000000E+03 0. -1.
<mgrwt>
<rscale>  2 0.20343806E+03</rscale>
<asrwt>0</asrwt>
<pdfrwt beam="1">  1       21 0.37912794E+00 0.20343806E+03</pdfrwt>
<pdfrwt beam="2">  1       21 0.23780096E-01 0.20343806E+03</pdfrwt>
<totfact> 0.19155856E+02</totfact>
</mgrwt>
</event>
<event>
 4    1  0.1091654E+000  0.2567024E+03  0.7546771E-02  0.1109141E+00
         21   -1    0    0  503  502  0.00000000000E+00  0.00000000000E+00  0.49420201073E+02  0.49420201073E+02  0.00000000000E+00 0.  1.
         21   -1    0    0  501  503 -0.00000000000E+00 -0.00000000000E+00 -0.20773661249E+04  0.20773661249E+04  0.00000000000E+00 0.  1.
          6    1    1    2  501    0  0.59822399932E+02  0.18092372226E+03 -0.16503559299E+04  0.16702008287E+04  0.17200000000E+03 0.  1.
         -6    1    1    2    0  502 -0.59822399932E+02 -0.18092372226E+03 -0.37758999390E+03  0.45658549725E+03  0.17200000000E+03 0.  1.
<mgrwt>
<rscale>  2 0.25670238E+03</rscale>
<asrwt>0</asrwt>
<pdfrwt beam="1">  1       21 0.12355050E-01 0.25670238E+03</pdfrwt>
<pdfrwt beam="2">  1       21 0.51934153E+00 0.25670238E+03</pdfrwt>
<totfact> 0.69196286E+01</totfact>
</mgrwt>
</event>
<event>
 4    1  0.1091654E+000  0.2214796E+03  0.7546771E-02  0.1132785E+00
         21   -1    0    0  503  502  0.00000000000E+00  0.00000000000E+00  0.12080600052E+04  0.12080600052E+04  0.00000000000E+00 0.  1.
         21   -1    0    0  501  503 -0.00000000000E+00 -0.00000000000E+00 -0.45111229861E+02  0.45111229861E+02  0.00000000000E+00 0. -1.
          6    1    1    2  501    0  0.11215550093E+03 -0.83008291451E+02  0.38343731372E+03  0.44280628540E+03  0.17200000000E+03 0.  1.
         -6    1    1    2    0  502 -0.11215550093E+03  0.83008291451E+02  0.77951146158E+03  0.81036494962E+03  0.17200000000E+03 0.  1.
<mgrwt>
<rscale>  2 0.22147964E+03</rscale>
<asrwt>0</asrwt>
<pdfrwt beam="1">  1       21 0.30201489E+00 0.22147964E+03</pdfrwt>
<pdfrwt beam="2">  1       21 0.11277811E-01 0.22147964E+03</pdfrwt>
<totfact> 0.21053045E+03</totfact>
</mgrwt>
</event>
<event>
 4    1  0.1091654E+000  0.3064099E+03  0.7546771E-02  0.1082080E+00
         21   -1    0    0  501  502  0.00000000000E+00  0.00000000000E+00  0.26867823594E+03  0.26867823594E+03  0.00000000000E+00 0.  1.
         21   -1    0    0  502  503 -0.00000000000E+00 -0.00000000000E+00 -0.48252505847E+03  0.48252505847E+03  0.00000000000E+00 0.  1.
          6    1    1    2  501    0  0.19245998744E+03 -0.16511266160E+03  0.90333170744E+02  0.31944814841E+03  0.17200000000E+03 0.  1.
         -6    1    1    2    0  503 -0.19245998744E+03  0.16511266160E+03 -0.30417999328E+03  0.43175514600E+03  0.17200000000E+03 0.  1.
<mgrwt>
<rscale>  2 0.30640992E+03</rscale>
<asrwt>0</asrwt>
<pdfrwt beam="1">  1       21 0.67169560E-01 0.30640992E+03</pdfrwt>
<pdfrwt beam="2">  1       21 0.12063126E+00 0.30640992E+03</pdfrwt>
<totfact> 0.96444100E+02</totfact>
</mgrwt>
</event>
<event>
 4    1  0.1091654E+000  0.2188298E+03  0.7546771E-02  0.1134758E+00
         21   -1    0    0  503  502  0.00000000000E+00  0.00000000000E+00  0.23794594431E+03  0.23794594431E+03  0.00000000000E+00 0. -1.
         21   -1    0    0  501  503 -0.00000000000E+00 -0.00000000000E+00 -0.37800262917E+03  0.37800262917E+03  0.00000000000E+00 0. -1.
          6    1    1    2  501    0  0.57217693095E+02 -0.12259134332E+03  0.14056789405E+03  0.26008812872E+03  0.17200000000E+03 0. -1.
         -6    1    1    2    0  502 -0.57217693095E+02  0.12259134332E+03 -0.28062457891E+03  0.35586044476E+03  0.17200000000E+03 0. -1.
<mgrwt>
<rscale>  2 0.21882985E+03</rscale>
<asrwt>0</asrwt>
<pdfrwt beam="1">  1       21 0.59486487E-01 0.21882985E+03</pdfrwt>
<pdfrwt beam="2">  1       21 0.94500657E-01 0.21882985E+03</pdfrwt>
<totfact> 0.24208517E+03</totfact>
</mgrwt>
</event>
<event>
 4    1  0.1091654E+000  0.1737089E+03  0.7546771E-02  0.1174034E+00
         21   -1    0    0  503  502  0.00000000000E+00  0.00000000000E+00  0.14938250789E+04  0.14938250789E+04  0.00000000000E+00 0.  1.
         21   -1    0    0  501  503 -0.00000000000E+00 -0.00000000000E+00 -0.43549238864E+02  0.43549238864E+02  0.00000000000E+00 0.  1.
          6    1    1    2  501    0 -0.14058149200E+02  0.19828193900E+02  0.16228013150E+03  0.23771754229E+03  0.17200000000E+03 0.  1.
         -6    1    1    2    0  502  0.14058149200E+02 -0.19828193900E+02  0.12879957086E+04  0.12996567755E+04  0.17200000000E+03 0.  1.
<mgrwt>
<rscale>  2 0.17370892E+03</rscale>
<asrwt>0</asrwt>
<pdfrwt beam="1">  1       21 0.37345610E+00 0.17370892E+03</pdfrwt>
<pdfrwt beam="2">  1       21 0.10887315E-01 0.17370892E+03</pdfrwt>
<totfact> 0.91166927E+02</totfact>
</mgrwt>
</event>
<event>
 4    1  0.1091654E+000  0.1858577E+03  0.7546771E-02  0.1162251E+00
         21   -1    0    0  501  502  0.00000000000E+00  0.00000000000E+00  0.27028356310E+02  0.27028356310E+02  0.00000000000E+00 0.  1.
         21   -1    0    0  502  503 -0.00000000000E+00 -0.00000000000E+00 -0.18078907046E+04  0.18078907046E+04  0.00000000000E+00 0.  1.
          6    1    1    2  501    0 -0.28352278582E+02  0.64461203338E+02 -0.39374627561E+03  0.43540696824E+03  0.17200000000E+03 0.  1.
         -6    1    1    2    0  503  0.28352278582E+02 -0.64461203338E+02 -0.13871160727E+04  0.13995120926E+04  0.17200000000E+03 0.  1.
<mgrwt>
<rscale>  2 0.18585774E+03</rscale>
<asrwt>0</asrwt>
<pdfrwt beam="1">  1       21 0.67570893E-02 0.18585774E+03</pdfrwt>
<pdfrwt beam="2">  1       21 0.45197266E+00 0.18585774E+03</pdfrwt>
<totfact> 0.65661764E+02</totfact>
</mgrwt>
</event>
<event>
 4    1  0.1091654E+000  0.1832753E+03  0.7546771E-02  0.1164670E+00
         21   -1    0    0  503  502  0.00000000000E+00  0.00000000000E+00  0.11493731376E+03  0.11493731376E+03  0.00000000000E+00 0.  1.
         21   -1    0    0  501  503 -0.00000000000E+00 -0.00000000000E+00 -0.30774645519E+03  0.30774645519E+03  0.00000000000E+00 0.  1.
          6    1    1    2  501    0 -0.17958073716E+02  0.60690658927E+02 -0.48972060902E+02  0.18970532739E+03  0.17200000000E+03 0.  1.
         -6    1    1    2    0  502  0.17958073716E+02 -0.60690658927E+02 -0.14383708053E+03  0.23297844155E+03  0.17200000000E+03 0.  1.
<mgrwt>
<rscale>  2 0.18327534E+03</rscale>
<asrwt>0</asrwt>
<pdfrwt beam="1">  1       21 0.28734329E-01 0.18327534E+03</pdfrwt>
<pdfrwt beam="2">  1       21 0.76936613E-01 0.18327534E+03</pdfrwt>
<totfact> 0.17503054E+04</totfact>
</mgrwt>
</event>
<event>
 4    1  0.1091654E+000  0.2113341E+03  0.7546771E-02  0.1140514E+00
         21   -1    0    0  501  502  0.00000000000E+00  0.00000000000E+00  0.39264309965E+03  0.39264309965E+03  0.00000000000E+00 0.  1.
         21   -1    0    0  502  503 -0.00000000000E+00 -0.00000000000E+00 -0.11720901326E+03  0.11720901326E+03  0.00000000000E+00 0.  1.
          6    1    1    2  501    0  0.16893646908E+02  0.12162523801E+03  0.93906458528E+02  0.23125854964E+03  0.17200000000E+03 0.  1.
         -6    1    1    2    0  503 -0.16893646908E+02 -0.12162523801E+03  0.18152762786E+03  0.27859356328E+03  0.17200000000E+03 0.  1.
<mgrwt>
<rscale>  2 0.21133408E+03</rscale>
<asrwt>0</asrwt>
<pdfrwt beam="1">  1       21 0.98160772E-01 0.21133408E+03</pdfrwt>
<pdfrwt beam="2">  1       21 0.29302254E-01 0.21133408E+03</pdfrwt>
<totfact> 0.94447607E+03</totfact>
</mgrwt>
</event>
<event>
 4    1  0.1091654E+000  0.1833134E+03  0.7546771E-02  0.1164634E+00
         21   -1    0    0  503  502  0.00000000000E+00  0.00000000000E+00  0.52761973355E+03  0.52761973355E+03  0.00000000000E+00 0.  1.
         21   -1    0    0  501  503 -0.00000000000E+00 -0.00000000000E+00 -0.79321564093E+02  0.79321564093E+02  0.00000000000E+00 0.  1.
          6    1    1    2  501    0  0.54945489595E+02 -0.31635620523E+02  0.89429824827E+02  0.20396448927E+03  0.17200000000E+03 0.  1.
         -6    1    1    2    0  502 -0.54945489595E+02  0.31635620523E+02  0.35886834463E+03  0.40297680837E+03  0.17200000000E+03 0.  1.
<mgrwt>
<rscale>  2 0.18331345E+03</rscale>
<asrwt>0</asrwt>
<pdfrwt beam="1">  1       21 0.13190492E+00 0.18331345E+03</pdfrwt>
<pdfrwt beam="2">  1       21 0.19830393E-01 0.18331345E+03</pdfrwt>
<totfact> 0.98395648E+03</totfact>
</mgrwt>
</event>
<event>
 4    1  0.1091654E+000  0.3134079E+03  0.7546771E-02  0.1078724E+00
         21   -1    0    0  501  502  0.00000000000E+00  0.00000000000E+00  0.42412009625E+03  0.42412009625E+03  0.00000000000E+00 0. -1.
         21   -1    0    0  502  503 -0.00000000000E+00 -0.00000000000E+00 -0.26398080838E+03  0.26398080838E+03  0.00000000000E+00 0.  1.
          6    1    1    2  501    0 -0.25413236819E+03  0.63696615000E+02 -0.40435780800E+02  0.31600565137E+03  0.17200000000E+03 0.  1.
         -6    1    1    2    0  503  0.25413236819E+03 -0.63696615000E+02  0.20057506867E+03  0.37209525326E+03  0.17200000000E+03 0. -1.
<mgrwt>
<rscale>  2 0.31340791E+03</rscale>
<asrwt>0</asrwt>
<pdfrwt beam="1">  1       21 0.10603002E+00 0.31340791E+03</pdfrwt>
<pdfrwt beam="2">  1       21 0.65995203E-01 0.31340791E+03</pdfrwt>
<totfact> 0.13734168E+03</totfact>
</mgrwt>
</event>
<event>
 4    1  0.1091654E+000  0.1900521E+03  0.7546771E-02  0.1158414E+00
         21   -1    0    0  503  502  0.00000000000E+00  0.00000000000E+00  0.56950317915E+03  0.56950317915E+03  0.00000000000E+00 0. -1.
         21   -1    0    0  501  503 -0.00000000000E+00 -0.00000000000E+00 -0.97850753868E+02  0.97850753868E+02  0.00000000000E+00 0. -1.
          6    1    1    2  501    0  0.27799275812E+02 -0.75914400295E+02  0.37903188937E+02  0.19379485968E+03  0.17200000000E+03 0.  1.
         -6    1    1    2    0  502 -0.27799275812E+02  0.75914400295E+02  0.43374923634E+03  0.47355907333E+03  0.17200000000E+03 0.  1.
<mgrwt>
<rscale>  2 0.19005209E+03</rscale>
<asrwt>0</asrwt>
<pdfrwt beam="1">  1       21 0.14237579E+00 0.19005209E+03</pdfrwt>
<pdfrwt beam="2">  1       21 0.24462690E-01 0.19005209E+03</pdfrwt>
<totfact> 0.54200263E+03</totfact>
</mgrwt>
</event>
<event>
 4    1  0.1091654E+000  0.2457999E+03  0.7546771E-02  0.1115988E+00
         21   -1    0    0  503  502  0.00000000000E+00  0.00000000000E+00  0.59388323893E+03  0.59388323893E+03  0.00000000000E+00 0.  1.
         21   -1    0    0  501  503 -0.00000000000E+00 -0.00000000000E+00 -0.13753141715E+03  0.13753141715E+03  0.00000000000E+00 0. -1.
          6    1    1    2  501    0  0.62212131891E+02  0.16420489621E+03  0.41596437593E+02  0.24929472701E+03  0.17200000000E+03 0. -1.
         -6    1    1    2    0  502 -0.62212131891E+02 -0.16420489621E+03  0.41475538418E+03  0.48211992907E+03  0.17200000000E+03 0.  1.
<mgrwt>
<rscale>  2 0.24579991E+03</rscale>
<asrwt>0</asrwt>
<pdfrwt beam="1">  1       21 0.14847080E+00 0.24579991E+03</pdfrwt>
<pdfrwt beam="2">  1       21 0.34382856E-01 0.24579991E+03</pdfrwt>
<totfact> 0.23934613E+03</totfact>
</mgrwt>
</event>
<event>
 4    1  0.1091654E+000  0.3588202E+03  0.7546771E-02  0.1059052E+00
         21   -1    0    0  501  502  0.00000000000E+00  0.00000000000E+00  0.16697117013E+03  0.16697117013E+03  0.00000000000E+00 0.  1.
         21   -1    0    0  502  503 -0.00000000000E+00 -0.00000000000E+00 -0.78223723981E+03  0.78223723981E+03  0.00000000000E+00 0. -1.
          6    1    1    2  501    0 -0.16448583304E+03  0.26853742847E+03 -0.25100960416E+03  0.43790154275E+03  0.17200000000E+03 0. -1.
         -6    1    1    2    0  503  0.16448583304E+03 -0.26853742847E+03 -0.36425646553E+03  0.51130686719E+03  0.17200000000E+03 0. -1.
<mgrwt>
<rscale>  2 0.35882021E+03</rscale>
<asrwt>0</asrwt>
<pdfrwt beam="1">  1       21 0.41742793E-01 0.35882021E+03</pdfrwt>
<pdfrwt beam="2">  1       21 0.19555931E+00 0.35882021E+03</pdfrwt>
<totfact> 0.68972334E+02</totfact>
</mgrwt>
</event>
<event>
 4    1  0.1091654E+000  0.1890348E+03  0.7546771E-02  0.1159335E+00
         21   -1    0    0  501  502  0.00000000000E+00  0.00000000000E+00  0.16955638751E+03  0.16955638751E+03  0.00000000000E+00 0. -1.
         21   -1    0    0  502  503 -0.00000000000E+00 -0.00000000000E+00 -0.24131169980E+03  0.24131169980E+03  0.00000000000E+00 0. -1.
          6    1    1    2  501    0 -0.75047511139E+02  0.22759954921E+02  0.37230576795E+02  0.19266618885E+03  0.17200000000E+03 0. -1.
         -6    1    1    2    0  503  0.75047511139E+02 -0.22759954921E+02 -0.10898588909E+03  0.21820189847E+03  0.17200000000E+03 0. -1.
<mgrwt>
<rscale>  2 0.18903477E+03</rscale>
<asrwt>0</asrwt>
<pdfrwt beam="1">  1       21 0.42389097E-01 0.18903477E+03</pdfrwt>
<pdfrwt beam="2">  1       21 0.60327925E-01 0.18903477E+03</pdfrwt>
<totfact> 0.13745928E+04</totfact>
</mgrwt>
</event>
<event>
 4    1  0.1091654E+000  0.2192117E+03  0.7546771E-02  0.1134472E+00
         21   -1    0    0  503  502  0.00000000000E+00  0.00000000000E+00  0.20262039269E+03  0.20262039269E+03  0.00000000000E+00 0.  1.
         21   -1    0    0  501  503 -0.00000000000E+00 -0.00000000000E+00 -0.42922710712E+03  0.42922710712E+03  0.00000000000E+00 0. -1.
          6    1    1    2  501    0 -0.13557037994E+03 -0.95096306394E+01 -0.32463448970E+03  0.39171585734E+03  0.17200000000E+03 0. -1.
         -6    1    1    2    0  502  0.13557037994E+03  0.95096306394E+01  0.98027775268E+02  0.24013164247E+03  0.17200000000E+03 0.  1.
<mgrwt>
<rscale>  2 0.21921168E+03</rscale>
<asrwt>0</asrwt>
<pdfrwt beam="1">  1       21 0.50655099E-01 0.21921168E+03</pdfrwt>
<pdfrwt beam="2">  1       21 0.10730678E+00 0.21921168E+03</pdfrwt>
<totfact> 0.25137606E+03</totfact>
</mgrwt>
</event>
<event>
 4    1  0.1091654E+000  0.2001354E+03  0.7546771E-02  0.1149625E+00
         21   -1    0    0  501  502  0.00000000000E+00  0.00000000000E+00  0.10901003843E+04  0.10901003843E+04  0.00000000000E+00 0.  1.
         21   -1    0    0  502  503 -0.00000000000E+00 -0.00000000000E+00 -0.47787394973E+02  0.47787394973E+02  0.00000000000E+00 0.  1.
          6    1    1    2  501    0  0.95527345712E+02  0.36670259315E+02  0.79466603658E+03  0.81948050093E+03  0.17200000000E+03 0.  1.
         -6    1    1    2    0  503 -0.95527345712E+02 -0.36670259315E+02  0.24764695271E+03  0.31840727831E+03  0.17200000000E+03 0.  1.
<mgrwt>
<rscale>  2 0.20013541E+03</rscale>
<asrwt>0</asrwt>
<pdfrwt beam="1">  1       21 0.27252501E+00 0.20013541E+03</pdfrwt>
<pdfrwt beam="2">  1       21 0.11946852E-01 0.20013541E+03</pdfrwt>
<totfact> 0.28825730E+03</totfact>
</mgrwt>
</event>
<event>
 4    1  0.1091654E+000  0.3442335E+03  0.7546771E-02  0.1065007E+00
         21   -1    0    0  503  502  0.00000000000E+00  0.00000000000E+00  0.13457355166E+03  0.13457355166E+03  0.00000000000E+00 0. -1.
         21   -1    0    0  501  503 -0.00000000000E+00 -0.00000000000E+00 -0.92295116989E+03  0.92295116989E+03  0.00000000000E+00 0. -1.
          6    1    1    2  501    0  0.13992216587E+03 -0.26331443724E+03 -0.28083462889E+03  0.44425757635E+03  0.17200000000E+03 0. -1.
         -6    1    1    2    0  502 -0.13992216587E+03  0.26331443724E+03 -0.50754298934E+03  0.61326714520E+03  0.17200000000E+03 0. -1.
<mgrwt>
<rscale>  2 0.34423350E+03</rscale>
<asrwt>0</asrwt>
<pdfrwt beam="1">  1       21 0.33643388E-01 0.34423350E+03</pdfrwt>
<pdfrwt beam="2">  1       21 0.23073779E+00 0.34423350E+03</pdfrwt>
<totfact> 0.64142112E+02</totfact>
</mgrwt>
</event>
<event>
 4    1  0.1091654E+000  0.2724361E+03  0.7546771E-02  0.1099893E+00
         21   -1    0    0  503  502  0.00000000000E+00  0.00000000000E+00  0.94989830297E+03  0.94989830297E+03  0.00000000000E+00 0. -1.
         21   -1    0    0  501  503 -0.00000000000E+00 -0.00000000000E+00 -0.86939365367E+02  0.86939365367E+02  0.00000000000E+00 0. -1.
          6    1    1    2  501    0  0.21116885911E+03 -0.67200753782E+01  0.26651443570E+03  0.38111860478E+03  0.17200000000E+03 0. -1.
         -6    1    1    2    0  502 -0.21116885911E+03  0.67200753782E+01  0.59644450189E+03  0.65571906355E+03  0.17200000000E+03 0. -1.
<mgrwt>
<rscale>  2 0.27243613E+03</rscale>
<asrwt>0</asrwt>
<pdfrwt beam="1">  1       21 0.23747454E+00 0.27243613E+03</pdfrwt>
<pdfrwt beam="2">  1       21 0.21734844E-01 0.27243613E+03</pdfrwt>
<totfact> 0.14406026E+03</totfact>
</mgrwt>
</event>
<event>
 4    1  0.1091654E+000  0.2188137E+03  0.7546771E-02  0.1134771E+00
         21   -1    0    0  501  502  0.00000000000E+00  0.00000000000E+00  0.98865740936E+03  0.98865740936E+03  0.00000000000E+00 0. -1.
         21   -1    0    0  502  503 -0.00000000000E+00 -0.00000000000E+00 -0.17385058577E+03  0.17385058577E+03  0.00000000000E+00 0.  1.
          6    1    1    2  501    0  0.35205787549E+02  0.13059849853E+03  0.90110496990E+03  0.92729153025E+03  0.17200000000E+03 0. -1.
         -6    1    1    2    0  503 -0.35205787549E+02 -0.13059849853E+03 -0.86298146305E+02  0.23521646488E+03  0.17200000000E+03 0.  1.
<mgrwt>
<rscale>  2 0.21881365E+03</rscale>
<asrwt>0</asrwt>
<pdfrwt beam="1">  1       21 0.24716434E+00 0.21881365E+03</pdfrwt>
<pdfrwt beam="2">  1       21 0.43462649E-01 0.21881365E+03</pdfrwt>
<totfact> 0.33990987E+02</totfact>
</mgrwt>
</event>
<event>
 4    1  0.1091654E+000  0.2237602E+03  0.7546771E-02  0.1131110E+00
         21   -1    0    0  503  502  0.00000000000E+00  0.00000000000E+00  0.13660064721E+03  0.13660064721E+03  0.00000000000E+00 0. -1.
         21   -1    0    0  501  503 -0.00000000000E+00 -0.00000000000E+00 -0.66333769635E+03  0.66333769635E+03  0.00000000000E+00 0.  1.
          6    1    1    2  501    0 -0.11999960530E+03  0.78004551971E+02 -0.53091222067E+03  0.57613922055E+03  0.17200000000E+03 0.  1.
         -6    1    1    2    0  502  0.11999960530E+03 -0.78004551971E+02  0.41751715300E+01  0.22379912300E+03  0.17200000000E+03 0. -1.
<mgrwt>
<rscale>  2 0.22376017E+03</rscale>
<asrwt>0</asrwt>
<pdfrwt beam="1">  1       21 0.34150162E-01 0.22376017E+03</pdfrwt>
<pdfrwt beam="2">  1       21 0.16583442E+00 0.22376017E+03</pdfrwt>
<totfact> 0.18325513E+03</totfact>
</mgrwt>
</event>
<event>
 4    1  0.1091654E+000  0.2612124E+03  0.7546771E-02  0.1106417E+00
         21   -1    0    0  501  502  0.00000000000E+00  0.00000000000E+00  0.66117078122E+02  0.66117078122E+02  0.00000000000E+00 0.  1.
         21   -1    0    0  502  503 -0.00000000000E+00 -0.00000000000E+00 -0.10330544067E+04  0.10330544067E+04  0.00000000000E+00 0. -1.
          6    1    1    2  501    0 -0.17155367662E+03 -0.96006430997E+02 -0.46579433840E+03  0.53403769946E+03  0.17200000000E+03 0.  1.
         -6    1    1    2    0  503  0.17155367662E+03  0.96006430997E+02 -0.50114299017E+03  0.56513378536E+03  0.17200000000E+03 0. -1.
<mgrwt>
<rscale>  2 0.26121236E+03</rscale>
<asrwt>0</asrwt>
<pdfrwt beam="1">  1       21 0.16529270E-01 0.26121236E+03</pdfrwt>
<pdfrwt beam="2">  1       21 0.25826360E+00 0.26121236E+03</pdfrwt>
<totfact> 0.18222544E+03</totfact>
</mgrwt>
</event>
<event>
 4    1  0.1091654E+000  0.2711896E+03  0.7546771E-02  0.1100601E+00
         21   -1    0    0  501  502  0.00000000000E+00  0.00000000000E+00  0.14397934193E+03  0.14397934193E+03  0.00000000000E+00 0.  1.
         21   -1    0    0  502  503 -0.00000000000E+00 -0.00000000000E+00 -0.63292904290E+03  0.63292904290E+03  0.00000000000E+00 0. -1.
          6    1    1    2  501    0 -0.13304217501E+03 -0.16204806317E+03 -0.41511542633E+03  0.49584736793E+03  0.17200000000E+03 0. -1.
         -6    1    1    2    0  503  0.13304217501E+03  0.16204806317E+03 -0.73834274643E+02  0.28106101690E+03  0.17200000000E+03 0.  1.
<mgrwt>
<rscale>  2 0.27118959E+03</rscale>
<asrwt>0</asrwt>
<pdfrwt beam="1">  1       21 0.35994836E-01 0.27118959E+03</pdfrwt>
<pdfrwt beam="2">  1       21 0.15823226E+00 0.27118959E+03</pdfrwt>
<totfact> 0.18072796E+03</totfact>
</mgrwt>
</event>
<event>
 4    1  0.1091654E+000  0.1900468E+03  0.7546771E-02  0.1158419E+00
         21   -1    0    0  503  502  0.00000000000E+00  0.00000000000E+00  0.10767612014E+04  0.10767612014E+04  0.00000000000E+00 0. -1.
         21   -1    0    0  501  503 -0.00000000000E+00 -0.00000000000E+00 -0.36039438724E+02  0.36039438724E+02  0.00000000000E+00 0. -1.
          6    1    1    2  501    0 -0.65205947286E+02 -0.47769797387E+02  0.37392031762E+03  0.41944507749E+03  0.17200000000E+03 0. -1.
         -6    1    1    2    0  502  0.65205947286E+02  0.47769797387E+02  0.66680144507E+03  0.69335556265E+03  0.17200000000E+03 0. -1.
<mgrwt>
<rscale>  2 0.19004676E+03</rscale>
<asrwt>0</asrwt>
<pdfrwt beam="1">  1       21 0.26919019E+00 0.19004676E+03</pdfrwt>
<pdfrwt beam="2">  1       21 0.90098632E-02 0.19004676E+03</pdfrwt>
<totfact> 0.50241973E+03</totfact>
</mgrwt>
</event>
<event>
 4    1  0.1091654E+000  0.2849543E+03  0.7546771E-02  0.1093013E+00
         21   -1    0    0  501  502  0.00000000000E+00  0.00000000000E+00  0.61409198590E+03  0.61409198590E+03  0.00000000000E+00 0. -1.
         21   -1    0    0  502  503 -0.00000000000E+00 -0.00000000000E+00 -0.17140557502E+03  0.17140557502E+03  0.00000000000E+00 0.  1.
          6    1    1    2  501    0  0.14538586713E+03  0.17457915907E+03  0.40911578729E+03  0.49857262315E+03  0.17200000000E+03 0. -1.
         -6    1    1    2    0  503 -0.14538586713E+03 -0.17457915907E+03  0.33570623585E+02  0.28692493776E+03  0.17200000000E+03 0.  1.
<mgrwt>
<rscale>  2 0.28495427E+03</rscale>
<asrwt>0</asrwt>
<pdfrwt beam="1">  1       21 0.15352299E+00 0.28495427E+03</pdfrwt>
<pdfrwt beam="2">  1       21 0.42851395E-01 0.28495427E+03</pdfrwt>
<totfact> 0.13628319E+03</totfact>
</mgrwt>
</event>
<event>
 4    1  0.1091654E+000  0.2685601E+03  0.7546771E-02  0.1102107E+00
         21   -1    0    0  503  502  0.00000000000E+00  0.00000000000E+00  0.29609038710E+03  0.29609038710E+03  0.00000000000E+00 0. -1.
         21   -1    0    0  501  503 -0.00000000000E+00 -0.00000000000E+00 -0.30303014137E+03  0.30303014137E+03  0.00000000000E+00 0.  1.
          6    1    1    2  501    0  0.72303586095E+02 -0.19316495685E+03 -0.13614302607E+03  0.30109704858E+03  0.17200000000E+03 0. -1.
         -6    1    1    2    0  502 -0.72303586095E+02  0.19316495685E+03  0.12920327180E+03  0.29802347988E+03  0.17200000000E+03 0.  1.
<mgrwt>
<rscale>  2 0.26856007E+03</rscale>
<asrwt>0</asrwt>
<pdfrwt beam="1">  1       21 0.74022597E-01 0.26856007E+03</pdfrwt>
<pdfrwt beam="2">  1       21 0.75757535E-01 0.26856007E+03</pdfrwt>
<totfact> 0.24029329E+03</totfact>
</mgrwt>
</event>
<event>
 4    1  0.1091654E+000  0.1975846E+03  0.7546771E-02  0.1151793E+00
         21   -1    0    0  503  502  0.00000000000E+00  0.00000000000E+00  0.39268198588E+03  0.39268198588E+03  0.00000000000E+00 0.  1.
         21   -1    0    0  501  503 -0.00000000000E+00 -0.00000000000E+00 -0.13809161920E+03  0.13809161920E+03  0.00000000000E+00 0.  1.
          6    1    1    2  501    0 -0.97209189010E+02 -0.24573793320E+01 -0.13148743031E+02  0.19802160131E+03  0.17200000000E+03 0.  1.
         -6    1    1    2    0  502  0.97209189010E+02  0.24573793320E+01  0.26773910971E+03  0.33275200377E+03  0.17200000000E+03 0.  1.
<mgrwt>
<rscale>  2 0.19758458E+03</rscale>
<asrwt>0</asrwt>
<pdfrwt beam="1">  1       21 0.98170494E-01 0.19758458E+03</pdfrwt>
<pdfrwt beam="2">  1       21 0.34522906E-01 0.19758458E+03</pdfrwt>
<totfact> 0.69092538E+03</totfact>
</mgrwt>
</event>
<event>
 4    1  0.1091654E+000  0.1773606E+03  0.7546771E-02  0.1170382E+00
         21   -1    0    0  501  502  0.00000000000E+00  0.00000000000E+00  0.10655063182E+03  0.10655063182E+03  0.00000000000E+00 0.  1.
         21   -1    0    0  502  503 -0.00000000000E+00 -0.00000000000E+00 -0.31487733373E+03  0.31487733373E+03  0.00000000000E+00 0. -1.
          6    1    1    2  501    0 -0.19360371791E+02  0.38703253559E+02 -0.51526142721E+02  0.18469355488E+03  0.17200000000E+03 0.  1.
         -6    1    1    2    0  503  0.19360371791E+02 -0.38703253559E+02 -0.15680055919E+03  0.23673441067E+03  0.17200000000E+03 0.  1.
<mgrwt>
<rscale>  2 0.17736055E+03</rscale>
<asrwt>0</asrwt>
<pdfrwt beam="1">  1       21 0.26637658E-01 0.17736055E+03</pdfrwt>
<pdfrwt beam="2">  1       21 0.78719333E-01 0.17736055E+03</pdfrwt>
<totfact> 0.19312509E+04</totfact>
</mgrwt>
</event>
<event>
 4    1  0.1091654E+000  0.2727364E+03  0.7546771E-02  0.1099724E+00
         21   -1    0    0  501  502  0.00000000000E+00  0.00000000000E+00  0.41856766114E+03  0.41856766114E+03  0.00000000000E+00 0.  1.
         21   -1    0    0  502  503 -0.00000000000E+00 -0.00000000000E+00 -0.21799117598E+03  0.21799117598E+03  0.00000000000E+00 0.  1.
          6    1    1    2  501    0 -0.18814677000E+03 -0.96963660020E+02  0.23709919239E+03  0.36138786014E+03  0.17200000000E+03 0.  1.
         -6    1    1    2    0  503  0.18814677000E+03  0.96963660020E+02 -0.36522707227E+02  0.27517097698E+03  0.17200000000E+03 0.  1.
<mgrwt>
<rscale>  2 0.27273643E+03</rscale>
<asrwt>0</asrwt>
<pdfrwt beam="1">  1       21 0.10464191E+00 0.27273643E+03</pdfrwt>
<pdfrwt beam="2">  1       21 0.54497795E-01 0.27273643E+03</pdfrwt>
<totfact> 0.22027348E+03</totfact>
</mgrwt>
</event>
<event>
 4    1  0.1091654E+000  0.2383155E+03  0.7546771E-02  0.1120920E+00
         21   -1    0    0  501  502  0.00000000000E+00  0.00000000000E+00  0.82836427967E+02  0.82836427967E+02  0.00000000000E+00 0.  1.
         21   -1    0    0  502  503 -0.00000000000E+00 -0.00000000000E+00 -0.13327522062E+04  0.13327522062E+04  0.00000000000E+00 0.  1.
          6    1    1    2  501    0  0.16234709551E+03  0.29218251779E+02 -0.13175117622E+03  0.27230985677E+03  0.17200000000E+03 0.  1.
         -6    1    1    2    0  503 -0.16234709551E+03 -0.29218251779E+02 -0.11181646020E+04  0.11432787774E+04  0.17200000000E+03 0.  1.
<mgrwt>
<rscale>  2 0.23831552E+03</rscale>
<asrwt>0</asrwt>
<pdfrwt beam="1">  1       21 0.20709107E-01 0.23831552E+03</pdfrwt>
<pdfrwt beam="2">  1       21 0.33318805E+00 0.23831552E+03</pdfrwt>
<totfact> 0.44559829E+02</totfact>
</mgrwt>
</event>
<event>
 4    1  0.1091654E+000  0.2544790E+03  0.7546771E-02  0.1110506E+00
         21   -1    0    0  503  502  0.00000000000E+00  0.00000000000E+00  0.13733885265E+03  0.13733885265E+03  0.00000000000E+00 0.  1.
         21   -1    0    0  501  503 -0.00000000000E+00 -0.00000000000E+00 -0.47381613898E+03  0.47381613898E+03  0.00000000000E+00 0. -1.
          6    1    1    2  501    0 -0.18564259502E+03 -0.26690311763E+02 -0.18945932807E+03  0.31726074895E+03  0.17200000000E+03 0. -1.
         -6    1    1    2    0  502  0.18564259502E+03  0.26690311763E+02 -0.14701795826E+03  0.29389424268E+03  0.17200000000E+03 0. -1.
<mgrwt>
<rscale>  2 0.25447897E+03</rscale>
<asrwt>0</asrwt>
<pdfrwt beam="1">  1       21 0.34334713E-01 0.25447897E+03</pdfrwt>
<pdfrwt beam="2">  1       21 0.11845403E+00 0.25447897E+03</pdfrwt>
<totfact> 0.42596383E+03</totfact>
</mgrwt>
</event>
<event>
 4    1  0.1091654E+000  0.3876231E+03  0.7546771E-02  0.1048152E+00
         21   -1    0    0  503  502  0.00000000000E+00  0.00000000000E+00  0.14944541227E+03  0.14944541227E+03  0.00000000000E+00 0.  1.
         21   -1    0    0  501  503 -0.00000000000E+00 -0.00000000000E+00 -0.15166652566E+04  0.15166652566E+04  0.00000000000E+00 0. -1.
          6    1    1    2  501    0 -0.53992494310E+02  0.34315082400E+03 -0.11672855725E+04  0.12299623105E+04  0.17200000000E+03 0. -1.
         -6    1    1    2    0  502  0.53992494310E+02 -0.34315082400E+03 -0.19993427180E+03  0.43614835835E+03  0.17200000000E+03 0.  1.
<mgrwt>
<rscale>  2 0.38762311E+03</rscale>
<asrwt>0</asrwt>
<pdfrwt beam="1">  1       21 0.37361354E-01 0.38762311E+03</pdfrwt>
<pdfrwt beam="2">  1       21 0.37916631E+00 0.38762311E+03</pdfrwt>
<totfact> 0.63559544E+01</totfact>
</mgrwt>
</event>
<event>
 4    1  0.1091654E+000  0.2726791E+03  0.7546771E-02  0.1099756E+00
         21   -1    0    0  501  502  0.00000000000E+00  0.00000000000E+00  0.10570506275E+03  0.10570506275E+03  0.00000000000E+00 0. -1.
         21   -1    0    0  502  503 -0.00000000000E+00 -0.00000000000E+00 -0.70950389020E+03  0.70950389020E+03  0.00000000000E+00 0. -1.
          6    1    1    2  501    0 -0.21154365035E+03 -0.43789699673E+01 -0.33967792763E+03  0.43558579625E+03  0.17200000000E+03 0. -1.
         -6    1    1    2    0  503  0.21154365035E+03  0.43789699673E+01 -0.26412089982E+03  0.37962315670E+03  0.17200000000E+03 0. -1.
<mgrwt>
<rscale>  2 0.27267910E+03</rscale>
<asrwt>0</asrwt>
<pdfrwt beam="1">  1       21 0.26426266E-01 0.27267910E+03</pdfrwt>
<pdfrwt beam="2">  1       21 0.17737597E+00 0.27267910E+03</pdfrwt>
<totfact> 0.24169233E+03</totfact>
</mgrwt>
</event>
<event>
 4    1  0.1091654E+000  0.1826702E+03  0.7546771E-02  0.1165244E+00
         21   -1    0    0  503  502  0.00000000000E+00  0.00000000000E+00  0.87585299369E+03  0.87585299369E+03  0.00000000000E+00 0.  1.
         21   -1    0    0  501  503 -0.00000000000E+00 -0.00000000000E+00 -0.40112701504E+02  0.40112701504E+02  0.00000000000E+00 0.  1.
          6    1    1    2  501    0 -0.33114649533E+02 -0.51844272981E+02  0.31523555365E+03  0.36433756729E+03  0.17200000000E+03 0.  1.
         -6    1    1    2    0  502  0.33114649533E+02  0.51844272981E+02  0.52050473853E+03  0.55162812790E+03  0.17200000000E+03 0.  1.
<mgrwt>
<rscale>  2 0.18267022E+03</rscale>
<asrwt>0</asrwt>
<pdfrwt beam="1">  1       21 0.21896319E+00 0.18267022E+03</pdfrwt>
<pdfrwt beam="2">  1       21 0.10028178E-01 0.18267022E+03</pdfrwt>
<totfact> 0.83186585E+03</totfact>
</mgrwt>
</event>
<event>
 4    1  0.1091654E+000  0.2385861E+03  0.7546771E-02  0.1120738E+00
         21   -1    0    0  503  502  0.00000000000E+00  0.00000000000E+00  0.64833072851E+03  0.64833072851E+03  0.00000000000E+00 0.  1.
         21   -1    0    0  501  503 -0.00000000000E+00 -0.00000000000E+00 -0.12063691911E+03  0.12063691911E+03  0.00000000000E+00 0. -1.
          6    1    1    2  501    0 -0.51365949771E+02  0.15716513580E+03  0.63251884450E+02  0.24682816208E+03  0.17200000000E+03 0. -1.
         -6    1    1    2    0  502  0.51365949771E+02 -0.15716513580E+03  0.46444192495E+03  0.52213948554E+03  0.17200000000E+03 0.  1.
<mgrwt>
<rscale>  2 0.23858613E+03</rscale>
<asrwt>0</asrwt>
<pdfrwt beam="1">  1       21 0.16208267E+00 0.23858613E+03</pdfrwt>
<pdfrwt beam="2">  1       21 0.30159232E-01 0.23858613E+03</pdfrwt>
<totfact> 0.24627511E+03</totfact>
</mgrwt>
</event>
<event>
 4    1  0.1091654E+000  0.1807681E+03  0.7546771E-02  0.1167062E+00
         21   -1    0    0  501  502  0.00000000000E+00  0.00000000000E+00  0.57943061732E+02  0.57943061732E+02  0.00000000000E+00 0. -1.
         21   -1    0    0  502  503 -0.00000000000E+00 -0.00000000000E+00 -0.75592807985E+03  0.75592807985E+03  0.00000000000E+00 0. -1.
          6    1    1    2  501    0 -0.10212514326E+02  0.54670075110E+02 -0.14391934250E+03  0.23106252337E+03  0.17200000000E+03 0. -1.
         -6    1    1    2    0  503  0.10212514326E+02 -0.54670075110E+02 -0.55406567562E+03  0.58280861821E+03  0.17200000000E+03 0. -1.
<mgrwt>
<rscale>  2 0.18076812E+03</rscale>
<asrwt>0</asrwt>
<pdfrwt beam="1">  1       21 0.14485766E-01 0.18076812E+03</pdfrwt>
<pdfrwt beam="2">  1       21 0.18898202E+00 0.18076812E+03</pdfrwt>
<totfact> 0.66909198E+03</totfact>
</mgrwt>
</event>
<event>
 4    1  0.1091654E+000  0.3410913E+03  0.7546771E-02  0.1066332E+00
         21   -1    0    0  503  502  0.00000000000E+00  0.00000000000E+00  0.42730980270E+03  0.42730980270E+03  0.00000000000E+00 0.  1.
         21   -1    0    0  501  503 -0.00000000000E+00 -0.00000000000E+00 -0.42924294575E+03  0.42924294575E+03  0.00000000000E+00 0. -1.
          6    1    1    2  501    0 -0.22322050192E+03  0.19217662386E+03 -0.25995848815E+03  0.42886088980E+03  0.17200000000E+03 0. -1.
         -6    1    1    2    0  502  0.22322050192E+03 -0.19217662386E+03  0.25802534510E+03  0.42769185865E+03  0.17200000000E+03 0.  1.
<mgrwt>
<rscale>  2 0.34109126E+03</rscale>
<asrwt>0</asrwt>
<pdfrwt beam="1">  1       21 0.10682745E+00 0.34109126E+03</pdfrwt>
<pdfrwt beam="2">  1       21 0.10731074E+00 0.34109126E+03</pdfrwt>
<totfact> 0.42892696E+02</totfact>
</mgrwt>
</event>
<event>
 4    1  0.1091654E+000  0.2176835E+03  0.7546771E-02  0.1135622E+00
         21   -1    0    0  503  502  0.00000000000E+00  0.00000000000E+00  0.21457164228E+03  0.21457164228E+03  0.00000000000E+00 0.  1.
         21   -1    0    0  501  503 -0.00000000000E+00 -0.00000000000E+00 -0.23072076599E+03  0.23072076599E+03  0.00000000000E+00 0.  1.
          6    1    1    2  501    0  0.10369484079E+03  0.83961178509E+02 -0.54148699974E+02  0.22431714427E+03  0.17200000000E+03 0.  1.
         -6    1    1    2    0  502 -0.10369484079E+03 -0.83961178509E+02  0.37999576268E+02  0.22097526400E+03  0.17200000000E+03 0.  1.
<mgrwt>
<rscale>  2 0.21768348E+03</rscale>
<asrwt>0</asrwt>
<pdfrwt beam="1">  1       21 0.53642911E-01 0.21768348E+03</pdfrwt>
<pdfrwt beam="2">  1       21 0.57680191E-01 0.21768348E+03</pdfrwt>
<totfact> 0.91138683E+03</totfact>
</mgrwt>
</event>
<event>
 4    1  0.1091654E+000  0.1731221E+03  0.7546771E-02  0.1174631E+00
         21   -1    0    0  503  502  0.00000000000E+00  0.00000000000E+00  0.68548133964E+02  0.68548133964E+02  0.00000000000E+00 0. -1.
         21   -1    0    0  501  503 -0.00000000000E+00 -0.00000000000E+00 -0.63305047115E+03  0.63305047115E+03  0.00000000000E+00 0. -1.
          6    1    1    2  501    0 -0.82630774092E+01 -0.17859762553E+02 -0.47735662913E+03  0.50778007143E+03  0.17200000000E+03 0. -1.
         -6    1    1    2    0  502  0.82630774092E+01  0.17859762553E+02 -0.87145708056E+02  0.19381853368E+03  0.17200000000E+03 0. -1.
<mgrwt>
<rscale>  2 0.17312207E+03</rscale>
<asrwt>0</asrwt>
<pdfrwt beam="1">  1       21 0.17137034E-01 0.17312207E+03</pdfrwt>
<pdfrwt beam="2">  1       21 0.15826262E+00 0.17312207E+03</pdfrwt>
<totfact> 0.80966750E+03</totfact>
</mgrwt>
</event>
<event>
 4    1  0.1091654E+000  0.1787351E+03  0.7546771E-02  0.1169033E+00
         21   -1    0    0  503  502  0.00000000000E+00  0.00000000000E+00  0.83036110524E+02  0.83036110524E+02  0.00000000000E+00 0. -1.
         21   -1    0    0  501  503 -0.00000000000E+00 -0.00000000000E+00 -0.15706828085E+04  0.15706828085E+04  0.00000000000E+00 0. -1.
          6    1    1    2  501    0 -0.48063223598E+02 -0.72226011093E+01 -0.14623149483E+04  0.14731976267E+04  0.17200000000E+03 0. -1.
         -6    1    1    2    0  502  0.48063223598E+02  0.72226011093E+01 -0.25331749694E+02  0.18052129230E+03  0.17200000000E+03 0. -1.
<mgrwt>
<rscale>  2 0.17873511E+03</rscale>
<asrwt>0</asrwt>
<pdfrwt beam="1">  1       21 0.20759027E-01 0.17873511E+03</pdfrwt>
<pdfrwt beam="2">  1       21 0.39267071E+00 0.17873511E+03</pdfrwt>
<totfact> 0.21356134E+02</totfact>
</mgrwt>
</event>
<event>
 4    1  0.1091654E+000  0.2302214E+03  0.7546771E-02  0.1126484E+00
         21   -1    0    0  503  502  0.00000000000E+00  0.00000000000E+00  0.53822625980E+03  0.53822625980E+03  0.00000000000E+00 0.  1.
         21   -1    0    0  501  503 -0.00000000000E+00 -0.00000000000E+00 -0.14283552447E+03  0.14283552447E+03  0.00000000000E+00 0. -1.
          6    1    1    2  501    0  0.13473298594E+03  0.72559723058E+02  0.79215956550E+01  0.23035764061E+03  0.17200000000E+03 0. -1.
         -6    1    1    2    0  502 -0.13473298594E+03 -0.72559723058E+02  0.38746913968E+03  0.45070414366E+03  0.17200000000E+03 0.  1.
<mgrwt>
<rscale>  2 0.23022140E+03</rscale>
<asrwt>0</asrwt>
<pdfrwt beam="1">  1       21 0.13455656E+00 0.23022140E+03</pdfrwt>
<pdfrwt beam="2">  1       21 0.35708882E-01 0.23022140E+03</pdfrwt>
<totfact> 0.29027171E+03</totfact>
</mgrwt>
</event>
<event>
 4    1  0.1091654E+000  0.2408515E+03  0.7546771E-02  0.1119227E+00
         21   -1    0    0  501  502  0.00000000000E+00  0.00000000000E+00  0.32859557088E+03  0.32859557088E+03  0.00000000000E+00 0.  1.
         21   -1    0    0  502  503 -0.00000000000E+00 -0.00000000000E+00 -0.19808196617E+03  0.19808196617E+03  0.00000000000E+00 0.  1.
          6    1    1    2  501    0  0.16162599965E+03  0.47984173170E+02 -0.21591248503E+02  0.24181734150E+03  0.17200000000E+03 0.  1.
         -6    1    1    2    0  503 -0.16162599965E+03 -0.47984173170E+02  0.15210485322E+03  0.28486019555E+03  0.17200000000E+03 0.  1.
<mgrwt>
<rscale>  2 0.24085150E+03</rscale>
<asrwt>0</asrwt>
<pdfrwt beam="1">  1       21 0.82148892E-01 0.24085150E+03</pdfrwt>
<pdfrwt beam="2">  1       21 0.49520492E-01 0.24085150E+03</pdfrwt>
<totfact> 0.48627051E+03</totfact>
</mgrwt>
</event>
<event>
 4    1  0.1091654E+000  0.1880855E+03  0.7546771E-02  0.1160200E+00
         21   -1    0    0  501  502  0.00000000000E+00  0.00000000000E+00  0.18342675468E+03  0.18342675468E+03  0.00000000000E+00 0. -1.
         21   -1    0    0  502  503 -0.00000000000E+00 -0.00000000000E+00 -0.27663261730E+03  0.27663261730E+03  0.00000000000E+00 0. -1.
          6    1    1    2  501    0  0.68851519949E+02  0.32428662436E+02  0.79980437608E+02  0.20438449145E+03  0.17200000000E+03 0. -1.
         -6    1    1    2    0  503 -0.68851519949E+02 -0.32428662436E+02 -0.17318630023E+03  0.25567488053E+03  0.17200000000E+03 0. -1.
<mgrwt>
<rscale>  2 0.18808549E+03</rscale>
<asrwt>0</asrwt>
<pdfrwt beam="1">  1       21 0.45856689E-01 0.18808549E+03</pdfrwt>
<pdfrwt beam="2">  1       21 0.69158154E-01 0.18808549E+03</pdfrwt>
<totfact> 0.87025456E+03</totfact>
</mgrwt>
</event>
<event>
 4    1  0.1091654E+000  0.1802848E+03  0.7546771E-02  0.1167528E+00
         21   -1    0    0  501  502  0.00000000000E+00  0.00000000000E+00  0.10184521308E+03  0.10184521308E+03  0.00000000000E+00 0.  1.
         21   -1    0    0  502  503 -0.00000000000E+00 -0.00000000000E+00 -0.62646146119E+03  0.62646146119E+03  0.00000000000E+00 0.  1.
          6    1    1    2  501    0  0.64870468216E+01  0.53633159338E+02 -0.72521337448E+01  0.18043057114E+03  0.17200000000E+03 0.  1.
         -6    1    1    2    0  503 -0.64870468216E+01 -0.53633159338E+02 -0.51736411436E+03  0.54787610314E+03  0.17200000000E+03 0.  1.
<mgrwt>
<rscale>  2 0.18028477E+03</rscale>
<asrwt>0</asrwt>
<pdfrwt beam="1">  1       21 0.25461304E-01 0.18028477E+03</pdfrwt>
<pdfrwt beam="2">  1       21 0.15661536E+00 0.18028477E+03</pdfrwt>
<totfact> 0.39429401E+03</totfact>
</mgrwt>
</event>
<event>
 4    1  0.1091654E+000  0.1824249E+03  0.7546771E-02  0.1165477E+00
         21   -1    0    0  503  502  0.00000000000E+00  0.00000000000E+00  0.83484150419E+02  0.83484150419E+02  0.00000000000E+00 0. -1.
         21   -1    0    0  501  503 -0.00000000000E+00 -0.00000000000E+00 -0.44374486034E+03  0.44374486034E+03  0.00000000000E+00 0. -1.
          6    1    1    2  501    0  0.34031441226E+02 -0.50365851258E+02 -0.96070783480E+02  0.20617578278E+03  0.17200000000E+03 0. -1.
         -6    1    1    2    0  502 -0.34031441226E+02  0.50365851258E+02 -0.26418992644E+03  0.32105322798E+03  0.17200000000E+03 0. -1.
<mgrwt>
<rscale>  2 0.18242494E+03</rscale>
<asrwt>0</asrwt>
<pdfrwt beam="1">  1       21 0.20871038E-01 0.18242494E+03</pdfrwt>
<pdfrwt beam="2">  1       21 0.11093621E+00 0.18242494E+03</pdfrwt>
<totfact> 0.13731331E+04</totfact>
</mgrwt>
</event>
<event>
 4    1  0.1091654E+000  0.1731578E+03  0.7546771E-02  0.1174594E+00
         21   -1    0    0  501  502  0.00000000000E+00  0.00000000000E+00  0.21285637339E+03  0.21285637339E+03  0.00000000000E+00 0.  1.
         21   -1    0    0  502  503 -0.00000000000E+00 -0.00000000000E+00 -0.14831036187E+03  0.14831036187E+03  0.00000000000E+00 0.  1.
          6    1    1    2  501    0 -0.42313259146E+00 -0.19986188603E+02  0.72738777242E+02  0.18781521901E+03  0.17200000000E+03 0.  1.
         -6    1    1    2    0  503  0.42313259146E+00  0.19986188603E+02 -0.81927657283E+01  0.17335151625E+03  0.17200000000E+03 0.  1.
<mgrwt>
<rscale>  2 0.17315781E+03</rscale>
<asrwt>0</asrwt>
<pdfrwt beam="1">  1       21 0.53214093E-01 0.17315781E+03</pdfrwt>
<pdfrwt beam="2">  1       21 0.37077591E-01 0.17315781E+03</pdfrwt>
<totfact> 0.23728784E+04</totfact>
</mgrwt>
</event>
<event>
 4    1  0.1091654E+000  0.2344917E+03  0.7546771E-02  0.1123518E+00
         21   -1    0    0  503  502  0.00000000000E+00  0.00000000000E+00  0.56871962092E+03  0.56871962092E+03  0.00000000000E+00 0. -1.
         21   -1    0    0  501  503 -0.00000000000E+00 -0.00000000000E+00 -0.97890356857E+02  0.97890356857E+02  0.00000000000E+00 0.  1.
          6    1    1    2  501    0 -0.50171042811E+02  0.15127868006E+03  0.27240763729E+03  0.35943329482E+03  0.17200000000E+03 0.  1.
         -6    1    1    2    0  502  0.50171042811E+02 -0.15127868006E+03  0.19842162678E+03  0.30717668295E+03  0.17200000000E+03 0. -1.
<mgrwt>
<rscale>  2 0.23449173E+03</rscale>
<asrwt>0</asrwt>
<pdfrwt beam="1">  1       21 0.14217990E+00 0.23449173E+03</pdfrwt>
<pdfrwt beam="2">  1       21 0.24472591E-01 0.23449173E+03</pdfrwt>
<totfact> 0.52512316E+03</totfact>
</mgrwt>
</event>
<event>
 4    1  0.1091654E+000  0.1999003E+03  0.7546771E-02  0.1149823E+00
         21   -1    0    0  503  502  0.00000000000E+00  0.00000000000E+00  0.86005629418E+02  0.86005629418E+02  0.00000000000E+00 0. -1.
         21   -1    0    0  501  503 -0.00000000000E+00 -0.00000000000E+00 -0.13516860481E+04  0.13516860481E+04  0.00000000000E+00 0. -1.
          6    1    1    2  501    0  0.83372699666E+02 -0.58524388362E+02 -0.12151784720E+04  0.12315107916E+04  0.17200000000E+03 0. -1.
         -6    1    1    2    0  502 -0.83372699666E+02  0.58524388362E+02 -0.50501946665E+02  0.20618088587E+03  0.17200000000E+03 0. -1.
<mgrwt>
<rscale>  2 0.19990025E+03</rscale>
<asrwt>0</asrwt>
<pdfrwt beam="1">  1       21 0.21501408E-01 0.19990025E+03</pdfrwt>
<pdfrwt beam="2">  1       21 0.33792151E+00 0.19990025E+03</pdfrwt>
<totfact> 0.41044574E+02</totfact>
</mgrwt>
</event>
<event>
 4    1  0.1091654E+000  0.2431275E+03  0.7546771E-02  0.1117727E+00
         21   -1    0    0  501  502  0.00000000000E+00  0.00000000000E+00  0.20554977301E+03  0.20554977301E+03  0.00000000000E+00 0. -1.
         21   -1    0    0  502  503 -0.00000000000E+00 -0.00000000000E+00 -0.35245403761E+03  0.35245403761E+03  0.00000000000E+00 0.  1.
          6    1    1    2  501    0  0.17181395352E+03  0.26366301826E+01  0.46251672052E+02  0.24748778477E+03  0.17200000000E+03 0. -1.
         -6    1    1    2    0  503 -0.17181395352E+03 -0.26366301826E+01 -0.19315593666E+03  0.31051602585E+03  0.17200000000E+03 0. -1.
<mgrwt>
<rscale>  2 0.24312751E+03</rscale>
<asrwt>0</asrwt>
<pdfrwt beam="1">  1       21 0.51387443E-01 0.24312751E+03</pdfrwt>
<pdfrwt beam="2">  1       21 0.88113509E-01 0.24312751E+03</pdfrwt>
<totfact> 0.38228619E+03</totfact>
</mgrwt>
</event>
<event>
 4    1  0.1091654E+000  0.1729029E+03  0.7546771E-02  0.1174854E+00
         21   -1    0    0  501  502  0.00000000000E+00  0.00000000000E+00  0.55566227319E+02  0.55566227319E+02  0.00000000000E+00 0.  1.
         21   -1    0    0  502  503 -0.00000000000E+00 -0.00000000000E+00 -0.80570041106E+03  0.80570041106E+03  0.00000000000E+00 0.  1.
          6    1    1    2  501    0 -0.64853756539E+01 -0.16411767307E+02 -0.12684865939E+03  0.21444343915E+03  0.17200000000E+03 0.  1.
         -6    1    1    2    0  503  0.64853756539E+01  0.16411767307E+02 -0.62328552435E+03  0.64682319923E+03  0.17200000000E+03 0.  1.
<mgrwt>
<rscale>  2 0.17290288E+03</rscale>
<asrwt>0</asrwt>
<pdfrwt beam="1">  1       21 0.13891557E-01 0.17290288E+03</pdfrwt>
<pdfrwt beam="2">  1       21 0.20142510E+00 0.17290288E+03</pdfrwt>
<totfact> 0.60403234E+03</totfact>
</mgrwt>
</event>
<event>
 4    1  0.1091654E+000  0.1747482E+03  0.7546771E-02  0.1172985E+00
         21   -1    0    0  503  502  0.00000000000E+00  0.00000000000E+00  0.12546370982E+03  0.12546370982E+03  0.00000000000E+00 0.  1.
         21   -1    0    0  501  503 -0.00000000000E+00 -0.00000000000E+00 -0.43045783141E+03  0.43045783141E+03  0.00000000000E+00 0.  1.
          6    1    1    2  501    0 -0.24087195696E+02  0.19306713080E+02 -0.33573470707E+03  0.37849007344E+03  0.17200000000E+03 0.  1.
         -6    1    1    2    0  502  0.24087195696E+02 -0.19306713080E+02  0.30740585468E+02  0.17743146779E+03  0.17200000000E+03 0.  1.
<mgrwt>
<rscale>  2 0.17474823E+03</rscale>
<asrwt>0</asrwt>
<pdfrwt beam="1">  1       21 0.31365928E-01 0.17474823E+03</pdfrwt>
<pdfrwt beam="2">  1       21 0.10761446E+00 0.17474823E+03</pdfrwt>
<totfact> 0.68212413E+03</totfact>
</mgrwt>
</event>
<event>
 4    1  0.1091654E+000  0.2272487E+03  0.7546771E-02  0.1128591E+00
         21   -1    0    0  501  502  0.00000000000E+00  0.00000000000E+00  0.18008034153E+03  0.18008034153E+03  0.00000000000E+00 0.  1.
         21   -1    0    0  502  503 -0.00000000000E+00 -0.00000000000E+00 -0.33834182203E+03  0.33834182203E+03  0.00000000000E+00 0. -1.
          6    1    1    2  501    0 -0.21503103021E+02  0.14695439869E+03  0.22067749031E+02  0.22831768281E+03  0.17200000000E+03 0. -1.
         -6    1    1    2    0  503  0.21503103021E+02 -0.14695439869E+03 -0.18032922953E+03  0.29010448076E+03  0.17200000000E+03 0.  1.
<mgrwt>
<rscale>  2 0.22724872E+03</rscale>
<asrwt>0</asrwt>
<pdfrwt beam="1">  1       21 0.45020086E-01 0.22724872E+03</pdfrwt>
<pdfrwt beam="2">  1       21 0.84585454E-01 0.22724872E+03</pdfrwt>
<totfact> 0.55933717E+03</totfact>
</mgrwt>
</event>
<event>
 4    1  0.1091654E+000  0.1898603E+03  0.7546771E-02  0.1158587E+00
         21   -1    0    0  501  502  0.00000000000E+00  0.00000000000E+00  0.71964958370E+02  0.71964958370E+02  0.00000000000E+00 0. -1.
         21   -1    0    0  502  503 -0.00000000000E+00 -0.00000000000E+00 -0.67864219535E+03  0.67864219535E+03  0.00000000000E+00 0. -1.
          6    1    1    2  501    0  0.58851436122E+02 -0.54767101148E+02 -0.11126709151E+03  0.22006201979E+03  0.17200000000E+03 0. -1.
         -6    1    1    2    0  503 -0.58851436122E+02  0.54767101148E+02 -0.49541014547E+03  0.53054513393E+03  0.17200000000E+03 0. -1.
<mgrwt>
<rscale>  2 0.18986028E+03</rscale>
<asrwt>0</asrwt>
<pdfrwt beam="1">  1       21 0.17991240E-01 0.18986028E+03</pdfrwt>
<pdfrwt beam="2">  1       21 0.16966055E+00 0.18986028E+03</pdfrwt>
<totfact> 0.60437185E+03</totfact>
</mgrwt>
</event>
<event>
 4    1  0.1091654E+000  0.2049861E+03  0.7546771E-02  0.1145599E+00
         21   -1    0    0  503  502  0.00000000000E+00  0.00000000000E+00  0.15436535673E+03  0.15436535673E+03  0.00000000000E+00 0. -1.
         21   -1    0    0  501  503 -0.00000000000E+00 -0.00000000000E+00 -0.28897443155E+03  0.28897443155E+03  0.00000000000E+00 0. -1.
          6    1    1    2  501    0  0.10064799875E+03  0.48013480509E+02 -0.12070090038E+03  0.23788236865E+03  0.17200000000E+03 0. -1.
         -6    1    1    2    0  502 -0.10064799875E+03 -0.48013480509E+02 -0.13908174433E+02  0.20545741963E+03  0.17200000000E+03 0. -1.
<mgrwt>
<rscale>  2 0.20498613E+03</rscale>
<asrwt>0</asrwt>
<pdfrwt beam="1">  1       21 0.38591339E-01 0.20498613E+03</pdfrwt>
<pdfrwt beam="2">  1       21 0.72243607E-01 0.20498613E+03</pdfrwt>
<totfact> 0.11095816E+04</totfact>
</mgrwt>
</event>
<event>
 4    1  0.1091654E+000  0.2275840E+03  0.7546771E-02  0.1128352E+00
         21   -1    0    0  501  502  0.00000000000E+00  0.00000000000E+00  0.88784306913E+02  0.88784306913E+02  0.00000000000E+00 0.  1.
         21   -1    0    0  502  503 -0.00000000000E+00 -0.00000000000E+00 -0.58602977969E+03  0.58602977969E+03  0.00000000000E+00 0.  1.
          6    1    1    2  501    0 -0.14868339687E+03 -0.10184469151E+02 -0.22590985557E+03  0.32067076381E+03  0.17200000000E+03 0.  1.
         -6    1    1    2    0  503  0.14868339687E+03  0.10184469151E+02 -0.27133561721E+03  0.35414332280E+03  0.17200000000E+03 0.  1.
<mgrwt>
<rscale>  2 0.22758400E+03</rscale>
<asrwt>0</asrwt>
<pdfrwt beam="1">  1       21 0.22196077E-01 0.22758400E+03</pdfrwt>
<pdfrwt beam="2">  1       21 0.14650744E+00 0.22758400E+03</pdfrwt>
<totfact> 0.58744931E+03</totfact>
</mgrwt>
</event>
<event>
 4    1  0.1091654E+000  0.1759405E+03  0.7546771E-02  0.1171791E+00
         21   -1    0    0  501  502  0.00000000000E+00  0.00000000000E+00  0.47400382451E+03  0.47400382451E+03  0.00000000000E+00 0.  1.
         21   -1    0    0  502  503 -0.00000000000E+00 -0.00000000000E+00 -0.95852172061E+02  0.95852172061E+02  0.00000000000E+00 0.  1.
          6    1    1    2  501    0  0.26708918201E+02 -0.25645729663E+02  0.34992391466E+03  0.39166543863E+03  0.17200000000E+03 0.  1.
         -6    1    1    2    0  503 -0.26708918201E+02  0.25645729663E+02  0.28227737790E+02  0.17819055795E+03  0.17200000000E+03 0.  1.
<mgrwt>
<rscale>  2 0.17594053E+03</rscale>
<asrwt>0</asrwt>
<pdfrwt beam="1">  1       21 0.11850095E+00 0.17594053E+03</pdfrwt>
<pdfrwt beam="2">  1       21 0.23963044E-01 0.17594053E+03</pdfrwt>
<totfact> 0.90580635E+03</totfact>
</mgrwt>
</event>
<event>
 4    1  0.1091654E+000  0.2071164E+03  0.7546771E-02  0.1143870E+00
         21   -1    0    0  503  502  0.00000000000E+00  0.00000000000E+00  0.40804803206E+03  0.40804803206E+03  0.00000000000E+00 0.  1.
         21   -1    0    0  501  503 -0.00000000000E+00 -0.00000000000E+00 -0.11227816488E+03  0.11227816488E+03  0.00000000000E+00 0.  1.
          6    1    1    2  501    0  0.24873771090E+02  0.11266982406E+03  0.21353905724E+03  0.29748297886E+03  0.17200000000E+03 0.  1.
         -6    1    1    2    0  502 -0.24873771090E+02 -0.11266982406E+03  0.82230809941E+02  0.22284321808E+03  0.17200000000E+03 0.  1.
<mgrwt>
<rscale>  2 0.20711638E+03</rscale>
<asrwt>0</asrwt>
<pdfrwt beam="1">  1       21 0.10201200E+00 0.20711638E+03</pdfrwt>
<pdfrwt beam="2">  1       21 0.28069542E-01 0.20711638E+03</pdfrwt>
<totfact> 0.93960435E+03</totfact>
</mgrwt>
</event>
<event>
 4    1  0.1091654E+000  0.2439077E+03  0.7546771E-02  0.1117217E+00
         21   -1    0    0  503  502  0.00000000000E+00  0.00000000000E+00  0.93902873660E+03  0.93902873660E+03  0.00000000000E+00 0.  1.
         21   -1    0    0  501  503 -0.00000000000E+00 -0.00000000000E+00 -0.88302160675E+02  0.88302160675E+02  0.00000000000E+00 0.  1.
          6    1    1    2  501    0 -0.16000706607E+03  0.65610195018E+02  0.15232947356E+03  0.28756777879E+03  0.17200000000E+03 0.  1.
         -6    1    1    2    0  502  0.16000706607E+03 -0.65610195018E+02  0.69839710236E+03  0.73976311848E+03  0.17200000000E+03 0.  1.
<mgrwt>
<rscale>  2 0.24390769E+03</rscale>
<asrwt>0</asrwt>
<pdfrwt beam="1">  1       21 0.23475715E+00 0.24390769E+03</pdfrwt>
<pdfrwt beam="2">  1       21 0.22075543E-01 0.24390769E+03</pdfrwt>
<totfact> 0.14892859E+03</totfact>
</mgrwt>
</event>
<event>
 4    1  0.1091654E+000  0.1857158E+03  0.7546771E-02  0.1162383E+00
         21   -1    0    0  503  502  0.00000000000E+00  0.00000000000E+00  0.80998941896E+02  0.80998941896E+02  0.00000000000E+00 0. -1.
         21   -1    0    0  501  503 -0.00000000000E+00 -0.00000000000E+00 -0.54717859889E+03  0.54717859889E+03  0.00000000000E+00 0. -1.
          6    1    1    2  501    0 -0.53909399579E+02 -0.44723075143E+02 -0.38101300548E+03  0.42386470384E+03  0.17200000000E+03 0. -1.
         -6    1    1    2    0  502  0.53909399579E+02  0.44723075143E+02 -0.85166651517E+02  0.20431283695E+03  0.17200000000E+03 0. -1.
<mgrwt>
<rscale>  2 0.18571585E+03</rscale>
<asrwt>0</asrwt>
<pdfrwt beam="1">  1       21 0.20249736E-01 0.18571585E+03</pdfrwt>
<pdfrwt beam="2">  1       21 0.13679465E+00 0.18571585E+03</pdfrwt>
<totfact> 0.86120893E+03</totfact>
</mgrwt>
</event>
<event>
 4    1  0.1091654E+000  0.2142094E+03  0.7546771E-02  0.1138275E+00
         21   -1    0    0  501  502  0.00000000000E+00  0.00000000000E+00  0.63915593992E+02  0.63915593992E+02  0.00000000000E+00 0. -1.
         21   -1    0    0  502  503 -0.00000000000E+00 -0.00000000000E+00 -0.73143255183E+03  0.73143255183E+03  0.00000000000E+00 0.  1.
          6    1    1    2  501    0  0.68821726547E+01 -0.12749239600E+03 -0.27968782656E+03  0.35229384846E+03  0.17200000000E+03 0. -1.
         -6    1    1    2    0  503 -0.68821726547E+01  0.12749239600E+03 -0.38782913128E+03  0.44305429736E+03  0.17200000000E+03 0. -1.
<mgrwt>
<rscale>  2 0.21420942E+03</rscale>
<asrwt>0</asrwt>
<pdfrwt beam="1">  1       21 0.15978899E-01 0.21420942E+03</pdfrwt>
<pdfrwt beam="2">  1       21 0.18285814E+00 0.21420942E+03</pdfrwt>
<totfact> 0.59725876E+03</totfact>
</mgrwt>
</event>
<event>
 4    1  0.1091654E+000  0.2477532E+03  0.7546771E-02  0.1114733E+00
         21   -1    0    0  503  502  0.00000000000E+00  0.00000000000E+00  0.87395429959E+03  0.87395429959E+03  0.00000000000E+00 0. -1.
         21   -1    0    0  501  503 -0.00000000000E+00 -0.00000000000E+00 -0.83145275349E+02  0.83145275349E+02  0.00000000000E+00 0.  1.
          6    1    1    2  501    0 -0.94954555388E+02 -0.15093463052E+03  0.20682840066E+03  0.32273769163E+03  0.17200000000E+03 0. -1.
         -6    1    1    2    0  502  0.94954555388E+02  0.15093463052E+03  0.58398062359E+03  0.63436188332E+03  0.17200000000E+03 0.  1.
<mgrwt>
<rscale>  2 0.24775316E+03</rscale>
<asrwt>0</asrwt>
<pdfrwt beam="1">  1       21 0.21848855E+00 0.24775316E+03</pdfrwt>
<pdfrwt beam="2">  1       21 0.20786322E-01 0.24775316E+03</pdfrwt>
<totfact> 0.20937113E+03</totfact>
</mgrwt>
</event>
<event>
 4    1  0.1091654E+000  0.1766342E+03  0.7546771E-02  0.1171101E+00
         21   -1    0    0  501  502  0.00000000000E+00  0.00000000000E+00  0.63522991843E+02  0.63522991843E+02  0.00000000000E+00 0.  1.
         21   -1    0    0  502  503 -0.00000000000E+00 -0.00000000000E+00 -0.49118649609E+03  0.49118649609E+03  0.00000000000E+00 0.  1.
          6    1    1    2  501    0 -0.39947732630E+02  0.44507218168E+01 -0.21160813423E+03  0.27564040477E+03  0.17200000000E+03 0.  1.
         -6    1    1    2    0  503  0.39947732630E+02 -0.44507218168E+01 -0.21605537001E+03  0.27906908317E+03  0.17200000000E+03 0.  1.
<mgrwt>
<rscale>  2 0.17663417E+03</rscale>
<asrwt>0</asrwt>
<pdfrwt beam="1">  1       21 0.15880748E-01 0.17663417E+03</pdfrwt>
<pdfrwt beam="2">  1       21 0.12279662E+00 0.17663417E+03</pdfrwt>
<totfact> 0.17815921E+04</totfact>
</mgrwt>
</event>
<event>
 4    1  0.1091654E+000  0.1860370E+03  0.7546771E-02  0.1162085E+00
         21   -1    0    0  503  502  0.00000000000E+00  0.00000000000E+00  0.15734259058E+03  0.15734259058E+03  0.00000000000E+00 0. -1.
         21   -1    0    0  501  503 -0.00000000000E+00 -0.00000000000E+00 -0.42407988645E+03  0.42407988645E+03  0.00000000000E+00 0. -1.
          6    1    1    2  501    0  0.14942356688E+02  0.69299904895E+02 -0.33505480066E+03  0.38323813783E+03  0.17200000000E+03 0. -1.
         -6    1    1    2    0  502 -0.14942356688E+02 -0.69299904895E+02  0.68317504791E+02  0.19818433920E+03  0.17200000000E+03 0. -1.
<mgrwt>
<rscale>  2 0.18603696E+03</rscale>
<asrwt>0</asrwt>
<pdfrwt beam="1">  1       21 0.39335648E-01 0.18603696E+03</pdfrwt>
<pdfrwt beam="2">  1       21 0.10601997E+00 0.18603696E+03</pdfrwt>
<totfact> 0.44717457E+03</totfact>
</mgrwt>
</event>
<event>
 4    1  0.1091654E+000  0.1817005E+03  0.7546771E-02  0.1166167E+00
         21   -1    0    0  503  502  0.00000000000E+00  0.00000000000E+00  0.49178305767E+03  0.49178305767E+03  0.00000000000E+00 0.  1.
         21   -1    0    0  501  503 -0.00000000000E+00 -0.00000000000E+00 -0.94967977019E+02  0.94967977019E+02  0.00000000000E+00 0.  1.
          6    1    1    2  501    0 -0.20472896010E+02  0.54880969255E+02  0.39579300730E+02  0.18596123602E+03  0.17200000000E+03 0.  1.
         -6    1    1    2    0  502  0.20472896010E+02 -0.54880969255E+02  0.35723577992E+03  0.40078979866E+03  0.17200000000E+03 0.  1.
<mgrwt>
<rscale>  2 0.18170047E+03</rscale>
<asrwt>0</asrwt>
<pdfrwt beam="1">  1       21 0.12294576E+00 0.18170047E+03</pdfrwt>
<pdfrwt beam="2">  1       21 0.23741996E-01 0.18170047E+03</pdfrwt>
<totfact> 0.83776083E+03</totfact>
</mgrwt>
</event>
<event>
 4    1  0.1091654E+000  0.1766603E+03  0.7546771E-02  0.1171075E+00
         21   -1    0    0  503  502  0.00000000000E+00  0.00000000000E+00  0.13721439665E+03  0.13721439665E+03  0.00000000000E+00 0. -1.
         21   -1    0    0  501  503 -0.00000000000E+00 -0.00000000000E+00 -0.36565224709E+03  0.36565224709E+03  0.00000000000E+00 0. -1.
          6    1    1    2  501    0 -0.40815273783E+01  0.40102603807E+02 -0.26879860705E+03  0.32165442458E+03  0.17200000000E+03 0. -1.
         -6    1    1    2    0  502  0.40815273783E+01 -0.40102603807E+02  0.40360756608E+02  0.18121221916E+03  0.17200000000E+03 0. -1.
<mgrwt>
<rscale>  2 0.17666035E+03</rscale>
<asrwt>0</asrwt>
<pdfrwt beam="1">  1       21 0.34303599E-01 0.17666035E+03</pdfrwt>
<pdfrwt beam="2">  1       21 0.91413061E-01 0.17666035E+03</pdfrwt>
<totfact> 0.83964579E+03</totfact>
</mgrwt>
</event>
<event>
 4    1  0.1091654E+000  0.2054135E+03  0.7546771E-02  0.1145250E+00
         21   -1    0    0  503  502  0.00000000000E+00  0.00000000000E+00  0.67123717470E+02  0.67123717470E+02  0.00000000000E+00 0. -1.
         21   -1    0    0  501  503 -0.00000000000E+00 -0.00000000000E+00 -0.64143518676E+03  0.64143518676E+03  0.00000000000E+00 0. -1.
          6    1    1    2  501    0  0.11046109664E+03  0.20224899427E+02 -0.23706167941E+03  0.31367648983E+03  0.17200000000E+03 0. -1.
         -6    1    1    2    0  502 -0.11046109664E+03 -0.20224899427E+02 -0.33724978988E+03  0.39488241440E+03  0.17200000000E+03 0. -1.
<mgrwt>
<rscale>  2 0.20541349E+03</rscale>
<asrwt>0</asrwt>
<pdfrwt beam="1">  1       21 0.16780929E-01 0.20541349E+03</pdfrwt>
<pdfrwt beam="2">  1       21 0.16035880E+00 0.20541349E+03</pdfrwt>
<totfact> 0.79125946E+03</totfact>
</mgrwt>
</event>
<event>
 4    1  0.1091654E+000  0.1754812E+03  0.7546771E-02  0.1172249E+00
         21   -1    0    0  501  502  0.00000000000E+00  0.00000000000E+00  0.46224154908E+02  0.46224154908E+02  0.00000000000E+00 0. -1.
         21   -1    0    0  502  503 -0.00000000000E+00 -0.00000000000E+00 -0.94204289926E+03  0.94204289926E+03  0.00000000000E+00 0. -1.
          6    1    1    2  501    0  0.16077442784E+02  0.30840933896E+02 -0.18051334459E+03  0.25175129581E+03  0.17200000000E+03 0. -1.
         -6    1    1    2    0  503 -0.16077442784E+02 -0.30840933896E+02 -0.71530539976E+03  0.73651575835E+03  0.17200000000E+03 0. -1.
<mgrwt>
<rscale>  2 0.17548119E+03</rscale>
<asrwt>0</asrwt>
<pdfrwt beam="1">  1       21 0.11556038E-01 0.17548119E+03</pdfrwt>
<pdfrwt beam="2">  1       21 0.23551073E+00 0.17548119E+03</pdfrwt>
<totfact> 0.51779388E+03</totfact>
</mgrwt>
</event>
<event>
 4    1  0.1091654E+000  0.2097615E+03  0.7546771E-02  0.1141755E+00
         21   -1    0    0  501  502  0.00000000000E+00  0.00000000000E+00  0.38560457300E+02  0.38560457300E+02  0.00000000000E+00 0. -1.
         21   -1    0    0  502  503 -0.00000000000E+00 -0.00000000000E+00 -0.15051228064E+04  0.15051228064E+04  0.00000000000E+00 0. -1.
          6    1    1    2  501    0  0.83676916336E+02 -0.86104824678E+02 -0.11128838617E+04  0.11324797380E+04  0.17200000000E+03 0. -1.
         -6    1    1    2    0  503 -0.83676916336E+02  0.86104824678E+02 -0.35367848734E+03  0.41120352573E+03  0.17200000000E+03 0. -1.
<mgrwt>
<rscale>  2 0.20976145E+03</rscale>
<asrwt>0</asrwt>
<pdfrwt beam="1">  1       21 0.96401144E-02 0.20976145E+03</pdfrwt>
<pdfrwt beam="2">  1       21 0.37628070E+00 0.20976145E+03</pdfrwt>
<totfact> 0.10287502E+03</totfact>
</mgrwt>
</event>
<event>
 4    1  0.1091654E+000  0.1976166E+03  0.7546771E-02  0.1151766E+00
         21   -1    0    0  503  502  0.00000000000E+00  0.00000000000E+00  0.40103505460E+03  0.40103505460E+03  0.00000000000E+00 0. -1.
         21   -1    0    0  501  503 -0.00000000000E+00 -0.00000000000E+00 -0.10246531024E+03  0.10246531024E+03  0.00000000000E+00 0. -1.
          6    1    1    2  501    0  0.30505469877E+02  0.92399806052E+02  0.93194049785E+02  0.21848899003E+03  0.17200000000E+03 0. -1.
         -6    1    1    2    0  502 -0.30505469877E+02 -0.92399806052E+02  0.20537569457E+03  0.28501137481E+03  0.17200000000E+03 0. -1.
<mgrwt>
<rscale>  2 0.19761657E+03</rscale>
<asrwt>0</asrwt>
<pdfrwt beam="1">  1       21 0.10025876E+00 0.19761657E+03</pdfrwt>
<pdfrwt beam="2">  1       21 0.25616329E-01 0.19761657E+03</pdfrwt>
<totfact> 0.11756576E+04</totfact>
</mgrwt>
</event>
<event>
 4    1  0.1091654E+000  0.2092575E+03  0.7546771E-02  0.1142155E+00
         21   -1    0    0  503  502  0.00000000000E+00  0.00000000000E+00  0.42471977051E+03  0.42471977051E+03  0.00000000000E+00 0.  1.
         21   -1    0    0  501  503 -0.00000000000E+00 -0.00000000000E+00 -0.10648795763E+03  0.10648795763E+03  0.00000000000E+00 0. -1.
          6    1    1    2  501    0  0.11895625715E+03  0.73549747318E+01  0.11174177185E+03  0.23722333432E+03  0.17200000000E+03 0.  1.
         -6    1    1    2    0  502 -0.11895625715E+03 -0.73549747318E+01  0.20649004103E+03  0.29398439382E+03  0.17200000000E+03 0.  1.
<mgrwt>
<rscale>  2 0.20925747E+03</rscale>
<asrwt>0</asrwt>
<pdfrwt beam="1">  1       21 0.10617994E+00 0.20925747E+03</pdfrwt>
<pdfrwt beam="2">  1       21 0.26621990E-01 0.20925747E+03</pdfrwt>
<totfact> 0.94392770E+03</totfact>
</mgrwt>
</event>
<event>
 4    1  0.1091654E+000  0.1776937E+03  0.7546771E-02  0.1170054E+00
         21   -1    0    0  503  502  0.00000000000E+00  0.00000000000E+00  0.80207016485E+03  0.80207016485E+03  0.00000000000E+00 0. -1.
         21   -1    0    0  501  503 -0.00000000000E+00 -0.00000000000E+00 -0.89667984190E+02  0.89667984190E+02  0.00000000000E+00 0.  1.
          6    1    1    2  501    0  0.23866536652E+02 -0.37701797092E+02  0.22254351400E+02  0.17908180598E+03  0.17200000000E+03 0.  1.
         -6    1    1    2    0  502 -0.23866536652E+02  0.37701797092E+02  0.69014782926E+03  0.71265634306E+03  0.17200000000E+03 0. -1.
<mgrwt>
<rscale>  2 0.17769366E+03</rscale>
<asrwt>0</asrwt>
<pdfrwt beam="1">  1       21 0.20051752E+00 0.17769366E+03</pdfrwt>
<pdfrwt beam="2">  1       21 0.22416998E-01 0.17769366E+03</pdfrwt>
<totfact> 0.25217346E+03</totfact>
</mgrwt>
</event>
<event>
 4    1  0.1091654E+000  0.1805582E+03  0.7546771E-02  0.1167264E+00
         21   -1    0    0  503  502  0.00000000000E+00  0.00000000000E+00  0.14393240907E+03  0.14393240907E+03  0.00000000000E+00 0.  1.
         21   -1    0    0  501  503 -0.00000000000E+00 -0.00000000000E+00 -0.28752047677E+03  0.28752047677E+03  0.00000000000E+00 0.  1.
          6    1    1    2  501    0 -0.54887514697E+02  0.21521424825E+01 -0.17117253496E+03  0.24879973415E+03  0.17200000000E+03 0.  1.
         -6    1    1    2    0  502  0.54887514697E+02 -0.21521424825E+01  0.27584467260E+02  0.18265315169E+03  0.17200000000E+03 0.  1.
<mgrwt>
<rscale>  2 0.18055822E+03</rscale>
<asrwt>0</asrwt>
<pdfrwt beam="1">  1       21 0.35983103E-01 0.18055822E+03</pdfrwt>
<pdfrwt beam="2">  1       21 0.71880118E-01 0.18055822E+03</pdfrwt>
<totfact> 0.13118775E+04</totfact>
</mgrwt>
</event>
<event>
 4    1  0.1091654E+000  0.1774439E+03  0.7546771E-02  0.1170300E+00
         21   -1    0    0  503  502  0.00000000000E+00  0.00000000000E+00  0.92437770371E+03  0.92437770371E+03  0.00000000000E+00 0. -1.
         21   -1    0    0  501  503 -0.00000000000E+00 -0.00000000000E+00 -0.18712418940E+03  0.18712418940E+03  0.00000000000E+00 0. -1.
          6    1    1    2  501    0 -0.14377497442E+02  0.41177909732E+02 -0.13400384934E+03  0.22235863896E+03  0.17200000000E+03 0. -1.
         -6    1    1    2    0  502  0.14377497442E+02 -0.41177909732E+02  0.87125736365E+03  0.88914325415E+03  0.17200000000E+03 0. -1.
<mgrwt>
<rscale>  2 0.17744389E+03</rscale>
<asrwt>0</asrwt>
<pdfrwt beam="1">  1       21 0.23109441E+00 0.17744389E+03</pdfrwt>
<pdfrwt beam="2">  1       21 0.46781050E-01 0.17744389E+03</pdfrwt>
<totfact> 0.38475878E+02</totfact>
</mgrwt>
</event>
<event>
 4    1  0.1091654E+000  0.2040989E+03  0.7546771E-02  0.1146326E+00
         21   -1    0    0  501  502  0.00000000000E+00  0.00000000000E+00  0.62468651529E+03  0.62468651529E+03  0.00000000000E+00 0.  1.
         21   -1    0    0  502  503 -0.00000000000E+00 -0.00000000000E+00 -0.11089668901E+03  0.11089668901E+03  0.00000000000E+00 0.  1.
          6    1    1    2  501    0  0.92892406308E+02  0.58680107908E+02  0.48912467735E+03  0.52999934359E+03  0.17200000000E+03 0.  1.
         -6    1    1    2    0  503 -0.92892406308E+02 -0.58680107908E+02  0.24665148929E+02  0.20558386071E+03  0.17200000000E+03 0.  1.
<mgrwt>
<rscale>  2 0.20409888E+03</rscale>
<asrwt>0</asrwt>
<pdfrwt beam="1">  1       21 0.15617162E+00 0.20409888E+03</pdfrwt>
<pdfrwt beam="2">  1       21 0.27724174E-01 0.20409888E+03</pdfrwt>
<totfact> 0.33019404E+03</totfact>
</mgrwt>
</event>
<event>
 4    1  0.1091654E+000  0.2005925E+03  0.7546771E-02  0.1149240E+00
         21   -1    0    0  503  502  0.00000000000E+00  0.00000000000E+00  0.68144010192E+03  0.68144010192E+03  0.00000000000E+00 0. -1.
         21   -1    0    0  501  503 -0.00000000000E+00 -0.00000000000E+00 -0.87837956413E+02  0.87837956413E+02  0.00000000000E+00 0. -1.
          6    1    1    2  501    0 -0.62643872645E+02  0.82030952749E+02  0.76591324712E+02  0.21471740267E+03  0.17200000000E+03 0. -1.
         -6    1    1    2    0  502  0.62643872645E+02 -0.82030952749E+02  0.51701082079E+03  0.55456065566E+03  0.17200000000E+03 0. -1.
<mgrwt>
<rscale>  2 0.20059245E+03</rscale>
<asrwt>0</asrwt>
<pdfrwt beam="1">  1       21 0.17036001E+00 0.20059245E+03</pdfrwt>
<pdfrwt beam="2">  1       21 0.21959491E-01 0.20059245E+03</pdfrwt>
<totfact> 0.40801549E+03</totfact>
</mgrwt>
</event>
<event>
 4    1  0.1091654E+000  0.1865486E+03  0.7546771E-02  0.1161612E+00
         21   -1    0    0  501  502  0.00000000000E+00  0.00000000000E+00  0.13421182042E+03  0.13421182042E+03  0.00000000000E+00 0. -1.
         21   -1    0    0  502  503 -0.00000000000E+00 -0.00000000000E+00 -0.44766777042E+03  0.44766777042E+03  0.00000000000E+00 0.  1.
          6    1    1    2  501    0  0.50911189081E+02 -0.51229132231E+02  0.31999431294E+02  0.18927318026E+03  0.17200000000E+03 0. -1.
         -6    1    1    2    0  503 -0.50911189081E+02  0.51229132231E+02 -0.34545538130E+03  0.39260641058E+03  0.17200000000E+03 0.  1.
<mgrwt>
<rscale>  2 0.18654858E+03</rscale>
<asrwt>0</asrwt>
<pdfrwt beam="1">  1       21 0.33552955E-01 0.18654858E+03</pdfrwt>
<pdfrwt beam="2">  1       21 0.11191694E+00 0.18654858E+03</pdfrwt>
<totfact> 0.53846373E+03</totfact>
</mgrwt>
</event>
<event>
 4    1  0.1091654E+000  0.2086711E+03  0.7546771E-02  0.1142623E+00
         21   -1    0    0  503  502  0.00000000000E+00  0.00000000000E+00  0.56825509410E+02  0.56825509410E+02  0.00000000000E+00 0. -1.
         21   -1    0    0  501  503 -0.00000000000E+00 -0.00000000000E+00 -0.79590742660E+03  0.79590742660E+03  0.00000000000E+00 0.  1.
          6    1    1    2  501    0 -0.91237763480E+02  0.75068672152E+02 -0.45181791296E+03  0.49767766827E+03  0.17200000000E+03 0.  1.
         -6    1    1    2    0  502  0.91237763480E+02 -0.75068672152E+02 -0.28726400423E+03  0.35505526774E+03  0.17200000000E+03 0.  1.
<mgrwt>
<rscale>  2 0.20867112E+03</rscale>
<asrwt>0</asrwt>
<pdfrwt beam="1">  1       21 0.14206377E-01 0.20867112E+03</pdfrwt>
<pdfrwt beam="2">  1       21 0.19897686E+00 0.20867112E+03</pdfrwt>
<totfact> 0.58192681E+03</totfact>
</mgrwt>
</event>
<event>
 4    1  0.1091654E+000  0.1731625E+03  0.7546771E-02  0.1174589E+00
         21   -1    0    0  503  502  0.00000000000E+00  0.00000000000E+00  0.25780158254E+03  0.25780158254E+03  0.00000000000E+00 0. -1.
         21   -1    0    0  501  503 -0.00000000000E+00 -0.00000000000E+00 -0.16140170433E+03  0.16140170433E+03  0.00000000000E+00 0. -1.
          6    1    1    2  501    0 -0.16282252247E+02 -0.11668404471E+02 -0.62585376909E+02  0.18412548114E+03  0.17200000000E+03 0. -1.
         -6    1    1    2    0  502  0.16282252247E+02  0.11668404471E+02  0.15898525512E+03  0.23507780573E+03  0.17200000000E+03 0. -1.
<mgrwt>
<rscale>  2 0.17316253E+03</rscale>
<asrwt>0</asrwt>
<pdfrwt beam="1">  1       21 0.64450395E-01 0.17316253E+03</pdfrwt>
<pdfrwt beam="2">  1       21 0.40350426E-01 0.17316253E+03</pdfrwt>
<totfact> 0.13310627E+04</totfact>
</mgrwt>
</event>
<event>
 4    1  0.1091654E+000  0.1894368E+03  0.7546771E-02  0.1158970E+00
         21   -1    0    0  503  502  0.00000000000E+00  0.00000000000E+00  0.14547481525E+03  0.14547481525E+03  0.00000000000E+00 0.  1.
         21   -1    0    0  501  503 -0.00000000000E+00 -0.00000000000E+00 -0.27606777934E+03  0.27606777934E+03  0.00000000000E+00 0. -1.
          6    1    1    2  501    0 -0.70808044729E+02 -0.35896020662E+02  0.34669794726E+01  0.18946852890E+03  0.17200000000E+03 0.  1.
         -6    1    1    2    0  502  0.70808044729E+02  0.35896020662E+02 -0.13405994356E+03  0.23207406569E+03  0.17200000000E+03 0. -1.
<mgrwt>
<rscale>  2 0.18943681E+03</rscale>
<asrwt>0</asrwt>
<pdfrwt beam="1">  1       21 0.36368704E-01 0.18943681E+03</pdfrwt>
<pdfrwt beam="2">  1       21 0.69016944E-01 0.18943681E+03</pdfrwt>
<totfact> 0.13966288E+04</totfact>
</mgrwt>
</event>
<event>
 4    1  0.1091654E+000  0.2453287E+03  0.7546771E-02  0.1116293E+00
         21   -1    0    0  501  502  0.00000000000E+00  0.00000000000E+00  0.15150077466E+04  0.15150077466E+04  0.00000000000E+00 0.  1.
         21   -1    0    0  502  503 -0.00000000000E+00 -0.00000000000E+00 -0.47095469781E+02  0.47095469781E+02  0.00000000000E+00 0.  1.
          6    1    1    2  501    0  0.23131433238E+01 -0.17491941009E+03  0.10429072422E+04  0.10713737287E+04  0.17200000000E+03 0.  1.
         -6    1    1    2    0  503 -0.23131433238E+01  0.17491941009E+03  0.42500503464E+03  0.49072948773E+03  0.17200000000E+03 0.  1.
<mgrwt>
<rscale>  2 0.24532866E+03</rscale>
<asrwt>0</asrwt>
<pdfrwt beam="1">  1       21 0.37875178E+00 0.24532866E+03</pdfrwt>
<pdfrwt beam="2">  1       21 0.11773872E-01 0.24532866E+03</pdfrwt>
<totfact> 0.66429272E+02</totfact>
</mgrwt>
</event>
<event>
 4    1  0.1091654E+000  0.2210943E+03  0.7546771E-02  0.1133070E+00
         21   -1    0    0  501  502  0.00000000000E+00  0.00000000000E+00  0.71108435913E+03  0.71108435913E+03  0.00000000000E+00 0. -1.
         21   -1    0    0  502  503 -0.00000000000E+00 -0.00000000000E+00 -0.72347739554E+02  0.72347739554E+02  0.00000000000E+00 0.  1.
          6    1    1    2  501    0  0.16405515851E+02  0.13794755903E+03  0.23194139112E+03  0.32043638824E+03  0.17200000000E+03 0. -1.
         -6    1    1    2    0  503 -0.16405515851E+02 -0.13794755903E+03  0.40679522845E+03  0.46299571044E+03  0.17200000000E+03 0. -1.
<mgrwt>
<rscale>  2 0.22109426E+03</rscale>
<asrwt>0</asrwt>
<pdfrwt beam="1">  1       21 0.17777107E+00 0.22109426E+03</pdfrwt>
<pdfrwt beam="2">  1       21 0.18086937E-01 0.22109426E+03</pdfrwt>
<totfact> 0.51194376E+03</totfact>
</mgrwt>
</event>
<event>
 4    1  0.1091654E+000  0.2114865E+03  0.7546771E-02  0.1140394E+00
         21   -1    0    0  501  502  0.00000000000E+00  0.00000000000E+00  0.19848758277E+03  0.19848758277E+03  0.00000000000E+00 0. -1.
         21   -1    0    0  502  503 -0.00000000000E+00 -0.00000000000E+00 -0.11393693435E+04  0.11393693435E+04  0.00000000000E+00 0.  1.
          6    1    1    2  501    0  0.81809875331E+02 -0.91922196488E+02  0.12869903415E+03  0.24756814678E+03  0.17200000000E+03 0. -1.
         -6    1    1    2    0  503 -0.81809875331E+02  0.91922196488E+02 -0.10695807949E+04  0.10902887795E+04  0.17200000000E+03 0.  1.
<mgrwt>
<rscale>  2 0.21148651E+03</rscale>
<asrwt>0</asrwt>
<pdfrwt beam="1">  1       21 0.49621897E-01 0.21148651E+03</pdfrwt>
<pdfrwt beam="2">  1       21 0.28484233E+00 0.21148651E+03</pdfrwt>
<totfact> 0.15709260E+02</totfact>
</mgrwt>
</event>
<event>
 4    1  0.1091654E+000  0.1765176E+03  0.7546771E-02  0.1171216E+00
         21   -1    0    0  501  502  0.00000000000E+00  0.00000000000E+00  0.96172941958E+02  0.96172941958E+02  0.00000000000E+00 0. -1.
         21   -1    0    0  502  503 -0.00000000000E+00 -0.00000000000E+00 -0.32542326613E+03  0.32542326613E+03  0.00000000000E+00 0. -1.
          6    1    1    2  501    0  0.13410736976E+02  0.37344695182E+02 -0.12864505840E+03  0.21842166828E+03  0.17200000000E+03 0. -1.
         -6    1    1    2    0  503 -0.13410736976E+02 -0.37344695182E+02 -0.10060526577E+03  0.20317453981E+03  0.17200000000E+03 0. -1.
<mgrwt>
<rscale>  2 0.17651763E+03</rscale>
<asrwt>0</asrwt>
<pdfrwt beam="1">  1       21 0.24043236E-01 0.17651763E+03</pdfrwt>
<pdfrwt beam="2">  1       21 0.81355816E-01 0.17651763E+03</pdfrwt>
<totfact> 0.21812199E+04</totfact>
</mgrwt>
</event>
<event>
 4    1  0.1091654E+000  0.2100207E+03  0.7546771E-02  0.1141550E+00
         21   -1    0    0  503  502  0.00000000000E+00  0.00000000000E+00  0.59315262825E+02  0.59315262825E+02  0.00000000000E+00 0.  1.
         21   -1    0    0  501  503 -0.00000000000E+00 -0.00000000000E+00 -0.75809313247E+03  0.75809313247E+03  0.00000000000E+00 0.  1.
          6    1    1    2  501    0  0.60855034944E+02  0.10402566265E+03 -0.40583875694E+03  0.45696145395E+03  0.17200000000E+03 0.  1.
         -6    1    1    2    0  502 -0.60855034944E+02 -0.10402566265E+03 -0.29293911271E+03  0.36044694134E+03  0.17200000000E+03 0.  1.
<mgrwt>
<rscale>  2 0.21002065E+03</rscale>
<asrwt>0</asrwt>
<pdfrwt beam="1">  1       21 0.14828816E-01 0.21002065E+03</pdfrwt>
<pdfrwt beam="2">  1       21 0.18952328E+00 0.21002065E+03</pdfrwt>
<totfact> 0.61994952E+03</totfact>
</mgrwt>
</event>
<event>
 4    1  0.1091654E+000  0.2096660E+03  0.7546771E-02  0.1141831E+00
         21   -1    0    0  503  502  0.00000000000E+00  0.00000000000E+00  0.97084717263E+03  0.97084717263E+03  0.00000000000E+00 0. -1.
         21   -1    0    0  501  503 -0.00000000000E+00 -0.00000000000E+00 -0.45373680370E+02  0.45373680370E+02  0.00000000000E+00 0. -1.
          6    1    1    2  501    0 -0.96283605428E+02 -0.71451514019E+02  0.48583819247E+03  0.52914894008E+03  0.17200000000E+03 0. -1.
         -6    1    1    2    0  502  0.96283605428E+02  0.71451514019E+02  0.43963529979E+03  0.48707191291E+03  0.17200000000E+03 0. -1.
<mgrwt>
<rscale>  2 0.20966605E+03</rscale>
<asrwt>0</asrwt>
<pdfrwt beam="1">  1       21 0.24271173E+00 0.20966605E+03</pdfrwt>
<pdfrwt beam="2">  1       21 0.11343423E-01 0.20966605E+03</pdfrwt>
<totfact> 0.46832384E+03</totfact>
</mgrwt>
</event>
<event>
 4    1  0.1091654E+000  0.1855735E+03  0.7546771E-02  0.1162515E+00
         21   -1    0    0  501  502  0.00000000000E+00  0.00000000000E+00  0.97076019700E+03  0.97076019700E+03  0.00000000000E+00 0. -1.
         21   -1    0    0  502  503 -0.00000000000E+00 -0.00000000000E+00 -0.35693064898E+02  0.35693064898E+02  0.00000000000E+00 0.  1.
          6    1    1    2  501    0  0.20438061560E+02 -0.66601934876E+02  0.50688451274E+03  0.53978647755E+03  0.17200000000E+03 0. -1.
         -6    1    1    2    0  503 -0.20438061560E+02  0.66601934876E+02  0.42818261936E+03  0.46666678435E+03  0.17200000000E+03 0. -1.
<mgrwt>
<rscale>  2 0.18557352E+03</rscale>
<asrwt>0</asrwt>
<pdfrwt beam="1">  1       21 0.24268996E+00 0.18557352E+03</pdfrwt>
<pdfrwt beam="2">  1       21 0.89232694E-02 0.18557352E+03</pdfrwt>
<totfact> 0.73333332E+03</totfact>
</mgrwt>
</event>
<event>
 4    1  0.1091654E+000  0.1976344E+03  0.7546771E-02  0.1151750E+00
         21   -1    0    0  501  502  0.00000000000E+00  0.00000000000E+00  0.94170044584E+02  0.94170044584E+02  0.00000000000E+00 0. -1.
         21   -1    0    0  502  503 -0.00000000000E+00 -0.00000000000E+00 -0.43722547802E+03  0.43722547802E+03  0.00000000000E+00 0. -1.
          6    1    1    2  501    0 -0.80246554586E+02  0.55098429651E+02 -0.23173533247E+03  0.30456626666E+03  0.17200000000E+03 0. -1.
         -6    1    1    2    0  503  0.80246554586E+02 -0.55098429651E+02 -0.11132010097E+03  0.22682925595E+03  0.17200000000E+03 0. -1.
<mgrwt>
<rscale>  2 0.19763438E+03</rscale>
<asrwt>0</asrwt>
<pdfrwt beam="1">  1       21 0.23542512E-01 0.19763438E+03</pdfrwt>
<pdfrwt beam="2">  1       21 0.10930637E+00 0.19763438E+03</pdfrwt>
<totfact> 0.11222406E+04</totfact>
</mgrwt>
</event>
<event>
 4    1  0.1091654E+000  0.1841650E+03  0.7546771E-02  0.1163832E+00
         21   -1    0    0  503  502  0.00000000000E+00  0.00000000000E+00  0.13026219979E+04  0.13026219979E+04  0.00000000000E+00 0. -1.
         21   -1    0    0  501  503 -0.00000000000E+00 -0.00000000000E+00 -0.27442478837E+02  0.27442478837E+02  0.00000000000E+00 0. -1.
          6    1    1    2  501    0 -0.22162286387E+02 -0.61980456185E+02  0.48710285418E+03  0.52075515786E+03  0.17200000000E+03 0. -1.
         -6    1    1    2    0  502  0.22162286387E+02  0.61980456185E+02  0.78807666486E+03  0.80930931885E+03  0.17200000000E+03 0. -1.
<mgrwt>
<rscale>  2 0.18416499E+03</rscale>
<asrwt>0</asrwt>
<pdfrwt beam="1">  1       21 0.32565529E+00 0.18416499E+03</pdfrwt>
<pdfrwt beam="2">  1       21 0.68606241E-02 0.18416499E+03</pdfrwt>
<totfact> 0.38426550E+03</totfact>
</mgrwt>
</event>
<event>
 4    1  0.1091654E+000  0.2209549E+03  0.7546771E-02  0.1133173E+00
         21   -1    0    0  501  502  0.00000000000E+00  0.00000000000E+00  0.53816219304E+03  0.53816219304E+03  0.00000000000E+00 0.  1.
         21   -1    0    0  502  503 -0.00000000000E+00 -0.00000000000E+00 -0.30473249869E+03  0.30473249869E+03  0.00000000000E+00 0.  1.
          6    1    1    2  501    0  0.80147792134E+02 -0.11319635525E+03  0.46990238690E+03  0.51925844879E+03  0.17200000000E+03 0.  1.
         -6    1    1    2    0  503 -0.80147792134E+02  0.11319635525E+03 -0.23647269255E+03  0.32363624294E+03  0.17200000000E+03 0.  1.
<mgrwt>
<rscale>  2 0.22095494E+03</rscale>
<asrwt>0</asrwt>
<pdfrwt beam="1">  1       21 0.13454055E+00 0.22095494E+03</pdfrwt>
<pdfrwt beam="2">  1       21 0.76183126E-01 0.22095494E+03</pdfrwt>
<totfact> 0.59055235E+02</totfact>
</mgrwt>
</event>
<event>
 4    1  0.1091654E+000  0.1890069E+03  0.7546771E-02  0.1159360E+00
         21   -1    0    0  503  502  0.00000000000E+00  0.00000000000E+00  0.44189644880E+03  0.44189644880E+03  0.00000000000E+00 0. -1.
         21   -1    0    0  501  503 -0.00000000000E+00 -0.00000000000E+00 -0.91774264581E+02  0.91774264581E+02  0.00000000000E+00 0. -1.
          6    1    1    2  501    0  0.18707931447E+02 -0.76089441712E+02  0.82963748473E+02  0.20641359790E+03  0.17200000000E+03 0. -1.
         -6    1    1    2    0  502 -0.18707931447E+02  0.76089441712E+02  0.26715843574E+03  0.32725711547E+03  0.17200000000E+03 0. -1.
<mgrwt>
<rscale>  2 0.18900685E+03</rscale>
<asrwt>0</asrwt>
<pdfrwt beam="1">  1       21 0.11047411E+00 0.18900685E+03</pdfrwt>
<pdfrwt beam="2">  1       21 0.22943567E-01 0.18900685E+03</pdfrwt>
<totfact> 0.11554324E+04</totfact>
</mgrwt>
</event>
<event>
 4    1  0.1091654E+000  0.1861276E+03  0.7546771E-02  0.1162001E+00
         21   -1    0    0  501  502  0.00000000000E+00  0.00000000000E+00  0.83046031311E+03  0.83046031311E+03  0.00000000000E+00 0.  1.
         21   -1    0    0  502  503 -0.00000000000E+00 -0.00000000000E+00 -0.44019874742E+02  0.44019874742E+02  0.00000000000E+00 0. -1.
          6    1    1    2  501    0 -0.13680545740E+02  0.69801987238E+02  0.49324920826E+03  0.52719849792E+03  0.17200000000E+03 0.  1.
         -6    1    1    2    0  503  0.13680545740E+02 -0.69801987238E+02  0.29319123011E+03  0.34728168994E+03  0.17200000000E+03 0.  1.
<mgrwt>
<rscale>  2 0.18612758E+03</rscale>
<asrwt>0</asrwt>
<pdfrwt beam="1">  1       21 0.20761503E+00 0.18612758E+03</pdfrwt>
<pdfrwt beam="2">  1       21 0.11004971E-01 0.18612758E+03</pdfrwt>
<totfact> 0.82728646E+03</totfact>
</mgrwt>
</event>
<event>
 4    1  0.1091654E+000  0.1766793E+03  0.7546771E-02  0.1171056E+00
         21   -1    0    0  503  502  0.00000000000E+00  0.00000000000E+00  0.23736109999E+03  0.23736109999E+03  0.00000000000E+00 0. -1.
         21   -1    0    0  501  503 -0.00000000000E+00 -0.00000000000E+00 -0.64220296710E+03  0.64220296710E+03  0.00000000000E+00 0. -1.
          6    1    1    2  501    0 -0.34481702029E+02 -0.21037618655E+02 -0.59459682280E+03  0.62029102110E+03  0.17200000000E+03 0. -1.
         -6    1    1    2    0  502  0.34481702029E+02  0.21037618655E+02  0.18975495568E+03  0.25927304599E+03  0.17200000000E+03 0. -1.
<mgrwt>
<rscale>  2 0.17667928E+03</rscale>
<asrwt>0</asrwt>
<pdfrwt beam="1">  1       21 0.59340275E-01 0.17667928E+03</pdfrwt>
<pdfrwt beam="2">  1       21 0.16055074E+00 0.17667928E+03</pdfrwt>
<totfact> 0.67405842E+02</totfact>
</mgrwt>
</event>
<event>
 4    1  0.1091654E+000  0.2067650E+03  0.7546771E-02  0.1144154E+00
         21   -1    0    0  501  502  0.00000000000E+00  0.00000000000E+00  0.10111976601E+03  0.10111976601E+03  0.00000000000E+00 0.  1.
         21   -1    0    0  502  503 -0.00000000000E+00 -0.00000000000E+00 -0.46584397721E+03  0.46584397721E+03  0.00000000000E+00 0. -1.
          6    1    1    2  501    0 -0.99565743412E+02 -0.57047441534E+02 -0.96174363635E+02  0.22803783911E+03  0.17200000000E+03 0.  1.
         -6    1    1    2    0  503  0.99565743412E+02  0.57047441534E+02 -0.26854984757E+03  0.33892590411E+03  0.17200000000E+03 0. -1.
<mgrwt>
<rscale>  2 0.20676496E+03</rscale>
<asrwt>0</asrwt>
<pdfrwt beam="1">  1       21 0.25279942E-01 0.20676496E+03</pdfrwt>
<pdfrwt beam="2">  1       21 0.11646099E+00 0.20676496E+03</pdfrwt>
<totfact> 0.83422793E+03</totfact>
</mgrwt>
</event>
<event>
 4    1  0.1091654E+000  0.2269709E+03  0.7546771E-02  0.1128790E+00
         21   -1    0    0  503  502  0.00000000000E+00  0.00000000000E+00  0.33738654109E+03  0.33738654109E+03  0.00000000000E+00 0.  1.
         21   -1    0    0  501  503 -0.00000000000E+00 -0.00000000000E+00 -0.18693236611E+03  0.18693236611E+03  0.00000000000E+00 0.  1.
          6    1    1    2  501    0  0.12736671881E+03  0.75561306369E+02 -0.36974918811E+02  0.22996290288E+03  0.17200000000E+03 0.  1.
         -6    1    1    2    0  502 -0.12736671881E+03 -0.75561306369E+02  0.18742909379E+03  0.29435600432E+03  0.17200000000E+03 0.  1.
<mgrwt>
<rscale>  2 0.22697091E+03</rscale>
<asrwt>0</asrwt>
<pdfrwt beam="1">  1       21 0.84346634E-01 0.22697091E+03</pdfrwt>
<pdfrwt beam="2">  1       21 0.46733092E-01 0.22697091E+03</pdfrwt>
<totfact> 0.52124444E+03</totfact>
</mgrwt>
</event>
<event>
 4    1  0.1091654E+000  0.2208513E+03  0.7546771E-02  0.1133250E+00
         21   -1    0    0  503  502  0.00000000000E+00  0.00000000000E+00  0.88090460719E+03  0.88090460719E+03  0.00000000000E+00 0. -1.
         21   -1    0    0  501  503 -0.00000000000E+00 -0.00000000000E+00 -0.83677230762E+02  0.83677230762E+02  0.00000000000E+00 0.  1.
          6    1    1    2  501    0  0.12933779087E+03  0.49629166611E+02  0.11809787529E+03  0.25044445786E+03  0.17200000000E+03 0.  1.
         -6    1    1    2    0  502 -0.12933779087E+03 -0.49629166611E+02  0.67912950113E+03  0.71413738008E+03  0.17200000000E+03 0. -1.
<mgrwt>
<rscale>  2 0.22085135E+03</rscale>
<asrwt>0</asrwt>
<pdfrwt beam="1">  1       21 0.22022612E+00 0.22085135E+03</pdfrwt>
<pdfrwt beam="2">  1       21 0.20919310E-01 0.22085135E+03</pdfrwt>
<totfact> 0.20673620E+03</totfact>
</mgrwt>
</event>
<event>
 4    1  0.1091654E+000  0.2916083E+03  0.7546771E-02  0.1089512E+00
         21   -1    0    0  503  502  0.00000000000E+00  0.00000000000E+00  0.19174468582E+03  0.19174468582E+03  0.00000000000E+00 0.  1.
         21   -1    0    0  501  503 -0.00000000000E+00 -0.00000000000E+00 -0.55280891925E+03  0.55280891925E+03  0.00000000000E+00 0.  1.
          6    1    1    2  501    0  0.23474597013E+03  0.18593625277E+02 -0.34608670274E+03  0.45256093424E+03  0.17200000000E+03 0.  1.
         -6    1    1    2    0  502 -0.23474597013E+03 -0.18593625277E+02 -0.14977530696E+02  0.29199267083E+03  0.17200000000E+03 0.  1.
<mgrwt>
<rscale>  2 0.29160829E+03</rscale>
<asrwt>0</asrwt>
<pdfrwt beam="1">  1       21 0.47936172E-01 0.29160829E+03</pdfrwt>
<pdfrwt beam="2">  1       21 0.13820223E+00 0.29160829E+03</pdfrwt>
<totfact> 0.14206560E+03</totfact>
</mgrwt>
</event>
<event>
 4    1  0.1091654E+000  0.2103995E+03  0.7546771E-02  0.1141250E+00
         21   -1    0    0  501  502  0.00000000000E+00  0.00000000000E+00  0.35298586414E+03  0.35298586414E+03  0.00000000000E+00 0.  1.
         21   -1    0    0  502  503 -0.00000000000E+00 -0.00000000000E+00 -0.13038007299E+03  0.13038007299E+03  0.00000000000E+00 0.  1.
          6    1    1    2  501    0 -0.10648926483E+03  0.57827266381E+02  0.15848984908E+03  0.26341410084E+03  0.17200000000E+03 0.  1.
         -6    1    1    2    0  503  0.10648926483E+03 -0.57827266381E+02  0.64115942066E+02  0.21995183629E+03  0.17200000000E+03 0.  1.
<mgrwt>
<rscale>  2 0.21039952E+03</rscale>
<asrwt>0</asrwt>
<pdfrwt beam="1">  1       21 0.88246464E-01 0.21039952E+03</pdfrwt>
<pdfrwt beam="2">  1       21 0.32595019E-01 0.21039952E+03</pdfrwt>
<totfact> 0.98375341E+03</totfact>
</mgrwt>
</event>
<event>
 4    1  0.1091654E+000  0.1947245E+03  0.7546771E-02  0.1154268E+00
         21   -1    0    0  501  502  0.00000000000E+00  0.00000000000E+00  0.91970799625E+03  0.91970799625E+03  0.00000000000E+00 0.  1.
         21   -1    0    0  502  503 -0.00000000000E+00 -0.00000000000E+00 -0.51846342321E+02  0.51846342321E+02  0.00000000000E+00 0.  1.
          6    1    1    2  501    0  0.82850812002E+02  0.38332631946E+02  0.21409015904E+03  0.28939979945E+03  0.17200000000E+03 0.  1.
         -6    1    1    2    0  503 -0.82850812002E+02 -0.38332631946E+02  0.65377149489E+03  0.68215453913E+03  0.17200000000E+03 0.  1.
<mgrwt>
<rscale>  2 0.19472454E+03</rscale>
<asrwt>0</asrwt>
<pdfrwt beam="1">  1       21 0.22992695E+00 0.19472454E+03</pdfrwt>
<pdfrwt beam="2">  1       21 0.12961589E-01 0.19472454E+03</pdfrwt>
<totfact> 0.44644327E+03</totfact>
</mgrwt>
</event>
<event>
 4    1  0.1091654E+000  0.2409497E+03  0.7546771E-02  0.1119162E+00
         21   -1    0    0  503  502  0.00000000000E+00  0.00000000000E+00  0.17230686860E+03  0.17230686860E+03  0.00000000000E+00 0. -1.
         21   -1    0    0  501  503 -0.00000000000E+00 -0.00000000000E+00 -0.34590011953E+03  0.34590011953E+03  0.00000000000E+00 0.  1.
          6    1    1    2  501    0  0.11333971528E+03  0.12500744820E+03 -0.12850279074E+03  0.27307456929E+03  0.17200000000E+03 0.  1.
         -6    1    1    2    0  502 -0.11333971528E+03 -0.12500744820E+03 -0.45090460189E+02  0.24513241884E+03  0.17200000000E+03 0.  1.
<mgrwt>
<rscale>  2 0.24094969E+03</rscale>
<asrwt>0</asrwt>
<pdfrwt beam="1">  1       21 0.43076718E-01 0.24094969E+03</pdfrwt>
<pdfrwt beam="2">  1       21 0.86475029E-01 0.24094969E+03</pdfrwt>
<totfact> 0.57692858E+03</totfact>
</mgrwt>
</event>
<event>
 4    1  0.1091654E+000  0.1940656E+03  0.7546771E-02  0.1154845E+00
         21   -1    0    0  503  502  0.00000000000E+00  0.00000000000E+00  0.88732196403E+03  0.88732196403E+03  0.00000000000E+00 0.  1.
         21   -1    0    0  501  503 -0.00000000000E+00 -0.00000000000E+00 -0.42604812472E+02  0.42604812472E+02  0.00000000000E+00 0.  1.
          6    1    1    2  501    0  0.71122762679E+02  0.54945593441E+02  0.45092735230E+03  0.49091439444E+03  0.17200000000E+03 0.  1.
         -6    1    1    2    0  502 -0.71122762679E+02 -0.54945593441E+02  0.39378979925E+03  0.43901238206E+03  0.17200000000E+03 0.  1.
<mgrwt>
<rscale>  2 0.19406562E+03</rscale>
<asrwt>0</asrwt>
<pdfrwt beam="1">  1       21 0.22183043E+00 0.19406562E+03</pdfrwt>
<pdfrwt beam="2">  1       21 0.10651206E-01 0.19406562E+03</pdfrwt>
<totfact> 0.71050255E+03</totfact>
</mgrwt>
</event>
<event>
 4    1  0.1091654E+000  0.1973451E+03  0.7546771E-02  0.1151998E+00
         21   -1    0    0  501  502  0.00000000000E+00  0.00000000000E+00  0.69764779998E+03  0.69764779998E+03  0.00000000000E+00 0. -1.
         21   -1    0    0  502  503 -0.00000000000E+00 -0.00000000000E+00 -0.72393447869E+02  0.72393447869E+02  0.00000000000E+00 0. -1.
          6    1    1    2  501    0  0.59271432013E+02 -0.76472247601E+02  0.49682970352E+03  0.53458849745E+03  0.17200000000E+03 0. -1.
         -6    1    1    2    0  503 -0.59271432013E+02  0.76472247601E+02  0.12842464860E+03  0.23545275041E+03  0.17200000000E+03 0. -1.
<mgrwt>
<rscale>  2 0.19734515E+03</rscale>
<asrwt>0</asrwt>
<pdfrwt beam="1">  1       21 0.17441193E+00 0.19734515E+03</pdfrwt>
<pdfrwt beam="2">  1       21 0.18098364E-01 0.19734515E+03</pdfrwt>
<totfact> 0.55025284E+03</totfact>
</mgrwt>
</event>
<event>
 4    1  0.1091654E+000  0.2123212E+03  0.7546771E-02  0.1139741E+00
         21   -1    0    0  503  502  0.00000000000E+00  0.00000000000E+00  0.42220912920E+03  0.42220912920E+03  0.00000000000E+00 0. -1.
         21   -1    0    0  501  503 -0.00000000000E+00 -0.00000000000E+00 -0.16286332017E+03  0.16286332017E+03  0.00000000000E+00 0.  1.
          6    1    1    2  501    0 -0.12438274943E+03  0.50219847145E+01 -0.42004931932E+02  0.21643637170E+03  0.17200000000E+03 0.  1.
         -6    1    1    2    0  502  0.12438274943E+03 -0.50219847145E+01  0.30135074096E+03  0.36863607767E+03  0.17200000000E+03 0. -1.
<mgrwt>
<rscale>  2 0.21232119E+03</rscale>
<asrwt>0</asrwt>
<pdfrwt beam="1">  1       21 0.10555228E+00 0.21232119E+03</pdfrwt>
<pdfrwt beam="2">  1       21 0.40715831E-01 0.21232119E+03</pdfrwt>
<totfact> 0.41268639E+03</totfact>
</mgrwt>
</event>
<event>
 4    1  0.1091654E+000  0.1764487E+03  0.7546771E-02  0.1171285E+00
         21   -1    0    0  501  502  0.00000000000E+00  0.00000000000E+00  0.70884385741E+02  0.70884385741E+02  0.00000000000E+00 0. -1.
         21   -1    0    0  502  503 -0.00000000000E+00 -0.00000000000E+00 -0.65037987521E+03  0.65037987521E+03  0.00000000000E+00 0. -1.
          6    1    1    2  501    0 -0.35886197128E+02  0.16196045563E+02 -0.49523379528E+03  0.52572867814E+03  0.17200000000E+03 0. -1.
         -6    1    1    2    0  503  0.35886197128E+02 -0.16196045563E+02 -0.84261694189E+02  0.19553558281E+03  0.17200000000E+03 0. -1.
<mgrwt>
<rscale>  2 0.17644866E+03</rscale>
<asrwt>0</asrwt>
<pdfrwt beam="1">  1       21 0.17721097E-01 0.17644866E+03</pdfrwt>
<pdfrwt beam="2">  1       21 0.16259496E+00 0.17644866E+03</pdfrwt>
<totfact> 0.70592080E+03</totfact>
</mgrwt>
</event>
<event>
 4    1  0.1091654E+000  0.2578143E+03  0.7546771E-02  0.1108464E+00
         21   -1    0    0  501  502  0.00000000000E+00  0.00000000000E+00  0.22600655965E+03  0.22600655965E+03  0.00000000000E+00 0.  1.
         21   -1    0    0  502  503 -0.00000000000E+00 -0.00000000000E+00 -0.29436970472E+03  0.29436970472E+03  0.00000000000E+00 0. -1.
          6    1    1    2  501    0  0.18002558170E+03  0.66895579353E+02 -0.42076595453E+02  0.26122532130E+03  0.17200000000E+03 0.  1.
         -6    1    1    2    0  503 -0.18002558170E+03 -0.66895579353E+02 -0.26286549613E+02  0.25915094307E+03  0.17200000000E+03 0.  1.
<mgrwt>
<rscale>  2 0.25781433E+03</rscale>
<asrwt>0</asrwt>
<pdfrwt beam="1">  1       21 0.56501640E-01 0.25781433E+03</pdfrwt>
<pdfrwt beam="2">  1       21 0.73592426E-01 0.25781433E+03</pdfrwt>
<totfact> 0.46686261E+03</totfact>
</mgrwt>
</event>
<event>
 4    1  0.1091654E+000  0.1837679E+03  0.7546771E-02  0.1164205E+00
         21   -1    0    0  503  502  0.00000000000E+00  0.00000000000E+00  0.90422137631E+03  0.90422137631E+03  0.00000000000E+00 0.  1.
         21   -1    0    0  501  503 -0.00000000000E+00 -0.00000000000E+00 -0.29626965490E+03  0.29626965490E+03  0.00000000000E+00 0.  1.
          6    1    1    2  501    0  0.56572733693E+02 -0.31403344715E+02 -0.25716219818E+03  0.31607442229E+03  0.17200000000E+03 0.  1.
         -6    1    1    2    0  502 -0.56572733693E+02  0.31403344715E+02  0.86511391959E+03  0.88441660891E+03  0.17200000000E+03 0.  1.
<mgrwt>
<rscale>  2 0.18376791E+03</rscale>
<asrwt>0</asrwt>
<pdfrwt beam="1">  1       21 0.22605534E+00 0.18376791E+03</pdfrwt>
<pdfrwt beam="2">  1       21 0.74067416E-01 0.18376791E+03</pdfrwt>
<totfact> 0.15304600E+02</totfact>
</mgrwt>
</event>
<event>
 4    1  0.1091654E+000  0.1937358E+03  0.7546771E-02  0.1155134E+00
         21   -1    0    0  503  502  0.00000000000E+00  0.00000000000E+00  0.41930570502E+03  0.41930570502E+03  0.00000000000E+00 0.  1.
         21   -1    0    0  501  503 -0.00000000000E+00 -0.00000000000E+00 -0.14549286517E+03  0.14549286517E+03  0.00000000000E+00 0.  1.
          6    1    1    2  501    0 -0.58565106965E+02  0.67228564516E+02 -0.38262256271E+02  0.19747797825E+03  0.17200000000E+03 0.  1.
         -6    1    1    2    0  502  0.58565106965E+02 -0.67228564516E+02  0.31207509612E+03  0.36732059193E+03  0.17200000000E+03 0.  1.
<mgrwt>
<rscale>  2 0.19373578E+03</rscale>
<asrwt>0</asrwt>
<pdfrwt beam="1">  1       21 0.10482642E+00 0.19373578E+03</pdfrwt>
<pdfrwt beam="2">  1       21 0.36373217E-01 0.19373578E+03</pdfrwt>
<totfact> 0.53425929E+03</totfact>
</mgrwt>
</event>
<event>
 4    1  0.1091654E+000  0.2453793E+03  0.7546771E-02  0.1116260E+00
         21   -1    0    0  501  502  0.00000000000E+00  0.00000000000E+00  0.80786924587E+02  0.80786924587E+02  0.00000000000E+00 0. -1.
         21   -1    0    0  502  503 -0.00000000000E+00 -0.00000000000E+00 -0.88471262112E+03  0.88471262112E+03  0.00000000000E+00 0. -1.
          6    1    1    2  501    0  0.11461178446E+03 -0.13225399606E+03 -0.59359247252E+03  0.64231067564E+03  0.17200000000E+03 0. -1.
         -6    1    1    2    0  503 -0.11461178446E+03  0.13225399606E+03 -0.21033322402E+03  0.32318887007E+03  0.17200000000E+03 0. -1.
<mgrwt>
<rscale>  2 0.24537926E+03</rscale>
<asrwt>0</asrwt>
<pdfrwt beam="1">  1       21 0.20196731E-01 0.24537926E+03</pdfrwt>
<pdfrwt beam="2">  1       21 0.22117816E+00 0.24537926E+03</pdfrwt>
<totfact> 0.21310413E+03</totfact>
</mgrwt>
</event>
<event>
 4    1  0.1091654E+000  0.1944754E+03  0.7546771E-02  0.1154486E+00
         21   -1    0    0  501  502  0.00000000000E+00  0.00000000000E+00  0.21210859339E+03  0.21210859339E+03  0.00000000000E+00 0. -1.
         21   -1    0    0  502  503 -0.00000000000E+00 -0.00000000000E+00 -0.19040171986E+03  0.19040171986E+03  0.00000000000E+00 0. -1.
          6    1    1    2  501    0 -0.71338530002E+02  0.56102617636E+02  0.61574570651E+02  0.20399048340E+03  0.17200000000E+03 0. -1.
         -6    1    1    2    0  503  0.71338530002E+02 -0.56102617636E+02 -0.39867697128E+02  0.19851982985E+03  0.17200000000E+03 0. -1.
<mgrwt>
<rscale>  2 0.19447542E+03</rscale>
<asrwt>0</asrwt>
<pdfrwt beam="1">  1       21 0.53027148E-01 0.19447542E+03</pdfrwt>
<pdfrwt beam="2">  1       21 0.47600430E-01 0.19447542E+03</pdfrwt>
<totfact> 0.14202590E+04</totfact>
</mgrwt>
</event>
<event>
 4    1  0.1091654E+000  0.1915360E+03  0.7546771E-02  0.1157083E+00
         21   -1    0    0  501  502  0.00000000000E+00  0.00000000000E+00  0.11801885164E+04  0.11801885164E+04  0.00000000000E+00 0.  1.
         21   -1    0    0  502  503 -0.00000000000E+00 -0.00000000000E+00 -0.44150101731E+02  0.44150101731E+02  0.00000000000E+00 0.  1.
          6    1    1    2  501    0 -0.82306011187E+02  0.18104397810E+02  0.90103410628E+03  0.92116692807E+03  0.17200000000E+03 0. -1.
         -6    1    1    2    0  503  0.82306011187E+02 -0.18104397810E+02  0.23500430844E+03  0.30317169011E+03  0.17200000000E+03 0. -1.
<mgrwt>
<rscale>  2 0.19153602E+03</rscale>
<asrwt>0</asrwt>
<pdfrwt beam="1">  1       21 0.29504702E+00 0.19153602E+03</pdfrwt>
<pdfrwt beam="2">  1       21 0.11037529E-01 0.19153602E+03</pdfrwt>
<totfact> 0.24864307E+03</totfact>
</mgrwt>
</event>
<event>
 4    1  0.1091654E+000  0.2024215E+03  0.7546771E-02  0.1147712E+00
         21   -1    0    0  503  502  0.00000000000E+00  0.00000000000E+00  0.19221451137E+03  0.19221451137E+03  0.00000000000E+00 0.  1.
         21   -1    0    0  501  503 -0.00000000000E+00 -0.00000000000E+00 -0.21839769290E+03  0.21839769290E+03  0.00000000000E+00 0. -1.
          6    1    1    2  501    0  0.83899423423E+02 -0.65964640572E+02 -0.44854161921E+02  0.20733148072E+03  0.17200000000E+03 0. -1.
         -6    1    1    2    0  502 -0.83899423423E+02  0.65964640572E+02  0.18670980396E+02  0.20328072355E+03  0.17200000000E+03 0.  1.
<mgrwt>
<rscale>  2 0.20242146E+03</rscale>
<asrwt>0</asrwt>
<pdfrwt beam="1">  1       21 0.48053628E-01 0.20242146E+03</pdfrwt>
<pdfrwt beam="2">  1       21 0.54599423E-01 0.20242146E+03</pdfrwt>
<totfact> 0.13025546E+04</totfact>
</mgrwt>
</event>
<event>
 4    1  0.1091654E+000  0.1874356E+03  0.7546771E-02  0.1160795E+00
         21   -1    0    0  503  502  0.00000000000E+00  0.00000000000E+00  0.11275793662E+04  0.11275793662E+04  0.00000000000E+00 0.  1.
         21   -1    0    0  501  503 -0.00000000000E+00 -0.00000000000E+00 -0.34495830613E+02  0.34495830613E+02  0.00000000000E+00 0.  1.
          6    1    1    2  501    0 -0.93034720563E+01 -0.73902381934E+02  0.36577822717E+03  0.41100587359E+03  0.17200000000E+03 0. -1.
         -6    1    1    2    0  502  0.93034720563E+01  0.73902381934E+02  0.72730530846E+03  0.75106932327E+03  0.17200000000E+03 0. -1.
<mgrwt>
<rscale>  2 0.18743563E+03</rscale>
<asrwt>0</asrwt>
<pdfrwt beam="1">  1       21 0.28189472E+00 0.18743563E+03</pdfrwt>
<pdfrwt beam="2">  1       21 0.86239614E-02 0.18743563E+03</pdfrwt>
<totfact> 0.45953746E+03</totfact>
</mgrwt>
</event>
<event>
 4    1  0.1091654E+000  0.2139619E+03  0.7546771E-02  0.1138466E+00
         21   -1    0    0  503  502  0.00000000000E+00  0.00000000000E+00  0.13593456121E+03  0.13593456121E+03  0.00000000000E+00 0.  1.
         21   -1    0    0  501  503 -0.00000000000E+00 -0.00000000000E+00 -0.36632294171E+03  0.36632294171E+03  0.00000000000E+00 0.  1.
          6    1    1    2  501    0  0.10007501442E+03  0.78617329349E+02 -0.18651398632E+03  0.28384354859E+03  0.17200000000E+03 0.  1.
         -6    1    1    2    0  502 -0.10007501442E+03 -0.78617329349E+02 -0.43874394183E+02  0.21841395434E+03  0.17200000000E+03 0.  1.
<mgrwt>
<rscale>  2 0.21396190E+03</rscale>
<asrwt>0</asrwt>
<pdfrwt beam="1">  1       21 0.33983641E-01 0.21396190E+03</pdfrwt>
<pdfrwt beam="2">  1       21 0.91580735E-01 0.21396190E+03</pdfrwt>
<totfact> 0.82916815E+03</totfact>
</mgrwt>
</event>
<event>
 4    1  0.1091654E+000  0.2490556E+03  0.7546771E-02  0.1113903E+00
         21   -1    0    0  501  502  0.00000000000E+00  0.00000000000E+00  0.11328139117E+04  0.11328139117E+04  0.00000000000E+00 0. -1.
         21   -1    0    0  502  503 -0.00000000000E+00 -0.00000000000E+00 -0.59776637537E+02  0.59776637537E+02  0.00000000000E+00 0. -1.
          6    1    1    2  501    0  0.32429416644E+02 -0.17718083370E+03  0.70932568662E+03  0.75177898654E+03  0.17200000000E+03 0. -1.
         -6    1    1    2    0  503 -0.32429416644E+02  0.17718083370E+03  0.36371158751E+03  0.44081156267E+03  0.17200000000E+03 0. -1.
<mgrwt>
<rscale>  2 0.24905565E+03</rscale>
<asrwt>0</asrwt>
<pdfrwt beam="1">  1       21 0.28320341E+00 0.24905565E+03</pdfrwt>
<pdfrwt beam="2">  1       21 0.14944163E-01 0.24905565E+03</pdfrwt>
<totfact> 0.15822865E+03</totfact>
</mgrwt>
</event>
<event>
 4    1  0.1091654E+000  0.2314163E+03  0.7546771E-02  0.1125647E+00
         21   -1    0    0  501  502  0.00000000000E+00  0.00000000000E+00  0.20660419078E+03  0.20660419078E+03  0.00000000000E+00 0.  1.
         21   -1    0    0  502  503 -0.00000000000E+00 -0.00000000000E+00 -0.29113400504E+03  0.29113400504E+03  0.00000000000E+00 0.  1.
          6    1    1    2  501    0  0.10163804647E+03  0.11678701285E+03  0.40148047712E+02  0.23487308189E+03  0.17200000000E+03 0.  1.
         -6    1    1    2    0  503 -0.10163804647E+03 -0.11678701285E+03 -0.12467786197E+03  0.26286511394E+03  0.17200000000E+03 0.  1.
<mgrwt>
<rscale>  2 0.23141629E+03</rscale>
<asrwt>0</asrwt>
<pdfrwt beam="1">  1       21 0.51651048E-01 0.23141629E+03</pdfrwt>
<pdfrwt beam="2">  1       21 0.72783501E-01 0.23141629E+03</pdfrwt>
<totfact> 0.58860589E+03</totfact>
</mgrwt>
</event>
<event>
 4    1  0.1091654E+000  0.1885455E+03  0.7546771E-02  0.1159780E+00
         21   -1    0    0  501  502  0.00000000000E+00  0.00000000000E+00  0.63809013548E+02  0.63809013548E+02  0.00000000000E+00 0.  1.
         21   -1    0    0  502  503 -0.00000000000E+00 -0.00000000000E+00 -0.62515926834E+03  0.62515926834E+03  0.00000000000E+00 0.  1.
          6    1    1    2  501    0  0.42124284471E+02  0.64737580163E+02 -0.16703097049E+03  0.25189036252E+03  0.17200000000E+03 0. -1.
         -6    1    1    2    0  503 -0.42124284471E+02 -0.64737580163E+02 -0.39431928430E+03  0.43707791937E+03  0.17200000000E+03 0. -1.
<mgrwt>
<rscale>  2 0.18854551E+03</rscale>
<asrwt>0</asrwt>
<pdfrwt beam="1">  1       21 0.15952254E-01 0.18854551E+03</pdfrwt>
<pdfrwt beam="2">  1       21 0.15628982E+00 0.18854551E+03</pdfrwt>
<totfact> 0.94285441E+03</totfact>
</mgrwt>
</event>
<event>
 4    1  0.1091654E+000  0.2225307E+03  0.7546771E-02  0.1132010E+00
         21   -1    0    0  501  502  0.00000000000E+00  0.00000000000E+00  0.17196806174E+03  0.17196806174E+03  0.00000000000E+00 0.  1.
         21   -1    0    0  502  503 -0.00000000000E+00 -0.00000000000E+00 -0.28824976732E+03  0.28824976732E+03  0.00000000000E+00 0.  1.
          6    1    1    2  501    0  0.37029093087E+02 -0.13625253787E+03 -0.65437781452E+02  0.23195260518E+03  0.17200000000E+03 0.  1.
         -6    1    1    2    0  503 -0.37029093087E+02  0.13625253787E+03 -0.50843924132E+02  0.22826522388E+03  0.17200000000E+03 0.  1.
<mgrwt>
<rscale>  2 0.22253069E+03</rscale>
<asrwt>0</asrwt>
<pdfrwt beam="1">  1       21 0.42992016E-01 0.22253069E+03</pdfrwt>
<pdfrwt beam="2">  1       21 0.72062441E-01 0.22253069E+03</pdfrwt>
<totfact> 0.88592073E+03</totfact>
</mgrwt>
</event>
<event>
 4    1  0.1091654E+000  0.2316560E+03  0.7546771E-02  0.1125480E+00
         21   -1    0    0  503  502  0.00000000000E+00  0.00000000000E+00  0.14231527188E+04  0.14231527188E+04  0.00000000000E+00 0. -1.
         21   -1    0    0  501  503 -0.00000000000E+00 -0.00000000000E+00 -0.45292073938E+02  0.45292073938E+02  0.00000000000E+00 0. -1.
          6    1    1    2  501    0 -0.14759169799E+03 -0.47928905298E+02  0.98937384332E+03  0.10161324181E+04  0.17200000000E+03 0. -1.
         -6    1    1    2    0  502  0.14759169799E+03  0.47928905298E+02  0.38848680158E+03  0.45231237467E+03  0.17200000000E+03 0. -1.
<mgrwt>
<rscale>  2 0.23165597E+03</rscale>
<asrwt>0</asrwt>
<pdfrwt beam="1">  1       21 0.35578803E+00 0.23165597E+03</pdfrwt>
<pdfrwt beam="2">  1       21 0.11323023E-01 0.23165597E+03</pdfrwt>
<totfact> 0.99776205E+02</totfact>
</mgrwt>
</event>
<event>
 4    1  0.1091654E+000  0.1737166E+03  0.7546771E-02  0.1174027E+00
         21   -1    0    0  501  502  0.00000000000E+00  0.00000000000E+00  0.12620507003E+03  0.12620507003E+03  0.00000000000E+00 0. -1.
         21   -1    0    0  502  503 -0.00000000000E+00 -0.00000000000E+00 -0.30011224177E+03  0.30011224177E+03  0.00000000000E+00 0. -1.
          6    1    1    2  501    0 -0.24343327221E+02  0.92607300562E+00  0.91452649632E+01  0.17395715295E+03  0.17200000000E+03 0. -1.
         -6    1    1    2    0  503  0.24343327221E+02 -0.92607300562E+00 -0.18305243670E+03  0.25236015885E+03  0.17200000000E+03 0. -1.
<mgrwt>
<rscale>  2 0.17371659E+03</rscale>
<asrwt>0</asrwt>
<pdfrwt beam="1">  1       21 0.31551268E-01 0.17371659E+03</pdfrwt>
<pdfrwt beam="2">  1       21 0.75028060E-01 0.17371659E+03</pdfrwt>
<totfact> 0.15528714E+04</totfact>
</mgrwt>
</event>
<event>
 4    1  0.1091654E+000  0.1775315E+03  0.7546771E-02  0.1170214E+00
         21   -1    0    0  503  502  0.00000000000E+00  0.00000000000E+00  0.13356810660E+03  0.13356810660E+03  0.00000000000E+00 0.  1.
         21   -1    0    0  501  503 -0.00000000000E+00 -0.00000000000E+00 -0.24770755452E+03  0.24770755452E+03  0.00000000000E+00 0. -1.
          6    1    1    2  501    0 -0.10360115521E+01 -0.43958794540E+02 -0.98575997081E+02  0.20306323187E+03  0.17200000000E+03 0. -1.
         -6    1    1    2    0  502  0.10360115521E+01  0.43958794540E+02 -0.15563450842E+02  0.17821242925E+03  0.17200000000E+03 0.  1.
<mgrwt>
<rscale>  2 0.17753154E+03</rscale>
<asrwt>0</asrwt>
<pdfrwt beam="1">  1       21 0.33392027E-01 0.17753154E+03</pdfrwt>
<pdfrwt beam="2">  1       21 0.61926888E-01 0.17753154E+03</pdfrwt>
<totfact> 0.21096722E+04</totfact>
</mgrwt>
</event>
<event>
 4    1  0.1091654E+000  0.1785424E+03  0.7546771E-02  0.1169221E+00
         21   -1    0    0  503  502  0.00000000000E+00  0.00000000000E+00  0.53568651646E+02  0.53568651646E+02  0.00000000000E+00 0.  1.
         21   -1    0    0  501  503 -0.00000000000E+00 -0.00000000000E+00 -0.76474523886E+03  0.76474523886E+03  0.00000000000E+00 0.  1.
          6    1    1    2  501    0  0.56468913059E+01 -0.47555361968E+02 -0.16286529289E+03  0.24166609912E+03  0.17200000000E+03 0.  1.
         -6    1    1    2    0  502 -0.56468913059E+01  0.47555361968E+02 -0.54831129433E+03  0.57664779139E+03  0.17200000000E+03 0.  1.
<mgrwt>
<rscale>  2 0.17854243E+03</rscale>
<asrwt>0</asrwt>
<pdfrwt beam="1">  1       21 0.13392163E-01 0.17854243E+03</pdfrwt>
<pdfrwt beam="2">  1       21 0.19118631E+00 0.17854243E+03</pdfrwt>
<totfact> 0.74731699E+03</totfact>
</mgrwt>
</event>
<event>
 4    1  0.1091654E+000  0.2025173E+03  0.7546771E-02  0.1147632E+00
         21   -1    0    0  503  502  0.00000000000E+00  0.00000000000E+00  0.16614678968E+03  0.16614678968E+03  0.00000000000E+00 0. -1.
         21   -1    0    0  501  503 -0.00000000000E+00 -0.00000000000E+00 -0.31133920672E+03  0.31133920672E+03  0.00000000000E+00 0. -1.
          6    1    1    2  501    0  0.44427273871E+02  0.97239268012E+02  0.36061068343E+02  0.20570284042E+03  0.17200000000E+03 0. -1.
         -6    1    1    2    0  502 -0.44427273871E+02 -0.97239268012E+02 -0.18125348538E+03  0.27178315597E+03  0.17200000000E+03 0. -1.
<mgrwt>
<rscale>  2 0.20251730E+03</rscale>
<asrwt>0</asrwt>
<pdfrwt beam="1">  1       21 0.41536698E-01 0.20251730E+03</pdfrwt>
<pdfrwt beam="2">  1       21 0.77834801E-01 0.20251730E+03</pdfrwt>
<totfact> 0.81073442E+03</totfact>
</mgrwt>
</event>
<event>
 4    1  0.1091654E+000  0.2365381E+03  0.7546771E-02  0.1122121E+00
         21   -1    0    0  503  502  0.00000000000E+00  0.00000000000E+00  0.93488201095E+02  0.93488201095E+02  0.00000000000E+00 0.  1.
         21   -1    0    0  501  503 -0.00000000000E+00 -0.00000000000E+00 -0.83950230468E+03  0.83950230468E+03  0.00000000000E+00 0. -1.
          6    1    1    2  501    0  0.14083279090E+03 -0.80823145387E+02 -0.62296694076E+03  0.66636181245E+03  0.17200000000E+03 0. -1.
         -6    1    1    2    0  502 -0.14083279090E+03  0.80823145387E+02 -0.12304716283E+03  0.26662869332E+03  0.17200000000E+03 0.  1.
<mgrwt>
<rscale>  2 0.23653806E+03</rscale>
<asrwt>0</asrwt>
<pdfrwt beam="1">  1       21 0.23372050E-01 0.23653806E+03</pdfrwt>
<pdfrwt beam="2">  1       21 0.20987557E+00 0.23653806E+03</pdfrwt>
<totfact> 0.19172664E+03</totfact>
</mgrwt>
</event>
<event>
 4    1  0.1091654E+000  0.1801200E+03  0.7546771E-02  0.1167687E+00
         21   -1    0    0  503  502  0.00000000000E+00  0.00000000000E+00  0.45186454419E+03  0.45186454419E+03  0.00000000000E+00 0.  1.
         21   -1    0    0  501  503 -0.00000000000E+00 -0.00000000000E+00 -0.11402314441E+03  0.11402314441E+03  0.00000000000E+00 0.  1.
          6    1    1    2  501    0  0.31690333517E+02 -0.43068917250E+02 -0.32608459647E+01  0.18014949899E+03  0.17200000000E+03 0.  1.
         -6    1    1    2    0  502 -0.31690333517E+02  0.43068917250E+02  0.34110224575E+03  0.38573818961E+03  0.17200000000E+03 0.  1.
<mgrwt>
<rscale>  2 0.18011998E+03</rscale>
<asrwt>0</asrwt>
<pdfrwt beam="1">  1       21 0.11296613E+00 0.18011998E+03</pdfrwt>
<pdfrwt beam="2">  1       21 0.28505787E-01 0.18011998E+03</pdfrwt>
<totfact> 0.72751869E+03</totfact>
</mgrwt>
</event>
<event>
 4    1  0.1091654E+000  0.2075537E+03  0.7546771E-02  0.1143518E+00
         21   -1    0    0  501  502  0.00000000000E+00  0.00000000000E+00  0.22688154021E+03  0.22688154021E+03  0.00000000000E+00 0.  1.
         21   -1    0    0  502  503 -0.00000000000E+00 -0.00000000000E+00 -0.19035598091E+03  0.19035598091E+03  0.00000000000E+00 0. -1.
          6    1    1    2  501    0  0.11614372438E+03 -0.22720789299E+01  0.28778410881E+02  0.20953931371E+03  0.17200000000E+03 0. -1.
         -6    1    1    2    0  503 -0.11614372438E+03  0.22720789299E+01  0.77471484198E+01  0.20769820742E+03  0.17200000000E+03 0.  1.
<mgrwt>
<rscale>  2 0.20755367E+03</rscale>
<asrwt>0</asrwt>
<pdfrwt beam="1">  1       21 0.56720385E-01 0.20755367E+03</pdfrwt>
<pdfrwt beam="2">  1       21 0.47588995E-01 0.20755367E+03</pdfrwt>
<totfact> 0.12217345E+04</totfact>
</mgrwt>
</event>
<event>
 4    1  0.1091654E+000  0.2395728E+03  0.7546771E-02  0.1120078E+00
         21   -1    0    0  501  502  0.00000000000E+00  0.00000000000E+00  0.27247631457E+03  0.27247631457E+03  0.00000000000E+00 0. -1.
         21   -1    0    0  502  503 -0.00000000000E+00 -0.00000000000E+00 -0.21304487994E+03  0.21304487994E+03  0.00000000000E+00 0.  1.
          6    1    1    2  501    0  0.16653868987E+03 -0.87163177451E+01  0.55494223309E+02  0.24591607967E+03  0.17200000000E+03 0. -1.
         -6    1    1    2    0  503 -0.16653868987E+03  0.87163177451E+01  0.39372113207E+01  0.23960511483E+03  0.17200000000E+03 0.  1.
<mgrwt>
<rscale>  2 0.23957276E+03</rscale>
<asrwt>0</asrwt>
<pdfrwt beam="1">  1       21 0.68119079E-01 0.23957276E+03</pdfrwt>
<pdfrwt beam="2">  1       21 0.53261220E-01 0.23957276E+03</pdfrwt>
<totfact> 0.63572112E+03</totfact>
</mgrwt>
</event>
<event>
 4    1  0.1091654E+000  0.1808023E+03  0.7546771E-02  0.1167029E+00
         21   -1    0    0  503  502  0.00000000000E+00  0.00000000000E+00  0.51529340847E+03  0.51529340847E+03  0.00000000000E+00 0. -1.
         21   -1    0    0  501  503 -0.00000000000E+00 -0.00000000000E+00 -0.75806452837E+02  0.75806452837E+02  0.00000000000E+00 0. -1.
          6    1    1    2  501    0 -0.33589229463E+02 -0.44466112976E+02  0.10036510908E+03  0.20679126350E+03  0.17200000000E+03 0. -1.
         -6    1    1    2    0  502  0.33589229463E+02  0.44466112976E+02  0.33912184656E+03  0.38430859781E+03  0.17200000000E+03 0. -1.
<mgrwt>
<rscale>  2 0.18080230E+03</rscale>
<asrwt>0</asrwt>
<pdfrwt beam="1">  1       21 0.12882334E+00 0.18080230E+03</pdfrwt>
<pdfrwt beam="2">  1       21 0.18951615E-01 0.18080230E+03</pdfrwt>
<totfact> 0.11383260E+04</totfact>
</mgrwt>
</event>
<event>
 4    1  0.1091654E+000  0.2779079E+03  0.7546771E-02  0.1096837E+00
         21   -1    0    0  501  502  0.00000000000E+00  0.00000000000E+00  0.14750935970E+03  0.14750935970E+03  0.00000000000E+00 0.  1.
         21   -1    0    0  502  503 -0.00000000000E+00 -0.00000000000E+00 -0.15627780995E+04  0.15627780995E+04  0.00000000000E+00 0. -1.
          6    1    1    2  501    0  0.20735808554E+03  0.68201377008E+02 -0.10301980484E+02  0.27809878509E+03  0.17200000000E+03 0.  1.
         -6    1    1    2    0  503 -0.20735808554E+03 -0.68201377008E+02 -0.14049667593E+04  0.14321886741E+04  0.17200000000E+03 0. -1.
<mgrwt>
<rscale>  2 0.27790790E+03</rscale>
<asrwt>0</asrwt>
<pdfrwt beam="1">  1       21 0.36877341E-01 0.27790790E+03</pdfrwt>
<pdfrwt beam="2">  1       21 0.39069452E+00 0.27790790E+03</pdfrwt>
<totfact> 0.61876174E+01</totfact>
</mgrwt>
</event>
<event>
 4    1  0.1091654E+000  0.1743452E+03  0.7546771E-02  0.1173391E+00
         21   -1    0    0  501  502  0.00000000000E+00  0.00000000000E+00  0.92339381084E+02  0.92339381084E+02  0.00000000000E+00 0. -1.
         21   -1    0    0  502  503 -0.00000000000E+00 -0.00000000000E+00 -0.72262615724E+03  0.72262615724E+03  0.00000000000E+00 0. -1.
          6    1    1    2  501    0 -0.47196239966E+01 -0.28106500584E+02 -0.14469837076E+02  0.17494463813E+03  0.17200000000E+03 0. -1.
         -6    1    1    2    0  503  0.47196239966E+01  0.28106500584E+02 -0.61581693908E+03  0.64002090019E+03  0.17200000000E+03 0. -1.
<mgrwt>
<rscale>  2 0.17434520E+03</rscale>
<asrwt>0</asrwt>
<pdfrwt beam="1">  1       21 0.23084846E-01 0.17434520E+03</pdfrwt>
<pdfrwt beam="2">  1       21 0.18065653E+00 0.17434520E+03</pdfrwt>
<totfact> 0.32318782E+03</totfact>
</mgrwt>
</event>
<event>
 4    1  0.1091654E+000  0.3045836E+03  0.7546771E-02  0.1082972E+00
         21   -1    0    0  501  502  0.00000000000E+00  0.00000000000E+00  0.25481003549E+03  0.25481003549E+03  0.00000000000E+00 0.  1.
         21   -1    0    0  502  503 -0.00000000000E+00 -0.00000000000E+00 -0.37324179645E+03  0.37324179645E+03  0.00000000000E+00 0. -1.
          6    1    1    2  501    0 -0.14869934389E+02  0.25093033342E+03 -0.10015428059E+02  0.30474818454E+03  0.17200000000E+03 0.  1.
         -6    1    1    2    0  503  0.14869934389E+02 -0.25093033342E+03 -0.10841633290E+03  0.32330364740E+03  0.17200000000E+03 0.  1.
<mgrwt>
<rscale>  2 0.30458356E+03</rscale>
<asrwt>0</asrwt>
<pdfrwt beam="1">  1       21 0.63702509E-01 0.30458356E+03</pdfrwt>
<pdfrwt beam="2">  1       21 0.93310448E-01 0.30458356E+03</pdfrwt>
<totfact> 0.20284078E+03</totfact>
</mgrwt>
</event>
<event>
 4    1  0.1091654E+000  0.2990393E+03  0.7546771E-02  0.1085722E+00
         21   -1    0    0  501  502  0.00000000000E+00  0.00000000000E+00  0.11835168764E+04  0.11835168764E+04  0.00000000000E+00 0. -1.
         21   -1    0    0  502  503 -0.00000000000E+00 -0.00000000000E+00 -0.12997004812E+03  0.12997004812E+03  0.00000000000E+00 0. -1.
          6    1    1    2  501    0 -0.20332925796E+03 -0.13600638117E+03  0.95170641364E+03  0.99758188667E+03  0.17200000000E+03 0. -1.
         -6    1    1    2    0  503  0.20332925796E+03  0.13600638117E+03  0.10184041461E+03  0.31590503781E+03  0.17200000000E+03 0. -1.
<mgrwt>
<rscale>  2 0.29903933E+03</rscale>
<asrwt>0</asrwt>
<pdfrwt beam="1">  1       21 0.29587919E+00 0.29903933E+03</pdfrwt>
<pdfrwt beam="2">  1       21 0.32492516E-01 0.29903933E+03</pdfrwt>
<totfact> 0.28979243E+02</totfact>
</mgrwt>
</event>
<event>
 4    1  0.1091654E+000  0.1803574E+03  0.7546771E-02  0.1167458E+00
         21   -1    0    0  503  502  0.00000000000E+00  0.00000000000E+00  0.99876906844E+03  0.99876906844E+03  0.00000000000E+00 0. -1.
         21   -1    0    0  501  503 -0.00000000000E+00 -0.00000000000E+00 -0.45474477372E+02  0.45474477372E+02  0.00000000000E+00 0. -1.
          6    1    1    2  501    0  0.87499011183E+01 -0.53555974455E+02  0.19849875930E+03  0.26819873343E+03  0.17200000000E+03 0. -1.
         -6    1    1    2    0  502 -0.87499011183E+01  0.53555974455E+02  0.75479583177E+03  0.77604481238E+03  0.17200000000E+03 0. -1.
<mgrwt>
<rscale>  2 0.18035743E+03</rscale>
<asrwt>0</asrwt>
<pdfrwt beam="1">  1       21 0.24969220E+00 0.18035743E+03</pdfrwt>
<pdfrwt beam="2">  1       21 0.11368623E-01 0.18035743E+03</pdfrwt>
<totfact> 0.43731698E+03</totfact>
</mgrwt>
</event>
<event>
 4    1  0.1091654E+000  0.2520103E+03  0.7546771E-02  0.1112041E+00
         21   -1    0    0  501  502  0.00000000000E+00  0.00000000000E+00  0.15062480525E+03  0.15062480525E+03  0.00000000000E+00 0.  1.
         21   -1    0    0  502  503 -0.00000000000E+00 -0.00000000000E+00 -0.12060567272E+04  0.12060567272E+04  0.00000000000E+00 0. -1.
          6    1    1    2  501    0 -0.17946422070E+03 -0.41446158820E+02  0.19347787157E+02  0.25275190892E+03  0.17200000000E+03 0.  1.
         -6    1    1    2    0  503  0.17946422070E+03  0.41446158820E+02 -0.10747797091E+04  0.11039296235E+04  0.17200000000E+03 0. -1.
<mgrwt>
<rscale>  2 0.25201030E+03</rscale>
<asrwt>0</asrwt>
<pdfrwt beam="1">  1       21 0.37656201E-01 0.25201030E+03</pdfrwt>
<pdfrwt beam="2">  1       21 0.30151418E+00 0.25201030E+03</pdfrwt>
<totfact> 0.21000997E+02</totfact>
</mgrwt>
</event>
<event>
 4    1  0.1091654E+000  0.1878264E+03  0.7546771E-02  0.1160437E+00
         21   -1    0    0  501  502  0.00000000000E+00  0.00000000000E+00  0.77687708928E+03  0.77687708928E+03  0.00000000000E+00 0.  1.
         21   -1    0    0  502  503 -0.00000000000E+00 -0.00000000000E+00 -0.82443472393E+02  0.82443472393E+02  0.00000000000E+00 0.  1.
          6    1    1    2  501    0 -0.31428368938E+02 -0.68607625341E+02  0.63518104315E+03  0.66236976547E+03  0.17200000000E+03 0.  1.
         -6    1    1    2    0  503  0.31428368938E+02  0.68607625341E+02  0.59252573730E+02  0.19695079620E+03  0.17200000000E+03 0.  1.
<mgrwt>
<rscale>  2 0.18782638E+03</rscale>
<asrwt>0</asrwt>
<pdfrwt beam="1">  1       21 0.19421925E+00 0.18782638E+03</pdfrwt>
<pdfrwt beam="2">  1       21 0.20610870E-01 0.18782638E+03</pdfrwt>
<totfact> 0.32084287E+03</totfact>
</mgrwt>
</event>
<event>
 4    1  0.1091654E+000  0.1749029E+03  0.7546771E-02  0.1172829E+00
         21   -1    0    0  501  502  0.00000000000E+00  0.00000000000E+00  0.81526631519E+02  0.81526631519E+02  0.00000000000E+00 0. -1.
         21   -1    0    0  502  503 -0.00000000000E+00 -0.00000000000E+00 -0.80860057419E+03  0.80860057419E+03  0.00000000000E+00 0. -1.
          6    1    1    2  501    0 -0.19057707782E+02 -0.25374110108E+02 -0.37710794531E+02  0.17892217781E+03  0.17200000000E+03 0. -1.
         -6    1    1    2    0  503  0.19057707782E+02  0.25374110108E+02 -0.68936314814E+03  0.71120502790E+03  0.17200000000E+03 0. -1.
<mgrwt>
<rscale>  2 0.17490295E+03</rscale>
<asrwt>0</asrwt>
<pdfrwt beam="1">  1       21 0.20381658E-01 0.17490295E+03</pdfrwt>
<pdfrwt beam="2">  1       21 0.20215014E+00 0.17490295E+03</pdfrwt>
<totfact> 0.29521895E+03</totfact>
</mgrwt>
</event>
<event>
 4    1  0.1091654E+000  0.1748164E+03  0.7546771E-02  0.1172916E+00
         21   -1    0    0  501  502  0.00000000000E+00  0.00000000000E+00  0.17344137378E+03  0.17344137378E+03  0.00000000000E+00 0.  1.
         21   -1    0    0  502  503 -0.00000000000E+00 -0.00000000000E+00 -0.17822087057E+03  0.17822087057E+03  0.00000000000E+00 0.  1.
          6    1    1    2  501    0  0.31160736386E+02  0.24064081058E+01 -0.21102177857E+02  0.17608544574E+03  0.17200000000E+03 0.  1.
         -6    1    1    2    0  503 -0.31160736386E+02 -0.24064081058E+01  0.16322681073E+02  0.17557679861E+03  0.17200000000E+03 0.  1.
<mgrwt>
<rscale>  2 0.17481642E+03</rscale>
<asrwt>0</asrwt>
<pdfrwt beam="1">  1       21 0.43360344E-01 0.17481642E+03</pdfrwt>
<pdfrwt beam="2">  1       21 0.44555218E-01 0.17481642E+03</pdfrwt>
<totfact> 0.24980996E+04</totfact>
</mgrwt>
</event>
<event>
 4    1  0.1091654E+000  0.2069561E+03  0.7546771E-02  0.1143999E+00
         21   -1    0    0  503  502  0.00000000000E+00  0.00000000000E+00  0.78408620436E+02  0.78408620436E+02  0.00000000000E+00 0.  1.
         21   -1    0    0  501  503 -0.00000000000E+00 -0.00000000000E+00 -0.57406311782E+03  0.57406311782E+03  0.00000000000E+00 0.  1.
          6    1    1    2  501    0 -0.82684307259E+02 -0.80063305576E+02 -0.31963393893E+03  0.38078429915E+03  0.17200000000E+03 0.  1.
         -6    1    1    2    0  502  0.82684307259E+02  0.80063305576E+02 -0.17602055845E+03  0.27168743910E+03  0.17200000000E+03 0.  1.
<mgrwt>
<rscale>  2 0.20695610E+03</rscale>
<asrwt>0</asrwt>
<pdfrwt beam="1">  1       21 0.19602155E-01 0.20695610E+03</pdfrwt>
<pdfrwt beam="2">  1       21 0.14351578E+00 0.20695610E+03</pdfrwt>
<totfact> 0.79533133E+03</totfact>
</mgrwt>
</event>
<event>
 4    1  0.1091654E+000  0.2680834E+03  0.7546771E-02  0.1102382E+00
         21   -1    0    0  501  502  0.00000000000E+00  0.00000000000E+00  0.31595446120E+03  0.31595446120E+03  0.00000000000E+00 0. -1.
         21   -1    0    0  502  503 -0.00000000000E+00 -0.00000000000E+00 -0.25468273131E+03  0.25468273131E+03  0.00000000000E+00 0. -1.
          6    1    1    2  501    0 -0.20522018139E+03 -0.13015814186E+02  0.12390811065E+03  0.29533363194E+03  0.17200000000E+03 0. -1.
         -6    1    1    2    0  503  0.20522018139E+03  0.13015814186E+02 -0.62636380757E+02  0.27530356057E+03  0.17200000000E+03 0. -1.
<mgrwt>
<rscale>  2 0.26808345E+03</rscale>
<asrwt>0</asrwt>
<pdfrwt beam="1">  1       21 0.78988615E-01 0.26808345E+03</pdfrwt>
<pdfrwt beam="2">  1       21 0.63670683E-01 0.26808345E+03</pdfrwt>
<totfact> 0.30534295E+03</totfact>
</mgrwt>
</event>
<event>
 4    1  0.1091654E+000  0.1857576E+03  0.7546771E-02  0.1162344E+00
         21   -1    0    0  503  502  0.00000000000E+00  0.00000000000E+00  0.10516493482E+03  0.10516493482E+03  0.00000000000E+00 0. -1.
         21   -1    0    0  501  503 -0.00000000000E+00 -0.00000000000E+00 -0.49417813900E+03  0.49417813900E+03  0.00000000000E+00 0.  1.
          6    1    1    2  501    0 -0.24548260944E+02  0.65721206512E+02 -0.36822429908E+03  0.41242578549E+03  0.17200000000E+03 0.  1.
         -6    1    1    2    0  502  0.24548260944E+02 -0.65721206512E+02 -0.20788905096E+02  0.18691728833E+03  0.17200000000E+03 0. -1.
<mgrwt>
<rscale>  2 0.18575762E+03</rscale>
<asrwt>0</asrwt>
<pdfrwt beam="1">  1       21 0.26291234E-01 0.18575762E+03</pdfrwt>
<pdfrwt beam="2">  1       21 0.12354453E+00 0.18575762E+03</pdfrwt>
<totfact> 0.67926381E+03</totfact>
</mgrwt>
</event>
<event>
 4    1  0.1091654E+000  0.2503763E+03  0.7546771E-02  0.1113067E+00
         21   -1    0    0  503  502  0.00000000000E+00  0.00000000000E+00  0.26170741587E+03  0.26170741587E+03  0.00000000000E+00 0. -1.
         21   -1    0    0  501  503 -0.00000000000E+00 -0.00000000000E+00 -0.57137822839E+03  0.57137822839E+03  0.00000000000E+00 0.  1.
          6    1    1    2  501    0 -0.15774781199E+03  0.90663821203E+02 -0.47227694369E+03  0.53454074887E+03  0.17200000000E+03 0.  1.
         -6    1    1    2    0  502  0.15774781199E+03 -0.90663821203E+02  0.16260613117E+03  0.29854489538E+03  0.17200000000E+03 0. -1.
<mgrwt>
<rscale>  2 0.25037632E+03</rscale>
<asrwt>0</asrwt>
<pdfrwt beam="1">  1       21 0.65426854E-01 0.25037632E+03</pdfrwt>
<pdfrwt beam="2">  1       21 0.14284456E+00 0.25037632E+03</pdfrwt>
<totfact> 0.69016269E+02</totfact>
</mgrwt>
</event>
<event>
 4    1  0.1091654E+000  0.3176167E+03  0.7546771E-02  0.1076751E+00
         21   -1    0    0  501  502  0.00000000000E+00  0.00000000000E+00  0.11683432872E+04  0.11683432872E+04  0.00000000000E+00 0.  1.
         21   -1    0    0  502  503 -0.00000000000E+00 -0.00000000000E+00 -0.29116742571E+03  0.29116742571E+03  0.00000000000E+00 0. -1.
          6    1    1    2  501    0 -0.25438521284E+03 -0.81145152171E+02  0.10506491433E+04  0.10976083065E+04  0.17200000000E+03 0.  1.
         -6    1    1    2    0  503  0.25438521284E+03  0.81145152171E+02 -0.17347328182E+03  0.36190240637E+03  0.17200000000E+03 0. -1.
<mgrwt>
<rscale>  2 0.31761671E+03</rscale>
<asrwt>0</asrwt>
<pdfrwt beam="1">  1       21 0.29208581E+00 0.31761671E+03</pdfrwt>
<pdfrwt beam="2">  1       21 0.72791859E-01 0.31761671E+03</pdfrwt>
<totfact> 0.54802091E+01</totfact>
</mgrwt>
</event>
<event>
 4    1  0.1091654E+000  0.1867414E+03  0.7546771E-02  0.1161434E+00
         21   -1    0    0  501  502  0.00000000000E+00  0.00000000000E+00  0.13164508466E+04  0.13164508466E+04  0.00000000000E+00 0.  1.
         21   -1    0    0  502  503 -0.00000000000E+00 -0.00000000000E+00 -0.49881359587E+02  0.49881359587E+02  0.00000000000E+00 0.  1.
          6    1    1    2  501    0  0.14898107357E+02 -0.71178675612E+02  0.11011145641E+04  0.11168373385E+04  0.17200000000E+03 0.  1.
         -6    1    1    2    0  503 -0.14898107357E+02  0.71178675612E+02  0.16545492288E+03  0.24949486762E+03  0.17200000000E+03 0.  1.
<mgrwt>
<rscale>  2 0.18674142E+03</rscale>
<asrwt>0</asrwt>
<pdfrwt beam="1">  1       21 0.32911260E+00 0.18674142E+03</pdfrwt>
<pdfrwt beam="2">  1       21 0.12470344E-01 0.18674142E+03</pdfrwt>
<totfact> 0.12800782E+03</totfact>
</mgrwt>
</event>
<event>
 4    1  0.1091654E+000  0.2156650E+03  0.7546771E-02  0.1137157E+00
         21   -1    0    0  503  502  0.00000000000E+00  0.00000000000E+00  0.15218356568E+03  0.15218356568E+03  0.00000000000E+00 0. -1.
         21   -1    0    0  501  503 -0.00000000000E+00 -0.00000000000E+00 -0.33140172408E+03  0.33140172408E+03  0.00000000000E+00 0.  1.
          6    1    1    2  501    0 -0.48930399597E+02  0.12055383340E+03 -0.15704052759E+03  0.26678294184E+03  0.17200000000E+03 0.  1.
         -6    1    1    2    0  502  0.48930399597E+02 -0.12055383340E+03 -0.22177630814E+02  0.21680234792E+03  0.17200000000E+03 0. -1.
<mgrwt>
<rscale>  2 0.21566504E+03</rscale>
<asrwt>0</asrwt>
<pdfrwt beam="1">  1       21 0.38045892E-01 0.21566504E+03</pdfrwt>
<pdfrwt beam="2">  1       21 0.82850430E-01 0.21566504E+03</pdfrwt>
<totfact> 0.83284533E+03</totfact>
</mgrwt>
</event>
<event>
 4    1  0.1091654E+000  0.1774980E+03  0.7546771E-02  0.1170247E+00
         21   -1    0    0  503  502  0.00000000000E+00  0.00000000000E+00  0.23479119478E+03  0.23479119478E+03  0.00000000000E+00 0.  1.
         21   -1    0    0  501  503 -0.00000000000E+00 -0.00000000000E+00 -0.13625467651E+03  0.13625467651E+03  0.00000000000E+00 0.  1.
          6    1    1    2  501    0 -0.62421508138E+01  0.43388769639E+02  0.72131165403E+02  0.19159450618E+03  0.17200000000E+03 0.  1.
         -6    1    1    2    0  502  0.62421508138E+01 -0.43388769639E+02  0.26405352868E+02  0.17945136510E+03  0.17200000000E+03 0.  1.
<mgrwt>
<rscale>  2 0.17749803E+03</rscale>
<asrwt>0</asrwt>
<pdfrwt beam="1">  1       21 0.58697798E-01 0.17749803E+03</pdfrwt>
<pdfrwt beam="2">  1       21 0.34063669E-01 0.17749803E+03</pdfrwt>
<totfact> 0.22753110E+04</totfact>
</mgrwt>
</event>
<event>
 4    1  0.1091654E+000  0.1784386E+03  0.7546771E-02  0.1169323E+00
         21   -1    0    0  501  502  0.00000000000E+00  0.00000000000E+00  0.24231961156E+03  0.24231961156E+03  0.00000000000E+00 0. -1.
         21   -1    0    0  502  503 -0.00000000000E+00 -0.00000000000E+00 -0.21406320242E+03  0.21406320242E+03  0.00000000000E+00 0. -1.
          6    1    1    2  501    0  0.44886672178E+02  0.15540681978E+02  0.15593253515E+03  0.23697105658E+03  0.17200000000E+03 0. -1.
         -6    1    1    2    0  503 -0.44886672178E+02 -0.15540681978E+02 -0.12767612601E+03  0.21941175741E+03  0.17200000000E+03 0. -1.
<mgrwt>
<rscale>  2 0.17843858E+03</rscale>
<asrwt>0</asrwt>
<pdfrwt beam="1">  1       21 0.60579903E-01 0.17843858E+03</pdfrwt>
<pdfrwt beam="2">  1       21 0.53515801E-01 0.17843858E+03</pdfrwt>
<totfact> 0.84739752E+03</totfact>
</mgrwt>
</event>
<event>
 4    1  0.1091654E+000  0.1966593E+03  0.7546771E-02  0.1152589E+00
         21   -1    0    0  501  502  0.00000000000E+00  0.00000000000E+00  0.22182939408E+03  0.22182939408E+03  0.00000000000E+00 0.  1.
         21   -1    0    0  502  503 -0.00000000000E+00 -0.00000000000E+00 -0.17764521910E+03  0.17764521910E+03  0.00000000000E+00 0. -1.
          6    1    1    2  501    0  0.34250281330E+02  0.88981982713E+02  0.49315660262E+02  0.20274838930E+03  0.17200000000E+03 0.  1.
         -6    1    1    2    0  503 -0.34250281330E+02 -0.88981982713E+02 -0.51314852832E+01  0.19672622387E+03  0.17200000000E+03 0.  1.
<mgrwt>
<rscale>  2 0.19665929E+03</rscale>
<asrwt>0</asrwt>
<pdfrwt beam="1">  1       21 0.55457348E-01 0.19665929E+03</pdfrwt>
<pdfrwt beam="2">  1       21 0.44411305E-01 0.19665929E+03</pdfrwt>
<totfact> 0.14883669E+04</totfact>
</mgrwt>
</event>
<event>
 4    1  0.1091654E+000  0.2066582E+03  0.7546771E-02  0.1144240E+00
         21   -1    0    0  503  502  0.00000000000E+00  0.00000000000E+00  0.13422076988E+03  0.13422076988E+03  0.00000000000E+00 0.  1.
         21   -1    0    0  501  503 -0.00000000000E+00 -0.00000000000E+00 -0.31992477264E+03  0.31992477264E+03  0.00000000000E+00 0.  1.
          6    1    1    2  501    0 -0.47435558391E+00 -0.11455742328E+03 -0.76128175819E+02  0.22023425573E+03  0.17200000000E+03 0.  1.
         -6    1    1    2    0  502  0.47435558391E+00  0.11455742328E+03 -0.10957582694E+03  0.23391128680E+03  0.17200000000E+03 0.  1.
<mgrwt>
<rscale>  2 0.20665824E+03</rscale>
<asrwt>0</asrwt>
<pdfrwt beam="1">  1       21 0.33555193E-01 0.20665824E+03</pdfrwt>
<pdfrwt beam="2">  1       21 0.79981192E-01 0.20665824E+03</pdfrwt>
<totfact> 0.11661396E+04</totfact>
</mgrwt>
</event>
<event>
 4    1  0.1091654E+000  0.1752345E+03  0.7546771E-02  0.1172496E+00
         21   -1    0    0  501  502  0.00000000000E+00  0.00000000000E+00  0.27836601548E+03  0.27836601548E+03  0.00000000000E+00 0. -1.
         21   -1    0    0  502  503 -0.00000000000E+00 -0.00000000000E+00 -0.16623319230E+03  0.16623319230E+03  0.00000000000E+00 0. -1.
          6    1    1    2  501    0 -0.32864902478E+02  0.65607202589E+01  0.18500044467E+03  0.25481818890E+03  0.17200000000E+03 0. -1.
         -6    1    1    2    0  503  0.32864902478E+02 -0.65607202589E+01 -0.72867621499E+02  0.18978101888E+03  0.17200000000E+03 0. -1.
<mgrwt>
<rscale>  2 0.17523454E+03</rscale>
<asrwt>0</asrwt>
<pdfrwt beam="1">  1       21 0.69591503E-01 0.17523454E+03</pdfrwt>
<pdfrwt beam="2">  1       21 0.41558298E-01 0.17523454E+03</pdfrwt>
<totfact> 0.10591082E+04</totfact>
</mgrwt>
</event>
<event>
 4    1  0.1091654E+000  0.1831732E+03  0.7546771E-02  0.1164767E+00
         21   -1    0    0  503  502  0.00000000000E+00  0.00000000000E+00  0.64490995190E+03  0.64490995190E+03  0.00000000000E+00 0. -1.
         21   -1    0    0  501  503 -0.00000000000E+00 -0.00000000000E+00 -0.57898279085E+02  0.57898279085E+02  0.00000000000E+00 0. -1.
          6    1    1    2  501    0  0.44498207736E+02 -0.44590662594E+02  0.18159856872E+03  0.25793498763E+03  0.17200000000E+03 0. -1.
         -6    1    1    2    0  502 -0.44498207736E+02  0.44590662594E+02  0.40541310410E+03  0.44487324336E+03  0.17200000000E+03 0. -1.
<mgrwt>
<rscale>  2 0.18317319E+03</rscale>
<asrwt>0</asrwt>
<pdfrwt beam="1">  1       21 0.16122747E+00 0.18317319E+03</pdfrwt>
<pdfrwt beam="2">  1       21 0.14474572E-01 0.18317319E+03</pdfrwt>
<totfact> 0.10395920E+04</totfact>
</mgrwt>
</event>
<event>
 4    1  0.1091654E+000  0.1849909E+03  0.7546771E-02  0.1163058E+00
         21   -1    0    0  501  502  0.00000000000E+00  0.00000000000E+00  0.23188108116E+03  0.23188108116E+03  0.00000000000E+00 0. -1.
         21   -1    0    0  502  503 -0.00000000000E+00 -0.00000000000E+00 -0.14758462154E+03  0.14758462154E+03  0.00000000000E+00 0.  1.
          6    1    1    2  501    0  0.49745280562E+02 -0.46508298453E+02  0.41447461389E+02  0.18957717906E+03  0.17200000000E+03 0.  1.
         -6    1    1    2    0  503 -0.49745280562E+02  0.46508298453E+02  0.42848998232E+02  0.18988852365E+03  0.17200000000E+03 0. -1.
<mgrwt>
<rscale>  2 0.18499085E+03</rscale>
<asrwt>0</asrwt>
<pdfrwt beam="1">  1       21 0.57970270E-01 0.18499085E+03</pdfrwt>
<pdfrwt beam="2">  1       21 0.36896156E-01 0.18499085E+03</pdfrwt>
<totfact> 0.19851395E+04</totfact>
</mgrwt>
</event>
<event>
 4    1  0.1091654E+000  0.1866443E+03  0.7546771E-02  0.1161523E+00
         21   -1    0    0  503  502  0.00000000000E+00  0.00000000000E+00  0.71872609937E+02  0.71872609937E+02  0.00000000000E+00 0.  1.
         21   -1    0    0  501  503 -0.00000000000E+00 -0.00000000000E+00 -0.52888338700E+03  0.52888338700E+03  0.00000000000E+00 0.  1.
          6    1    1    2  501    0  0.69031467888E+02 -0.22062517556E+02 -0.31533256154E+03  0.36642969668E+03  0.17200000000E+03 0. -1.
         -6    1    1    2    0  502 -0.69031467888E+02  0.22062517556E+02 -0.14167821552E+03  0.23432630026E+03  0.17200000000E+03 0. -1.
<mgrwt>
<rscale>  2 0.18664431E+03</rscale>
<asrwt>0</asrwt>
<pdfrwt beam="1">  1       21 0.17968153E-01 0.18664431E+03</pdfrwt>
<pdfrwt beam="2">  1       21 0.13222084E+00 0.18664431E+03</pdfrwt>
<totfact> 0.11715508E+04</totfact>
</mgrwt>
</event>
<event>
 4    1  0.1091654E+000  0.1840871E+03  0.7546771E-02  0.1163905E+00
         21   -1    0    0  503  502  0.00000000000E+00  0.00000000000E+00  0.65552182731E+03  0.65552182731E+03  0.00000000000E+00 0. -1.
         21   -1    0    0  501  503 -0.00000000000E+00 -0.00000000000E+00 -0.52012656174E+02  0.52012656174E+02  0.00000000000E+00 0. -1.
          6    1    1    2  501    0  0.65457075443E+02 -0.44070680548E+01  0.32934469483E+03  0.37730091305E+03  0.17200000000E+03 0. -1.
         -6    1    1    2    0  502 -0.65457075443E+02  0.44070680548E+01  0.27416447630E+03  0.33023357043E+03  0.17200000000E+03 0. -1.
<mgrwt>
<rscale>  2 0.18408707E+03</rscale>
<asrwt>0</asrwt>
<pdfrwt beam="1">  1       21 0.16388043E+00 0.18408707E+03</pdfrwt>
<pdfrwt beam="2">  1       21 0.13003166E-01 0.18408707E+03</pdfrwt>
<totfact> 0.12063147E+04</totfact>
</mgrwt>
</event>
<event>
 4    1  0.1091654E+000  0.1832861E+03  0.7546771E-02  0.1164660E+00
         21   -1    0    0  501  502  0.00000000000E+00  0.00000000000E+00  0.13843053264E+03  0.13843053264E+03  0.00000000000E+00 0. -1.
         21   -1    0    0  502  503 -0.00000000000E+00 -0.00000000000E+00 -0.24452359327E+03  0.24452359327E+03  0.00000000000E+00 0.  1.
          6    1    1    2  501    0  0.61234594090E+02  0.16127719144E+02 -0.69690246607E+02  0.19608801419E+03  0.17200000000E+03 0. -1.
         -6    1    1    2    0  503 -0.61234594090E+02 -0.16127719144E+02 -0.36402814022E+02  0.18686611171E+03  0.17200000000E+03 0. -1.
<mgrwt>
<rscale>  2 0.18328606E+03</rscale>
<asrwt>0</asrwt>
<pdfrwt beam="1">  1       21 0.34607634E-01 0.18328606E+03</pdfrwt>
<pdfrwt beam="2">  1       21 0.61130898E-01 0.18328606E+03</pdfrwt>
<totfact> 0.20143210E+04</totfact>
</mgrwt>
</event>
<event>
 4    1  0.1091654E+000  0.1803346E+03  0.7546771E-02  0.1167480E+00
         21   -1    0    0  503  502  0.00000000000E+00  0.00000000000E+00  0.50215534199E+02  0.50215534199E+02  0.00000000000E+00 0.  1.
         21   -1    0    0  501  503 -0.00000000000E+00 -0.00000000000E+00 -0.72575451694E+03  0.72575451694E+03  0.00000000000E+00 0.  1.
          6    1    1    2  501    0 -0.33066566043E+02  0.42932140799E+02 -0.46507363472E+03  0.49881264240E+03  0.17200000000E+03 0.  1.
         -6    1    1    2    0  502  0.33066566043E+02 -0.42932140799E+02 -0.21046534802E+03  0.27715740875E+03  0.17200000000E+03 0.  1.
<mgrwt>
<rscale>  2 0.18033460E+03</rscale>
<asrwt>0</asrwt>
<pdfrwt beam="1">  1       21 0.12553884E-01 0.18033460E+03</pdfrwt>
<pdfrwt beam="2">  1       21 0.18143863E+00 0.18033460E+03</pdfrwt>
<totfact> 0.97277486E+03</totfact>
</mgrwt>
</event>
<event>
 4    1  0.1091654E+000  0.1835162E+03  0.7546771E-02  0.1164443E+00
         21   -1    0    0  503  502  0.00000000000E+00  0.00000000000E+00  0.33204446275E+03  0.33204446275E+03  0.00000000000E+00 0. -1.
         21   -1    0    0  501  503 -0.00000000000E+00 -0.00000000000E+00 -0.11943206892E+03  0.11943206892E+03  0.00000000000E+00 0. -1.
          6    1    1    2  501    0  0.48971425033E+02  0.41182269138E+02  0.18657489981E+02  0.18446214163E+03  0.17200000000E+03 0. -1.
         -6    1    1    2    0  502 -0.48971425033E+02 -0.41182269138E+02  0.19395490385E+03  0.26701439004E+03  0.17200000000E+03 0. -1.
<mgrwt>
<rscale>  2 0.18351616E+03</rscale>
<asrwt>0</asrwt>
<pdfrwt beam="1">  1       21 0.83011114E-01 0.18351616E+03</pdfrwt>
<pdfrwt beam="2">  1       21 0.29858018E-01 0.18351616E+03</pdfrwt>
<totfact> 0.13684502E+04</totfact>
</mgrwt>
</event>
<event>
 4    1  0.1091654E+000  0.2313337E+03  0.7546771E-02  0.1125705E+00
         21   -1    0    0  501  502  0.00000000000E+00  0.00000000000E+00  0.63957533738E+02  0.63957533738E+02  0.00000000000E+00 0. -1.
         21   -1    0    0  502  503 -0.00000000000E+00 -0.00000000000E+00 -0.93708527803E+03  0.93708527803E+03  0.00000000000E+00 0. -1.
          6    1    1    2  501    0  0.12237370309E+02 -0.15421255856E+03 -0.60035882922E+03  0.64338634604E+03  0.17200000000E+03 0. -1.
         -6    1    1    2    0  503 -0.12237370309E+02  0.15421255856E+03 -0.27276891508E+03  0.35765646574E+03  0.17200000000E+03 0. -1.
<mgrwt>
<rscale>  2 0.23133367E+03</rscale>
<asrwt>0</asrwt>
<pdfrwt beam="1">  1       21 0.15989384E-01 0.23133367E+03</pdfrwt>
<pdfrwt beam="2">  1       21 0.23427131E+00 0.23133367E+03</pdfrwt>
<totfact> 0.27686520E+03</totfact>
</mgrwt>
</event>
<event>
 4    1  0.1091654E+000  0.2083171E+03  0.7546771E-02  0.1142906E+00
         21   -1    0    0  501  502  0.00000000000E+00  0.00000000000E+00  0.17017243524E+03  0.17017243524E+03  0.00000000000E+00 0. -1.
         21   -1    0    0  502  503 -0.00000000000E+00 -0.00000000000E+00 -0.78613426280E+03  0.78613426280E+03  0.00000000000E+00 0. -1.
          6    1    1    2  501    0  0.27343035670E+02  0.11429954141E+03  0.85040360580E+02  0.22500642145E+03  0.17200000000E+03 0. -1.
         -6    1    1    2    0  503 -0.27343035670E+02 -0.11429954141E+03 -0.70100218814E+03  0.73130027659E+03  0.17200000000E+03 0. -1.
<mgrwt>
<rscale>  2 0.20831713E+03</rscale>
<asrwt>0</asrwt>
<pdfrwt beam="1">  1       21 0.42543109E-01 0.20831713E+03</pdfrwt>
<pdfrwt beam="2">  1       21 0.19653357E+00 0.20831713E+03</pdfrwt>
<totfact> 0.73820203E+02</totfact>
</mgrwt>
</event>
<event>
 4    1  0.1091654E+000  0.1888389E+03  0.7546771E-02  0.1159513E+00
         21   -1    0    0  501  502  0.00000000000E+00  0.00000000000E+00  0.53970439338E+02  0.53970439338E+02  0.00000000000E+00 0.  1.
         21   -1    0    0  502  503 -0.00000000000E+00 -0.00000000000E+00 -0.97261319447E+03  0.97261319447E+03  0.00000000000E+00 0.  1.
          6    1    1    2  501    0 -0.68547736994E+02 -0.37112313832E+02 -0.16866001065E+03  0.25319224964E+03  0.17200000000E+03 0.  1.
         -6    1    1    2    0  503  0.68547736994E+02  0.37112313832E+02 -0.74998274448E+03  0.77339138417E+03  0.17200000000E+03 0.  1.
<mgrwt>
<rscale>  2 0.18883886E+03</rscale>
<asrwt>0</asrwt>
<pdfrwt beam="1">  1       21 0.13492610E-01 0.18883886E+03</pdfrwt>
<pdfrwt beam="2">  1       21 0.24315330E+00 0.18883886E+03</pdfrwt>
<totfact> 0.34830905E+03</totfact>
</mgrwt>
</event>
<event>
 4    1  0.1091654E+000  0.2089604E+03  0.7546771E-02  0.1142392E+00
         21   -1    0    0  501  502  0.00000000000E+00  0.00000000000E+00  0.21834661327E+03  0.21834661327E+03  0.00000000000E+00 0.  1.
         21   -1    0    0  502  503 -0.00000000000E+00 -0.00000000000E+00 -0.21085600273E+03  0.21085600273E+03  0.00000000000E+00 0.  1.
          6    1    1    2  501    0  0.72175575140E+01 -0.11844135711E+03  0.52489223443E+02  0.21545200577E+03  0.17200000000E+03 0.  1.
         -6    1    1    2    0  503 -0.72175575140E+01  0.11844135711E+03 -0.44998612903E+02  0.21375061023E+03  0.17200000000E+03 0.  1.
<mgrwt>
<rscale>  2 0.20896040E+03</rscale>
<asrwt>0</asrwt>
<pdfrwt beam="1">  1       21 0.54586653E-01 0.20896040E+03</pdfrwt>
<pdfrwt beam="2">  1       21 0.52714001E-01 0.20896040E+03</pdfrwt>
<totfact> 0.10693446E+04</totfact>
</mgrwt>
</event>
<event>
 4    1  0.1091654E+000  0.1945266E+03  0.7546771E-02  0.1154441E+00
         21   -1    0    0  501  502  0.00000000000E+00  0.00000000000E+00  0.11937236498E+03  0.11937236498E+03  0.00000000000E+00 0. -1.
         21   -1    0    0  502  503 -0.00000000000E+00 -0.00000000000E+00 -0.37317553179E+03  0.37317553179E+03  0.00000000000E+00 0. -1.
          6    1    1    2  501    0  0.60517248165E+01 -0.90664036415E+02 -0.22245583661E+03  0.29551174276E+03  0.17200000000E+03 0. -1.
         -6    1    1    2    0  503 -0.60517248165E+01  0.90664036415E+02 -0.31347330203E+02  0.19703615400E+03  0.17200000000E+03 0. -1.
<mgrwt>
<rscale>  2 0.19452658E+03</rscale>
<asrwt>0</asrwt>
<pdfrwt beam="1">  1       21 0.29843092E-01 0.19452658E+03</pdfrwt>
<pdfrwt beam="2">  1       21 0.93293882E-01 0.19452658E+03</pdfrwt>
<totfact> 0.10390924E+04</totfact>
</mgrwt>
</event>
<event>
 4    1  0.1091654E+000  0.1742933E+03  0.7546771E-02  0.1173443E+00
         21   -1    0    0  501  502  0.00000000000E+00  0.00000000000E+00  0.52554917442E+03  0.52554917442E+03  0.00000000000E+00 0. -1.
         21   -1    0    0  502  503 -0.00000000000E+00 -0.00000000000E+00 -0.13829633341E+03  0.13829633341E+03  0.00000000000E+00 0. -1.
          6    1    1    2  501    0  0.27350759240E+02  0.67896618193E+01  0.44685484105E+03  0.47964300528E+03  0.17200000000E+03 0. -1.
         -6    1    1    2    0  503 -0.27350759240E+02 -0.67896618193E+01 -0.59602000046E+02  0.18420250256E+03  0.17200000000E+03 0. -1.
<mgrwt>
<rscale>  2 0.17429333E+03</rscale>
<asrwt>0</asrwt>
<pdfrwt beam="1">  1       21 0.13138729E+00 0.17429333E+03</pdfrwt>
<pdfrwt beam="2">  1       21 0.34574085E-01 0.17429333E+03</pdfrwt>
<totfact> 0.34493472E+03</totfact>
</mgrwt>
</event>
<event>
 4    1  0.1091654E+000  0.2178519E+03  0.7546771E-02  0.1135495E+00
         21   -1    0    0  503  502  0.00000000000E+00  0.00000000000E+00  0.15922545555E+04  0.15922545555E+04  0.00000000000E+00 0.  1.
         21   -1    0    0  501  503 -0.00000000000E+00 -0.00000000000E+00 -0.96286632283E+02  0.96286632283E+02  0.00000000000E+00 0.  1.
          6    1    1    2  501    0  0.66589145378E+02  0.11593677026E+03  0.46456333875E+02  0.22275017382E+03  0.17200000000E+03 0.  1.
         -6    1    1    2    0  502 -0.66589145378E+02 -0.11593677026E+03  0.14495115894E+04  0.14657910140E+04  0.17200000000E+03 0.  1.
<mgrwt>
<rscale>  2 0.21785190E+03</rscale>
<asrwt>0</asrwt>
<pdfrwt beam="1">  1       21 0.39806355E+00 0.21785190E+03</pdfrwt>
<pdfrwt beam="2">  1       21 0.24071663E-01 0.21785190E+03</pdfrwt>
<totfact> 0.13978023E+02</totfact>
</mgrwt>
</event>
<event>
 4    1  0.1091654E+000  0.2765003E+03  0.7546771E-02  0.1097616E+00
         21   -1    0    0  503  502  0.00000000000E+00  0.00000000000E+00  0.27446641954E+03  0.27446641954E+03  0.00000000000E+00 0.  1.
         21   -1    0    0  501  503 -0.00000000000E+00 -0.00000000000E+00 -0.30232817152E+03  0.30232817152E+03  0.00000000000E+00 0.  1.
          6    1    1    2  501    0  0.17492655469E+03 -0.12755043647E+03 -0.94812156010E+02  0.29230422219E+03  0.17200000000E+03 0.  1.
         -6    1    1    2    0  502 -0.17492655469E+03  0.12755043647E+03  0.66950404029E+02  0.28449036887E+03  0.17200000000E+03 0.  1.
<mgrwt>
<rscale>  2 0.27650030E+03</rscale>
<asrwt>0</asrwt>
<pdfrwt beam="1">  1       21 0.68616605E-01 0.27650030E+03</pdfrwt>
<pdfrwt beam="2">  1       21 0.75582042E-01 0.27650030E+03</pdfrwt>
<totfact> 0.28468633E+03</totfact>
</mgrwt>
</event>
<event>
 4    1  0.1091654E+000  0.1798396E+03  0.7546771E-02  0.1167958E+00
         21   -1    0    0  501  502  0.00000000000E+00  0.00000000000E+00  0.98974584607E+02  0.98974584607E+02  0.00000000000E+00 0. -1.
         21   -1    0    0  502  503 -0.00000000000E+00 -0.00000000000E+00 -0.33269827114E+03  0.33269827114E+03  0.00000000000E+00 0.  1.
          6    1    1    2  501    0  0.17630145256E+02  0.49471641129E+02 -0.14566483040E+03  0.23143143286E+03  0.17200000000E+03 0.  1.
         -6    1    1    2    0  503 -0.17630145256E+02 -0.49471641129E+02 -0.88058856127E+02  0.20024142289E+03  0.17200000000E+03 0. -1.
<mgrwt>
<rscale>  2 0.17983955E+03</rscale>
<asrwt>0</asrwt>
<pdfrwt beam="1">  1       21 0.24743646E-01 0.17983955E+03</pdfrwt>
<pdfrwt beam="2">  1       21 0.83174567E-01 0.17983955E+03</pdfrwt>
<totfact> 0.19603231E+04</totfact>
</mgrwt>
</event>
<event>
 4    1  0.1091654E+000  0.1824774E+03  0.7546771E-02  0.1165427E+00
         21   -1    0    0  501  502  0.00000000000E+00  0.00000000000E+00  0.16491872311E+03  0.16491872311E+03  0.00000000000E+00 0.  1.
         21   -1    0    0  502  503 -0.00000000000E+00 -0.00000000000E+00 -0.31479924903E+03  0.31479924903E+03  0.00000000000E+00 0.  1.
          6    1    1    2  501    0 -0.46581279375E+02 -0.39296332722E+02  0.68699229844E+02  0.19498102865E+03  0.17200000000E+03 0.  1.
         -6    1    1    2    0  503  0.46581279375E+02  0.39296332722E+02 -0.21857975576E+03  0.28473694348E+03  0.17200000000E+03 0.  1.
<mgrwt>
<rscale>  2 0.18247744E+03</rscale>
<asrwt>0</asrwt>
<pdfrwt beam="1">  1       21 0.41229681E-01 0.18247744E+03</pdfrwt>
<pdfrwt beam="2">  1       21 0.78699812E-01 0.18247744E+03</pdfrwt>
<totfact> 0.81450736E+03</totfact>
</mgrwt>
</event>
<event>
 4    1  0.1091654E+000  0.1804908E+03  0.7546771E-02  0.1167329E+00
         21   -1    0    0  501  502  0.00000000000E+00  0.00000000000E+00  0.76820198066E+03  0.76820198066E+03  0.00000000000E+00 0.  1.
         21   -1    0    0  502  503 -0.00000000000E+00 -0.00000000000E+00 -0.92463452960E+02  0.92463452960E+02  0.00000000000E+00 0.  1.
          6    1    1    2  501    0  0.41449836517E+01 -0.54550475002E+02  0.65449813439E+03  0.67892911496E+03  0.17200000000E+03 0.  1.
         -6    1    1    2    0  503 -0.41449836517E+01  0.54550475002E+02  0.21240393305E+02  0.18173631866E+03  0.17200000000E+03 0.  1.
<mgrwt>
<rscale>  2 0.18049082E+03</rscale>
<asrwt>0</asrwt>
<pdfrwt beam="1">  1       21 0.19205048E+00 0.18049082E+03</pdfrwt>
<pdfrwt beam="2">  1       21 0.23115866E-01 0.18049082E+03</pdfrwt>
<totfact> 0.26912704E+03</totfact>
</mgrwt>
</event>
<event>
 4    1  0.1091654E+000  0.1905409E+03  0.7546771E-02  0.1157974E+00
         21   -1    0    0  501  502  0.00000000000E+00  0.00000000000E+00  0.83198259997E+02  0.83198259997E+02  0.00000000000E+00 0. -1.
         21   -1    0    0  502  503 -0.00000000000E+00 -0.00000000000E+00 -0.61480628513E+03  0.61480628513E+03  0.00000000000E+00 0. -1.
          6    1    1    2  501    0 -0.89500544737E+01 -0.81496847878E+02 -0.45381866522E+03  0.49219632322E+03  0.17200000000E+03 0. -1.
         -6    1    1    2    0  503  0.89500544737E+01  0.81496847878E+02 -0.77789359915E+02  0.20580822191E+03  0.17200000000E+03 0. -1.
<mgrwt>
<rscale>  2 0.19054091E+03</rscale>
<asrwt>0</asrwt>
<pdfrwt beam="1">  1       21 0.20799565E-01 0.19054091E+03</pdfrwt>
<pdfrwt beam="2">  1       21 0.15370157E+00 0.19054091E+03</pdfrwt>
<totfact> 0.60224242E+03</totfact>
</mgrwt>
</event>
<event>
 4    1  0.1091654E+000  0.2088814E+03  0.7546771E-02  0.1142455E+00
         21   -1    0    0  501  502  0.00000000000E+00  0.00000000000E+00  0.53779865143E+03  0.53779865143E+03  0.00000000000E+00 0. -1.
         21   -1    0    0  502  503 -0.00000000000E+00 -0.00000000000E+00 -0.87321817853E+02  0.87321817853E+02  0.00000000000E+00 0. -1.
          6    1    1    2  501    0  0.12123180561E+02 -0.11790021377E+03  0.14200596532E+03  0.25258092980E+03  0.17200000000E+03 0. -1.
         -6    1    1    2    0  503 -0.12123180561E+02  0.11790021377E+03  0.30847086825E+03  0.37253953948E+03  0.17200000000E+03 0. -1.
<mgrwt>
<rscale>  2 0.20888138E+03</rscale>
<asrwt>0</asrwt>
<pdfrwt beam="1">  1       21 0.13444965E+00 0.20888138E+03</pdfrwt>
<pdfrwt beam="2">  1       21 0.21830456E-01 0.20888138E+03</pdfrwt>
<totfact> 0.76794228E+03</totfact>
</mgrwt>
</event>
<event>
 4    1  0.1091654E+000  0.1752532E+03  0.7546771E-02  0.1172478E+00
         21   -1    0    0  503  502  0.00000000000E+00  0.00000000000E+00  0.24588242192E+03  0.24588242192E+03  0.00000000000E+00 0. -1.
         21   -1    0    0  501  503 -0.00000000000E+00 -0.00000000000E+00 -0.21811845832E+03  0.21811845832E+03  0.00000000000E+00 0. -1.
          6    1    1    2  501    0 -0.32495484240E+02  0.85874632693E+01 -0.13777599625E+03  0.22292583108E+03  0.17200000000E+03 0. -1.
         -6    1    1    2    0  502  0.32495484240E+02 -0.85874632693E+01  0.16553995985E+03  0.24107504916E+03  0.17200000000E+03 0. -1.
<mgrwt>
<rscale>  2 0.17525325E+03</rscale>
<asrwt>0</asrwt>
<pdfrwt beam="1">  1       21 0.61470605E-01 0.17525325E+03</pdfrwt>
<pdfrwt beam="2">  1       21 0.54529615E-01 0.17525325E+03</pdfrwt>
<totfact> 0.79132284E+03</totfact>
</mgrwt>
</event>
<event>
 4    1  0.1091654E+000  0.1760852E+03  0.7546771E-02  0.1171646E+00
         21   -1    0    0  501  502  0.00000000000E+00  0.00000000000E+00  0.49660296197E+03  0.49660296197E+03  0.00000000000E+00 0. -1.
         21   -1    0    0  502  503 -0.00000000000E+00 -0.00000000000E+00 -0.67705814100E+02  0.67705814100E+02  0.00000000000E+00 0. -1.
          6    1    1    2  501    0 -0.19330182937E+02 -0.32378079758E+02  0.29316470076E+03  0.34198177992E+03  0.17200000000E+03 0. -1.
         -6    1    1    2    0  503  0.19330182937E+02  0.32378079758E+02  0.13573244711E+03  0.22232699615E+03  0.17200000000E+03 0. -1.
<mgrwt>
<rscale>  2 0.17608520E+03</rscale>
<asrwt>0</asrwt>
<pdfrwt beam="1">  1       21 0.12415073E+00 0.17608520E+03</pdfrwt>
<pdfrwt beam="2">  1       21 0.16926455E-01 0.17608520E+03</pdfrwt>
<totfact> 0.15432400E+04</totfact>
</mgrwt>
</event>
<event>
 4    1  0.1091654E+000  0.1740500E+03  0.7546771E-02  0.1173689E+00
         21   -1    0    0  501  502  0.00000000000E+00  0.00000000000E+00  0.69725878028E+03  0.69725878028E+03  0.00000000000E+00 0.  1.
         21   -1    0    0  502  503 -0.00000000000E+00 -0.00000000000E+00 -0.43921142326E+02  0.43921142326E+02  0.00000000000E+00 0. -1.
          6    1    1    2  501    0  0.72271695104E+01  0.25635479694E+02  0.36519613945E+03  0.40455114642E+03  0.17200000000E+03 0. -1.
         -6    1    1    2    0  503 -0.72271695104E+01 -0.25635479694E+02  0.28814149851E+03  0.33662877619E+03  0.17200000000E+03 0.  1.
<mgrwt>
<rscale>  2 0.17405002E+03</rscale>
<asrwt>0</asrwt>
<pdfrwt beam="1">  1       21 0.17431466E+00 0.17405002E+03</pdfrwt>
<pdfrwt beam="2">  1       21 0.10980288E-01 0.17405002E+03</pdfrwt>
<totfact> 0.13887093E+04</totfact>
</mgrwt>
</event>
<event>
 4    1  0.1091654E+000  0.3267809E+03  0.7546771E-02  0.1072570E+00
         21   -1    0    0  503  502  0.00000000000E+00  0.00000000000E+00  0.40713731579E+03  0.40713731579E+03  0.00000000000E+00 0.  1.
         21   -1    0    0  501  503 -0.00000000000E+00 -0.00000000000E+00 -0.30482862054E+03  0.30482862054E+03  0.00000000000E+00 0.  1.
          6    1    1    2  501    0  0.27398905903E+03  0.46171215112E+02 -0.81836390729E+02  0.33687235033E+03  0.17200000000E+03 0.  1.
         -6    1    1    2    0  502 -0.27398905903E+03 -0.46171215112E+02  0.18414508598E+03  0.37509358600E+03  0.17200000000E+03 0.  1.
<mgrwt>
<rscale>  2 0.32678094E+03</rscale>
<asrwt>0</asrwt>
<pdfrwt beam="1">  1       21 0.10178433E+00 0.32678094E+03</pdfrwt>
<pdfrwt beam="2">  1       21 0.76207155E-01 0.32678094E+03</pdfrwt>
<totfact> 0.10905395E+03</totfact>
</mgrwt>
</event>
<event>
 4    1  0.1091654E+000  0.1857565E+03  0.7546771E-02  0.1162345E+00
         21   -1    0    0  503  502  0.00000000000E+00  0.00000000000E+00  0.51169315655E+03  0.51169315655E+03  0.00000000000E+00 0.  1.
         21   -1    0    0  501  503 -0.00000000000E+00 -0.00000000000E+00 -0.11306219547E+03  0.11306219547E+03  0.00000000000E+00 0.  1.
          6    1    1    2  501    0 -0.54721647771E+02 -0.43897686554E+02  0.87128491444E+00  0.18575851194E+03  0.17200000000E+03 0.  1.
         -6    1    1    2    0  502  0.54721647771E+02  0.43897686554E+02  0.39775967616E+03  0.43899684008E+03  0.17200000000E+03 0.  1.
<mgrwt>
<rscale>  2 0.18575647E+03</rscale>
<asrwt>0</asrwt>
<pdfrwt beam="1">  1       21 0.12792328E+00 0.18575647E+03</pdfrwt>
<pdfrwt beam="2">  1       21 0.28265550E-01 0.18575647E+03</pdfrwt>
<totfact> 0.54153693E+03</totfact>
</mgrwt>
</event>
<event>
 4    1  0.1091654E+000  0.1981507E+03  0.7546771E-02  0.1151309E+00
         21   -1    0    0  503  502  0.00000000000E+00  0.00000000000E+00  0.13248057479E+04  0.13248057479E+04  0.00000000000E+00 0.  1.
         21   -1    0    0  501  503 -0.00000000000E+00 -0.00000000000E+00 -0.53896174050E+02  0.53896174050E+02  0.00000000000E+00 0. -1.
          6    1    1    2  501    0 -0.95282179328E+02  0.24515094885E+02  0.17297089199E+03  0.26302587905E+03  0.17200000000E+03 0. -1.
         -6    1    1    2    0  502  0.95282179328E+02 -0.24515094885E+02  0.10979386819E+04  0.11156760429E+04  0.17200000000E+03 0.  1.
<mgrwt>
<rscale>  2 0.19815066E+03</rscale>
<asrwt>0</asrwt>
<pdfrwt beam="1">  1       21 0.33120133E+00 0.19815066E+03</pdfrwt>
<pdfrwt beam="2">  1       21 0.13474048E-01 0.19815066E+03</pdfrwt>
<totfact> 0.10656012E+03</totfact>
</mgrwt>
</event>
<event>
 4    1  0.1091654E+000  0.1811362E+03  0.7546771E-02  0.1166708E+00
         21   -1    0    0  503  502  0.00000000000E+00  0.00000000000E+00  0.19100719591E+03  0.19100719591E+03  0.00000000000E+00 0.  1.
         21   -1    0    0  501  503 -0.00000000000E+00 -0.00000000000E+00 -0.18255373489E+03  0.18255373489E+03  0.00000000000E+00 0.  1.
          6    1    1    2  501    0 -0.56453316746E+02  0.62726514700E+01 -0.41158384707E+02  0.18575342732E+03  0.17200000000E+03 0.  1.
         -6    1    1    2    0  502  0.56453316746E+02 -0.62726514700E+01  0.49611845720E+02  0.18780750348E+03  0.17200000000E+03 0.  1.
<mgrwt>
<rscale>  2 0.18113620E+03</rscale>
<asrwt>0</asrwt>
<pdfrwt beam="1">  1       21 0.47751799E-01 0.18113620E+03</pdfrwt>
<pdfrwt beam="2">  1       21 0.45638434E-01 0.18113620E+03</pdfrwt>
<totfact> 0.19434193E+04</totfact>
</mgrwt>
</event>
<event>
 4    1  0.1091654E+000  0.1807656E+03  0.7546771E-02  0.1167064E+00
         21   -1    0    0  501  502  0.00000000000E+00  0.00000000000E+00  0.62311287938E+03  0.62311287938E+03  0.00000000000E+00 0. -1.
         21   -1    0    0  502  503 -0.00000000000E+00 -0.00000000000E+00 -0.56461374177E+02  0.56461374177E+02  0.00000000000E+00 0. -1.
          6    1    1    2  501    0  0.12634566405E+02 -0.54153326989E+02  0.37400402038E+03  0.41539766772E+03  0.17200000000E+03 0. -1.
         -6    1    1    2    0  503 -0.12634566405E+02  0.54153326989E+02  0.19264748482E+03  0.26417658583E+03  0.17200000000E+03 0. -1.
<mgrwt>
<rscale>  2 0.18076564E+03</rscale>
<asrwt>0</asrwt>
<pdfrwt beam="1">  1       21 0.15577820E+00 0.18076564E+03</pdfrwt>
<pdfrwt beam="2">  1       21 0.14115345E-01 0.18076564E+03</pdfrwt>
<totfact> 0.11953722E+04</totfact>
</mgrwt>
</event>
<event>
 4    1  0.1091654E+000  0.2188243E+03  0.7546771E-02  0.1134763E+00
         21   -1    0    0  503  502  0.00000000000E+00  0.00000000000E+00  0.33622216709E+03  0.33622216709E+03  0.00000000000E+00 0. -1.
         21   -1    0    0  501  503 -0.00000000000E+00 -0.00000000000E+00 -0.18098497226E+03  0.18098497226E+03  0.00000000000E+00 0. -1.
          6    1    1    2  501    0  0.13521859237E+03  0.39993387299E+01 -0.41758624623E+02  0.22277307998E+03  0.17200000000E+03 0. -1.
         -6    1    1    2    0  502 -0.13521859237E+03 -0.39993387299E+01  0.19699581946E+03  0.29443405937E+03  0.17200000000E+03 0. -1.
<mgrwt>
<rscale>  2 0.21882427E+03</rscale>
<asrwt>0</asrwt>
<pdfrwt beam="1">  1       21 0.84055541E-01 0.21882427E+03</pdfrwt>
<pdfrwt beam="2">  1       21 0.45246244E-01 0.21882427E+03</pdfrwt>
<totfact> 0.56490942E+03</totfact>
</mgrwt>
</event>
<event>
 4    1  0.1091654E+000  0.3250623E+03  0.7546771E-02  0.1073343E+00
         21   -1    0    0  503  502  0.00000000000E+00  0.00000000000E+00  0.30205295793E+03  0.30205295793E+03  0.00000000000E+00 0. -1.
         21   -1    0    0  501  503 -0.00000000000E+00 -0.00000000000E+00 -0.49023270928E+03  0.49023270928E+03  0.00000000000E+00 0.  1.
          6    1    1    2  501    0  0.19799970563E+03 -0.19203551254E+03 -0.30609527879E+03  0.44649730257E+03  0.17200000000E+03 0.  1.
         -6    1    1    2    0  502 -0.19799970563E+03  0.19203551254E+03  0.11791552744E+03  0.34578836463E+03  0.17200000000E+03 0. -1.
<mgrwt>
<rscale>  2 0.32506233E+03</rscale>
<asrwt>0</asrwt>
<pdfrwt beam="1">  1       21 0.75513240E-01 0.32506233E+03</pdfrwt>
<pdfrwt beam="2">  1       21 0.12255818E+00 0.32506233E+03</pdfrwt>
<totfact> 0.70441739E+02</totfact>
</mgrwt>
</event>
<event>
 4    1  0.1091654E+000  0.1752731E+03  0.7546771E-02  0.1172458E+00
         21   -1    0    0  501  502  0.00000000000E+00  0.00000000000E+00  0.18479436485E+03  0.18479436485E+03  0.00000000000E+00 0.  1.
         21   -1    0    0  502  503 -0.00000000000E+00 -0.00000000000E+00 -0.87534437886E+03  0.87534437886E+03  0.00000000000E+00 0.  1.
          6    1    1    2  501    0 -0.15290426394E+02  0.30047800903E+02  0.13181198048E+03  0.21930587242E+03  0.17200000000E+03 0.  1.
         -6    1    1    2    0  503  0.15290426394E+02 -0.30047800903E+02 -0.82236199449E+03  0.84083287130E+03  0.17200000000E+03 0.  1.
<mgrwt>
<rscale>  2 0.17527312E+03</rscale>
<asrwt>0</asrwt>
<pdfrwt beam="1">  1       21 0.46198592E-01 0.17527312E+03</pdfrwt>
<pdfrwt beam="2">  1       21 0.21883609E+00 0.17527312E+03</pdfrwt>
<totfact> 0.46978270E+02</totfact>
</mgrwt>
</event>
<event>
 4    1  0.1091654E+000  0.2131150E+03  0.7546771E-02  0.1139123E+00
         21   -1    0    0  503  502  0.00000000000E+00  0.00000000000E+00  0.13685511466E+04  0.13685511466E+04  0.00000000000E+00 0. -1.
         21   -1    0    0  501  503 -0.00000000000E+00 -0.00000000000E+00 -0.36465045528E+02  0.36465045528E+02  0.00000000000E+00 0. -1.
          6    1    1    2  501    0  0.17227917024E+02  0.12464833828E+03  0.45541065579E+03  0.50280898437E+03  0.17200000000E+03 0. -1.
         -6    1    1    2    0  502 -0.17227917024E+02 -0.12464833828E+03  0.87667544524E+03  0.90220720772E+03  0.17200000000E+03 0. -1.
<mgrwt>
<rscale>  2 0.21311501E+03</rscale>
<asrwt>0</asrwt>
<pdfrwt beam="1">  1       21 0.34213761E+00 0.21311501E+03</pdfrwt>
<pdfrwt beam="2">  1       21 0.91162660E-02 0.21311501E+03</pdfrwt>
<totfact> 0.18086581E+03</totfact>
</mgrwt>
</event>
<event>
 4    1  0.1091654E+000  0.2541158E+03  0.7546771E-02  0.1110731E+00
         21   -1    0    0  501  502  0.00000000000E+00  0.00000000000E+00  0.18960185664E+03  0.18960185664E+03  0.00000000000E+00 0.  1.
         21   -1    0    0  502  503 -0.00000000000E+00 -0.00000000000E+00 -0.49641093310E+03  0.49641093310E+03  0.00000000000E+00 0. -1.
          6    1    1    2  501    0  0.13734676922E+03  0.12699096003E+03  0.38774771811E+02  0.25705704011E+03  0.17200000000E+03 0.  1.
         -6    1    1    2    0  503 -0.13734676922E+03 -0.12699096003E+03 -0.34558384827E+03  0.42895574962E+03  0.17200000000E+03 0. -1.
<mgrwt>
<rscale>  2 0.25411580E+03</rscale>
<asrwt>0</asrwt>
<pdfrwt beam="1">  1       21 0.47400464E-01 0.25411580E+03</pdfrwt>
<pdfrwt beam="2">  1       21 0.12410273E+00 0.25411580E+03</pdfrwt>
<totfact> 0.19654775E+03</totfact>
</mgrwt>
</event>
<event>
 4    1  0.1091654E+000  0.1897857E+03  0.7546771E-02  0.1158655E+00
         21   -1    0    0  501  502  0.00000000000E+00  0.00000000000E+00  0.10229072559E+04  0.10229072559E+04  0.00000000000E+00 0. -1.
         21   -1    0    0  502  503 -0.00000000000E+00 -0.00000000000E+00 -0.52996361282E+02  0.52996361282E+02  0.00000000000E+00 0. -1.
          6    1    1    2  501    0  0.51162963344E+02 -0.61781692804E+02  0.79658546912E+03  0.81888157629E+03  0.17200000000E+03 0.  1.
         -6    1    1    2    0  503 -0.51162963344E+02  0.61781692804E+02  0.17332542554E+03  0.25702204093E+03  0.17200000000E+03 0.  1.
<mgrwt>
<rscale>  2 0.18978574E+03</rscale>
<asrwt>0</asrwt>
<pdfrwt beam="1">  1       21 0.25572675E+00 0.18978574E+03</pdfrwt>
<pdfrwt beam="2">  1       21 0.13249094E-01 0.18978574E+03</pdfrwt>
<totfact> 0.30329290E+03</totfact>
</mgrwt>
</event>
<event>
 4    1  0.1091654E+000  0.2755494E+03  0.7546771E-02  0.1098145E+00
         21   -1    0    0  503  502  0.00000000000E+00  0.00000000000E+00  0.31671804479E+03  0.31671804479E+03  0.00000000000E+00 0.  1.
         21   -1    0    0  501  503 -0.00000000000E+00 -0.00000000000E+00 -0.23974346072E+03  0.23974346072E+03  0.00000000000E+00 0. -1.
          6    1    1    2  501    0  0.11521279767E+03 -0.18185023098E+03  0.40399047899E+02  0.27849520341E+03  0.17200000000E+03 0.  1.
         -6    1    1    2    0  502 -0.11521279767E+03  0.18185023098E+03  0.36575536179E+02  0.27796630209E+03  0.17200000000E+03 0. -1.
<mgrwt>
<rscale>  2 0.27554944E+03</rscale>
<asrwt>0</asrwt>
<pdfrwt beam="1">  1       21 0.79179511E-01 0.27554944E+03</pdfrwt>
<pdfrwt beam="2">  1       21 0.59935865E-01 0.27554944E+03</pdfrwt>
<totfact> 0.34480290E+03</totfact>
</mgrwt>
</event>
<event>
 4    1  0.1091654E+000  0.1784348E+03  0.7546771E-02  0.1169326E+00
         21   -1    0    0  503  502  0.00000000000E+00  0.00000000000E+00  0.27113906604E+03  0.27113906604E+03  0.00000000000E+00 0.  1.
         21   -1    0    0  501  503 -0.00000000000E+00 -0.00000000000E+00 -0.16823346826E+03  0.16823346826E+03  0.00000000000E+00 0.  1.
          6    1    1    2  501    0  0.27440373418E+02 -0.38755807680E+02 -0.69274967442E+02  0.19141057399E+03  0.17200000000E+03 0.  1.
         -6    1    1    2    0  502 -0.27440373418E+02  0.38755807680E+02  0.17218056522E+03  0.24796196031E+03  0.17200000000E+03 0.  1.
<mgrwt>
<rscale>  2 0.17843482E+03</rscale>
<asrwt>0</asrwt>
<pdfrwt beam="1">  1       21 0.67784766E-01 0.17843482E+03</pdfrwt>
<pdfrwt beam="2">  1       21 0.42058367E-01 0.17843482E+03</pdfrwt>
<totfact> 0.10925876E+04</totfact>
</mgrwt>
</event>
<event>
 4    1  0.1091654E+000  0.3234951E+03  0.7546771E-02  0.1074052E+00
         21   -1    0    0  503  502  0.00000000000E+00  0.00000000000E+00  0.22004963696E+03  0.22004963696E+03  0.00000000000E+00 0.  1.
         21   -1    0    0  501  503 -0.00000000000E+00 -0.00000000000E+00 -0.74812161655E+03  0.74812161655E+03  0.00000000000E+00 0. -1.
          6    1    1    2  501    0  0.20526164296E+03  0.18147383277E+03 -0.55622249097E+03  0.64345361411E+03  0.17200000000E+03 0. -1.
         -6    1    1    2    0  502 -0.20526164296E+03 -0.18147383277E+03  0.28150511377E+02  0.32471763941E+03  0.17200000000E+03 0.  1.
<mgrwt>
<rscale>  2 0.32349512E+03</rscale>
<asrwt>0</asrwt>
<pdfrwt beam="1">  1       21 0.55012410E-01 0.32349512E+03</pdfrwt>
<pdfrwt beam="2">  1       21 0.18703040E+00 0.32349512E+03</pdfrwt>
<totfact> 0.45110842E+02</totfact>
</mgrwt>
</event>
<event>
 4    1  0.1091654E+000  0.1788808E+03  0.7546771E-02  0.1168891E+00
         21   -1    0    0  501  502  0.00000000000E+00  0.00000000000E+00  0.95901342388E+02  0.95901342388E+02  0.00000000000E+00 0.  1.
         21   -1    0    0  502  503 -0.00000000000E+00 -0.00000000000E+00 -0.70517720719E+03  0.70517720719E+03  0.00000000000E+00 0.  1.
          6    1    1    2  501    0 -0.24325423269E+02 -0.42692131922E+02 -0.13910485037E+02  0.17942086261E+03  0.17200000000E+03 0.  1.
         -6    1    1    2    0  503  0.24325423269E+02  0.42692131922E+02 -0.59536537977E+03  0.62165768697E+03  0.17200000000E+03 0.  1.
<mgrwt>
<rscale>  2 0.17888081E+03</rscale>
<asrwt>0</asrwt>
<pdfrwt beam="1">  1       21 0.23975336E-01 0.17888081E+03</pdfrwt>
<pdfrwt beam="2">  1       21 0.17629430E+00 0.17888081E+03</pdfrwt>
<totfact> 0.32067944E+03</totfact>
</mgrwt>
</event>
<event>
 4    1  0.1091654E+000  0.2037674E+03  0.7546771E-02  0.1146599E+00
         21   -1    0    0  501  502  0.00000000000E+00  0.00000000000E+00  0.15503772482E+03  0.15503772482E+03  0.00000000000E+00 0. -1.
         21   -1    0    0  502  503 -0.00000000000E+00 -0.00000000000E+00 -0.40824136541E+03  0.40824136541E+03  0.00000000000E+00 0. -1.
          6    1    1    2  501    0 -0.94517557792E+02 -0.54804829050E+02  0.38580040022E+02  0.20738745745E+03  0.17200000000E+03 0. -1.
         -6    1    1    2    0  503  0.94517557792E+02  0.54804829050E+02 -0.29178368061E+03  0.35589163279E+03  0.17200000000E+03 0. -1.
<mgrwt>
<rscale>  2 0.20376736E+03</rscale>
<asrwt>0</asrwt>
<pdfrwt beam="1">  1       21 0.38759431E-01 0.20376736E+03</pdfrwt>
<pdfrwt beam="2">  1       21 0.10206034E+00 0.20376736E+03</pdfrwt>
<totfact> 0.49754282E+03</totfact>
</mgrwt>
</event>
<event>
 4    1  0.1091654E+000  0.1835737E+03  0.7546771E-02  0.1164389E+00
         21   -1    0    0  503  502  0.00000000000E+00  0.00000000000E+00  0.37722896351E+03  0.37722896351E+03  0.00000000000E+00 0. -1.
         21   -1    0    0  501  503 -0.00000000000E+00 -0.00000000000E+00 -0.28638516611E+03  0.28638516611E+03  0.00000000000E+00 0. -1.
          6    1    1    2  501    0 -0.92072217953E+01  0.63486347001E+02 -0.22981085573E+03  0.29412976490E+03  0.17200000000E+03 0. -1.
         -6    1    1    2    0  502  0.92072217953E+01 -0.63486347001E+02  0.32065465314E+03  0.36948436471E+03  0.17200000000E+03 0. -1.
<mgrwt>
<rscale>  2 0.18357366E+03</rscale>
<asrwt>0</asrwt>
<pdfrwt beam="1">  1       21 0.94307241E-01 0.18357366E+03</pdfrwt>
<pdfrwt beam="2">  1       21 0.71596292E-01 0.18357366E+03</pdfrwt>
<totfact> 0.16756359E+03</totfact>
</mgrwt>
</event>
<event>
 4    1  0.1091654E+000  0.3129290E+03  0.7546771E-02  0.1078950E+00
         21   -1    0    0  503  502  0.00000000000E+00  0.00000000000E+00  0.13731143446E+04  0.13731143446E+04  0.00000000000E+00 0. -1.
         21   -1    0    0  501  503 -0.00000000000E+00 -0.00000000000E+00 -0.11495184944E+03  0.11495184944E+03  0.00000000000E+00 0. -1.
          6    1    1    2  501    0 -0.22673021607E+03 -0.13013066875E+03  0.17066754788E+03  0.35644353512E+03  0.17200000000E+03 0. -1.
         -6    1    1    2    0  502  0.22673021607E+03  0.13013066875E+03  0.10874949473E+04  0.11316226589E+04  0.17200000000E+03 0. -1.
<mgrwt>
<rscale>  2 0.31292904E+03</rscale>
<asrwt>0</asrwt>
<pdfrwt beam="1">  1       21 0.34327853E+00 0.31292904E+03</pdfrwt>
<pdfrwt beam="2">  1       21 0.28737967E-01 0.31292904E+03</pdfrwt>
<totfact> 0.19066433E+02</totfact>
</mgrwt>
</event>
<event>
 4    1  0.1091654E+000  0.1826241E+03  0.7546771E-02  0.1165287E+00
         21   -1    0    0  503  502  0.00000000000E+00  0.00000000000E+00  0.30444861769E+03  0.30444861769E+03  0.00000000000E+00 0. -1.
         21   -1    0    0  501  503 -0.00000000000E+00 -0.00000000000E+00 -0.70676250149E+03  0.70676250149E+03  0.00000000000E+00 0.  1.
          6    1    1    2  501    0  0.24527686203E+02  0.56266663012E+02 -0.66592951661E+03  0.69051695551E+03  0.17200000000E+03 0.  1.
         -6    1    1    2    0  502 -0.24527686203E+02 -0.56266663012E+02  0.26361563280E+03  0.32069416367E+03  0.17200000000E+03 0. -1.
<mgrwt>
<rscale>  2 0.18262405E+03</rscale>
<asrwt>0</asrwt>
<pdfrwt beam="1">  1       21 0.76112155E-01 0.18262405E+03</pdfrwt>
<pdfrwt beam="2">  1       21 0.17669062E+00 0.18262405E+03</pdfrwt>
<totfact> 0.29875442E+02</totfact>
</mgrwt>
</event>
<event>
 4    1  0.1091654E+000  0.1736156E+03  0.7546771E-02  0.1174129E+00
         21   -1    0    0  501  502  0.00000000000E+00  0.00000000000E+00  0.40651840280E+02  0.40651840280E+02  0.00000000000E+00 0.  1.
         21   -1    0    0  502  503 -0.00000000000E+00 -0.00000000000E+00 -0.12260260832E+04  0.12260260832E+04  0.00000000000E+00 0.  1.
          6    1    1    2  501    0 -0.16533814430E+02  0.16881777160E+02 -0.19452887527E+03  0.26073711806E+03  0.17200000000E+03 0.  1.
         -6    1    1    2    0  503  0.16533814430E+02 -0.16881777160E+02 -0.99084536767E+03  0.10059408054E+04  0.17200000000E+03 0.  1.
<mgrwt>
<rscale>  2 0.17361556E+03</rscale>
<asrwt>0</asrwt>
<pdfrwt beam="1">  1       21 0.10162960E-01 0.17361556E+03</pdfrwt>
<pdfrwt beam="2">  1       21 0.30650654E+00 0.17361556E+03</pdfrwt>
<totfact> 0.25322430E+03</totfact>
</mgrwt>
</event>
<event>
 4    1  0.1091654E+000  0.1975987E+03  0.7546771E-02  0.1151781E+00
         21   -1    0    0  503  502  0.00000000000E+00  0.00000000000E+00  0.14903202063E+03  0.14903202063E+03  0.00000000000E+00 0.  1.
         21   -1    0    0  501  503 -0.00000000000E+00 -0.00000000000E+00 -0.10817821137E+04  0.10817821137E+04  0.00000000000E+00 0.  1.
          6    1    1    2  501    0 -0.21276359010E+01 -0.97245656590E+02 -0.10021024169E+04  0.10213983055E+04  0.17200000000E+03 0.  1.
         -6    1    1    2    0  502  0.21276359010E+01  0.97245656590E+02  0.69352323791E+02  0.20941582886E+03  0.17200000000E+03 0.  1.
<mgrwt>
<rscale>  2 0.19759870E+03</rscale>
<asrwt>0</asrwt>
<pdfrwt beam="1">  1       21 0.37258005E-01 0.19759870E+03</pdfrwt>
<pdfrwt beam="2">  1       21 0.27044553E+00 0.19759870E+03</pdfrwt>
<totfact> 0.34866276E+02</totfact>
</mgrwt>
</event>
<event>
 4    1  0.1091654E+000  0.1761303E+03  0.7546771E-02  0.1171602E+00
         21   -1    0    0  503  502  0.00000000000E+00  0.00000000000E+00  0.42211980950E+03  0.42211980950E+03  0.00000000000E+00 0.  1.
         21   -1    0    0  501  503 -0.00000000000E+00 -0.00000000000E+00 -0.74866854415E+02  0.74866854415E+02  0.00000000000E+00 0.  1.
          6    1    1    2  501    0 -0.87355796472E+01 -0.36899699343E+02  0.13993680059E+03  0.22495378708E+03  0.17200000000E+03 0.  1.
         -6    1    1    2    0  502  0.87355796472E+01  0.36899699343E+02  0.20731615449E+03  0.27203287683E+03  0.17200000000E+03 0.  1.
<mgrwt>
<rscale>  2 0.17613034E+03</rscale>
<asrwt>0</asrwt>
<pdfrwt beam="1">  1       21 0.10552995E+00 0.17613034E+03</pdfrwt>
<pdfrwt beam="2">  1       21 0.18716715E-01 0.17613034E+03</pdfrwt>
<totfact> 0.19051196E+04</totfact>
</mgrwt>
</event>
<event>
 4    1  0.1091654E+000  0.1931497E+03  0.7546771E-02  0.1155651E+00
         21   -1    0    0  503  502  0.00000000000E+00  0.00000000000E+00  0.18403608404E+03  0.18403608404E+03  0.00000000000E+00 0.  1.
         21   -1    0    0  501  503 -0.00000000000E+00 -0.00000000000E+00 -0.38807307707E+03  0.38807307707E+03  0.00000000000E+00 0.  1.
          6    1    1    2  501    0  0.33293598528E+02 -0.81328668194E+02 -0.29971467817E+03  0.35656094049E+03  0.17200000000E+03 0.  1.
         -6    1    1    2    0  502 -0.33293598528E+02  0.81328668194E+02  0.95677685148E+02  0.21554822061E+03  0.17200000000E+03 0.  1.
<mgrwt>
<rscale>  2 0.19314972E+03</rscale>
<asrwt>0</asrwt>
<pdfrwt beam="1">  1       21 0.46009021E-01 0.19314972E+03</pdfrwt>
<pdfrwt beam="2">  1       21 0.97018268E-01 0.19314972E+03</pdfrwt>
<totfact> 0.39907014E+03</totfact>
</mgrwt>
</event>
<event>
 4    1  0.1091654E+000  0.1875380E+03  0.7546771E-02  0.1160701E+00
         21   -1    0    0  501  502  0.00000000000E+00  0.00000000000E+00  0.88732446483E+02  0.88732446483E+02  0.00000000000E+00 0. -1.
         21   -1    0    0  502  503 -0.00000000000E+00 -0.00000000000E+00 -0.46179995586E+03  0.46179995586E+03  0.00000000000E+00 0. -1.
          6    1    1    2  501    0 -0.74069854212E+02 -0.10007316351E+02 -0.82917270860E+02  0.20505063641E+03  0.17200000000E+03 0. -1.
         -6    1    1    2    0  503  0.74069854212E+02  0.10007316351E+02 -0.29015023852E+03  0.34548176594E+03  0.17200000000E+03 0. -1.
<mgrwt>
<rscale>  2 0.18753797E+03</rscale>
<asrwt>0</asrwt>
<pdfrwt beam="1">  1       21 0.22183112E-01 0.18753797E+03</pdfrwt>
<pdfrwt beam="2">  1       21 0.11544999E+00 0.18753797E+03</pdfrwt>
<totfact> 0.11075393E+04</totfact>
</mgrwt>
</event>
<event>
 4    1  0.1091654E+000  0.1973337E+03  0.7546771E-02  0.1152008E+00
         21   -1    0    0  501  502  0.00000000000E+00  0.00000000000E+00  0.83150906027E+02  0.83150906027E+02  0.00000000000E+00 0.  1.
         21   -1    0    0  502  503 -0.00000000000E+00 -0.00000000000E+00 -0.46837152374E+03  0.46837152374E+03  0.00000000000E+00 0. -1.
          6    1    1    2  501    0 -0.10961991454E+02 -0.96106387763E+02 -0.19570773745E+03  0.27792466879E+03  0.17200000000E+03 0. -1.
         -6    1    1    2    0  503  0.10961991454E+02  0.96106387763E+02 -0.18951288027E+03  0.27359776098E+03  0.17200000000E+03 0.  1.
<mgrwt>
<rscale>  2 0.19733374E+03</rscale>
<asrwt>0</asrwt>
<pdfrwt beam="1">  1       21 0.20787727E-01 0.19733374E+03</pdfrwt>
<pdfrwt beam="2">  1       21 0.11709288E+00 0.19733374E+03</pdfrwt>
<totfact> 0.12007280E+04</totfact>
</mgrwt>
</event>
<event>
 4    1  0.1091654E+000  0.1987697E+03  0.7546771E-02  0.1150781E+00
         21   -1    0    0  503  502  0.00000000000E+00  0.00000000000E+00  0.11883658576E+03  0.11883658576E+03  0.00000000000E+00 0. -1.
         21   -1    0    0  501  503 -0.00000000000E+00 -0.00000000000E+00 -0.34848734813E+03  0.34848734813E+03  0.00000000000E+00 0. -1.
          6    1    1    2  501    0  0.41232918283E+02  0.90693139455E+02 -0.16492249525E+03  0.25828052295E+03  0.17200000000E+03 0.  1.
         -6    1    1    2    0  502 -0.41232918283E+02 -0.90693139455E+02 -0.64728267121E+02  0.20904341094E+03  0.17200000000E+03 0.  1.
<mgrwt>
<rscale>  2 0.19876971E+03</rscale>
<asrwt>0</asrwt>
<pdfrwt beam="1">  1       21 0.29709147E-01 0.19876971E+03</pdfrwt>
<pdfrwt beam="2">  1       21 0.87121836E-01 0.19876971E+03</pdfrwt>
<totfact> 0.12247442E+04</totfact>
</mgrwt>
</event>
<event>
 4    1  0.1091654E+000  0.2173453E+03  0.7546771E-02  0.1135878E+00
         21   -1    0    0  501  502  0.00000000000E+00  0.00000000000E+00  0.22521427132E+03  0.22521427132E+03  0.00000000000E+00 0.  1.
         21   -1    0    0  502  503 -0.00000000000E+00 -0.00000000000E+00 -0.32519614452E+03  0.32519614452E+03  0.00000000000E+00 0.  1.
          6    1    1    2  501    0 -0.12864833463E+03 -0.33235473254E+02  0.11398162758E+03  0.24541964492E+03  0.17200000000E+03 0.  1.
         -6    1    1    2    0  503  0.12864833463E+03  0.33235473254E+02 -0.21396350078E+03  0.30499077093E+03  0.17200000000E+03 0.  1.
<mgrwt>
<rscale>  2 0.21734533E+03</rscale>
<asrwt>0</asrwt>
<pdfrwt beam="1">  1       21 0.56303568E-01 0.21734533E+03</pdfrwt>
<pdfrwt beam="2">  1       21 0.81299036E-01 0.21734533E+03</pdfrwt>
<totfact> 0.38599165E+03</totfact>
</mgrwt>
</event>
<event>
 4    1  0.1091654E+000  0.1760241E+03  0.7546771E-02  0.1171707E+00
         21   -1    0    0  503  502  0.00000000000E+00  0.00000000000E+00  0.20366790300E+03  0.20366790300E+03  0.00000000000E+00 0.  1.
         21   -1    0    0  501  503 -0.00000000000E+00 -0.00000000000E+00 -0.31146931989E+03  0.31146931989E+03  0.00000000000E+00 0.  1.
          6    1    1    2  501    0  0.31510940567E+02 -0.20188000188E+02 -0.23812354107E+03  0.29612044093E+03  0.17200000000E+03 0.  1.
         -6    1    1    2    0  502 -0.31510940567E+02  0.20188000188E+02  0.13032212418E+03  0.21901678196E+03  0.17200000000E+03 0.  1.
<mgrwt>
<rscale>  2 0.17602413E+03</rscale>
<asrwt>0</asrwt>
<pdfrwt beam="1">  1       21 0.50916976E-01 0.17602413E+03</pdfrwt>
<pdfrwt beam="2">  1       21 0.77867330E-01 0.17602413E+03</pdfrwt>
<totfact> 0.54333735E+03</totfact>
</mgrwt>
</event>
<event>
 4    1  0.1091654E+000  0.1928367E+03  0.7546771E-02  0.1155927E+00
         21   -1    0    0  503  502  0.00000000000E+00  0.00000000000E+00  0.41024556781E+03  0.41024556781E+03  0.00000000000E+00 0. -1.
         21   -1    0    0  501  503 -0.00000000000E+00 -0.00000000000E+00 -0.15082472434E+03  0.15082472434E+03  0.00000000000E+00 0.  1.
          6    1    1    2  501    0 -0.86341738941E+02  0.12128534713E+02 -0.47497188919E+02  0.19860005084E+03  0.17200000000E+03 0.  1.
         -6    1    1    2    0  502  0.86341738941E+02 -0.12128534713E+02  0.30691803239E+03  0.36247024132E+03  0.17200000000E+03 0. -1.
<mgrwt>
<rscale>  2 0.19283671E+03</rscale>
<asrwt>0</asrwt>
<pdfrwt beam="1">  1       21 0.10256139E+00 0.19283671E+03</pdfrwt>
<pdfrwt beam="2">  1       21 0.37706182E-01 0.19283671E+03</pdfrwt>
<totfact> 0.52425803E+03</totfact>
</mgrwt>
</event>
<event>
 4    1  0.1091654E+000  0.3200778E+03  0.7546771E-02  0.1075613E+00
         21   -1    0    0  503  502  0.00000000000E+00  0.00000000000E+00  0.23078190973E+03  0.23078190973E+03  0.00000000000E+00 0. -1.
         21   -1    0    0  501  503 -0.00000000000E+00 -0.00000000000E+00 -0.46429074063E+03  0.46429074063E+03  0.00000000000E+00 0.  1.
          6    1    1    2  501    0  0.25841060239E+03  0.78037023975E+02 -0.18954199404E+03  0.37198922571E+03  0.17200000000E+03 0.  1.
         -6    1    1    2    0  502 -0.25841060239E+03 -0.78037023975E+02 -0.43966836852E+02  0.32308342465E+03  0.17200000000E+03 0. -1.
<mgrwt>
<rscale>  2 0.32007783E+03</rscale>
<asrwt>0</asrwt>
<pdfrwt beam="1">  1       21 0.57695478E-01 0.32007783E+03</pdfrwt>
<pdfrwt beam="2">  1       21 0.11607268E+00 0.32007783E+03</pdfrwt>
<totfact> 0.14686538E+03</totfact>
</mgrwt>
</event>
<event>
 4    1  0.1091654E+000  0.1804658E+03  0.7546771E-02  0.1167353E+00
         21   -1    0    0  503  502  0.00000000000E+00  0.00000000000E+00  0.78522453648E+02  0.78522453648E+02  0.00000000000E+00 0.  1.
         21   -1    0    0  501  503 -0.00000000000E+00 -0.00000000000E+00 -0.71663440942E+03  0.71663440942E+03  0.00000000000E+00 0. -1.
          6    1    1    2  501    0  0.43256267019E+01 -0.54453500295E+02 -0.57709646467E+03  0.60465545915E+03  0.17200000000E+03 0. -1.
         -6    1    1    2    0  502 -0.43256267019E+01  0.54453500295E+02 -0.61015491099E+02  0.19050140392E+03  0.17200000000E+03 0.  1.
<mgrwt>
<rscale>  2 0.18046577E+03</rscale>
<asrwt>0</asrwt>
<pdfrwt beam="1">  1       21 0.19630613E-01 0.18046577E+03</pdfrwt>
<pdfrwt beam="2">  1       21 0.17915860E+00 0.18046577E+03</pdfrwt>
<totfact> 0.44565417E+03</totfact>
</mgrwt>
</event>
<event>
 4    1  0.1091654E+000  0.2487490E+03  0.7546771E-02  0.1114098E+00
         21   -1    0    0  501  502  0.00000000000E+00  0.00000000000E+00  0.60337020031E+03  0.60337020031E+03  0.00000000000E+00 0.  1.
         21   -1    0    0  502  503 -0.00000000000E+00 -0.00000000000E+00 -0.10529398646E+03  0.10529398646E+03  0.00000000000E+00 0. -1.
          6    1    1    2  501    0  0.17681910740E+03  0.32047715706E+02  0.30623100863E+03  0.39452944563E+03  0.17200000000E+03 0.  1.
         -6    1    1    2    0  503 -0.17681910740E+03 -0.32047715706E+02  0.19184520523E+03  0.31413474114E+03  0.17200000000E+03 0. -1.
<mgrwt>
<rscale>  2 0.24874898E+03</rscale>
<asrwt>0</asrwt>
<pdfrwt beam="1">  1       21 0.15084254E+00 0.24874898E+03</pdfrwt>
<pdfrwt beam="2">  1       21 0.26323498E-01 0.24874898E+03</pdfrwt>
<totfact> 0.38668919E+03</totfact>
</mgrwt>
</event>
<event>
 4    1  0.1091654E+000  0.1807184E+03  0.7546771E-02  0.1167110E+00
         21   -1    0    0  501  502  0.00000000000E+00  0.00000000000E+00  0.14948295245E+03  0.14948295245E+03  0.00000000000E+00 0. -1.
         21   -1    0    0  502  503 -0.00000000000E+00 -0.00000000000E+00 -0.22765409322E+03  0.22765409322E+03  0.00000000000E+00 0. -1.
          6    1    1    2  501    0  0.54968292108E+02 -0.73221473550E+01 -0.76938417291E+02  0.19641447766E+03  0.17200000000E+03 0. -1.
         -6    1    1    2    0  503 -0.54968292108E+02  0.73221473550E+01 -0.12327234812E+01  0.18072256801E+03  0.17200000000E+03 0. -1.
<mgrwt>
<rscale>  2 0.18071836E+03</rscale>
<asrwt>0</asrwt>
<pdfrwt beam="1">  1       21 0.37370738E-01 0.18071836E+03</pdfrwt>
<pdfrwt beam="2">  1       21 0.56913523E-01 0.18071836E+03</pdfrwt>
<totfact> 0.20175787E+04</totfact>
</mgrwt>
</event>
<event>
 4    1  0.1091654E+000  0.1768492E+03  0.7546771E-02  0.1170888E+00
         21   -1    0    0  503  502  0.00000000000E+00  0.00000000000E+00  0.83611494207E+03  0.83611494207E+03  0.00000000000E+00 0. -1.
         21   -1    0    0  501  503 -0.00000000000E+00 -0.00000000000E+00 -0.39970035804E+02  0.39970035804E+02  0.00000000000E+00 0. -1.
          6    1    1    2  501    0 -0.30829928082E+02  0.27224329104E+02  0.50902002307E+03  0.53886643284E+03  0.17200000000E+03 0. -1.
         -6    1    1    2    0  502  0.30829928082E+02 -0.27224329104E+02  0.28712488320E+03  0.33721854503E+03  0.17200000000E+03 0. -1.
<mgrwt>
<rscale>  2 0.17684923E+03</rscale>
<asrwt>0</asrwt>
<pdfrwt beam="1">  1       21 0.20902868E+00 0.17684923E+03</pdfrwt>
<pdfrwt beam="2">  1       21 0.99925117E-02 0.17684923E+03</pdfrwt>
<totfact> 0.96971061E+03</totfact>
</mgrwt>
</event>
<event>
 4    1  0.1091654E+000  0.2213940E+03  0.7546771E-02  0.1132848E+00
         21   -1    0    0  501  502  0.00000000000E+00  0.00000000000E+00  0.11125105832E+04  0.11125105832E+04  0.00000000000E+00 0. -1.
         21   -1    0    0  502  503 -0.00000000000E+00 -0.00000000000E+00 -0.44112031149E+02  0.44112031149E+02  0.00000000000E+00 0. -1.
          6    1    1    2  501    0 -0.85056489352E+02  0.11043874305E+03  0.55438321678E+03  0.59695567121E+03  0.17200000000E+03 0. -1.
         -6    1    1    2    0  503  0.85056489352E+02 -0.11043874305E+03  0.51401533530E+03  0.55966694316E+03  0.17200000000E+03 0. -1.
<mgrwt>
<rscale>  2 0.22139404E+03</rscale>
<asrwt>0</asrwt>
<pdfrwt beam="1">  1       21 0.27812755E+00 0.22139404E+03</pdfrwt>
<pdfrwt beam="2">  1       21 0.11028011E-01 0.22139404E+03</pdfrwt>
<totfact> 0.30155185E+03</totfact>
</mgrwt>
</event>
<event>
 4    1  0.1091654E+000  0.1814172E+03  0.7546771E-02  0.1166438E+00
         21   -1    0    0  503  502  0.00000000000E+00  0.00000000000E+00  0.41239226337E+03  0.41239226337E+03  0.00000000000E+00 0. -1.
         21   -1    0    0  501  503 -0.00000000000E+00 -0.00000000000E+00 -0.10957804234E+03  0.10957804234E+03  0.00000000000E+00 0. -1.
          6    1    1    2  501    0  0.57582423802E+02  0.35313576697E+01  0.15374296027E+02  0.18206750121E+03  0.17200000000E+03 0. -1.
         -6    1    1    2    0  502 -0.57582423802E+02 -0.35313576697E+01  0.28743992500E+03  0.33990280450E+03  0.17200000000E+03 0. -1.
<mgrwt>
<rscale>  2 0.18141722E+03</rscale>
<asrwt>0</asrwt>
<pdfrwt beam="1">  1       21 0.10309806E+00 0.18141722E+03</pdfrwt>
<pdfrwt beam="2">  1       21 0.27394512E-01 0.18141722E+03</pdfrwt>
<totfact> 0.97795431E+03</totfact>
</mgrwt>
</event>
<event>
 4    1  0.1091654E+000  0.2133589E+03  0.7546771E-02  0.1138933E+00
         21   -1    0    0  501  502  0.00000000000E+00  0.00000000000E+00  0.33324971592E+03  0.33324971592E+03  0.00000000000E+00 0. -1.
         21   -1    0    0  502  503 -0.00000000000E+00 -0.00000000000E+00 -0.14581791943E+03  0.14581791943E+03  0.00000000000E+00 0. -1.
          6    1    1    2  501    0  0.67875045557E+02 -0.10644709189E+03  0.15394012015E+03  0.26309611509E+03  0.17200000000E+03 0. -1.
         -6    1    1    2    0  503 -0.67875045557E+02  0.10644709189E+03  0.33491676348E+02  0.21597152027E+03  0.17200000000E+03 0. -1.
<mgrwt>
<rscale>  2 0.21335886E+03</rscale>
<asrwt>0</asrwt>
<pdfrwt beam="1">  1       21 0.83312428E-01 0.21335886E+03</pdfrwt>
<pdfrwt beam="2">  1       21 0.36454480E-01 0.21335886E+03</pdfrwt>
<totfact> 0.89729452E+03</totfact>
</mgrwt>
</event>
<event>
 4    1  0.1091654E+000  0.1846865E+03  0.7546771E-02  0.1163343E+00
         21   -1    0    0  503  502  0.00000000000E+00  0.00000000000E+00  0.27282903877E+03  0.27282903877E+03  0.00000000000E+00 0.  1.
         21   -1    0    0  501  503 -0.00000000000E+00 -0.00000000000E+00 -0.32552091599E+03  0.32552091599E+03  0.00000000000E+00 0.  1.
          6    1    1    2  501    0  0.72926573108E+01 -0.66872546011E+02 -0.26114365224E+03  0.31985172716E+03  0.17200000000E+03 0.  1.
         -6    1    1    2    0  502 -0.72926573108E+01  0.66872546011E+02  0.20845177503E+03  0.27849822759E+03  0.17200000000E+03 0.  1.
<mgrwt>
<rscale>  2 0.18468655E+03</rscale>
<asrwt>0</asrwt>
<pdfrwt beam="1">  1       21 0.68207260E-01 0.18468655E+03</pdfrwt>
<pdfrwt beam="2">  1       21 0.81380229E-01 0.18468655E+03</pdfrwt>
<totfact> 0.26138705E+03</totfact>
</mgrwt>
</event>
<event>
 4    1  0.1091654E+000  0.1771490E+03  0.7546771E-02  0.1170591E+00
         21   -1    0    0  501  502  0.00000000000E+00  0.00000000000E+00  0.11595244783E+03  0.11595244783E+03  0.00000000000E+00 0. -1.
         21   -1    0    0  502  503 -0.00000000000E+00 -0.00000000000E+00 -0.31546707866E+03  0.31546707866E+03  0.00000000000E+00 0. -1.
          6    1    1    2  501    0 -0.29344854593E+02  0.30604522465E+02 -0.18446776653E+02  0.17810682428E+03  0.17200000000E+03 0.  1.
         -6    1    1    2    0  503  0.29344854593E+02 -0.30604522465E+02 -0.18106785417E+03  0.25331270221E+03  0.17200000000E+03 0.  1.
<mgrwt>
<rscale>  2 0.17714897E+03</rscale>
<asrwt>0</asrwt>
<pdfrwt beam="1">  1       21 0.28988112E-01 0.17714897E+03</pdfrwt>
<pdfrwt beam="2">  1       21 0.78866769E-01 0.17714897E+03</pdfrwt>
<totfact> 0.16340691E+04</totfact>
</mgrwt>
</event>
<event>
 4    1  0.1091654E+000  0.2028134E+03  0.7546771E-02  0.1147387E+00
         21   -1    0    0  501  502  0.00000000000E+00  0.00000000000E+00  0.45074932631E+02  0.45074932631E+02  0.00000000000E+00 0. -1.
         21   -1    0    0  502  503 -0.00000000000E+00 -0.00000000000E+00 -0.91615715158E+03  0.91615715158E+03  0.00000000000E+00 0.  1.
          6    1    1    2  501    0  0.79525150772E+02 -0.72284361879E+02 -0.40539740346E+03  0.45329938596E+03  0.17200000000E+03 0. -1.
         -6    1    1    2    0  503 -0.79525150772E+02  0.72284361879E+02 -0.46568481548E+03  0.50793269825E+03  0.17200000000E+03 0. -1.
<mgrwt>
<rscale>  2 0.20281341E+03</rscale>
<asrwt>0</asrwt>
<pdfrwt beam="1">  1       21 0.11268733E-01 0.20281341E+03</pdfrwt>
<pdfrwt beam="2">  1       21 0.22903928E+00 0.20281341E+03</pdfrwt>
<totfact> 0.57623722E+03</totfact>
</mgrwt>
</event>
<event>
 4    1  0.1091654E+000  0.1757735E+03  0.7546771E-02  0.1171957E+00
         21   -1    0    0  503  502  0.00000000000E+00  0.00000000000E+00  0.11367120233E+03  0.11367120233E+03  0.00000000000E+00 0.  1.
         21   -1    0    0  501  503 -0.00000000000E+00 -0.00000000000E+00 -0.29049382286E+03  0.29049382286E+03  0.00000000000E+00 0.  1.
          6    1    1    2  501    0  0.34570521404E+02 -0.10825217002E+02 -0.13966922729E+03  0.22450790481E+03  0.17200000000E+03 0.  1.
         -6    1    1    2    0  502 -0.34570521404E+02  0.10825217002E+02 -0.37153393248E+02  0.17965712038E+03  0.17200000000E+03 0.  1.
<mgrwt>
<rscale>  2 0.17577345E+03</rscale>
<asrwt>0</asrwt>
<pdfrwt beam="1">  1       21 0.28417801E-01 0.17577345E+03</pdfrwt>
<pdfrwt beam="2">  1       21 0.72623455E-01 0.17577345E+03</pdfrwt>
<totfact> 0.20429754E+04</totfact>
</mgrwt>
</event>
<event>
 4    1  0.1091654E+000  0.2118954E+03  0.7546771E-02  0.1140074E+00
         21   -1    0    0  501  502  0.00000000000E+00  0.00000000000E+00  0.34946983902E+03  0.34946983902E+03  0.00000000000E+00 0.  1.
         21   -1    0    0  502  503 -0.00000000000E+00 -0.00000000000E+00 -0.17549959245E+03  0.17549959245E+03  0.00000000000E+00 0.  1.
          6    1    1    2  501    0  0.12357665079E+03  0.66700752623E+01  0.22285028857E+03  0.30750923505E+03  0.17200000000E+03 0.  1.
         -6    1    1    2    0  503 -0.12357665079E+03 -0.66700752623E+01 -0.48880042000E+02  0.21746019643E+03  0.17200000000E+03 0.  1.
<mgrwt>
<rscale>  2 0.21189544E+03</rscale>
<asrwt>0</asrwt>
<pdfrwt beam="1">  1       21 0.87367459E-01 0.21189544E+03</pdfrwt>
<pdfrwt beam="2">  1       21 0.43874899E-01 0.21189544E+03</pdfrwt>
<totfact> 0.55340658E+03</totfact>
</mgrwt>
</event>
<event>
 4    1  0.1091654E+000  0.1820973E+03  0.7546771E-02  0.1165789E+00
         21   -1    0    0  503  502  0.00000000000E+00  0.00000000000E+00  0.32160389386E+03  0.32160389386E+03  0.00000000000E+00 0. -1.
         21   -1    0    0  501  503 -0.00000000000E+00 -0.00000000000E+00 -0.12846478399E+03  0.12846478399E+03  0.00000000000E+00 0.  1.
          6    1    1    2  501    0  0.30579798911E+02 -0.51383941573E+02 -0.34113739065E+01  0.18212927009E+03  0.17200000000E+03 0.  1.
         -6    1    1    2    0  502 -0.30579798911E+02  0.51383941573E+02  0.19655048378E+03  0.26793940775E+03  0.17200000000E+03 0. -1.
<mgrwt>
<rscale>  2 0.18209732E+03</rscale>
<asrwt>0</asrwt>
<pdfrwt beam="1">  1       21 0.80400972E-01 0.18209732E+03</pdfrwt>
<pdfrwt beam="2">  1       21 0.32116197E-01 0.18209732E+03</pdfrwt>
<totfact> 0.12771039E+04</totfact>
</mgrwt>
</event>
<event>
 4    1  0.1091654E+000  0.2255490E+03  0.7546771E-02  0.1129812E+00
         21   -1    0    0  501  502  0.00000000000E+00  0.00000000000E+00  0.11000470974E+03  0.11000470974E+03  0.00000000000E+00 0.  1.
         21   -1    0    0  502  503 -0.00000000000E+00 -0.00000000000E+00 -0.46761588026E+03  0.46761588026E+03  0.00000000000E+00 0. -1.
          6    1    1    2  501    0  0.12767441057E+03  0.70622992391E+02 -0.14846816637E+03  0.27002807001E+03  0.17200000000E+03 0.  1.
         -6    1    1    2    0  503 -0.12767441057E+03 -0.70622992391E+02 -0.20914300414E+03  0.30759251998E+03  0.17200000000E+03 0. -1.
<mgrwt>
<rscale>  2 0.22554902E+03</rscale>
<asrwt>0</asrwt>
<pdfrwt beam="1">  1       21 0.27501178E-01 0.22554902E+03</pdfrwt>
<pdfrwt beam="2">  1       21 0.11690397E+00 0.22554902E+03</pdfrwt>
<totfact> 0.69361146E+03</totfact>
</mgrwt>
</event>
<event>
 4    1  0.1091654E+000  0.1807154E+03  0.7546771E-02  0.1167112E+00
         21   -1    0    0  503  502  0.00000000000E+00  0.00000000000E+00  0.16629453350E+03  0.16629453350E+03  0.00000000000E+00 0. -1.
         21   -1    0    0  501  503 -0.00000000000E+00 -0.00000000000E+00 -0.21923657829E+03  0.21923657829E+03  0.00000000000E+00 0. -1.
          6    1    1    2  501    0 -0.53708965298E+02 -0.13762494100E+02 -0.88702981184E+02  0.20131139577E+03  0.17200000000E+03 0. -1.
         -6    1    1    2    0  502  0.53708965298E+02  0.13762494100E+02  0.35760936401E+02  0.18421971602E+03  0.17200000000E+03 0. -1.
<mgrwt>
<rscale>  2 0.18071541E+03</rscale>
<asrwt>0</asrwt>
<pdfrwt beam="1">  1       21 0.41573634E-01 0.18071541E+03</pdfrwt>
<pdfrwt beam="2">  1       21 0.54809144E-01 0.18071541E+03</pdfrwt>
<totfact> 0.17632444E+04</totfact>
</mgrwt>
</event>
<event>
 4    1  0.1091654E+000  0.2116751E+03  0.7546771E-02  0.1140246E+00
         21   -1    0    0  501  502  0.00000000000E+00  0.00000000000E+00  0.25313362131E+03  0.25313362131E+03  0.00000000000E+00 0.  1.
         21   -1    0    0  502  503 -0.00000000000E+00 -0.00000000000E+00 -0.25878884982E+03  0.25878884982E+03  0.00000000000E+00 0. -1.
          6    1    1    2  501    0  0.87249760414E+02  0.87234432252E+02  0.14106233863E+03  0.25437167736E+03  0.17200000000E+03 0.  1.
         -6    1    1    2    0  503 -0.87249760414E+02 -0.87234432252E+02 -0.14671756714E+03  0.25755079377E+03  0.17200000000E+03 0. -1.
<mgrwt>
<rscale>  2 0.21167514E+03</rscale>
<asrwt>0</asrwt>
<pdfrwt beam="1">  1       21 0.63283405E-01 0.21167514E+03</pdfrwt>
<pdfrwt beam="2">  1       21 0.64697212E-01 0.21167514E+03</pdfrwt>
<totfact> 0.50123828E+03</totfact>
</mgrwt>
</event>
<event>
 4    1  0.1091654E+000  0.2001729E+03  0.7546771E-02  0.1149593E+00
         21   -1    0    0  501  502  0.00000000000E+00  0.00000000000E+00  0.35503063262E+03  0.35503063262E+03  0.00000000000E+00 0.  1.
         21   -1    0    0  502  503 -0.00000000000E+00 -0.00000000000E+00 -0.17071519957E+03  0.17071519957E+03  0.00000000000E+00 0. -1.
          6    1    1    2  501    0 -0.10205546845E+03 -0.83594777128E+01 -0.60872174783E+02  0.20922385421E+03  0.17200000000E+03 0. -1.
         -6    1    1    2    0  503  0.10205546845E+03  0.83594777128E+01  0.24518760783E+03  0.31652197798E+03  0.17200000000E+03 0.  1.
<mgrwt>
<rscale>  2 0.20017292E+03</rscale>
<asrwt>0</asrwt>
<pdfrwt beam="1">  1       21 0.88757657E-01 0.20017292E+03</pdfrwt>
<pdfrwt beam="2">  1       21 0.42678801E-01 0.20017292E+03</pdfrwt>
<totfact> 0.56961700E+03</totfact>
</mgrwt>
</event>
<event>
 4    1  0.1091654E+000  0.1818711E+03  0.7546771E-02  0.1166004E+00
         21   -1    0    0  501  502  0.00000000000E+00  0.00000000000E+00  0.28007575698E+02  0.28007575698E+02  0.00000000000E+00 0.  1.
         21   -1    0    0  502  503 -0.00000000000E+00 -0.00000000000E+00 -0.12515130482E+04  0.12515130482E+04  0.00000000000E+00 0.  1.
          6    1    1    2  501    0  0.49671761835E+02 -0.32028522054E+02 -0.45990217627E+03  0.49455750110E+03  0.17200000000E+03 0.  1.
         -6    1    1    2    0  503 -0.49671761835E+02  0.32028522054E+02 -0.76360329624E+03  0.78496312281E+03  0.17200000000E+03 0.  1.
<mgrwt>
<rscale>  2 0.18187114E+03</rscale>
<asrwt>0</asrwt>
<pdfrwt beam="1">  1       21 0.70018942E-02 0.18187114E+03</pdfrwt>
<pdfrwt beam="2">  1       21 0.31287825E+00 0.18187114E+03</pdfrwt>
<totfact> 0.44091100E+03</totfact>
</mgrwt>
</event>
<event>
 4    1  0.1091654E+000  0.3128744E+03  0.7546771E-02  0.1078976E+00
         21   -1    0    0  503  502  0.00000000000E+00  0.00000000000E+00  0.24180844911E+03  0.24180844911E+03  0.00000000000E+00 0.  1.
         21   -1    0    0  501  503 -0.00000000000E+00 -0.00000000000E+00 -0.49671461867E+03  0.49671461867E+03  0.00000000000E+00 0. -1.
          6    1    1    2  501    0 -0.23166573298E+03  0.12098514677E+03 -0.28627512564E+03  0.42408002209E+03  0.17200000000E+03 0. -1.
         -6    1    1    2    0  502  0.23166573298E+03 -0.12098514677E+03  0.31368956082E+02  0.31444304569E+03  0.17200000000E+03 0.  1.
<mgrwt>
<rscale>  2 0.31287444E+03</rscale>
<asrwt>0</asrwt>
<pdfrwt beam="1">  1       21 0.60452113E-01 0.31287444E+03</pdfrwt>
<pdfrwt beam="2">  1       21 0.12417865E+00 0.31287444E+03</pdfrwt>
<totfact> 0.11249277E+03</totfact>
</mgrwt>
</event>
<event>
 4    1  0.1091654E+000  0.2336459E+03  0.7546771E-02  0.1124100E+00
         21   -1    0    0  503  502  0.00000000000E+00  0.00000000000E+00  0.25481405301E+03  0.25481405301E+03  0.00000000000E+00 0. -1.
         21   -1    0    0  501  503 -0.00000000000E+00 -0.00000000000E+00 -0.21669237858E+03  0.21669237858E+03  0.00000000000E+00 0. -1.
          6    1    1    2  501    0 -0.43011888561E+02 -0.15217219522E+03 -0.60386007306E+01  0.23372390604E+03  0.17200000000E+03 0. -1.
         -6    1    1    2    0  502  0.43011888561E+02  0.15217219522E+03  0.44160275164E+02  0.23778252555E+03  0.17200000000E+03 0. -1.
<mgrwt>
<rscale>  2 0.23364588E+03</rscale>
<asrwt>0</asrwt>
<pdfrwt beam="1">  1       21 0.63703513E-01 0.23364588E+03</pdfrwt>
<pdfrwt beam="2">  1       21 0.54173095E-01 0.23364588E+03</pdfrwt>
<totfact> 0.71296395E+03</totfact>
</mgrwt>
</event>
<event>
 4    1  0.1091654E+000  0.2025701E+03  0.7546771E-02  0.1147589E+00
         21   -1    0    0  503  502  0.00000000000E+00  0.00000000000E+00  0.17388910383E+04  0.17388910383E+04  0.00000000000E+00 0. -1.
         21   -1    0    0  501  503 -0.00000000000E+00 -0.00000000000E+00 -0.44881558863E+02  0.44881558863E+02  0.00000000000E+00 0. -1.
          6    1    1    2  501    0  0.76370017644E+02 -0.74955033801E+02  0.23282431216E+03  0.30861269744E+03  0.17200000000E+03 0. -1.
         -6    1    1    2    0  502 -0.76370017644E+02  0.74955033801E+02  0.14611851673E+04  0.14751598997E+04  0.17200000000E+03 0. -1.
<mgrwt>
<rscale>  2 0.20257008E+03</rscale>
<asrwt>0</asrwt>
<pdfrwt beam="1">  1       21 0.43472253E+00 0.20257008E+03</pdfrwt>
<pdfrwt beam="2">  1       21 0.11220396E-01 0.20257008E+03</pdfrwt>
<totfact> 0.34106718E+02</totfact>
</mgrwt>
</event>
<event>
 4    1  0.1091654E+000  0.2061611E+03  0.7546771E-02  0.1144643E+00
         21   -1    0    0  503  502  0.00000000000E+00  0.00000000000E+00  0.12132040641E+04  0.12132040641E+04  0.00000000000E+00 0.  1.
         21   -1    0    0  501  503 -0.00000000000E+00 -0.00000000000E+00 -0.42195124687E+02  0.42195124687E+02  0.00000000000E+00 0.  1.
          6    1    1    2  501    0 -0.39115136910E+02 -0.10671643214E+03  0.32689981940E+03  0.38647882575E+03  0.17200000000E+03 0.  1.
         -6    1    1    2    0  502  0.39115136910E+02  0.10671643214E+03  0.84410912003E+03  0.86892036306E+03  0.17200000000E+03 0.  1.
<mgrwt>
<rscale>  2 0.20616108E+03</rscale>
<asrwt>0</asrwt>
<pdfrwt beam="1">  1       21 0.30330090E+00 0.20616108E+03</pdfrwt>
<pdfrwt beam="2">  1       21 0.10548785E-01 0.20616108E+03</pdfrwt>
<totfact> 0.23728181E+03</totfact>
</mgrwt>
</event>
<event>
 4    1  0.1091654E+000  0.2045359E+03  0.7546771E-02  0.1145968E+00
         21   -1    0    0  503  502  0.00000000000E+00  0.00000000000E+00  0.80050351878E+02  0.80050351878E+02  0.00000000000E+00 0.  1.
         21   -1    0    0  501  503 -0.00000000000E+00 -0.00000000000E+00 -0.69560956480E+03  0.69560956480E+03  0.00000000000E+00 0.  1.
          6    1    1    2  501    0  0.10395020901E+03 -0.38016846508E+02 -0.50119188061E+03  0.54132081778E+03  0.17200000000E+03 0.  1.
         -6    1    1    2    0  502 -0.10395020901E+03  0.38016846508E+02 -0.11436733231E+03  0.23433909890E+03  0.17200000000E+03 0.  1.
<mgrwt>
<rscale>  2 0.20453588E+03</rscale>
<asrwt>0</asrwt>
<pdfrwt beam="1">  1       21 0.20012588E-01 0.20453588E+03</pdfrwt>
<pdfrwt beam="2">  1       21 0.17390239E+00 0.20453588E+03</pdfrwt>
<totfact> 0.45724756E+03</totfact>
</mgrwt>
</event>
<event>
 4    1  0.1091654E+000  0.1839739E+03  0.7546771E-02  0.1164012E+00
         21   -1    0    0  503  502  0.00000000000E+00  0.00000000000E+00  0.89595509820E+02  0.89595509820E+02  0.00000000000E+00 0. -1.
         21   -1    0    0  501  503 -0.00000000000E+00 -0.00000000000E+00 -0.41915947118E+03  0.41915947118E+03  0.00000000000E+00 0. -1.
          6    1    1    2  501    0  0.65286144374E+02  0.32218741419E+00 -0.24471762728E+03  0.30615862156E+03  0.17200000000E+03 0. -1.
         -6    1    1    2    0  502 -0.65286144374E+02 -0.32218741419E+00 -0.84846334073E+02  0.20259635944E+03  0.17200000000E+03 0. -1.
<mgrwt>
<rscale>  2 0.18397387E+03</rscale>
<asrwt>0</asrwt>
<pdfrwt beam="1">  1       21 0.22398878E-01 0.18397387E+03</pdfrwt>
<pdfrwt beam="2">  1       21 0.10478987E+00 0.18397387E+03</pdfrwt>
<totfact> 0.13778444E+04</totfact>
</mgrwt>
</event>
<event>
 4    1  0.1091654E+000  0.1906843E+03  0.7546771E-02  0.1157846E+00
         21   -1    0    0  503  502  0.00000000000E+00  0.00000000000E+00  0.87576827468E+02  0.87576827468E+02  0.00000000000E+00 0.  1.
         21   -1    0    0  501  503 -0.00000000000E+00 -0.00000000000E+00 -0.75335812072E+03  0.75335812072E+03  0.00000000000E+00 0.  1.
          6    1    1    2  501    0 -0.13309727810E+02  0.81236449252E+02 -0.61460032358E+03  0.64350141203E+03  0.17200000000E+03 0.  1.
         -6    1    1    2    0  502  0.13309727810E+02 -0.81236449252E+02 -0.51180969668E+02  0.19743353615E+03  0.17200000000E+03 0.  1.
<mgrwt>
<rscale>  2 0.19068432E+03</rscale>
<asrwt>0</asrwt>
<pdfrwt beam="1">  1       21 0.21894207E-01 0.19068432E+03</pdfrwt>
<pdfrwt beam="2">  1       21 0.18833953E+00 0.19068432E+03</pdfrwt>
<totfact> 0.31218856E+03</totfact>
</mgrwt>
</event>
<event>
 4    1  0.1091654E+000  0.1782600E+03  0.7546771E-02  0.1169498E+00
         21   -1    0    0  503  502  0.00000000000E+00  0.00000000000E+00  0.16779549108E+03  0.16779549108E+03  0.00000000000E+00 0. -1.
         21   -1    0    0  501  503 -0.00000000000E+00 -0.00000000000E+00 -0.19052959683E+03  0.19052959683E+03  0.00000000000E+00 0.  1.
          6    1    1    2  501    0  0.16648068665E+02  0.43766246950E+02 -0.25300688626E+02  0.18004657011E+03  0.17200000000E+03 0. -1.
         -6    1    1    2    0  502 -0.16648068665E+02 -0.43766246950E+02  0.25665828745E+01  0.17827851780E+03  0.17200000000E+03 0. -1.
<mgrwt>
<rscale>  2 0.17826004E+03</rscale>
<asrwt>0</asrwt>
<pdfrwt beam="1">  1       21 0.41948873E-01 0.17826004E+03</pdfrwt>
<pdfrwt beam="2">  1       21 0.47632399E-01 0.17826004E+03</pdfrwt>
<totfact> 0.23244654E+04</totfact>
</mgrwt>
</event>
<event>
 4    1  0.1091654E+000  0.3204811E+03  0.7546771E-02  0.1075428E+00
         21   -1    0    0  503  502  0.00000000000E+00  0.00000000000E+00  0.60137756815E+03  0.60137756815E+03  0.00000000000E+00 0. -1.
         21   -1    0    0  501  503 -0.00000000000E+00 -0.00000000000E+00 -0.17869290556E+03  0.17869290556E+03  0.00000000000E+00 0.  1.
          6    1    1    2  501    0  0.27013890972E+03  0.12210821145E+02  0.12930799424E+03  0.34558456573E+03  0.17200000000E+03 0.  1.
         -6    1    1    2    0  502 -0.27013890972E+03 -0.12210821145E+02  0.29337666836E+03  0.43448590798E+03  0.17200000000E+03 0. -1.
<mgrwt>
<rscale>  2 0.32048110E+03</rscale>
<asrwt>0</asrwt>
<pdfrwt beam="1">  1       21 0.15034439E+00 0.32048110E+03</pdfrwt>
<pdfrwt beam="2">  1       21 0.44673228E-01 0.32048110E+03</pdfrwt>
<totfact> 0.12929356E+03</totfact>
</mgrwt>
</event>
<event>
 4    1  0.1091654E+000  0.2382206E+03  0.7546771E-02  0.1120984E+00
         21   -1    0    0  503  502  0.00000000000E+00  0.00000000000E+00  0.12492114691E+04  0.12492114691E+04  0.00000000000E+00 0. -1.
         21   -1    0    0  501  503 -0.00000000000E+00 -0.00000000000E+00 -0.53925669051E+02  0.53925669051E+02  0.00000000000E+00 0. -1.
          6    1    1    2  501    0  0.73620758078E+02 -0.14746206110E+03  0.33899177514E+03  0.41432414738E+03  0.17200000000E+03 0. -1.
         -6    1    1    2    0  502 -0.73620758078E+02  0.14746206110E+03  0.85629402488E+03  0.88881299075E+03  0.17200000000E+03 0. -1.
<mgrwt>
<rscale>  2 0.23822064E+03</rscale>
<asrwt>0</asrwt>
<pdfrwt beam="1">  1       21 0.31230277E+00 0.23822064E+03</pdfrwt>
<pdfrwt beam="2">  1       21 0.13481421E-01 0.23822064E+03</pdfrwt>
<totfact> 0.13055884E+03</totfact>
</mgrwt>
</event>
<event>
 4    1  0.1091654E+000  0.1883178E+03  0.7546771E-02  0.1159987E+00
         21   -1    0    0  501  502  0.00000000000E+00  0.00000000000E+00  0.16848864533E+03  0.16848864533E+03  0.00000000000E+00 0.  1.
         21   -1    0    0  502  503 -0.00000000000E+00 -0.00000000000E+00 -0.92737867719E+03  0.92737867719E+03  0.00000000000E+00 0.  1.
          6    1    1    2  501    0  0.39011901945E+02 -0.66012633345E+02  0.10231208737E+03  0.21431602711E+03  0.17200000000E+03 0.  1.
         -6    1    1    2    0  503 -0.39011901945E+02  0.66012633345E+02 -0.86120211924E+03  0.88155129541E+03  0.17200000000E+03 0.  1.
<mgrwt>
<rscale>  2 0.18831781E+03</rscale>
<asrwt>0</asrwt>
<pdfrwt beam="1">  1       21 0.42122162E-01 0.18831781E+03</pdfrwt>
<pdfrwt beam="2">  1       21 0.23184467E+00 0.18831781E+03</pdfrwt>
<totfact> 0.46501756E+02</totfact>
</mgrwt>
</event>
<event>
 4    1  0.1091654E+000  0.1986738E+03  0.7546771E-02  0.1150863E+00
         21   -1    0    0  501  502  0.00000000000E+00  0.00000000000E+00  0.25089978749E+03  0.25089978749E+03  0.00000000000E+00 0. -1.
         21   -1    0    0  502  503 -0.00000000000E+00 -0.00000000000E+00 -0.19198613314E+03  0.19198613314E+03  0.00000000000E+00 0. -1.
          6    1    1    2  501    0  0.52364425990E+02  0.84529447052E+02  0.12355625638E+03  0.23396027231E+03  0.17200000000E+03 0. -1.
         -6    1    1    2    0  503 -0.52364425990E+02 -0.84529447052E+02 -0.64642602040E+02  0.20892564832E+03  0.17200000000E+03 0. -1.
<mgrwt>
<rscale>  2 0.19867375E+03</rscale>
<asrwt>0</asrwt>
<pdfrwt beam="1">  1       21 0.62724947E-01 0.19867375E+03</pdfrwt>
<pdfrwt beam="2">  1       21 0.47996533E-01 0.19867375E+03</pdfrwt>
<totfact> 0.97276579E+03</totfact>
</mgrwt>
</event>
<event>
 4    1  0.1091654E+000  0.2030173E+03  0.7546771E-02  0.1147218E+00
         21   -1    0    0  503  502  0.00000000000E+00  0.00000000000E+00  0.33432865422E+03  0.33432865422E+03  0.00000000000E+00 0.  1.
         21   -1    0    0  501  503 -0.00000000000E+00 -0.00000000000E+00 -0.13392098309E+03  0.13392098309E+03  0.00000000000E+00 0. -1.
          6    1    1    2  501    0  0.37117903381E+01 -0.10778798885E+03  0.34208302844E+02  0.20587917795E+03  0.17200000000E+03 0. -1.
         -6    1    1    2    0  502 -0.37117903381E+01  0.10778798885E+03  0.16619936828E+03  0.26237045936E+03  0.17200000000E+03 0.  1.
<mgrwt>
<rscale>  2 0.20301731E+03</rscale>
<asrwt>0</asrwt>
<pdfrwt beam="1">  1       21 0.83582162E-01 0.20301731E+03</pdfrwt>
<pdfrwt beam="2">  1       21 0.33480246E-01 0.20301731E+03</pdfrwt>
<totfact> 0.10622851E+04</totfact>
</mgrwt>
</event>
<event>
 4    1  0.1091654E+000  0.1856793E+03  0.7546771E-02  0.1162417E+00
         21   -1    0    0  503  502  0.00000000000E+00  0.00000000000E+00  0.34699428203E+03  0.34699428203E+03  0.00000000000E+00 0.  1.
         21   -1    0    0  501  503 -0.00000000000E+00 -0.00000000000E+00 -0.20474383649E+03  0.20474383649E+03  0.00000000000E+00 0.  1.
          6    1    1    2  501    0 -0.65919141751E+02  0.23398289385E+02 -0.12679390879E+03  0.22484107388E+03  0.17200000000E+03 0.  1.
         -6    1    1    2    0  502  0.65919141751E+02 -0.23398289385E+02  0.26904435434E+03  0.32689704464E+03  0.17200000000E+03 0.  1.
<mgrwt>
<rscale>  2 0.18567933E+03</rscale>
<asrwt>0</asrwt>
<pdfrwt beam="1">  1       21 0.86748570E-01 0.18567933E+03</pdfrwt>
<pdfrwt beam="2">  1       21 0.51185960E-01 0.18567933E+03</pdfrwt>
<totfact> 0.41730575E+03</totfact>
</mgrwt>
</event>
<event>
 4    1  0.1091654E+000  0.2563682E+03  0.7546771E-02  0.1109345E+00
         21   -1    0    0  501  502  0.00000000000E+00  0.00000000000E+00  0.15107876231E+04  0.15107876231E+04  0.00000000000E+00 0. -1.
         21   -1    0    0  502  503 -0.00000000000E+00 -0.00000000000E+00 -0.11371628250E+03  0.11371628250E+03  0.00000000000E+00 0. -1.
          6    1    1    2  501    0  0.64302338100E+02 -0.17890183464E+03  0.13367805051E+04  0.13611417178E+04  0.17200000000E+03 0. -1.
         -6    1    1    2    0  503 -0.64302338100E+02  0.17890183464E+03  0.60290835523E+02  0.26336218782E+03  0.17200000000E+03 0. -1.
<mgrwt>
<rscale>  2 0.25636821E+03</rscale>
<asrwt>0</asrwt>
<pdfrwt beam="1">  1       21 0.37769684E+00 0.25636821E+03</pdfrwt>
<pdfrwt beam="2">  1       21 0.28429075E-01 0.25636821E+03</pdfrwt>
<totfact> 0.12828416E+02</totfact>
</mgrwt>
</event>
<event>
 4    1  0.1091654E+000  0.2431739E+03  0.7546771E-02  0.1117696E+00
         21   -1    0    0  501  502  0.00000000000E+00  0.00000000000E+00  0.26601170987E+03  0.26601170987E+03  0.00000000000E+00 0.  1.
         21   -1    0    0  502  503 -0.00000000000E+00 -0.00000000000E+00 -0.24953408858E+03  0.24953408858E+03  0.00000000000E+00 0.  1.
          6    1    1    2  501    0 -0.16712367637E+02 -0.17108548609E+03  0.93402487500E+02  0.26049485879E+03  0.17200000000E+03 0.  1.
         -6    1    1    2    0  503  0.16712367637E+02  0.17108548609E+03 -0.76924866210E+02  0.25505093967E+03  0.17200000000E+03 0.  1.
<mgrwt>
<rscale>  2 0.24317390E+03</rscale>
<asrwt>0</asrwt>
<pdfrwt beam="1">  1       21 0.66502927E-01 0.24317390E+03</pdfrwt>
<pdfrwt beam="2">  1       21 0.62383522E-01 0.24317390E+03</pdfrwt>
<totfact> 0.47641864E+03</totfact>
</mgrwt>
</event>
<event>
 4    1  0.1091654E+000  0.2430099E+03  0.7546771E-02  0.1117804E+00
         21   -1    0    0  501  502  0.00000000000E+00  0.00000000000E+00  0.46314285166E+03  0.46314285166E+03  0.00000000000E+00 0. -1.
         21   -1    0    0  502  503 -0.00000000000E+00 -0.00000000000E+00 -0.12942776866E+03  0.12942776866E+03  0.00000000000E+00 0. -1.
          6    1    1    2  501    0  0.66042981086E+02 -0.15845554622E+03  0.20295388696E+03  0.31661351158E+03  0.17200000000E+03 0. -1.
         -6    1    1    2    0  503 -0.66042981086E+02  0.15845554622E+03  0.13076119603E+03  0.27595710875E+03  0.17200000000E+03 0. -1.
<mgrwt>
<rscale>  2 0.24300995E+03</rscale>
<asrwt>0</asrwt>
<pdfrwt beam="1">  1       21 0.11578571E+00 0.24300995E+03</pdfrwt>
<pdfrwt beam="2">  1       21 0.32356943E-01 0.24300995E+03</pdfrwt>
<totfact> 0.51067403E+03</totfact>
</mgrwt>
</event>
<event>
 4    1  0.1091654E+000  0.4043789E+03  0.7546771E-02  0.1042274E+00
         21   -1    0    0  503  502  0.00000000000E+00  0.00000000000E+00  0.39793642170E+03  0.39793642170E+03  0.00000000000E+00 0. -1.
         21   -1    0    0  501  503 -0.00000000000E+00 -0.00000000000E+00 -0.59728440003E+03  0.59728440003E+03  0.00000000000E+00 0. -1.
          6    1    1    2  501    0 -0.34179200002E+03 -0.13083015583E+03 -0.37762849145E+03  0.55328616331E+03  0.17200000000E+03 0. -1.
         -6    1    1    2    0  502  0.34179200002E+03  0.13083015583E+03  0.17828051312E+03  0.44193465842E+03  0.17200000000E+03 0. -1.
<mgrwt>
<rscale>  2 0.40437891E+03</rscale>
<asrwt>0</asrwt>
<pdfrwt beam="1">  1       21 0.99484106E-01 0.40437891E+03</pdfrwt>
<pdfrwt beam="2">  1       21 0.14932110E+00 0.40437891E+03</pdfrwt>
<totfact> 0.21045958E+02</totfact>
</mgrwt>
</event>
<event>
 4    1  0.1091654E+000  0.4253287E+03  0.7546771E-02  0.1035346E+00
         21   -1    0    0  503  502  0.00000000000E+00  0.00000000000E+00  0.60594422205E+03  0.60594422205E+03  0.00000000000E+00 0. -1.
         21   -1    0    0  501  503 -0.00000000000E+00 -0.00000000000E+00 -0.40106632455E+03  0.40106632455E+03  0.00000000000E+00 0. -1.
          6    1    1    2  501    0  0.29901155338E+03 -0.24882247484E+03  0.35700051715E+03  0.55529622931E+03  0.17200000000E+03 0. -1.
         -6    1    1    2    0  502 -0.29901155338E+03  0.24882247484E+03 -0.15212261965E+03  0.45171431729E+03  0.17200000000E+03 0. -1.
<mgrwt>
<rscale>  2 0.42532874E+03</rscale>
<asrwt>0</asrwt>
<pdfrwt beam="1">  1       21 0.15148605E+00 0.42532874E+03</pdfrwt>
<pdfrwt beam="2">  1       21 0.10026658E+00 0.42532874E+03</pdfrwt>
<totfact> 0.19629372E+02</totfact>
</mgrwt>
</event>
<event>
 4    1  0.1091654E+000  0.2141561E+03  0.7546771E-02  0.1138316E+00
         21   -1    0    0  501  502  0.00000000000E+00  0.00000000000E+00  0.48648499865E+03  0.48648499865E+03  0.00000000000E+00 0. -1.
         21   -1    0    0  502  503 -0.00000000000E+00 -0.00000000000E+00 -0.21083415704E+03  0.21083415704E+03  0.00000000000E+00 0.  1.
          6    1    1    2  501    0 -0.11974279899E+03 -0.44051298185E+02  0.39706797903E+03  0.45113837650E+03  0.17200000000E+03 0. -1.
         -6    1    1    2    0  503  0.11974279899E+03  0.44051298185E+02 -0.12141713742E+03  0.24618077919E+03  0.17200000000E+03 0.  1.
<mgrwt>
<rscale>  2 0.21415615E+03</rscale>
<asrwt>0</asrwt>
<pdfrwt beam="1">  1       21 0.12162125E+00 0.21415615E+03</pdfrwt>
<pdfrwt beam="2">  1       21 0.52708540E-01 0.21415615E+03</pdfrwt>
<totfact> 0.17087004E+03</totfact>
</mgrwt>
</event>
<event>
 4    1  0.1091654E+000  0.3788360E+03  0.7546771E-02  0.1051365E+00
         21   -1    0    0  503  502  0.00000000000E+00  0.00000000000E+00  0.64925563296E+03  0.64925563296E+03  0.00000000000E+00 0.  1.
         21   -1    0    0  501  503 -0.00000000000E+00 -0.00000000000E+00 -0.23397835339E+03  0.23397835339E+03  0.00000000000E+00 0. -1.
          6    1    1    2  501    0  0.22458240848E+02 -0.33679123605E+03  0.10382322645E+03  0.39280525915E+03  0.17200000000E+03 0. -1.
         -6    1    1    2    0  502 -0.22458240848E+02  0.33679123605E+03  0.31145405313E+03  0.49042872721E+03  0.17200000000E+03 0.  1.
<mgrwt>
<rscale>  2 0.37883599E+03</rscale>
<asrwt>0</asrwt>
<pdfrwt beam="1">  1       21 0.16231390E+00 0.37883599E+03</pdfrwt>
<pdfrwt beam="2">  1       21 0.58494590E-01 0.37883599E+03</pdfrwt>
<totfact> 0.57194836E+02</totfact>
</mgrwt>
</event>
<event>
 4    1  0.1091654E+000  0.2037292E+03  0.7546771E-02  0.1146630E+00
         21   -1    0    0  501  502  0.00000000000E+00  0.00000000000E+00  0.12275939431E+03  0.12275939431E+03  0.00000000000E+00 0. -1.
         21   -1    0    0  502  503 -0.00000000000E+00 -0.00000000000E+00 -0.33938176118E+03  0.33938176118E+03  0.00000000000E+00 0.  1.
          6    1    1    2  501    0 -0.10755462118E+03 -0.18803917169E+02 -0.94139248445E+02  0.22442767640E+03  0.17200000000E+03 0.  1.
         -6    1    1    2    0  503  0.10755462118E+03  0.18803917169E+02 -0.12248311843E+03  0.23771347909E+03  0.17200000000E+03 0. -1.
<mgrwt>
<rscale>  2 0.20372919E+03</rscale>
<asrwt>0</asrwt>
<pdfrwt beam="1">  1       21 0.30689849E-01 0.20372919E+03</pdfrwt>
<pdfrwt beam="2">  1       21 0.84845439E-01 0.20372919E+03</pdfrwt>
<totfact> 0.12174793E+04</totfact>
</mgrwt>
</event>
<event>
 4    1  0.1091654E+000  0.1835870E+03  0.7546771E-02  0.1164376E+00
         21   -1    0    0  501  502  0.00000000000E+00  0.00000000000E+00  0.35510068731E+03  0.35510068731E+03  0.00000000000E+00 0. -1.
         21   -1    0    0  502  503 -0.00000000000E+00 -0.00000000000E+00 -0.95149017462E+02  0.95149017462E+02  0.00000000000E+00 0. -1.
          6    1    1    2  501    0  0.15329151616E+02  0.62331487123E+02  0.11879878588E+03  0.21867178305E+03  0.17200000000E+03 0.  1.
         -6    1    1    2    0  503 -0.15329151616E+02 -0.62331487123E+02  0.14115288397E+03  0.23157792173E+03  0.17200000000E+03 0.  1.
<mgrwt>
<rscale>  2 0.18358703E+03</rscale>
<asrwt>0</asrwt>
<pdfrwt beam="1">  1       21 0.88775169E-01 0.18358703E+03</pdfrwt>
<pdfrwt beam="2">  1       21 0.23787255E-01 0.18358703E+03</pdfrwt>
<totfact> 0.18158046E+04</totfact>
</mgrwt>
</event>
<event>
 4    1  0.1091654E+000  0.1778662E+03  0.7546771E-02  0.1169884E+00
         21   -1    0    0  503  502  0.00000000000E+00  0.00000000000E+00  0.20708553092E+03  0.20708553092E+03  0.00000000000E+00 0. -1.
         21   -1    0    0  501  503 -0.00000000000E+00 -0.00000000000E+00 -0.89166616527E+03  0.89166616527E+03  0.00000000000E+00 0. -1.
          6    1    1    2  501    0 -0.50722585528E+01 -0.45018595599E+02 -0.84239417329E+03  0.86096709865E+03  0.17200000000E+03 0. -1.
         -6    1    1    2    0  502  0.50722585528E+01  0.45018595599E+02  0.15781353895E+03  0.23778459755E+03  0.17200000000E+03 0. -1.
<mgrwt>
<rscale>  2 0.17786625E+03</rscale>
<asrwt>0</asrwt>
<pdfrwt beam="1">  1       21 0.51771384E-01 0.17786625E+03</pdfrwt>
<pdfrwt beam="2">  1       21 0.22291654E+00 0.17786625E+03</pdfrwt>
<totfact> 0.34904311E+02</totfact>
</mgrwt>
</event>
<event>
 4    1  0.1091654E+000  0.2227733E+03  0.7546771E-02  0.1131832E+00
         21   -1    0    0  503  502  0.00000000000E+00  0.00000000000E+00  0.25672036051E+02  0.25672036051E+02  0.00000000000E+00 0.  1.
         21   -1    0    0  501  503 -0.00000000000E+00 -0.00000000000E+00 -0.19352475535E+04  0.19352475535E+04  0.00000000000E+00 0. -1.
          6    1    1    2  501    0  0.14146011615E+03  0.57428094327E+01 -0.98705227057E+03  0.10118795033E+04  0.17200000000E+03 0. -1.
         -6    1    1    2    0  502 -0.14146011615E+03 -0.57428094327E+01 -0.92252324693E+03  0.94904008632E+03  0.17200000000E+03 0. -1.
<mgrwt>
<rscale>  2 0.22277330E+03</rscale>
<asrwt>0</asrwt>
<pdfrwt beam="1">  1       21 0.64180087E-02 0.22277330E+03</pdfrwt>
<pdfrwt beam="2">  1       21 0.48381191E+00 0.22277330E+03</pdfrwt>
<totfact> 0.41131240E+02</totfact>
</mgrwt>
</event>
<event>
 4    1  0.1091654E+000  0.2036978E+03  0.7546771E-02  0.1146656E+00
         21   -1    0    0  501  502  0.00000000000E+00  0.00000000000E+00  0.74678293295E+03  0.74678293295E+03  0.00000000000E+00 0. -1.
         21   -1    0    0  502  503 -0.00000000000E+00 -0.00000000000E+00 -0.17596053744E+03  0.17596053744E+03  0.00000000000E+00 0. -1.
          6    1    1    2  501    0  0.99910427563E+02  0.43894051346E+02  0.66705119430E+03  0.69745973152E+03  0.17200000000E+03 0. -1.
         -6    1    1    2    0  503 -0.99910427563E+02 -0.43894051346E+02 -0.96228798788E+02  0.22528373886E+03  0.17200000000E+03 0. -1.
<mgrwt>
<rscale>  2 0.20369777E+03</rscale>
<asrwt>0</asrwt>
<pdfrwt beam="1">  1       21 0.18669573E+00 0.20369777E+03</pdfrwt>
<pdfrwt beam="2">  1       21 0.43990136E-01 0.20369777E+03</pdfrwt>
<totfact> 0.80434157E+02</totfact>
</mgrwt>
</event>
<event>
 4    1  0.1091654E+000  0.1769135E+03  0.7546771E-02  0.1170824E+00
         21   -1    0    0  501  502  0.00000000000E+00  0.00000000000E+00  0.15531079591E+03  0.15531079591E+03  0.00000000000E+00 0. -1.
         21   -1    0    0  502  503 -0.00000000000E+00 -0.00000000000E+00 -0.21484275911E+03  0.21484275911E+03  0.00000000000E+00 0. -1.
          6    1    1    2  501    0  0.19178757953E+02 -0.36695521425E+02  0.16320382475E+02  0.17766468679E+03  0.17200000000E+03 0. -1.
         -6    1    1    2    0  503 -0.19178757953E+02  0.36695521425E+02 -0.75852345673E+02  0.19248886823E+03  0.17200000000E+03 0. -1.
<mgrwt>
<rscale>  2 0.17691350E+03</rscale>
<asrwt>0</asrwt>
<pdfrwt beam="1">  1       21 0.38827699E-01 0.17691350E+03</pdfrwt>
<pdfrwt beam="2">  1       21 0.53710690E-01 0.17691350E+03</pdfrwt>
<totfact> 0.21170836E+04</totfact>
</mgrwt>
</event>
<event>
 4    1  0.1091654E+000  0.2936519E+03  0.7546771E-02  0.1088458E+00
         21   -1    0    0  503  502  0.00000000000E+00  0.00000000000E+00  0.32707577177E+03  0.32707577177E+03  0.00000000000E+00 0.  1.
         21   -1    0    0  501  503 -0.00000000000E+00 -0.00000000000E+00 -0.26376444120E+03  0.26376444120E+03  0.00000000000E+00 0. -1.
          6    1    1    2  501    0  0.11972791018E+03 -0.20570047871E+03  0.25334466713E+02  0.29474276008E+03  0.17200000000E+03 0. -1.
         -6    1    1    2    0  502 -0.11972791018E+03  0.20570047871E+03  0.37976863859E+02  0.29609745288E+03  0.17200000000E+03 0.  1.
<mgrwt>
<rscale>  2 0.29365194E+03</rscale>
<asrwt>0</asrwt>
<pdfrwt beam="1">  1       21 0.81768943E-01 0.29365194E+03</pdfrwt>
<pdfrwt beam="2">  1       21 0.65941110E-01 0.29365194E+03</pdfrwt>
<totfact> 0.25728356E+03</totfact>
</mgrwt>
</event>
<event>
 4    1  0.1091654E+000  0.1893685E+03  0.7546771E-02  0.1159032E+00
         21   -1    0    0  501  502  0.00000000000E+00  0.00000000000E+00  0.21192831624E+03  0.21192831624E+03  0.00000000000E+00 0.  1.
         21   -1    0    0  502  503 -0.00000000000E+00 -0.00000000000E+00 -0.19333304272E+03  0.19333304272E+03  0.00000000000E+00 0. -1.
          6    1    1    2  501    0 -0.56402274822E+02 -0.55634736946E+02  0.80873413522E+02  0.20591490858E+03  0.17200000000E+03 0. -1.
         -6    1    1    2    0  503  0.56402274822E+02  0.55634736946E+02 -0.62278140001E+02  0.19934645039E+03  0.17200000000E+03 0. -1.
<mgrwt>
<rscale>  2 0.18936853E+03</rscale>
<asrwt>0</asrwt>
<pdfrwt beam="1">  1       21 0.52982079E-01 0.18936853E+03</pdfrwt>
<pdfrwt beam="2">  1       21 0.48333261E-01 0.18936853E+03</pdfrwt>
<totfact> 0.13829459E+04</totfact>
</mgrwt>
</event>
<event>
 4    1  0.1091654E+000  0.2159003E+03  0.7546771E-02  0.1136977E+00
         21   -1    0    0  503  502  0.00000000000E+00  0.00000000000E+00  0.46875314692E+02  0.46875314692E+02  0.00000000000E+00 0.  1.
         21   -1    0    0  501  503 -0.00000000000E+00 -0.00000000000E+00 -0.10252531402E+04  0.10252531402E+04  0.00000000000E+00 0.  1.
          6    1    1    2  501    0 -0.10232358829E+03 -0.80986635144E+02 -0.58217759831E+03  0.62092165992E+03  0.17200000000E+03 0. -1.
         -6    1    1    2    0  502  0.10232358829E+03  0.80986635144E+02 -0.39620022720E+03  0.45120679497E+03  0.17200000000E+03 0. -1.
<mgrwt>
<rscale>  2 0.21590033E+03</rscale>
<asrwt>0</asrwt>
<pdfrwt beam="1">  1       21 0.11718829E-01 0.21590033E+03</pdfrwt>
<pdfrwt beam="2">  1       21 0.25631329E+00 0.21590033E+03</pdfrwt>
<totfact> 0.36485972E+03</totfact>
</mgrwt>
</event>
<event>
 4    1  0.1091654E+000  0.2043128E+03  0.7546771E-02  0.1146150E+00
         21   -1    0    0  503  502  0.00000000000E+00  0.00000000000E+00  0.41905152068E+02  0.41905152068E+02  0.00000000000E+00 0. -1.
         21   -1    0    0  501  503 -0.00000000000E+00 -0.00000000000E+00 -0.11075306600E+04  0.11075306600E+04  0.00000000000E+00 0. -1.
          6    1    1    2  501    0  0.59401445366E+02 -0.92904296172E+02 -0.71507022432E+03  0.74368620108E+03  0.17200000000E+03 0. -1.
         -6    1    1    2    0  502 -0.59401445366E+02  0.92904296172E+02 -0.35055528366E+03  0.40574961104E+03  0.17200000000E+03 0. -1.
<mgrwt>
<rscale>  2 0.20431285E+03</rscale>
<asrwt>0</asrwt>
<pdfrwt beam="1">  1       21 0.10476288E-01 0.20431285E+03</pdfrwt>
<pdfrwt beam="2">  1       21 0.27688266E+00 0.20431285E+03</pdfrwt>
<totfact> 0.34212420E+03</totfact>
</mgrwt>
</event>
<event>
 4    1  0.1091654E+000  0.2317715E+03  0.7546771E-02  0.1125399E+00
         21   -1    0    0  501  502  0.00000000000E+00  0.00000000000E+00  0.12959647854E+04  0.12959647854E+04  0.00000000000E+00 0. -1.
         21   -1    0    0  502  503 -0.00000000000E+00 -0.00000000000E+00 -0.57956392607E+02  0.57956392607E+02  0.00000000000E+00 0.  1.
          6    1    1    2  501    0 -0.63709097832E+02 -0.14168687314E+03  0.98027758119E+03  0.10073044005E+04  0.17200000000E+03 0. -1.
         -6    1    1    2    0  503  0.63709097832E+02  0.14168687314E+03  0.25773081159E+03  0.34661677745E+03  0.17200000000E+03 0.  1.
<mgrwt>
<rscale>  2 0.23177148E+03</rscale>
<asrwt>0</asrwt>
<pdfrwt beam="1">  1       21 0.32399110E+00 0.23177148E+03</pdfrwt>
<pdfrwt beam="2">  1       21 0.14489102E-01 0.23177148E+03</pdfrwt>
<totfact> 0.98548718E+02</totfact>
</mgrwt>
</event>
<event>
 4    1  0.1091654E+000  0.1879105E+03  0.7546771E-02  0.1160360E+00
         21   -1    0    0  503  502  0.00000000000E+00  0.00000000000E+00  0.58253957952E+03  0.58253957952E+03  0.00000000000E+00 0. -1.
         21   -1    0    0  501  503 -0.00000000000E+00 -0.00000000000E+00 -0.60654045867E+02  0.60654045867E+02  0.00000000000E+00 0. -1.
          6    1    1    2  501    0 -0.30331092128E+01 -0.75611928768E+02  0.26915121313E+03  0.32825712339E+03  0.17200000000E+03 0. -1.
         -6    1    1    2    0  502  0.30331092128E+01  0.75611928768E+02  0.25273432052E+03  0.31493650200E+03  0.17200000000E+03 0. -1.
<mgrwt>
<rscale>  2 0.18791052E+03</rscale>
<asrwt>0</asrwt>
<pdfrwt beam="1">  1       21 0.14563488E+00 0.18791052E+03</pdfrwt>
<pdfrwt beam="2">  1       21 0.15163513E-01 0.18791052E+03</pdfrwt>
<totfact> 0.12464331E+04</totfact>
</mgrwt>
</event>
<event>
 4    1  0.1091654E+000  0.1996993E+03  0.7546771E-02  0.1149993E+00
         21   -1    0    0  503  502  0.00000000000E+00  0.00000000000E+00  0.51331290337E+03  0.51331290337E+03  0.00000000000E+00 0.  1.
         21   -1    0    0  501  503 -0.00000000000E+00 -0.00000000000E+00 -0.22308291530E+03  0.22308291530E+03  0.00000000000E+00 0.  1.
          6    1    1    2  501    0  0.10061216075E+03 -0.13152581249E+02 -0.15213255224E+03  0.25104603310E+03  0.17200000000E+03 0.  1.
         -6    1    1    2    0  502 -0.10061216075E+03  0.13152581249E+02  0.44236254031E+03  0.48534978557E+03  0.17200000000E+03 0.  1.
<mgrwt>
<rscale>  2 0.19969927E+03</rscale>
<asrwt>0</asrwt>
<pdfrwt beam="1">  1       21 0.12832822E+00 0.19969927E+03</pdfrwt>
<pdfrwt beam="2">  1       21 0.55770730E-01 0.19969927E+03</pdfrwt>
<totfact> 0.13432032E+03</totfact>
</mgrwt>
</event>
<event>
 4    1  0.1091654E+000  0.3177026E+03  0.7546771E-02  0.1076712E+00
         21   -1    0    0  501  502  0.00000000000E+00  0.00000000000E+00  0.30578015411E+03  0.30578015411E+03  0.00000000000E+00 0.  1.
         21   -1    0    0  502  503 -0.00000000000E+00 -0.00000000000E+00 -0.33695474265E+03  0.33695474265E+03  0.00000000000E+00 0. -1.
          6    1    1    2  501    0  0.21862118559E+03  0.15347873368E+03 -0.61457530732E+02  0.32359229373E+03  0.17200000000E+03 0. -1.
         -6    1    1    2    0  503 -0.21862118559E+03 -0.15347873368E+03  0.30282942187E+02  0.31914260303E+03  0.17200000000E+03 0.  1.
<mgrwt>
<rscale>  2 0.31770260E+03</rscale>
<asrwt>0</asrwt>
<pdfrwt beam="1">  1       21 0.76445039E-01 0.31770260E+03</pdfrwt>
<pdfrwt beam="2">  1       21 0.84238686E-01 0.31770260E+03</pdfrwt>
<totfact> 0.17025050E+03</totfact>
</mgrwt>
</event>
<event>
 4    1  0.1091654E+000  0.1940036E+03  0.7546771E-02  0.1154899E+00
         21   -1    0    0  501  502  0.00000000000E+00  0.00000000000E+00  0.50491460069E+03  0.50491460069E+03  0.00000000000E+00 0. -1.
         21   -1    0    0  502  503 -0.00000000000E+00 -0.00000000000E+00 -0.13412142536E+03  0.13412142536E+03  0.00000000000E+00 0.  1.
          6    1    1    2  501    0  0.88599151685E+02 -0.14267736602E+02  0.39835469465E+03  0.44308446231E+03  0.17200000000E+03 0. -1.
         -6    1    1    2    0  503 -0.88599151685E+02  0.14267736602E+02 -0.27561519319E+02  0.19595156375E+03  0.17200000000E+03 0.  1.
<mgrwt>
<rscale>  2 0.19400355E+03</rscale>
<asrwt>0</asrwt>
<pdfrwt beam="1">  1       21 0.12622865E+00 0.19400355E+03</pdfrwt>
<pdfrwt beam="2">  1       21 0.33530358E-01 0.19400355E+03</pdfrwt>
<totfact> 0.39833267E+03</totfact>
</mgrwt>
</event>
<event>
 4    1  0.1091654E+000  0.1905148E+03  0.7546771E-02  0.1157998E+00
         21   -1    0    0  503  502  0.00000000000E+00  0.00000000000E+00  0.67742124021E+03  0.67742124021E+03  0.00000000000E+00 0.  1.
         21   -1    0    0  501  503 -0.00000000000E+00 -0.00000000000E+00 -0.92311583486E+02  0.92311583486E+02  0.00000000000E+00 0. -1.
          6    1    1    2  501    0  0.80795155753E+02 -0.13565594197E+02  0.54185203540E+03  0.57436879338E+03  0.17200000000E+03 0.  1.
         -6    1    1    2    0  502 -0.80795155753E+02  0.13565594197E+02  0.43257621322E+02  0.19536403032E+03  0.17200000000E+03 0. -1.
<mgrwt>
<rscale>  2 0.19051478E+03</rscale>
<asrwt>0</asrwt>
<pdfrwt beam="1">  1       21 0.16935530E+00 0.19051478E+03</pdfrwt>
<pdfrwt beam="2">  1       21 0.23077898E-01 0.19051478E+03</pdfrwt>
<totfact> 0.38100213E+03</totfact>
</mgrwt>
</event>
<event>
 4    1  0.1091654E+000  0.1877100E+03  0.7546771E-02  0.1160543E+00
         21   -1    0    0  503  502  0.00000000000E+00  0.00000000000E+00  0.54617430972E+03  0.54617430972E+03  0.00000000000E+00 0.  1.
         21   -1    0    0  501  503 -0.00000000000E+00 -0.00000000000E+00 -0.73953350577E+02  0.73953350577E+02  0.00000000000E+00 0.  1.
          6    1    1    2  501    0 -0.74048644444E+02 -0.12954813836E+02  0.34689510083E+03  0.39442520194E+03  0.17200000000E+03 0.  1.
         -6    1    1    2    0  502  0.74048644444E+02  0.12954813836E+02  0.12532585831E+03  0.22570245835E+03  0.17200000000E+03 0.  1.
<mgrwt>
<rscale>  2 0.18770996E+03</rscale>
<asrwt>0</asrwt>
<pdfrwt beam="1">  1       21 0.13654357E+00 0.18770996E+03</pdfrwt>
<pdfrwt beam="2">  1       21 0.18488339E-01 0.18770996E+03</pdfrwt>
<totfact> 0.10233589E+04</totfact>
</mgrwt>
</event>
<event>
 4    1  0.1091654E+000  0.2047508E+03  0.7546771E-02  0.1145792E+00
         21   -1    0    0  501  502  0.00000000000E+00  0.00000000000E+00  0.80242554550E+03  0.80242554550E+03  0.00000000000E+00 0.  1.
         21   -1    0    0  502  503 -0.00000000000E+00 -0.00000000000E+00 -0.92780491058E+02  0.92780491058E+02  0.00000000000E+00 0. -1.
          6    1    1    2  501    0 -0.87105475765E+02 -0.68931187100E+02  0.65067921576E+03  0.68213364840E+03  0.17200000000E+03 0.  1.
         -6    1    1    2    0  503  0.87105475765E+02  0.68931187100E+02  0.58965838687E+02  0.21307238816E+03  0.17200000000E+03 0. -1.
<mgrwt>
<rscale>  2 0.20475076E+03</rscale>
<asrwt>0</asrwt>
<pdfrwt beam="1">  1       21 0.20060637E+00 0.20475076E+03</pdfrwt>
<pdfrwt beam="2">  1       21 0.23195125E-01 0.20475076E+03</pdfrwt>
<totfact> 0.22961614E+03</totfact>
</mgrwt>
</event>
<event>
 4    1  0.1091654E+000  0.1799736E+03  0.7546771E-02  0.1167829E+00
         21   -1    0    0  503  502  0.00000000000E+00  0.00000000000E+00  0.13226037588E+04  0.13226037588E+04  0.00000000000E+00 0. -1.
         21   -1    0    0  501  503 -0.00000000000E+00 -0.00000000000E+00 -0.34348889379E+02  0.34348889379E+02  0.00000000000E+00 0. -1.
          6    1    1    2  501    0 -0.17098741247E+02 -0.50141225672E+02  0.28063674895E+03  0.33338790369E+03  0.17200000000E+03 0.  1.
         -6    1    1    2    0  502  0.17098741247E+02  0.50141225672E+02  0.10076181205E+04  0.10235647445E+04  0.17200000000E+03 0.  1.
<mgrwt>
<rscale>  2 0.17997364E+03</rscale>
<asrwt>0</asrwt>
<pdfrwt beam="1">  1       21 0.33065077E+00 0.17997364E+03</pdfrwt>
<pdfrwt beam="2">  1       21 0.85872268E-02 0.17997364E+03</pdfrwt>
<totfact> 0.24495954E+03</totfact>
</mgrwt>
</event>
<event>
 4    1  0.1091654E+000  0.1720805E+03  0.7546771E-02  0.1175695E+00
         21   -1    0    0  501  502  0.00000000000E+00  0.00000000000E+00  0.24100312301E+03  0.24100312301E+03  0.00000000000E+00 0.  1.
         21   -1    0    0  502  503 -0.00000000000E+00 -0.00000000000E+00 -0.25655024067E+03  0.25655024067E+03  0.00000000000E+00 0.  1.
          6    1    1    2  501    0 -0.45913542162E+01  0.25698915441E+01  0.17180709696E+03  0.24316530065E+03  0.17200000000E+03 0.  1.
         -6    1    1    2    0  503  0.45913542162E+01 -0.25698915441E+01 -0.18735421462E+03  0.25438806303E+03  0.17200000000E+03 0.  1.
<mgrwt>
<rscale>  2 0.17208046E+03</rscale>
<asrwt>0</asrwt>
<pdfrwt beam="1">  1       21 0.60250781E-01 0.17208046E+03</pdfrwt>
<pdfrwt beam="2">  1       21 0.64137560E-01 0.17208046E+03</pdfrwt>
<totfact> 0.58558096E+03</totfact>
</mgrwt>
</event>
<event>
 4    1  0.1091654E+000  0.1902725E+03  0.7546771E-02  0.1158216E+00
         21   -1    0    0  503  502  0.00000000000E+00  0.00000000000E+00  0.23108379110E+03  0.23108379110E+03  0.00000000000E+00 0. -1.
         21   -1    0    0  501  503 -0.00000000000E+00 -0.00000000000E+00 -0.21188773503E+03  0.21188773503E+03  0.00000000000E+00 0. -1.
          6    1    1    2  501    0 -0.66031286593E+02 -0.47534123803E+02 -0.10346922991E+03  0.21658602280E+03  0.17200000000E+03 0. -1.
         -6    1    1    2    0  502  0.66031286593E+02  0.47534123803E+02  0.12266528597E+03  0.22638550333E+03  0.17200000000E+03 0. -1.
<mgrwt>
<rscale>  2 0.19027250E+03</rscale>
<asrwt>0</asrwt>
<pdfrwt beam="1">  1       21 0.57770948E-01 0.19027250E+03</pdfrwt>
<pdfrwt beam="2">  1       21 0.52971934E-01 0.19027250E+03</pdfrwt>
<totfact> 0.95035034E+03</totfact>
</mgrwt>
</event>
<event>
 4    1  0.1091654E+000  0.2176800E+03  0.7546771E-02  0.1135625E+00
         21   -1    0    0  501  502  0.00000000000E+00  0.00000000000E+00  0.43761743232E+03  0.43761743232E+03  0.00000000000E+00 0.  1.
         21   -1    0    0  502  503 -0.00000000000E+00 -0.00000000000E+00 -0.14152109452E+03  0.14152109452E+03  0.00000000000E+00 0. -1.
          6    1    1    2  501    0 -0.17768864645E+01 -0.13340696266E+03  0.28839063101E+03  0.36132219841E+03  0.17200000000E+03 0. -1.
         -6    1    1    2    0  503  0.17768864645E+01  0.13340696266E+03  0.77057067955E+01  0.21781632843E+03  0.17200000000E+03 0.  1.
<mgrwt>
<rscale>  2 0.21767998E+03</rscale>
<asrwt>0</asrwt>
<pdfrwt beam="1">  1       21 0.10940436E+00 0.21767998E+03</pdfrwt>
<pdfrwt beam="2">  1       21 0.35380275E-01 0.21767998E+03</pdfrwt>
<totfact> 0.49991046E+03</totfact>
</mgrwt>
</event>
<event>
 4    1  0.1091654E+000  0.1866130E+03  0.7546771E-02  0.1161552E+00
         21   -1    0    0  503  502  0.00000000000E+00  0.00000000000E+00  0.13588691643E+04  0.13588691643E+04  0.00000000000E+00 0.  1.
         21   -1    0    0  501  503 -0.00000000000E+00 -0.00000000000E+00 -0.85894951673E+02  0.85894951673E+02  0.00000000000E+00 0.  1.
          6    1    1    2  501    0  0.12800799080E+02 -0.71250041008E+02  0.31390774170E+02  0.18923479993E+03  0.17200000000E+03 0.  1.
         -6    1    1    2    0  502 -0.12800799080E+02  0.71250041008E+02  0.12415834385E+04  0.12555293161E+04  0.17200000000E+03 0.  1.
<mgrwt>
<rscale>  2 0.18661305E+03</rscale>
<asrwt>0</asrwt>
<pdfrwt beam="1">  1       21 0.33971722E+00 0.18661305E+03</pdfrwt>
<pdfrwt beam="2">  1       21 0.21473742E-01 0.18661305E+03</pdfrwt>
<totfact> 0.40997174E+02</totfact>
</mgrwt>
</event>
<event>
 4    1  0.1091654E+000  0.1868440E+03  0.7546771E-02  0.1161339E+00
         21   -1    0    0  501  502  0.00000000000E+00  0.00000000000E+00  0.38891959672E+03  0.38891959672E+03  0.00000000000E+00 0. -1.
         21   -1    0    0  502  503 -0.00000000000E+00 -0.00000000000E+00 -0.92391859120E+02  0.92391859120E+02  0.00000000000E+00 0. -1.
          6    1    1    2  501    0 -0.82407241168E+01  0.72517410242E+02  0.18885609984E+03  0.26566390566E+03  0.17200000000E+03 0. -1.
         -6    1    1    2    0  503  0.82407241168E+01 -0.72517410242E+02  0.10767163776E+03  0.21564755018E+03  0.17200000000E+03 0. -1.
<mgrwt>
<rscale>  2 0.18684401E+03</rscale>
<asrwt>0</asrwt>
<pdfrwt beam="1">  1       21 0.97229895E-01 0.18684401E+03</pdfrwt>
<pdfrwt beam="2">  1       21 0.23097966E-01 0.18684401E+03</pdfrwt>
<totfact> 0.15503073E+04</totfact>
</mgrwt>
</event>
<event>
 4    1  0.1091654E+000  0.2147856E+03  0.7546771E-02  0.1137831E+00
         21   -1    0    0  503  502  0.00000000000E+00  0.00000000000E+00  0.21642073336E+03  0.21642073336E+03  0.00000000000E+00 0. -1.
         21   -1    0    0  501  503 -0.00000000000E+00 -0.00000000000E+00 -0.80160680984E+03  0.80160680984E+03  0.00000000000E+00 0. -1.
          6    1    1    2  501    0  0.90015595362E+02 -0.91902419230E+02 -0.72870840068E+03  0.75970309680E+03  0.17200000000E+03 0. -1.
         -6    1    1    2    0  502 -0.90015595362E+02  0.91902419230E+02  0.14352232419E+03  0.25832444640E+03  0.17200000000E+03 0. -1.
<mgrwt>
<rscale>  2 0.21478562E+03</rscale>
<asrwt>0</asrwt>
<pdfrwt beam="1">  1       21 0.54105184E-01 0.21478562E+03</pdfrwt>
<pdfrwt beam="2">  1       21 0.20040170E+00 0.21478562E+03</pdfrwt>
<totfact> 0.41980134E+02</totfact>
</mgrwt>
</event>
<event>
 4    1  0.1091654E+000  0.2335389E+03  0.7546771E-02  0.1124173E+00
         21   -1    0    0  501  502  0.00000000000E+00  0.00000000000E+00  0.25431740322E+03  0.25431740322E+03  0.00000000000E+00 0. -1.
         21   -1    0    0  502  503 -0.00000000000E+00 -0.00000000000E+00 -0.24329261522E+03  0.24329261522E+03  0.00000000000E+00 0. -1.
          6    1    1    2  501    0 -0.76645718605E+02  0.13813704870E+03  0.91167149105E+02  0.25070273130E+03  0.17200000000E+03 0. -1.
         -6    1    1    2    0  503  0.76645718605E+02 -0.13813704870E+03 -0.80142361106E+02  0.24690728715E+03  0.17200000000E+03 0. -1.
<mgrwt>
<rscale>  2 0.23353888E+03</rscale>
<asrwt>0</asrwt>
<pdfrwt beam="1">  1       21 0.63579351E-01 0.23353888E+03</pdfrwt>
<pdfrwt beam="2">  1       21 0.60823154E-01 0.23353888E+03</pdfrwt>
<totfact> 0.55879691E+03</totfact>
</mgrwt>
</event>
<event>
 4    1  0.1091654E+000  0.2049194E+03  0.7546771E-02  0.1145654E+00
         21   -1    0    0  501  502  0.00000000000E+00  0.00000000000E+00  0.81933685806E+03  0.81933685806E+03  0.00000000000E+00 0.  1.
         21   -1    0    0  502  503 -0.00000000000E+00 -0.00000000000E+00 -0.57636632416E+02  0.57636632416E+02  0.00000000000E+00 0.  1.
          6    1    1    2  501    0 -0.55974046656E+02  0.96306036032E+02  0.52680022451E+03  0.56525253031E+03  0.17200000000E+03 0.  1.
         -6    1    1    2    0  503  0.55974046656E+02 -0.96306036032E+02  0.23490000113E+03  0.31172096017E+03  0.17200000000E+03 0.  1.
<mgrwt>
<rscale>  2 0.20491937E+03</rscale>
<asrwt>0</asrwt>
<pdfrwt beam="1">  1       21 0.20483418E+00 0.20491937E+03</pdfrwt>
<pdfrwt beam="2">  1       21 0.14409161E-01 0.20491937E+03</pdfrwt>
<totfact> 0.52189088E+03</totfact>
</mgrwt>
</event>
<event>
 4    1  0.1091654E+000  0.1933325E+03  0.7546771E-02  0.1155490E+00
         21   -1    0    0  501  502  0.00000000000E+00  0.00000000000E+00  0.10798545344E+04  0.10798545344E+04  0.00000000000E+00 0. -1.
         21   -1    0    0  502  503 -0.00000000000E+00 -0.00000000000E+00 -0.65588722050E+02  0.65588722050E+02  0.00000000000E+00 0. -1.
          6    1    1    2  501    0  0.83614596699E+02  0.28320608542E+02  0.90071631278E+03  0.92123142248E+03  0.17200000000E+03 0. -1.
         -6    1    1    2    0  503 -0.83614596699E+02 -0.28320608542E+02  0.11354949961E+03  0.22421183401E+03  0.17200000000E+03 0. -1.
<mgrwt>
<rscale>  2 0.19333251E+03</rscale>
<asrwt>0</asrwt>
<pdfrwt beam="1">  1       21 0.26996358E+00 0.19333251E+03</pdfrwt>
<pdfrwt beam="2">  1       21 0.16397184E-01 0.19333251E+03</pdfrwt>
<totfact> 0.16940325E+03</totfact>
</mgrwt>
</event>
<event>
 4    1  0.1091654E+000  0.2251906E+03  0.7546771E-02  0.1130071E+00
         21   -1    0    0  501  502  0.00000000000E+00  0.00000000000E+00  0.93663145100E+03  0.93663145100E+03  0.00000000000E+00 0. -1.
         21   -1    0    0  502  503 -0.00000000000E+00 -0.00000000000E+00 -0.15068523934E+03  0.15068523934E+03  0.00000000000E+00 0.  1.
          6    1    1    2  501    0  0.14515822323E+03 -0.74763738731E+01  0.82813648678E+03  0.85820792741E+03  0.17200000000E+03 0. -1.
         -6    1    1    2    0  503 -0.14515822323E+03  0.74763738731E+01 -0.42190275117E+02  0.22910876293E+03  0.17200000000E+03 0.  1.
<mgrwt>
<rscale>  2 0.22519060E+03</rscale>
<asrwt>0</asrwt>
<pdfrwt beam="1">  1       21 0.23415785E+00 0.22519060E+03</pdfrwt>
<pdfrwt beam="2">  1       21 0.37671312E-01 0.22519060E+03</pdfrwt>
<totfact> 0.53962590E+02</totfact>
</mgrwt>
</event>
<event>
 4    1  0.1091654E+000  0.1747993E+03  0.7546771E-02  0.1172933E+00
         21   -1    0    0  501  502  0.00000000000E+00  0.00000000000E+00  0.77393614335E+03  0.77393614335E+03  0.00000000000E+00 0.  1.
         21   -1    0    0  502  503 -0.00000000000E+00 -0.00000000000E+00 -0.50870216989E+02  0.50870216989E+02  0.00000000000E+00 0.  1.
          6    1    1    2  501    0 -0.52218773502E+01 -0.30716848694E+02  0.55667969716E+03  0.58347842978E+03  0.17200000000E+03 0.  1.
         -6    1    1    2    0  503  0.52218773502E+01  0.30716848694E+02  0.16638622920E+03  0.24132793055E+03  0.17200000000E+03 0.  1.
<mgrwt>
<rscale>  2 0.17479929E+03</rscale>
<asrwt>0</asrwt>
<pdfrwt beam="1">  1       21 0.19348400E+00 0.17479929E+03</pdfrwt>
<pdfrwt beam="2">  1       21 0.12717557E-01 0.17479929E+03</pdfrwt>
<totfact> 0.79494475E+03</totfact>
</mgrwt>
</event>
<event>
 4    1  0.1091654E+000  0.2035712E+03  0.7546771E-02  0.1146760E+00
         21   -1    0    0  501  502  0.00000000000E+00  0.00000000000E+00  0.15054277323E+03  0.15054277323E+03  0.00000000000E+00 0. -1.
         21   -1    0    0  502  503 -0.00000000000E+00 -0.00000000000E+00 -0.50271517776E+03  0.50271517776E+03  0.00000000000E+00 0.  1.
          6    1    1    2  501    0 -0.52227189984E+02 -0.95548689427E+02  0.43610577404E+02  0.20819009075E+03  0.17200000000E+03 0. -1.
         -6    1    1    2    0  503  0.52227189984E+02  0.95548689427E+02 -0.39578298194E+03  0.44506786024E+03  0.17200000000E+03 0.  1.
<mgrwt>
<rscale>  2 0.20357119E+03</rscale>
<asrwt>0</asrwt>
<pdfrwt beam="1">  1       21 0.37635694E-01 0.20357119E+03</pdfrwt>
<pdfrwt beam="2">  1       21 0.12567879E+00 0.20357119E+03</pdfrwt>
<totfact> 0.31740960E+03</totfact>
</mgrwt>
</event>
<event>
 4    1  0.1091654E+000  0.1789001E+03  0.7546771E-02  0.1168872E+00
         21   -1    0    0  501  502  0.00000000000E+00  0.00000000000E+00  0.58522086568E+02  0.58522086568E+02  0.00000000000E+00 0. -1.
         21   -1    0    0  502  503 -0.00000000000E+00 -0.00000000000E+00 -0.60769043918E+03  0.60769043918E+03  0.00000000000E+00 0. -1.
          6    1    1    2  501    0 -0.26498697246E+02  0.41461497171E+02 -0.16922089380E+03  0.24625382759E+03  0.17200000000E+03 0. -1.
         -6    1    1    2    0  503  0.26498697246E+02 -0.41461497171E+02 -0.37994745881E+03  0.41995869816E+03  0.17200000000E+03 0. -1.
<mgrwt>
<rscale>  2 0.17890007E+03</rscale>
<asrwt>0</asrwt>
<pdfrwt beam="1">  1       21 0.14630522E-01 0.17890007E+03</pdfrwt>
<pdfrwt beam="2">  1       21 0.15192261E+00 0.17890007E+03</pdfrwt>
<totfact> 0.11987281E+04</totfact>
</mgrwt>
</event>
<event>
 4    1  0.1091654E+000  0.1723364E+03  0.7546771E-02  0.1175433E+00
         21   -1    0    0  503  502  0.00000000000E+00  0.00000000000E+00  0.13606147236E+03  0.13606147236E+03  0.00000000000E+00 0.  1.
         21   -1    0    0  501  503 -0.00000000000E+00 -0.00000000000E+00 -0.21921577588E+03  0.21921577588E+03  0.00000000000E+00 0.  1.
          6    1    1    2  501    0 -0.73812938482E+00 -0.10737552723E+02 -0.53167697797E+02  0.18035144569E+03  0.17200000000E+03 0.  1.
         -6    1    1    2    0  502  0.73812938482E+00  0.10737552723E+02 -0.29986605727E+02  0.17492580255E+03  0.17200000000E+03 0.  1.
<mgrwt>
<rscale>  2 0.17233641E+03</rscale>
<asrwt>0</asrwt>
<pdfrwt beam="1">  1       21 0.34015368E-01 0.17233641E+03</pdfrwt>
<pdfrwt beam="2">  1       21 0.54803944E-01 0.17233641E+03</pdfrwt>
<totfact> 0.26474773E+04</totfact>
</mgrwt>
</event>
<event>
 4    1  0.1091654E+000  0.1817904E+03  0.7546771E-02  0.1166081E+00
         21   -1    0    0  501  502  0.00000000000E+00  0.00000000000E+00  0.14452611959E+04  0.14452611959E+04  0.00000000000E+00 0.  1.
         21   -1    0    0  502  503 -0.00000000000E+00 -0.00000000000E+00 -0.57647124614E+02  0.57647124614E+02  0.00000000000E+00 0.  1.
          6    1    1    2  501    0  0.53693788591E+02  0.24098401023E+02  0.12774989708E+04  0.12903686978E+04  0.17200000000E+03 0.  1.
         -6    1    1    2    0  503 -0.53693788591E+02 -0.24098401023E+02  0.11011510047E+03  0.21253962270E+03  0.17200000000E+03 0.  1.
<mgrwt>
<rscale>  2 0.18179042E+03</rscale>
<asrwt>0</asrwt>
<pdfrwt beam="1">  1       21 0.36131518E+00 0.18179042E+03</pdfrwt>
<pdfrwt beam="2">  1       21 0.14411786E-01 0.18179042E+03</pdfrwt>
<totfact> 0.64316835E+02</totfact>
</mgrwt>
</event>
<event>
 4    1  0.1091654E+000  0.1856278E+03  0.7546771E-02  0.1162465E+00
         21   -1    0    0  503  502  0.00000000000E+00  0.00000000000E+00  0.81197751466E+02  0.81197751466E+02  0.00000000000E+00 0.  1.
         21   -1    0    0  501  503 -0.00000000000E+00 -0.00000000000E+00 -0.48039125927E+03  0.48039125927E+03  0.00000000000E+00 0.  1.
          6    1    1    2  501    0 -0.66262023440E+02 -0.21977500368E+02 -0.29548782286E+03  0.34895661583E+03  0.17200000000E+03 0.  1.
         -6    1    1    2    0  502  0.66262023440E+02  0.21977500368E+02 -0.10370568494E+03  0.21263239490E+03  0.17200000000E+03 0.  1.
<mgrwt>
<rscale>  2 0.18562776E+03</rscale>
<asrwt>0</asrwt>
<pdfrwt beam="1">  1       21 0.20299438E-01 0.18562776E+03</pdfrwt>
<pdfrwt beam="2">  1       21 0.12009781E+00 0.18562776E+03</pdfrwt>
<totfact> 0.11890611E+04</totfact>
</mgrwt>
</event>
<event>
 4    1  0.1091654E+000  0.2730144E+03  0.7546771E-02  0.1099567E+00
         21   -1    0    0  501  502  0.00000000000E+00  0.00000000000E+00  0.26810130820E+03  0.26810130820E+03  0.00000000000E+00 0. -1.
         21   -1    0    0  502  503 -0.00000000000E+00 -0.00000000000E+00 -0.28102453646E+03  0.28102453646E+03  0.00000000000E+00 0.  1.
          6    1    1    2  501    0  0.16785992378E+03  0.12952184902E+03  0.21939604777E+02  0.27389452284E+03  0.17200000000E+03 0.  1.
         -6    1    1    2    0  503 -0.16785992378E+03 -0.12952184902E+03 -0.34862833044E+02  0.27523132182E+03  0.17200000000E+03 0. -1.
<mgrwt>
<rscale>  2 0.27301440E+03</rscale>
<asrwt>0</asrwt>
<pdfrwt beam="1">  1       21 0.67025327E-01 0.27301440E+03</pdfrwt>
<pdfrwt beam="2">  1       21 0.70256134E-01 0.27301440E+03</pdfrwt>
<totfact> 0.35397219E+03</totfact>
</mgrwt>
</event>
<event>
 4    1  0.1091654E+000  0.2471841E+03  0.7546771E-02  0.1115097E+00
         21   -1    0    0  503  502  0.00000000000E+00  0.00000000000E+00  0.34697282314E+03  0.34697282314E+03  0.00000000000E+00 0.  1.
         21   -1    0    0  501  503 -0.00000000000E+00 -0.00000000000E+00 -0.18047038611E+03  0.18047038611E+03  0.00000000000E+00 0. -1.
          6    1    1    2  501    0  0.16088277748E+03  0.75051481143E+02  0.12431676295E+03  0.27668511066E+03  0.17200000000E+03 0.  1.
         -6    1    1    2    0  502 -0.16088277748E+03 -0.75051481143E+02  0.42185674085E+02  0.25075809859E+03  0.17200000000E+03 0.  1.
<mgrwt>
<rscale>  2 0.24718413E+03</rscale>
<asrwt>0</asrwt>
<pdfrwt beam="1">  1       21 0.86743205E-01 0.24718413E+03</pdfrwt>
<pdfrwt beam="2">  1       21 0.45117597E-01 0.24718413E+03</pdfrwt>
<totfact> 0.51869999E+03</totfact>
</mgrwt>
</event>
<event>
 4    1  0.1091654E+000  0.2300965E+03  0.7546771E-02  0.1126572E+00
         21   -1    0    0  501  502  0.00000000000E+00  0.00000000000E+00  0.12366313845E+03  0.12366313845E+03  0.00000000000E+00 0. -1.
         21   -1    0    0  502  503 -0.00000000000E+00 -0.00000000000E+00 -0.67407211685E+03  0.67407211685E+03  0.00000000000E+00 0. -1.
          6    1    1    2  501    0  0.15280049668E+03  0.35200788026E+01 -0.34275747962E+02  0.23263535767E+03  0.17200000000E+03 0. -1.
         -6    1    1    2    0  503 -0.15280049668E+03 -0.35200788026E+01 -0.51613323044E+03  0.56509989763E+03  0.17200000000E+03 0. -1.
<mgrwt>
<rscale>  2 0.23009646E+03</rscale>
<asrwt>0</asrwt>
<pdfrwt beam="1">  1       21 0.30915785E-01 0.23009646E+03</pdfrwt>
<pdfrwt beam="2">  1       21 0.16851803E+00 0.23009646E+03</pdfrwt>
<totfact> 0.21223147E+03</totfact>
</mgrwt>
</event>
<event>
 4    1  0.1091654E+000  0.1855860E+03  0.7546771E-02  0.1162504E+00
         21   -1    0    0  503  502  0.00000000000E+00  0.00000000000E+00  0.76485330180E+03  0.76485330180E+03  0.00000000000E+00 0. -1.
         21   -1    0    0  501  503 -0.00000000000E+00 -0.00000000000E+00 -0.48979984594E+02  0.48979984594E+02  0.00000000000E+00 0. -1.
          6    1    1    2  501    0  0.35391184852E+02 -0.60046911827E+02  0.24239605254E+03  0.30528349754E+03  0.17200000000E+03 0. -1.
         -6    1    1    2    0  502 -0.35391184852E+02  0.60046911827E+02  0.47347726466E+03  0.50854978885E+03  0.17200000000E+03 0. -1.
<mgrwt>
<rscale>  2 0.18558601E+03</rscale>
<asrwt>0</asrwt>
<pdfrwt beam="1">  1       21 0.19121329E+00 0.18558601E+03</pdfrwt>
<pdfrwt beam="2">  1       21 0.12244999E-01 0.18558601E+03</pdfrwt>
<totfact> 0.87189085E+03</totfact>
</mgrwt>
</event>
<event>
 4    1  0.1091654E+000  0.1986822E+03  0.7546771E-02  0.1150856E+00
         21   -1    0    0  501  502  0.00000000000E+00  0.00000000000E+00  0.98975211153E+03  0.98975211153E+03  0.00000000000E+00 0.  1.
         21   -1    0    0  502  503 -0.00000000000E+00 -0.00000000000E+00 -0.39944337678E+02  0.39944337678E+02  0.00000000000E+00 0. -1.
          6    1    1    2  501    0 -0.17669269095E+02 -0.97869279786E+02  0.49502646952E+03  0.53340960295E+03  0.17200000000E+03 0. -1.
         -6    1    1    2    0  503  0.17669269095E+02  0.97869279786E+02  0.45478130433E+03  0.49628684625E+03  0.17200000000E+03 0.  1.
<mgrwt>
<rscale>  2 0.19868216E+03</rscale>
<asrwt>0</asrwt>
<pdfrwt beam="1">  1       21 0.24743795E+00 0.19868216E+03</pdfrwt>
<pdfrwt beam="2">  1       21 0.99860877E-02 0.19868216E+03</pdfrwt>
<totfact> 0.55661509E+03</totfact>
</mgrwt>
</event>
<event>
 4    1  0.1091654E+000  0.1855950E+03  0.7546771E-02  0.1162495E+00
         21   -1    0    0  501  502  0.00000000000E+00  0.00000000000E+00  0.79463946666E+03  0.79463946666E+03  0.00000000000E+00 0. -1.
         21   -1    0    0  502  503 -0.00000000000E+00 -0.00000000000E+00 -0.73919463792E+02  0.73919463792E+02  0.00000000000E+00 0. -1.
          6    1    1    2  501    0  0.49620432695E+02 -0.48982886473E+02  0.63964825160E+03  0.66602957614E+03  0.17200000000E+03 0. -1.
         -6    1    1    2    0  503 -0.49620432695E+02  0.48982886473E+02  0.81071751269E+02  0.20252935432E+03  0.17200000000E+03 0. -1.
<mgrwt>
<rscale>  2 0.18559502E+03</rscale>
<asrwt>0</asrwt>
<pdfrwt beam="1">  1       21 0.19865984E+00 0.18559502E+03</pdfrwt>
<pdfrwt beam="2">  1       21 0.18479868E-01 0.18559502E+03</pdfrwt>
<totfact> 0.36877828E+03</totfact>
</mgrwt>
</event>
<event>
 4    1  0.1091654E+000  0.1771529E+03  0.7546771E-02  0.1170587E+00
         21   -1    0    0  501  502  0.00000000000E+00  0.00000000000E+00  0.27959771501E+03  0.27959771501E+03  0.00000000000E+00 0. -1.
         21   -1    0    0  502  503 -0.00000000000E+00 -0.00000000000E+00 -0.51197333945E+03  0.51197333945E+03  0.00000000000E+00 0. -1.
          6    1    1    2  501    0 -0.17731141040E+02 -0.38532604611E+02  0.23353122202E+03  0.29312111258E+03  0.17200000000E+03 0. -1.
         -6    1    1    2    0  503  0.17731141040E+02  0.38532604611E+02 -0.46590684646E+03  0.49844994188E+03  0.17200000000E+03 0. -1.
<mgrwt>
<rscale>  2 0.17715291E+03</rscale>
<asrwt>0</asrwt>
<pdfrwt beam="1">  1       21 0.69899429E-01 0.17715291E+03</pdfrwt>
<pdfrwt beam="2">  1       21 0.12799333E+00 0.17715291E+03</pdfrwt>
<totfact> 0.84976920E+02</totfact>
</mgrwt>
</event>
<event>
 4    1  0.1091654E+000  0.1935650E+03  0.7546771E-02  0.1155285E+00
         21   -1    0    0  503  502  0.00000000000E+00  0.00000000000E+00  0.35262326608E+02  0.35262326608E+02  0.00000000000E+00 0. -1.
         21   -1    0    0  501  503 -0.00000000000E+00 -0.00000000000E+00 -0.10638995907E+04  0.10638995907E+04  0.00000000000E+00 0. -1.
          6    1    1    2  501    0 -0.28352025546E+01 -0.88743275621E+02 -0.49462603712E+03  0.53115188406E+03  0.17200000000E+03 0. -1.
         -6    1    1    2    0  502  0.28352025546E+01  0.88743275621E+02 -0.53401122698E+03  0.56801003326E+03  0.17200000000E+03 0. -1.
<mgrwt>
<rscale>  2 0.19356500E+03</rscale>
<asrwt>0</asrwt>
<pdfrwt beam="1">  1       21 0.88155817E-02 0.19356500E+03</pdfrwt>
<pdfrwt beam="2">  1       21 0.26597490E+00 0.19356500E+03</pdfrwt>
<totfact> 0.54282008E+03</totfact>
</mgrwt>
</event>
<event>
 4    1  0.1091654E+000  0.2490428E+03  0.7546771E-02  0.1113911E+00
         21   -1    0    0  501  502  0.00000000000E+00  0.00000000000E+00  0.73953549986E+03  0.73953549986E+03  0.00000000000E+00 0. -1.
         21   -1    0    0  502  503 -0.00000000000E+00 -0.00000000000E+00 -0.83903501487E+02  0.83903501487E+02  0.00000000000E+00 0. -1.
          6    1    1    2  501    0  0.16357380162E+03  0.75378452185E+02  0.33645490189E+03  0.41859789851E+03  0.17200000000E+03 0. -1.
         -6    1    1    2    0  503 -0.16357380162E+03 -0.75378452185E+02  0.31917709648E+03  0.40484110284E+03  0.17200000000E+03 0. -1.
<mgrwt>
<rscale>  2 0.24904277E+03</rscale>
<asrwt>0</asrwt>
<pdfrwt beam="1">  1       21 0.18488386E+00 0.24904277E+03</pdfrwt>
<pdfrwt beam="2">  1       21 0.20975878E-01 0.24904277E+03</pdfrwt>
<totfact> 0.33948711E+03</totfact>
</mgrwt>
</event>
<event>
 4    1  0.1091654E+000  0.1795081E+03  0.7546771E-02  0.1168280E+00
         21   -1    0    0  501  502  0.00000000000E+00  0.00000000000E+00  0.29623210348E+03  0.29623210348E+03  0.00000000000E+00 0.  1.
         21   -1    0    0  502  503 -0.00000000000E+00 -0.00000000000E+00 -0.16325555292E+03  0.16325555292E+03  0.00000000000E+00 0.  1.
          6    1    1    2  501    0 -0.29303913702E+02 -0.42195351647E+02  0.19920438075E+03  0.26815210678E+03  0.17200000000E+03 0.  1.
         -6    1    1    2    0  503  0.29303913702E+02  0.42195351647E+02 -0.66227830191E+02  0.19133554963E+03  0.17200000000E+03 0.  1.
<mgrwt>
<rscale>  2 0.17950813E+03</rscale>
<asrwt>0</asrwt>
<pdfrwt beam="1">  1       21 0.74058025E-01 0.17950813E+03</pdfrwt>
<pdfrwt beam="2">  1       21 0.40813889E-01 0.17950813E+03</pdfrwt>
<totfact> 0.95452426E+03</totfact>
</mgrwt>
</event>
<event>
 4    1  0.1091654E+000  0.1798150E+03  0.7546771E-02  0.1167982E+00
         21   -1    0    0  503  502  0.00000000000E+00  0.00000000000E+00  0.30013798787E+03  0.30013798787E+03  0.00000000000E+00 0. -1.
         21   -1    0    0  501  503 -0.00000000000E+00 -0.00000000000E+00 -0.11704645137E+03  0.11704645137E+03  0.00000000000E+00 0. -1.
          6    1    1    2  501    0 -0.32269923474E+02  0.41329093606E+02  0.15039992282E+03  0.23442179660E+03  0.17200000000E+03 0.  1.
         -6    1    1    2    0  502  0.32269923474E+02 -0.41329093606E+02  0.32691613685E+02  0.18276264264E+03  0.17200000000E+03 0.  1.
<mgrwt>
<rscale>  2 0.17981502E+03</rscale>
<asrwt>0</asrwt>
<pdfrwt beam="1">  1       21 0.75034495E-01 0.17981502E+03</pdfrwt>
<pdfrwt beam="2">  1       21 0.29261613E-01 0.17981502E+03</pdfrwt>
<totfact> 0.17907853E+04</totfact>
</mgrwt>
</event>
<event>
 4    1  0.1091654E+000  0.2776143E+03  0.7546771E-02  0.1096999E+00
         21   -1    0    0  501  502  0.00000000000E+00  0.00000000000E+00  0.11746646432E+03  0.11746646432E+03  0.00000000000E+00 0.  1.
         21   -1    0    0  502  503 -0.00000000000E+00 -0.00000000000E+00 -0.88213820650E+03  0.88213820650E+03  0.00000000000E+00 0.  1.
          6    1    1    2  501    0 -0.84215211222E+02  0.20098138622E+03 -0.12933552286E+03  0.30626360685E+03  0.17200000000E+03 0.  1.
         -6    1    1    2    0  503  0.84215211222E+02 -0.20098138622E+03 -0.63533621932E+03  0.69334106397E+03  0.17200000000E+03 0.  1.
<mgrwt>
<rscale>  2 0.27761434E+03</rscale>
<asrwt>0</asrwt>
<pdfrwt beam="1">  1       21 0.29366616E-01 0.27761434E+03</pdfrwt>
<pdfrwt beam="2">  1       21 0.22053455E+00 0.27761434E+03</pdfrwt>
<totfact> 0.10209091E+03</totfact>
</mgrwt>
</event>
<event>
 4    1  0.1091654E+000  0.1763703E+03  0.7546771E-02  0.1171363E+00
         21   -1    0    0  501  502  0.00000000000E+00  0.00000000000E+00  0.88649390156E+02  0.88649390156E+02  0.00000000000E+00 0. -1.
         21   -1    0    0  502  503 -0.00000000000E+00 -0.00000000000E+00 -0.38087220746E+03  0.38087220746E+03  0.00000000000E+00 0. -1.
          6    1    1    2  501    0  0.28508245501E+02  0.26641313562E+02 -0.21197472975E+03  0.27575308829E+03  0.17200000000E+03 0. -1.
         -6    1    1    2    0  503 -0.28508245501E+02 -0.26641313562E+02 -0.80248087556E+02  0.19376850933E+03  0.17200000000E+03 0. -1.
<mgrwt>
<rscale>  2 0.17637029E+03</rscale>
<asrwt>0</asrwt>
<pdfrwt beam="1">  1       21 0.22162348E-01 0.17637029E+03</pdfrwt>
<pdfrwt beam="2">  1       21 0.95218051E-01 0.17637029E+03</pdfrwt>
<totfact> 0.17723565E+04</totfact>
</mgrwt>
</event>
<event>
 4    1  0.1091654E+000  0.2299389E+03  0.7546771E-02  0.1126683E+00
         21   -1    0    0  501  502  0.00000000000E+00  0.00000000000E+00  0.28435564417E+03  0.28435564417E+03  0.00000000000E+00 0.  1.
         21   -1    0    0  502  503 -0.00000000000E+00 -0.00000000000E+00 -0.18601886360E+03  0.18601886360E+03  0.00000000000E+00 0.  1.
          6    1    1    2  501    0  0.15148384489E+03 -0.18453691094E+02  0.54138231922E+02  0.23622625200E+03  0.17200000000E+03 0.  1.
         -6    1    1    2    0  503 -0.15148384489E+03  0.18453691094E+02  0.44198548647E+02  0.23414825577E+03  0.17200000000E+03 0.  1.
<mgrwt>
<rscale>  2 0.22993889E+03</rscale>
<asrwt>0</asrwt>
<pdfrwt beam="1">  1       21 0.71088910E-01 0.22993889E+03</pdfrwt>
<pdfrwt beam="2">  1       21 0.46504716E-01 0.22993889E+03</pdfrwt>
<totfact> 0.77306078E+03</totfact>
</mgrwt>
</event>
<event>
 4    1  0.1091654E+000  0.1721188E+03  0.7546771E-02  0.1175656E+00
         21   -1    0    0  503  502  0.00000000000E+00  0.00000000000E+00  0.36413007852E+03  0.36413007852E+03  0.00000000000E+00 0.  1.
         21   -1    0    0  501  503 -0.00000000000E+00 -0.00000000000E+00 -0.20318270480E+03  0.20318270480E+03  0.00000000000E+00 0.  1.
          6    1    1    2  501    0 -0.42117387772E+01 -0.48106551640E+01 -0.13916910564E+03  0.22134344606E+03  0.17200000000E+03 0.  1.
         -6    1    1    2    0  502  0.42117387772E+01  0.48106551640E+01  0.30011647936E+03  0.34596933727E+03  0.17200000000E+03 0.  1.
<mgrwt>
<rscale>  2 0.17211880E+03</rscale>
<asrwt>0</asrwt>
<pdfrwt beam="1">  1       21 0.91032519E-01 0.17211880E+03</pdfrwt>
<pdfrwt beam="2">  1       21 0.50795677E-01 0.17211880E+03</pdfrwt>
<totfact> 0.38390381E+03</totfact>
</mgrwt>
</event>
<event>
 4    1  0.1091654E+000  0.1743373E+03  0.7546771E-02  0.1173399E+00
         21   -1    0    0  501  502  0.00000000000E+00  0.00000000000E+00  0.14498690222E+03  0.14498690222E+03  0.00000000000E+00 0. -1.
         21   -1    0    0  502  503 -0.00000000000E+00 -0.00000000000E+00 -0.21718242139E+03  0.21718242139E+03  0.00000000000E+00 0. -1.
          6    1    1    2  501    0 -0.19608939677E+02 -0.20614889849E+02 -0.23273556036E+01  0.17435280549E+03  0.17200000000E+03 0. -1.
         -6    1    1    2    0  503  0.19608939677E+02  0.20614889849E+02 -0.69868163563E+02  0.18781651812E+03  0.17200000000E+03 0. -1.
<mgrwt>
<rscale>  2 0.17433727E+03</rscale>
<asrwt>0</asrwt>
<pdfrwt beam="1">  1       21 0.36246726E-01 0.17433727E+03</pdfrwt>
<pdfrwt beam="2">  1       21 0.54295605E-01 0.17433727E+03</pdfrwt>
<totfact> 0.23778915E+04</totfact>
</mgrwt>
</event>
<event>
 4    1  0.1091654E+000  0.2170125E+03  0.7546771E-02  0.1136130E+00
         21   -1    0    0  503  502  0.00000000000E+00  0.00000000000E+00  0.54058355324E+02  0.54058355324E+02  0.00000000000E+00 0. -1.
         21   -1    0    0  501  503 -0.00000000000E+00 -0.00000000000E+00 -0.90222634529E+03  0.90222634529E+03  0.00000000000E+00 0.  1.
          6    1    1    2  501    0  0.94221361439E+02  0.92912704014E+02 -0.51278336734E+03  0.55681344932E+03  0.17200000000E+03 0. -1.
         -6    1    1    2    0  502 -0.94221361439E+02 -0.92912704014E+02 -0.33538462262E+03  0.39947125129E+03  0.17200000000E+03 0. -1.
<mgrwt>
<rscale>  2 0.21701252E+03</rscale>
<asrwt>0</asrwt>
<pdfrwt beam="1">  1       21 0.13514589E-01 0.21701252E+03</pdfrwt>
<pdfrwt beam="2">  1       21 0.22555659E+00 0.21701252E+03</pdfrwt>
<totfact> 0.43078038E+03</totfact>
</mgrwt>
</event>
<event>
 4    1  0.1091654E+000  0.1851612E+03  0.7546771E-02  0.1162899E+00
         21   -1    0    0  501  502  0.00000000000E+00  0.00000000000E+00  0.51479645597E+03  0.51479645597E+03  0.00000000000E+00 0.  1.
         21   -1    0    0  502  503 -0.00000000000E+00 -0.00000000000E+00 -0.11491889903E+03  0.11491889903E+03  0.00000000000E+00 0.  1.
          6    1    1    2  501    0  0.32598084587E+02 -0.60316159724E+02  0.40410495408E+03  0.44450589215E+03  0.17200000000E+03 0.  1.
         -6    1    1    2    0  503 -0.32598084587E+02  0.60316159724E+02 -0.42273971466E+01  0.18520946285E+03  0.17200000000E+03 0.  1.
<mgrwt>
<rscale>  2 0.18516121E+03</rscale>
<asrwt>0</asrwt>
<pdfrwt beam="1">  1       21 0.12869911E+00 0.18516121E+03</pdfrwt>
<pdfrwt beam="2">  1       21 0.28729726E-01 0.18516121E+03</pdfrwt>
<totfact> 0.51706815E+03</totfact>
</mgrwt>
</event>
<event>
 4    1  0.1091654E+000  0.2485079E+03  0.7546771E-02  0.1114251E+00
         21   -1    0    0  501  502  0.00000000000E+00  0.00000000000E+00  0.77872852124E+03  0.77872852124E+03  0.00000000000E+00 0. -1.
         21   -1    0    0  502  503 -0.00000000000E+00 -0.00000000000E+00 -0.20691258670E+03  0.20691258670E+03  0.00000000000E+00 0.  1.
          6    1    1    2  501    0 -0.49229530519E+02  0.17247795660E+03  0.67292984292E+03  0.71734982099E+03  0.17200000000E+03 0. -1.
         -6    1    1    2    0  503  0.49229530519E+02 -0.17247795660E+03 -0.10111390837E+03  0.26829128695E+03  0.17200000000E+03 0.  1.
<mgrwt>
<rscale>  2 0.24850793E+03</rscale>
<asrwt>0</asrwt>
<pdfrwt beam="1">  1       21 0.19468212E+00 0.24850793E+03</pdfrwt>
<pdfrwt beam="2">  1       21 0.51728149E-01 0.24850793E+03</pdfrwt>
<totfact> 0.48571557E+02</totfact>
</mgrwt>
</event>
<event>
 4    1  0.1091654E+000  0.1792558E+03  0.7546771E-02  0.1168525E+00
         21   -1    0    0  503  502  0.00000000000E+00  0.00000000000E+00  0.52390974040E+03  0.52390974040E+03  0.00000000000E+00 0.  1.
         21   -1    0    0  501  503 -0.00000000000E+00 -0.00000000000E+00 -0.61481199797E+02  0.61481199797E+02  0.00000000000E+00 0.  1.
          6    1    1    2  501    0 -0.25138132915E+02 -0.43780351810E+02  0.21681510970E+03  0.28132087858E+03  0.17200000000E+03 0.  1.
         -6    1    1    2    0  502  0.25138132915E+02  0.43780351810E+02  0.24561343090E+03  0.30407006161E+03  0.17200000000E+03 0.  1.
<mgrwt>
<rscale>  2 0.17925581E+03</rscale>
<asrwt>0</asrwt>
<pdfrwt beam="1">  1       21 0.13097742E+00 0.17925581E+03</pdfrwt>
<pdfrwt beam="2">  1       21 0.15370302E-01 0.17925581E+03</pdfrwt>
<totfact> 0.16061244E+04</totfact>
</mgrwt>
</event>
<event>
 4    1  0.1091654E+000  0.1983866E+03  0.7546771E-02  0.1151107E+00
         21   -1    0    0  501  502  0.00000000000E+00  0.00000000000E+00  0.30019454219E+03  0.30019454219E+03  0.00000000000E+00 0. -1.
         21   -1    0    0  502  503 -0.00000000000E+00 -0.00000000000E+00 -0.57055544756E+03  0.57055544756E+03  0.00000000000E+00 0. -1.
          6    1    1    2  501    0  0.15460693757E+02 -0.97643238969E+02  0.24691259151E+03  0.31673816160E+03  0.17200000000E+03 0. -1.
         -6    1    1    2    0  503 -0.15460693757E+02  0.97643238969E+02 -0.51727349687E+03  0.55401182816E+03  0.17200000000E+03 0. -1.
<mgrwt>
<rscale>  2 0.19838658E+03</rscale>
<asrwt>0</asrwt>
<pdfrwt beam="1">  1       21 0.75048636E-01 0.19838658E+03</pdfrwt>
<pdfrwt beam="2">  1       21 0.14263886E+00 0.19838658E+03</pdfrwt>
<totfact> 0.53781433E+02</totfact>
</mgrwt>
</event>
<event>
 4    1  0.1091654E+000  0.2183993E+03  0.7546771E-02  0.1135082E+00
         21   -1    0    0  503  502  0.00000000000E+00  0.00000000000E+00  0.56728796614E+03  0.56728796614E+03  0.00000000000E+00 0.  1.
         21   -1    0    0  501  503 -0.00000000000E+00 -0.00000000000E+00 -0.11504185796E+03  0.11504185796E+03  0.00000000000E+00 0. -1.
          6    1    1    2  501    0 -0.51821129582E+02  0.12421280025E+03  0.49135979075E+02  0.22385842324E+03  0.17200000000E+03 0. -1.
         -6    1    1    2    0  502  0.51821129582E+02 -0.12421280025E+03  0.40311012910E+03  0.45847140085E+03  0.17200000000E+03 0.  1.
<mgrwt>
<rscale>  2 0.21839929E+03</rscale>
<asrwt>0</asrwt>
<pdfrwt beam="1">  1       21 0.14182198E+00 0.21839929E+03</pdfrwt>
<pdfrwt beam="2">  1       21 0.28760466E-01 0.21839929E+03</pdfrwt>
<totfact> 0.39180640E+03</totfact>
</mgrwt>
</event>
<event>
 4    1  0.1091654E+000  0.1779538E+03  0.7546771E-02  0.1169798E+00
         21   -1    0    0  503  502  0.00000000000E+00  0.00000000000E+00  0.22411374144E+03  0.22411374144E+03  0.00000000000E+00 0.  1.
         21   -1    0    0  501  503 -0.00000000000E+00 -0.00000000000E+00 -0.16814530881E+03  0.16814530881E+03  0.00000000000E+00 0. -1.
          6    1    1    2  501    0  0.65937633247E+01 -0.45167143442E+02  0.10634969797E+03  0.20731089412E+03  0.17200000000E+03 0.  1.
         -6    1    1    2    0  502 -0.65937633247E+01  0.45167143442E+02 -0.50381265339E+02  0.18494815614E+03  0.17200000000E+03 0. -1.
<mgrwt>
<rscale>  2 0.17795378E+03</rscale>
<asrwt>0</asrwt>
<pdfrwt beam="1">  1       21 0.56028435E-01 0.17795378E+03</pdfrwt>
<pdfrwt beam="2">  1       21 0.42036327E-01 0.17795378E+03</pdfrwt>
<totfact> 0.16486208E+04</totfact>
</mgrwt>
</event>
<event>
 4    1  0.1091654E+000  0.1924228E+03  0.7546771E-02  0.1156294E+00
         21   -1    0    0  503  502  0.00000000000E+00  0.00000000000E+00  0.88793697316E+03  0.88793697316E+03  0.00000000000E+00 0.  1.
         21   -1    0    0  501  503 -0.00000000000E+00 -0.00000000000E+00 -0.80051773917E+02  0.80051773917E+02  0.00000000000E+00 0.  1.
          6    1    1    2  501    0 -0.82712122929E+02 -0.24520098066E+02  0.68938304599E+02  0.20439916910E+03  0.17200000000E+03 0.  1.
         -6    1    1    2    0  502  0.82712122929E+02  0.24520098066E+02  0.73894689465E+03  0.76358957798E+03  0.17200000000E+03 0.  1.
<mgrwt>
<rscale>  2 0.19242279E+03</rscale>
<asrwt>0</asrwt>
<pdfrwt beam="1">  1       21 0.22198421E+00 0.19242279E+03</pdfrwt>
<pdfrwt beam="2">  1       21 0.20012946E-01 0.19242279E+03</pdfrwt>
<totfact> 0.22559008E+03</totfact>
</mgrwt>
</event>
<event>
 4    1  0.1091654E+000  0.2047476E+03  0.7546771E-02  0.1145794E+00
         21   -1    0    0  501  502  0.00000000000E+00  0.00000000000E+00  0.54602326698E+03  0.54602326698E+03  0.00000000000E+00 0.  1.
         21   -1    0    0  502  503 -0.00000000000E+00 -0.00000000000E+00 -0.91547478197E+02  0.91547478197E+02  0.00000000000E+00 0. -1.
          6    1    1    2  501    0  0.84880567274E+02  0.71643928311E+02  0.35528949043E+03  0.41006363552E+03  0.17200000000E+03 0.  1.
         -6    1    1    2    0  503 -0.84880567274E+02 -0.71643928311E+02  0.99186298354E+02  0.22750710966E+03  0.17200000000E+03 0. -1.
<mgrwt>
<rscale>  2 0.20474756E+03</rscale>
<asrwt>0</asrwt>
<pdfrwt beam="1">  1       21 0.13650581E+00 0.20474756E+03</pdfrwt>
<pdfrwt beam="2">  1       21 0.22886871E-01 0.20474756E+03</pdfrwt>
<totfact> 0.67770709E+03</totfact>
</mgrwt>
</event>
<event>
 4    1  0.1091654E+000  0.2186467E+03  0.7546771E-02  0.1134896E+00
         21   -1    0    0  503  502  0.00000000000E+00  0.00000000000E+00  0.51125107043E+03  0.51125107043E+03  0.00000000000E+00 0. -1.
         21   -1    0    0  501  503 -0.00000000000E+00 -0.00000000000E+00 -0.93610420516E+02  0.93610420516E+02  0.00000000000E+00 0.  1.
          6    1    1    2  501    0 -0.15797728412E+02 -0.13406264946E+03  0.21879552702E+03  0.30931835518E+03  0.17200000000E+03 0.  1.
         -6    1    1    2    0  502  0.15797728412E+02  0.13406264946E+03  0.19884512290E+03  0.29554313577E+03  0.17200000000E+03 0. -1.
<mgrwt>
<rscale>  2 0.21864666E+03</rscale>
<asrwt>0</asrwt>
<pdfrwt beam="1">  1       21 0.12781276E+00 0.21864666E+03</pdfrwt>
<pdfrwt beam="2">  1       21 0.23402607E-01 0.21864666E+03</pdfrwt>
<totfact> 0.76003840E+03</totfact>
</mgrwt>
</event>
<event>
 4    1  0.1091654E+000  0.1790877E+03  0.7546771E-02  0.1168689E+00
         21   -1    0    0  501  502  0.00000000000E+00  0.00000000000E+00  0.22343077449E+03  0.22343077449E+03  0.00000000000E+00 0. -1.
         21   -1    0    0  502  503 -0.00000000000E+00 -0.00000000000E+00 -0.66422781013E+03  0.66422781013E+03  0.00000000000E+00 0. -1.
          6    1    1    2  501    0 -0.96338812176E+01  0.48944687686E+02  0.17255756008E+03  0.24869359795E+03  0.17200000000E+03 0. -1.
         -6    1    1    2    0  503  0.96338812176E+01 -0.48944687686E+02 -0.61335459571E+03  0.63896498667E+03  0.17200000000E+03 0. -1.
<mgrwt>
<rscale>  2 0.17908767E+03</rscale>
<asrwt>0</asrwt>
<pdfrwt beam="1">  1       21 0.55857694E-01 0.17908767E+03</pdfrwt>
<pdfrwt beam="2">  1       21 0.16605695E+00 0.17908767E+03</pdfrwt>
<totfact> 0.69776195E+02</totfact>
</mgrwt>
</event>
<event>
 4    1  0.1091654E+000  0.1864731E+03  0.7546771E-02  0.1161681E+00
         21   -1    0    0  501  502  0.00000000000E+00  0.00000000000E+00  0.55579313703E+02  0.55579313703E+02  0.00000000000E+00 0.  1.
         21   -1    0    0  502  503 -0.00000000000E+00 -0.00000000000E+00 -0.82494072831E+03  0.82494072831E+03  0.00000000000E+00 0.  1.
          6    1    1    2  501    0  0.59068539544E+02  0.41220571957E+02 -0.16827912406E+03  0.25117741043E+03  0.17200000000E+03 0. -1.
         -6    1    1    2    0  503 -0.59068539544E+02 -0.41220571957E+02 -0.60108229055E+03  0.62934263158E+03  0.17200000000E+03 0. -1.
<mgrwt>
<rscale>  2 0.18647313E+03</rscale>
<asrwt>0</asrwt>
<pdfrwt beam="1">  1       21 0.13894829E-01 0.18647313E+03</pdfrwt>
<pdfrwt beam="2">  1       21 0.20623518E+00 0.18647313E+03</pdfrwt>
<totfact> 0.55556457E+03</totfact>
</mgrwt>
</event>
<event>
 4    1  0.1091654E+000  0.1826361E+03  0.7546771E-02  0.1165276E+00
         21   -1    0    0  501  502  0.00000000000E+00  0.00000000000E+00  0.26666252723E+03  0.26666252723E+03  0.00000000000E+00 0. -1.
         21   -1    0    0  502  503 -0.00000000000E+00 -0.00000000000E+00 -0.42738961924E+03  0.42738961924E+03  0.00000000000E+00 0. -1.
          6    1    1    2  501    0 -0.28978421588E+02 -0.54149634933E+02  0.21149425211E+03  0.27943827683E+03  0.17200000000E+03 0. -1.
         -6    1    1    2    0  503  0.28978421588E+02  0.54149634933E+02 -0.37222134412E+03  0.41461386964E+03  0.17200000000E+03 0. -1.
<mgrwt>
<rscale>  2 0.18263606E+03</rscale>
<asrwt>0</asrwt>
<pdfrwt beam="1">  1       21 0.66665632E-01 0.18263606E+03</pdfrwt>
<pdfrwt beam="2">  1       21 0.10684740E+00 0.18263606E+03</pdfrwt>
<totfact> 0.14592138E+03</totfact>
</mgrwt>
</event>
<event>
 4    1  0.1091654E+000  0.1794356E+03  0.7546771E-02  0.1168350E+00
         21   -1    0    0  503  502  0.00000000000E+00  0.00000000000E+00  0.51138086100E+03  0.51138086100E+03  0.00000000000E+00 0.  1.
         21   -1    0    0  501  503 -0.00000000000E+00 -0.00000000000E+00 -0.65887580276E+02  0.65887580276E+02  0.00000000000E+00 0.  1.
          6    1    1    2  501    0  0.46403409475E+02 -0.21444623901E+02  0.28357583324E+03  0.33557771306E+03  0.17200000000E+03 0.  1.
         -6    1    1    2    0  502 -0.46403409475E+02  0.21444623901E+02  0.16191744748E+03  0.24169072821E+03  0.17200000000E+03 0.  1.
<mgrwt>
<rscale>  2 0.17943564E+03</rscale>
<asrwt>0</asrwt>
<pdfrwt beam="1">  1       21 0.12784520E+00 0.17943564E+03</pdfrwt>
<pdfrwt beam="2">  1       21 0.16471897E-01 0.17943564E+03</pdfrwt>
<totfact> 0.15040050E+04</totfact>
</mgrwt>
</event>
<event>
 4    1  0.1091654E+000  0.2034354E+03  0.7546771E-02  0.1146872E+00
         21   -1    0    0  503  502  0.00000000000E+00  0.00000000000E+00  0.18310082890E+03  0.18310082890E+03  0.00000000000E+00 0.  1.
         21   -1    0    0  501  503 -0.00000000000E+00 -0.00000000000E+00 -0.26127892300E+03  0.26127892300E+03  0.00000000000E+00 0.  1.
          6    1    1    2  501    0 -0.93895792408E+02 -0.54640249116E+02 -0.12070127269E+03  0.23654761442E+03  0.17200000000E+03 0.  1.
         -6    1    1    2    0  502  0.93895792408E+02  0.54640249116E+02  0.42523178588E+02  0.20783213749E+03  0.17200000000E+03 0.  1.
<mgrwt>
<rscale>  2 0.20343544E+03</rscale>
<asrwt>0</asrwt>
<pdfrwt beam="1">  1       21 0.45775207E-01 0.20343544E+03</pdfrwt>
<pdfrwt beam="2">  1       21 0.65319730E-01 0.20343544E+03</pdfrwt>
<totfact> 0.97921769E+03</totfact>
</mgrwt>
</event>
<event>
 4    1  0.1091654E+000  0.1749132E+03  0.7546771E-02  0.1172819E+00
         21   -1    0    0  501  502  0.00000000000E+00  0.00000000000E+00  0.14762759743E+03  0.14762759743E+03  0.00000000000E+00 0.  1.
         21   -1    0    0  502  503 -0.00000000000E+00 -0.00000000000E+00 -0.39329999876E+03  0.39329999876E+03  0.00000000000E+00 0.  1.
          6    1    1    2  501    0  0.13223881484E+01  0.31763017356E+02  0.63188813864E+02  0.18597705283E+03  0.17200000000E+03 0.  1.
         -6    1    1    2    0  503 -0.13223881484E+01 -0.31763017356E+02 -0.30886121519E+03  0.35495054336E+03  0.17200000000E+03 0.  1.
<mgrwt>
<rscale>  2 0.17491323E+03</rscale>
<asrwt>0</asrwt>
<pdfrwt beam="1">  1       21 0.36906900E-01 0.17491323E+03</pdfrwt>
<pdfrwt beam="2">  1       21 0.98324999E-01 0.17491323E+03</pdfrwt>
<totfact> 0.61345447E+03</totfact>
</mgrwt>
</event>
<event>
 4    1  0.1091654E+000  0.1759749E+03  0.7546771E-02  0.1171756E+00
         21   -1    0    0  503  502  0.00000000000E+00  0.00000000000E+00  0.94164292833E+02  0.94164292833E+02  0.00000000000E+00 0.  1.
         21   -1    0    0  501  503 -0.00000000000E+00 -0.00000000000E+00 -0.37914650059E+03  0.37914650059E+03  0.00000000000E+00 0.  1.
          6    1    1    2  501    0 -0.26152340226E+02  0.26442818289E+02 -0.22867476092E+03  0.28854690056E+03  0.17200000000E+03 0.  1.
         -6    1    1    2    0  502  0.26152340226E+02 -0.26442818289E+02 -0.56307446835E+02  0.18476389287E+03  0.17200000000E+03 0.  1.
<mgrwt>
<rscale>  2 0.17597491E+03</rscale>
<asrwt>0</asrwt>
<pdfrwt beam="1">  1       21 0.23541073E-01 0.17597491E+03</pdfrwt>
<pdfrwt beam="2">  1       21 0.94786625E-01 0.17597491E+03</pdfrwt>
<totfact> 0.15988015E+04</totfact>
</mgrwt>
</event>
<event>
 4    1  0.1091654E+000  0.1953130E+03  0.7546771E-02  0.1153755E+00
         21   -1    0    0  501  502  0.00000000000E+00  0.00000000000E+00  0.16409394757E+03  0.16409394757E+03  0.00000000000E+00 0.  1.
         21   -1    0    0  502  503 -0.00000000000E+00 -0.00000000000E+00 -0.75379121736E+03  0.75379121736E+03  0.00000000000E+00 0.  1.
          6    1    1    2  501    0 -0.92432249412E+02 -0.44119314546E+01  0.86818569664E+02  0.21373967790E+03  0.17200000000E+03 0.  1.
         -6    1    1    2    0  503  0.92432249412E+02  0.44119314546E+01 -0.67651583945E+03  0.70414548703E+03  0.17200000000E+03 0.  1.
<mgrwt>
<rscale>  2 0.19531305E+03</rscale>
<asrwt>0</asrwt>
<pdfrwt beam="1">  1       21 0.41023488E-01 0.19531305E+03</pdfrwt>
<pdfrwt beam="2">  1       21 0.18844780E+00 0.19531305E+03</pdfrwt>
<totfact> 0.91127414E+02</totfact>
</mgrwt>
</event>
<event>
 4    1  0.1091654E+000  0.1748722E+03  0.7546771E-02  0.1172860E+00
         21   -1    0    0  501  502  0.00000000000E+00  0.00000000000E+00  0.10290972456E+04  0.10290972456E+04  0.00000000000E+00 0.  1.
         21   -1    0    0  502  503 -0.00000000000E+00 -0.00000000000E+00 -0.39979270453E+02  0.39979270453E+02  0.00000000000E+00 0.  1.
          6    1    1    2  501    0  0.21763230692E+02  0.22861589556E+02  0.76539830877E+03  0.78512092161E+03  0.17200000000E+03 0.  1.
         -6    1    1    2    0  503 -0.21763230692E+02 -0.22861589556E+02  0.22371966636E+03  0.28395559442E+03  0.17200000000E+03 0.  1.
<mgrwt>
<rscale>  2 0.17487221E+03</rscale>
<asrwt>0</asrwt>
<pdfrwt beam="1">  1       21 0.25727422E+00 0.17487221E+03</pdfrwt>
<pdfrwt beam="2">  1       21 0.99948210E-02 0.17487221E+03</pdfrwt>
<totfact> 0.49922168E+03</totfact>
</mgrwt>
</event>
<event>
 4    1  0.1091654E+000  0.2084038E+03  0.7546771E-02  0.1142836E+00
         21   -1    0    0  503  502  0.00000000000E+00  0.00000000000E+00  0.25236615915E+03  0.25236615915E+03  0.00000000000E+00 0.  1.
         21   -1    0    0  501  503 -0.00000000000E+00 -0.00000000000E+00 -0.17248327185E+03  0.17248327185E+03  0.00000000000E+00 0. -1.
          6    1    1    2  501    0  0.11226067365E+03  0.35294478070E+02  0.49957871228E+02  0.21430806781E+03  0.17200000000E+03 0.  1.
         -6    1    1    2    0  502 -0.11226067365E+03 -0.35294478070E+02  0.29925016067E+02  0.21054136320E+03  0.17200000000E+03 0. -1.
<mgrwt>
<rscale>  2 0.20840384E+03</rscale>
<asrwt>0</asrwt>
<pdfrwt beam="1">  1       21 0.63091539E-01 0.20840384E+03</pdfrwt>
<pdfrwt beam="2">  1       21 0.43120818E-01 0.20840384E+03</pdfrwt>
<totfact> 0.11899058E+04</totfact>
</mgrwt>
</event>
<event>
 4    1  0.1091654E+000  0.2189941E+03  0.7546771E-02  0.1134635E+00
         21   -1    0    0  501  502  0.00000000000E+00  0.00000000000E+00  0.14526703527E+03  0.14526703527E+03  0.00000000000E+00 0. -1.
         21   -1    0    0  502  503 -0.00000000000E+00 -0.00000000000E+00 -0.43990539250E+03  0.43990539250E+03  0.00000000000E+00 0. -1.
          6    1    1    2  501    0 -0.12016893666E+03  0.62720449816E+02 -0.11663066504E+01  0.21899723385E+03  0.17200000000E+03 0. -1.
         -6    1    1    2    0  503  0.12016893666E+03 -0.62720449816E+02 -0.29347205058E+03  0.36617519391E+03  0.17200000000E+03 0. -1.
<mgrwt>
<rscale>  2 0.21899413E+03</rscale>
<asrwt>0</asrwt>
<pdfrwt beam="1">  1       21 0.36316759E-01 0.21899413E+03</pdfrwt>
<pdfrwt beam="2">  1       21 0.10997635E+00 0.21899413E+03</pdfrwt>
<totfact> 0.46807582E+03</totfact>
</mgrwt>
</event>
<event>
 4    1  0.1091654E+000  0.1851637E+03  0.7546771E-02  0.1162897E+00
         21   -1    0    0  503  502  0.00000000000E+00  0.00000000000E+00  0.97411561063E+02  0.97411561063E+02  0.00000000000E+00 0. -1.
         21   -1    0    0  501  503 -0.00000000000E+00 -0.00000000000E+00 -0.43807282081E+03  0.43807282081E+03  0.00000000000E+00 0. -1.
          6    1    1    2  501    0 -0.17086883606E+02 -0.66405180211E+02 -0.51627795757E+02  0.19222653002E+03  0.17200000000E+03 0. -1.
         -6    1    1    2    0  502  0.17086883606E+02  0.66405180211E+02 -0.28903346399E+03  0.34325785185E+03  0.17200000000E+03 0. -1.
<mgrwt>
<rscale>  2 0.18516374E+03</rscale>
<asrwt>0</asrwt>
<pdfrwt beam="1">  1       21 0.24352891E-01 0.18516374E+03</pdfrwt>
<pdfrwt beam="2">  1       21 0.10951820E+00 0.18516374E+03</pdfrwt>
<totfact> 0.10566382E+04</totfact>
</mgrwt>
</event>
<event>
 4    1  0.1091654E+000  0.1978371E+03  0.7546771E-02  0.1151577E+00
         21   -1    0    0  503  502  0.00000000000E+00  0.00000000000E+00  0.25331544086E+03  0.25331544086E+03  0.00000000000E+00 0.  1.
         21   -1    0    0  501  503 -0.00000000000E+00 -0.00000000000E+00 -0.16196282324E+03  0.16196282324E+03  0.00000000000E+00 0.  1.
          6    1    1    2  501    0  0.90726219151E+02  0.36390409971E+02  0.11320386129E+01  0.19784031513E+03  0.17200000000E+03 0.  1.
         -6    1    1    2    0  502 -0.90726219151E+02 -0.36390409971E+02  0.90220579007E+02  0.21743794898E+03  0.17200000000E+03 0.  1.
<mgrwt>
<rscale>  2 0.19783708E+03</rscale>
<asrwt>0</asrwt>
<pdfrwt beam="1">  1       21 0.63328860E-01 0.19783708E+03</pdfrwt>
<pdfrwt beam="2">  1       21 0.40490706E-01 0.19783708E+03</pdfrwt>
<totfact> 0.13508092E+04</totfact>
</mgrwt>
</event>
<event>
 4    1  0.1091654E+000  0.1848489E+03  0.7546771E-02  0.1163191E+00
         21   -1    0    0  501  502  0.00000000000E+00  0.00000000000E+00  0.16052878903E+03  0.16052878903E+03  0.00000000000E+00 0.  1.
         21   -1    0    0  502  503 -0.00000000000E+00 -0.00000000000E+00 -0.24261037391E+03  0.24261037391E+03  0.00000000000E+00 0.  1.
          6    1    1    2  501    0 -0.25567651154E+02  0.62700887173E+02  0.29552648601E+02  0.18719632763E+03  0.17200000000E+03 0.  1.
         -6    1    1    2    0  503  0.25567651154E+02 -0.62700887173E+02 -0.11163423348E+03  0.21594283531E+03  0.17200000000E+03 0.  1.
<mgrwt>
<rscale>  2 0.18484887E+03</rscale>
<asrwt>0</asrwt>
<pdfrwt beam="1">  1       21 0.40132198E-01 0.18484887E+03</pdfrwt>
<pdfrwt beam="2">  1       21 0.60652593E-01 0.18484887E+03</pdfrwt>
<totfact> 0.15222811E+04</totfact>
</mgrwt>
</event>
<event>
 4    1  0.1091654E+000  0.2133771E+03  0.7546771E-02  0.1138919E+00
         21   -1    0    0  501  502  0.00000000000E+00  0.00000000000E+00  0.22810927040E+03  0.22810927040E+03  0.00000000000E+00 0. -1.
         21   -1    0    0  502  503 -0.00000000000E+00 -0.00000000000E+00 -0.21567826643E+03  0.21567826643E+03  0.00000000000E+00 0.  1.
          6    1    1    2  501    0 -0.55547538729E+02  0.11340311122E+03 -0.54375734156E+02  0.22019653757E+03  0.17200000000E+03 0. -1.
         -6    1    1    2    0  503  0.55547538729E+02 -0.11340311122E+03  0.66806738130E+02  0.22359099926E+03  0.17200000000E+03 0. -1.
<mgrwt>
<rscale>  2 0.21337712E+03</rscale>
<asrwt>0</asrwt>
<pdfrwt beam="1">  1       21 0.57027318E-01 0.21337712E+03</pdfrwt>
<pdfrwt beam="2">  1       21 0.53919567E-01 0.21337712E+03</pdfrwt>
<totfact> 0.92632589E+03</totfact>
</mgrwt>
</event>
<event>
 4    1  0.1091654E+000  0.4235740E+03  0.7546771E-02  0.1035909E+00
         21   -1    0    0  501  502  0.00000000000E+00  0.00000000000E+00  0.34373392297E+03  0.34373392297E+03  0.00000000000E+00 0.  1.
         21   -1    0    0  502  503 -0.00000000000E+00 -0.00000000000E+00 -0.77322061834E+03  0.77322061834E+03  0.00000000000E+00 0. -1.
          6    1    1    2  501    0  0.28122797854E+03 -0.26597318243E+03  0.10361565081E+03  0.43606319814E+03  0.17200000000E+03 0.  1.
         -6    1    1    2    0  503 -0.28122797854E+03  0.26597318243E+03 -0.53310234618E+03  0.68089134316E+03  0.17200000000E+03 0. -1.
<mgrwt>
<rscale>  2 0.42357397E+03</rscale>
<asrwt>0</asrwt>
<pdfrwt beam="1">  1       21 0.85933482E-01 0.42357397E+03</pdfrwt>
<pdfrwt beam="2">  1       21 0.19330515E+00 0.42357397E+03</pdfrwt>
<totfact> 0.14139540E+02</totfact>
</mgrwt>
</event>
<event>
 4    1  0.1091654E+000  0.2551027E+03  0.7546771E-02  0.1110122E+00
         21   -1    0    0  501  502  0.00000000000E+00  0.00000000000E+00  0.11776726003E+03  0.11776726003E+03  0.00000000000E+00 0. -1.
         21   -1    0    0  502  503 -0.00000000000E+00 -0.00000000000E+00 -0.64817596315E+03  0.64817596315E+03  0.00000000000E+00 0. -1.
          6    1    1    2  501    0 -0.17644691594E+03  0.66029248083E+02 -0.11813907952E+03  0.28113025070E+03  0.17200000000E+03 0. -1.
         -6    1    1    2    0  503  0.17644691594E+03 -0.66029248083E+02 -0.41226962360E+03  0.48481297249E+03  0.17200000000E+03 0. -1.
<mgrwt>
<rscale>  2 0.25510268E+03</rscale>
<asrwt>0</asrwt>
<pdfrwt beam="1">  1       21 0.29441815E-01 0.25510268E+03</pdfrwt>
<pdfrwt beam="2">  1       21 0.16204399E+00 0.25510268E+03</pdfrwt>
<totfact> 0.25516641E+03</totfact>
</mgrwt>
</event>
<event>
 4    1  0.1091654E+000  0.1796304E+03  0.7546771E-02  0.1168161E+00
         21   -1    0    0  501  502  0.00000000000E+00  0.00000000000E+00  0.25535914873E+03  0.25535914873E+03  0.00000000000E+00 0. -1.
         21   -1    0    0  502  503 -0.00000000000E+00 -0.00000000000E+00 -0.12636428701E+03  0.12636428701E+03  0.00000000000E+00 0.  1.
          6    1    1    2  501    0 -0.72794640373E+01 -0.51284264328E+02  0.65666377252E+02  0.19125673705E+03  0.17200000000E+03 0.  1.
         -6    1    1    2    0  503  0.72794640373E+01  0.51284264328E+02  0.63328484470E+02  0.19046669869E+03  0.17200000000E+03 0. -1.
<mgrwt>
<rscale>  2 0.17963036E+03</rscale>
<asrwt>0</asrwt>
<pdfrwt beam="1">  1       21 0.63839786E-01 0.17963036E+03</pdfrwt>
<pdfrwt beam="2">  1       21 0.31591072E-01 0.17963036E+03</pdfrwt>
<totfact> 0.21998871E+04</totfact>
</mgrwt>
</event>
<event>
 4    1  0.1091654E+000  0.1929760E+03  0.7546771E-02  0.1155804E+00
         21   -1    0    0  501  502  0.00000000000E+00  0.00000000000E+00  0.25357108528E+03  0.25357108528E+03  0.00000000000E+00 0. -1.
         21   -1    0    0  502  503 -0.00000000000E+00 -0.00000000000E+00 -0.21226999251E+03  0.21226999251E+03  0.00000000000E+00 0. -1.
          6    1    1    2  501    0 -0.61936430218E+02 -0.61802991780E+02  0.14994558104E+03  0.24438373198E+03  0.17200000000E+03 0. -1.
         -6    1    1    2    0  503  0.61936430218E+02  0.61802991780E+02 -0.10864448828E+03  0.22145734581E+03  0.17200000000E+03 0. -1.
<mgrwt>
<rscale>  2 0.19297599E+03</rscale>
<asrwt>0</asrwt>
<pdfrwt beam="1">  1       21 0.63392771E-01 0.19297599E+03</pdfrwt>
<pdfrwt beam="2">  1       21 0.53067498E-01 0.19297599E+03</pdfrwt>
<totfact> 0.77395117E+03</totfact>
</mgrwt>
</event>
<event>
 4    1  0.1091654E+000  0.1807686E+03  0.7546771E-02  0.1167061E+00
         21   -1    0    0  503  502  0.00000000000E+00  0.00000000000E+00  0.11008027810E+03  0.11008027810E+03  0.00000000000E+00 0.  1.
         21   -1    0    0  501  503 -0.00000000000E+00 -0.00000000000E+00 -0.76056995244E+03  0.76056995244E+03  0.00000000000E+00 0.  1.
          6    1    1    2  501    0 -0.51452128742E+02 -0.21117597689E+02 -0.66516135693E+03  0.68928724436E+03  0.17200000000E+03 0.  1.
         -6    1    1    2    0  502  0.51452128742E+02  0.21117597689E+02  0.14671682592E+02  0.18136298618E+03  0.17200000000E+03 0.  1.
<mgrwt>
<rscale>  2 0.18076857E+03</rscale>
<asrwt>0</asrwt>
<pdfrwt beam="1">  1       21 0.27520070E-01 0.18076857E+03</pdfrwt>
<pdfrwt beam="2">  1       21 0.19014248E+00 0.18076857E+03</pdfrwt>
<totfact> 0.19852003E+03</totfact>
</mgrwt>
</event>
<event>
 4    1  0.1091654E+000  0.2452875E+03  0.7546771E-02  0.1116320E+00
         21   -1    0    0  503  502  0.00000000000E+00  0.00000000000E+00  0.66934105560E+03  0.66934105560E+03  0.00000000000E+00 0. -1.
         21   -1    0    0  501  503 -0.00000000000E+00 -0.00000000000E+00 -0.89888888012E+02  0.89888888012E+02  0.00000000000E+00 0. -1.
          6    1    1    2  501    0 -0.14981993085E+02 -0.17423401839E+03  0.28878481580E+03  0.37889658631E+03  0.17200000000E+03 0. -1.
         -6    1    1    2    0  502  0.14981993085E+02  0.17423401839E+03  0.29066735178E+03  0.38033335730E+03  0.17200000000E+03 0. -1.
<mgrwt>
<rscale>  2 0.24528749E+03</rscale>
<asrwt>0</asrwt>
<pdfrwt beam="1">  1       21 0.16733525E+00 0.24528749E+03</pdfrwt>
<pdfrwt beam="2">  1       21 0.22472224E-01 0.24528749E+03</pdfrwt>
<totfact> 0.39593867E+03</totfact>
</mgrwt>
</event>
<event>
 4    1  0.1091654E+000  0.1876946E+03  0.7546771E-02  0.1160557E+00
         21   -1    0    0  501  502  0.00000000000E+00  0.00000000000E+00  0.83309759412E+02  0.83309759412E+02  0.00000000000E+00 0.  1.
         21   -1    0    0  502  503 -0.00000000000E+00 -0.00000000000E+00 -0.52448735616E+03  0.52448735616E+03  0.00000000000E+00 0.  1.
          6    1    1    2  501    0  0.74022045664E+02 -0.12884525043E+02 -0.86823606472E+02  0.20680331929E+03  0.17200000000E+03 0.  1.
         -6    1    1    2    0  503 -0.74022045664E+02  0.12884525043E+02 -0.35435399027E+03  0.40099379628E+03  0.17200000000E+03 0.  1.
<mgrwt>
<rscale>  2 0.18769463E+03</rscale>
<asrwt>0</asrwt>
<pdfrwt beam="1">  1       21 0.20827440E-01 0.18769463E+03</pdfrwt>
<pdfrwt beam="2">  1       21 0.13112184E+00 0.18769463E+03</pdfrwt>
<totfact> 0.90837956E+03</totfact>
</mgrwt>
</event>
<event>
 4    1  0.1091654E+000  0.2014217E+03  0.7546771E-02  0.1148545E+00
         21   -1    0    0  501  502  0.00000000000E+00  0.00000000000E+00  0.30065491536E+03  0.30065491536E+03  0.00000000000E+00 0.  1.
         21   -1    0    0  502  503 -0.00000000000E+00 -0.00000000000E+00 -0.13786932373E+03  0.13786932373E+03  0.00000000000E+00 0.  1.
          6    1    1    2  501    0  0.90712190528E+02  0.52516809003E+02  0.49438517177E+02  0.20740029826E+03  0.17200000000E+03 0.  1.
         -6    1    1    2    0  503 -0.90712190528E+02 -0.52516809003E+02  0.11334707445E+03  0.23112394083E+03  0.17200000000E+03 0.  1.
<mgrwt>
<rscale>  2 0.20142174E+03</rscale>
<asrwt>0</asrwt>
<pdfrwt beam="1">  1       21 0.75163728E-01 0.20142174E+03</pdfrwt>
<pdfrwt beam="2">  1       21 0.34467331E-01 0.20142174E+03</pdfrwt>
<totfact> 0.12760980E+04</totfact>
</mgrwt>
</event>
<event>
 4    1  0.1091654E+000  0.1774476E+03  0.7546771E-02  0.1170296E+00
         21   -1    0    0  501  502  0.00000000000E+00  0.00000000000E+00  0.11207360571E+03  0.11207360571E+03  0.00000000000E+00 0.  1.
         21   -1    0    0  502  503 -0.00000000000E+00 -0.00000000000E+00 -0.28468738478E+03  0.28468738478E+03  0.00000000000E+00 0.  1.
          6    1    1    2  501    0  0.51137237064E+01 -0.43330325024E+02 -0.10902090239E+03  0.20826239314E+03  0.17200000000E+03 0. -1.
         -6    1    1    2    0  503 -0.51137237064E+01  0.43330325024E+02 -0.63592876679E+02  0.18849859735E+03  0.17200000000E+03 0. -1.
<mgrwt>
<rscale>  2 0.17744765E+03</rscale>
<asrwt>0</asrwt>
<pdfrwt beam="1">  1       21 0.28018402E-01 0.17744765E+03</pdfrwt>
<pdfrwt beam="2">  1       21 0.71171845E-01 0.17744765E+03</pdfrwt>
<totfact> 0.21931337E+04</totfact>
</mgrwt>
</event>
<event>
 4    1  0.1091654E+000  0.2279863E+03  0.7546771E-02  0.1128065E+00
         21   -1    0    0  503  502  0.00000000000E+00  0.00000000000E+00  0.26794987821E+03  0.26794987821E+03  0.00000000000E+00 0. -1.
         21   -1    0    0  501  503 -0.00000000000E+00 -0.00000000000E+00 -0.23494827305E+03  0.23494827305E+03  0.00000000000E+00 0. -1.
          6    1    1    2  501    0  0.14940171143E+03  0.85358172190E+01 -0.88494927447E+02  0.24455895759E+03  0.17200000000E+03 0. -1.
         -6    1    1    2    0  502 -0.14940171143E+03 -0.85358172190E+01  0.12149653261E+03  0.25833919367E+03  0.17200000000E+03 0. -1.
<mgrwt>
<rscale>  2 0.22798625E+03</rscale>
<asrwt>0</asrwt>
<pdfrwt beam="1">  1       21 0.66987469E-01 0.22798625E+03</pdfrwt>
<pdfrwt beam="2">  1       21 0.58737068E-01 0.22798625E+03</pdfrwt>
<totfact> 0.53940576E+03</totfact>
</mgrwt>
</event>
<event>
 4    1  0.1091654E+000  0.2089732E+03  0.7546771E-02  0.1142382E+00
         21   -1    0    0  503  502  0.00000000000E+00  0.00000000000E+00  0.19387140399E+04  0.19387140399E+04  0.00000000000E+00 0.  1.
         21   -1    0    0  501  503 -0.00000000000E+00 -0.00000000000E+00 -0.52069560733E+02  0.52069560733E+02  0.00000000000E+00 0.  1.
          6    1    1    2  501    0 -0.36953967327E+02  0.11278383418E+03  0.19353179220E+03  0.28482335499E+03  0.17200000000E+03 0.  1.
         -6    1    1    2    0  502  0.36953967327E+02 -0.11278383418E+03  0.16931126870E+04  0.17059602456E+04  0.17200000000E+03 0.  1.
<mgrwt>
<rscale>  2 0.20897318E+03</rscale>
<asrwt>0</asrwt>
<pdfrwt beam="1">  1       21 0.48467827E+00 0.20897318E+03</pdfrwt>
<pdfrwt beam="2">  1       21 0.13017397E-01 0.20897318E+03</pdfrwt>
<totfact> 0.11934301E+02</totfact>
</mgrwt>
</event>
<event>
 4    1  0.1091654E+000  0.2337960E+03  0.7546771E-02  0.1123996E+00
         21   -1    0    0  503  502  0.00000000000E+00  0.00000000000E+00  0.23258382625E+03  0.23258382625E+03  0.00000000000E+00 0.  1.
         21   -1    0    0  501  503 -0.00000000000E+00 -0.00000000000E+00 -0.29099007728E+03  0.29099007728E+03  0.00000000000E+00 0.  1.
          6    1    1    2  501    0  0.82684034929E+01 -0.15813978939E+03 -0.14402070828E+03  0.27459520007E+03  0.17200000000E+03 0.  1.
         -6    1    1    2    0  502 -0.82684034929E+01  0.15813978939E+03  0.85614457256E+02  0.24897870346E+03  0.17200000000E+03 0.  1.
<mgrwt>
<rscale>  2 0.23379598E+03</rscale>
<asrwt>0</asrwt>
<pdfrwt beam="1">  1       21 0.58145957E-01 0.23379598E+03</pdfrwt>
<pdfrwt beam="2">  1       21 0.72747519E-01 0.23379598E+03</pdfrwt>
<totfact> 0.45741576E+03</totfact>
</mgrwt>
</event>
<event>
 4    1  0.1091654E+000  0.2100287E+03  0.7546771E-02  0.1141543E+00
         21   -1    0    0  501  502  0.00000000000E+00  0.00000000000E+00  0.12639992251E+03  0.12639992251E+03  0.00000000000E+00 0. -1.
         21   -1    0    0  502  503 -0.00000000000E+00 -0.00000000000E+00 -0.36068126405E+03  0.36068126405E+03  0.00000000000E+00 0.  1.
          6    1    1    2  501    0 -0.64273157800E+02  0.10196581659E+03 -0.73290032691E+02  0.22244886032E+03  0.17200000000E+03 0. -1.
         -6    1    1    2    0  503  0.64273157800E+02 -0.10196581659E+03 -0.16099130885E+03  0.26463232624E+03  0.17200000000E+03 0.  1.
<mgrwt>
<rscale>  2 0.21002873E+03</rscale>
<asrwt>0</asrwt>
<pdfrwt beam="1">  1       21 0.31599981E-01 0.21002873E+03</pdfrwt>
<pdfrwt beam="2">  1       21 0.90170316E-01 0.21002873E+03</pdfrwt>
<totfact> 0.99496051E+03</totfact>
</mgrwt>
</event>
<event>
 4    1  0.1091654E+000  0.1911746E+03  0.7546771E-02  0.1157406E+00
         21   -1    0    0  501  502  0.00000000000E+00  0.00000000000E+00  0.45739305297E+03  0.45739305297E+03  0.00000000000E+00 0. -1.
         21   -1    0    0  502  503 -0.00000000000E+00 -0.00000000000E+00 -0.87663961627E+02  0.87663961627E+02  0.00000000000E+00 0. -1.
          6    1    1    2  501    0  0.57382805819E+02  0.60588228636E+02  0.26594568414E+03  0.32752836025E+03  0.17200000000E+03 0. -1.
         -6    1    1    2    0  503 -0.57382805819E+02 -0.60588228636E+02  0.10378340720E+03  0.21752865435E+03  0.17200000000E+03 0. -1.
<mgrwt>
<rscale>  2 0.19117458E+03</rscale>
<asrwt>0</asrwt>
<pdfrwt beam="1">  1       21 0.11434826E+00 0.19117458E+03</pdfrwt>
<pdfrwt beam="2">  1       21 0.21915992E-01 0.19117458E+03</pdfrwt>
<totfact> 0.11569815E+04</totfact>
</mgrwt>
</event>
<event>
 4    1  0.1091654E+000  0.1889764E+03  0.7546771E-02  0.1159388E+00
         21   -1    0    0  501  502  0.00000000000E+00  0.00000000000E+00  0.40596739506E+03  0.40596739506E+03  0.00000000000E+00 0. -1.
         21   -1    0    0  502  503 -0.00000000000E+00 -0.00000000000E+00 -0.87993443273E+02  0.87993443273E+02  0.00000000000E+00 0.  1.
          6    1    1    2  501    0 -0.78176712240E+02  0.40576368255E+01  0.16320236590E+03  0.24969396266E+03  0.17200000000E+03 0.  1.
         -6    1    1    2    0  503  0.78176712240E+02 -0.40576368255E+01  0.15477158589E+03  0.24426687567E+03  0.17200000000E+03 0. -1.
<mgrwt>
<rscale>  2 0.18897636E+03</rscale>
<asrwt>0</asrwt>
<pdfrwt beam="1">  1       21 0.10149184E+00 0.18897636E+03</pdfrwt>
<pdfrwt beam="2">  1       21 0.21998362E-01 0.18897636E+03</pdfrwt>
<totfact> 0.15336993E+04</totfact>
</mgrwt>
</event>
<event>
 4    1  0.1091654E+000  0.1929807E+03  0.7546771E-02  0.1155800E+00
         21   -1    0    0  501  502  0.00000000000E+00  0.00000000000E+00  0.11738729102E+03  0.11738729102E+03  0.00000000000E+00 0. -1.
         21   -1    0    0  502  503 -0.00000000000E+00 -0.00000000000E+00 -0.54973275105E+03  0.54973275105E+03  0.00000000000E+00 0. -1.
          6    1    1    2  501    0  0.40941381625E+02  0.77339291050E+02  0.74248582762E+00  0.19298215968E+03  0.17200000000E+03 0. -1.
         -6    1    1    2    0  503 -0.40941381625E+02 -0.77339291050E+02 -0.43308794585E+03  0.47413788239E+03  0.17200000000E+03 0. -1.
<mgrwt>
<rscale>  2 0.19298073E+03</rscale>
<asrwt>0</asrwt>
<pdfrwt beam="1">  1       21 0.29346823E-01 0.19298073E+03</pdfrwt>
<pdfrwt beam="2">  1       21 0.13743319E+00 0.19298073E+03</pdfrwt>
<totfact> 0.41736064E+03</totfact>
</mgrwt>
</event>
<event>
 4    1  0.1091654E+000  0.2829887E+03  0.7546771E-02  0.1094068E+00
         21   -1    0    0  501  502  0.00000000000E+00  0.00000000000E+00  0.36031509086E+03  0.36031509086E+03  0.00000000000E+00 0.  1.
         21   -1    0    0  502  503 -0.00000000000E+00 -0.00000000000E+00 -0.22565223707E+03  0.22565223707E+03  0.00000000000E+00 0.  1.
          6    1    1    2  501    0 -0.14877359969E+03  0.16841922479E+03  0.10326881823E+03  0.30124254026E+03  0.17200000000E+03 0.  1.
         -6    1    1    2    0  503  0.14877359969E+03 -0.16841922479E+03  0.31394035559E+02  0.28472478767E+03  0.17200000000E+03 0.  1.
<mgrwt>
<rscale>  2 0.28298873E+03</rscale>
<asrwt>0</asrwt>
<pdfrwt beam="1">  1       21 0.90078772E-01 0.28298873E+03</pdfrwt>
<pdfrwt beam="2">  1       21 0.56413060E-01 0.28298873E+03</pdfrwt>
<totfact> 0.29045550E+03</totfact>
</mgrwt>
</event>
<event>
 4    1  0.1091654E+000  0.1984931E+03  0.7546771E-02  0.1151017E+00
         21   -1    0    0  501  502  0.00000000000E+00  0.00000000000E+00  0.11374941197E+04  0.11374941197E+04  0.00000000000E+00 0. -1.
         21   -1    0    0  502  503 -0.00000000000E+00 -0.00000000000E+00 -0.52725689666E+02  0.52725689666E+02  0.00000000000E+00 0. -1.
          6    1    1    2  501    0 -0.37120542663E+02  0.91856222894E+02  0.89095289997E+03  0.91279601792E+03  0.17200000000E+03 0. -1.
         -6    1    1    2    0  503  0.37120542663E+02 -0.91856222894E+02  0.19381553011E+03  0.27742379149E+03  0.17200000000E+03 0. -1.
<mgrwt>
<rscale>  2 0.19849307E+03</rscale>
<asrwt>0</asrwt>
<pdfrwt beam="1">  1       21 0.28437345E+00 0.19849307E+03</pdfrwt>
<pdfrwt beam="2">  1       21 0.13181426E-01 0.19849307E+03</pdfrwt>
<totfact> 0.20671883E+03</totfact>
</mgrwt>
</event>
<event>
 4    1  0.1091654E+000  0.2339618E+03  0.7546771E-02  0.1123882E+00
         21   -1    0    0  501  502  0.00000000000E+00  0.00000000000E+00  0.17047047508E+03  0.17047047508E+03  0.00000000000E+00 0. -1.
         21   -1    0    0  502  503 -0.00000000000E+00 -0.00000000000E+00 -0.48513215479E+03  0.48513215479E+03  0.00000000000E+00 0. -1.
          6    1    1    2  501    0  0.15357626274E+03  0.39603547467E+02  0.33278793542E+02  0.23631671026E+03  0.17200000000E+03 0. -1.
         -6    1    1    2    0  503 -0.15357626274E+03 -0.39603547467E+02 -0.34794047326E+03  0.41928591961E+03  0.17200000000E+03 0. -1.
<mgrwt>
<rscale>  2 0.23396177E+03</rscale>
<asrwt>0</asrwt>
<pdfrwt beam="1">  1       21 0.42617619E-01 0.23396177E+03</pdfrwt>
<pdfrwt beam="2">  1       21 0.12128304E+00 0.23396177E+03</pdfrwt>
<totfact> 0.26322773E+03</totfact>
</mgrwt>
</event>
<event>
 4    1  0.1091654E+000  0.1804507E+03  0.7546771E-02  0.1167368E+00
         21   -1    0    0  501  502  0.00000000000E+00  0.00000000000E+00  0.17070894596E+04  0.17070894596E+04  0.00000000000E+00 0.  1.
         21   -1    0    0  502  503 -0.00000000000E+00 -0.00000000000E+00 -0.20260992172E+02  0.20260992172E+02  0.00000000000E+00 0.  1.
          6    1    1    2  501    0 -0.53678454567E+02  0.98534201582E+01  0.10523868823E+04  0.10677455766E+04  0.17200000000E+03 0. -1.
         -6    1    1    2    0  503  0.53678454567E+02 -0.98534201582E+01  0.63444158515E+03  0.65960487516E+03  0.17200000000E+03 0. -1.
<mgrwt>
<rscale>  2 0.18045073E+03</rscale>
<asrwt>0</asrwt>
<pdfrwt beam="1">  1       21 0.42677188E+00 0.18045073E+03</pdfrwt>
<pdfrwt beam="2">  1       21 0.50652538E-02 0.18045073E+03</pdfrwt>
<totfact> 0.15829771E+03</totfact>
</mgrwt>
</event>
<event>
 4    1  0.1091654E+000  0.1744693E+03  0.7546771E-02  0.1173266E+00
         21   -1    0    0  503  502  0.00000000000E+00  0.00000000000E+00  0.19432374297E+03  0.19432374297E+03  0.00000000000E+00 0. -1.
         21   -1    0    0  501  503 -0.00000000000E+00 -0.00000000000E+00 -0.42812886424E+03  0.42812886424E+03  0.00000000000E+00 0. -1.
          6    1    1    2  501    0 -0.27548859297E+02 -0.98281674238E+01 -0.36473738343E+03  0.40431780989E+03  0.17200000000E+03 0. -1.
         -6    1    1    2    0  502  0.27548859297E+02  0.98281674238E+01  0.13093226216E+03  0.21813479731E+03  0.17200000000E+03 0. -1.
<mgrwt>
<rscale>  2 0.17446929E+03</rscale>
<asrwt>0</asrwt>
<pdfrwt beam="1">  1       21 0.48580936E-01 0.17446929E+03</pdfrwt>
<pdfrwt beam="2">  1       21 0.10703222E+00 0.17446929E+03</pdfrwt>
<totfact> 0.28692182E+03</totfact>
</mgrwt>
</event>
<event>
 4    1  0.1091654E+000  0.2227270E+03  0.7546771E-02  0.1131866E+00
         21   -1    0    0  503  502  0.00000000000E+00  0.00000000000E+00  0.15932054051E+03  0.15932054051E+03  0.00000000000E+00 0. -1.
         21   -1    0    0  501  503 -0.00000000000E+00 -0.00000000000E+00 -0.67737482384E+03  0.67737482384E+03  0.00000000000E+00 0.  1.
          6    1    1    2  501    0 -0.27837036003E+02  0.13873872838E+03 -0.56654289496E+03  0.60875133442E+03  0.17200000000E+03 0.  1.
         -6    1    1    2    0  502  0.27837036003E+02 -0.13873872838E+03  0.48488611630E+02  0.22794402994E+03  0.17200000000E+03 0. -1.
<mgrwt>
<rscale>  2 0.22272704E+03</rscale>
<asrwt>0</asrwt>
<pdfrwt beam="1">  1       21 0.39830136E-01 0.22272704E+03</pdfrwt>
<pdfrwt beam="2">  1       21 0.16934370E+00 0.22272704E+03</pdfrwt>
<totfact> 0.12717811E+03</totfact>
</mgrwt>
</event>
<event>
 4    1  0.1091654E+000  0.1840316E+03  0.7546771E-02  0.1163957E+00
         21   -1    0    0  501  502  0.00000000000E+00  0.00000000000E+00  0.41570454269E+03  0.41570454269E+03  0.00000000000E+00 0. -1.
         21   -1    0    0  502  503 -0.00000000000E+00 -0.00000000000E+00 -0.22724121319E+03  0.22724121319E+03  0.00000000000E+00 0.  1.
          6    1    1    2  501    0  0.58128557735E+02  0.30078316566E+02  0.35170722324E+03  0.39694534288E+03  0.17200000000E+03 0. -1.
         -6    1    1    2    0  503 -0.58128557735E+02 -0.30078316566E+02 -0.16324389374E+03  0.24600041300E+03  0.17200000000E+03 0.  1.
<mgrwt>
<rscale>  2 0.18403161E+03</rscale>
<asrwt>0</asrwt>
<pdfrwt beam="1">  1       21 0.10392613E+00 0.18403161E+03</pdfrwt>
<pdfrwt beam="2">  1       21 0.56810304E-01 0.18403161E+03</pdfrwt>
<totfact> 0.21980471E+03</totfact>
</mgrwt>
</event>
<event>
 4    1  0.1091654E+000  0.1741475E+03  0.7546771E-02  0.1173590E+00
         21   -1    0    0  503  502  0.00000000000E+00  0.00000000000E+00  0.14129753731E+04  0.14129753731E+04  0.00000000000E+00 0.  1.
         21   -1    0    0  501  503 -0.00000000000E+00 -0.00000000000E+00 -0.36792565274E+02  0.36792565274E+02  0.00000000000E+00 0.  1.
          6    1    1    2  501    0 -0.17835384827E+02 -0.20621708865E+02  0.22019822966E+03  0.28073940972E+03  0.17200000000E+03 0.  1.
         -6    1    1    2    0  502  0.17835384827E+02  0.20621708865E+02  0.11559845781E+04  0.11690285286E+04  0.17200000000E+03 0.  1.
<mgrwt>
<rscale>  2 0.17414751E+03</rscale>
<asrwt>0</asrwt>
<pdfrwt beam="1">  1       21 0.35324366E+00 0.17414751E+03</pdfrwt>
<pdfrwt beam="2">  1       21 0.91981460E-02 0.17414751E+03</pdfrwt>
<totfact> 0.16170707E+03</totfact>
</mgrwt>
</event>
<event>
 4    1  0.1091654E+000  0.2230361E+03  0.7546771E-02  0.1131640E+00
         21   -1    0    0  501  502  0.00000000000E+00  0.00000000000E+00  0.46446601538E+03  0.46446601538E+03  0.00000000000E+00 0. -1.
         21   -1    0    0  502  503 -0.00000000000E+00 -0.00000000000E+00 -0.13924564656E+03  0.13924564656E+03  0.00000000000E+00 0. -1.
          6    1    1    2  501    0 -0.32112583142E+02 -0.13831085843E+03  0.30764029722E+03  0.37998376812E+03  0.17200000000E+03 0. -1.
         -6    1    1    2    0  503  0.32112583142E+02  0.13831085843E+03  0.17580071591E+02  0.22372789382E+03  0.17200000000E+03 0. -1.
<mgrwt>
<rscale>  2 0.22303612E+03</rscale>
<asrwt>0</asrwt>
<pdfrwt beam="1">  1       21 0.11611650E+00 0.22303612E+03</pdfrwt>
<pdfrwt beam="2">  1       21 0.34811413E-01 0.22303612E+03</pdfrwt>
<totfact> 0.44473540E+03</totfact>
</mgrwt>
</event>
<event>
 4    1  0.1091654E+000  0.1804060E+03  0.7546771E-02  0.1167411E+00
         21   -1    0    0  501  502  0.00000000000E+00  0.00000000000E+00  0.23669110857E+03  0.23669110857E+03  0.00000000000E+00 0. -1.
         21   -1    0    0  502  503 -0.00000000000E+00 -0.00000000000E+00 -0.32481926201E+03  0.32481926201E+03  0.00000000000E+00 0. -1.
          6    1    1    2  501    0 -0.40832877397E+02  0.35986365744E+02  0.16913812095E+03  0.24729344180E+03  0.17200000000E+03 0. -1.
         -6    1    1    2    0  503  0.40832877397E+02 -0.35986365744E+02 -0.25726627440E+03  0.31421692879E+03  0.17200000000E+03 0. -1.
<mgrwt>
<rscale>  2 0.18040605E+03</rscale>
<asrwt>0</asrwt>
<pdfrwt beam="1">  1       21 0.59172778E-01 0.18040605E+03</pdfrwt>
<pdfrwt beam="2">  1       21 0.81204815E-01 0.18040605E+03</pdfrwt>
<totfact> 0.35861857E+03</totfact>
</mgrwt>
</event>
<event>
 4    1  0.1091654E+000  0.1858301E+03  0.7546771E-02  0.1162277E+00
         21   -1    0    0  501  502  0.00000000000E+00  0.00000000000E+00  0.20137892373E+03  0.20137892373E+03  0.00000000000E+00 0. -1.
         21   -1    0    0  502  503 -0.00000000000E+00 -0.00000000000E+00 -0.18123201791E+03  0.18123201791E+03  0.00000000000E+00 0. -1.
          6    1    1    2  501    0 -0.44027301033E+02 -0.54867201671E+02  0.54446360941E+02  0.19364198738E+03  0.17200000000E+03 0. -1.
         -6    1    1    2    0  503  0.44027301033E+02  0.54867201671E+02 -0.34299455123E+02  0.18896895427E+03  0.17200000000E+03 0. -1.
<mgrwt>
<rscale>  2 0.18583006E+03</rscale>
<asrwt>0</asrwt>
<pdfrwt beam="1">  1       21 0.50344731E-01 0.18583006E+03</pdfrwt>
<pdfrwt beam="2">  1       21 0.45308005E-01 0.18583006E+03</pdfrwt>
<totfact> 0.17624621E+04</totfact>
</mgrwt>
</event>
<event>
 4    1  0.1091654E+000  0.1968948E+03  0.7546771E-02  0.1152386E+00
         21   -1    0    0  501  502  0.00000000000E+00  0.00000000000E+00  0.82872100918E+02  0.82872100918E+02  0.00000000000E+00 0. -1.
         21   -1    0    0  502  503 -0.00000000000E+00 -0.00000000000E+00 -0.47450672924E+03  0.47450672924E+03  0.00000000000E+00 0. -1.
          6    1    1    2  501    0  0.52247328651E+02 -0.80335465671E+02 -0.22894980247E+03  0.30196950582E+03  0.17200000000E+03 0. -1.
         -6    1    1    2    0  503 -0.52247328651E+02  0.80335465671E+02 -0.16268482586E+03  0.25540932434E+03  0.17200000000E+03 0. -1.
<mgrwt>
<rscale>  2 0.19689482E+03</rscale>
<asrwt>0</asrwt>
<pdfrwt beam="1">  1       21 0.20718026E-01 0.19689482E+03</pdfrwt>
<pdfrwt beam="2">  1       21 0.11862668E+00 0.19689482E+03</pdfrwt>
<totfact> 0.11706891E+04</totfact>
</mgrwt>
</event>
<event>
 4    1  0.1091654E+000  0.2107061E+03  0.7546771E-02  0.1141008E+00
         21   -1    0    0  503  502  0.00000000000E+00  0.00000000000E+00  0.99427633598E+02  0.99427633598E+02  0.00000000000E+00 0.  1.
         21   -1    0    0  501  503 -0.00000000000E+00 -0.00000000000E+00 -0.92425573109E+03  0.92425573109E+03  0.00000000000E+00 0.  1.
          6    1    1    2  501    0  0.45202112229E+02  0.11300362172E+03 -0.78039945071E+03  0.80834420400E+03  0.17200000000E+03 0.  1.
         -6    1    1    2    0  502 -0.45202112229E+02 -0.11300362172E+03 -0.44428646780E+02  0.21533916069E+03  0.17200000000E+03 0.  1.
<mgrwt>
<rscale>  2 0.21070607E+03</rscale>
<asrwt>0</asrwt>
<pdfrwt beam="1">  1       21 0.24856908E-01 0.21070607E+03</pdfrwt>
<pdfrwt beam="2">  1       21 0.23106393E+00 0.21070607E+03</pdfrwt>
<totfact> 0.12931286E+03</totfact>
</mgrwt>
</event>
<event>
 4    1  0.1091654E+000  0.1880593E+03  0.7546771E-02  0.1160223E+00
         21   -1    0    0  503  502  0.00000000000E+00  0.00000000000E+00  0.66417470047E+03  0.66417470047E+03  0.00000000000E+00 0.  1.
         21   -1    0    0  501  503 -0.00000000000E+00 -0.00000000000E+00 -0.56830584967E+02  0.56830584967E+02  0.00000000000E+00 0. -1.
          6    1    1    2  501    0  0.70543442468E+02  0.28388728291E+02  0.39417989478E+03  0.43674258622E+03  0.17200000000E+03 0.  1.
         -6    1    1    2    0  502 -0.70543442468E+02 -0.28388728291E+02  0.21316422072E+03  0.28426269921E+03  0.17200000000E+03 0. -1.
<mgrwt>
<rscale>  2 0.18805929E+03</rscale>
<asrwt>0</asrwt>
<pdfrwt beam="1">  1       21 0.16604365E+00 0.18805929E+03</pdfrwt>
<pdfrwt beam="2">  1       21 0.14207648E-01 0.18805929E+03</pdfrwt>
<totfact> 0.98894803E+03</totfact>
</mgrwt>
</event>
<event>
 4    1  0.1091654E+000  0.1757767E+03  0.7546771E-02  0.1171954E+00
         21   -1    0    0  501  502  0.00000000000E+00  0.00000000000E+00  0.38475645503E+03  0.38475645503E+03  0.00000000000E+00 0.  1.
         21   -1    0    0  502  503 -0.00000000000E+00 -0.00000000000E+00 -0.21424312497E+03  0.21424312497E+03  0.00000000000E+00 0.  1.
          6    1    1    2  501    0  0.18723781200E+02 -0.31030157621E+02  0.32206497440E+03  0.36691047736E+03  0.17200000000E+03 0.  1.
         -6    1    1    2    0  503 -0.18723781200E+02  0.31030157621E+02 -0.15155164433E+03  0.23208910264E+03  0.17200000000E+03 0.  1.
<mgrwt>
<rscale>  2 0.17577671E+03</rscale>
<asrwt>0</asrwt>
<pdfrwt beam="1">  1       21 0.96189113E-01 0.17577671E+03</pdfrwt>
<pdfrwt beam="2">  1       21 0.53560782E-01 0.17577671E+03</pdfrwt>
<totfact> 0.30125525E+03</totfact>
</mgrwt>
</event>
<event>
 4    1  0.1091654E+000  0.2183531E+03  0.7546771E-02  0.1135117E+00
         21   -1    0    0  503  502  0.00000000000E+00  0.00000000000E+00  0.52243287075E+03  0.52243287075E+03  0.00000000000E+00 0. -1.
         21   -1    0    0  501  503 -0.00000000000E+00 -0.00000000000E+00 -0.13978183442E+03  0.13978183442E+03  0.00000000000E+00 0. -1.
          6    1    1    2  501    0 -0.13181398373E+03 -0.26816893899E+02 -0.37509103077E+01  0.21838530499E+03  0.17200000000E+03 0. -1.
         -6    1    1    2    0  502  0.13181398373E+03  0.26816893899E+02  0.38640194663E+03  0.44382940019E+03  0.17200000000E+03 0. -1.
<mgrwt>
<rscale>  2 0.21835309E+03</rscale>
<asrwt>0</asrwt>
<pdfrwt beam="1">  1       21 0.13060821E+00 0.21835309E+03</pdfrwt>
<pdfrwt beam="2">  1       21 0.34945460E-01 0.21835309E+03</pdfrwt>
<totfact> 0.33001157E+03</totfact>
</mgrwt>
</event>
<event>
 4    1  0.1091654E+000  0.1982449E+03  0.7546771E-02  0.1151228E+00
         21   -1    0    0  501  502  0.00000000000E+00  0.00000000000E+00  0.35644257978E+03  0.35644257978E+03  0.00000000000E+00 0.  1.
         21   -1    0    0  502  503 -0.00000000000E+00 -0.00000000000E+00 -0.17832853078E+03  0.17832853078E+03  0.00000000000E+00 0.  1.
          6    1    1    2  501    0 -0.25891967259E+02 -0.95113891303E+02  0.25425454023E+03  0.32240722311E+03  0.17200000000E+03 0.  1.
         -6    1    1    2    0  503  0.25891967259E+02  0.95113891303E+02 -0.76140491224E+02  0.21236388745E+03  0.17200000000E+03 0.  1.
<mgrwt>
<rscale>  2 0.19824491E+03</rscale>
<asrwt>0</asrwt>
<pdfrwt beam="1">  1       21 0.89110644E-01 0.19824491E+03</pdfrwt>
<pdfrwt beam="2">  1       21 0.44582133E-01 0.19824491E+03</pdfrwt>
<totfact> 0.51697926E+03</totfact>
</mgrwt>
</event>
<event>
 4    1  0.1091654E+000  0.1764904E+03  0.7546771E-02  0.1171244E+00
         21   -1    0    0  503  502  0.00000000000E+00  0.00000000000E+00  0.40843024249E+03  0.40843024249E+03  0.00000000000E+00 0. -1.
         21   -1    0    0  501  503 -0.00000000000E+00 -0.00000000000E+00 -0.81086092446E+02  0.81086092446E+02  0.00000000000E+00 0.  1.
          6    1    1    2  501    0  0.30607015517E+02  0.25061151267E+02  0.10398974764E+03  0.20484803713E+03  0.17200000000E+03 0.  1.
         -6    1    1    2    0  502 -0.30607015517E+02 -0.25061151267E+02  0.22335440240E+03  0.28466829780E+03  0.17200000000E+03 0. -1.
<mgrwt>
<rscale>  2 0.17649037E+03</rscale>
<asrwt>0</asrwt>
<pdfrwt beam="1">  1       21 0.10210756E+00 0.17649037E+03</pdfrwt>
<pdfrwt beam="2">  1       21 0.20271524E-01 0.17649037E+03</pdfrwt>
<totfact> 0.17766070E+04</totfact>
</mgrwt>
</event>
<event>
 4    1  0.1091654E+000  0.2220109E+03  0.7546771E-02  0.1132393E+00
         21   -1    0    0  503  502  0.00000000000E+00  0.00000000000E+00  0.72529478272E+02  0.72529478272E+02  0.00000000000E+00 0.  1.
         21   -1    0    0  501  503 -0.00000000000E+00 -0.00000000000E+00 -0.75208902747E+03  0.75208902747E+03  0.00000000000E+00 0. -1.
          6    1    1    2  501    0 -0.13314212819E+03  0.44474753300E+02 -0.46781090462E+03  0.51781837787E+03  0.17200000000E+03 0.  1.
         -6    1    1    2    0  502  0.13314212819E+03 -0.44474753300E+02 -0.21174864458E+03  0.30680012787E+03  0.17200000000E+03 0. -1.
<mgrwt>
<rscale>  2 0.22201088E+03</rscale>
<asrwt>0</asrwt>
<pdfrwt beam="1">  1       21 0.18132369E-01 0.22201088E+03</pdfrwt>
<pdfrwt beam="2">  1       21 0.18802226E+00 0.22201088E+03</pdfrwt>
<totfact> 0.43385517E+03</totfact>
</mgrwt>
</event>
<event>
 4    1  0.1091654E+000  0.2553751E+03  0.7546771E-02  0.1109954E+00
         21   -1    0    0  503  502  0.00000000000E+00  0.00000000000E+00  0.10990769528E+03  0.10990769528E+03  0.00000000000E+00 0.  1.
         21   -1    0    0  501  503 -0.00000000000E+00 -0.00000000000E+00 -0.60853942792E+03  0.60853942792E+03  0.00000000000E+00 0. -1.
          6    1    1    2  501    0 -0.18847931584E+03 -0.10391133939E+02 -0.30602330760E+03  0.39858084871E+03  0.17200000000E+03 0.  1.
         -6    1    1    2    0  502  0.18847931584E+03  0.10391133939E+02 -0.19260842504E+03  0.31986627450E+03  0.17200000000E+03 0. -1.
<mgrwt>
<rscale>  2 0.25537507E+03</rscale>
<asrwt>0</asrwt>
<pdfrwt beam="1">  1       21 0.27476924E-01 0.25537507E+03</pdfrwt>
<pdfrwt beam="2">  1       21 0.15213485E+00 0.25537507E+03</pdfrwt>
<totfact> 0.34628639E+03</totfact>
</mgrwt>
</event>
<event>
 4    1  0.1091654E+000  0.2195029E+03  0.7546771E-02  0.1134254E+00
         21   -1    0    0  501  502  0.00000000000E+00  0.00000000000E+00  0.71537445420E+02  0.71537445420E+02  0.00000000000E+00 0. -1.
         21   -1    0    0  502  503 -0.00000000000E+00 -0.00000000000E+00 -0.73680186085E+03  0.73680186085E+03  0.00000000000E+00 0.  1.
          6    1    1    2  501    0 -0.84814890492E+01 -0.13610869151E+03 -0.21417905938E+03  0.30668254114E+03  0.17200000000E+03 0. -1.
         -6    1    1    2    0  503  0.84814890492E+01  0.13610869151E+03 -0.45108535604E+03  0.50165676513E+03  0.17200000000E+03 0.  1.
<mgrwt>
<rscale>  2 0.21950287E+03</rscale>
<asrwt>0</asrwt>
<pdfrwt beam="1">  1       21 0.17884361E-01 0.21950287E+03</pdfrwt>
<pdfrwt beam="2">  1       21 0.18420047E+00 0.21950287E+03</pdfrwt>
<totfact> 0.47313276E+03</totfact>
</mgrwt>
</event>
<event>
 4    1  0.1091654E+000  0.2337399E+03  0.7546771E-02  0.1124035E+00
         21   -1    0    0  501  502  0.00000000000E+00  0.00000000000E+00  0.14768613854E+04  0.14768613854E+04  0.00000000000E+00 0. -1.
         21   -1    0    0  502  503 -0.00000000000E+00 -0.00000000000E+00 -0.62307064133E+02  0.62307064133E+02  0.00000000000E+00 0.  1.
          6    1    1    2  501    0 -0.15738704812E+03 -0.16722599719E+02  0.11978051949E+04  0.12203981372E+04  0.17200000000E+03 0. -1.
         -6    1    1    2    0  503  0.15738704812E+03  0.16722599719E+02  0.21674912631E+03  0.31877031231E+03  0.17200000000E+03 0.  1.
<mgrwt>
<rscale>  2 0.23373987E+03</rscale>
<asrwt>0</asrwt>
<pdfrwt beam="1">  1       21 0.36921523E+00 0.23373987E+03</pdfrwt>
<pdfrwt beam="2">  1       21 0.15576771E-01 0.23373987E+03</pdfrwt>
<totfact> 0.46349648E+02</totfact>
</mgrwt>
</event>
<event>
 4    1  0.1091654E+000  0.2179864E+03  0.7546771E-02  0.1135393E+00
         21   -1    0    0  501  502  0.00000000000E+00  0.00000000000E+00  0.63925103616E+02  0.63925103616E+02  0.00000000000E+00 0. -1.
         21   -1    0    0  502  503 -0.00000000000E+00 -0.00000000000E+00 -0.79357252908E+03  0.79357252908E+03  0.00000000000E+00 0. -1.
          6    1    1    2  501    0  0.13255534408E+03  0.19056921465E+02 -0.47269409372E+03  0.52053606190E+03  0.17200000000E+03 0. -1.
         -6    1    1    2    0  503 -0.13255534408E+03 -0.19056921465E+02 -0.25695333174E+03  0.33696157079E+03  0.17200000000E+03 0. -1.
<mgrwt>
<rscale>  2 0.21798643E+03</rscale>
<asrwt>0</asrwt>
<pdfrwt beam="1">  1       21 0.15981276E-01 0.21798643E+03</pdfrwt>
<pdfrwt beam="2">  1       21 0.19839313E+00 0.21798643E+03</pdfrwt>
<totfact> 0.46970386E+03</totfact>
</mgrwt>
</event>
<event>
 4    1  0.1091654E+000  0.1967977E+03  0.7546771E-02  0.1152469E+00
         21   -1    0    0  503  502  0.00000000000E+00  0.00000000000E+00  0.11022450903E+03  0.11022450903E+03  0.00000000000E+00 0. -1.
         21   -1    0    0  501  503 -0.00000000000E+00 -0.00000000000E+00 -0.35758429607E+03  0.35758429607E+03  0.00000000000E+00 0.  1.
          6    1    1    2  501    0 -0.94441526457E+02 -0.15037606435E+02 -0.15452069970E+03  0.25021186655E+03  0.17200000000E+03 0. -1.
         -6    1    1    2    0  502  0.94441526457E+02  0.15037606435E+02 -0.92839087341E+02  0.21759693855E+03  0.17200000000E+03 0. -1.
<mgrwt>
<rscale>  2 0.19679769E+03</rscale>
<asrwt>0</asrwt>
<pdfrwt beam="1">  1       21 0.27556128E-01 0.19679769E+03</pdfrwt>
<pdfrwt beam="2">  1       21 0.89396073E-01 0.19679769E+03</pdfrwt>
<totfact> 0.13371654E+04</totfact>
</mgrwt>
</event>
<event>
 4    1  0.1091654E+000  0.2837570E+03  0.7546771E-02  0.1093654E+00
         21   -1    0    0  501  502  0.00000000000E+00  0.00000000000E+00  0.87181227351E+02  0.87181227351E+02  0.00000000000E+00 0. -1.
         21   -1    0    0  502  503 -0.00000000000E+00 -0.00000000000E+00 -0.97828547509E+03  0.97828547509E+03  0.00000000000E+00 0.  1.
          6    1    1    2  501    0 -0.22526954320E+03  0.13699783349E+02 -0.31956437946E+03  0.42736336270E+03  0.17200000000E+03 0. -1.
         -6    1    1    2    0  503  0.22526954320E+03 -0.13699783349E+02 -0.57153986828E+03  0.63810333974E+03  0.17200000000E+03 0.  1.
<mgrwt>
<rscale>  2 0.28375703E+03</rscale>
<asrwt>0</asrwt>
<pdfrwt beam="1">  1       21 0.21795307E-01 0.28375703E+03</pdfrwt>
<pdfrwt beam="2">  1       21 0.24457137E+00 0.28375703E+03</pdfrwt>
<totfact> 0.12860252E+03</totfact>
</mgrwt>
</event>
<event>
 4    1  0.1091654E+000  0.2572485E+03  0.7546771E-02  0.1108808E+00
         21   -1    0    0  503  502  0.00000000000E+00  0.00000000000E+00  0.80100982271E+03  0.80100982271E+03  0.00000000000E+00 0.  1.
         21   -1    0    0  501  503 -0.00000000000E+00 -0.00000000000E+00 -0.87169716586E+02  0.87169716586E+02  0.00000000000E+00 0.  1.
          6    1    1    2  501    0  0.19051647201E+03 -0.17212808271E+02  0.25542696729E+03  0.36251860986E+03  0.17200000000E+03 0.  1.
         -6    1    1    2    0  502 -0.19051647201E+03  0.17212808271E+02  0.45841313883E+03  0.52566092943E+03  0.17200000000E+03 0.  1.
<mgrwt>
<rscale>  2 0.25724853E+03</rscale>
<asrwt>0</asrwt>
<pdfrwt beam="1">  1       21 0.20025243E+00 0.25724853E+03</pdfrwt>
<pdfrwt beam="2">  1       21 0.21792432E-01 0.25724853E+03</pdfrwt>
<totfact> 0.24820801E+03</totfact>
</mgrwt>
</event>
<event>
 4    1  0.1091654E+000  0.2536639E+03  0.7546771E-02  0.1111011E+00
         21   -1    0    0  503  502  0.00000000000E+00  0.00000000000E+00  0.24694291540E+03  0.24694291540E+03  0.00000000000E+00 0. -1.
         21   -1    0    0  501  503 -0.00000000000E+00 -0.00000000000E+00 -0.26742628315E+03  0.26742628315E+03  0.00000000000E+00 0.  1.
          6    1    1    2  501    0  0.14375380351E+03  0.11872757691E+03 -0.51428120070E+02  0.25882473815E+03  0.17200000000E+03 0.  1.
         -6    1    1    2    0  502 -0.14375380351E+03 -0.11872757691E+03  0.30944752316E+02  0.25554446040E+03  0.17200000000E+03 0. -1.
<mgrwt>
<rscale>  2 0.25366394E+03</rscale>
<asrwt>0</asrwt>
<pdfrwt beam="1">  1       21 0.61735729E-01 0.25366394E+03</pdfrwt>
<pdfrwt beam="2">  1       21 0.66856571E-01 0.25366394E+03</pdfrwt>
<totfact> 0.47855764E+03</totfact>
</mgrwt>
</event>
<event>
 4    1  0.1091654E+000  0.1902146E+03  0.7546771E-02  0.1158268E+00
         21   -1    0    0  503  502  0.00000000000E+00  0.00000000000E+00  0.15680961478E+04  0.15680961478E+04  0.00000000000E+00 0. -1.
         21   -1    0    0  501  503 -0.00000000000E+00 -0.00000000000E+00 -0.53055249361E+02  0.53055249361E+02  0.00000000000E+00 0. -1.
          6    1    1    2  501    0  0.80539809631E+02  0.10532319944E+02  0.14818378593E+03  0.24112242764E+03  0.17200000000E+03 0. -1.
         -6    1    1    2    0  502 -0.80539809631E+02 -0.10532319944E+02  0.13668571125E+04  0.13800289695E+04  0.17200000000E+03 0. -1.
<mgrwt>
<rscale>  2 0.19021459E+03</rscale>
<asrwt>0</asrwt>
<pdfrwt beam="1">  1       21 0.39202388E+00 0.19021459E+03</pdfrwt>
<pdfrwt beam="2">  1       21 0.13263818E-01 0.19021459E+03</pdfrwt>
<totfact> 0.48045929E+02</totfact>
</mgrwt>
</event>
<event>
 4    1  0.1091654E+000  0.2183845E+03  0.7546771E-02  0.1135093E+00
         21   -1    0    0  503  502  0.00000000000E+00  0.00000000000E+00  0.91158900512E+02  0.91158900512E+02  0.00000000000E+00 0. -1.
         21   -1    0    0  501  503 -0.00000000000E+00 -0.00000000000E+00 -0.10734795234E+04  0.10734795234E+04  0.00000000000E+00 0. -1.
          6    1    1    2  501    0  0.54064895892E+02 -0.12322646367E+03 -0.90809401612E+03  0.93398421638E+03  0.17200000000E+03 0. -1.
         -6    1    1    2    0  502 -0.54064895892E+02  0.12322646367E+03 -0.74226606806E+02  0.23065420758E+03  0.17200000000E+03 0. -1.
<mgrwt>
<rscale>  2 0.21838446E+03</rscale>
<asrwt>0</asrwt>
<pdfrwt beam="1">  1       21 0.22789725E-01 0.21838446E+03</pdfrwt>
<pdfrwt beam="2">  1       21 0.26836988E+00 0.21838446E+03</pdfrwt>
<totfact> 0.90915863E+02</totfact>
</mgrwt>
</event>
<event>
 4    1  0.1091654E+000  0.3133406E+03  0.7546771E-02  0.1078756E+00
         21   -1    0    0  503  502  0.00000000000E+00  0.00000000000E+00  0.18296543217E+03  0.18296543217E+03  0.00000000000E+00 0. -1.
         21   -1    0    0  501  503 -0.00000000000E+00 -0.00000000000E+00 -0.53727023387E+03  0.53727023387E+03  0.00000000000E+00 0.  1.
          6    1    1    2  501    0  0.28343821811E+02 -0.26037470592E+03 -0.16459541278E+03  0.35394068659E+03  0.17200000000E+03 0. -1.
         -6    1    1    2    0  502 -0.28343821811E+02  0.26037470592E+03 -0.18970938892E+03  0.36629497944E+03  0.17200000000E+03 0.  1.
<mgrwt>
<rscale>  2 0.31334064E+03</rscale>
<asrwt>0</asrwt>
<pdfrwt beam="1">  1       21 0.45741358E-01 0.31334064E+03</pdfrwt>
<pdfrwt beam="2">  1       21 0.13431756E+00 0.31334064E+03</pdfrwt>
<totfact> 0.16645845E+03</totfact>
</mgrwt>
</event>
<event>
 4    1  0.1091654E+000  0.1932703E+03  0.7546771E-02  0.1155544E+00
         21   -1    0    0  503  502  0.00000000000E+00  0.00000000000E+00  0.14979891182E+03  0.14979891182E+03  0.00000000000E+00 0. -1.
         21   -1    0    0  501  503 -0.00000000000E+00 -0.00000000000E+00 -0.25279039001E+03  0.25279039001E+03  0.00000000000E+00 0. -1.
          6    1    1    2  501    0  0.11798592220E+02  0.87350968888E+02 -0.74955155380E+02  0.20729610190E+03  0.17200000000E+03 0. -1.
         -6    1    1    2    0  502 -0.11798592220E+02 -0.87350968888E+02 -0.28036322805E+02  0.19529319993E+03  0.17200000000E+03 0. -1.
<mgrwt>
<rscale>  2 0.19327027E+03</rscale>
<asrwt>0</asrwt>
<pdfrwt beam="1">  1       21 0.37449728E-01 0.19327027E+03</pdfrwt>
<pdfrwt beam="2">  1       21 0.63197597E-01 0.19327027E+03</pdfrwt>
<totfact> 0.15926193E+04</totfact>
</mgrwt>
</event>
<event>
 4    1  0.1091654E+000  0.1876057E+03  0.7546771E-02  0.1160639E+00
         21   -1    0    0  501  502  0.00000000000E+00  0.00000000000E+00  0.50481709820E+02  0.50481709820E+02  0.00000000000E+00 0. -1.
         21   -1    0    0  502  503 -0.00000000000E+00 -0.00000000000E+00 -0.71818362138E+03  0.71818362138E+03  0.00000000000E+00 0. -1.
          6    1    1    2  501    0  0.42678622777E+02  0.61566477142E+02 -0.26815782519E+03  0.32726826177E+03  0.17200000000E+03 0. -1.
         -6    1    1    2    0  503 -0.42678622777E+02 -0.61566477142E+02 -0.39954408637E+03  0.44139706943E+03  0.17200000000E+03 0. -1.
<mgrwt>
<rscale>  2 0.18760569E+03</rscale>
<asrwt>0</asrwt>
<pdfrwt beam="1">  1       21 0.12620428E-01 0.18760569E+03</pdfrwt>
<pdfrwt beam="2">  1       21 0.17954590E+00 0.18760569E+03</pdfrwt>
<totfact> 0.98653076E+03</totfact>
</mgrwt>
</event>
<event>
 4    1  0.1091654E+000  0.1995185E+03  0.7546771E-02  0.1150146E+00
         21   -1    0    0  503  502  0.00000000000E+00  0.00000000000E+00  0.35500993742E+03  0.35500993742E+03  0.00000000000E+00 0. -1.
         21   -1    0    0  501  503 -0.00000000000E+00 -0.00000000000E+00 -0.24738209383E+03  0.24738209383E+03  0.00000000000E+00 0.  1.
          6    1    1    2  501    0 -0.99138958942E+02 -0.19877236528E+02 -0.16889386484E+03  0.26140538497E+03  0.17200000000E+03 0.  1.
         -6    1    1    2    0  502  0.99138958942E+02  0.19877236528E+02  0.27652170842E+03  0.34098664628E+03  0.17200000000E+03 0. -1.
<mgrwt>
<rscale>  2 0.19951851E+03</rscale>
<asrwt>0</asrwt>
<pdfrwt beam="1">  1       21 0.88752484E-01 0.19951851E+03</pdfrwt>
<pdfrwt beam="2">  1       21 0.61845524E-01 0.19951851E+03</pdfrwt>
<totfact> 0.26183496E+03</totfact>
</mgrwt>
</event>
<event>
 4    1  0.1091654E+000  0.1727886E+03  0.7546771E-02  0.1174971E+00
         21   -1    0    0  503  502  0.00000000000E+00  0.00000000000E+00  0.75079491180E+02  0.75079491180E+02  0.00000000000E+00 0.  1.
         21   -1    0    0  501  503 -0.00000000000E+00 -0.00000000000E+00 -0.80202174475E+03  0.80202174475E+03  0.00000000000E+00 0.  1.
          6    1    1    2  501    0  0.29384902910E+01  0.16224950706E+02 -0.67486732652E+03  0.69663605431E+03  0.17200000000E+03 0.  1.
         -6    1    1    2    0  502 -0.29384902910E+01 -0.16224950706E+02 -0.52074927044E+02  0.18046518162E+03  0.17200000000E+03 0.  1.
<mgrwt>
<rscale>  2 0.17278855E+03</rscale>
<asrwt>0</asrwt>
<pdfrwt beam="1">  1       21 0.18769873E-01 0.17278855E+03</pdfrwt>
<pdfrwt beam="2">  1       21 0.20050543E+00 0.17278855E+03</pdfrwt>
<totfact> 0.35327561E+03</totfact>
</mgrwt>
</event>
<event>
 4    1  0.1091654E+000  0.2167444E+03  0.7546771E-02  0.1136334E+00
         21   -1    0    0  501  502  0.00000000000E+00  0.00000000000E+00  0.21711574700E+03  0.21711574700E+03  0.00000000000E+00 0.  1.
         21   -1    0    0  502  503 -0.00000000000E+00 -0.00000000000E+00 -0.23255471671E+03  0.23255471671E+03  0.00000000000E+00 0. -1.
          6    1    1    2  501    0 -0.18282013781E+02  0.13061363913E+03  0.51587197131E+02  0.22279899834E+03  0.17200000000E+03 0.  1.
         -6    1    1    2    0  503  0.18282013781E+02 -0.13061363913E+03 -0.67026166843E+02  0.22687146537E+03  0.17200000000E+03 0. -1.
<mgrwt>
<rscale>  2 0.21674445E+03</rscale>
<asrwt>0</asrwt>
<pdfrwt beam="1">  1       21 0.54278937E-01 0.21674445E+03</pdfrwt>
<pdfrwt beam="2">  1       21 0.58138679E-01 0.21674445E+03</pdfrwt>
<totfact> 0.87453050E+03</totfact>
</mgrwt>
</event>
<event>
 4    1  0.1091654E+000  0.1754555E+03  0.7546771E-02  0.1172275E+00
         21   -1    0    0  503  502  0.00000000000E+00  0.00000000000E+00  0.42456908822E+03  0.42456908822E+03  0.00000000000E+00 0.  1.
         21   -1    0    0  501  503 -0.00000000000E+00 -0.00000000000E+00 -0.12477788012E+03  0.12477788012E+03  0.00000000000E+00 0.  1.
          6    1    1    2  501    0  0.12297702567E+02 -0.32394571535E+02 -0.27880678705E+02  0.17765689966E+03  0.17200000000E+03 0. -1.
         -6    1    1    2    0  502 -0.12297702567E+02  0.32394571535E+02  0.32767188681E+03  0.37169006868E+03  0.17200000000E+03 0. -1.
<mgrwt>
<rscale>  2 0.17545553E+03</rscale>
<asrwt>0</asrwt>
<pdfrwt beam="1">  1       21 0.10614227E+00 0.17545553E+03</pdfrwt>
<pdfrwt beam="2">  1       21 0.31194471E-01 0.17545553E+03</pdfrwt>
<totfact> 0.71224704E+03</totfact>
</mgrwt>
</event>
<event>
 4    1  0.1091654E+000  0.2080514E+03  0.7546771E-02  0.1143118E+00
         21   -1    0    0  501  502  0.00000000000E+00  0.00000000000E+00  0.80440692863E+03  0.80440692863E+03  0.00000000000E+00 0. -1.
         21   -1    0    0  502  503 -0.00000000000E+00 -0.00000000000E+00 -0.13087604315E+03  0.13087604315E+03  0.00000000000E+00 0.  1.
          6    1    1    2  501    0  0.10986481665E+03 -0.40386907099E+02  0.69561600564E+03  0.72606267464E+03  0.17200000000E+03 0. -1.
         -6    1    1    2    0  503 -0.10986481665E+03  0.40386907099E+02 -0.22085120151E+02  0.20922029714E+03  0.17200000000E+03 0. -1.
<mgrwt>
<rscale>  2 0.20805139E+03</rscale>
<asrwt>0</asrwt>
<pdfrwt beam="1">  1       21 0.20110172E+00 0.20805139E+03</pdfrwt>
<pdfrwt beam="2">  1       21 0.32719013E-01 0.20805139E+03</pdfrwt>
<totfact> 0.11680627E+03</totfact>
</mgrwt>
</event>
<event>
 4    1  0.1091654E+000  0.1783461E+03  0.7546771E-02  0.1169413E+00
         21   -1    0    0  503  502  0.00000000000E+00  0.00000000000E+00  0.20164606705E+03  0.20164606705E+03  0.00000000000E+00 0.  1.
         21   -1    0    0  501  503 -0.00000000000E+00 -0.00000000000E+00 -0.21109543049E+03  0.21109543049E+03  0.00000000000E+00 0.  1.
          6    1    1    2  501    0 -0.36565456749E+02  0.29770833964E+02 -0.10847857547E+03  0.20874610539E+03  0.17200000000E+03 0.  1.
         -6    1    1    2    0  502  0.36565456749E+02 -0.29770833964E+02  0.99029212019E+02  0.20399539214E+03  0.17200000000E+03 0.  1.
<mgrwt>
<rscale>  2 0.17834611E+03</rscale>
<asrwt>0</asrwt>
<pdfrwt beam="1">  1       21 0.50411517E-01 0.17834611E+03</pdfrwt>
<pdfrwt beam="2">  1       21 0.52773858E-01 0.17834611E+03</pdfrwt>
<totfact> 0.12868532E+04</totfact>
</mgrwt>
</event>
<event>
 4    1  0.1091654E+000  0.1810968E+03  0.7546771E-02  0.1166746E+00
         21   -1    0    0  501  502  0.00000000000E+00  0.00000000000E+00  0.77704303161E+03  0.77704303161E+03  0.00000000000E+00 0.  1.
         21   -1    0    0  502  503 -0.00000000000E+00 -0.00000000000E+00 -0.47829552135E+02  0.47829552135E+02  0.00000000000E+00 0.  1.
          6    1    1    2  501    0  0.21982914841E+02 -0.52238108625E+02  0.50602471670E+03  0.53745426080E+03  0.17200000000E+03 0.  1.
         -6    1    1    2    0  503 -0.21982914841E+02  0.52238108625E+02  0.22318876278E+03  0.28741832295E+03  0.17200000000E+03 0.  1.
<mgrwt>
<rscale>  2 0.18109685E+03</rscale>
<asrwt>0</asrwt>
<pdfrwt beam="1">  1       21 0.19426072E+00 0.18109685E+03</pdfrwt>
<pdfrwt beam="2">  1       21 0.11957391E-01 0.18109685E+03</pdfrwt>
<totfact> 0.87239136E+03</totfact>
</mgrwt>
</event>
<event>
 4    1  0.1091654E+000  0.2079928E+03  0.7546771E-02  0.1143165E+00
         21   -1    0    0  503  502  0.00000000000E+00  0.00000000000E+00  0.18415794563E+03  0.18415794563E+03  0.00000000000E+00 0. -1.
         21   -1    0    0  501  503 -0.00000000000E+00 -0.00000000000E+00 -0.23671412756E+03  0.23671412756E+03  0.00000000000E+00 0. -1.
          6    1    1    2  501    0 -0.62016621591E+02  0.99151036232E+02 -0.44637121191E+02  0.21272861098E+03  0.17200000000E+03 0. -1.
         -6    1    1    2    0  502  0.62016621591E+02 -0.99151036232E+02 -0.79190607301E+01  0.20814346221E+03  0.17200000000E+03 0. -1.
<mgrwt>
<rscale>  2 0.20799276E+03</rscale>
<asrwt>0</asrwt>
<pdfrwt beam="1">  1       21 0.46039486E-01 0.20799276E+03</pdfrwt>
<pdfrwt beam="2">  1       21 0.59178532E-01 0.20799276E+03</pdfrwt>
<totfact> 0.11945198E+04</totfact>
</mgrwt>
</event>
<event>
 4    1  0.1091654E+000  0.2927835E+03  0.7546771E-02  0.1088905E+00
         21   -1    0    0  501  502  0.00000000000E+00  0.00000000000E+00  0.45066224476E+03  0.45066224476E+03  0.00000000000E+00 0.  1.
         21   -1    0    0  502  503 -0.00000000000E+00 -0.00000000000E+00 -0.19925821384E+03  0.19925821384E+03  0.00000000000E+00 0.  1.
          6    1    1    2  501    0  0.14502956432E+03 -0.18736223004E+03  0.19493486695E+03  0.35174107256E+03  0.17200000000E+03 0.  1.
         -6    1    1    2    0  503 -0.14502956432E+03  0.18736223004E+03  0.56469163974E+02  0.29817938603E+03  0.17200000000E+03 0.  1.
<mgrwt>
<rscale>  2 0.29278350E+03</rscale>
<asrwt>0</asrwt>
<pdfrwt beam="1">  1       21 0.11266556E+00 0.29278350E+03</pdfrwt>
<pdfrwt beam="2">  1       21 0.49814554E-01 0.29278350E+03</pdfrwt>
<totfact> 0.21969185E+03</totfact>
</mgrwt>
</event>
<event>
 4    1  0.1091654E+000  0.1785226E+03  0.7546771E-02  0.1169241E+00
         21   -1    0    0  501  502  0.00000000000E+00  0.00000000000E+00  0.63038986297E+02  0.63038986297E+02  0.00000000000E+00 0.  1.
         21   -1    0    0  502  503 -0.00000000000E+00 -0.00000000000E+00 -0.51463805517E+03  0.51463805517E+03  0.00000000000E+00 0.  1.
          6    1    1    2  501    0  0.47468621189E+02  0.57485741971E+01 -0.26415054081E+03  0.31881942274E+03  0.17200000000E+03 0. -1.
         -6    1    1    2    0  503 -0.47468621189E+02 -0.57485741971E+01 -0.18744852806E+03  0.25885761873E+03  0.17200000000E+03 0. -1.
<mgrwt>
<rscale>  2 0.17852259E+03</rscale>
<asrwt>0</asrwt>
<pdfrwt beam="1">  1       21 0.15759746E-01 0.17852259E+03</pdfrwt>
<pdfrwt beam="2">  1       21 0.12865951E+00 0.17852259E+03</pdfrwt>
<totfact> 0.16058292E+04</totfact>
</mgrwt>
</event>
<event>
 4    1  0.1091654E+000  0.1803466E+03  0.7546771E-02  0.1167468E+00
         21   -1    0    0  501  502  0.00000000000E+00  0.00000000000E+00  0.15191570978E+03  0.15191570978E+03  0.00000000000E+00 0.  1.
         21   -1    0    0  502  503 -0.00000000000E+00 -0.00000000000E+00 -0.39661687579E+03  0.39661687579E+03  0.00000000000E+00 0.  1.
          6    1    1    2  501    0  0.67826587783E+01  0.53804047008E+02  0.63704053396E+02  0.19126705507E+03  0.17200000000E+03 0.  1.
         -6    1    1    2    0  503 -0.67826587783E+01 -0.53804047008E+02 -0.30840521940E+03  0.35726553051E+03  0.17200000000E+03 0.  1.
<mgrwt>
<rscale>  2 0.18034656E+03</rscale>
<asrwt>0</asrwt>
<pdfrwt beam="1">  1       21 0.37978928E-01 0.18034656E+03</pdfrwt>
<pdfrwt beam="2">  1       21 0.99154218E-01 0.18034656E+03</pdfrwt>
<totfact> 0.56550284E+03</totfact>
</mgrwt>
</event>
<event>
 4    1  0.1091654E+000  0.1804659E+03  0.7546771E-02  0.1167353E+00
         21   -1    0    0  503  502  0.00000000000E+00  0.00000000000E+00  0.11937586387E+03  0.11937586387E+03  0.00000000000E+00 0. -1.
         21   -1    0    0  501  503 -0.00000000000E+00 -0.00000000000E+00 -0.40112631372E+03  0.40112631372E+03  0.00000000000E+00 0. -1.
          6    1    1    2  501    0  0.30351101535E+02  0.45417481844E+02 -0.28806533564E+03  0.33992583694E+03  0.17200000000E+03 0. -1.
         -6    1    1    2    0  502 -0.30351101535E+02 -0.45417481844E+02  0.63148857881E+01  0.18057634065E+03  0.17200000000E+03 0. -1.
<mgrwt>
<rscale>  2 0.18046589E+03</rscale>
<asrwt>0</asrwt>
<pdfrwt beam="1">  1       21 0.29843966E-01 0.18046589E+03</pdfrwt>
<pdfrwt beam="2">  1       21 0.10028158E+00 0.18046589E+03</pdfrwt>
<totfact> 0.88570762E+03</totfact>
</mgrwt>
</event>
<event>
 4    1  0.1091654E+000  0.2261989E+03  0.7546771E-02  0.1129344E+00
         21   -1    0    0  501  502  0.00000000000E+00  0.00000000000E+00  0.29047829369E+03  0.29047829369E+03  0.00000000000E+00 0.  1.
         21   -1    0    0  502  503 -0.00000000000E+00 -0.00000000000E+00 -0.21858484198E+03  0.21858484198E+03  0.00000000000E+00 0.  1.
          6    1    1    2  501    0 -0.14645279181E+03 -0.11555064466E+02  0.14810332692E+03  0.27037110642E+03  0.17200000000E+03 0.  1.
         -6    1    1    2    0  503  0.14645279181E+03  0.11555064466E+02 -0.76209875212E+02  0.23869202924E+03  0.17200000000E+03 0.  1.
<mgrwt>
<rscale>  2 0.22619889E+03</rscale>
<asrwt>0</asrwt>
<pdfrwt beam="1">  1       21 0.72619573E-01 0.22619889E+03</pdfrwt>
<pdfrwt beam="2">  1       21 0.54646211E-01 0.22619889E+03</pdfrwt>
<totfact> 0.52698181E+03</totfact>
</mgrwt>
</event>
<event>
 4    1  0.1091654E+000  0.1786658E+03  0.7546771E-02  0.1169101E+00
         21   -1    0    0  501  502  0.00000000000E+00  0.00000000000E+00  0.14076901231E+04  0.14076901231E+04  0.00000000000E+00 0.  1.
         21   -1    0    0  502  503 -0.00000000000E+00 -0.00000000000E+00 -0.69120017762E+02  0.69120017762E+02  0.00000000000E+00 0. -1.
          6    1    1    2  501    0  0.29874487354E+02 -0.38012888220E+02  0.12745637245E+04  0.12870253115E+04  0.17200000000E+03 0.  1.
         -6    1    1    2    0  503 -0.29874487354E+02  0.38012888220E+02  0.64006380847E+02  0.18978482936E+03  0.17200000000E+03 0. -1.
<mgrwt>
<rscale>  2 0.17866579E+03</rscale>
<asrwt>0</asrwt>
<pdfrwt beam="1">  1       21 0.35192244E+00 0.17866579E+03</pdfrwt>
<pdfrwt beam="2">  1       21 0.17280009E-01 0.17866579E+03</pdfrwt>
<totfact> 0.52751358E+02</totfact>
</mgrwt>
</event>
<event>
 4    1  0.1091654E+000  0.3071094E+03  0.7546771E-02  0.1081740E+00
         21   -1    0    0  503  502  0.00000000000E+00  0.00000000000E+00  0.93345053052E+02  0.93345053052E+02  0.00000000000E+00 0.  1.
         21   -1    0    0  501  503 -0.00000000000E+00 -0.00000000000E+00 -0.11061800977E+04  0.11061800977E+04  0.00000000000E+00 0. -1.
          6    1    1    2  501    0 -0.58433578125E+02  0.24762415496E+03 -0.68289742275E+03  0.74877573089E+03  0.17200000000E+03 0. -1.
         -6    1    1    2    0  502  0.58433578125E+02 -0.24762415496E+03 -0.32993762195E+03  0.45074941991E+03  0.17200000000E+03 0.  1.
<mgrwt>
<rscale>  2 0.30710944E+03</rscale>
<asrwt>0</asrwt>
<pdfrwt beam="1">  1       21 0.23336263E-01 0.30710944E+03</pdfrwt>
<pdfrwt beam="2">  1       21 0.27654503E+00 0.30710944E+03</pdfrwt>
<totfact> 0.71390607E+02</totfact>
</mgrwt>
</event>
<event>
 4    1  0.1091654E+000  0.1911371E+03  0.7546771E-02  0.1157440E+00
         21   -1    0    0  503  502  0.00000000000E+00  0.00000000000E+00  0.10227936101E+04  0.10227936101E+04  0.00000000000E+00 0.  1.
         21   -1    0    0  501  503 -0.00000000000E+00 -0.00000000000E+00 -0.77042099633E+02  0.77042099633E+02  0.00000000000E+00 0.  1.
          6    1    1    2  501    0 -0.83077008601E+02  0.69006622472E+01  0.70131866093E+02  0.20359736526E+03  0.17200000000E+03 0.  1.
         -6    1    1    2    0  502  0.83077008601E+02 -0.69006622472E+01  0.87561964439E+03  0.89623834449E+03  0.17200000000E+03 0.  1.
<mgrwt>
<rscale>  2 0.19113715E+03</rscale>
<asrwt>0</asrwt>
<pdfrwt beam="1">  1       21 0.25569836E+00 0.19113715E+03</pdfrwt>
<pdfrwt beam="2">  1       21 0.19260528E-01 0.19113715E+03</pdfrwt>
<totfact> 0.15274006E+03</totfact>
</mgrwt>
</event>
<event>
 4    1  0.1091654E+000  0.1889237E+03  0.7546771E-02  0.1159436E+00
         21   -1    0    0  503  502  0.00000000000E+00  0.00000000000E+00  0.67925341462E+03  0.67925341462E+03  0.00000000000E+00 0. -1.
         21   -1    0    0  501  503 -0.00000000000E+00 -0.00000000000E+00 -0.53925179679E+02  0.53925179679E+02  0.00000000000E+00 0.  1.
          6    1    1    2  501    0  0.60789315694E+02 -0.49120684284E+02  0.25404170767E+03  0.31659022689E+03  0.17200000000E+03 0.  1.
         -6    1    1    2    0  502 -0.60789315694E+02  0.49120684284E+02  0.37128652728E+03  0.41658836741E+03  0.17200000000E+03 0. -1.
<mgrwt>
<rscale>  2 0.18892375E+03</rscale>
<asrwt>0</asrwt>
<pdfrwt beam="1">  1       21 0.16981333E+00 0.18892375E+03</pdfrwt>
<pdfrwt beam="2">  1       21 0.13481297E-01 0.18892375E+03</pdfrwt>
<totfact> 0.10218904E+04</totfact>
</mgrwt>
</event>
<event>
 4    1  0.1091654E+000  0.2300373E+03  0.7546771E-02  0.1126614E+00
         21   -1    0    0  503  502  0.00000000000E+00  0.00000000000E+00  0.51207928924E+03  0.51207928924E+03  0.00000000000E+00 0.  1.
         21   -1    0    0  501  503 -0.00000000000E+00 -0.00000000000E+00 -0.12189264894E+03  0.12189264894E+03  0.00000000000E+00 0. -1.
          6    1    1    2  501    0  0.15223443906E+03 -0.12562458399E+02  0.71418820559E+02  0.24086881850E+03  0.17200000000E+03 0. -1.
         -6    1    1    2    0  502 -0.15223443906E+03  0.12562458399E+02  0.31876781975E+03  0.39310311968E+03  0.17200000000E+03 0.  1.
<mgrwt>
<rscale>  2 0.23003726E+03</rscale>
<asrwt>0</asrwt>
<pdfrwt beam="1">  1       21 0.12801982E+00 0.23003726E+03</pdfrwt>
<pdfrwt beam="2">  1       21 0.30473164E-01 0.23003726E+03</pdfrwt>
<totfact> 0.45101004E+03</totfact>
</mgrwt>
</event>
<event>
 4    1  0.1091654E+000  0.2594669E+03  0.7546771E-02  0.1107464E+00
         21   -1    0    0  501  502  0.00000000000E+00  0.00000000000E+00  0.32498526105E+03  0.32498526105E+03  0.00000000000E+00 0. -1.
         21   -1    0    0  502  503 -0.00000000000E+00 -0.00000000000E+00 -0.36875020659E+03  0.36875020659E+03  0.00000000000E+00 0.  1.
          6    1    1    2  501    0  0.10188500452E+03  0.16540406560E+03  0.20773712676E+03  0.33238196837E+03  0.17200000000E+03 0. -1.
         -6    1    1    2    0  503 -0.10188500452E+03 -0.16540406560E+03 -0.25150207229E+03  0.36135349927E+03  0.17200000000E+03 0.  1.
<mgrwt>
<rscale>  2 0.25946687E+03</rscale>
<asrwt>0</asrwt>
<pdfrwt beam="1">  1       21 0.81246316E-01 0.25946687E+03</pdfrwt>
<pdfrwt beam="2">  1       21 0.92187551E-01 0.25946687E+03</pdfrwt>
<totfact> 0.12466621E+03</totfact>
</mgrwt>
</event>
<event>
 4    1  0.1091654E+000  0.1908732E+03  0.7546771E-02  0.1157676E+00
         21   -1    0    0  501  502  0.00000000000E+00  0.00000000000E+00  0.15509404817E+03  0.15509404817E+03  0.00000000000E+00 0. -1.
         21   -1    0    0  502  503 -0.00000000000E+00 -0.00000000000E+00 -0.31766818809E+03  0.31766818809E+03  0.00000000000E+00 0. -1.
          6    1    1    2  501    0  0.81757493132E+02  0.12816932649E+02 -0.20194093606E+03  0.27787173858E+03  0.17200000000E+03 0. -1.
         -6    1    1    2    0  503 -0.81757493132E+02 -0.12816932649E+02  0.39366796135E+02  0.19489049767E+03  0.17200000000E+03 0. -1.
<mgrwt>
<rscale>  2 0.19087316E+03</rscale>
<asrwt>0</asrwt>
<pdfrwt beam="1">  1       21 0.38773512E-01 0.19087316E+03</pdfrwt>
<pdfrwt beam="2">  1       21 0.79417047E-01 0.19087316E+03</pdfrwt>
<totfact> 0.89796598E+03</totfact>
</mgrwt>
</event>
<event>
 4    1  0.1091654E+000  0.1864611E+03  0.7546771E-02  0.1161692E+00
         21   -1    0    0  503  502  0.00000000000E+00  0.00000000000E+00  0.54651216545E+03  0.54651216545E+03  0.00000000000E+00 0.  1.
         21   -1    0    0  501  503 -0.00000000000E+00 -0.00000000000E+00 -0.97481323194E+02  0.97481323194E+02  0.00000000000E+00 0.  1.
          6    1    1    2  501    0  0.69872936120E+02  0.17364467692E+02  0.34731856501E+02  0.18966827304E+03  0.17200000000E+03 0.  1.
         -6    1    1    2    0  502 -0.69872936120E+02 -0.17364467692E+02  0.41429898576E+03  0.45432521561E+03  0.17200000000E+03 0.  1.
<mgrwt>
<rscale>  2 0.18646113E+03</rscale>
<asrwt>0</asrwt>
<pdfrwt beam="1">  1       21 0.13662803E+00 0.18646113E+03</pdfrwt>
<pdfrwt beam="2">  1       21 0.24370332E-01 0.18646113E+03</pdfrwt>
<totfact> 0.60891613E+03</totfact>
</mgrwt>
</event>
<event>
 4    1  0.1091654E+000  0.1800659E+03  0.7546771E-02  0.1167739E+00
         21   -1    0    0  503  502  0.00000000000E+00  0.00000000000E+00  0.13230782838E+03  0.13230782838E+03  0.00000000000E+00 0.  1.
         21   -1    0    0  501  503 -0.00000000000E+00 -0.00000000000E+00 -0.25432136099E+03  0.25432136099E+03  0.00000000000E+00 0.  1.
          6    1    1    2  501    0 -0.53168217646E+02  0.35886006051E+01 -0.97891198463E+02  0.20495468806E+03  0.17200000000E+03 0.  1.
         -6    1    1    2    0  502  0.53168217646E+02 -0.35886006051E+01 -0.24122334148E+02  0.18167450131E+03  0.17200000000E+03 0.  1.
<mgrwt>
<rscale>  2 0.18006593E+03</rscale>
<asrwt>0</asrwt>
<pdfrwt beam="1">  1       21 0.33076957E-01 0.18006593E+03</pdfrwt>
<pdfrwt beam="2">  1       21 0.63580340E-01 0.18006593E+03</pdfrwt>
<totfact> 0.20274012E+04</totfact>
</mgrwt>
</event>
<event>
 4    1  0.1091654E+000  0.1970389E+03  0.7546771E-02  0.1152262E+00
         21   -1    0    0  503  502  0.00000000000E+00  0.00000000000E+00  0.31604025286E+03  0.31604025286E+03  0.00000000000E+00 0. -1.
         21   -1    0    0  501  503 -0.00000000000E+00 -0.00000000000E+00 -0.20947431757E+03  0.20947431757E+03  0.00000000000E+00 0.  1.
          6    1    1    2  501    0  0.36659698643E+02 -0.88861718683E+02 -0.11569063231E+03  0.22849214638E+03  0.17200000000E+03 0.  1.
         -6    1    1    2    0  502 -0.36659698643E+02  0.88861718683E+02  0.22225656760E+03  0.29702242406E+03  0.17200000000E+03 0. -1.
<mgrwt>
<rscale>  2 0.19703893E+03</rscale>
<asrwt>0</asrwt>
<pdfrwt beam="1">  1       21 0.79010063E-01 0.19703893E+03</pdfrwt>
<pdfrwt beam="2">  1       21 0.52368580E-01 0.19703893E+03</pdfrwt>
<totfact> 0.48757784E+03</totfact>
</mgrwt>
</event>
<event>
 4    1  0.1091654E+000  0.2324921E+03  0.7546771E-02  0.1124898E+00
         21   -1    0    0  503  502  0.00000000000E+00  0.00000000000E+00  0.10037420481E+03  0.10037420481E+03  0.00000000000E+00 0. -1.
         21   -1    0    0  501  503 -0.00000000000E+00 -0.00000000000E+00 -0.65684223388E+03  0.65684223388E+03  0.00000000000E+00 0.  1.
          6    1    1    2  501    0 -0.94089711447E+02 -0.12496276125E+03 -0.11753616105E+03  0.26051355944E+03  0.17200000000E+03 0. -1.
         -6    1    1    2    0  502  0.94089711447E+02  0.12496276125E+03 -0.43893186802E+03  0.49670287925E+03  0.17200000000E+03 0.  1.
<mgrwt>
<rscale>  2 0.23249208E+03</rscale>
<asrwt>0</asrwt>
<pdfrwt beam="1">  1       21 0.25093551E-01 0.23249208E+03</pdfrwt>
<pdfrwt beam="2">  1       21 0.16421056E+00 0.23249208E+03</pdfrwt>
<totfact> 0.34103583E+03</totfact>
</mgrwt>
</event>
<event>
 4    1  0.1091654E+000  0.1782411E+03  0.7546771E-02  0.1169516E+00
         21   -1    0    0  501  502  0.00000000000E+00  0.00000000000E+00  0.75243699518E+03  0.75243699518E+03  0.00000000000E+00 0.  1.
         21   -1    0    0  502  503 -0.00000000000E+00 -0.00000000000E+00 -0.42760367886E+02  0.42760367886E+02  0.00000000000E+00 0.  1.
          6    1    1    2  501    0 -0.44554665219E+02 -0.14169971108E+02  0.39942338327E+03  0.43738878058E+03  0.17200000000E+03 0.  1.
         -6    1    1    2    0  503  0.44554665219E+02  0.14169971108E+02  0.31025324403E+03  0.35780858249E+03  0.17200000000E+03 0.  1.
<mgrwt>
<rscale>  2 0.17824115E+03</rscale>
<asrwt>0</asrwt>
<pdfrwt beam="1">  1       21 0.18810921E+00 0.17824115E+03</pdfrwt>
<pdfrwt beam="2">  1       21 0.10690094E-01 0.17824115E+03</pdfrwt>
<totfact> 0.11711178E+04</totfact>
</mgrwt>
</event>
<event>
 4    1  0.1091654E+000  0.2925610E+03  0.7546771E-02  0.1089020E+00
         21   -1    0    0  503  502  0.00000000000E+00  0.00000000000E+00  0.62529086305E+03  0.62529086305E+03  0.00000000000E+00 0. -1.
         21   -1    0    0  501  503 -0.00000000000E+00 -0.00000000000E+00 -0.13927937222E+03  0.13927937222E+03  0.00000000000E+00 0.  1.
          6    1    1    2  501    0  0.95139802538E+02 -0.21669411994E+03  0.29314607141E+03  0.41415763041E+03  0.17200000000E+03 0. -1.
         -6    1    1    2    0  502 -0.95139802538E+02  0.21669411994E+03  0.19286541942E+03  0.35041260487E+03  0.17200000000E+03 0. -1.
<mgrwt>
<rscale>  2 0.29256097E+03</rscale>
<asrwt>0</asrwt>
<pdfrwt beam="1">  1       21 0.15632271E+00 0.29256097E+03</pdfrwt>
<pdfrwt beam="2">  1       21 0.34819845E-01 0.29256097E+03</pdfrwt>
<totfact> 0.19682008E+03</totfact>
</mgrwt>
</event>
<event>
 4    1  0.1091654E+000  0.2024051E+03  0.7546771E-02  0.1147726E+00
         21   -1    0    0  501  502  0.00000000000E+00  0.00000000000E+00  0.46076558233E+03  0.46076558233E+03  0.00000000000E+00 0.  1.
         21   -1    0    0  502  503 -0.00000000000E+00 -0.00000000000E+00 -0.14154230817E+03  0.14154230817E+03  0.00000000000E+00 0. -1.
          6    1    1    2  501    0 -0.67289251041E+02  0.82800859799E+02  0.34324909042E+03  0.39848182363E+03  0.17200000000E+03 0.  1.
         -6    1    1    2    0  503  0.67289251041E+02 -0.82800859799E+02 -0.24025816254E+02  0.20382606687E+03  0.17200000000E+03 0. -1.
<mgrwt>
<rscale>  2 0.20240510E+03</rscale>
<asrwt>0</asrwt>
<pdfrwt beam="1">  1       21 0.11519139E+00 0.20240510E+03</pdfrwt>
<pdfrwt beam="2">  1       21 0.35385578E-01 0.20240510E+03</pdfrwt>
<totfact> 0.44603117E+03</totfact>
</mgrwt>
</event>
<event>
 4    1  0.1091654E+000  0.1778842E+03  0.7546771E-02  0.1169867E+00
         21   -1    0    0  503  502  0.00000000000E+00  0.00000000000E+00  0.18688590499E+03  0.18688590499E+03  0.00000000000E+00 0.  1.
         21   -1    0    0  501  503 -0.00000000000E+00 -0.00000000000E+00 -0.17831190523E+03  0.17831190523E+03  0.00000000000E+00 0.  1.
          6    1    1    2  501    0 -0.25820780387E+02  0.37310567239E+02 -0.36726630035E+02  0.18163599996E+03  0.17200000000E+03 0.  1.
         -6    1    1    2    0  502  0.25820780387E+02 -0.37310567239E+02  0.45300629795E+02  0.18356181026E+03  0.17200000000E+03 0.  1.
<mgrwt>
<rscale>  2 0.17788421E+03</rscale>
<asrwt>0</asrwt>
<pdfrwt beam="1">  1       21 0.46721476E-01 0.17788421E+03</pdfrwt>
<pdfrwt beam="2">  1       21 0.44577976E-01 0.17788421E+03</pdfrwt>
<totfact> 0.21375540E+04</totfact>
</mgrwt>
</event>
<event>
 4    1  0.1091654E+000  0.2126563E+03  0.7546771E-02  0.1139480E+00
         21   -1    0    0  503  502  0.00000000000E+00  0.00000000000E+00  0.85565407661E+03  0.85565407661E+03  0.00000000000E+00 0.  1.
         21   -1    0    0  501  503 -0.00000000000E+00 -0.00000000000E+00 -0.12651468290E+03  0.12651468290E+03  0.00000000000E+00 0. -1.
          6    1    1    2  501    0  0.35608146761E+01 -0.12500412427E+03 -0.10153448886E+02  0.21289857447E+03  0.17200000000E+03 0. -1.
         -6    1    1    2    0  502 -0.35608146761E+01  0.12500412427E+03  0.73929284260E+03  0.76927018505E+03  0.17200000000E+03 0.  1.
<mgrwt>
<rscale>  2 0.21265632E+03</rscale>
<asrwt>0</asrwt>
<pdfrwt beam="1">  1       21 0.21391350E+00 0.21265632E+03</pdfrwt>
<pdfrwt beam="2">  1       21 0.31628673E-01 0.21265632E+03</pdfrwt>
<totfact> 0.10309616E+03</totfact>
</mgrwt>
</event>
<event>
 4    1  0.1091654E+000  0.2041663E+03  0.7546771E-02  0.1146271E+00
         21   -1    0    0  503  502  0.00000000000E+00  0.00000000000E+00  0.20374543810E+03  0.20374543810E+03  0.00000000000E+00 0. -1.
         21   -1    0    0  501  503 -0.00000000000E+00 -0.00000000000E+00 -0.22001894001E+03  0.22001894001E+03  0.00000000000E+00 0.  1.
          6    1    1    2  501    0 -0.10659857609E+03 -0.27141095279E+02 -0.64249166613E+02  0.21403703158E+03  0.17200000000E+03 0.  1.
         -6    1    1    2    0  502  0.10659857609E+03  0.27141095279E+02  0.47975664694E+02  0.20972734653E+03  0.17200000000E+03 0. -1.
<mgrwt>
<rscale>  2 0.20416634E+03</rscale>
<asrwt>0</asrwt>
<pdfrwt beam="1">  1       21 0.50936360E-01 0.20416634E+03</pdfrwt>
<pdfrwt beam="2">  1       21 0.55004735E-01 0.20416634E+03</pdfrwt>
<totfact> 0.11343647E+04</totfact>
</mgrwt>
</event>
<event>
 4    1  0.1091654E+000  0.1854712E+03  0.7546771E-02  0.1162611E+00
         21   -1    0    0  501  502  0.00000000000E+00  0.00000000000E+00  0.86870171555E+02  0.86870171555E+02  0.00000000000E+00 0. -1.
         21   -1    0    0  502  503 -0.00000000000E+00 -0.00000000000E+00 -0.11124135979E+04  0.11124135979E+04  0.00000000000E+00 0. -1.
          6    1    1    2  501    0  0.31239748745E+02  0.61964818048E+02 -0.31551001749E+02  0.18813565927E+03  0.17200000000E+03 0. -1.
         -6    1    1    2    0  503 -0.31239748745E+02 -0.61964818048E+02 -0.99399242465E+03  0.10111481102E+04  0.17200000000E+03 0. -1.
<mgrwt>
<rscale>  2 0.18547119E+03</rscale>
<asrwt>0</asrwt>
<pdfrwt beam="1">  1       21 0.21717543E-01 0.18547119E+03</pdfrwt>
<pdfrwt beam="2">  1       21 0.27810340E+00 0.18547119E+03</pdfrwt>
<totfact> 0.91139551E+02</totfact>
</mgrwt>
</event>
<event>
 4    1  0.1091654E+000  0.1835962E+03  0.7546771E-02  0.1164367E+00
         21   -1    0    0  501  502  0.00000000000E+00  0.00000000000E+00  0.28831900370E+03  0.28831900370E+03  0.00000000000E+00 0.  1.
         21   -1    0    0  502  503 -0.00000000000E+00 -0.00000000000E+00 -0.18418020023E+03  0.18418020023E+03  0.00000000000E+00 0.  1.
          6    1    1    2  501    0  0.37208924258E+01 -0.64107199684E+02  0.19484654835E+03  0.26771767871E+03  0.17200000000E+03 0.  1.
         -6    1    1    2    0  503 -0.37208924258E+01  0.64107199684E+02 -0.90707744868E+02  0.20478152522E+03  0.17200000000E+03 0.  1.
<mgrwt>
<rscale>  2 0.18359624E+03</rscale>
<asrwt>0</asrwt>
<pdfrwt beam="1">  1       21 0.72079750E-01 0.18359624E+03</pdfrwt>
<pdfrwt beam="2">  1       21 0.46045050E-01 0.18359624E+03</pdfrwt>
<totfact> 0.79020423E+03</totfact>
</mgrwt>
</event>
<event>
 4    1  0.1091654E+000  0.2332759E+03  0.7546771E-02  0.1124355E+00
         21   -1    0    0  503  502  0.00000000000E+00  0.00000000000E+00  0.58430937108E+03  0.58430937108E+03  0.00000000000E+00 0. -1.
         21   -1    0    0  501  503 -0.00000000000E+00 -0.00000000000E+00 -0.93143676344E+02  0.93143676344E+02  0.00000000000E+00 0. -1.
          6    1    1    2  501    0 -0.11578378664E+03 -0.10690078218E+03  0.24944089630E+03  0.34152367887E+03  0.17200000000E+03 0. -1.
         -6    1    1    2    0  502  0.11578378664E+03  0.10690078218E+03  0.24172479843E+03  0.33592936855E+03  0.17200000000E+03 0. -1.
<mgrwt>
<rscale>  2 0.23327594E+03</rscale>
<asrwt>0</asrwt>
<pdfrwt beam="1">  1       21 0.14607733E+00 0.23327594E+03</pdfrwt>
<pdfrwt beam="2">  1       21 0.23285921E-01 0.23327594E+03</pdfrwt>
<totfact> 0.53829845E+03</totfact>
</mgrwt>
</event>
<event>
 4    1  0.1091654E+000  0.1983903E+03  0.7546771E-02  0.1151104E+00
         21   -1    0    0  503  502  0.00000000000E+00  0.00000000000E+00  0.17813773110E+03  0.17813773110E+03  0.00000000000E+00 0. -1.
         21   -1    0    0  501  503 -0.00000000000E+00 -0.00000000000E+00 -0.23612868716E+03  0.23612868716E+03  0.00000000000E+00 0. -1.
          6    1    1    2  501    0 -0.96262520049E+02  0.22544504937E+02  0.23528430793E+02  0.19978066604E+03  0.17200000000E+03 0. -1.
         -6    1    1    2    0  502  0.96262520049E+02 -0.22544504937E+02 -0.81519386850E+02  0.21448575221E+03  0.17200000000E+03 0. -1.
<mgrwt>
<rscale>  2 0.19839034E+03</rscale>
<asrwt>0</asrwt>
<pdfrwt beam="1">  1       21 0.44534433E-01 0.19839034E+03</pdfrwt>
<pdfrwt beam="2">  1       21 0.59032172E-01 0.19839034E+03</pdfrwt>
<totfact> 0.12939921E+04</totfact>
</mgrwt>
</event>
<event>
 4    1  0.1091654E+000  0.1793120E+03  0.7546771E-02  0.1168471E+00
         21   -1    0    0  503  502  0.00000000000E+00  0.00000000000E+00  0.12164092020E+04  0.12164092020E+04  0.00000000000E+00 0. -1.
         21   -1    0    0  501  503 -0.00000000000E+00 -0.00000000000E+00 -0.29357654775E+02  0.29357654775E+02  0.00000000000E+00 0. -1.
          6    1    1    2  501    0  0.50584969203E+02  0.31530170990E+01  0.39691024604E+03  0.43553475640E+03  0.17200000000E+03 0. -1.
         -6    1    1    2    0  502 -0.50584969203E+02 -0.31530170990E+01  0.79014130114E+03  0.81023210032E+03  0.17200000000E+03 0. -1.
<mgrwt>
<rscale>  2 0.17931196E+03</rscale>
<asrwt>0</asrwt>
<pdfrwt beam="1">  1       21 0.30410213E+00 0.17931196E+03</pdfrwt>
<pdfrwt beam="2">  1       21 0.73394178E-02 0.17931196E+03</pdfrwt>
<totfact> 0.45798299E+03</totfact>
</mgrwt>
</event>
<event>
 4    1  0.1091654E+000  0.2031196E+03  0.7546771E-02  0.1147133E+00
         21   -1    0    0  501  502  0.00000000000E+00  0.00000000000E+00  0.92623591287E+03  0.92623591287E+03  0.00000000000E+00 0. -1.
         21   -1    0    0  502  503 -0.00000000000E+00 -0.00000000000E+00 -0.14289823615E+03  0.14289823615E+03  0.00000000000E+00 0.  1.
          6    1    1    2  501    0 -0.10341014026E+03  0.31303800239E+02 -0.51824292657E+02  0.20962667370E+03  0.17200000000E+03 0.  1.
         -6    1    1    2    0  503  0.10341014026E+03 -0.31303800239E+02  0.83516196939E+03  0.85950747532E+03  0.17200000000E+03 0. -1.
<mgrwt>
<rscale>  2 0.20311963E+03</rscale>
<asrwt>0</asrwt>
<pdfrwt beam="1">  1       21 0.23155896E+00 0.20311963E+03</pdfrwt>
<pdfrwt beam="2">  1       21 0.35724562E-01 0.20311963E+03</pdfrwt>
<totfact> 0.63835432E+02</totfact>
</mgrwt>
</event>
<event>
 4    1  0.1091654E+000  0.2684783E+03  0.7546771E-02  0.1102154E+00
         21   -1    0    0  503  502  0.00000000000E+00  0.00000000000E+00  0.11608463550E+03  0.11608463550E+03  0.00000000000E+00 0.  1.
         21   -1    0    0  501  503 -0.00000000000E+00 -0.00000000000E+00 -0.87172871124E+03  0.87172871124E+03  0.00000000000E+00 0. -1.
          6    1    1    2  501    0  0.19288094979E+03 -0.72756863936E+02 -0.64274247151E+03  0.69656191880E+03  0.17200000000E+03 0. -1.
         -6    1    1    2    0  502 -0.19288094979E+03  0.72756863936E+02 -0.11290160423E+03  0.29125142795E+03  0.17200000000E+03 0.  1.
<mgrwt>
<rscale>  2 0.26847835E+03</rscale>
<asrwt>0</asrwt>
<pdfrwt beam="1">  1       21 0.29021159E-01 0.26847835E+03</pdfrwt>
<pdfrwt beam="2">  1       21 0.21793217E+00 0.26847835E+03</pdfrwt>
<totfact> 0.10930198E+03</totfact>
</mgrwt>
</event>
<event>
 4    1  0.1091654E+000  0.2040692E+03  0.7546771E-02  0.1146351E+00
         21   -1    0    0  503  502  0.00000000000E+00  0.00000000000E+00  0.81042274059E+02  0.81042274059E+02  0.00000000000E+00 0. -1.
         21   -1    0    0  501  503 -0.00000000000E+00 -0.00000000000E+00 -0.58166469970E+03  0.58166469970E+03  0.00000000000E+00 0. -1.
          6    1    1    2  501    0 -0.56270718429E+02  0.94307184531E+02 -0.36344459883E+03  0.41681676457E+03  0.17200000000E+03 0. -1.
         -6    1    1    2    0  502  0.56270718429E+02 -0.94307184531E+02 -0.13717782681E+03  0.24589020919E+03  0.17200000000E+03 0. -1.
<mgrwt>
<rscale>  2 0.20406920E+03</rscale>
<asrwt>0</asrwt>
<pdfrwt beam="1">  1       21 0.20260569E-01 0.20406920E+03</pdfrwt>
<pdfrwt beam="2">  1       21 0.14541617E+00 0.20406920E+03</pdfrwt>
<totfact> 0.72401200E+03</totfact>
</mgrwt>
</event>
<event>
 4    1  0.1091654E+000  0.2413525E+03  0.7546771E-02  0.1118895E+00
         21   -1    0    0  501  502  0.00000000000E+00  0.00000000000E+00  0.18648550326E+03  0.18648550326E+03  0.00000000000E+00 0.  1.
         21   -1    0    0  502  503 -0.00000000000E+00 -0.00000000000E+00 -0.31625371497E+03  0.31625371497E+03  0.00000000000E+00 0. -1.
          6    1    1    2  501    0  0.83207172048E+01  0.16910884257E+03 -0.92767808576E+02  0.25856701506E+03  0.17200000000E+03 0.  1.
         -6    1    1    2    0  503 -0.83207172048E+01 -0.16910884257E+03 -0.37000403131E+02  0.24417220317E+03  0.17200000000E+03 0. -1.
<mgrwt>
<rscale>  2 0.24135251E+03</rscale>
<asrwt>0</asrwt>
<pdfrwt beam="1">  1       21 0.46621376E-01 0.24135251E+03</pdfrwt>
<pdfrwt beam="2">  1       21 0.79063428E-01 0.24135251E+03</pdfrwt>
<totfact> 0.60147566E+03</totfact>
</mgrwt>
</event>
<event>
 4    1  0.1091654E+000  0.1899754E+03  0.7546771E-02  0.1158483E+00
         21   -1    0    0  503  502  0.00000000000E+00  0.00000000000E+00  0.50837434816E+03  0.50837434816E+03  0.00000000000E+00 0.  1.
         21   -1    0    0  501  503 -0.00000000000E+00 -0.00000000000E+00 -0.72408402202E+02  0.72408402202E+02  0.00000000000E+00 0.  1.
          6    1    1    2  501    0 -0.80430162504E+02  0.61366555339E+01  0.25859315333E+03  0.32087550317E+03  0.17200000000E+03 0. -1.
         -6    1    1    2    0  502  0.80430162504E+02 -0.61366555339E+01  0.17737279263E+03  0.25990724720E+03  0.17200000000E+03 0. -1.
<mgrwt>
<rscale>  2 0.18997544E+03</rscale>
<asrwt>0</asrwt>
<pdfrwt beam="1">  1       21 0.12709358E+00 0.18997544E+03</pdfrwt>
<pdfrwt beam="2">  1       21 0.18102102E-01 0.18997544E+03</pdfrwt>
<totfact> 0.12736873E+04</totfact>
</mgrwt>
</event>
<event>
 4    1  0.1091654E+000  0.1737768E+03  0.7546771E-02  0.1173966E+00
         21   -1    0    0  503  502  0.00000000000E+00  0.00000000000E+00  0.15625351201E+03  0.15625351201E+03  0.00000000000E+00 0.  1.
         21   -1    0    0  501  503 -0.00000000000E+00 -0.00000000000E+00 -0.19358235976E+03  0.19358235976E+03  0.00000000000E+00 0.  1.
          6    1    1    2  501    0 -0.13061385213E+02 -0.21065884808E+02 -0.25744182048E+02  0.17567337361E+03  0.17200000000E+03 0.  1.
         -6    1    1    2    0  502  0.13061385213E+02  0.21065884808E+02 -0.11584665699E+02  0.17416249816E+03  0.17200000000E+03 0.  1.
<mgrwt>
<rscale>  2 0.17377679E+03</rscale>
<asrwt>0</asrwt>
<pdfrwt beam="1">  1       21 0.39063378E-01 0.17377679E+03</pdfrwt>
<pdfrwt beam="2">  1       21 0.48395590E-01 0.17377679E+03</pdfrwt>
<totfact> 0.26043151E+04</totfact>
</mgrwt>
</event>
<event>
 4    1  0.1091654E+000  0.1727295E+03  0.7546771E-02  0.1175031E+00
         21   -1    0    0  501  502  0.00000000000E+00  0.00000000000E+00  0.19927390367E+03  0.19927390367E+03  0.00000000000E+00 0. -1.
         21   -1    0    0  502  503 -0.00000000000E+00 -0.00000000000E+00 -0.22915356461E+03  0.22915356461E+03  0.00000000000E+00 0. -1.
          6    1    1    2  501    0 -0.76409979673E+01  0.13896472686E+02  0.11117994142E+03  0.20541780881E+03  0.17200000000E+03 0. -1.
         -6    1    1    2    0  503  0.76409979673E+01 -0.13896472686E+02 -0.14105960236E+03  0.22300965948E+03  0.17200000000E+03 0. -1.
<mgrwt>
<rscale>  2 0.17272955E+03</rscale>
<asrwt>0</asrwt>
<pdfrwt beam="1">  1       21 0.49818476E-01 0.17272955E+03</pdfrwt>
<pdfrwt beam="2">  1       21 0.57288391E-01 0.17272955E+03</pdfrwt>
<totfact> 0.11135271E+04</totfact>
</mgrwt>
</event>
<event>
 4    1  0.1091654E+000  0.2044196E+03  0.7546771E-02  0.1146063E+00
         21   -1    0    0  503  502  0.00000000000E+00  0.00000000000E+00  0.29622193262E+03  0.29622193262E+03  0.00000000000E+00 0.  1.
         21   -1    0    0  501  503 -0.00000000000E+00 -0.00000000000E+00 -0.24996177180E+03  0.24996177180E+03  0.00000000000E+00 0. -1.
          6    1    1    2  501    0  0.78904877694E+02 -0.77313491657E+02 -0.15711939273E+03  0.25782524951E+03  0.17200000000E+03 0. -1.
         -6    1    1    2    0  502 -0.78904877694E+02  0.77313491657E+02  0.20337955354E+03  0.28835845491E+03  0.17200000000E+03 0.  1.
<mgrwt>
<rscale>  2 0.20441956E+03</rscale>
<asrwt>0</asrwt>
<pdfrwt beam="1">  1       21 0.74055483E-01 0.20441956E+03</pdfrwt>
<pdfrwt beam="2">  1       21 0.62490443E-01 0.20441956E+03</pdfrwt>
<totfact> 0.38455281E+03</totfact>
</mgrwt>
</event>
<event>
 4    1  0.1091654E+000  0.1799386E+03  0.7546771E-02  0.1167862E+00
         21   -1    0    0  503  502  0.00000000000E+00  0.00000000000E+00  0.99855303019E+02  0.99855303019E+02  0.00000000000E+00 0.  1.
         21   -1    0    0  501  503 -0.00000000000E+00 -0.00000000000E+00 -0.43392666019E+03  0.43392666019E+03  0.00000000000E+00 0.  1.
          6    1    1    2  501    0  0.44724924358E+02  0.28170575644E+02 -0.30121526396E+03  0.35086825937E+03  0.17200000000E+03 0.  1.
         -6    1    1    2    0  502 -0.44724924358E+02 -0.28170575644E+02 -0.32856093211E+02  0.18291370384E+03  0.17200000000E+03 0.  1.
<mgrwt>
<rscale>  2 0.17993860E+03</rscale>
<asrwt>0</asrwt>
<pdfrwt beam="1">  1       21 0.24963826E-01 0.17993860E+03</pdfrwt>
<pdfrwt beam="2">  1       21 0.10848166E+00 0.17993860E+03</pdfrwt>
<totfact> 0.10352368E+04</totfact>
</mgrwt>
</event>
<event>
 4    1  0.1091654E+000  0.1750185E+03  0.7546771E-02  0.1172713E+00
         21   -1    0    0  501  502  0.00000000000E+00  0.00000000000E+00  0.16282028006E+03  0.16282028006E+03  0.00000000000E+00 0.  1.
         21   -1    0    0  502  503 -0.00000000000E+00 -0.00000000000E+00 -0.31911866598E+03  0.31911866598E+03  0.00000000000E+00 0.  1.
          6    1    1    2  501    0 -0.23322205729E+02  0.22439816122E+02  0.76234652243E+02  0.19090100270E+03  0.17200000000E+03 0.  1.
         -6    1    1    2    0  503  0.23322205729E+02 -0.22439816122E+02 -0.23253303817E+03  0.29103794335E+03  0.17200000000E+03 0.  1.
<mgrwt>
<rscale>  2 0.17501849E+03</rscale>
<asrwt>0</asrwt>
<pdfrwt beam="1">  1       21 0.40705070E-01 0.17501849E+03</pdfrwt>
<pdfrwt beam="2">  1       21 0.79779666E-01 0.17501849E+03</pdfrwt>
<totfact> 0.81518178E+03</totfact>
</mgrwt>
</event>
<event>
 4    1  0.1091654E+000  0.2016105E+03  0.7546771E-02  0.1148387E+00
         21   -1    0    0  501  502  0.00000000000E+00  0.00000000000E+00  0.94019784618E+02  0.94019784618E+02  0.00000000000E+00 0. -1.
         21   -1    0    0  502  503 -0.00000000000E+00 -0.00000000000E+00 -0.90346532948E+03  0.90346532948E+03  0.00000000000E+00 0. -1.
          6    1    1    2  501    0 -0.98726460996E+02 -0.36274996910E+02 -0.44561210279E+02  0.20647636902E+03  0.17200000000E+03 0. -1.
         -6    1    1    2    0  503  0.98726460996E+02  0.36274996910E+02 -0.76488433458E+03  0.79100874508E+03  0.17200000000E+03 0. -1.
<mgrwt>
<rscale>  2 0.20161049E+03</rscale>
<asrwt>0</asrwt>
<pdfrwt beam="1">  1       21 0.23504947E-01 0.20161049E+03</pdfrwt>
<pdfrwt beam="2">  1       21 0.22586633E+00 0.20161049E+03</pdfrwt>
<totfact> 0.15622867E+03</totfact>
</mgrwt>
</event>
<event>
 4    1  0.1091654E+000  0.1845028E+03  0.7546771E-02  0.1163515E+00
         21   -1    0    0  501  502  0.00000000000E+00  0.00000000000E+00  0.34038703285E+03  0.34038703285E+03  0.00000000000E+00 0.  1.
         21   -1    0    0  502  503 -0.00000000000E+00 -0.00000000000E+00 -0.10730301473E+03  0.10730301473E+03  0.00000000000E+00 0.  1.
          6    1    1    2  501    0  0.22449698535E+02 -0.62875299901E+02  0.17490886418E+03  0.25423297007E+03  0.17200000000E+03 0.  1.
         -6    1    1    2    0  503 -0.22449698535E+02  0.62875299901E+02  0.58175153948E+02  0.19345707751E+03  0.17200000000E+03 0.  1.
<mgrwt>
<rscale>  2 0.18450282E+03</rscale>
<asrwt>0</asrwt>
<pdfrwt beam="1">  1       21 0.85096756E-01 0.18450282E+03</pdfrwt>
<pdfrwt beam="2">  1       21 0.26825755E-01 0.18450282E+03</pdfrwt>
<totfact> 0.15897381E+04</totfact>
</mgrwt>
</event>
<event>
 4    1  0.1091654E+000  0.2053359E+03  0.7546771E-02  0.1145314E+00
         21   -1    0    0  503  502  0.00000000000E+00  0.00000000000E+00  0.28138834468E+03  0.28138834468E+03  0.00000000000E+00 0.  1.
         21   -1    0    0  501  503 -0.00000000000E+00 -0.00000000000E+00 -0.17129512314E+03  0.17129512314E+03  0.00000000000E+00 0.  1.
          6    1    1    2  501    0  0.11047889799E+03  0.19319619713E+02 -0.25060644285E+02  0.20685954292E+03  0.17200000000E+03 0.  1.
         -6    1    1    2    0  502 -0.11047889799E+03 -0.19319619713E+02  0.13515386582E+03  0.24582392490E+03  0.17200000000E+03 0.  1.
<mgrwt>
<rscale>  2 0.20533591E+03</rscale>
<asrwt>0</asrwt>
<pdfrwt beam="1">  1       21 0.70347085E-01 0.20533591E+03</pdfrwt>
<pdfrwt beam="2">  1       21 0.42823781E-01 0.20533591E+03</pdfrwt>
<totfact> 0.95280427E+03</totfact>
</mgrwt>
</event>
<event>
 4    1  0.1091654E+000  0.2322519E+03  0.7546771E-02  0.1125065E+00
         21   -1    0    0  501  502  0.00000000000E+00  0.00000000000E+00  0.31804745011E+03  0.31804745011E+03  0.00000000000E+00 0. -1.
         21   -1    0    0  502  503 -0.00000000000E+00 -0.00000000000E+00 -0.20727530073E+03  0.20727530073E+03  0.00000000000E+00 0. -1.
          6    1    1    2  501    0 -0.15189247511E+03 -0.35855621913E+02  0.16736826326E+03  0.28627449269E+03  0.17200000000E+03 0. -1.
         -6    1    1    2    0  503  0.15189247511E+03  0.35855621913E+02 -0.56596113893E+02  0.23904825815E+03  0.17200000000E+03 0. -1.
<mgrwt>
<rscale>  2 0.23225191E+03</rscale>
<asrwt>0</asrwt>
<pdfrwt beam="1">  1       21 0.79511862E-01 0.23225191E+03</pdfrwt>
<pdfrwt beam="2">  1       21 0.51818826E-01 0.23225191E+03</pdfrwt>
<totfact> 0.47887351E+03</totfact>
</mgrwt>
</event>
<event>
 4    1  0.1091654E+000  0.1949741E+03  0.7546771E-02  0.1154050E+00
         21   -1    0    0  503  502  0.00000000000E+00  0.00000000000E+00  0.34612491657E+03  0.34612491657E+03  0.00000000000E+00 0. -1.
         21   -1    0    0  501  503 -0.00000000000E+00 -0.00000000000E+00 -0.11249172477E+03  0.11249172477E+03  0.00000000000E+00 0. -1.
          6    1    1    2  501    0 -0.20539233384E+02 -0.89493239816E+02  0.15208948091E+03  0.24727739542E+03  0.17200000000E+03 0. -1.
         -6    1    1    2    0  502  0.20539233384E+02  0.89493239816E+02  0.81543710889E+02  0.21133924592E+03  0.17200000000E+03 0. -1.
<mgrwt>
<rscale>  2 0.19497410E+03</rscale>
<asrwt>0</asrwt>
<pdfrwt beam="1">  1       21 0.86531227E-01 0.19497410E+03</pdfrwt>
<pdfrwt beam="2">  1       21 0.28122932E-01 0.19497410E+03</pdfrwt>
<totfact> 0.13874704E+04</totfact>
</mgrwt>
</event>
<event>
 4    1  0.1091654E+000  0.1907792E+03  0.7546771E-02  0.1157760E+00
         21   -1    0    0  501  502  0.00000000000E+00  0.00000000000E+00  0.11666823730E+04  0.11666823730E+04  0.00000000000E+00 0.  1.
         21   -1    0    0  502  503 -0.00000000000E+00 -0.00000000000E+00 -0.45099002992E+02  0.45099002992E+02  0.00000000000E+00 0.  1.
          6    1    1    2  501    0 -0.22014304936E+02 -0.79549182054E+02  0.89718964381E+03  0.91724912590E+03  0.17200000000E+03 0.  1.
         -6    1    1    2    0  503  0.22014304936E+02  0.79549182054E+02  0.22439372616E+03  0.29453225006E+03  0.17200000000E+03 0.  1.
<mgrwt>
<rscale>  2 0.19077920E+03</rscale>
<asrwt>0</asrwt>
<pdfrwt beam="1">  1       21 0.29167049E+00 0.19077920E+03</pdfrwt>
<pdfrwt beam="2">  1       21 0.11274755E-01 0.19077920E+03</pdfrwt>
<totfact> 0.25059716E+03</totfact>
</mgrwt>
</event>
<event>
 4    1  0.1091654E+000  0.2030836E+03  0.7546771E-02  0.1147163E+00
         21   -1    0    0  503  502  0.00000000000E+00  0.00000000000E+00  0.32203939706E+03  0.32203939706E+03  0.00000000000E+00 0. -1.
         21   -1    0    0  501  503 -0.00000000000E+00 -0.00000000000E+00 -0.14547324108E+03  0.14547324108E+03  0.00000000000E+00 0.  1.
          6    1    1    2  501    0  0.23478949633E+02 -0.10539294411E+03  0.74271018588E+01  0.20321932877E+03  0.17200000000E+03 0.  1.
         -6    1    1    2    0  502 -0.23478949633E+02  0.10539294411E+03  0.16913905412E+03  0.26429330936E+03  0.17200000000E+03 0. -1.
<mgrwt>
<rscale>  2 0.20308356E+03</rscale>
<asrwt>0</asrwt>
<pdfrwt beam="1">  1       21 0.80509848E-01 0.20308356E+03</pdfrwt>
<pdfrwt beam="2">  1       21 0.36368311E-01 0.20308356E+03</pdfrwt>
<totfact> 0.98135277E+03</totfact>
</mgrwt>
</event>
<event>
 4    1  0.1091654E+000  0.2001190E+03  0.7546771E-02  0.1149639E+00
         21   -1    0    0  501  502  0.00000000000E+00  0.00000000000E+00  0.13850307837E+03  0.13850307837E+03  0.00000000000E+00 0. -1.
         21   -1    0    0  502  503 -0.00000000000E+00 -0.00000000000E+00 -0.42633185544E+03  0.42633185544E+03  0.00000000000E+00 0.  1.
          6    1    1    2  501    0  0.83111600482E+02 -0.59632723601E+02  0.16289280260E+02  0.20078082705E+03  0.17200000000E+03 0. -1.
         -6    1    1    2    0  503 -0.83111600482E+02  0.59632723601E+02 -0.30411805733E+03  0.36405410676E+03  0.17200000000E+03 0.  1.
<mgrwt>
<rscale>  2 0.20011896E+03</rscale>
<asrwt>0</asrwt>
<pdfrwt beam="1">  1       21 0.34625770E-01 0.20011896E+03</pdfrwt>
<pdfrwt beam="2">  1       21 0.10658296E+00 0.20011896E+03</pdfrwt>
<totfact> 0.56328459E+03</totfact>
</mgrwt>
</event>
<event>
 4    1  0.1091654E+000  0.1817135E+03  0.7546771E-02  0.1166155E+00
         21   -1    0    0  503  502  0.00000000000E+00  0.00000000000E+00  0.48466396909E+03  0.48466396909E+03  0.00000000000E+00 0.  1.
         21   -1    0    0  501  503 -0.00000000000E+00 -0.00000000000E+00 -0.77876996916E+02  0.77876996916E+02  0.00000000000E+00 0.  1.
          6    1    1    2  501    0 -0.23906996600E+02 -0.53518708484E+02  0.10388239160E+03  0.20931160486E+03  0.17200000000E+03 0.  1.
         -6    1    1    2    0  502  0.23906996600E+02  0.53518708484E+02  0.30290458058E+03  0.35322936115E+03  0.17200000000E+03 0.  1.
<mgrwt>
<rscale>  2 0.18171350E+03</rscale>
<asrwt>0</asrwt>
<pdfrwt beam="1">  1       21 0.12116598E+00 0.18171350E+03</pdfrwt>
<pdfrwt beam="2">  1       21 0.19469251E-01 0.18171350E+03</pdfrwt>
<totfact> 0.12609191E+04</totfact>
</mgrwt>
</event>
<event>
 4    1  0.1091654E+000  0.1821750E+03  0.7546771E-02  0.1165715E+00
         21   -1    0    0  501  502  0.00000000000E+00  0.00000000000E+00  0.35943885082E+03  0.35943885082E+03  0.00000000000E+00 0. -1.
         21   -1    0    0  502  503 -0.00000000000E+00 -0.00000000000E+00 -0.20916316682E+03  0.20916316682E+03  0.00000000000E+00 0. -1.
          6    1    1    2  501    0  0.26554159389E+02 -0.53838719037E+02  0.28761636274E+03  0.34045690354E+03  0.17200000000E+03 0. -1.
         -6    1    1    2    0  503 -0.26554159389E+02  0.53838719037E+02 -0.13734067874E+03  0.22814511410E+03  0.17200000000E+03 0. -1.
<mgrwt>
<rscale>  2 0.18217500E+03</rscale>
<asrwt>0</asrwt>
<pdfrwt beam="1">  1       21 0.89859712E-01 0.18217500E+03</pdfrwt>
<pdfrwt beam="2">  1       21 0.52290792E-01 0.18217500E+03</pdfrwt>
<totfact> 0.36904990E+03</totfact>
</mgrwt>
</event>
<event>
 4    1  0.1091654E+000  0.1750391E+03  0.7546771E-02  0.1172692E+00
         21   -1    0    0  501  502  0.00000000000E+00  0.00000000000E+00  0.61541422298E+02  0.61541422298E+02  0.00000000000E+00 0.  1.
         21   -1    0    0  502  503 -0.00000000000E+00 -0.00000000000E+00 -0.89538928405E+03  0.89538928405E+03  0.00000000000E+00 0.  1.
          6    1    1    2  501    0  0.32078871867E+02  0.50634090818E+01 -0.98113915978E+02  0.20066148769E+03  0.17200000000E+03 0.  1.
         -6    1    1    2    0  503 -0.32078871867E+02 -0.50634090818E+01 -0.73573394577E+03  0.75626921866E+03  0.17200000000E+03 0.  1.
<mgrwt>
<rscale>  2 0.17503912E+03</rscale>
<asrwt>0</asrwt>
<pdfrwt beam="1">  1       21 0.15385356E-01 0.17503912E+03</pdfrwt>
<pdfrwt beam="2">  1       21 0.22384732E+00 0.17503912E+03</pdfrwt>
<totfact> 0.36363773E+03</totfact>
</mgrwt>
</event>
<event>
 4    1  0.1091654E+000  0.1919570E+03  0.7546771E-02  0.1156708E+00
         21   -1    0    0  501  502  0.00000000000E+00  0.00000000000E+00  0.55979037849E+03  0.55979037849E+03  0.00000000000E+00 0. -1.
         21   -1    0    0  502  503 -0.00000000000E+00 -0.00000000000E+00 -0.65978235558E+02  0.65978235558E+02  0.00000000000E+00 0. -1.
          6    1    1    2  501    0  0.53745491455E+02 -0.66143183998E+02  0.23176573163E+03  0.30093662622E+03  0.17200000000E+03 0. -1.
         -6    1    1    2    0  503 -0.53745491455E+02  0.66143183998E+02  0.26204641130E+03  0.32483198783E+03  0.17200000000E+03 0. -1.
<mgrwt>
<rscale>  2 0.19195702E+03</rscale>
<asrwt>0</asrwt>
<pdfrwt beam="1">  1       21 0.13994758E+00 0.19195702E+03</pdfrwt>
<pdfrwt beam="2">  1       21 0.16494561E-01 0.19195702E+03</pdfrwt>
<totfact> 0.11817636E+04</totfact>
</mgrwt>
</event>
<event>
 4    1  0.1091654E+000  0.1751310E+03  0.7546771E-02  0.1172600E+00
         21   -1    0    0  501  502  0.00000000000E+00  0.00000000000E+00  0.31112851090E+03  0.31112851090E+03  0.00000000000E+00 0. -1.
         21   -1    0    0  502  503 -0.00000000000E+00 -0.00000000000E+00 -0.10615068045E+03  0.10615068045E+03  0.00000000000E+00 0. -1.
          6    1    1    2  501    0 -0.32967067675E+02 -0.17638174157E+00  0.15821009574E+03  0.23601121384E+03  0.17200000000E+03 0. -1.
         -6    1    1    2    0  503  0.32967067675E+02  0.17638174157E+00  0.46767734715E+02  0.18126797751E+03  0.17200000000E+03 0. -1.
<mgrwt>
<rscale>  2 0.17513098E+03</rscale>
<asrwt>0</asrwt>
<pdfrwt beam="1">  1       21 0.77782126E-01 0.17513098E+03</pdfrwt>
<pdfrwt beam="2">  1       21 0.26537671E-01 0.17513098E+03</pdfrwt>
<totfact> 0.20010653E+04</totfact>
</mgrwt>
</event>
<event>
 4    1  0.1091654E+000  0.1845169E+03  0.7546771E-02  0.1163502E+00
         21   -1    0    0  501  502  0.00000000000E+00  0.00000000000E+00  0.30052890912E+03  0.30052890912E+03  0.00000000000E+00 0.  1.
         21   -1    0    0  502  503 -0.00000000000E+00 -0.00000000000E+00 -0.23571605645E+03  0.23571605645E+03  0.00000000000E+00 0.  1.
          6    1    1    2  501    0  0.31408078194E+02  0.58957727483E+02  0.22563803556E+03  0.29147727887E+03  0.17200000000E+03 0.  1.
         -6    1    1    2    0  503 -0.31408078194E+02 -0.58957727483E+02 -0.16082518289E+03  0.24476768671E+03  0.17200000000E+03 0.  1.
<mgrwt>
<rscale>  2 0.18451689E+03</rscale>
<asrwt>0</asrwt>
<pdfrwt beam="1">  1       21 0.75132227E-01 0.18451689E+03</pdfrwt>
<pdfrwt beam="2">  1       21 0.58929014E-01 0.18451689E+03</pdfrwt>
<totfact> 0.42933632E+03</totfact>
</mgrwt>
</event>
<event>
 4    1  0.1091654E+000  0.1897488E+03  0.7546771E-02  0.1158688E+00
         21   -1    0    0  503  502  0.00000000000E+00  0.00000000000E+00  0.31841261305E+03  0.31841261305E+03  0.00000000000E+00 0.  1.
         21   -1    0    0  501  503 -0.00000000000E+00 -0.00000000000E+00 -0.17328790377E+03  0.17328790377E+03  0.00000000000E+00 0.  1.
          6    1    1    2  501    0  0.67002794612E+01 -0.79848117635E+02 -0.72358234734E+02  0.20307715226E+03  0.17200000000E+03 0.  1.
         -6    1    1    2    0  502 -0.67002794612E+01  0.79848117635E+02  0.21748294401E+03  0.28862336456E+03  0.17200000000E+03 0.  1.
<mgrwt>
<rscale>  2 0.18974882E+03</rscale>
<asrwt>0</asrwt>
<pdfrwt beam="1">  1       21 0.79603152E-01 0.18974882E+03</pdfrwt>
<pdfrwt beam="2">  1       21 0.43321976E-01 0.18974882E+03</pdfrwt>
<totfact> 0.71398642E+03</totfact>
</mgrwt>
</event>
<event>
 4    1  0.1091654E+000  0.1872256E+03  0.7546771E-02  0.1160988E+00
         21   -1    0    0  503  502  0.00000000000E+00  0.00000000000E+00  0.15686264651E+03  0.15686264651E+03  0.00000000000E+00 0. -1.
         21   -1    0    0  501  503 -0.00000000000E+00 -0.00000000000E+00 -0.51004207115E+03  0.51004207115E+03  0.00000000000E+00 0. -1.
          6    1    1    2  501    0  0.41308327070E+02 -0.61343741014E+02 -0.42653843883E+03  0.46582021451E+03  0.17200000000E+03 0. -1.
         -6    1    1    2    0  502 -0.41308327070E+02  0.61343741014E+02  0.73359014187E+02  0.20108450316E+03  0.17200000000E+03 0. -1.
<mgrwt>
<rscale>  2 0.18722562E+03</rscale>
<asrwt>0</asrwt>
<pdfrwt beam="1">  1       21 0.39215662E-01 0.18722562E+03</pdfrwt>
<pdfrwt beam="2">  1       21 0.12751052E+00 0.18722562E+03</pdfrwt>
<totfact> 0.28588932E+03</totfact>
</mgrwt>
</event>
<event>
 4    1  0.1091654E+000  0.2049929E+03  0.7546771E-02  0.1145594E+00
         21   -1    0    0  503  502  0.00000000000E+00  0.00000000000E+00  0.21537347146E+03  0.21537347146E+03  0.00000000000E+00 0. -1.
         21   -1    0    0  501  503 -0.00000000000E+00 -0.00000000000E+00 -0.20016920396E+03  0.20016920396E+03  0.00000000000E+00 0. -1.
          6    1    1    2  501    0 -0.79690163223E+02  0.78022784805E+02 -0.25420876487E+02  0.20656306065E+03  0.17200000000E+03 0. -1.
         -6    1    1    2    0  502  0.79690163223E+02 -0.78022784805E+02  0.40625143987E+02  0.20897961476E+03  0.17200000000E+03 0. -1.
<mgrwt>
<rscale>  2 0.20499287E+03</rscale>
<asrwt>0</asrwt>
<pdfrwt beam="1">  1       21 0.53843368E-01 0.20499287E+03</pdfrwt>
<pdfrwt beam="2">  1       21 0.50042301E-01 0.20499287E+03</pdfrwt>
<totfact> 0.12308505E+04</totfact>
</mgrwt>
</event>
<event>
 4    1  0.1091654E+000  0.1846704E+03  0.7546771E-02  0.1163358E+00
         21   -1    0    0  501  502  0.00000000000E+00  0.00000000000E+00  0.52134569838E+02  0.52134569838E+02  0.00000000000E+00 0. -1.
         21   -1    0    0  502  503 -0.00000000000E+00 -0.00000000000E+00 -0.68029177520E+03  0.68029177520E+03  0.00000000000E+00 0. -1.
          6    1    1    2  501    0 -0.22657627789E+02  0.63291376088E+02 -0.38588438445E+03  0.42779659249E+03  0.17200000000E+03 0. -1.
         -6    1    1    2    0  503  0.22657627789E+02 -0.63291376088E+02 -0.24227282091E+03  0.30462975255E+03  0.17200000000E+03 0. -1.
<mgrwt>
<rscale>  2 0.18467043E+03</rscale>
<asrwt>0</asrwt>
<pdfrwt beam="1">  1       21 0.13033643E-01 0.18467043E+03</pdfrwt>
<pdfrwt beam="2">  1       21 0.17007294E+00 0.18467043E+03</pdfrwt>
<totfact> 0.10850890E+04</totfact>
</mgrwt>
</event>
<event>
 4    1  0.1091654E+000  0.2250258E+03  0.7546771E-02  0.1130191E+00
         21   -1    0    0  501  502  0.00000000000E+00  0.00000000000E+00  0.69280990465E+02  0.69280990465E+02  0.00000000000E+00 0.  1.
         21   -1    0    0  502  503 -0.00000000000E+00 -0.00000000000E+00 -0.95808514233E+03  0.95808514233E+03  0.00000000000E+00 0. -1.
          6    1    1    2  501    0 -0.20533770771E+02 -0.14363488047E+03 -0.19425522388E+03  0.29727379070E+03  0.17200000000E+03 0.  1.
         -6    1    1    2    0  503  0.20533770771E+02  0.14363488047E+03 -0.69454892798E+03  0.73009234210E+03  0.17200000000E+03 0. -1.
<mgrwt>
<rscale>  2 0.22502581E+03</rscale>
<asrwt>0</asrwt>
<pdfrwt beam="1">  1       21 0.17320248E-01 0.22502581E+03</pdfrwt>
<pdfrwt beam="2">  1       21 0.23952128E+00 0.22502581E+03</pdfrwt>
<totfact> 0.22347118E+03</totfact>
</mgrwt>
</event>
<event>
 4    1  0.1091654E+000  0.1749374E+03  0.7546771E-02  0.1172795E+00
         21   -1    0    0  503  502  0.00000000000E+00  0.00000000000E+00  0.49822560632E+02  0.49822560632E+02  0.00000000000E+00 0.  1.
         21   -1    0    0  501  503 -0.00000000000E+00 -0.00000000000E+00 -0.16874062767E+04  0.16874062767E+04  0.00000000000E+00 0.  1.
          6    1    1    2  501    0 -0.63650781043E+01  0.31282273752E+02 -0.15115001182E+04  0.15215898600E+04  0.17200000000E+03 0.  1.
         -6    1    1    2    0  502  0.63650781043E+01 -0.31282273752E+02 -0.12608359785E+03  0.21563897727E+03  0.17200000000E+03 0.  1.
<mgrwt>
<rscale>  2 0.17493740E+03</rscale>
<asrwt>0</asrwt>
<pdfrwt beam="1">  1       21 0.12455641E-01 0.17493740E+03</pdfrwt>
<pdfrwt beam="2">  1       21 0.42185154E+00 0.17493740E+03</pdfrwt>
<totfact> 0.35952526E+02</totfact>
</mgrwt>
</event>
<event>
 4    1  0.1091654E+000  0.2302233E+03  0.7546771E-02  0.1126483E+00
         21   -1    0    0  503  502  0.00000000000E+00  0.00000000000E+00  0.26700869381E+03  0.26700869381E+03  0.00000000000E+00 0.  1.
         21   -1    0    0  501  503 -0.00000000000E+00 -0.00000000000E+00 -0.10049820908E+04  0.10049820908E+04  0.00000000000E+00 0.  1.
          6    1    1    2  501    0  0.45847236590E+02 -0.14600266754E+03 -0.93871872957E+03  0.96653794611E+03  0.17200000000E+03 0.  1.
         -6    1    1    2    0  502 -0.45847236590E+02  0.14600266754E+03  0.20074533254E+03  0.30545283853E+03  0.17200000000E+03 0.  1.
<mgrwt>
<rscale>  2 0.23022326E+03</rscale>
<asrwt>0</asrwt>
<pdfrwt beam="1">  1       21 0.66752174E-01 0.23022326E+03</pdfrwt>
<pdfrwt beam="2">  1       21 0.25124552E+00 0.23022326E+03</pdfrwt>
<totfact> 0.12762151E+02</totfact>
</mgrwt>
</event>
<event>
 4    1  0.1091654E+000  0.1882127E+03  0.7546771E-02  0.1160083E+00
         21   -1    0    0  501  502  0.00000000000E+00  0.00000000000E+00  0.52706059618E+03  0.52706059618E+03  0.00000000000E+00 0.  1.
         21   -1    0    0  502  503 -0.00000000000E+00 -0.00000000000E+00 -0.80451138791E+02  0.80451138791E+02  0.00000000000E+00 0.  1.
          6    1    1    2  501    0  0.65227251355E+02 -0.39817224984E+02  0.34653376767E+03  0.39434712863E+03  0.17200000000E+03 0.  1.
         -6    1    1    2    0  503 -0.65227251355E+02  0.39817224984E+02  0.10007568973E+03  0.21316460635E+03  0.17200000000E+03 0.  1.
<mgrwt>
<rscale>  2 0.18821266E+03</rscale>
<asrwt>0</asrwt>
<pdfrwt beam="1">  1       21 0.13176514E+00 0.18821266E+03</pdfrwt>
<pdfrwt beam="2">  1       21 0.20112786E-01 0.18821266E+03</pdfrwt>
<totfact> 0.95740986E+03</totfact>
</mgrwt>
</event>
<event>
 4    1  0.1091654E+000  0.2241749E+03  0.7546771E-02  0.1130808E+00
         21   -1    0    0  503  502  0.00000000000E+00  0.00000000000E+00  0.90228677685E+03  0.90228677685E+03  0.00000000000E+00 0. -1.
         21   -1    0    0  501  503 -0.00000000000E+00 -0.00000000000E+00 -0.88156923680E+02  0.88156923680E+02  0.00000000000E+00 0. -1.
          6    1    1    2  501    0  0.70670678727E+02 -0.12520393131E+03  0.10656280882E+03  0.24821362064E+03  0.17200000000E+03 0. -1.
         -6    1    1    2    0  502 -0.70670678727E+02  0.12520393131E+03  0.70756704434E+03  0.74223007988E+03  0.17200000000E+03 0. -1.
<mgrwt>
<rscale>  2 0.22417486E+03</rscale>
<asrwt>0</asrwt>
<pdfrwt beam="1">  1       21 0.22557167E+00 0.22417486E+03</pdfrwt>
<pdfrwt beam="2">  1       21 0.22039234E-01 0.22417486E+03</pdfrwt>
<totfact> 0.17314088E+03</totfact>
</mgrwt>
</event>
<event>
 4    1  0.1091654E+000  0.1760478E+03  0.7546771E-02  0.1171684E+00
         21   -1    0    0  503  502  0.00000000000E+00  0.00000000000E+00  0.16637323986E+03  0.16637323986E+03  0.00000000000E+00 0. -1.
         21   -1    0    0  501  503 -0.00000000000E+00 -0.00000000000E+00 -0.26920195132E+03  0.26920195132E+03  0.00000000000E+00 0. -1.
          6    1    1    2  501    0  0.33452444250E+02  0.17022700252E+02 -0.17228357345E+03  0.24632187891E+03  0.17200000000E+03 0. -1.
         -6    1    1    2    0  502 -0.33452444250E+02 -0.17022700252E+02  0.69454861996E+02  0.18925331227E+03  0.17200000000E+03 0. -1.
<mgrwt>
<rscale>  2 0.17604783E+03</rscale>
<asrwt>0</asrwt>
<pdfrwt beam="1">  1       21 0.41593310E-01 0.17604783E+03</pdfrwt>
<pdfrwt beam="2">  1       21 0.67300487E-01 0.17604783E+03</pdfrwt>
<totfact> 0.11370826E+04</totfact>
</mgrwt>
</event>
<event>
 4    1  0.1091654E+000  0.2370052E+03  0.7546771E-02  0.1121804E+00
         21   -1    0    0  501  502  0.00000000000E+00  0.00000000000E+00  0.36307516208E+03  0.36307516208E+03  0.00000000000E+00 0.  1.
         21   -1    0    0  502  503 -0.00000000000E+00 -0.00000000000E+00 -0.26063970732E+03  0.26063970732E+03  0.00000000000E+00 0.  1.
          6    1    1    2  501    0 -0.86355863158E+02  0.13831165239E+03  0.25003045823E+03  0.34450932982E+03  0.17200000000E+03 0.  1.
         -6    1    1    2    0  503  0.86355863158E+02 -0.13831165239E+03 -0.14759500346E+03  0.27920553959E+03  0.17200000000E+03 0.  1.
<mgrwt>
<rscale>  2 0.23700517E+03</rscale>
<asrwt>0</asrwt>
<pdfrwt beam="1">  1       21 0.90768790E-01 0.23700517E+03</pdfrwt>
<pdfrwt beam="2">  1       21 0.65159927E-01 0.23700517E+03</pdfrwt>
<totfact> 0.21523977E+03</totfact>
</mgrwt>
</event>
<event>
 4    1  0.1091654E+000  0.2025623E+03  0.7546771E-02  0.1147595E+00
         21   -1    0    0  503  502  0.00000000000E+00  0.00000000000E+00  0.59468904508E+03  0.59468904508E+03  0.00000000000E+00 0. -1.
         21   -1    0    0  501  503 -0.00000000000E+00 -0.00000000000E+00 -0.73494801234E+02  0.73494801234E+02  0.00000000000E+00 0. -1.
          6    1    1    2  501    0 -0.69553328182E+02 -0.81300890023E+02  0.17794407050E+03  0.26962120170E+03  0.17200000000E+03 0. -1.
         -6    1    1    2    0  502  0.69553328182E+02  0.81300890023E+02  0.34325017335E+03  0.39856264461E+03  0.17200000000E+03 0. -1.
<mgrwt>
<rscale>  2 0.20256234E+03</rscale>
<asrwt>0</asrwt>
<pdfrwt beam="1">  1       21 0.14867225E+00 0.20256234E+03</pdfrwt>
<pdfrwt beam="2">  1       21 0.18373702E-01 0.20256234E+03</pdfrwt>
<totfact> 0.82063434E+03</totfact>
</mgrwt>
</event>
<event>
 4    1  0.1091654E+000  0.2226856E+03  0.7546771E-02  0.1131897E+00
         21   -1    0    0  503  502  0.00000000000E+00  0.00000000000E+00  0.87529116441E+02  0.87529116441E+02  0.00000000000E+00 0. -1.
         21   -1    0    0  501  503 -0.00000000000E+00 -0.00000000000E+00 -0.57398062144E+03  0.57398062144E+03  0.00000000000E+00 0. -1.
          6    1    1    2  501    0  0.14079349669E+03 -0.13492751355E+02 -0.28088078971E+03  0.35844508796E+03  0.17200000000E+03 0. -1.
         -6    1    1    2    0  502 -0.14079349669E+03  0.13492751355E+02 -0.20557071528E+03  0.30306464992E+03  0.17200000000E+03 0. -1.
<mgrwt>
<rscale>  2 0.22268557E+03</rscale>
<asrwt>0</asrwt>
<pdfrwt beam="1">  1       21 0.21882279E-01 0.22268557E+03</pdfrwt>
<pdfrwt beam="2">  1       21 0.14349515E+00 0.22268557E+03</pdfrwt>
<totfact> 0.63956584E+03</totfact>
</mgrwt>
</event>
<event>
 4    1  0.1091654E+000  0.3673950E+03  0.7546771E-02  0.1055694E+00
         21   -1    0    0  503  502  0.00000000000E+00  0.00000000000E+00  0.96155194240E+03  0.96155194240E+03  0.00000000000E+00 0.  1.
         21   -1    0    0  501  503 -0.00000000000E+00 -0.00000000000E+00 -0.14138653606E+03  0.14138653606E+03  0.00000000000E+00 0. -1.
          6    1    1    2  501    0 -0.28732097921E+03 -0.15113489558E+03  0.36346732778E+03  0.51680518584E+03  0.17200000000E+03 0.  1.
         -6    1    1    2    0  502  0.28732097921E+03  0.15113489558E+03  0.45669807856E+03  0.58613329261E+03  0.17200000000E+03 0.  1.
<mgrwt>
<rscale>  2 0.36739502E+03</rscale>
<asrwt>0</asrwt>
<pdfrwt beam="1">  1       21 0.24038797E+00 0.36739502E+03</pdfrwt>
<pdfrwt beam="2">  1       21 0.35346637E-01 0.36739502E+03</pdfrwt>
<totfact> 0.49865970E+02</totfact>
</mgrwt>
</event>
<event>
 4    1  0.1091654E+000  0.2152046E+03  0.7546771E-02  0.1137510E+00
         21   -1    0    0  503  502  0.00000000000E+00  0.00000000000E+00  0.70167185898E+03  0.70167185898E+03  0.00000000000E+00 0. -1.
         21   -1    0    0  501  503 -0.00000000000E+00 -0.00000000000E+00 -0.66003981317E+02  0.66003981317E+02  0.00000000000E+00 0.  1.
          6    1    1    2  501    0 -0.26917905279E+02  0.12650871714E+03  0.31725014848E+03  0.38335451719E+03  0.17200000000E+03 0.  1.
         -6    1    1    2    0  502  0.26917905279E+02 -0.12650871714E+03  0.31841772918E+03  0.38432132311E+03  0.17200000000E+03 0.  1.
<mgrwt>
<rscale>  2 0.21520462E+03</rscale>
<asrwt>0</asrwt>
<pdfrwt beam="1">  1       21 0.17541794E+00 0.21520462E+03</pdfrwt>
<pdfrwt beam="2">  1       21 0.16500997E-01 0.21520462E+03</pdfrwt>
<totfact> 0.63268937E+03</totfact>
</mgrwt>
</event>
<event>
 4    1  0.1091654E+000  0.2249720E+03  0.7546771E-02  0.1130230E+00
         21   -1    0    0  503  502  0.00000000000E+00  0.00000000000E+00  0.29185119752E+03  0.29185119752E+03  0.00000000000E+00 0. -1.
         21   -1    0    0  501  503 -0.00000000000E+00 -0.00000000000E+00 -0.19049814274E+03  0.19049814274E+03  0.00000000000E+00 0. -1.
          6    1    1    2  501    0  0.73311248854E+02  0.12511547546E+03 -0.21538011672E+02  0.22600067999E+03  0.17200000000E+03 0. -1.
         -6    1    1    2    0  502 -0.73311248854E+02 -0.12511547546E+03  0.12289106645E+03  0.25634866027E+03  0.17200000000E+03 0. -1.
<mgrwt>
<rscale>  2 0.22497205E+03</rscale>
<asrwt>0</asrwt>
<pdfrwt beam="1">  1       21 0.72962799E-01 0.22497205E+03</pdfrwt>
<pdfrwt beam="2">  1       21 0.47624536E-01 0.22497205E+03</pdfrwt>
<totfact> 0.69664231E+03</totfact>
</mgrwt>
</event>
<event>
 4    1  0.1091654E+000  0.2346587E+03  0.7546771E-02  0.1123403E+00
         21   -1    0    0  501  502  0.00000000000E+00  0.00000000000E+00  0.47206750643E+03  0.47206750643E+03  0.00000000000E+00 0.  1.
         21   -1    0    0  502  503 -0.00000000000E+00 -0.00000000000E+00 -0.14142266912E+03  0.14142266912E+03  0.00000000000E+00 0.  1.
          6    1    1    2  501    0 -0.97938531433E+02 -0.12605051894E+03  0.36929413214E+02  0.23754677608E+03  0.17200000000E+03 0.  1.
         -6    1    1    2    0  503  0.97938531433E+02  0.12605051894E+03  0.29371542410E+03  0.37594339948E+03  0.17200000000E+03 0.  1.
<mgrwt>
<rscale>  2 0.23465867E+03</rscale>
<asrwt>0</asrwt>
<pdfrwt beam="1">  1       21 0.11801687E+00 0.23465867E+03</pdfrwt>
<pdfrwt beam="2">  1       21 0.35355668E-01 0.23465867E+03</pdfrwt>
<totfact> 0.41085223E+03</totfact>
</mgrwt>
</event>
<event>
 4    1  0.1091654E+000  0.1898857E+03  0.7546771E-02  0.1158564E+00
         21   -1    0    0  501  502  0.00000000000E+00  0.00000000000E+00  0.26519004537E+02  0.26519004537E+02  0.00000000000E+00 0. -1.
         21   -1    0    0  502  503 -0.00000000000E+00 -0.00000000000E+00 -0.15375897229E+04  0.15375897229E+04  0.00000000000E+00 0. -1.
          6    1    1    2  501    0 -0.32092400523E+02  0.73774405667E+02 -0.48949212568E+03  0.52503250014E+03  0.17200000000E+03 0. -1.
         -6    1    1    2    0  503  0.32092400523E+02 -0.73774405667E+02 -0.10215785927E+04  0.10390762273E+04  0.17200000000E+03 0. -1.
<mgrwt>
<rscale>  2 0.18988572E+03</rscale>
<asrwt>0</asrwt>
<pdfrwt beam="1">  1       21 0.66297512E-02 0.18988572E+03</pdfrwt>
<pdfrwt beam="2">  1       21 0.38439743E+00 0.18988572E+03</pdfrwt>
<totfact> 0.18134746E+03</totfact>
</mgrwt>
</event>
<event>
 4    1  0.1091654E+000  0.1856610E+03  0.7546771E-02  0.1162434E+00
         21   -1    0    0  501  502  0.00000000000E+00  0.00000000000E+00  0.27318296725E+03  0.27318296725E+03  0.00000000000E+00 0. -1.
         21   -1    0    0  502  503 -0.00000000000E+00 -0.00000000000E+00 -0.12704658053E+03  0.12704658053E+03  0.00000000000E+00 0. -1.
          6    1    1    2  501    0  0.62459607233E+02  0.31381673972E+02  0.89602998202E+02  0.20615215081E+03  0.17200000000E+03 0. -1.
         -6    1    1    2    0  503 -0.62459607233E+02 -0.31381673972E+02  0.56533388517E+02  0.19407739697E+03  0.17200000000E+03 0. -1.
<mgrwt>
<rscale>  2 0.18566101E+03</rscale>
<asrwt>0</asrwt>
<pdfrwt beam="1">  1       21 0.68295741E-01 0.18566101E+03</pdfrwt>
<pdfrwt beam="2">  1       21 0.31761646E-01 0.18566101E+03</pdfrwt>
<totfact> 0.18723359E+04</totfact>
</mgrwt>
</event>
<event>
 4    1  0.1091654E+000  0.2152781E+03  0.7546771E-02  0.1137453E+00
         21   -1    0    0  503  502  0.00000000000E+00  0.00000000000E+00  0.49631555985E+03  0.49631555985E+03  0.00000000000E+00 0. -1.
         21   -1    0    0  501  503 -0.00000000000E+00 -0.00000000000E+00 -0.18583906643E+03  0.18583906643E+03  0.00000000000E+00 0.  1.
          6    1    1    2  501    0  0.21685772713E+02 -0.12763376717E+03 -0.85344904389E+02  0.23157807315E+03  0.17200000000E+03 0.  1.
         -6    1    1    2    0  502 -0.21685772713E+02  0.12763376717E+03  0.39582139781E+03  0.45057655313E+03  0.17200000000E+03 0. -1.
<mgrwt>
<rscale>  2 0.21527808E+03</rscale>
<asrwt>0</asrwt>
<pdfrwt beam="1">  1       21 0.12407889E+00 0.21527808E+03</pdfrwt>
<pdfrwt beam="2">  1       21 0.46459768E-01 0.21527808E+03</pdfrwt>
<totfact> 0.21130821E+03</totfact>
</mgrwt>
</event>
<event>
 4    1  0.1091654E+000  0.1948709E+03  0.7546771E-02  0.1154140E+00
         21   -1    0    0  501  502  0.00000000000E+00  0.00000000000E+00  0.27448574102E+03  0.27448574102E+03  0.00000000000E+00 0.  1.
         21   -1    0    0  502  503 -0.00000000000E+00 -0.00000000000E+00 -0.16788453187E+03  0.16788453187E+03  0.00000000000E+00 0. -1.
          6    1    1    2  501    0 -0.23735841348E+02  0.88471889415E+02  0.14607483170E+03  0.24354162239E+03  0.17200000000E+03 0.  1.
         -6    1    1    2    0  503  0.23735841348E+02 -0.88471889415E+02 -0.39473622544E+02  0.19882865050E+03  0.17200000000E+03 0. -1.
<mgrwt>
<rscale>  2 0.19487089E+03</rscale>
<asrwt>0</asrwt>
<pdfrwt beam="1">  1       21 0.68621435E-01 0.19487089E+03</pdfrwt>
<pdfrwt beam="2">  1       21 0.41971133E-01 0.19487089E+03</pdfrwt>
<totfact> 0.10561467E+04</totfact>
</mgrwt>
</event>
<event>
 4    1  0.1091654E+000  0.1801594E+03  0.7546771E-02  0.1167649E+00
         21   -1    0    0  501  502  0.00000000000E+00  0.00000000000E+00  0.82072350808E+02  0.82072350808E+02  0.00000000000E+00 0. -1.
         21   -1    0    0  502  503 -0.00000000000E+00 -0.00000000000E+00 -0.40215609417E+03  0.40215609417E+03  0.00000000000E+00 0. -1.
          6    1    1    2  501    0  0.52573205775E+02  0.10462508466E+02 -0.19125295849E+03  0.26274531429E+03  0.17200000000E+03 0. -1.
         -6    1    1    2    0  503 -0.52573205775E+02 -0.10462508466E+02 -0.12883078486E+03  0.22148313068E+03  0.17200000000E+03 0. -1.
<mgrwt>
<rscale>  2 0.18015939E+03</rscale>
<asrwt>0</asrwt>
<pdfrwt beam="1">  1       21 0.20518088E-01 0.18015939E+03</pdfrwt>
<pdfrwt beam="2">  1       21 0.10053902E+00 0.18015939E+03</pdfrwt>
<totfact> 0.17977669E+04</totfact>
</mgrwt>
</event>
<event>
 4    1  0.1091654E+000  0.2181902E+03  0.7546771E-02  0.1135240E+00
         21   -1    0    0  501  502  0.00000000000E+00  0.00000000000E+00  0.11827977836E+03  0.11827977836E+03  0.00000000000E+00 0. -1.
         21   -1    0    0  502  503 -0.00000000000E+00 -0.00000000000E+00 -0.56099945101E+03  0.56099945101E+03  0.00000000000E+00 0. -1.
          6    1    1    2  501    0  0.52893869892E+02  0.12339050627E+03 -0.40189355420E+03  0.45730231512E+03  0.17200000000E+03 0. -1.
         -6    1    1    2    0  503 -0.52893869892E+02 -0.12339050627E+03 -0.40826118447E+02  0.22197691425E+03  0.17200000000E+03 0. -1.
<mgrwt>
<rscale>  2 0.21819023E+03</rscale>
<asrwt>0</asrwt>
<pdfrwt beam="1">  1       21 0.29569945E-01 0.21819023E+03</pdfrwt>
<pdfrwt beam="2">  1       21 0.14024986E+00 0.21819023E+03</pdfrwt>
<totfact> 0.38216269E+03</totfact>
</mgrwt>
</event>
<event>
 4    1  0.1091654E+000  0.1985358E+03  0.7546771E-02  0.1150980E+00
         21   -1    0    0  503  502  0.00000000000E+00  0.00000000000E+00  0.35385746732E+03  0.35385746732E+03  0.00000000000E+00 0.  1.
         21   -1    0    0  501  503 -0.00000000000E+00 -0.00000000000E+00 -0.11185883561E+03  0.11185883561E+03  0.00000000000E+00 0. -1.
          6    1    1    2  501    0 -0.46159575315E+02 -0.87759739362E+02  0.13606123023E+03  0.24068472452E+03  0.17200000000E+03 0.  1.
         -6    1    1    2    0  502  0.46159575315E+02  0.87759739362E+02  0.10593740148E+03  0.22503157840E+03  0.17200000000E+03 0. -1.
<mgrwt>
<rscale>  2 0.19853584E+03</rscale>
<asrwt>0</asrwt>
<pdfrwt beam="1">  1       21 0.88464364E-01 0.19853584E+03</pdfrwt>
<pdfrwt beam="2">  1       21 0.27964710E-01 0.19853584E+03</pdfrwt>
<totfact> 0.13299435E+04</totfact>
</mgrwt>
</event>
<event>
 4    1  0.1091654E+000  0.2036343E+03  0.7546771E-02  0.1146708E+00
         21   -1    0    0  501  502  0.00000000000E+00  0.00000000000E+00  0.31636665239E+03  0.31636665239E+03  0.00000000000E+00 0. -1.
         21   -1    0    0  502  503 -0.00000000000E+00 -0.00000000000E+00 -0.27336386148E+03  0.27336386148E+03  0.00000000000E+00 0. -1.
          6    1    1    2  501    0 -0.24417944008E+02  0.10623879060E+03  0.23423816946E+03  0.31037789330E+03  0.17200000000E+03 0. -1.
         -6    1    1    2    0  503  0.24417944008E+02 -0.10623879060E+03 -0.19123537854E+03  0.27935262058E+03  0.17200000000E+03 0. -1.
<mgrwt>
<rscale>  2 0.20363427E+03</rscale>
<asrwt>0</asrwt>
<pdfrwt beam="1">  1       21 0.79091663E-01 0.20363427E+03</pdfrwt>
<pdfrwt beam="2">  1       21 0.68340966E-01 0.20363427E+03</pdfrwt>
<totfact> 0.27308505E+03</totfact>
</mgrwt>
</event>
<event>
 4    1  0.1091654E+000  0.1816925E+03  0.7546771E-02  0.1166175E+00
         21   -1    0    0  501  502  0.00000000000E+00  0.00000000000E+00  0.52064025297E+03  0.52064025297E+03  0.00000000000E+00 0. -1.
         21   -1    0    0  502  503 -0.00000000000E+00 -0.00000000000E+00 -0.93441553250E+02  0.93441553250E+02  0.00000000000E+00 0. -1.
          6    1    1    2  501    0  0.47549449725E+02  0.34164508087E+02  0.38767491292E+03  0.42814016617E+03  0.17200000000E+03 0. -1.
         -6    1    1    2    0  503 -0.47549449725E+02 -0.34164508087E+02  0.39523786804E+02  0.18594164005E+03  0.17200000000E+03 0. -1.
<mgrwt>
<rscale>  2 0.18169250E+03</rscale>
<asrwt>0</asrwt>
<pdfrwt beam="1">  1       21 0.13016006E+00 0.18169250E+03</pdfrwt>
<pdfrwt beam="2">  1       21 0.23360390E-01 0.18169250E+03</pdfrwt>
<totfact> 0.74895425E+03</totfact>
</mgrwt>
</event>
<event>
 4    1  0.1091654E+000  0.2087712E+03  0.7546771E-02  0.1142543E+00
         21   -1    0    0  501  502  0.00000000000E+00  0.00000000000E+00  0.84353462620E+03  0.84353462620E+03  0.00000000000E+00 0. -1.
         21   -1    0    0  502  503 -0.00000000000E+00 -0.00000000000E+00 -0.79006886477E+02  0.79006886477E+02  0.00000000000E+00 0. -1.
          6    1    1    2  501    0  0.11820146212E+03 -0.54627900929E+01  0.65359400643E+03  0.68612721339E+03  0.17200000000E+03 0. -1.
         -6    1    1    2    0  503 -0.11820146212E+03  0.54627900929E+01  0.11093373329E+03  0.23641429928E+03  0.17200000000E+03 0. -1.
<mgrwt>
<rscale>  2 0.20877123E+03</rscale>
<asrwt>0</asrwt>
<pdfrwt beam="1">  1       21 0.21088363E+00 0.20877123E+03</pdfrwt>
<pdfrwt beam="2">  1       21 0.19751724E-01 0.20877123E+03</pdfrwt>
<totfact> 0.26637274E+03</totfact>
</mgrwt>
</event>
<event>
 4    1  0.1091654E+000  0.1870321E+03  0.7546771E-02  0.1161166E+00
         21   -1    0    0  503  502  0.00000000000E+00  0.00000000000E+00  0.13848605194E+03  0.13848605194E+03  0.00000000000E+00 0.  1.
         21   -1    0    0  501  503 -0.00000000000E+00 -0.00000000000E+00 -0.56518911715E+03  0.56518911715E+03  0.00000000000E+00 0. -1.
          6    1    1    2  501    0  0.71375048196E+02 -0.17395719598E+02 -0.47501019201E+03  0.51050532914E+03  0.17200000000E+03 0. -1.
         -6    1    1    2    0  502 -0.71375048196E+02  0.17395719598E+02  0.48307126803E+02  0.19316983995E+03  0.17200000000E+03 0.  1.
<mgrwt>
<rscale>  2 0.18703211E+03</rscale>
<asrwt>0</asrwt>
<pdfrwt beam="1">  1       21 0.34621513E-01 0.18703211E+03</pdfrwt>
<pdfrwt beam="2">  1       21 0.14129728E+00 0.18703211E+03</pdfrwt>
<totfact> 0.28238982E+03</totfact>
</mgrwt>
</event>
<event>
 4    1  0.1091654E+000  0.3642132E+03  0.7546771E-02  0.1056928E+00
         21   -1    0    0  501  502  0.00000000000E+00  0.00000000000E+00  0.11647064534E+03  0.11647064534E+03  0.00000000000E+00 0.  1.
         21   -1    0    0  502  503 -0.00000000000E+00 -0.00000000000E+00 -0.11748260183E+04  0.11748260183E+04  0.00000000000E+00 0. -1.
          6    1    1    2  501    0 -0.39103652862E+02 -0.31865053746E+03 -0.41631088319E+03  0.55314194576E+03  0.17200000000E+03 0.  1.
         -6    1    1    2    0  503  0.39103652862E+02  0.31865053746E+03 -0.64204448981E+03  0.73815471792E+03  0.17200000000E+03 0. -1.
<mgrwt>
<rscale>  2 0.36421321E+03</rscale>
<asrwt>0</asrwt>
<pdfrwt beam="1">  1       21 0.29117662E-01 0.36421321E+03</pdfrwt>
<pdfrwt beam="2">  1       21 0.29370650E+00 0.36421321E+03</pdfrwt>
<totfact> 0.35135755E+02</totfact>
</mgrwt>
</event>
<event>
 4    1  0.1091654E+000  0.2419312E+03  0.7546771E-02  0.1118513E+00
         21   -1    0    0  501  502  0.00000000000E+00  0.00000000000E+00  0.33328781390E+03  0.33328781390E+03  0.00000000000E+00 0. -1.
         21   -1    0    0  502  503 -0.00000000000E+00 -0.00000000000E+00 -0.85446749332E+03  0.85446749332E+03  0.00000000000E+00 0.  1.
          6    1    1    2  501    0 -0.15320322948E+03  0.73996414492E+02  0.26875242976E+03  0.36160554114E+03  0.17200000000E+03 0. -1.
         -6    1    1    2    0  503  0.15320322948E+03 -0.73996414492E+02 -0.78993210917E+03  0.82614976608E+03  0.17200000000E+03 0.  1.
<mgrwt>
<rscale>  2 0.24193119E+03</rscale>
<asrwt>0</asrwt>
<pdfrwt beam="1">  1       21 0.83321954E-01 0.24193119E+03</pdfrwt>
<pdfrwt beam="2">  1       21 0.21361687E+00 0.24193119E+03</pdfrwt>
<totfact> 0.12969338E+02</totfact>
</mgrwt>
</event>
<event>
 4    1  0.1091654E+000  0.3094795E+03  0.7546771E-02  0.1080596E+00
         21   -1    0    0  503  502  0.00000000000E+00  0.00000000000E+00  0.25479435674E+03  0.25479435674E+03  0.00000000000E+00 0.  1.
         21   -1    0    0  501  503 -0.00000000000E+00 -0.00000000000E+00 -0.53923067140E+03  0.53923067140E+03  0.00000000000E+00 0. -1.
          6    1    1    2  501    0 -0.12271519113E+03 -0.22612954849E+03 -0.36071679338E+03  0.47528327959E+03  0.17200000000E+03 0. -1.
         -6    1    1    2    0  502  0.12271519113E+03  0.22612954849E+03  0.76280478723E+02  0.31874174855E+03  0.17200000000E+03 0.  1.
<mgrwt>
<rscale>  2 0.30947955E+03</rscale>
<asrwt>0</asrwt>
<pdfrwt beam="1">  1       21 0.63698590E-01 0.30947955E+03</pdfrwt>
<pdfrwt beam="2">  1       21 0.13480767E+00 0.30947955E+03</pdfrwt>
<totfact> 0.81476099E+02</totfact>
</mgrwt>
</event>
<event>
 4    1  0.1091654E+000  0.1899477E+03  0.7546771E-02  0.1158508E+00
         21   -1    0    0  501  502  0.00000000000E+00  0.00000000000E+00  0.30749519922E+03  0.30749519922E+03  0.00000000000E+00 0. -1.
         21   -1    0    0  502  503 -0.00000000000E+00 -0.00000000000E+00 -0.12323805326E+03  0.12323805326E+03  0.00000000000E+00 0.  1.
          6    1    1    2  501    0  0.62978532746E+02 -0.50297612438E+02  0.44996030472E+02  0.19520447782E+03  0.17200000000E+03 0.  1.
         -6    1    1    2    0  503 -0.62978532746E+02  0.50297612438E+02  0.13926111548E+03  0.23552877465E+03  0.17200000000E+03 0. -1.
<mgrwt>
<rscale>  2 0.18994774E+03</rscale>
<asrwt>0</asrwt>
<pdfrwt beam="1">  1       21 0.76873798E-01 0.18994774E+03</pdfrwt>
<pdfrwt beam="2">  1       21 0.30809514E-01 0.18994774E+03</pdfrwt>
<totfact> 0.15246791E+04</totfact>
</mgrwt>
</event>
<event>
 4    1  0.1091654E+000  0.1798562E+03  0.7546771E-02  0.1167942E+00
         21   -1    0    0  503  502  0.00000000000E+00  0.00000000000E+00  0.93594251252E+02  0.93594251252E+02  0.00000000000E+00 0.  1.
         21   -1    0    0  501  503 -0.00000000000E+00 -0.00000000000E+00 -0.47188304723E+03  0.47188304723E+03  0.00000000000E+00 0.  1.
          6    1    1    2  501    0  0.47698640559E+02 -0.22115050909E+02 -0.33539666976E+03  0.38057740589E+03  0.17200000000E+03 0.  1.
         -6    1    1    2    0  502 -0.47698640559E+02  0.22115050909E+02 -0.42892126214E+02  0.18489989259E+03  0.17200000000E+03 0.  1.
<mgrwt>
<rscale>  2 0.17985615E+03</rscale>
<asrwt>0</asrwt>
<pdfrwt beam="1">  1       21 0.23398563E-01 0.17985615E+03</pdfrwt>
<pdfrwt beam="2">  1       21 0.11797076E+00 0.17985615E+03</pdfrwt>
<totfact> 0.95526431E+03</totfact>
</mgrwt>
</event>
<event>
 4    1  0.1091654E+000  0.1933651E+03  0.7546771E-02  0.1155461E+00
         21   -1    0    0  501  502  0.00000000000E+00  0.00000000000E+00  0.86545970850E+02  0.86545970850E+02  0.00000000000E+00 0. -1.
         21   -1    0    0  502  503 -0.00000000000E+00 -0.00000000000E+00 -0.45855831712E+03  0.45855831712E+03  0.00000000000E+00 0. -1.
          6    1    1    2  501    0 -0.56649473962E+02 -0.67800315100E+02 -0.12044511495E+03  0.22780928722E+03  0.17200000000E+03 0. -1.
         -6    1    1    2    0  503  0.56649473962E+02  0.67800315100E+02 -0.25156723132E+03  0.31729500075E+03  0.17200000000E+03 0. -1.
<mgrwt>
<rscale>  2 0.19336506E+03</rscale>
<asrwt>0</asrwt>
<pdfrwt beam="1">  1       21 0.21636493E-01 0.19336506E+03</pdfrwt>
<pdfrwt beam="2">  1       21 0.11463958E+00 0.19336506E+03</pdfrwt>
<totfact> 0.11761943E+04</totfact>
</mgrwt>
</event>
<event>
 4    1  0.1091654E+000  0.2352967E+03  0.7546771E-02  0.1122966E+00
         21   -1    0    0  503  502  0.00000000000E+00  0.00000000000E+00  0.80678111962E+03  0.80678111962E+03  0.00000000000E+00 0. -1.
         21   -1    0    0  501  503 -0.00000000000E+00 -0.00000000000E+00 -0.68683870173E+02  0.68683870173E+02  0.00000000000E+00 0.  1.
          6    1    1    2  501    0 -0.14223905578E+03  0.74488767176E+02  0.35612197065E+03  0.42683414039E+03  0.17200000000E+03 0.  1.
         -6    1    1    2    0  502  0.14223905578E+03 -0.74488767176E+02  0.38197527879E+03  0.44863084940E+03  0.17200000000E+03 0. -1.
<mgrwt>
<rscale>  2 0.23529668E+03</rscale>
<asrwt>0</asrwt>
<pdfrwt beam="1">  1       21 0.20169525E+00 0.23529668E+03</pdfrwt>
<pdfrwt beam="2">  1       21 0.17170970E-01 0.23529668E+03</pdfrwt>
<totfact> 0.38613247E+03</totfact>
</mgrwt>
</event>
<event>
 4    1  0.1091654E+000  0.1746291E+03  0.7546771E-02  0.1173105E+00
         21   -1    0    0  503  502  0.00000000000E+00  0.00000000000E+00  0.16704948228E+03  0.16704948228E+03  0.00000000000E+00 0. -1.
         21   -1    0    0  501  503 -0.00000000000E+00 -0.00000000000E+00 -0.18893360337E+03  0.18893360337E+03  0.00000000000E+00 0. -1.
          6    1    1    2  501    0 -0.29738908517E+02  0.51892343093E+01 -0.43652508946E+02  0.18000242323E+03  0.17200000000E+03 0. -1.
         -6    1    1    2    0  502  0.29738908517E+02 -0.51892343093E+01  0.21768387860E+02  0.17598066241E+03  0.17200000000E+03 0. -1.
<mgrwt>
<rscale>  2 0.17462912E+03</rscale>
<asrwt>0</asrwt>
<pdfrwt beam="1">  1       21 0.41762371E-01 0.17462912E+03</pdfrwt>
<pdfrwt beam="2">  1       21 0.47233401E-01 0.17462912E+03</pdfrwt>
<totfact> 0.23918484E+04</totfact>
</mgrwt>
</event>
<event>
 4    1  0.1091654E+000  0.2516468E+03  0.7546771E-02  0.1112268E+00
         21   -1    0    0  503  502  0.00000000000E+00  0.00000000000E+00  0.54918721316E+03  0.54918721316E+03  0.00000000000E+00 0. -1.
         21   -1    0    0  501  503 -0.00000000000E+00 -0.00000000000E+00 -0.17694026375E+03  0.17694026375E+03  0.00000000000E+00 0.  1.
          6    1    1    2  501    0 -0.18315518145E+03 -0.14010186466E+02 -0.28151209050E+02  0.25321650102E+03  0.17200000000E+03 0.  1.
         -6    1    1    2    0  502  0.18315518145E+03  0.14010186466E+02  0.40039815846E+03  0.47291097589E+03  0.17200000000E+03 0. -1.
<mgrwt>
<rscale>  2 0.25164679E+03</rscale>
<asrwt>0</asrwt>
<pdfrwt beam="1">  1       21 0.13729680E+00 0.25164679E+03</pdfrwt>
<pdfrwt beam="2">  1       21 0.44235067E-01 0.25164679E+03</pdfrwt>
<totfact> 0.17561320E+03</totfact>
</mgrwt>
</event>
<event>
 4    1  0.1091654E+000  0.1747862E+03  0.7546771E-02  0.1172947E+00
         21   -1    0    0  503  502  0.00000000000E+00  0.00000000000E+00  0.23718322721E+03  0.23718322721E+03  0.00000000000E+00 0.  1.
         21   -1    0    0  501  503 -0.00000000000E+00 -0.00000000000E+00 -0.13326267207E+03  0.13326267207E+03  0.00000000000E+00 0.  1.
          6    1    1    2  501    0  0.29327535454E+02  0.10301332859E+02  0.18081461000E+02  0.17571898311E+03  0.17200000000E+03 0.  1.
         -6    1    1    2    0  502 -0.29327535454E+02 -0.10301332859E+02  0.85839094140E+02  0.19472691616E+03  0.17200000000E+03 0.  1.
<mgrwt>
<rscale>  2 0.17478622E+03</rscale>
<asrwt>0</asrwt>
<pdfrwt beam="1">  1       21 0.59295806E-01 0.17478622E+03</pdfrwt>
<pdfrwt beam="2">  1       21 0.33315668E-01 0.17478622E+03</pdfrwt>
<totfact> 0.23300057E+04</totfact>
</mgrwt>
</event>
<event>
 4    1  0.1091654E+000  0.1751322E+03  0.7546771E-02  0.1172599E+00
         21   -1    0    0  503  502  0.00000000000E+00  0.00000000000E+00  0.36960313109E+03  0.36960313109E+03  0.00000000000E+00 0. -1.
         21   -1    0    0  501  503 -0.00000000000E+00 -0.00000000000E+00 -0.15335043896E+03  0.15335043896E+03  0.00000000000E+00 0. -1.
          6    1    1    2  501    0 -0.29925273383E+02  0.13848126320E+02 -0.68995524191E+02  0.18823303363E+03  0.17200000000E+03 0. -1.
         -6    1    1    2    0  502  0.29925273383E+02 -0.13848126320E+02  0.28524821632E+03  0.33472053643E+03  0.17200000000E+03 0. -1.
<mgrwt>
<rscale>  2 0.17513221E+03</rscale>
<asrwt>0</asrwt>
<pdfrwt beam="1">  1       21 0.92400781E-01 0.17513221E+03</pdfrwt>
<pdfrwt beam="2">  1       21 0.38337610E-01 0.17513221E+03</pdfrwt>
<totfact> 0.65727824E+03</totfact>
</mgrwt>
</event>
<event>
 4    1  0.1091654E+000  0.1901458E+03  0.7546771E-02  0.1158330E+00
         21   -1    0    0  501  502  0.00000000000E+00  0.00000000000E+00  0.24384720446E+03  0.24384720446E+03  0.00000000000E+00 0.  1.
         21   -1    0    0  502  503 -0.00000000000E+00 -0.00000000000E+00 -0.15435562609E+03  0.15435562609E+03  0.00000000000E+00 0.  1.
          6    1    1    2  501    0 -0.81061329393E+02  0.68967057060E+00  0.52147730433E+01  0.19021726690E+03  0.17200000000E+03 0.  1.
         -6    1    1    2    0  503  0.81061329393E+02 -0.68967057060E+00  0.84276805328E+02  0.20798556365E+03  0.17200000000E+03 0.  1.
<mgrwt>
<rscale>  2 0.19014577E+03</rscale>
<asrwt>0</asrwt>
<pdfrwt beam="1">  1       21 0.60961801E-01 0.19014577E+03</pdfrwt>
<pdfrwt beam="2">  1       21 0.38588907E-01 0.19014577E+03</pdfrwt>
<totfact> 0.16241115E+04</totfact>
</mgrwt>
</event>
<event>
 4    1  0.1091654E+000  0.1806545E+03  0.7546771E-02  0.1167171E+00
         21   -1    0    0  503  502  0.00000000000E+00  0.00000000000E+00  0.57105953748E+03  0.57105953748E+03  0.00000000000E+00 0.  1.
         21   -1    0    0  501  503 -0.00000000000E+00 -0.00000000000E+00 -0.57973674382E+02  0.57973674382E+02  0.00000000000E+00 0.  1.
          6    1    1    2  501    0 -0.54445698335E+02 -0.93658586922E+01  0.21905378337E+03  0.28393769279E+03  0.17200000000E+03 0.  1.
         -6    1    1    2    0  502  0.54445698335E+02  0.93658586922E+01  0.29403207972E+03  0.34509551907E+03  0.17200000000E+03 0.  1.
<mgrwt>
<rscale>  2 0.18065451E+03</rscale>
<asrwt>0</asrwt>
<pdfrwt beam="1">  1       21 0.14276487E+00 0.18065451E+03</pdfrwt>
<pdfrwt beam="2">  1       21 0.14493420E-01 0.18065451E+03</pdfrwt>
<totfact> 0.14325035E+04</totfact>
</mgrwt>
</event>
<event>
 4    1  0.1091654E+000  0.2361436E+03  0.7546771E-02  0.1122389E+00
         21   -1    0    0  503  502  0.00000000000E+00  0.00000000000E+00  0.72898566982E+02  0.72898566982E+02  0.00000000000E+00 0. -1.
         21   -1    0    0  501  503 -0.00000000000E+00 -0.00000000000E+00 -0.92195658888E+03  0.92195658888E+03  0.00000000000E+00 0.  1.
          6    1    1    2  501    0 -0.11438143460E+03 -0.11444079705E+03 -0.62980238345E+03  0.67261790848E+03  0.17200000000E+03 0.  1.
         -6    1    1    2    0  502  0.11438143460E+03  0.11444079705E+03 -0.21925563845E+03  0.32223724739E+03  0.17200000000E+03 0. -1.
<mgrwt>
<rscale>  2 0.23614362E+03</rscale>
<asrwt>0</asrwt>
<pdfrwt beam="1">  1       21 0.18224642E-01 0.23614362E+03</pdfrwt>
<pdfrwt beam="2">  1       21 0.23048914E+00 0.23614362E+03</pdfrwt>
<totfact> 0.22819616E+03</totfact>
</mgrwt>
</event>
<event>
 4    1  0.1091654E+000  0.1826480E+03  0.7546771E-02  0.1165265E+00
         21   -1    0    0  503  502  0.00000000000E+00  0.00000000000E+00  0.15668686381E+03  0.15668686381E+03  0.00000000000E+00 0. -1.
         21   -1    0    0  501  503 -0.00000000000E+00 -0.00000000000E+00 -0.24042894598E+03  0.24042894598E+03  0.00000000000E+00 0. -1.
          6    1    1    2  501    0  0.21103876640E+02  0.57713958845E+02 -0.10904577460E+03  0.21272342516E+03  0.17200000000E+03 0. -1.
         -6    1    1    2    0  502 -0.21103876640E+02 -0.57713958845E+02  0.25303692429E+02  0.18439238462E+03  0.17200000000E+03 0. -1.
<mgrwt>
<rscale>  2 0.18264795E+03</rscale>
<asrwt>0</asrwt>
<pdfrwt beam="1">  1       21 0.39171716E-01 0.18264795E+03</pdfrwt>
<pdfrwt beam="2">  1       21 0.60107236E-01 0.18264795E+03</pdfrwt>
<totfact> 0.16320120E+04</totfact>
</mgrwt>
</event>
<event>
 4    1  0.1091654E+000  0.1948758E+03  0.7546771E-02  0.1154136E+00
         21   -1    0    0  501  502  0.00000000000E+00  0.00000000000E+00  0.37774008663E+03  0.37774008663E+03  0.00000000000E+00 0. -1.
         21   -1    0    0  502  503 -0.00000000000E+00 -0.00000000000E+00 -0.14200412296E+03  0.14200412296E+03  0.00000000000E+00 0. -1.
          6    1    1    2  501    0  0.72526700517E+02  0.55968205213E+02  0.25829969643E+03  0.32356652401E+03  0.17200000000E+03 0. -1.
         -6    1    1    2    0  503 -0.72526700517E+02 -0.55968205213E+02 -0.22563732770E+02  0.19617768558E+03  0.17200000000E+03 0. -1.
<mgrwt>
<rscale>  2 0.19487576E+03</rscale>
<asrwt>0</asrwt>
<pdfrwt beam="1">  1       21 0.94435020E-01 0.19487576E+03</pdfrwt>
<pdfrwt beam="2">  1       21 0.35501031E-01 0.19487576E+03</pdfrwt>
<totfact> 0.71747919E+03</totfact>
</mgrwt>
</event>
<event>
 4    1  0.1091654E+000  0.2675121E+03  0.7546771E-02  0.1102712E+00
         21   -1    0    0  501  502  0.00000000000E+00  0.00000000000E+00  0.13042574369E+03  0.13042574369E+03  0.00000000000E+00 0.  1.
         21   -1    0    0  502  503 -0.00000000000E+00 -0.00000000000E+00 -0.56700690470E+03  0.56700690470E+03  0.00000000000E+00 0. -1.
          6    1    1    2  501    0 -0.16312327621E+03  0.12397382164E+03 -0.15560643166E+03  0.30947709651E+03  0.17200000000E+03 0.  1.
         -6    1    1    2    0  503  0.16312327621E+03 -0.12397382164E+03 -0.28097472936E+03  0.38795555188E+03  0.17200000000E+03 0. -1.
<mgrwt>
<rscale>  2 0.26751208E+03</rscale>
<asrwt>0</asrwt>
<pdfrwt beam="1">  1       21 0.32606436E-01 0.26751208E+03</pdfrwt>
<pdfrwt beam="2">  1       21 0.14175172E+00 0.26751208E+03</pdfrwt>
<totfact> 0.29597916E+03</totfact>
</mgrwt>
</event>
<event>
 4    1  0.1091654E+000  0.1952947E+03  0.7546771E-02  0.1153771E+00
         21   -1    0    0  503  502  0.00000000000E+00  0.00000000000E+00  0.11346531182E+03  0.11346531182E+03  0.00000000000E+00 0. -1.
         21   -1    0    0  501  503 -0.00000000000E+00 -0.00000000000E+00 -0.82249559467E+03  0.82249559467E+03  0.00000000000E+00 0. -1.
          6    1    1    2  501    0 -0.51748698135E+02 -0.76668733584E+02 -0.71437938568E+03  0.74059295781E+03  0.17200000000E+03 0. -1.
         -6    1    1    2    0  502  0.51748698135E+02  0.76668733584E+02  0.53491028362E+01  0.19536794867E+03  0.17200000000E+03 0. -1.
<mgrwt>
<rscale>  2 0.19529471E+03</rscale>
<asrwt>0</asrwt>
<pdfrwt beam="1">  1       21 0.28366329E-01 0.19529471E+03</pdfrwt>
<pdfrwt beam="2">  1       21 0.20562389E+00 0.19529471E+03</pdfrwt>
<totfact> 0.14647000E+03</totfact>
</mgrwt>
</event>
<event>
 4    1  0.1091654E+000  0.2174530E+03  0.7546771E-02  0.1135796E+00
         21   -1    0    0  501  502  0.00000000000E+00  0.00000000000E+00  0.18554492636E+03  0.18554492636E+03  0.00000000000E+00 0. -1.
         21   -1    0    0  502  503 -0.00000000000E+00 -0.00000000000E+00 -0.52191057431E+03  0.52191057431E+03  0.00000000000E+00 0. -1.
          6    1    1    2  501    0 -0.24971195096E+02 -0.13068376693E+03  0.84850291218E+02  0.23342103470E+03  0.17200000000E+03 0. -1.
         -6    1    1    2    0  503  0.24971195096E+02  0.13068376693E+03 -0.42121593916E+03  0.47403446597E+03  0.17200000000E+03 0. -1.
<mgrwt>
<rscale>  2 0.21745300E+03</rscale>
<asrwt>0</asrwt>
<pdfrwt beam="1">  1       21 0.46386232E-01 0.21745300E+03</pdfrwt>
<pdfrwt beam="2">  1       21 0.13047764E+00 0.21745300E+03</pdfrwt>
<totfact> 0.18640350E+03</totfact>
</mgrwt>
</event>
<event>
 4    1  0.1091654E+000  0.1950498E+03  0.7546771E-02  0.1153984E+00
         21   -1    0    0  503  502  0.00000000000E+00  0.00000000000E+00  0.27347619555E+03  0.27347619555E+03  0.00000000000E+00 0. -1.
         21   -1    0    0  501  503 -0.00000000000E+00 -0.00000000000E+00 -0.18748634351E+03  0.18748634351E+03  0.00000000000E+00 0. -1.
          6    1    1    2  501    0 -0.45763590377E+01 -0.91866651390E+02 -0.74075835268E+02  0.20864240717E+03  0.17200000000E+03 0. -1.
         -6    1    1    2    0  502  0.45763590377E+01  0.91866651390E+02  0.16006568731E+03  0.25232013188E+03  0.17200000000E+03 0. -1.
<mgrwt>
<rscale>  2 0.19504980E+03</rscale>
<asrwt>0</asrwt>
<pdfrwt beam="1">  1       21 0.68369048E-01 0.19504980E+03</pdfrwt>
<pdfrwt beam="2">  1       21 0.46871586E-01 0.19504980E+03</pdfrwt>
<totfact> 0.84890960E+03</totfact>
</mgrwt>
</event>
<event>
 4    1  0.1091654E+000  0.1827937E+03  0.7546771E-02  0.1165126E+00
         21   -1    0    0  503  502  0.00000000000E+00  0.00000000000E+00  0.17264909193E+03  0.17264909193E+03  0.00000000000E+00 0.  1.
         21   -1    0    0  501  503 -0.00000000000E+00 -0.00000000000E+00 -0.20539029363E+03  0.20539029363E+03  0.00000000000E+00 0.  1.
          6    1    1    2  501    0  0.43946960975E+02  0.43568370513E+02 -0.61784025762E+02  0.19295285468E+03  0.17200000000E+03 0.  1.
         -6    1    1    2    0  502 -0.43946960975E+02 -0.43568370513E+02  0.29042824062E+02  0.18508653089E+03  0.17200000000E+03 0.  1.
<mgrwt>
<rscale>  2 0.18279370E+03</rscale>
<asrwt>0</asrwt>
<pdfrwt beam="1">  1       21 0.43162273E-01 0.18279370E+03</pdfrwt>
<pdfrwt beam="2">  1       21 0.51347573E-01 0.18279370E+03</pdfrwt>
<totfact> 0.18713531E+04</totfact>
</mgrwt>
</event>
<event>
 4    1  0.1091654E+000  0.1834582E+03  0.7546771E-02  0.1164498E+00
         21   -1    0    0  503  502  0.00000000000E+00  0.00000000000E+00  0.27478104476E+03  0.27478104476E+03  0.00000000000E+00 0. -1.
         21   -1    0    0  501  503 -0.00000000000E+00 -0.00000000000E+00 -0.12299083412E+03  0.12299083412E+03  0.00000000000E+00 0. -1.
          6    1    1    2  501    0 -0.63723311347E+02 -0.35000687229E+01  0.63156641997E+02  0.19402492705E+03  0.17200000000E+03 0. -1.
         -6    1    1    2    0  502  0.63723311347E+02  0.35000687229E+01  0.88633568644E+02  0.20374695183E+03  0.17200000000E+03 0. -1.
<mgrwt>
<rscale>  2 0.18345820E+03</rscale>
<asrwt>0</asrwt>
<pdfrwt beam="1">  1       21 0.68695260E-01 0.18345820E+03</pdfrwt>
<pdfrwt beam="2">  1       21 0.30747709E-01 0.18345820E+03</pdfrwt>
<totfact> 0.19722744E+04</totfact>
</mgrwt>
</event>
<event>
 4    1  0.1091654E+000  0.2022796E+03  0.7546771E-02  0.1147830E+00
         21   -1    0    0  503  502  0.00000000000E+00  0.00000000000E+00  0.30363521640E+02  0.30363521640E+02  0.00000000000E+00 0. -1.
         21   -1    0    0  501  503 -0.00000000000E+00 -0.00000000000E+00 -0.14903922411E+04  0.14903922411E+04  0.00000000000E+00 0. -1.
          6    1    1    2  501    0 -0.10496397541E+03 -0.17765598556E+02 -0.96539623144E+03  0.98636044948E+03  0.17200000000E+03 0. -1.
         -6    1    1    2    0  502  0.10496397541E+03  0.17765598556E+02 -0.49463248801E+03  0.53439531324E+03  0.17200000000E+03 0. -1.
<mgrwt>
<rscale>  2 0.20227964E+03</rscale>
<asrwt>0</asrwt>
<pdfrwt beam="1">  1       21 0.75908807E-02 0.20227964E+03</pdfrwt>
<pdfrwt beam="2">  1       21 0.37259805E+00 0.20227964E+03</pdfrwt>
<totfact> 0.16629027E+03</totfact>
</mgrwt>
</event>
<event>
 4    1  0.1091654E+000  0.1805922E+03  0.7546771E-02  0.1167231E+00
         21   -1    0    0  503  502  0.00000000000E+00  0.00000000000E+00  0.55963998731E+03  0.55963998731E+03  0.00000000000E+00 0.  1.
         21   -1    0    0  501  503 -0.00000000000E+00 -0.00000000000E+00 -0.65484769747E+02  0.65484769747E+02  0.00000000000E+00 0. -1.
          6    1    1    2  501    0  0.10066509810E+02  0.54112946113E+02  0.14337278060E+03  0.23058469111E+03  0.17200000000E+03 0. -1.
         -6    1    1    2    0  502 -0.10066509810E+02 -0.54112946113E+02  0.35078243696E+03  0.39454006594E+03  0.17200000000E+03 0. -1.
<mgrwt>
<rscale>  2 0.18059221E+03</rscale>
<asrwt>0</asrwt>
<pdfrwt beam="1">  1       21 0.13990998E+00 0.18059221E+03</pdfrwt>
<pdfrwt beam="2">  1       21 0.16371194E-01 0.18059221E+03</pdfrwt>
<totfact> 0.12088969E+04</totfact>
</mgrwt>
</event>
<event>
 4    1  0.1091654E+000  0.2953378E+03  0.7546771E-02  0.1087595E+00
         21   -1    0    0  503  502  0.00000000000E+00  0.00000000000E+00  0.47778528044E+03  0.47778528044E+03  0.00000000000E+00 0. -1.
         21   -1    0    0  501  503 -0.00000000000E+00 -0.00000000000E+00 -0.20487075922E+03  0.20487075922E+03  0.00000000000E+00 0. -1.
          6    1    1    2  501    0 -0.10032936221E+03  0.21811567627E+03  0.24909662195E+03  0.38635936151E+03  0.17200000000E+03 0. -1.
         -6    1    1    2    0  502  0.10032936221E+03 -0.21811567627E+03  0.23817899272E+02  0.29629667815E+03  0.17200000000E+03 0. -1.
<mgrwt>
<rscale>  2 0.29533782E+03</rscale>
<asrwt>0</asrwt>
<pdfrwt beam="1">  1       21 0.11944632E+00 0.29533782E+03</pdfrwt>
<pdfrwt beam="2">  1       21 0.51217691E-01 0.29533782E+03</pdfrwt>
<totfact> 0.17897536E+03</totfact>
</mgrwt>
</event>
<event>
 4    1  0.1091654E+000  0.1836211E+03  0.7546771E-02  0.1164344E+00
         21   -1    0    0  501  502  0.00000000000E+00  0.00000000000E+00  0.88522191543E+02  0.88522191543E+02  0.00000000000E+00 0. -1.
         21   -1    0    0  502  503 -0.00000000000E+00 -0.00000000000E+00 -0.38151219954E+03  0.38151219954E+03  0.00000000000E+00 0.  1.
          6    1    1    2  501    0 -0.62901891187E+02 -0.13268961062E+02 -0.13696069105E+03  0.22907410184E+03  0.17200000000E+03 0. -1.
         -6    1    1    2    0  503  0.62901891187E+02  0.13268961062E+02 -0.15602931695E+03  0.24096028924E+03  0.17200000000E+03 0.  1.
<mgrwt>
<rscale>  2 0.18362111E+03</rscale>
<asrwt>0</asrwt>
<pdfrwt beam="1">  1       21 0.22130548E-01 0.18362111E+03</pdfrwt>
<pdfrwt beam="2">  1       21 0.95378049E-01 0.18362111E+03</pdfrwt>
<totfact> 0.17619046E+04</totfact>
</mgrwt>
</event>
<event>
 4    1  0.1091654E+000  0.2160712E+03  0.7546771E-02  0.1136846E+00
         21   -1    0    0  503  502  0.00000000000E+00  0.00000000000E+00  0.64161997302E+02  0.64161997302E+02  0.00000000000E+00 0.  1.
         21   -1    0    0  501  503 -0.00000000000E+00 -0.00000000000E+00 -0.10576983849E+04  0.10576983849E+04  0.00000000000E+00 0. -1.
          6    1    1    2  501    0 -0.13077505937E+03  0.80933062175E+00 -0.81011404013E+03  0.83843397426E+03  0.17200000000E+03 0. -1.
         -6    1    1    2    0  502  0.13077505937E+03 -0.80933062175E+00 -0.18342234747E+03  0.28342640794E+03  0.17200000000E+03 0.  1.
<mgrwt>
<rscale>  2 0.21607122E+03</rscale>
<asrwt>0</asrwt>
<pdfrwt beam="1">  1       21 0.16040500E-01 0.21607122E+03</pdfrwt>
<pdfrwt beam="2">  1       21 0.26442459E+00 0.21607122E+03</pdfrwt>
<totfact> 0.18507351E+03</totfact>
</mgrwt>
</event>
<event>
 4    1  0.1091654E+000  0.1901575E+03  0.7546771E-02  0.1158319E+00
         21   -1    0    0  501  502  0.00000000000E+00  0.00000000000E+00  0.48253930880E+03  0.48253930880E+03  0.00000000000E+00 0. -1.
         21   -1    0    0  502  503 -0.00000000000E+00 -0.00000000000E+00 -0.75126123797E+02  0.75126123797E+02  0.00000000000E+00 0.  1.
          6    1    1    2  501    0  0.79500352586E+02 -0.15986856270E+02  0.18970402225E+03  0.26860286985E+03  0.17200000000E+03 0. -1.
         -6    1    1    2    0  503 -0.79500352586E+02  0.15986856270E+02  0.21770916276E+03  0.28906256275E+03  0.17200000000E+03 0. -1.
<mgrwt>
<rscale>  2 0.19015753E+03</rscale>
<asrwt>0</asrwt>
<pdfrwt beam="1">  1       21 0.12063482E+00 0.19015753E+03</pdfrwt>
<pdfrwt beam="2">  1       21 0.18781532E-01 0.19015753E+03</pdfrwt>
<totfact> 0.13549218E+04</totfact>
</mgrwt>
</event>
<event>
 4    1  0.1091654E+000  0.1864006E+03  0.7546771E-02  0.1161748E+00
         21   -1    0    0  501  502  0.00000000000E+00  0.00000000000E+00  0.63028974024E+03  0.63028974024E+03  0.00000000000E+00 0. -1.
         21   -1    0    0  502  503 -0.00000000000E+00 -0.00000000000E+00 -0.22980038509E+03  0.22980038509E+03  0.00000000000E+00 0. -1.
          6    1    1    2  501    0  0.25134225565E+02  0.67301303835E+02  0.57517754379E+03  0.60462749001E+03  0.17200000000E+03 0. -1.
         -6    1    1    2    0  503 -0.25134225565E+02 -0.67301303835E+02 -0.17468818865E+03  0.25546263532E+03  0.17200000000E+03 0. -1.
<mgrwt>
<rscale>  2 0.18640063E+03</rscale>
<asrwt>0</asrwt>
<pdfrwt beam="1">  1       21 0.15757243E+00 0.18640063E+03</pdfrwt>
<pdfrwt beam="2">  1       21 0.57450098E-01 0.18640063E+03</pdfrwt>
<totfact> 0.75097973E+02</totfact>
</mgrwt>
</event>
<event>
 4    1  0.1091654E+000  0.1929026E+03  0.7546771E-02  0.1155869E+00
         21   -1    0    0  503  502  0.00000000000E+00  0.00000000000E+00  0.74609555062E+02  0.74609555062E+02  0.00000000000E+00 0. -1.
         21   -1    0    0  501  503 -0.00000000000E+00 -0.00000000000E+00 -0.76767096318E+03  0.76767096318E+03  0.00000000000E+00 0.  1.
          6    1    1    2  501    0 -0.20381604667E+02 -0.84923458944E+02 -0.59579079156E+03  0.62624122429E+03  0.17200000000E+03 0.  1.
         -6    1    1    2    0  502  0.20381604667E+02  0.84923458944E+02 -0.97270616562E+02  0.21603929396E+03  0.17200000000E+03 0. -1.
<mgrwt>
<rscale>  2 0.19290258E+03</rscale>
<asrwt>0</asrwt>
<pdfrwt beam="1">  1       21 0.18652389E-01 0.19290258E+03</pdfrwt>
<pdfrwt beam="2">  1       21 0.19191774E+00 0.19290258E+03</pdfrwt>
<totfact> 0.39815851E+03</totfact>
</mgrwt>
</event>
<event>
 4    1  0.1091654E+000  0.2200879E+03  0.7546771E-02  0.1133818E+00
         21   -1    0    0  503  502  0.00000000000E+00  0.00000000000E+00  0.22518628854E+03  0.22518628854E+03  0.00000000000E+00 0.  1.
         21   -1    0    0  501  503 -0.00000000000E+00 -0.00000000000E+00 -0.28967529064E+03  0.28967529064E+03  0.00000000000E+00 0.  1.
          6    1    1    2  501    0 -0.12587156094E+03  0.54872749762E+02 -0.16285799407E+03  0.27379078647E+03  0.17200000000E+03 0.  1.
         -6    1    1    2    0  502  0.12587156094E+03 -0.54872749762E+02  0.98368991959E+02  0.24107079271E+03  0.17200000000E+03 0.  1.
<mgrwt>
<rscale>  2 0.22008787E+03</rscale>
<asrwt>0</asrwt>
<pdfrwt beam="1">  1       21 0.56296572E-01 0.22008787E+03</pdfrwt>
<pdfrwt beam="2">  1       21 0.72418822E-01 0.22008787E+03</pdfrwt>
<totfact> 0.49986545E+03</totfact>
</mgrwt>
</event>
<event>
 4    1  0.1091654E+000  0.2053148E+03  0.7546771E-02  0.1145331E+00
         21   -1    0    0  501  502  0.00000000000E+00  0.00000000000E+00  0.20665120528E+03  0.20665120528E+03  0.00000000000E+00 0. -1.
         21   -1    0    0  502  503 -0.00000000000E+00 -0.00000000000E+00 -0.36481220847E+03  0.36481220847E+03  0.00000000000E+00 0. -1.
          6    1    1    2  501    0 -0.54590798104E+02 -0.97928573753E+02  0.11063412101E+03  0.23322536210E+03  0.17200000000E+03 0. -1.
         -6    1    1    2    0  503  0.54590798104E+02  0.97928573753E+02 -0.26879512420E+03  0.33823805166E+03  0.17200000000E+03 0. -1.
<mgrwt>
<rscale>  2 0.20531478E+03</rscale>
<asrwt>0</asrwt>
<pdfrwt beam="1">  1       21 0.51662802E-01 0.20531478E+03</pdfrwt>
<pdfrwt beam="2">  1       21 0.91203051E-01 0.20531478E+03</pdfrwt>
<totfact> 0.35876735E+03</totfact>
</mgrwt>
</event>
<event>
 4    1  0.1091654E+000  0.2397304E+03  0.7546771E-02  0.1119973E+00
         21   -1    0    0  503  502  0.00000000000E+00  0.00000000000E+00  0.49472332824E+03  0.49472332824E+03  0.00000000000E+00 0. -1.
         21   -1    0    0  501  503 -0.00000000000E+00 -0.00000000000E+00 -0.16261776051E+03  0.16261776051E+03  0.00000000000E+00 0. -1.
          6    1    1    2  501    0 -0.13476902632E+01  0.16698751150E+03 -0.96068903409E+01  0.23992277426E+03  0.17200000000E+03 0. -1.
         -6    1    1    2    0  502  0.13476902632E+01 -0.16698751150E+03  0.34171245807E+03  0.41741831449E+03  0.17200000000E+03 0. -1.
<mgrwt>
<rscale>  2 0.23973036E+03</rscale>
<asrwt>0</asrwt>
<pdfrwt beam="1">  1       21 0.12368083E+00 0.23973036E+03</pdfrwt>
<pdfrwt beam="2">  1       21 0.40654441E-01 0.23973036E+03</pdfrwt>
<totfact> 0.27478036E+03</totfact>
</mgrwt>
</event>
<event>
 4    1  0.1091654E+000  0.2258077E+03  0.7546771E-02  0.1129626E+00
         21   -1    0    0  503  502  0.00000000000E+00  0.00000000000E+00  0.65057353955E+03  0.65057353955E+03  0.00000000000E+00 0.  1.
         21   -1    0    0  501  503 -0.00000000000E+00 -0.00000000000E+00 -0.94426454805E+02  0.94426454805E+02  0.00000000000E+00 0. -1.
          6    1    1    2  501    0 -0.76164007572E+02  0.12491657391E+03  0.12449582688E+03  0.25785328658E+03  0.17200000000E+03 0. -1.
         -6    1    1    2    0  502  0.76164007572E+02 -0.12491657391E+03  0.43165125786E+03  0.48714670778E+03  0.17200000000E+03 0.  1.
<mgrwt>
<rscale>  2 0.22580768E+03</rscale>
<asrwt>0</asrwt>
<pdfrwt beam="1">  1       21 0.16264337E+00 0.22580768E+03</pdfrwt>
<pdfrwt beam="2">  1       21 0.23606616E-01 0.22580768E+03</pdfrwt>
<totfact> 0.39554852E+03</totfact>
</mgrwt>
</event>
<event>
 4    1  0.1091654E+000  0.2400067E+03  0.7546771E-02  0.1119788E+00
         21   -1    0    0  501  502  0.00000000000E+00  0.00000000000E+00  0.14888276965E+04  0.14888276965E+04  0.00000000000E+00 0.  1.
         21   -1    0    0  502  503 -0.00000000000E+00 -0.00000000000E+00 -0.65947694574E+02  0.65947694574E+02  0.00000000000E+00 0. -1.
          6    1    1    2  501    0  0.77717899756E+02  0.14825370639E+03  0.12112210598E+04  0.12347711080E+04  0.17200000000E+03 0.  1.
         -6    1    1    2    0  503 -0.77717899756E+02 -0.14825370639E+03  0.21165894205E+03  0.32000428302E+03  0.17200000000E+03 0. -1.
<mgrwt>
<rscale>  2 0.24000674E+03</rscale>
<asrwt>0</asrwt>
<pdfrwt beam="1">  1       21 0.37220681E+00 0.24000674E+03</pdfrwt>
<pdfrwt beam="2">  1       21 0.16486929E-01 0.24000674E+03</pdfrwt>
<totfact> 0.39725982E+02</totfact>
</mgrwt>
</event>
<event>
 4    1  0.1091654E+000  0.2010700E+03  0.7546771E-02  0.1148839E+00
         21   -1    0    0  503  502  0.00000000000E+00  0.00000000000E+00  0.11340444603E+03  0.11340444603E+03  0.00000000000E+00 0.  1.
         21   -1    0    0  501  503 -0.00000000000E+00 -0.00000000000E+00 -0.37037732282E+03  0.37037732282E+03  0.00000000000E+00 0.  1.
          6    1    1    2  501    0 -0.29179816869E+02 -0.99968408182E+02 -0.81671251132E+02  0.21702381807E+03  0.17200000000E+03 0.  1.
         -6    1    1    2    0  502  0.29179816869E+02  0.99968408182E+02 -0.17530162566E+03  0.26675795078E+03  0.17200000000E+03 0.  1.
<mgrwt>
<rscale>  2 0.20107000E+03</rscale>
<asrwt>0</asrwt>
<pdfrwt beam="1">  1       21 0.28351112E-01 0.20107000E+03</pdfrwt>
<pdfrwt beam="2">  1       21 0.92594330E-01 0.20107000E+03</pdfrwt>
<totfact> 0.11630060E+04</totfact>
</mgrwt>
</event>
<event>
 4    1  0.1091654E+000  0.2243279E+03  0.7546771E-02  0.1130697E+00
         21   -1    0    0  501  502  0.00000000000E+00  0.00000000000E+00  0.15118866554E+03  0.15118866554E+03  0.00000000000E+00 0.  1.
         21   -1    0    0  502  503 -0.00000000000E+00 -0.00000000000E+00 -0.60810107357E+03  0.60810107357E+03  0.00000000000E+00 0. -1.
          6    1    1    2  501    0 -0.14400820044E+03 -0.80825698365E+00  0.26963766883E+02  0.22594260288E+03  0.17200000000E+03 0.  1.
         -6    1    1    2    0  503  0.14400820044E+03  0.80825698365E+00 -0.48387617492E+03  0.53334713623E+03  0.17200000000E+03 0. -1.
<mgrwt>
<rscale>  2 0.22432792E+03</rscale>
<asrwt>0</asrwt>
<pdfrwt beam="1">  1       21 0.37797166E-01 0.22432792E+03</pdfrwt>
<pdfrwt beam="2">  1       21 0.15202527E+00 0.22432792E+03</pdfrwt>
<totfact> 0.18918245E+03</totfact>
</mgrwt>
</event>
<event>
 4    1  0.1091654E+000  0.2003936E+03  0.7546771E-02  0.1149407E+00
         21   -1    0    0  503  502  0.00000000000E+00  0.00000000000E+00  0.43463313192E+03  0.43463313192E+03  0.00000000000E+00 0.  1.
         21   -1    0    0  501  503 -0.00000000000E+00 -0.00000000000E+00 -0.12754231412E+03  0.12754231412E+03  0.00000000000E+00 0.  1.
          6    1    1    2  501    0 -0.63425487456E+02  0.80936959260E+02  0.59864107388E+01  0.20048296922E+03  0.17200000000E+03 0. -1.
         -6    1    1    2    0  502  0.63425487456E+02 -0.80936959260E+02  0.30110440706E+03  0.36169247681E+03  0.17200000000E+03 0. -1.
<mgrwt>
<rscale>  2 0.20039357E+03</rscale>
<asrwt>0</asrwt>
<pdfrwt beam="1">  1       21 0.10865828E+00 0.20039357E+03</pdfrwt>
<pdfrwt beam="2">  1       21 0.31885580E-01 0.20039357E+03</pdfrwt>
<totfact> 0.63256722E+03</totfact>
</mgrwt>
</event>
<event>
 4    1  0.1091654E+000  0.2509615E+03  0.7546771E-02  0.1112699E+00
         21   -1    0    0  503  502  0.00000000000E+00  0.00000000000E+00  0.65836386133E+03  0.65836386133E+03  0.00000000000E+00 0.  1.
         21   -1    0    0  501  503 -0.00000000000E+00 -0.00000000000E+00 -0.12623315566E+03  0.12623315566E+03  0.00000000000E+00 0.  1.
          6    1    1    2  501    0 -0.17545780640E+03 -0.51110227934E+02  0.73014417799E+02  0.26136717933E+03  0.17200000000E+03 0.  1.
         -6    1    1    2    0  502  0.17545780640E+03  0.51110227934E+02  0.45911628787E+03  0.52322983766E+03  0.17200000000E+03 0.  1.
<mgrwt>
<rscale>  2 0.25096155E+03</rscale>
<asrwt>0</asrwt>
<pdfrwt beam="1">  1       21 0.16459096E+00 0.25096155E+03</pdfrwt>
<pdfrwt beam="2">  1       21 0.31558291E-01 0.25096155E+03</pdfrwt>
<totfact> 0.21394543E+03</totfact>
</mgrwt>
</event>
<event>
 4    1  0.1091654E+000  0.1808139E+03  0.7546771E-02  0.1167018E+00
         21   -1    0    0  503  502  0.00000000000E+00  0.00000000000E+00  0.54361777819E+02  0.54361777819E+02  0.00000000000E+00 0.  1.
         21   -1    0    0  501  503 -0.00000000000E+00 -0.00000000000E+00 -0.60436216775E+03  0.60436216775E+03  0.00000000000E+00 0. -1.
          6    1    1    2  501    0 -0.12575159861E+02  0.54328158546E+02 -0.29802205686E+03  0.34858403554E+03  0.17200000000E+03 0.  1.
         -6    1    1    2    0  502  0.12575159861E+02 -0.54328158546E+02 -0.25197833307E+03  0.31013991003E+03  0.17200000000E+03 0.  1.
<mgrwt>
<rscale>  2 0.18081395E+03</rscale>
<asrwt>0</asrwt>
<pdfrwt beam="1">  1       21 0.13590444E-01 0.18081395E+03</pdfrwt>
<pdfrwt beam="2">  1       21 0.15109054E+00 0.18081395E+03</pdfrwt>
<totfact> 0.13877298E+04</totfact>
</mgrwt>
</event>
<event>
 4    1  0.1091654E+000  0.2291463E+03  0.7546771E-02  0.1127242E+00
         21   -1    0    0  501  502  0.00000000000E+00  0.00000000000E+00  0.10253195102E+03  0.10253195102E+03  0.00000000000E+00 0. -1.
         21   -1    0    0  502  503 -0.00000000000E+00 -0.00000000000E+00 -0.61267582385E+03  0.61267582385E+03  0.00000000000E+00 0. -1.
          6    1    1    2  501    0 -0.67789717996E+02 -0.13538303541E+03 -0.11019335790E+03  0.25426479951E+03  0.17200000000E+03 0. -1.
         -6    1    1    2    0  503  0.67789717996E+02  0.13538303541E+03 -0.39995051493E+03  0.46094297536E+03  0.17200000000E+03 0. -1.
<mgrwt>
<rscale>  2 0.22914627E+03</rscale>
<asrwt>0</asrwt>
<pdfrwt beam="1">  1       21 0.25632988E-01 0.22914627E+03</pdfrwt>
<pdfrwt beam="2">  1       21 0.15316895E+00 0.22914627E+03</pdfrwt>
<totfact> 0.39630790E+03</totfact>
</mgrwt>
</event>
<event>
 4    1  0.1091654E+000  0.1981734E+03  0.7546771E-02  0.1151289E+00
         21   -1    0    0  503  502  0.00000000000E+00  0.00000000000E+00  0.22751495978E+03  0.22751495978E+03  0.00000000000E+00 0. -1.
         21   -1    0    0  501  503 -0.00000000000E+00 -0.00000000000E+00 -0.23747580873E+03  0.23747580873E+03  0.00000000000E+00 0. -1.
          6    1    1    2  501    0  0.68970972992E+02  0.70225982719E+02 -0.12648511578E+03  0.23509820986E+03  0.17200000000E+03 0. -1.
         -6    1    1    2    0  502 -0.68970972992E+02 -0.70225982719E+02  0.11652426683E+03  0.22989255865E+03  0.17200000000E+03 0. -1.
<mgrwt>
<rscale>  2 0.19817337E+03</rscale>
<asrwt>0</asrwt>
<pdfrwt beam="1">  1       21 0.56878740E-01 0.19817337E+03</pdfrwt>
<pdfrwt beam="2">  1       21 0.59368952E-01 0.19817337E+03</pdfrwt>
<totfact> 0.76685783E+03</totfact>
</mgrwt>
</event>
<event>
 4    1  0.1091654E+000  0.1846001E+03  0.7546771E-02  0.1163424E+00
         21   -1    0    0  501  502  0.00000000000E+00  0.00000000000E+00  0.19467539262E+03  0.19467539262E+03  0.00000000000E+00 0. -1.
         21   -1    0    0  502  503 -0.00000000000E+00 -0.00000000000E+00 -0.19307941284E+03  0.19307941284E+03  0.00000000000E+00 0. -1.
          6    1    1    2  501    0 -0.65953924104E+02  0.11969152784E+02  0.60049059535E+02  0.19412127723E+03  0.17200000000E+03 0. -1.
         -6    1    1    2    0  503  0.65953924104E+02 -0.11969152784E+02 -0.58453079751E+02  0.19363352823E+03  0.17200000000E+03 0. -1.
<mgrwt>
<rscale>  2 0.18460006E+03</rscale>
<asrwt>0</asrwt>
<pdfrwt beam="1">  1       21 0.48668848E-01 0.18460006E+03</pdfrwt>
<pdfrwt beam="2">  1       21 0.48269853E-01 0.18460006E+03</pdfrwt>
<totfact> 0.16607332E+04</totfact>
</mgrwt>
</event>
<event>
 4    1  0.1091654E+000  0.2336201E+03  0.7546771E-02  0.1124117E+00
         21   -1    0    0  503  502  0.00000000000E+00  0.00000000000E+00  0.11346252140E+03  0.11346252140E+03  0.00000000000E+00 0. -1.
         21   -1    0    0  501  503 -0.00000000000E+00 -0.00000000000E+00 -0.75226312842E+03  0.75226312842E+03  0.00000000000E+00 0.  1.
          6    1    1    2  501    0  0.15110761346E+03  0.46485044636E+02 -0.57932068847E+03  0.62465256768E+03  0.17200000000E+03 0.  1.
         -6    1    1    2    0  502 -0.15110761346E+03 -0.46485044636E+02 -0.59479918553E+02  0.24107308214E+03  0.17200000000E+03 0. -1.
<mgrwt>
<rscale>  2 0.23362014E+03</rscale>
<asrwt>0</asrwt>
<pdfrwt beam="1">  1       21 0.28365630E-01 0.23362014E+03</pdfrwt>
<pdfrwt beam="2">  1       21 0.18806578E+00 0.23362014E+03</pdfrwt>
<totfact> 0.18352556E+03</totfact>
</mgrwt>
</event>
<event>
 4    1  0.1091654E+000  0.1812613E+03  0.7546771E-02  0.1166588E+00
         21   -1    0    0  501  502  0.00000000000E+00  0.00000000000E+00  0.29683816879E+03  0.29683816879E+03  0.00000000000E+00 0.  1.
         21   -1    0    0  502  503 -0.00000000000E+00 -0.00000000000E+00 -0.15999511386E+03  0.15999511386E+03  0.00000000000E+00 0.  1.
          6    1    1    2  501    0 -0.53447023373E+02  0.20373432916E+02  0.19522772499E+03  0.26640106171E+03  0.17200000000E+03 0.  1.
         -6    1    1    2    0  503  0.53447023373E+02 -0.20373432916E+02 -0.58384670054E+02  0.19043222094E+03  0.17200000000E+03 0.  1.
<mgrwt>
<rscale>  2 0.18126131E+03</rscale>
<asrwt>0</asrwt>
<pdfrwt beam="1">  1       21 0.74209541E-01 0.18126131E+03</pdfrwt>
<pdfrwt beam="2">  1       21 0.39998779E-01 0.18126131E+03</pdfrwt>
<totfact> 0.98847271E+03</totfact>
</mgrwt>
</event>
<event>
 4    1  0.1091654E+000  0.2379783E+03  0.7546771E-02  0.1121147E+00
         21   -1    0    0  501  502  0.00000000000E+00  0.00000000000E+00  0.82012516310E+03  0.82012516310E+03  0.00000000000E+00 0.  1.
         21   -1    0    0  502  503 -0.00000000000E+00 -0.00000000000E+00 -0.85594942041E+02  0.85594942041E+02  0.00000000000E+00 0. -1.
          6    1    1    2  501    0 -0.15608869697E+03  0.51826757162E+02  0.56633599158E+03  0.61430460640E+03  0.17200000000E+03 0.  1.
         -6    1    1    2    0  503  0.15608869697E+03 -0.51826757162E+02  0.16819422948E+03  0.29141549874E+03  0.17200000000E+03 0. -1.
<mgrwt>
<rscale>  2 0.23797835E+03</rscale>
<asrwt>0</asrwt>
<pdfrwt beam="1">  1       21 0.20503127E+00 0.23797835E+03</pdfrwt>
<pdfrwt beam="2">  1       21 0.21398738E-01 0.23797835E+03</pdfrwt>
<totfact> 0.24302757E+03</totfact>
</mgrwt>
</event>
<event>
 4    1  0.1091654E+000  0.2220903E+03  0.7546771E-02  0.1132334E+00
         21   -1    0    0  501  502  0.00000000000E+00  0.00000000000E+00  0.43798472576E+03  0.43798472576E+03  0.00000000000E+00 0. -1.
         21   -1    0    0  502  503 -0.00000000000E+00 -0.00000000000E+00 -0.16384339930E+03  0.16384339930E+03  0.00000000000E+00 0.  1.
          6    1    1    2  501    0  0.29168584626E+02  0.13743834206E+03  0.30532993511E+03  0.37755856959E+03  0.17200000000E+03 0.  1.
         -6    1    1    2    0  503 -0.29168584626E+02 -0.13743834206E+03 -0.31188608660E+02  0.22426955546E+03  0.17200000000E+03 0. -1.
<mgrwt>
<rscale>  2 0.22209031E+03</rscale>
<asrwt>0</asrwt>
<pdfrwt beam="1">  1       21 0.10949618E+00 0.22209031E+03</pdfrwt>
<pdfrwt beam="2">  1       21 0.40960851E-01 0.22209031E+03</pdfrwt>
<totfact> 0.37028285E+03</totfact>
</mgrwt>
</event>
<event>
 4    1  0.1091654E+000  0.1847933E+03  0.7546771E-02  0.1163243E+00
         21   -1    0    0  501  502  0.00000000000E+00  0.00000000000E+00  0.10399803389E+04  0.10399803389E+04  0.00000000000E+00 0. -1.
         21   -1    0    0  502  503 -0.00000000000E+00 -0.00000000000E+00 -0.33519375885E+02  0.33519375885E+02  0.00000000000E+00 0. -1.
          6    1    1    2  501    0 -0.48721533366E+02  0.46805764837E+02  0.57988241935E+03  0.60861497493E+03  0.17200000000E+03 0. -1.
         -6    1    1    2    0  503  0.48721533366E+02 -0.46805764837E+02  0.42657854364E+03  0.46488473984E+03  0.17200000000E+03 0. -1.
<mgrwt>
<rscale>  2 0.18479331E+03</rscale>
<asrwt>0</asrwt>
<pdfrwt beam="1">  1       21 0.25999498E+00 0.18479331E+03</pdfrwt>
<pdfrwt beam="2">  1       21 0.83798474E-02 0.18479331E+03</pdfrwt>
<totfact> 0.64852142E+03</totfact>
</mgrwt>
</event>
<event>
 4    1  0.1091654E+000  0.2104284E+03  0.7546771E-02  0.1141227E+00
         21   -1    0    0  503  502  0.00000000000E+00  0.00000000000E+00  0.28763508161E+03  0.28763508161E+03  0.00000000000E+00 0.  1.
         21   -1    0    0  501  503 -0.00000000000E+00 -0.00000000000E+00 -0.80453681310E+03  0.80453681310E+03  0.00000000000E+00 0.  1.
          6    1    1    2  501    0 -0.78843092949E+02 -0.92086334680E+02 -0.74951947174E+03  0.77849827544E+03  0.17200000000E+03 0.  1.
         -6    1    1    2    0  502  0.78843092949E+02  0.92086334680E+02  0.23261774026E+03  0.31367361927E+03  0.17200000000E+03 0.  1.
<mgrwt>
<rscale>  2 0.21042844E+03</rscale>
<asrwt>0</asrwt>
<pdfrwt beam="1">  1       21 0.71908771E-01 0.21042844E+03</pdfrwt>
<pdfrwt beam="2">  1       21 0.20113420E+00 0.21042844E+03</pdfrwt>
<totfact> 0.22533961E+02</totfact>
</mgrwt>
</event>
<event>
 4    1  0.1091654E+000  0.1882192E+03  0.7546771E-02  0.1160077E+00
         21   -1    0    0  503  502  0.00000000000E+00  0.00000000000E+00  0.87449077996E+02  0.87449077996E+02  0.00000000000E+00 0.  1.
         21   -1    0    0  501  503 -0.00000000000E+00 -0.00000000000E+00 -0.40514776412E+03  0.40514776412E+03  0.00000000000E+00 0.  1.
          6    1    1    2  501    0 -0.44618448558E+02  0.62061820935E+02 -0.15646409798E+03  0.24476006522E+03  0.17200000000E+03 0.  1.
         -6    1    1    2    0  502  0.44618448558E+02 -0.62061820935E+02 -0.16123458815E+03  0.24783677690E+03  0.17200000000E+03 0.  1.
<mgrwt>
<rscale>  2 0.18821922E+03</rscale>
<asrwt>0</asrwt>
<pdfrwt beam="1">  1       21 0.21862270E-01 0.18821922E+03</pdfrwt>
<pdfrwt beam="2">  1       21 0.10128694E+00 0.18821922E+03</pdfrwt>
<totfact> 0.15599796E+04</totfact>
</mgrwt>
</event>
<event>
 4    1  0.1091654E+000  0.2105005E+03  0.7546771E-02  0.1141170E+00
         21   -1    0    0  501  502  0.00000000000E+00  0.00000000000E+00  0.85908086532E+02  0.85908086532E+02  0.00000000000E+00 0. -1.
         21   -1    0    0  502  503 -0.00000000000E+00 -0.00000000000E+00 -0.16888005986E+04  0.16888005986E+04  0.00000000000E+00 0. -1.
          6    1    1    2  501    0  0.39810371230E+02 -0.11463677831E+03 -0.61910762800E+02  0.21941604123E+03  0.17200000000E+03 0. -1.
         -6    1    1    2    0  503 -0.39810371230E+02  0.11463677831E+03 -0.15409817493E+04  0.15552926439E+04  0.17200000000E+03 0. -1.
<mgrwt>
<rscale>  2 0.21050049E+03</rscale>
<asrwt>0</asrwt>
<pdfrwt beam="1">  1       21 0.21477021E-01 0.21050049E+03</pdfrwt>
<pdfrwt beam="2">  1       21 0.42220015E+00 0.21050049E+03</pdfrwt>
<totfact> 0.12357956E+02</totfact>
</mgrwt>
</event>
<event>
 4    1  0.1091654E+000  0.2485940E+03  0.7546771E-02  0.1114197E+00
         21   -1    0    0  501  502  0.00000000000E+00  0.00000000000E+00  0.70699679751E+03  0.70699679751E+03  0.00000000000E+00 0.  1.
         21   -1    0    0  502  503 -0.00000000000E+00 -0.00000000000E+00 -0.47213722827E+03  0.47213722827E+03  0.00000000000E+00 0. -1.
          6    1    1    2  501    0 -0.17388858967E+03  0.44471616479E+02  0.64963020660E+03  0.69557053676E+03  0.17200000000E+03 0.  1.
         -6    1    1    2    0  503  0.17388858967E+03 -0.44471616479E+02 -0.41477063737E+03  0.48356348902E+03  0.17200000000E+03 0. -1.
<mgrwt>
<rscale>  2 0.24859398E+03</rscale>
<asrwt>0</asrwt>
<pdfrwt beam="1">  1       21 0.17674920E+00 0.24859398E+03</pdfrwt>
<pdfrwt beam="2">  1       21 0.11803431E+00 0.24859398E+03</pdfrwt>
<totfact> 0.98222532E+01</totfact>
</mgrwt>
</event>
<event>
 4    1  0.1091654E+000  0.2373151E+03  0.7546771E-02  0.1121594E+00
         21   -1    0    0  503  502  0.00000000000E+00  0.00000000000E+00  0.20322045609E+03  0.20322045609E+03  0.00000000000E+00 0. -1.
         21   -1    0    0  501  503 -0.00000000000E+00 -0.00000000000E+00 -0.32449154083E+03  0.32449154083E+03  0.00000000000E+00 0.  1.
          6    1    1    2  501    0 -0.12343239232E+03  0.10723282396E+03 -0.16143990868E+03  0.28702138966E+03  0.17200000000E+03 0.  1.
         -6    1    1    2    0  502  0.12343239232E+03 -0.10723282396E+03  0.40168823934E+02  0.24069060726E+03  0.17200000000E+03 0. -1.
<mgrwt>
<rscale>  2 0.23731505E+03</rscale>
<asrwt>0</asrwt>
<pdfrwt beam="1">  1       21 0.50805115E-01 0.23731505E+03</pdfrwt>
<pdfrwt beam="2">  1       21 0.81122884E-01 0.23731505E+03</pdfrwt>
<totfact> 0.47533918E+03</totfact>
</mgrwt>
</event>
<event>
 4    1  0.1091654E+000  0.1769438E+03  0.7546771E-02  0.1170794E+00
         21   -1    0    0  503  502  0.00000000000E+00  0.00000000000E+00  0.51692891074E+02  0.51692891074E+02  0.00000000000E+00 0.  1.
         21   -1    0    0  501  503 -0.00000000000E+00 -0.00000000000E+00 -0.11840139137E+04  0.11840139137E+04  0.00000000000E+00 0.  1.
          6    1    1    2  501    0  0.38713406999E+02 -0.15045905278E+02 -0.99797592019E+03  0.10135408450E+04  0.17200000000E+03 0.  1.
         -6    1    1    2    0  502 -0.38713406999E+02  0.15045905278E+02 -0.13434510244E+03  0.22216595981E+03  0.17200000000E+03 0.  1.
<mgrwt>
<rscale>  2 0.17694380E+03</rscale>
<asrwt>0</asrwt>
<pdfrwt beam="1">  1       21 0.12923222E-01 0.17694380E+03</pdfrwt>
<pdfrwt beam="2">  1       21 0.29600349E+00 0.17694380E+03</pdfrwt>
<totfact> 0.18879055E+03</totfact>
</mgrwt>
</event>
<event>
 4    1  0.1091654E+000  0.3823723E+03  0.7546771E-02  0.1050060E+00
         21   -1    0    0  503  502  0.00000000000E+00  0.00000000000E+00  0.85361634651E+03  0.85361634651E+03  0.00000000000E+00 0.  1.
         21   -1    0    0  501  503 -0.00000000000E+00 -0.00000000000E+00 -0.17953311586E+03  0.17953311586E+03  0.00000000000E+00 0.  1.
          6    1    1    2  501    0 -0.33700334174E+03 -0.55257001749E+02  0.44778899206E+03  0.58883237852E+03  0.17200000000E+03 0.  1.
         -6    1    1    2    0  502  0.33700334174E+03  0.55257001749E+02  0.22629423859E+03  0.44431708386E+03  0.17200000000E+03 0.  1.
<mgrwt>
<rscale>  2 0.38237232E+03</rscale>
<asrwt>0</asrwt>
<pdfrwt beam="1">  1       21 0.21340408E+00 0.38237232E+03</pdfrwt>
<pdfrwt beam="2">  1       21 0.44883281E-01 0.38237232E+03</pdfrwt>
<totfact> 0.44696250E+02</totfact>
</mgrwt>
</event>
<event>
 4    1  0.1091654E+000  0.1892953E+03  0.7546771E-02  0.1159098E+00
         21   -1    0    0  501  502  0.00000000000E+00  0.00000000000E+00  0.13381223877E+03  0.13381223877E+03  0.00000000000E+00 0.  1.
         21   -1    0    0  502  503 -0.00000000000E+00 -0.00000000000E+00 -0.30335080312E+03  0.30335080312E+03  0.00000000000E+00 0.  1.
          6    1    1    2  501    0 -0.79016593168E+02  0.22554469884E+01 -0.99236665854E+01  0.18955523785E+03  0.17200000000E+03 0.  1.
         -6    1    1    2    0  503  0.79016593168E+02 -0.22554469884E+01 -0.15961489776E+03  0.24760780404E+03  0.17200000000E+03 0.  1.
<mgrwt>
<rscale>  2 0.18929530E+03</rscale>
<asrwt>0</asrwt>
<pdfrwt beam="1">  1       21 0.33453060E-01 0.18929530E+03</pdfrwt>
<pdfrwt beam="2">  1       21 0.75837700E-01 0.18929530E+03</pdfrwt>
<totfact> 0.13376808E+04</totfact>
</mgrwt>
</event>
<event>
 4    1  0.1091654E+000  0.1968464E+03  0.7546771E-02  0.1152427E+00
         21   -1    0    0  501  502  0.00000000000E+00  0.00000000000E+00  0.91911482648E+02  0.91911482648E+02  0.00000000000E+00 0. -1.
         21   -1    0    0  502  503 -0.00000000000E+00 -0.00000000000E+00 -0.83229768347E+03  0.83229768347E+03  0.00000000000E+00 0. -1.
          6    1    1    2  501    0  0.26196187028E+02 -0.92077582086E+02 -0.45577130748E+02  0.20205394375E+03  0.17200000000E+03 0. -1.
         -6    1    1    2    0  503 -0.26196187028E+02  0.92077582086E+02 -0.69480907007E+03  0.72215522237E+03  0.17200000000E+03 0. -1.
<mgrwt>
<rscale>  2 0.19684644E+03</rscale>
<asrwt>0</asrwt>
<pdfrwt beam="1">  1       21 0.22977871E-01 0.19684644E+03</pdfrwt>
<pdfrwt beam="2">  1       21 0.20807442E+00 0.19684644E+03</pdfrwt>
<totfact> 0.21122261E+03</totfact>
</mgrwt>
</event>
<event>
 4    1  0.1091654E+000  0.2003903E+03  0.7546771E-02  0.1149410E+00
         21   -1    0    0  501  502  0.00000000000E+00  0.00000000000E+00  0.91840001344E+03  0.91840001344E+03  0.00000000000E+00 0.  1.
         21   -1    0    0  502  503 -0.00000000000E+00 -0.00000000000E+00 -0.45211088455E+02  0.45211088455E+02  0.00000000000E+00 0.  1.
          6    1    1    2  501    0 -0.70194492019E+02  0.75133240378E+02  0.52397085970E+03  0.56098282713E+03  0.17200000000E+03 0.  1.
         -6    1    1    2    0  503  0.70194492019E+02 -0.75133240378E+02  0.34921806528E+03  0.40262827477E+03  0.17200000000E+03 0.  1.
<mgrwt>
<rscale>  2 0.20039030E+03</rscale>
<asrwt>0</asrwt>
<pdfrwt beam="1">  1       21 0.22959994E+00 0.20039030E+03</pdfrwt>
<pdfrwt beam="2">  1       21 0.11302775E-01 0.20039030E+03</pdfrwt>
<totfact> 0.56998889E+03</totfact>
</mgrwt>
</event>
<event>
 4    1  0.1091654E+000  0.2412148E+03  0.7546771E-02  0.1118986E+00
         21   -1    0    0  501  502  0.00000000000E+00  0.00000000000E+00  0.86329945581E+03  0.86329945581E+03  0.00000000000E+00 0. -1.
         21   -1    0    0  502  503 -0.00000000000E+00 -0.00000000000E+00 -0.67408981776E+02  0.67408981776E+02  0.00000000000E+00 0. -1.
          6    1    1    2  501    0  0.13448126207E+03 -0.10254449899E+03  0.39198288433E+03  0.46025554394E+03  0.17200000000E+03 0.  1.
         -6    1    1    2    0  503 -0.13448126207E+03  0.10254449899E+03  0.40390758971E+03  0.47045289365E+03  0.17200000000E+03 0.  1.
<mgrwt>
<rscale>  2 0.24121481E+03</rscale>
<asrwt>0</asrwt>
<pdfrwt beam="1">  1       21 0.21582483E+00 0.24121481E+03</pdfrwt>
<pdfrwt beam="2">  1       21 0.16852248E-01 0.24121481E+03</pdfrwt>
<totfact> 0.32357913E+03</totfact>
</mgrwt>
</event>
<event>
 4    1  0.1091654E+000  0.1817374E+03  0.7546771E-02  0.1166132E+00
         21   -1    0    0  503  502  0.00000000000E+00  0.00000000000E+00  0.10614200558E+04  0.10614200558E+04  0.00000000000E+00 0.  1.
         21   -1    0    0  501  503 -0.00000000000E+00 -0.00000000000E+00 -0.32889094311E+02  0.32889094311E+02  0.00000000000E+00 0.  1.
          6    1    1    2  501    0  0.55643061772E+02 -0.18663955258E+02  0.38726817393E+03  0.42779099112E+03  0.17200000000E+03 0.  1.
         -6    1    1    2    0  502 -0.55643061772E+02  0.18663955258E+02  0.64126278757E+03  0.66651815899E+03  0.17200000000E+03 0.  1.
<mgrwt>
<rscale>  2 0.18173743E+03</rscale>
<asrwt>0</asrwt>
<pdfrwt beam="1">  1       21 0.26535490E+00 0.18173743E+03</pdfrwt>
<pdfrwt beam="2">  1       21 0.82222771E-02 0.18173743E+03</pdfrwt>
<totfact> 0.62611549E+03</totfact>
</mgrwt>
</event>
<event>
 4    1  0.1091654E+000  0.2290139E+03  0.7546771E-02  0.1127336E+00
         21   -1    0    0  503  502  0.00000000000E+00  0.00000000000E+00  0.47649842178E+03  0.47649842178E+03  0.00000000000E+00 0. -1.
         21   -1    0    0  501  503 -0.00000000000E+00 -0.00000000000E+00 -0.34904861049E+03  0.34904861049E+03  0.00000000000E+00 0.  1.
          6    1    1    2  501    0 -0.13213185183E+03  0.73515641730E+02 -0.27782165772E+03  0.36004478797E+03  0.17200000000E+03 0.  1.
         -6    1    1    2    0  502  0.13213185183E+03 -0.73515641730E+02  0.40527146902E+03  0.46550224430E+03  0.17200000000E+03 0. -1.
<mgrwt>
<rscale>  2 0.22901392E+03</rscale>
<asrwt>0</asrwt>
<pdfrwt beam="1">  1       21 0.11912461E+00 0.22901392E+03</pdfrwt>
<pdfrwt beam="2">  1       21 0.87262153E-01 0.22901392E+03</pdfrwt>
<totfact> 0.58454943E+02</totfact>
</mgrwt>
</event>
<event>
 4    1  0.1091654E+000  0.1798631E+03  0.7546771E-02  0.1167936E+00
         21   -1    0    0  503  502  0.00000000000E+00  0.00000000000E+00  0.44386672623E+03  0.44386672623E+03  0.00000000000E+00 0. -1.
         21   -1    0    0  501  503 -0.00000000000E+00 -0.00000000000E+00 -0.90114790720E+02  0.90114790720E+02  0.00000000000E+00 0. -1.
          6    1    1    2  501    0 -0.20522094834E+02 -0.48431300862E+02  0.60127337762E+02  0.18964715665E+03  0.17200000000E+03 0. -1.
         -6    1    1    2    0  502  0.20522094834E+02  0.48431300862E+02  0.29362459775E+03  0.34433436030E+03  0.17200000000E+03 0. -1.
<mgrwt>
<rscale>  2 0.17986313E+03</rscale>
<asrwt>0</asrwt>
<pdfrwt beam="1">  1       21 0.11096668E+00 0.17986313E+03</pdfrwt>
<pdfrwt beam="2">  1       21 0.22528699E-01 0.17986313E+03</pdfrwt>
<totfact> 0.11907566E+04</totfact>
</mgrwt>
</event>
<event>
 4    1  0.1091654E+000  0.1770430E+03  0.7546771E-02  0.1170696E+00
         21   -1    0    0  503  502  0.00000000000E+00  0.00000000000E+00  0.32459748498E+03  0.32459748498E+03  0.00000000000E+00 0.  1.
         21   -1    0    0  501  503 -0.00000000000E+00 -0.00000000000E+00 -0.16238836610E+03  0.16238836610E+03  0.00000000000E+00 0.  1.
          6    1    1    2  501    0  0.32984205570E+02  0.25928224796E+02 -0.73921345788E+02  0.19185566455E+03  0.17200000000E+03 0.  1.
         -6    1    1    2    0  502 -0.32984205570E+02 -0.25928224796E+02  0.23613046467E+03  0.29513018653E+03  0.17200000000E+03 0.  1.
<mgrwt>
<rscale>  2 0.17704302E+03</rscale>
<asrwt>0</asrwt>
<pdfrwt beam="1">  1       21 0.81149370E-01 0.17704302E+03</pdfrwt>
<pdfrwt beam="2">  1       21 0.40597092E-01 0.17704302E+03</pdfrwt>
<totfact> 0.78745922E+03</totfact>
</mgrwt>
</event>
<event>
 4    1  0.1091654E+000  0.1786275E+03  0.7546771E-02  0.1169138E+00
         21   -1    0    0  501  502  0.00000000000E+00  0.00000000000E+00  0.12124533583E+03  0.12124533583E+03  0.00000000000E+00 0. -1.
         21   -1    0    0  502  503 -0.00000000000E+00 -0.00000000000E+00 -0.38375983688E+03  0.38375983688E+03  0.00000000000E+00 0. -1.
          6    1    1    2  501    0 -0.47147326952E+02  0.10044945812E+02  0.10288496632E+02  0.17892351589E+03  0.17200000000E+03 0. -1.
         -6    1    1    2    0  503  0.47147326952E+02 -0.10044945812E+02 -0.27280299768E+03  0.32608165682E+03  0.17200000000E+03 0. -1.
<mgrwt>
<rscale>  2 0.17862747E+03</rscale>
<asrwt>0</asrwt>
<pdfrwt beam="1">  1       21 0.30311334E-01 0.17862747E+03</pdfrwt>
<pdfrwt beam="2">  1       21 0.95939958E-01 0.17862747E+03</pdfrwt>
<totfact> 0.95494882E+03</totfact>
</mgrwt>
</event>
<event>
 4    1  0.1091654E+000  0.2298159E+03  0.7546771E-02  0.1126769E+00
         21   -1    0    0  503  502  0.00000000000E+00  0.00000000000E+00  0.32736971187E+03  0.32736971187E+03  0.00000000000E+00 0. -1.
         21   -1    0    0  501  503 -0.00000000000E+00 -0.00000000000E+00 -0.30945507875E+03  0.30945507875E+03  0.00000000000E+00 0. -1.
          6    1    1    2  501    0 -0.12862867837E+03  0.81768061123E+02 -0.21133628647E+03  0.31221527621E+03  0.17200000000E+03 0. -1.
         -6    1    1    2    0  502  0.12862867837E+03 -0.81768061123E+02  0.22925091959E+03  0.32460951442E+03  0.17200000000E+03 0. -1.
<mgrwt>
<rscale>  2 0.22981591E+03</rscale>
<asrwt>0</asrwt>
<pdfrwt beam="1">  1       21 0.81842428E-01 0.22981591E+03</pdfrwt>
<pdfrwt beam="2">  1       21 0.77363770E-01 0.22981591E+03</pdfrwt>
<totfact> 0.18764832E+03</totfact>
</mgrwt>
</event>
<event>
 4    1  0.1091654E+000  0.1931347E+03  0.7546771E-02  0.1155664E+00
         21   -1    0    0  503  502  0.00000000000E+00  0.00000000000E+00  0.91923229985E+03  0.91923229985E+03  0.00000000000E+00 0.  1.
         21   -1    0    0  501  503 -0.00000000000E+00 -0.00000000000E+00 -0.55764915110E+02  0.55764915110E+02  0.00000000000E+00 0.  1.
          6    1    1    2  501    0  0.53328130073E+02  0.69807867271E+02  0.17733134525E+03  0.26219731844E+03  0.17200000000E+03 0.  1.
         -6    1    1    2    0  502 -0.53328130073E+02 -0.69807867271E+02  0.68613603949E+03  0.71279989652E+03  0.17200000000E+03 0.  1.
<mgrwt>
<rscale>  2 0.19313474E+03</rscale>
<asrwt>0</asrwt>
<pdfrwt beam="1">  1       21 0.22980803E+00 0.19313474E+03</pdfrwt>
<pdfrwt beam="2">  1       21 0.13941232E-01 0.19313474E+03</pdfrwt>
<totfact> 0.39269352E+03</totfact>
</mgrwt>
</event>
<event>
 4    1  0.1091654E+000  0.1921435E+03  0.7546771E-02  0.1156542E+00
         21   -1    0    0  501  502  0.00000000000E+00  0.00000000000E+00  0.40578480317E+03  0.40578480317E+03  0.00000000000E+00 0.  1.
         21   -1    0    0  502  503 -0.00000000000E+00 -0.00000000000E+00 -0.91058740945E+02  0.91058740945E+02  0.00000000000E+00 0.  1.
          6    1    1    2  501    0 -0.50150317773E+02 -0.69426759969E+02  0.15015315265E+03  0.24385466701E+03  0.17200000000E+03 0.  1.
         -6    1    1    2    0  503  0.50150317773E+02  0.69426759969E+02  0.16457290957E+03  0.25298887710E+03  0.17200000000E+03 0.  1.
<mgrwt>
<rscale>  2 0.19214351E+03</rscale>
<asrwt>0</asrwt>
<pdfrwt beam="1">  1       21 0.10144620E+00 0.19214351E+03</pdfrwt>
<pdfrwt beam="2">  1       21 0.22764686E-01 0.19214351E+03</pdfrwt>
<totfact> 0.14363315E+04</totfact>
</mgrwt>
</event>
<event>
 4    1  0.1091654E+000  0.1763248E+03  0.7546771E-02  0.1171408E+00
         21   -1    0    0  501  502  0.00000000000E+00  0.00000000000E+00  0.10779186389E+03  0.10779186389E+03  0.00000000000E+00 0.  1.
         21   -1    0    0  502  503 -0.00000000000E+00 -0.00000000000E+00 -0.45646635521E+03  0.45646635521E+03  0.00000000000E+00 0.  1.
          6    1    1    2  501    0  0.35978536969E+02 -0.14559510612E+02 -0.31604814164E+01  0.17635312051E+03  0.17200000000E+03 0.  1.
         -6    1    1    2    0  503 -0.35978536969E+02  0.14559510612E+02 -0.34551400990E+03  0.38790509859E+03  0.17200000000E+03 0.  1.
<mgrwt>
<rscale>  2 0.17632480E+03</rscale>
<asrwt>0</asrwt>
<pdfrwt beam="1">  1       21 0.26947967E-01 0.17632480E+03</pdfrwt>
<pdfrwt beam="2">  1       21 0.11411659E+00 0.17632480E+03</pdfrwt>
<totfact> 0.79343687E+03</totfact>
</mgrwt>
</event>
<event>
 4    1  0.1091654E+000  0.2018056E+03  0.7546771E-02  0.1148224E+00
         21   -1    0    0  503  502  0.00000000000E+00  0.00000000000E+00  0.56217028110E+02  0.56217028110E+02  0.00000000000E+00 0.  1.
         21   -1    0    0  501  503 -0.00000000000E+00 -0.00000000000E+00 -0.72487033756E+03  0.72487033756E+03  0.00000000000E+00 0. -1.
          6    1    1    2  501    0  0.84223060317E+02 -0.63623735015E+02 -0.34391302550E+03  0.39875013813E+03  0.17200000000E+03 0. -1.
         -6    1    1    2    0  502 -0.84223060317E+02  0.63623735015E+02 -0.32474028395E+03  0.38233722754E+03  0.17200000000E+03 0.  1.
<mgrwt>
<rscale>  2 0.20180561E+03</rscale>
<asrwt>0</asrwt>
<pdfrwt beam="1">  1       21 0.14054257E-01 0.20180561E+03</pdfrwt>
<pdfrwt beam="2">  1       21 0.18121759E+00 0.20180561E+03</pdfrwt>
<totfact> 0.78228208E+03</totfact>
</mgrwt>
</event>
<event>
 4    1  0.1091654E+000  0.1931043E+03  0.7546771E-02  0.1155691E+00
         21   -1    0    0  501  502  0.00000000000E+00  0.00000000000E+00  0.65240192516E+03  0.65240192516E+03  0.00000000000E+00 0. -1.
         21   -1    0    0  502  503 -0.00000000000E+00 -0.00000000000E+00 -0.14903553276E+03  0.14903553276E+03  0.00000000000E+00 0. -1.
          6    1    1    2  501    0 -0.50468429032E+02  0.71820771595E+02  0.56631450748E+03  0.59833218779E+03  0.17200000000E+03 0. -1.
         -6    1    1    2    0  503  0.50468429032E+02 -0.71820771595E+02 -0.62948115090E+02  0.20310527013E+03  0.17200000000E+03 0. -1.
<mgrwt>
<rscale>  2 0.19310434E+03</rscale>
<asrwt>0</asrwt>
<pdfrwt beam="1">  1       21 0.16310047E+00 0.19310434E+03</pdfrwt>
<pdfrwt beam="2">  1       21 0.37258885E-01 0.19310434E+03</pdfrwt>
<totfact> 0.16594585E+03</totfact>
</mgrwt>
</event>
<event>
 4    1  0.1091654E+000  0.2232283E+03  0.7546771E-02  0.1131499E+00
         21   -1    0    0  503  502  0.00000000000E+00  0.00000000000E+00  0.14680001854E+03  0.14680001854E+03  0.00000000000E+00 0.  1.
         21   -1    0    0  501  503 -0.00000000000E+00 -0.00000000000E+00 -0.43570792432E+03  0.43570792432E+03  0.00000000000E+00 0. -1.
          6    1    1    2  501    0  0.36319495368E+02 -0.13757826997E+03 -0.28135230331E+03  0.35915178503E+03  0.17200000000E+03 0. -1.
         -6    1    1    2    0  502 -0.36319495368E+02  0.13757826997E+03 -0.75556024641E+01  0.22335615783E+03  0.17200000000E+03 0.  1.
<mgrwt>
<rscale>  2 0.22322833E+03</rscale>
<asrwt>0</asrwt>
<pdfrwt beam="1">  1       21 0.36700005E-01 0.22322833E+03</pdfrwt>
<pdfrwt beam="2">  1       21 0.10892698E+00 0.22322833E+03</pdfrwt>
<totfact> 0.46768525E+03</totfact>
</mgrwt>
</event>
<event>
 4    1  0.1091654E+000  0.1798529E+03  0.7546771E-02  0.1167945E+00
         21   -1    0    0  503  502  0.00000000000E+00  0.00000000000E+00  0.37991807612E+03  0.37991807612E+03  0.00000000000E+00 0.  1.
         21   -1    0    0  501  503 -0.00000000000E+00 -0.00000000000E+00 -0.85219894719E+02  0.85219894719E+02  0.00000000000E+00 0.  1.
          6    1    1    2  501    0 -0.37699518140E+02  0.36630792429E+02  0.14032775636E+03  0.22812046779E+03  0.17200000000E+03 0. -1.
         -6    1    1    2    0  502  0.37699518140E+02 -0.36630792429E+02  0.15437042505E+03  0.23701750305E+03  0.17200000000E+03 0. -1.
<mgrwt>
<rscale>  2 0.17985291E+03</rscale>
<asrwt>0</asrwt>
<pdfrwt beam="1">  1       21 0.94979514E-01 0.17985291E+03</pdfrwt>
<pdfrwt beam="2">  1       21 0.21304975E-01 0.17985291E+03</pdfrwt>
<totfact> 0.19156319E+04</totfact>
</mgrwt>
</event>
<event>
 4    1  0.1091654E+000  0.1856728E+03  0.7546771E-02  0.1162423E+00
         21   -1    0    0  503  502  0.00000000000E+00  0.00000000000E+00  0.98973392557E+03  0.98973392557E+03  0.00000000000E+00 0.  1.
         21   -1    0    0  501  503 -0.00000000000E+00 -0.00000000000E+00 -0.36156158659E+02  0.36156158659E+02  0.00000000000E+00 0.  1.
          6    1    1    2  501    0 -0.65987989868E+02 -0.23150927824E+02  0.57495350146E+03  0.60419029213E+03  0.17200000000E+03 0. -1.
         -6    1    1    2    0  502  0.65987989868E+02  0.23150927824E+02  0.37862426545E+03  0.42169979210E+03  0.17200000000E+03 0. -1.
<mgrwt>
<rscale>  2 0.18567278E+03</rscale>
<asrwt>0</asrwt>
<pdfrwt beam="1">  1       21 0.24743339E+00 0.18567278E+03</pdfrwt>
<pdfrwt beam="2">  1       21 0.90390429E-02 0.18567278E+03</pdfrwt>
<totfact> 0.67217828E+03</totfact>
</mgrwt>
</event>
<event>
 4    1  0.1091654E+000  0.1797442E+03  0.7546771E-02  0.1168051E+00
         21   -1    0    0  501  502  0.00000000000E+00  0.00000000000E+00  0.18827855715E+03  0.18827855715E+03  0.00000000000E+00 0. -1.
         21   -1    0    0  502  503 -0.00000000000E+00 -0.00000000000E+00 -0.17167834073E+03  0.17167834073E+03  0.00000000000E+00 0. -1.
          6    1    1    2  501    0 -0.12351375705E+02 -0.50709345070E+02  0.12222971508E+02  0.18015936054E+03  0.17200000000E+03 0. -1.
         -6    1    1    2    0  503  0.12351375705E+02  0.50709345070E+02  0.43772449140E+01  0.17979753734E+03  0.17200000000E+03 0. -1.
<mgrwt>
<rscale>  2 0.17974425E+03</rscale>
<asrwt>0</asrwt>
<pdfrwt beam="1">  1       21 0.47069639E-01 0.17974425E+03</pdfrwt>
<pdfrwt beam="2">  1       21 0.42919585E-01 0.17974425E+03</pdfrwt>
<totfact> 0.22719483E+04</totfact>
</mgrwt>
</event>
<event>
 4    1  0.1091654E+000  0.1877032E+03  0.7546771E-02  0.1160549E+00
         21   -1    0    0  503  502  0.00000000000E+00  0.00000000000E+00  0.72427088625E+02  0.72427088625E+02  0.00000000000E+00 0. -1.
         21   -1    0    0  501  503 -0.00000000000E+00 -0.00000000000E+00 -0.48834706697E+03  0.48834706697E+03  0.00000000000E+00 0. -1.
          6    1    1    2  501    0  0.31214005797E+02  0.68367850033E+02 -0.22541535704E+03  0.29333353075E+03  0.17200000000E+03 0. -1.
         -6    1    1    2    0  502 -0.31214005797E+02 -0.68367850033E+02 -0.19050462131E+03  0.26744062484E+03  0.17200000000E+03 0. -1.
<mgrwt>
<rscale>  2 0.18770316E+03</rscale>
<asrwt>0</asrwt>
<pdfrwt beam="1">  1       21 0.18106773E-01 0.18770316E+03</pdfrwt>
<pdfrwt beam="2">  1       21 0.12208676E+00 0.18770316E+03</pdfrwt>
<totfact> 0.14097744E+04</totfact>
</mgrwt>
</event>
<event>
 4    1  0.1091654E+000  0.2281547E+03  0.7546771E-02  0.1127945E+00
         21   -1    0    0  503  502  0.00000000000E+00  0.00000000000E+00  0.12739179490E+03  0.12739179490E+03  0.00000000000E+00 0.  1.
         21   -1    0    0  501  503 -0.00000000000E+00 -0.00000000000E+00 -0.12581907573E+04  0.12581907573E+04  0.00000000000E+00 0.  1.
          6    1    1    2  501    0  0.14845068382E+03  0.20807903105E+02 -0.11346841210E+04  0.11573947593E+04  0.17200000000E+03 0.  1.
         -6    1    1    2    0  502 -0.14845068382E+03 -0.20807903105E+02  0.38851586540E+01  0.22818779287E+03  0.17200000000E+03 0.  1.
<mgrwt>
<rscale>  2 0.22815472E+03</rscale>
<asrwt>0</asrwt>
<pdfrwt beam="1">  1       21 0.31847948E-01 0.22815472E+03</pdfrwt>
<pdfrwt beam="2">  1       21 0.31454769E+00 0.22815472E+03</pdfrwt>
<totfact> 0.25349700E+02</totfact>
</mgrwt>
</event>
<event>
 4    1  0.1091654E+000  0.2220891E+03  0.7546771E-02  0.1132335E+00
         21   -1    0    0  501  502  0.00000000000E+00  0.00000000000E+00  0.22109805668E+03  0.22109805668E+03  0.00000000000E+00 0.  1.
         21   -1    0    0  502  503 -0.00000000000E+00 -0.00000000000E+00 -0.22308634037E+03  0.22308634037E+03  0.00000000000E+00 0.  1.
          6    1    1    2  501    0  0.94897249077E+02 -0.10360542379E+03 -0.37396889205E+00  0.22208942247E+03  0.17200000000E+03 0.  1.
         -6    1    1    2    0  503 -0.94897249077E+02  0.10360542379E+03 -0.16143148040E+01  0.22209497458E+03  0.17200000000E+03 0.  1.
<mgrwt>
<rscale>  2 0.22208911E+03</rscale>
<asrwt>0</asrwt>
<pdfrwt beam="1">  1       21 0.55274514E-01 0.22208911E+03</pdfrwt>
<pdfrwt beam="2">  1       21 0.55771585E-01 0.22208911E+03</pdfrwt>
<totfact> 0.91638280E+03</totfact>
</mgrwt>
</event>
<event>
 4    1  0.1091654E+000  0.3243432E+03  0.7546771E-02  0.1073668E+00
         21   -1    0    0  503  502  0.00000000000E+00  0.00000000000E+00  0.29601002174E+03  0.29601002174E+03  0.00000000000E+00 0. -1.
         21   -1    0    0  501  503 -0.00000000000E+00 -0.00000000000E+00 -0.86793920703E+03  0.86793920703E+03  0.00000000000E+00 0.  1.
          6    1    1    2  501    0 -0.25355681111E+03 -0.10641187126E+03 -0.73319139954E+03  0.80172824022E+03  0.17200000000E+03 0.  1.
         -6    1    1    2    0  502  0.25355681111E+03  0.10641187126E+03  0.16126221424E+03  0.36222098855E+03  0.17200000000E+03 0. -1.
<mgrwt>
<rscale>  2 0.32434325E+03</rscale>
<asrwt>0</asrwt>
<pdfrwt beam="1">  1       21 0.74002506E-01 0.32434325E+03</pdfrwt>
<pdfrwt beam="2">  1       21 0.21698480E+00 0.32434325E+03</pdfrwt>
<totfact> 0.14946447E+02</totfact>
</mgrwt>
</event>
<event>
 4    1  0.1091654E+000  0.1732405E+03  0.7546771E-02  0.1174510E+00
         21   -1    0    0  503  502  0.00000000000E+00  0.00000000000E+00  0.21483458860E+02  0.21483458860E+02  0.00000000000E+00 0. -1.
         21   -1    0    0  501  503 -0.00000000000E+00 -0.00000000000E+00 -0.20497834605E+04  0.20497834605E+04  0.00000000000E+00 0. -1.
          6    1    1    2  501    0 -0.18007249323E+02 -0.10199298453E+02 -0.15985877814E+04  0.16079475059E+04  0.17200000000E+03 0. -1.
         -6    1    1    2    0  502  0.18007249323E+02  0.10199298453E+02 -0.42971222027E+03  0.46331941355E+03  0.17200000000E+03 0. -1.
<mgrwt>
<rscale>  2 0.17324055E+03</rscale>
<asrwt>0</asrwt>
<pdfrwt beam="1">  1       21 0.53708649E-02 0.17324055E+03</pdfrwt>
<pdfrwt beam="2">  1       21 0.51244584E+00 0.17324055E+03</pdfrwt>
<totfact> 0.38119816E+02</totfact>
</mgrwt>
</event>
<event>
 4    1  0.1091654E+000  0.2268307E+03  0.7546771E-02  0.1128891E+00
         21   -1    0    0  503  502  0.00000000000E+00  0.00000000000E+00  0.29983268623E+03  0.29983268623E+03  0.00000000000E+00 0.  1.
         21   -1    0    0  501  503 -0.00000000000E+00 -0.00000000000E+00 -0.17713540917E+03  0.17713540917E+03  0.00000000000E+00 0. -1.
          6    1    1    2  501    0  0.10257324434E+03 -0.10652189426E+03  0.10349541050E+03  0.24932606042E+03  0.17200000000E+03 0.  1.
         -6    1    1    2    0  502 -0.10257324434E+03  0.10652189426E+03  0.19201866562E+02  0.22764203498E+03  0.17200000000E+03 0.  1.
<mgrwt>
<rscale>  2 0.22683074E+03</rscale>
<asrwt>0</asrwt>
<pdfrwt beam="1">  1       21 0.74958171E-01 0.22683074E+03</pdfrwt>
<pdfrwt beam="2">  1       21 0.44283853E-01 0.22683074E+03</pdfrwt>
<totfact> 0.76135824E+03</totfact>
</mgrwt>
</event>
<event>
 4    1  0.1091654E+000  0.1942281E+03  0.7546771E-02  0.1154702E+00
         21   -1    0    0  503  502  0.00000000000E+00  0.00000000000E+00  0.24378605131E+03  0.24378605131E+03  0.00000000000E+00 0.  1.
         21   -1    0    0  501  503 -0.00000000000E+00 -0.00000000000E+00 -0.16033650160E+03  0.16033650160E+03  0.00000000000E+00 0. -1.
          6    1    1    2  501    0 -0.93705467058E+01  0.89737066482E+02  0.39892051066E+01  0.19426904541E+03  0.17200000000E+03 0. -1.
         -6    1    1    2    0  502  0.93705467058E+01 -0.89737066482E+02  0.79460344605E+02  0.20985350750E+03  0.17200000000E+03 0.  1.
<mgrwt>
<rscale>  2 0.19422808E+03</rscale>
<asrwt>0</asrwt>
<pdfrwt beam="1">  1       21 0.60946512E-01 0.19422808E+03</pdfrwt>
<pdfrwt beam="2">  1       21 0.40084126E-01 0.19422808E+03</pdfrwt>
<totfact> 0.15013376E+04</totfact>
</mgrwt>
</event>
<event>
 4    1  0.1091654E+000  0.2131420E+03  0.7546771E-02  0.1139102E+00
         21   -1    0    0  501  502  0.00000000000E+00  0.00000000000E+00  0.15965082372E+04  0.15965082372E+04  0.00000000000E+00 0. -1.
         21   -1    0    0  502  503 -0.00000000000E+00 -0.00000000000E+00 -0.30137757540E+02  0.30137757540E+02  0.00000000000E+00 0. -1.
          6    1    1    2  501    0 -0.58662452571E+02  0.11137425516E+03  0.59103172350E+03  0.62828974704E+03  0.17200000000E+03 0. -1.
         -6    1    1    2    0  503  0.58662452571E+02 -0.11137425516E+03  0.97533875619E+03  0.99835624773E+03  0.17200000000E+03 0. -1.
<mgrwt>
<rscale>  2 0.21314199E+03</rscale>
<asrwt>0</asrwt>
<pdfrwt beam="1">  1       21 0.39912678E+00 0.21314199E+03</pdfrwt>
<pdfrwt beam="2">  1       21 0.75344447E-02 0.21314199E+03</pdfrwt>
<totfact> 0.11404217E+03</totfact>
</mgrwt>
</event>
<event>
 4    1  0.1091654E+000  0.2604909E+03  0.7546771E-02  0.1106849E+00
         21   -1    0    0  503  502  0.00000000000E+00  0.00000000000E+00  0.19355081637E+03  0.19355081637E+03  0.00000000000E+00 0.  1.
         21   -1    0    0  501  503 -0.00000000000E+00 -0.00000000000E+00 -0.43534504386E+03  0.43534504386E+03  0.00000000000E+00 0. -1.
          6    1    1    2  501    0 -0.41564098576E+02 -0.19116473492E+03 -0.25964740859E+03  0.36779383757E+03  0.17200000000E+03 0. -1.
         -6    1    1    2    0  502  0.41564098576E+02  0.19116473492E+03  0.17853181092E+02  0.26110202267E+03  0.17200000000E+03 0.  1.
<mgrwt>
<rscale>  2 0.26049094E+03</rscale>
<asrwt>0</asrwt>
<pdfrwt beam="1">  1       21 0.48387704E-01 0.26049094E+03</pdfrwt>
<pdfrwt beam="2">  1       21 0.10883626E+00 0.26049094E+03</pdfrwt>
<totfact> 0.25938773E+03</totfact>
</mgrwt>
</event>
<event>
 4    1  0.1091654E+000  0.1757426E+03  0.7546771E-02  0.1171988E+00
         21   -1    0    0  503  502  0.00000000000E+00  0.00000000000E+00  0.10434436637E+03  0.10434436637E+03  0.00000000000E+00 0.  1.
         21   -1    0    0  501  503 -0.00000000000E+00 -0.00000000000E+00 -0.11377929111E+04  0.11377929111E+04  0.00000000000E+00 0.  1.
          6    1    1    2  501    0 -0.15502571887E+01  0.36042474232E+02 -0.10509339852E+04  0.10655269610E+04  0.17200000000E+03 0.  1.
         -6    1    1    2    0  502  0.15502571887E+01 -0.36042474232E+02  0.17485440547E+02  0.17661031645E+03  0.17200000000E+03 0.  1.
<mgrwt>
<rscale>  2 0.17574261E+03</rscale>
<asrwt>0</asrwt>
<pdfrwt beam="1">  1       21 0.26086092E-01 0.17574261E+03</pdfrwt>
<pdfrwt beam="2">  1       21 0.28444822E+00 0.17574261E+03</pdfrwt>
<totfact> 0.60028801E+02</totfact>
</mgrwt>
</event>
<event>
 4    1  0.1091654E+000  0.1822516E+03  0.7546771E-02  0.1165642E+00
         21   -1    0    0  503  502  0.00000000000E+00  0.00000000000E+00  0.10763121250E+03  0.10763121250E+03  0.00000000000E+00 0.  1.
         21   -1    0    0  501  503 -0.00000000000E+00 -0.00000000000E+00 -0.36305242430E+03  0.36305242430E+03  0.00000000000E+00 0.  1.
          6    1    1    2  501    0  0.44466636175E+02  0.40674088455E+02 -0.36572881493E+02  0.18588501517E+03  0.17200000000E+03 0. -1.
         -6    1    1    2    0  502 -0.44466636175E+02 -0.40674088455E+02 -0.21884833030E+03  0.28479862163E+03  0.17200000000E+03 0. -1.
<mgrwt>
<rscale>  2 0.18225165E+03</rscale>
<asrwt>0</asrwt>
<pdfrwt beam="1">  1       21 0.26907803E-01 0.18225165E+03</pdfrwt>
<pdfrwt beam="2">  1       21 0.90763105E-01 0.18225165E+03</pdfrwt>
<totfact> 0.13646779E+04</totfact>
</mgrwt>
</event>
<event>
 4    1  0.1091654E+000  0.2087007E+03  0.7546771E-02  0.1142599E+00
         21   -1    0    0  501  502  0.00000000000E+00  0.00000000000E+00  0.56035825991E+03  0.56035825991E+03  0.00000000000E+00 0.  1.
         21   -1    0    0  502  503 -0.00000000000E+00 -0.00000000000E+00 -0.81003072634E+02  0.81003072634E+02  0.00000000000E+00 0.  1.
          6    1    1    2  501    0 -0.11775107890E+03  0.10328355452E+02  0.30415053881E+03  0.36886791913E+03  0.17200000000E+03 0.  1.
         -6    1    1    2    0  503  0.11775107890E+03 -0.10328355452E+02  0.17520464847E+03  0.27249341341E+03  0.17200000000E+03 0.  1.
<mgrwt>
<rscale>  2 0.20870072E+03</rscale>
<asrwt>0</asrwt>
<pdfrwt beam="1">  1       21 0.14008955E+00 0.20870072E+03</pdfrwt>
<pdfrwt beam="2">  1       21 0.20250770E-01 0.20870072E+03</pdfrwt>
<totfact> 0.79584322E+03</totfact>
</mgrwt>
</event>
<event>
 4    1  0.1091654E+000  0.2840686E+03  0.7546771E-02  0.1093487E+00
         21   -1    0    0  501  502  0.00000000000E+00  0.00000000000E+00  0.17604633346E+04  0.17604633346E+04  0.00000000000E+00 0.  1.
         21   -1    0    0  502  503 -0.00000000000E+00 -0.00000000000E+00 -0.52797836278E+02  0.52797836278E+02  0.00000000000E+00 0. -1.
          6    1    1    2  501    0 -0.21990394280E+03  0.52471220702E+02  0.11830193213E+04  0.12166469034E+04  0.17200000000E+03 0.  1.
         -6    1    1    2    0  503  0.21990394280E+03 -0.52471220702E+02  0.52464617706E+03  0.59661426748E+03  0.17200000000E+03 0.  1.
<mgrwt>
<rscale>  2 0.28406861E+03</rscale>
<asrwt>0</asrwt>
<pdfrwt beam="1">  1       21 0.44011564E+00 0.28406861E+03</pdfrwt>
<pdfrwt beam="2">  1       21 0.13199465E-01 0.28406861E+03</pdfrwt>
<totfact> 0.20966566E+02</totfact>
</mgrwt>
</event>
<event>
 4    1  0.1091654E+000  0.1897369E+03  0.7546771E-02  0.1158699E+00
         21   -1    0    0  503  502  0.00000000000E+00  0.00000000000E+00  0.14609016826E+03  0.14609016826E+03  0.00000000000E+00 0.  1.
         21   -1    0    0  501  503 -0.00000000000E+00 -0.00000000000E+00 -0.28916754617E+03  0.28916754617E+03  0.00000000000E+00 0.  1.
          6    1    1    2  501    0  0.79690412221E+02  0.80946601074E+01 -0.15521033517E+03  0.24513329734E+03  0.17200000000E+03 0.  1.
         -6    1    1    2    0  502 -0.79690412221E+02 -0.80946601074E+01  0.12132957263E+02  0.19012441709E+03  0.17200000000E+03 0.  1.
<mgrwt>
<rscale>  2 0.18973688E+03</rscale>
<asrwt>0</asrwt>
<pdfrwt beam="1">  1       21 0.36522542E-01 0.18973688E+03</pdfrwt>
<pdfrwt beam="2">  1       21 0.72291886E-01 0.18973688E+03</pdfrwt>
<totfact> 0.12499627E+04</totfact>
</mgrwt>
</event>
<event>
 4    1  0.1091654E+000  0.2252252E+03  0.7546771E-02  0.1130046E+00
         21   -1    0    0  503  502  0.00000000000E+00  0.00000000000E+00  0.43392256375E+03  0.43392256375E+03  0.00000000000E+00 0.  1.
         21   -1    0    0  501  503 -0.00000000000E+00 -0.00000000000E+00 -0.22344146677E+03  0.22344146677E+03  0.00000000000E+00 0.  1.
          6    1    1    2  501    0  0.13578588392E+03 -0.52005714059E+02 -0.12171948354E+03  0.25601178340E+03  0.17200000000E+03 0.  1.
         -6    1    1    2    0  502 -0.13578588392E+03  0.52005714059E+02  0.33220058052E+03  0.40135224712E+03  0.17200000000E+03 0.  1.
<mgrwt>
<rscale>  2 0.22522522E+03</rscale>
<asrwt>0</asrwt>
<pdfrwt beam="1">  1       21 0.10848064E+00 0.22522522E+03</pdfrwt>
<pdfrwt beam="2">  1       21 0.55860367E-01 0.22522522E+03</pdfrwt>
<totfact> 0.19816329E+03</totfact>
</mgrwt>
</event>
<event>
 4    1  0.1091654E+000  0.1743277E+03  0.7546771E-02  0.1173408E+00
         21   -1    0    0  501  502  0.00000000000E+00  0.00000000000E+00  0.31045291091E+03  0.31045291091E+03  0.00000000000E+00 0.  1.
         21   -1    0    0  502  503 -0.00000000000E+00 -0.00000000000E+00 -0.13859448902E+03  0.13859448902E+03  0.00000000000E+00 0. -1.
          6    1    1    2  501    0 -0.27227025853E+02  0.80515549912E+01 -0.35748779783E+02  0.17795537005E+03  0.17200000000E+03 0. -1.
         -6    1    1    2    0  503  0.27227025853E+02 -0.80515549912E+01  0.20760720168E+03  0.27109202988E+03  0.17200000000E+03 0.  1.
<mgrwt>
<rscale>  2 0.17432768E+03</rscale>
<asrwt>0</asrwt>
<pdfrwt beam="1">  1       21 0.77613226E-01 0.17432768E+03</pdfrwt>
<pdfrwt beam="2">  1       21 0.34648623E-01 0.17432768E+03</pdfrwt>
<totfact> 0.11970873E+04</totfact>
</mgrwt>
</event>
<event>
 4    1  0.1091654E+000  0.1833832E+03  0.7546771E-02  0.1164568E+00
         21   -1    0    0  503  502  0.00000000000E+00  0.00000000000E+00  0.27322211052E+02  0.27322211052E+02  0.00000000000E+00 0.  1.
         21   -1    0    0  501  503 -0.00000000000E+00 -0.00000000000E+00 -0.12354949664E+04  0.12354949664E+04  0.00000000000E+00 0.  1.
          6    1    1    2  501    0 -0.61046320326E+02  0.17852919956E+02 -0.64282648759E+03  0.66847234282E+03  0.17200000000E+03 0.  1.
         -6    1    1    2    0  502  0.61046320326E+02 -0.17852919956E+02 -0.56534626771E+03  0.59434483458E+03  0.17200000000E+03 0.  1.
<mgrwt>
<rscale>  2 0.18338315E+03</rscale>
<asrwt>0</asrwt>
<pdfrwt beam="1">  1       21 0.68305527E-02 0.18338315E+03</pdfrwt>
<pdfrwt beam="2">  1       21 0.30887374E+00 0.18338315E+03</pdfrwt>
<totfact> 0.48428297E+03</totfact>
</mgrwt>
</event>
<event>
 4    1  0.1091654E+000  0.3200196E+03  0.7546771E-02  0.1075640E+00
         21   -1    0    0  503  502  0.00000000000E+00  0.00000000000E+00  0.61251700894E+03  0.61251700894E+03  0.00000000000E+00 0. -1.
         21   -1    0    0  501  503 -0.00000000000E+00 -0.00000000000E+00 -0.22772945307E+03  0.22772945307E+03  0.00000000000E+00 0.  1.
          6    1    1    2  501    0 -0.21514891041E+03 -0.16290935971E+03  0.40899076313E+03  0.51931296677E+03  0.17200000000E+03 0. -1.
         -6    1    1    2    0  502  0.21514891041E+03  0.16290935971E+03 -0.24203207257E+02  0.32093349525E+03  0.17200000000E+03 0.  1.
<mgrwt>
<rscale>  2 0.32001955E+03</rscale>
<asrwt>0</asrwt>
<pdfrwt beam="1">  1       21 0.15312925E+00 0.32001955E+03</pdfrwt>
<pdfrwt beam="2">  1       21 0.56932364E-01 0.32001955E+03</pdfrwt>
<totfact> 0.73720892E+02</totfact>
</mgrwt>
</event>
<event>
 4    1  0.1091654E+000  0.1975304E+03  0.7546771E-02  0.1151839E+00
         21   -1    0    0  501  502  0.00000000000E+00  0.00000000000E+00  0.49341987595E+03  0.49341987595E+03  0.00000000000E+00 0.  1.
         21   -1    0    0  502  503 -0.00000000000E+00 -0.00000000000E+00 -0.12718297481E+03  0.12718297481E+03  0.00000000000E+00 0. -1.
          6    1    1    2  501    0 -0.34252016679E+02  0.90890470383E+02  0.37395771825E+03  0.42292156872E+03  0.17200000000E+03 0.  1.
         -6    1    1    2    0  503  0.34252016679E+02 -0.90890470383E+02 -0.77208171023E+01  0.19768128204E+03  0.17200000000E+03 0. -1.
<mgrwt>
<rscale>  2 0.19753045E+03</rscale>
<asrwt>0</asrwt>
<pdfrwt beam="1">  1       21 0.12335496E+00 0.19753045E+03</pdfrwt>
<pdfrwt beam="2">  1       21 0.31795745E-01 0.19753045E+03</pdfrwt>
<totfact> 0.46710444E+03</totfact>
</mgrwt>
</event>
<event>
 4    1  0.1091654E+000  0.3172625E+03  0.7546771E-02  0.1076916E+00
         21   -1    0    0  503  502  0.00000000000E+00  0.00000000000E+00  0.28064661747E+03  0.28064661747E+03  0.00000000000E+00 0.  1.
         21   -1    0    0  501  503 -0.00000000000E+00 -0.00000000000E+00 -0.35865796557E+03  0.35865796557E+03  0.00000000000E+00 0. -1.
          6    1    1    2  501    0 -0.24652047265E+03  0.10148467750E+03 -0.38186125283E+02  0.31955228581E+03  0.17200000000E+03 0. -1.
         -6    1    1    2    0  502  0.24652047265E+03 -0.10148467750E+03 -0.39825222820E+02  0.31975229722E+03  0.17200000000E+03 0.  1.
<mgrwt>
<rscale>  2 0.31726248E+03</rscale>
<asrwt>0</asrwt>
<pdfrwt beam="1">  1       21 0.70161655E-01 0.31726248E+03</pdfrwt>
<pdfrwt beam="2">  1       21 0.89664491E-01 0.31726248E+03</pdfrwt>
<totfact> 0.17861565E+03</totfact>
</mgrwt>
</event>
<event>
 4    1  0.1091654E+000  0.1885975E+03  0.7546771E-02  0.1159732E+00
         21   -1    0    0  503  502  0.00000000000E+00  0.00000000000E+00  0.17699786534E+03  0.17699786534E+03  0.00000000000E+00 0. -1.
         21   -1    0    0  501  503 -0.00000000000E+00 -0.00000000000E+00 -0.30761879236E+03  0.30761879236E+03  0.00000000000E+00 0.  1.
          6    1    1    2  501    0  0.65893390142E+02  0.40534885404E+02 -0.20799132013E+03  0.28076574764E+03  0.17200000000E+03 0.  1.
         -6    1    1    2    0  502 -0.65893390142E+02 -0.40534885404E+02  0.77370393113E+02  0.20385091005E+03  0.17200000000E+03 0. -1.
<mgrwt>
<rscale>  2 0.18859750E+03</rscale>
<asrwt>0</asrwt>
<pdfrwt beam="1">  1       21 0.44249466E-01 0.18859750E+03</pdfrwt>
<pdfrwt beam="2">  1       21 0.76904698E-01 0.18859750E+03</pdfrwt>
<totfact> 0.73948887E+03</totfact>
</mgrwt>
</event>
<event>
 4    1  0.1091654E+000  0.2032546E+03  0.7546771E-02  0.1147022E+00
         21   -1    0    0  501  502  0.00000000000E+00  0.00000000000E+00  0.34849934066E+02  0.34849934066E+02  0.00000000000E+00 0. -1.
         21   -1    0    0  502  503 -0.00000000000E+00 -0.00000000000E+00 -0.12130962271E+04  0.12130962271E+04  0.00000000000E+00 0. -1.
          6    1    1    2  501    0 -0.88276179503E+02 -0.62735565157E+02 -0.68334044619E+03  0.71292818741E+03  0.17200000000E+03 0. -1.
         -6    1    1    2    0  503  0.88276179503E+02  0.62735565157E+02 -0.49490584684E+03  0.53501797376E+03  0.17200000000E+03 0. -1.
<mgrwt>
<rscale>  2 0.20325461E+03</rscale>
<asrwt>0</asrwt>
<pdfrwt beam="1">  1       21 0.87124836E-02 0.20325461E+03</pdfrwt>
<pdfrwt beam="2">  1       21 0.30327405E+00 0.20325461E+03</pdfrwt>
<totfact> 0.33375327E+03</totfact>
</mgrwt>
</event>
<event>
 4    1  0.1091654E+000  0.2451852E+03  0.7546771E-02  0.1116386E+00
         21   -1    0    0  503  502  0.00000000000E+00  0.00000000000E+00  0.23491289270E+03  0.23491289270E+03  0.00000000000E+00 0.  1.
         21   -1    0    0  501  503 -0.00000000000E+00 -0.00000000000E+00 -0.34394752844E+03  0.34394752844E+03  0.00000000000E+00 0. -1.
          6    1    1    2  501    0  0.17261314474E+03  0.27138585716E+02 -0.20095054767E+03  0.31701249688E+03  0.17200000000E+03 0. -1.
         -6    1    1    2    0  502 -0.17261314474E+03 -0.27138585716E+02  0.91915911928E+02  0.26184792425E+03  0.17200000000E+03 0.  1.
<mgrwt>
<rscale>  2 0.24518524E+03</rscale>
<asrwt>0</asrwt>
<pdfrwt beam="1">  1       21 0.58728224E-01 0.24518524E+03</pdfrwt>
<pdfrwt beam="2">  1       21 0.85986881E-01 0.24518524E+03</pdfrwt>
<totfact> 0.30403189E+03</totfact>
</mgrwt>
</event>
<event>
 4    1  0.1091654E+000  0.2260119E+03  0.7546771E-02  0.1129479E+00
         21   -1    0    0  501  502  0.00000000000E+00  0.00000000000E+00  0.85854556116E+03  0.85854556116E+03  0.00000000000E+00 0.  1.
         21   -1    0    0  502  503 -0.00000000000E+00 -0.00000000000E+00 -0.59607317369E+02  0.59607317369E+02  0.00000000000E+00 0.  1.
          6    1    1    2  501    0 -0.14450794654E+03  0.24795532737E+02  0.37976966195E+03  0.44193479292E+03  0.17200000000E+03 0. -1.
         -6    1    1    2    0  503  0.14450794654E+03 -0.24795532737E+02  0.41916858184E+03  0.47621808561E+03  0.17200000000E+03 0. -1.
<mgrwt>
<rscale>  2 0.22601187E+03</rscale>
<asrwt>0</asrwt>
<pdfrwt beam="1">  1       21 0.21463635E+00 0.22601187E+03</pdfrwt>
<pdfrwt beam="2">  1       21 0.14901832E-01 0.22601187E+03</pdfrwt>
<totfact> 0.41792205E+03</totfact>
</mgrwt>
</event>
<event>
 4    1  0.1091654E+000  0.1989900E+03  0.7546771E-02  0.1150594E+00
         21   -1    0    0  503  502  0.00000000000E+00  0.00000000000E+00  0.10272482775E+03  0.10272482775E+03  0.00000000000E+00 0.  1.
         21   -1    0    0  501  503 -0.00000000000E+00 -0.00000000000E+00 -0.39436941779E+03  0.39436941779E+03  0.00000000000E+00 0.  1.
          6    1    1    2  501    0  0.60118116357E+02  0.79992676078E+02 -0.10847882404E+03  0.22663775371E+03  0.17200000000E+03 0.  1.
         -6    1    1    2    0  502 -0.60118116357E+02 -0.79992676078E+02 -0.18316576600E+03  0.27045649183E+03  0.17200000000E+03 0.  1.
<mgrwt>
<rscale>  2 0.19898999E+03</rscale>
<asrwt>0</asrwt>
<pdfrwt beam="1">  1       21 0.25681207E-01 0.19898999E+03</pdfrwt>
<pdfrwt beam="2">  1       21 0.98592354E-01 0.19898999E+03</pdfrwt>
<totfact> 0.12161980E+04</totfact>
</mgrwt>
</event>
<event>
 4    1  0.1091654E+000  0.2089261E+03  0.7546771E-02  0.1142419E+00
         21   -1    0    0  501  502  0.00000000000E+00  0.00000000000E+00  0.56894594530E+03  0.56894594530E+03  0.00000000000E+00 0.  1.
         21   -1    0    0  502  503 -0.00000000000E+00 -0.00000000000E+00 -0.52884684135E+03  0.52884684135E+03  0.00000000000E+00 0.  1.
          6    1    1    2  501    0 -0.66654988230E+02 -0.98098140720E+02  0.52757176931E+03  0.56743466976E+03  0.17200000000E+03 0.  1.
         -6    1    1    2    0  503  0.66654988230E+02  0.98098140720E+02 -0.48747266536E+03  0.53035811688E+03  0.17200000000E+03 0.  1.
<mgrwt>
<rscale>  2 0.20892614E+03</rscale>
<asrwt>0</asrwt>
<pdfrwt beam="1">  1       21 0.14223649E+00 0.20892614E+03</pdfrwt>
<pdfrwt beam="2">  1       21 0.13221171E+00 0.20892614E+03</pdfrwt>
<totfact> 0.13928230E+02</totfact>
</mgrwt>
</event>
<event>
 4    1  0.1091654E+000  0.2526165E+03  0.7546771E-02  0.1111662E+00
         21   -1    0    0  503  502  0.00000000000E+00  0.00000000000E+00  0.44591948373E+03  0.44591948373E+03  0.00000000000E+00 0. -1.
         21   -1    0    0  501  503 -0.00000000000E+00 -0.00000000000E+00 -0.22177182971E+03  0.22177182971E+03  0.00000000000E+00 0.  1.
          6    1    1    2  501    0 -0.18051635146E+03 -0.40557760998E+02 -0.86754089708E+02  0.26709802920E+03  0.17200000000E+03 0.  1.
         -6    1    1    2    0  502  0.18051635146E+03  0.40557760998E+02  0.31090174373E+03  0.40059328424E+03  0.17200000000E+03 0. -1.
<mgrwt>
<rscale>  2 0.25261648E+03</rscale>
<asrwt>0</asrwt>
<pdfrwt beam="1">  1       21 0.11147987E+00 0.25261648E+03</pdfrwt>
<pdfrwt beam="2">  1       21 0.55442958E-01 0.25261648E+03</pdfrwt>
<totfact> 0.18452871E+03</totfact>
</mgrwt>
</event>
<event>
 4    1  0.1091654E+000  0.2145996E+03  0.7546771E-02  0.1137974E+00
         21   -1    0    0  501  502  0.00000000000E+00  0.00000000000E+00  0.27230576350E+03  0.27230576350E+03  0.00000000000E+00 0. -1.
         21   -1    0    0  502  503 -0.00000000000E+00 -0.00000000000E+00 -0.18039466120E+03  0.18039466120E+03  0.00000000000E+00 0. -1.
          6    1    1    2  501    0 -0.33205282785E+02  0.12396133524E+03 -0.10625973481E+02  0.21486254851E+03  0.17200000000E+03 0. -1.
         -6    1    1    2    0  503  0.33205282785E+02 -0.12396133524E+03  0.10253707578E+03  0.23783787619E+03  0.17200000000E+03 0. -1.
<mgrwt>
<rscale>  2 0.21459964E+03</rscale>
<asrwt>0</asrwt>
<pdfrwt beam="1">  1       21 0.68076441E-01 0.21459964E+03</pdfrwt>
<pdfrwt beam="2">  1       21 0.45098666E-01 0.21459964E+03</pdfrwt>
<totfact> 0.91544157E+03</totfact>
</mgrwt>
</event>
<event>
 4    1  0.1091654E+000  0.2090168E+03  0.7546771E-02  0.1142347E+00
         21   -1    0    0  503  502  0.00000000000E+00  0.00000000000E+00  0.12770456279E+03  0.12770456279E+03  0.00000000000E+00 0.  1.
         21   -1    0    0  501  503 -0.00000000000E+00 -0.00000000000E+00 -0.37784341031E+03  0.37784341031E+03  0.00000000000E+00 0.  1.
          6    1    1    2  501    0 -0.44422622939E+02 -0.11013926491E+03 -0.20281225539E+03  0.29124017244E+03  0.17200000000E+03 0.  1.
         -6    1    1    2    0  502  0.44422622939E+02  0.11013926491E+03 -0.47326592125E+02  0.21430780066E+03  0.17200000000E+03 0.  1.
<mgrwt>
<rscale>  2 0.20901681E+03</rscale>
<asrwt>0</asrwt>
<pdfrwt beam="1">  1       21 0.31926141E-01 0.20901681E+03</pdfrwt>
<pdfrwt beam="2">  1       21 0.94460851E-01 0.20901681E+03</pdfrwt>
<totfact> 0.87548856E+03</totfact>
</mgrwt>
</event>
<event>
 4    1  0.1091654E+000  0.1782037E+03  0.7546771E-02  0.1169553E+00
         21   -1    0    0  503  502  0.00000000000E+00  0.00000000000E+00  0.33974663673E+03  0.33974663673E+03  0.00000000000E+00 0.  1.
         21   -1    0    0  501  503 -0.00000000000E+00 -0.00000000000E+00 -0.97899457047E+02  0.97899457047E+02  0.00000000000E+00 0.  1.
          6    1    1    2  501    0  0.16032372174E+02 -0.43766658768E+02  0.74384833084E+02  0.19310531005E+03  0.17200000000E+03 0.  1.
         -6    1    1    2    0  502 -0.16032372174E+02  0.43766658768E+02  0.16746234660E+03  0.24454078373E+03  0.17200000000E+03 0.  1.
<mgrwt>
<rscale>  2 0.17820370E+03</rscale>
<asrwt>0</asrwt>
<pdfrwt beam="1">  1       21 0.84936656E-01 0.17820370E+03</pdfrwt>
<pdfrwt beam="2">  1       21 0.24474865E-01 0.17820370E+03</pdfrwt>
<totfact> 0.19101281E+04</totfact>
</mgrwt>
</event>
<event>
 4    1  0.1091654E+000  0.2512394E+03  0.7546771E-02  0.1112524E+00
         21   -1    0    0  503  502  0.00000000000E+00  0.00000000000E+00  0.65725804112E+03  0.65725804112E+03  0.00000000000E+00 0.  1.
         21   -1    0    0  501  503 -0.00000000000E+00 -0.00000000000E+00 -0.10464042020E+03  0.10464042020E+03  0.00000000000E+00 0.  1.
          6    1    1    2  501    0  0.17585780982E+03 -0.51100702965E+02  0.38554002494E+03  0.46017644654E+03  0.17200000000E+03 0.  1.
         -6    1    1    2    0  502 -0.17585780982E+03  0.51100702965E+02  0.16707759599E+03  0.30172201478E+03  0.17200000000E+03 0.  1.
<mgrwt>
<rscale>  2 0.25123943E+03</rscale>
<asrwt>0</asrwt>
<pdfrwt beam="1">  1       21 0.16431450E+00 0.25123943E+03</pdfrwt>
<pdfrwt beam="2">  1       21 0.26160107E-01 0.25123943E+03</pdfrwt>
<totfact> 0.30990782E+03</totfact>
</mgrwt>
</event>
<event>
 4    1  0.1091654E+000  0.1994739E+03  0.7546771E-02  0.1150184E+00
         21   -1    0    0  501  502  0.00000000000E+00  0.00000000000E+00  0.37138360172E+03  0.37138360172E+03  0.00000000000E+00 0.  1.
         21   -1    0    0  502  503 -0.00000000000E+00 -0.00000000000E+00 -0.81705710990E+03  0.81705710990E+03  0.00000000000E+00 0.  1.
          6    1    1    2  501    0 -0.89497381331E+02  0.46862206576E+02  0.33105550744E+03  0.38650691673E+03  0.17200000000E+03 0.  1.
         -6    1    1    2    0  503  0.89497381331E+02 -0.46862206576E+02 -0.77672901563E+03  0.80193379489E+03  0.17200000000E+03 0.  1.
<mgrwt>
<rscale>  2 0.19947393E+03</rscale>
<asrwt>0</asrwt>
<pdfrwt beam="1">  1       21 0.92845902E-01 0.19947393E+03</pdfrwt>
<pdfrwt beam="2">  1       21 0.20426427E+00 0.19947393E+03</pdfrwt>
<totfact> 0.12207882E+02</totfact>
</mgrwt>
</event>
<event>
 4    1  0.1091654E+000  0.1967483E+03  0.7546771E-02  0.1152512E+00
         21   -1    0    0  501  502  0.00000000000E+00  0.00000000000E+00  0.65534033062E+03  0.65534033062E+03  0.00000000000E+00 0.  1.
         21   -1    0    0  502  503 -0.00000000000E+00 -0.00000000000E+00 -0.32856180303E+03  0.32856180303E+03  0.00000000000E+00 0.  1.
          6    1    1    2  501    0 -0.76402800297E+02 -0.57345368435E+02  0.60893005411E+03  0.63992631605E+03  0.17200000000E+03 0.  1.
         -6    1    1    2    0  503  0.76402800297E+02  0.57345368435E+02 -0.28215152652E+03  0.34397581760E+03  0.17200000000E+03 0.  1.
<mgrwt>
<rscale>  2 0.19674826E+03</rscale>
<asrwt>0</asrwt>
<pdfrwt beam="1">  1       21 0.16383508E+00 0.19674826E+03</pdfrwt>
<pdfrwt beam="2">  1       21 0.82140452E-01 0.19674826E+03</pdfrwt>
<totfact> 0.30428723E+02</totfact>
</mgrwt>
</event>
<event>
 4    1  0.1091654E+000  0.2568331E+03  0.7546771E-02  0.1109061E+00
         21   -1    0    0  501  502  0.00000000000E+00  0.00000000000E+00  0.79069353267E+03  0.79069353267E+03  0.00000000000E+00 0.  1.
         21   -1    0    0  502  503 -0.00000000000E+00 -0.00000000000E+00 -0.94212841446E+02  0.94212841446E+02  0.00000000000E+00 0. -1.
          6    1    1    2  501    0  0.11970247645E+03 -0.14849426583E+03  0.19851711843E+03  0.32461096125E+03  0.17200000000E+03 0. -1.
         -6    1    1    2    0  503 -0.11970247645E+03  0.14849426583E+03  0.49796357279E+03  0.56029541287E+03  0.17200000000E+03 0.  1.
<mgrwt>
<rscale>  2 0.25683308E+03</rscale>
<asrwt>0</asrwt>
<pdfrwt beam="1">  1       21 0.19767336E+00 0.25683308E+03</pdfrwt>
<pdfrwt beam="2">  1       21 0.23553213E-01 0.25683308E+03</pdfrwt>
<totfact> 0.22262026E+03</totfact>
</mgrwt>
</event>
<event>
 4    1  0.1091654E+000  0.2738954E+03  0.7546771E-02  0.1099071E+00
         21   -1    0    0  503  502  0.00000000000E+00  0.00000000000E+00  0.96064898590E+03  0.96064898590E+03  0.00000000000E+00 0.  1.
         21   -1    0    0  501  503 -0.00000000000E+00 -0.00000000000E+00 -0.98593483147E+02  0.98593483147E+02  0.00000000000E+00 0.  1.
          6    1    1    2  501    0 -0.12648292764E+03  0.17157141337E+03  0.18951645456E+03  0.33306931324E+03  0.17200000000E+03 0.  1.
         -6    1    1    2    0  502  0.12648292764E+03 -0.17157141337E+03  0.67253904819E+03  0.72617315581E+03  0.17200000000E+03 0.  1.
<mgrwt>
<rscale>  2 0.27389538E+03</rscale>
<asrwt>0</asrwt>
<pdfrwt beam="1">  1       21 0.24016222E+00 0.27389538E+03</pdfrwt>
<pdfrwt beam="2">  1       21 0.24648374E-01 0.27389538E+03</pdfrwt>
<totfact> 0.10898257E+03</totfact>
</mgrwt>
</event>
<event>
 4    1  0.1091654E+000  0.1821167E+03  0.7546771E-02  0.1165770E+00
         21   -1    0    0  503  502  0.00000000000E+00  0.00000000000E+00  0.89612793026E+02  0.89612793026E+02  0.00000000000E+00 0. -1.
         21   -1    0    0  501  503 -0.00000000000E+00 -0.00000000000E+00 -0.47775903937E+03  0.47775903937E+03  0.00000000000E+00 0. -1.
          6    1    1    2  501    0  0.69399692943E+01  0.59450254886E+02 -0.32873371951E+03  0.37580893327E+03  0.17200000000E+03 0. -1.
         -6    1    1    2    0  502 -0.69399692943E+01 -0.59450254886E+02 -0.59412526840E+02  0.19156289914E+03  0.17200000000E+03 0. -1.
<mgrwt>
<rscale>  2 0.18211671E+03</rscale>
<asrwt>0</asrwt>
<pdfrwt beam="1">  1       21 0.22403199E-01 0.18211671E+03</pdfrwt>
<pdfrwt beam="2">  1       21 0.11943976E+00 0.18211671E+03</pdfrwt>
<totfact> 0.10042030E+04</totfact>
</mgrwt>
</event>
<event>
 4    1  0.1091654E+000  0.2022908E+03  0.7546771E-02  0.1147821E+00
         21   -1    0    0  503  502  0.00000000000E+00  0.00000000000E+00  0.30116000686E+03  0.30116000686E+03  0.00000000000E+00 0.  1.
         21   -1    0    0  501  503 -0.00000000000E+00 -0.00000000000E+00 -0.13617774234E+03  0.13617774234E+03  0.00000000000E+00 0.  1.
          6    1    1    2  501    0 -0.10523648889E+03  0.16212888164E+02  0.72263758908E+02  0.21481067754E+03  0.17200000000E+03 0.  1.
         -6    1    1    2    0  502  0.10523648889E+03 -0.16212888164E+02  0.92718505612E+02  0.22252707165E+03  0.17200000000E+03 0.  1.
<mgrwt>
<rscale>  2 0.20229082E+03</rscale>
<asrwt>0</asrwt>
<pdfrwt beam="1">  1       21 0.75290001E-01 0.20229082E+03</pdfrwt>
<pdfrwt beam="2">  1       21 0.34044436E-01 0.20229082E+03</pdfrwt>
<totfact> 0.13020618E+04</totfact>
</mgrwt>
</event>
<event>
 4    1  0.1091654E+000  0.1930653E+03  0.7546771E-02  0.1155725E+00
         21   -1    0    0  501  502  0.00000000000E+00  0.00000000000E+00  0.46436647697E+03  0.46436647697E+03  0.00000000000E+00 0.  1.
         21   -1    0    0  502  503 -0.00000000000E+00 -0.00000000000E+00 -0.30162859118E+03  0.30162859118E+03  0.00000000000E+00 0.  1.
          6    1    1    2  501    0 -0.23353632175E+02 -0.84527036103E+02 -0.24673310481E+03  0.31329129733E+03  0.17200000000E+03 0.  1.
         -6    1    1    2    0  503  0.23353632175E+02  0.84527036103E+02  0.40947099060E+03  0.45270377082E+03  0.17200000000E+03 0.  1.
<mgrwt>
<rscale>  2 0.19306530E+03</rscale>
<asrwt>0</asrwt>
<pdfrwt beam="1">  1       21 0.11609162E+00 0.19306530E+03</pdfrwt>
<pdfrwt beam="2">  1       21 0.75407148E-01 0.19306530E+03</pdfrwt>
<totfact> 0.89958826E+02</totfact>
</mgrwt>
</event>
<event>
 4    1  0.1091654E+000  0.2088602E+03  0.7546771E-02  0.1142472E+00
         21   -1    0    0  503  502  0.00000000000E+00  0.00000000000E+00  0.68210318202E+02  0.68210318202E+02  0.00000000000E+00 0.  1.
         21   -1    0    0  501  503 -0.00000000000E+00 -0.00000000000E+00 -0.64054351538E+03  0.64054351538E+03  0.00000000000E+00 0.  1.
          6    1    1    2  501    0 -0.99058080585E+02 -0.65008234031E+02 -0.27207322058E+03  0.34299622619E+03  0.17200000000E+03 0.  1.
         -6    1    1    2    0  502  0.99058080585E+02  0.65008234031E+02 -0.30025997660E+03  0.36575760740E+03  0.17200000000E+03 0.  1.
<mgrwt>
<rscale>  2 0.20886018E+03</rscale>
<asrwt>0</asrwt>
<pdfrwt beam="1">  1       21 0.17052580E-01 0.20886018E+03</pdfrwt>
<pdfrwt beam="2">  1       21 0.16013587E+00 0.20886018E+03</pdfrwt>
<totfact> 0.76904166E+03</totfact>
</mgrwt>
</event>
<event>
 4    1  0.1091654E+000  0.2178866E+03  0.7546771E-02  0.1135469E+00
         21   -1    0    0  503  502  0.00000000000E+00  0.00000000000E+00  0.10690776472E+03  0.10690776472E+03  0.00000000000E+00 0.  1.
         21   -1    0    0  501  503 -0.00000000000E+00 -0.00000000000E+00 -0.45851154260E+03  0.45851154260E+03  0.00000000000E+00 0. -1.
          6    1    1    2  501    0 -0.72391549667E+02  0.11247234888E+03 -0.22597458309E+03  0.31390934667E+03  0.17200000000E+03 0.  1.
         -6    1    1    2    0  502  0.72391549667E+02 -0.11247234888E+03 -0.12562919479E+03  0.25150996065E+03  0.17200000000E+03 0.  1.
<mgrwt>
<rscale>  2 0.21788659E+03</rscale>
<asrwt>0</asrwt>
<pdfrwt beam="1">  1       21 0.26726942E-01 0.21788659E+03</pdfrwt>
<pdfrwt beam="2">  1       21 0.11462788E+00 0.21788659E+03</pdfrwt>
<totfact> 0.77322345E+03</totfact>
</mgrwt>
</event>
<event>
 4    1  0.1091654E+000  0.1726280E+03  0.7546771E-02  0.1175135E+00
         21   -1    0    0  501  502  0.00000000000E+00  0.00000000000E+00  0.12219954575E+03  0.12219954575E+03  0.00000000000E+00 0.  1.
         21   -1    0    0  502  503 -0.00000000000E+00 -0.00000000000E+00 -0.43641100502E+03  0.43641100502E+03  0.00000000000E+00 0.  1.
          6    1    1    2  501    0  0.12599083762E+02  0.75943882706E+01  0.28416742506E+02  0.17495120148E+03  0.17200000000E+03 0.  1.
         -6    1    1    2    0  503 -0.12599083762E+02 -0.75943882706E+01 -0.34262820177E+03  0.38365934929E+03  0.17200000000E+03 0.  1.
<mgrwt>
<rscale>  2 0.17262796E+03</rscale>
<asrwt>0</asrwt>
<pdfrwt beam="1">  1       21 0.30549887E-01 0.17262796E+03</pdfrwt>
<pdfrwt beam="2">  1       21 0.10910275E+00 0.17262796E+03</pdfrwt>
<totfact> 0.69598054E+03</totfact>
</mgrwt>
</event>
<event>
 4    1  0.1091654E+000  0.2135780E+03  0.7546771E-02  0.1138764E+00
         21   -1    0    0  503  502  0.00000000000E+00  0.00000000000E+00  0.36137686505E+03  0.36137686505E+03  0.00000000000E+00 0. -1.
         21   -1    0    0  501  503 -0.00000000000E+00 -0.00000000000E+00 -0.31563583938E+03  0.31563583938E+03  0.00000000000E+00 0. -1.
          6    1    1    2  501    0 -0.51854385971E+02  0.11551057257E+03 -0.23935420318E+03  0.32078965741E+03  0.17200000000E+03 0. -1.
         -6    1    1    2    0  502  0.51854385971E+02 -0.11551057257E+03  0.28509522884E+03  0.35622304702E+03  0.17200000000E+03 0. -1.
<mgrwt>
<rscale>  2 0.21357802E+03</rscale>
<asrwt>0</asrwt>
<pdfrwt beam="1">  1       21 0.90344216E-01 0.21357802E+03</pdfrwt>
<pdfrwt beam="2">  1       21 0.78908960E-01 0.21357802E+03</pdfrwt>
<totfact> 0.14489757E+03</totfact>
</mgrwt>
</event>
<event>
 4    1  0.1091654E+000  0.3528371E+03  0.7546771E-02  0.1061457E+00
         21   -1    0    0  503  502  0.00000000000E+00  0.00000000000E+00  0.14367046266E+03  0.14367046266E+03  0.00000000000E+00 0.  1.
         21   -1    0    0  501  503 -0.00000000000E+00 -0.00000000000E+00 -0.91594590845E+03  0.91594590845E+03  0.00000000000E+00 0. -1.
          6    1    1    2  501    0 -0.13262191741E+03 -0.27806738717E+03 -0.50920403896E+03  0.61950205656E+03  0.17200000000E+03 0. -1.
         -6    1    1    2    0  502  0.13262191741E+03  0.27806738717E+03 -0.26307140682E+03  0.44011431455E+03  0.17200000000E+03 0. -1.
<mgrwt>
<rscale>  2 0.35283714E+03</rscale>
<asrwt>0</asrwt>
<pdfrwt beam="1">  1       21 0.35917616E-01 0.35283714E+03</pdfrwt>
<pdfrwt beam="2">  1       21 0.22898647E+00 0.35283714E+03</pdfrwt>
<totfact> 0.57339434E+02</totfact>
</mgrwt>
</event>
<event>
 4    1  0.1091654E+000  0.2159881E+03  0.7546771E-02  0.1136910E+00
         21   -1    0    0  501  502  0.00000000000E+00  0.00000000000E+00  0.16864142755E+04  0.16864142755E+04  0.00000000000E+00 0.  1.
         21   -1    0    0  502  503 -0.00000000000E+00 -0.00000000000E+00 -0.43403253784E+02  0.43403253784E+02  0.00000000000E+00 0.  1.
          6    1    1    2  501    0  0.44463132827E+02  0.12284086248E+03  0.13423625528E+04  0.13596279164E+04  0.17200000000E+03 0.  1.
         -6    1    1    2    0  503 -0.44463132827E+02 -0.12284086248E+03  0.30064846884E+03  0.37018961289E+03  0.17200000000E+03 0.  1.
<mgrwt>
<rscale>  2 0.21598807E+03</rscale>
<asrwt>0</asrwt>
<pdfrwt beam="1">  1       21 0.42160335E+00 0.21598807E+03</pdfrwt>
<pdfrwt beam="2">  1       21 0.10850819E-01 0.21598807E+03</pdfrwt>
<totfact> 0.43092338E+02</totfact>
</mgrwt>
</event>
<event>
 4    1  0.1091654E+000  0.2267285E+03  0.7546771E-02  0.1128964E+00
         21   -1    0    0  501  502  0.00000000000E+00  0.00000000000E+00  0.82346580859E+02  0.82346580859E+02  0.00000000000E+00 0.  1.
         21   -1    0    0  502  503 -0.00000000000E+00 -0.00000000000E+00 -0.91189136887E+03  0.91189136887E+03  0.00000000000E+00 0. -1.
          6    1    1    2  501    0  0.14766950324E+03  0.39424583597E+01 -0.13557873560E+03  0.26417308476E+03  0.17200000000E+03 0.  1.
         -6    1    1    2    0  503 -0.14766950324E+03 -0.39424583597E+01 -0.69396605241E+03  0.73006486497E+03  0.17200000000E+03 0. -1.
<mgrwt>
<rscale>  2 0.22672853E+03</rscale>
<asrwt>0</asrwt>
<pdfrwt beam="1">  1       21 0.20586646E-01 0.22672853E+03</pdfrwt>
<pdfrwt beam="2">  1       21 0.22797284E+00 0.22672853E+03</pdfrwt>
<totfact> 0.18988635E+03</totfact>
</mgrwt>
</event>
<event>
 4    1  0.1091654E+000  0.2126125E+03  0.7546771E-02  0.1139514E+00
         21   -1    0    0  501  502  0.00000000000E+00  0.00000000000E+00  0.42581610865E+03  0.42581610865E+03  0.00000000000E+00 0.  1.
         21   -1    0    0  502  503 -0.00000000000E+00 -0.00000000000E+00 -0.12860503002E+03  0.12860503002E+03  0.00000000000E+00 0.  1.
          6    1    1    2  501    0 -0.12193593828E+03  0.27417002664E+02  0.26441763517E+03  0.33929448989E+03  0.17200000000E+03 0. -1.
         -6    1    1    2    0  503  0.12193593828E+03 -0.27417002664E+02  0.32793443454E+02  0.21512664878E+03  0.17200000000E+03 0. -1.
<mgrwt>
<rscale>  2 0.21261248E+03</rscale>
<asrwt>0</asrwt>
<pdfrwt beam="1">  1       21 0.10645402E+00 0.21261248E+03</pdfrwt>
<pdfrwt beam="2">  1       21 0.32151258E-01 0.21261248E+03</pdfrwt>
<totfact> 0.64801214E+03</totfact>
</mgrwt>
</event>
<event>
 4    1  0.1091654E+000  0.1759013E+03  0.7546771E-02  0.1171830E+00
         21   -1    0    0  503  502  0.00000000000E+00  0.00000000000E+00  0.57956997694E+02  0.57956997694E+02  0.00000000000E+00 0.  1.
         21   -1    0    0  501  503 -0.00000000000E+00 -0.00000000000E+00 -0.58923652323E+03  0.58923652323E+03  0.00000000000E+00 0.  1.
          6    1    1    2  501    0 -0.21329195522E+02  0.30038835986E+02 -0.36483685446E+03  0.40502740231E+03  0.17200000000E+03 0.  1.
         -6    1    1    2    0  502  0.21329195522E+02 -0.30038835986E+02 -0.16644267107E+03  0.24216611861E+03  0.17200000000E+03 0.  1.
<mgrwt>
<rscale>  2 0.17590130E+03</rscale>
<asrwt>0</asrwt>
<pdfrwt beam="1">  1       21 0.14489249E-01 0.17590130E+03</pdfrwt>
<pdfrwt beam="2">  1       21 0.14730913E+00 0.17590130E+03</pdfrwt>
<totfact> 0.13257628E+04</totfact>
</mgrwt>
</event>
<event>
 4    1  0.1091654E+000  0.1989318E+03  0.7546771E-02  0.1150643E+00
         21   -1    0    0  501  502  0.00000000000E+00  0.00000000000E+00  0.35280957083E+03  0.35280957083E+03  0.00000000000E+00 0. -1.
         21   -1    0    0  502  503 -0.00000000000E+00 -0.00000000000E+00 -0.17757395409E+03  0.17757395409E+03  0.00000000000E+00 0. -1.
          6    1    1    2  501    0  0.66537852767E+02  0.74582562598E+02  0.24856372970E+03  0.31836735420E+03  0.17200000000E+03 0. -1.
         -6    1    1    2    0  503 -0.66537852767E+02 -0.74582562598E+02 -0.73328112961E+02  0.21201617072E+03  0.17200000000E+03 0. -1.
<mgrwt>
<rscale>  2 0.19893176E+03</rscale>
<asrwt>0</asrwt>
<pdfrwt beam="1">  1       21 0.88202392E-01 0.19893176E+03</pdfrwt>
<pdfrwt beam="2">  1       21 0.44393489E-01 0.19893176E+03</pdfrwt>
<totfact> 0.53369459E+03</totfact>
</mgrwt>
</event>
<event>
 4    1  0.1091654E+000  0.1721308E+03  0.7546771E-02  0.1175644E+00
         21   -1    0    0  503  502  0.00000000000E+00  0.00000000000E+00  0.15956001900E+03  0.15956001900E+03  0.00000000000E+00 0.  1.
         21   -1    0    0  501  503 -0.00000000000E+00 -0.00000000000E+00 -0.19252758819E+03  0.19252758819E+03  0.00000000000E+00 0.  1.
          6    1    1    2  501    0 -0.50228689203E+01 -0.44495625335E+01  0.16687360002E+02  0.17293783797E+03  0.17200000000E+03 0. -1.
         -6    1    1    2    0  502  0.50228689203E+01  0.44495625335E+01 -0.49654929190E+02  0.17914976922E+03  0.17200000000E+03 0. -1.
<mgrwt>
<rscale>  2 0.17213085E+03</rscale>
<asrwt>0</asrwt>
<pdfrwt beam="1">  1       21 0.39890005E-01 0.17213085E+03</pdfrwt>
<pdfrwt beam="2">  1       21 0.48131897E-01 0.17213085E+03</pdfrwt>
<totfact> 0.25277958E+04</totfact>
</mgrwt>
</event>
