<event>
 4    1  0.1119790E+000  0.1886279E+03  0.7546771E-02  0.1159705E+00
         21   -1    0    0  501  502  0.00000000000E+00  0.00000000000E+00  0.19658847739E+04  0.19658847739E+04  0.00000000000E+00 0.  1.
         21   -1    0    0  502  503 -0.00000000000E+00 -0.00000000000E+00 -0.47542370504E+02  0.47542370504E+02  0.00000000000E+00 0. -1.
          6    1    1    2  501    0  0.71006325914E+02  0.30896519645E+02  0.17514161469E+04  0.17615444964E+04  0.17200000000E+03 0.  1.
         -6    1    1    2    0  503 -0.71006325914E+02 -0.30896519645E+02  0.16692625649E+03  0.25188264797E+03  0.17200000000E+03 0. -1.
<mgrwt>
<rscale>  2 0.18862792E+03</rscale>
<asrwt>0</asrwt>
<pdfrwt beam="1">  1       21 0.49147092E+00 0.18862792E+03</pdfrwt>
<pdfrwt beam="2">  1       21 0.11885599E-01 0.18862792E+03</pdfrwt>
<totfact> 0.13069614E+02</totfact>
</mgrwt>
</event>
<event>
 4    1  0.1119790E+000  0.2265675E+03  0.7546771E-02  0.1129079E+00
         21   -1    0    0  503  502  0.00000000000E+00  0.00000000000E+00  0.99725133646E+03  0.99725133646E+03  0.00000000000E+00 0.  1.
         21   -1    0    0  501  503 -0.00000000000E+00 -0.00000000000E+00 -0.54098564231E+02  0.54098564231E+02  0.00000000000E+00 0. -1.
          6    1    1    2  501    0 -0.81454313398E+02 -0.12293913547E+03  0.35579829366E+03  0.42181187984E+03  0.17200000000E+03 0. -1.
         -6    1    1    2    0  502  0.81454313398E+02  0.12293913547E+03  0.58735447857E+03  0.62953802085E+03  0.17200000000E+03 0.  1.
<mgrwt>
<rscale>  2 0.22656751E+03</rscale>
<asrwt>0</asrwt>
<pdfrwt beam="1">  1       21 0.24931277E+00 0.22656751E+03</pdfrwt>
<pdfrwt beam="2">  1       21 0.13524644E-01 0.22656751E+03</pdfrwt>
<totfact> 0.30678393E+03</totfact>
</mgrwt>
</event>
<event>
 4    1  0.1119790E+000  0.1942477E+03  0.7546771E-02  0.1154685E+00
         21   -1    0    0  501  502  0.00000000000E+00  0.00000000000E+00  0.20462484586E+03  0.20462484586E+03  0.00000000000E+00 0. -1.
         21   -1    0    0  502  503 -0.00000000000E+00 -0.00000000000E+00 -0.22134081891E+03  0.22134081891E+03  0.00000000000E+00 0. -1.
          6    1    1    2  501    0 -0.43919017380E+02  0.78862402098E+02  0.78655415173E+02  0.20956820581E+03  0.17200000000E+03 0. -1.
         -6    1    1    2    0  503  0.43919017380E+02 -0.78862402098E+02 -0.95371388217E+02  0.21639745896E+03  0.17200000000E+03 0. -1.
<mgrwt>
<rscale>  2 0.19424767E+03</rscale>
<asrwt>0</asrwt>
<pdfrwt beam="1">  1       21 0.51156212E-01 0.19424767E+03</pdfrwt>
<pdfrwt beam="2">  1       21 0.55335205E-01 0.19424767E+03</pdfrwt>
<totfact> 0.11174940E+04</totfact>
</mgrwt>
</event>
<event>
 4    1  0.1119790E+000  0.2043960E+03  0.7546771E-02  0.1146082E+00
         21   -1    0    0  501  502  0.00000000000E+00  0.00000000000E+00  0.23435282855E+03  0.23435282855E+03  0.00000000000E+00 0. -1.
         21   -1    0    0  502  503 -0.00000000000E+00 -0.00000000000E+00 -0.18159544411E+03  0.18159544411E+03  0.00000000000E+00 0. -1.
          6    1    1    2  501    0  0.65723433513E+02  0.88736327126E+02  0.54529163204E+02  0.21154464093E+03  0.17200000000E+03 0. -1.
         -6    1    1    2    0  503 -0.65723433513E+02 -0.88736327126E+02 -0.17717787618E+01  0.20440363173E+03  0.17200000000E+03 0. -1.
<mgrwt>
<rscale>  2 0.20439595E+03</rscale>
<asrwt>0</asrwt>
<pdfrwt beam="1">  1       21 0.58588207E-01 0.20439595E+03</pdfrwt>
<pdfrwt beam="2">  1       21 0.45398861E-01 0.20439595E+03</pdfrwt>
<totfact> 0.12591700E+04</totfact>
</mgrwt>
</event>
<event>
 4    1  0.1119790E+000  0.1757150E+03  0.7546771E-02  0.1172016E+00
         21   -1    0    0  503  502  0.00000000000E+00  0.00000000000E+00  0.34591662886E+02  0.34591662886E+02  0.00000000000E+00 0. -1.
         21   -1    0    0  501  503 -0.00000000000E+00 -0.00000000000E+00 -0.89484662176E+03  0.89484662176E+03  0.00000000000E+00 0. -1.
          6    1    1    2  501    0 -0.28283882318E+02 -0.22175933591E+02 -0.45352756026E+03  0.48637742335E+03  0.17200000000E+03 0. -1.
         -6    1    1    2    0  502  0.28283882318E+02  0.22175933591E+02 -0.40672739862E+03  0.44306086130E+03  0.17200000000E+03 0. -1.
<mgrwt>
<rscale>  2 0.17571497E+03</rscale>
<asrwt>0</asrwt>
<pdfrwt beam="1">  1       21 0.86479159E-02 0.17571497E+03</pdfrwt>
<pdfrwt beam="2">  1       21 0.22371165E+00 0.17571497E+03</pdfrwt>
<totfact> 0.10158732E+04</totfact>
</mgrwt>
</event>
<event>
 4    1  0.1119790E+000  0.2535013E+03  0.7546771E-02  0.1111112E+00
         21   -1    0    0  501  502  0.00000000000E+00  0.00000000000E+00  0.94993848080E+03  0.94993848080E+03  0.00000000000E+00 0.  1.
         21   -1    0    0  502  503 -0.00000000000E+00 -0.00000000000E+00 -0.71997161237E+02  0.71997161237E+02  0.00000000000E+00 0.  1.
          6    1    1    2  501    0 -0.10453990532E+03 -0.15411144322E+03  0.56453325108E+03  0.61883820205E+03  0.17200000000E+03 0.  1.
         -6    1    1    2    0  503  0.10453990532E+03  0.15411144322E+03  0.31340806848E+03  0.40309743999E+03  0.17200000000E+03 0.  1.
<mgrwt>
<rscale>  2 0.25350134E+03</rscale>
<asrwt>0</asrwt>
<pdfrwt beam="1">  1       21 0.23748458E+00 0.25350134E+03</pdfrwt>
<pdfrwt beam="2">  1       21 0.17999293E-01 0.25350134E+03</pdfrwt>
<totfact> 0.20860568E+03</totfact>
</mgrwt>
</event>
<event>
 4    1  0.1119790E+000  0.1935935E+03  0.7546771E-02  0.1155260E+00
         21   -1    0    0  503  502  0.00000000000E+00  0.00000000000E+00  0.29917431622E+03  0.29917431622E+03  0.00000000000E+00 0. -1.
         21   -1    0    0  501  503 -0.00000000000E+00 -0.00000000000E+00 -0.14677471174E+03  0.14677471174E+03  0.00000000000E+00 0. -1.
          6    1    1    2  501    0 -0.44243952913E+02 -0.77051286301E+02 -0.91430870193E+01  0.19380924676E+03  0.17200000000E+03 0. -1.
         -6    1    1    2    0  502  0.44243952913E+02  0.77051286301E+02  0.16154269150E+03  0.25213978121E+03  0.17200000000E+03 0. -1.
<mgrwt>
<rscale>  2 0.19359346E+03</rscale>
<asrwt>0</asrwt>
<pdfrwt beam="1">  1       21 0.74793578E-01 0.19359346E+03</pdfrwt>
<pdfrwt beam="2">  1       21 0.36693678E-01 0.19359346E+03</pdfrwt>
<totfact> 0.11452082E+04</totfact>
</mgrwt>
</event>
<event>
 4    1  0.1119790E+000  0.2477668E+03  0.7546771E-02  0.1114724E+00
         21   -1    0    0  503  502  0.00000000000E+00  0.00000000000E+00  0.44984754298E+03  0.44984754298E+03  0.00000000000E+00 0.  1.
         21   -1    0    0  501  503 -0.00000000000E+00 -0.00000000000E+00 -0.18334850640E+03  0.18334850640E+03  0.00000000000E+00 0. -1.
          6    1    1    2  501    0 -0.72165076226E+02  0.16308456377E+03 -0.26846412803E+02  0.24921697985E+03  0.17200000000E+03 0. -1.
         -6    1    1    2    0  502  0.72165076226E+02 -0.16308456377E+03  0.29334544938E+03  0.38397906953E+03  0.17200000000E+03 0.  1.
<mgrwt>
<rscale>  2 0.24776677E+03</rscale>
<asrwt>0</asrwt>
<pdfrwt beam="1">  1       21 0.11246188E+00 0.24776677E+03</pdfrwt>
<pdfrwt beam="2">  1       21 0.45837127E-01 0.24776677E+03</pdfrwt>
<totfact> 0.27032349E+03</totfact>
</mgrwt>
</event>
<event>
 4    1  0.1119790E+000  0.1737965E+03  0.7546771E-02  0.1173946E+00
         21   -1    0    0  503  502  0.00000000000E+00  0.00000000000E+00  0.60633288705E+03  0.60633288705E+03  0.00000000000E+00 0. -1.
         21   -1    0    0  501  503 -0.00000000000E+00 -0.00000000000E+00 -0.95760444818E+02  0.95760444818E+02  0.00000000000E+00 0. -1.
          6    1    1    2  501    0 -0.82175453094E+01 -0.23530381396E+02  0.12128937493E+02  0.17421916664E+03  0.17200000000E+03 0. -1.
         -6    1    1    2    0  502  0.82175453094E+01  0.23530381396E+02  0.49844350474E+03  0.52787416523E+03  0.17200000000E+03 0. -1.
<mgrwt>
<rscale>  2 0.17379645E+03</rscale>
<asrwt>0</asrwt>
<pdfrwt beam="1">  1       21 0.15158321E+00 0.17379645E+03</pdfrwt>
<pdfrwt beam="2">  1       21 0.23940113E-01 0.17379645E+03</pdfrwt>
<totfact> 0.48625295E+03</totfact>
</mgrwt>
</event>
<event>
 4    1  0.1119790E+000  0.1728481E+03  0.7546771E-02  0.1174910E+00
         21   -1    0    0  503  502  0.00000000000E+00  0.00000000000E+00  0.13996121386E+03  0.13996121386E+03  0.00000000000E+00 0. -1.
         21   -1    0    0  501  503 -0.00000000000E+00 -0.00000000000E+00 -0.23169818122E+03  0.23169818122E+03  0.00000000000E+00 0. -1.
          6    1    1    2  501    0  0.17024671010E+02 -0.16193890242E+01 -0.98001823698E+02  0.19869780898E+03  0.17200000000E+03 0. -1.
         -6    1    1    2    0  502 -0.17024671010E+02  0.16193890242E+01  0.62648563381E+01  0.17296158611E+03  0.17200000000E+03 0. -1.
<mgrwt>
<rscale>  2 0.17284809E+03</rscale>
<asrwt>0</asrwt>
<pdfrwt beam="1">  1       21 0.34990304E-01 0.17284809E+03</pdfrwt>
<pdfrwt beam="2">  1       21 0.57924545E-01 0.17284809E+03</pdfrwt>
<totfact> 0.22259216E+04</totfact>
</mgrwt>
</event>
<event>
 4    1  0.1119790E+000  0.1869982E+03  0.7546771E-02  0.1161197E+00
         21   -1    0    0  503  502  0.00000000000E+00  0.00000000000E+00  0.37818667006E+03  0.37818667006E+03  0.00000000000E+00 0.  1.
         21   -1    0    0  501  503 -0.00000000000E+00 -0.00000000000E+00 -0.93247828939E+02  0.93247828939E+02  0.00000000000E+00 0.  1.
          6    1    1    2  501    0  0.51126291768E+02  0.52634845553E+02  0.12084609534E+03  0.22264793607E+03  0.17200000000E+03 0.  1.
         -6    1    1    2    0  502 -0.51126291768E+02 -0.52634845553E+02  0.16409274578E+03  0.24878656293E+03  0.17200000000E+03 0.  1.
<mgrwt>
<rscale>  2 0.18699819E+03</rscale>
<asrwt>0</asrwt>
<pdfrwt beam="1">  1       21 0.94546664E-01 0.18699819E+03</pdfrwt>
<pdfrwt beam="2">  1       21 0.23311958E-01 0.18699819E+03</pdfrwt>
<totfact> 0.16265819E+04</totfact>
</mgrwt>
</event>
<event>
 4    1  0.1119790E+000  0.2315523E+03  0.7546771E-02  0.1125552E+00
         21   -1    0    0  503  502  0.00000000000E+00  0.00000000000E+00  0.32799713024E+02  0.32799713024E+02  0.00000000000E+00 0.  1.
         21   -1    0    0  501  503 -0.00000000000E+00 -0.00000000000E+00 -0.18026550970E+04  0.18026550970E+04  0.00000000000E+00 0.  1.
          6    1    1    2  501    0  0.13755639543E+03  0.71489249066E+02 -0.11650849703E+04  0.11878718208E+04  0.17200000000E+03 0.  1.
         -6    1    1    2    0  502 -0.13755639543E+03 -0.71489249066E+02 -0.60477041362E+03  0.64758298916E+03  0.17200000000E+03 0.  1.
<mgrwt>
<rscale>  2 0.23155232E+03</rscale>
<asrwt>0</asrwt>
<pdfrwt beam="1">  1       21 0.81999288E-02 0.23155232E+03</pdfrwt>
<pdfrwt beam="2">  1       21 0.45066374E+00 0.23155232E+03</pdfrwt>
<totfact> 0.44574349E+02</totfact>
</mgrwt>
</event>
<event>
 4    1  0.1119790E+000  0.2182997E+03  0.7546771E-02  0.1135157E+00
         21   -1    0    0  501  502  0.00000000000E+00  0.00000000000E+00  0.10597247723E+04  0.10597247723E+04  0.00000000000E+00 0.  1.
         21   -1    0    0  502  503 -0.00000000000E+00 -0.00000000000E+00 -0.11137534142E+03  0.11137534142E+03  0.00000000000E+00 0.  1.
          6    1    1    2  501    0  0.89314565513E+02  0.10046715073E+03  0.92631619610E+03  0.95169135498E+03  0.17200000000E+03 0.  1.
         -6    1    1    2    0  503 -0.89314565513E+02 -0.10046715073E+03  0.22033234811E+02  0.21940875877E+03  0.17200000000E+03 0.  1.
<mgrwt>
<rscale>  2 0.21829966E+03</rscale>
<asrwt>0</asrwt>
<pdfrwt beam="1">  1       21 0.26493116E+00 0.21829966E+03</pdfrwt>
<pdfrwt beam="2">  1       21 0.27843839E-01 0.21829966E+03</pdfrwt>
<totfact> 0.64870293E+02</totfact>
</mgrwt>
</event>
<event>
 4    1  0.1119790E+000  0.1801495E+03  0.7546771E-02  0.1167658E+00
         21   -1    0    0  501  502  0.00000000000E+00  0.00000000000E+00  0.79520477931E+03  0.79520477931E+03  0.00000000000E+00 0.  1.
         21   -1    0    0  502  503 -0.00000000000E+00 -0.00000000000E+00 -0.55786065162E+02  0.55786065162E+02  0.00000000000E+00 0.  1.
          6    1    1    2  501    0  0.68097655271E+01 -0.53136351211E+02  0.59015567435E+03  0.61703935425E+03  0.17200000000E+03 0.  1.
         -6    1    1    2    0  503 -0.68097655271E+01  0.53136351211E+02  0.14926303980E+03  0.23395149022E+03  0.17200000000E+03 0.  1.
<mgrwt>
<rscale>  2 0.18014951E+03</rscale>
<asrwt>0</asrwt>
<pdfrwt beam="1">  1       21 0.19880116E+00 0.18014951E+03</pdfrwt>
<pdfrwt beam="2">  1       21 0.13946519E-01 0.18014951E+03</pdfrwt>
<totfact> 0.61900452E+03</totfact>
</mgrwt>
</event>
<event>
 4    1  0.1119790E+000  0.2267594E+03  0.7546771E-02  0.1128942E+00
         21   -1    0    0  503  502  0.00000000000E+00  0.00000000000E+00  0.24990274043E+03  0.24990274043E+03  0.00000000000E+00 0.  1.
         21   -1    0    0  501  503 -0.00000000000E+00 -0.00000000000E+00 -0.36700668975E+03  0.36700668975E+03  0.00000000000E+00 0.  1.
          6    1    1    2  501    0  0.15279364451E+02  0.14697739867E+03 -0.26300839842E+03  0.34726536300E+03  0.17200000000E+03 0.  1.
         -6    1    1    2    0  502 -0.15279364451E+02 -0.14697739867E+03  0.14590444911E+03  0.26964406718E+03  0.17200000000E+03 0.  1.
<mgrwt>
<rscale>  2 0.22675938E+03</rscale>
<asrwt>0</asrwt>
<pdfrwt beam="1">  1       21 0.62475685E-01 0.22675938E+03</pdfrwt>
<pdfrwt beam="2">  1       21 0.91751672E-01 0.22675938E+03</pdfrwt>
<totfact> 0.23186246E+03</totfact>
</mgrwt>
</event>
<event>
 4    1  0.1119790E+000  0.2051070E+03  0.7546771E-02  0.1145500E+00
         21   -1    0    0  501  502  0.00000000000E+00  0.00000000000E+00  0.91635771278E+02  0.91635771278E+02  0.00000000000E+00 0. -1.
         21   -1    0    0  502  503 -0.00000000000E+00 -0.00000000000E+00 -0.54826430976E+03  0.54826430976E+03  0.00000000000E+00 0.  1.
          6    1    1    2  501    0  0.10117506379E+03  0.47418341241E+02 -0.99278037006E+02  0.22787062393E+03  0.17200000000E+03 0. -1.
         -6    1    1    2    0  503 -0.10117506379E+03 -0.47418341241E+02 -0.35735050148E+03  0.41202945711E+03  0.17200000000E+03 0.  1.
<mgrwt>
<rscale>  2 0.20510703E+03</rscale>
<asrwt>0</asrwt>
<pdfrwt beam="1">  1       21 0.22908943E-01 0.20510703E+03</pdfrwt>
<pdfrwt beam="2">  1       21 0.13706608E+00 0.20510703E+03</pdfrwt>
<totfact> 0.66920864E+03</totfact>
</mgrwt>
</event>
<event>
 4    1  0.1119790E+000  0.1774425E+03  0.7546771E-02  0.1170301E+00
         21   -1    0    0  501  502  0.00000000000E+00  0.00000000000E+00  0.93086910821E+02  0.93086910821E+02  0.00000000000E+00 0. -1.
         21   -1    0    0  502  503 -0.00000000000E+00 -0.00000000000E+00 -0.69417960781E+03  0.69417960781E+03  0.00000000000E+00 0. -1.
          6    1    1    2  501    0  0.43259429245E+02 -0.55178597247E+01 -0.18679947961E+02  0.17842299586E+03  0.17200000000E+03 0. -1.
         -6    1    1    2    0  503 -0.43259429245E+02  0.55178597247E+01 -0.58241274903E+03  0.60884352277E+03  0.17200000000E+03 0. -1.
<mgrwt>
<rscale>  2 0.17744246E+03</rscale>
<asrwt>0</asrwt>
<pdfrwt beam="1">  1       21 0.23271728E-01 0.17744246E+03</pdfrwt>
<pdfrwt beam="2">  1       21 0.17354490E+00 0.17744246E+03</pdfrwt>
<totfact> 0.35495269E+03</totfact>
</mgrwt>
</event>
<event>
 4    1  0.1119790E+000  0.1738727E+03  0.7546771E-02  0.1173868E+00
         21   -1    0    0  503  502  0.00000000000E+00  0.00000000000E+00  0.11736416271E+03  0.11736416271E+03  0.00000000000E+00 0. -1.
         21   -1    0    0  501  503 -0.00000000000E+00 -0.00000000000E+00 -0.42027759256E+03  0.42027759256E+03  0.00000000000E+00 0. -1.
          6    1    1    2  501    0  0.19715128434E+02 -0.16094241053E+02 -0.31870955486E+03  0.36305301437E+03  0.17200000000E+03 0. -1.
         -6    1    1    2    0  502 -0.19715128434E+02  0.16094241053E+02  0.15796125011E+02  0.17458874090E+03  0.17200000000E+03 0. -1.
<mgrwt>
<rscale>  2 0.17387269E+03</rscale>
<asrwt>0</asrwt>
<pdfrwt beam="1">  1       21 0.29341041E-01 0.17387269E+03</pdfrwt>
<pdfrwt beam="2">  1       21 0.10506940E+00 0.17387269E+03</pdfrwt>
<totfact> 0.82322195E+03</totfact>
</mgrwt>
</event>
<event>
 4    1  0.1119790E+000  0.1998444E+03  0.7546771E-02  0.1149870E+00
         21   -1    0    0  503  502  0.00000000000E+00  0.00000000000E+00  0.19082749726E+03  0.19082749726E+03  0.00000000000E+00 0.  1.
         21   -1    0    0  501  503 -0.00000000000E+00 -0.00000000000E+00 -0.29519935578E+03  0.29519935578E+03  0.00000000000E+00 0.  1.
          6    1    1    2  501    0  0.61172733269E+02 -0.81312230059E+02 -0.18328496111E+03  0.27116629404E+03  0.17200000000E+03 0.  1.
         -6    1    1    2    0  502 -0.61172733269E+02  0.81312230059E+02  0.78913102595E+02  0.21486055900E+03  0.17200000000E+03 0.  1.
<mgrwt>
<rscale>  2 0.19984439E+03</rscale>
<asrwt>0</asrwt>
<pdfrwt beam="1">  1       21 0.47706874E-01 0.19984439E+03</pdfrwt>
<pdfrwt beam="2">  1       21 0.73799839E-01 0.19984439E+03</pdfrwt>
<totfact> 0.68868881E+03</totfact>
</mgrwt>
</event>
<event>
 4    1  0.1119790E+000  0.1887759E+03  0.7546771E-02  0.1159570E+00
         21   -1    0    0  501  502  0.00000000000E+00  0.00000000000E+00  0.78976230431E+02  0.78976230431E+02  0.00000000000E+00 0.  1.
         21   -1    0    0  502  503 -0.00000000000E+00 -0.00000000000E+00 -0.69539513585E+03  0.69539513585E+03  0.00000000000E+00 0. -1.
          6    1    1    2  501    0  0.10345335506E+02  0.77105921941E+02 -0.78781481538E+02  0.20455530059E+03  0.17200000000E+03 0.  1.
         -6    1    1    2    0  503 -0.10345335506E+02 -0.77105921941E+02 -0.53763742388E+03  0.56981606569E+03  0.17200000000E+03 0. -1.
<mgrwt>
<rscale>  2 0.18877592E+03</rscale>
<asrwt>0</asrwt>
<pdfrwt beam="1">  1       21 0.19744057E-01 0.18877592E+03</pdfrwt>
<pdfrwt beam="2">  1       21 0.17384879E+00 0.18877592E+03</pdfrwt>
<totfact> 0.47591273E+03</totfact>
</mgrwt>
</event>
<event>
 4    1  0.1119790E+000  0.1733551E+03  0.7546771E-02  0.1174394E+00
         21   -1    0    0  503  502  0.00000000000E+00  0.00000000000E+00  0.14600926431E+03  0.14600926431E+03  0.00000000000E+00 0. -1.
         21   -1    0    0  501  503 -0.00000000000E+00 -0.00000000000E+00 -0.42854824065E+03  0.42854824065E+03  0.00000000000E+00 0. -1.
          6    1    1    2  501    0 -0.62314974713E+00  0.21623949887E+02 -0.34837368950E+03  0.38912236001E+03  0.17200000000E+03 0. -1.
         -6    1    1    2    0  502  0.62314974713E+00 -0.21623949887E+02  0.65834713156E+02  0.18543514494E+03  0.17200000000E+03 0. -1.
<mgrwt>
<rscale>  2 0.17335508E+03</rscale>
<asrwt>0</asrwt>
<pdfrwt beam="1">  1       21 0.36502316E-01 0.17335508E+03</pdfrwt>
<pdfrwt beam="2">  1       21 0.10713706E+00 0.17335508E+03</pdfrwt>
<totfact> 0.51184832E+03</totfact>
</mgrwt>
</event>
<event>
 4    1  0.1119790E+000  0.3356809E+03  0.7546771E-02  0.1068651E+00
         21   -1    0    0  503  502  0.00000000000E+00  0.00000000000E+00  0.10190858894E+04  0.10190858894E+04  0.00000000000E+00 0. -1.
         21   -1    0    0  501  503 -0.00000000000E+00 -0.00000000000E+00 -0.14192350410E+03  0.14192350410E+03  0.00000000000E+00 0.  1.
          6    1    1    2  501    0  0.22145400679E+03  0.18454202194E+03  0.16573824862E+03  0.37436720214E+03  0.17200000000E+03 0.  1.
         -6    1    1    2    0  502 -0.22145400679E+03 -0.18454202194E+03  0.71142413673E+03  0.78664219141E+03  0.17200000000E+03 0. -1.
<mgrwt>
<rscale>  2 0.33568085E+03</rscale>
<asrwt>0</asrwt>
<pdfrwt beam="1">  1       21 0.25477145E+00 0.33568085E+03</pdfrwt>
<pdfrwt beam="2">  1       21 0.35480879E-01 0.33568085E+03</pdfrwt>
<totfact> 0.41354998E+02</totfact>
</mgrwt>
</event>
<event>
 4    1  0.1119790E+000  0.2777323E+03  0.7546771E-02  0.1096934E+00
         21   -1    0    0  503  502  0.00000000000E+00  0.00000000000E+00  0.42083782307E+03  0.42083782307E+03  0.00000000000E+00 0. -1.
         21   -1    0    0  501  503 -0.00000000000E+00 -0.00000000000E+00 -0.18785396195E+03  0.18785396195E+03  0.00000000000E+00 0.  1.
          6    1    1    2  501    0  0.21698858484E+03 -0.21613899428E+02  0.69051771716E+02  0.28618761988E+03  0.17200000000E+03 0.  1.
         -6    1    1    2    0  502 -0.21698858484E+03  0.21613899428E+02  0.16393208941E+03  0.32250416514E+03  0.17200000000E+03 0.  1.
<mgrwt>
<rscale>  2 0.27773226E+03</rscale>
<asrwt>0</asrwt>
<pdfrwt beam="1">  1       21 0.10520945E+00 0.27773226E+03</pdfrwt>
<pdfrwt beam="2">  1       21 0.46963491E-01 0.27773226E+03</pdfrwt>
<totfact> 0.29652944E+03</totfact>
</mgrwt>
</event>
<event>
 4    1  0.1119790E+000  0.1860329E+03  0.7546771E-02  0.1162089E+00
         21   -1    0    0  501  502  0.00000000000E+00  0.00000000000E+00  0.67958841449E+03  0.67958841449E+03  0.00000000000E+00 0.  1.
         21   -1    0    0  502  503 -0.00000000000E+00 -0.00000000000E+00 -0.75040037822E+02  0.75040037822E+02  0.00000000000E+00 0. -1.
          6    1    1    2  501    0 -0.60460498703E+02  0.36996788038E+02  0.51616792037E+03  0.54866889492E+03  0.17200000000E+03 0.  1.
         -6    1    1    2    0  503  0.60460498703E+02 -0.36996788038E+02  0.88380456301E+02  0.20595955740E+03  0.17200000000E+03 0. -1.
<mgrwt>
<rscale>  2 0.18603288E+03</rscale>
<asrwt>0</asrwt>
<pdfrwt beam="1">  1       21 0.16989708E+00 0.18603288E+03</pdfrwt>
<pdfrwt beam="2">  1       21 0.18760012E-01 0.18603288E+03</pdfrwt>
<totfact> 0.55902821E+03</totfact>
</mgrwt>
</event>
<event>
 4    1  0.1119790E+000  0.1921260E+03  0.7546771E-02  0.1156558E+00
         21   -1    0    0  503  502  0.00000000000E+00  0.00000000000E+00  0.61254681247E+03  0.61254681247E+03  0.00000000000E+00 0.  1.
         21   -1    0    0  501  503 -0.00000000000E+00 -0.00000000000E+00 -0.21355830173E+03  0.21355830173E+03  0.00000000000E+00 0.  1.
          6    1    1    2  501    0  0.84485541215E+02  0.13805500911E+02 -0.15046299860E+03  0.24403178579E+03  0.17200000000E+03 0.  1.
         -6    1    1    2    0  502 -0.84485541215E+02 -0.13805500911E+02  0.54945150934E+03  0.58207332841E+03  0.17200000000E+03 0.  1.
<mgrwt>
<rscale>  2 0.19212600E+03</rscale>
<asrwt>0</asrwt>
<pdfrwt beam="1">  1       21 0.15313670E+00 0.19212600E+03</pdfrwt>
<pdfrwt beam="2">  1       21 0.53389577E-01 0.19212600E+03</pdfrwt>
<totfact> 0.94047658E+02</totfact>
</mgrwt>
</event>
<event>
 4    1  0.1119790E+000  0.1783616E+03  0.7546771E-02  0.1169398E+00
         21   -1    0    0  503  502  0.00000000000E+00  0.00000000000E+00  0.28650623006E+03  0.28650623006E+03  0.00000000000E+00 0. -1.
         21   -1    0    0  501  503 -0.00000000000E+00 -0.00000000000E+00 -0.11591888140E+03  0.11591888140E+03  0.00000000000E+00 0. -1.
          6    1    1    2  501    0 -0.18966845000E+02  0.43233406134E+02  0.44002261283E+02  0.18370919306E+03  0.17200000000E+03 0. -1.
         -6    1    1    2    0  502  0.18966845000E+02 -0.43233406134E+02  0.12658508738E+03  0.21871591840E+03  0.17200000000E+03 0. -1.
<mgrwt>
<rscale>  2 0.17836162E+03</rscale>
<asrwt>0</asrwt>
<pdfrwt beam="1">  1       21 0.71626556E-01 0.17836162E+03</pdfrwt>
<pdfrwt beam="2">  1       21 0.28979721E-01 0.17836162E+03</pdfrwt>
<totfact> 0.20248016E+04</totfact>
</mgrwt>
</event>
<event>
 4    1  0.1119790E+000  0.1883508E+03  0.7546771E-02  0.1159957E+00
         21   -1    0    0  501  502  0.00000000000E+00  0.00000000000E+00  0.57557003376E+03  0.57557003376E+03  0.00000000000E+00 0. -1.
         21   -1    0    0  502  503 -0.00000000000E+00 -0.00000000000E+00 -0.79132681290E+02  0.79132681290E+02  0.00000000000E+00 0. -1.
          6    1    1    2  501    0  0.76662376014E+02  0.38583755077E+01  0.40214408997E+03  0.44406742287E+03  0.17200000000E+03 0. -1.
         -6    1    1    2    0  503 -0.76662376014E+02 -0.38583755077E+01  0.94293262498E+02  0.21063529218E+03  0.17200000000E+03 0. -1.
<mgrwt>
<rscale>  2 0.18835076E+03</rscale>
<asrwt>0</asrwt>
<pdfrwt beam="1">  1       21 0.14389250E+00 0.18835076E+03</pdfrwt>
<pdfrwt beam="2">  1       21 0.19783172E-01 0.18835076E+03</pdfrwt>
<totfact> 0.78772767E+03</totfact>
</mgrwt>
</event>
<event>
 4    1  0.1119790E+000  0.1929564E+03  0.7546771E-02  0.1155822E+00
         21   -1    0    0  501  502  0.00000000000E+00  0.00000000000E+00  0.45926802174E+03  0.45926802174E+03  0.00000000000E+00 0. -1.
         21   -1    0    0  502  503 -0.00000000000E+00 -0.00000000000E+00 -0.15385200232E+03  0.15385200232E+03  0.00000000000E+00 0. -1.
          6    1    1    2  501    0  0.87081512124E+02 -0.80614603564E+01  0.36356128704E+03  0.41159322921E+03  0.17200000000E+03 0. -1.
         -6    1    1    2    0  503 -0.87081512124E+02  0.80614603564E+01 -0.58145267623E+02  0.20152679485E+03  0.17200000000E+03 0. -1.
<mgrwt>
<rscale>  2 0.19295641E+03</rscale>
<asrwt>0</asrwt>
<pdfrwt beam="1">  1       21 0.11481700E+00 0.19295641E+03</pdfrwt>
<pdfrwt beam="2">  1       21 0.38463002E-01 0.19295641E+03</pdfrwt>
<totfact> 0.38355076E+03</totfact>
</mgrwt>
</event>
<event>
 4    1  0.1119790E+000  0.1835670E+03  0.7546771E-02  0.1164395E+00
         21   -1    0    0  501  502  0.00000000000E+00  0.00000000000E+00  0.60387874195E+03  0.60387874195E+03  0.00000000000E+00 0.  1.
         21   -1    0    0  502  503 -0.00000000000E+00 -0.00000000000E+00 -0.61941068831E+02  0.61941068831E+02  0.00000000000E+00 0.  1.
          6    1    1    2  501    0  0.63875591767E+02 -0.57218891013E+01  0.37578688736E+03  0.41822555631E+03  0.17200000000E+03 0.  1.
         -6    1    1    2    0  503 -0.63875591767E+02  0.57218891013E+01  0.16615078575E+03  0.24759425447E+03  0.17200000000E+03 0.  1.
<mgrwt>
<rscale>  2 0.18356697E+03</rscale>
<asrwt>0</asrwt>
<pdfrwt beam="1">  1       21 0.15096967E+00 0.18356697E+03</pdfrwt>
<pdfrwt beam="2">  1       21 0.15485269E-01 0.18356697E+03</pdfrwt>
<totfact> 0.10952524E+04</totfact>
</mgrwt>
</event>
<event>
 4    1  0.1119790E+000  0.1865638E+03  0.7546771E-02  0.1161598E+00
         21   -1    0    0  503  502  0.00000000000E+00  0.00000000000E+00  0.30978553516E+03  0.30978553516E+03  0.00000000000E+00 0.  1.
         21   -1    0    0  501  503 -0.00000000000E+00 -0.00000000000E+00 -0.11448315153E+03  0.11448315153E+03  0.00000000000E+00 0.  1.
          6    1    1    2  501    0 -0.54980058536E+02 -0.46896090230E+02  0.12657195467E+03  0.22544735488E+03  0.17200000000E+03 0.  1.
         -6    1    1    2    0  502  0.54980058536E+02  0.46896090230E+02  0.68730428958E+02  0.19882133180E+03  0.17200000000E+03 0.  1.
<mgrwt>
<rscale>  2 0.18656380E+03</rscale>
<asrwt>0</asrwt>
<pdfrwt beam="1">  1       21 0.77446382E-01 0.18656380E+03</pdfrwt>
<pdfrwt beam="2">  1       21 0.28620788E-01 0.18656380E+03</pdfrwt>
<totfact> 0.17343081E+04</totfact>
</mgrwt>
</event>
<event>
 4    1  0.1119790E+000  0.1957812E+03  0.7546771E-02  0.1153348E+00
         21   -1    0    0  501  502  0.00000000000E+00  0.00000000000E+00  0.21076487627E+03  0.21076487627E+03  0.00000000000E+00 0. -1.
         21   -1    0    0  502  503 -0.00000000000E+00 -0.00000000000E+00 -0.31362553259E+03  0.31362553259E+03  0.00000000000E+00 0.  1.
          6    1    1    2  501    0  0.36919192945E+02 -0.85925944491E+02  0.11851737592E+03  0.22885948340E+03  0.17200000000E+03 0. -1.
         -6    1    1    2    0  503 -0.36919192945E+02  0.85925944491E+02 -0.22137803224E+03  0.29553092546E+03  0.17200000000E+03 0.  1.
<mgrwt>
<rscale>  2 0.19578124E+03</rscale>
<asrwt>0</asrwt>
<pdfrwt beam="1">  1       21 0.52691219E-01 0.19578124E+03</pdfrwt>
<pdfrwt beam="2">  1       21 0.78406383E-01 0.19578124E+03</pdfrwt>
<totfact> 0.49020948E+03</totfact>
</mgrwt>
</event>
<event>
 4    1  0.1119790E+000  0.1745915E+03  0.7546771E-02  0.1173142E+00
         21   -1    0    0  503  502  0.00000000000E+00  0.00000000000E+00  0.34135030604E+03  0.34135030604E+03  0.00000000000E+00 0. -1.
         21   -1    0    0  501  503 -0.00000000000E+00 -0.00000000000E+00 -0.33178088230E+03  0.33178088230E+03  0.00000000000E+00 0. -1.
          6    1    1    2  501    0 -0.26005192289E+02 -0.14897170997E+02 -0.28294439974E+03  0.33247515558E+03  0.17200000000E+03 0. -1.
         -6    1    1    2    0  502  0.26005192289E+02  0.14897170997E+02  0.29251382348E+03  0.34065603276E+03  0.17200000000E+03 0. -1.
<mgrwt>
<rscale>  2 0.17459151E+03</rscale>
<asrwt>0</asrwt>
<pdfrwt beam="1">  1       21 0.85337577E-01 0.17459151E+03</pdfrwt>
<pdfrwt beam="2">  1       21 0.82945221E-01 0.17459151E+03</pdfrwt>
<totfact> 0.15315001E+03</totfact>
</mgrwt>
</event>
<event>
 4    1  0.1119790E+000  0.1890530E+03  0.7546771E-02  0.1159318E+00
         21   -1    0    0  503  502  0.00000000000E+00  0.00000000000E+00  0.11242127553E+03  0.11242127553E+03  0.00000000000E+00 0.  1.
         21   -1    0    0  501  503 -0.00000000000E+00 -0.00000000000E+00 -0.46087722171E+03  0.46087722171E+03  0.00000000000E+00 0.  1.
          6    1    1    2  501    0 -0.13874357649E+02 -0.77230341759E+02 -0.33387489095E+03  0.38368407094E+03  0.17200000000E+03 0.  1.
         -6    1    1    2    0  502  0.13874357649E+02  0.77230341759E+02 -0.14581055235E+02  0.18961442630E+03  0.17200000000E+03 0.  1.
<mgrwt>
<rscale>  2 0.18905296E+03</rscale>
<asrwt>0</asrwt>
<pdfrwt beam="1">  1       21 0.28105319E-01 0.18905296E+03</pdfrwt>
<pdfrwt beam="2">  1       21 0.11521930E+00 0.18905296E+03</pdfrwt>
<totfact> 0.70776363E+03</totfact>
</mgrwt>
</event>
<event>
 4    1  0.1119790E+000  0.2046951E+03  0.7546771E-02  0.1145837E+00
         21   -1    0    0  503  502  0.00000000000E+00  0.00000000000E+00  0.42269482045E+03  0.42269482045E+03  0.00000000000E+00 0. -1.
         21   -1    0    0  501  503 -0.00000000000E+00 -0.00000000000E+00 -0.11084802367E+03  0.11084802367E+03  0.00000000000E+00 0. -1.
          6    1    1    2  501    0 -0.45329309572E+02 -0.10129835670E+03  0.69172467674E+02  0.21606696569E+03  0.17200000000E+03 0. -1.
         -6    1    1    2    0  502  0.45329309572E+02  0.10129835670E+03  0.24267432911E+03  0.31747587843E+03  0.17200000000E+03 0. -1.
<mgrwt>
<rscale>  2 0.20469515E+03</rscale>
<asrwt>0</asrwt>
<pdfrwt beam="1">  1       21 0.10567370E+00 0.20469515E+03</pdfrwt>
<pdfrwt beam="2">  1       21 0.27712007E-01 0.20469515E+03</pdfrwt>
<totfact> 0.88652180E+03</totfact>
</mgrwt>
</event>
<event>
 4    1  0.1119790E+000  0.2950041E+03  0.7546771E-02  0.1087765E+00
         21   -1    0    0  503  502  0.00000000000E+00  0.00000000000E+00  0.11197634003E+03  0.11197634003E+03  0.00000000000E+00 0. -1.
         21   -1    0    0  501  503 -0.00000000000E+00 -0.00000000000E+00 -0.77782324903E+03  0.77782324903E+03  0.00000000000E+00 0.  1.
          6    1    1    2  501    0 -0.64813637615E+02  0.23074359729E+03 -0.32027610207E+03  0.43543564033E+03  0.17200000000E+03 0.  1.
         -6    1    1    2    0  502  0.64813637615E+02 -0.23074359729E+03 -0.34557080693E+03  0.45436394874E+03  0.17200000000E+03 0. -1.
<mgrwt>
<rscale>  2 0.29500409E+03</rscale>
<asrwt>0</asrwt>
<pdfrwt beam="1">  1       21 0.27994086E-01 0.29500409E+03</pdfrwt>
<pdfrwt beam="2">  1       21 0.19445581E+00 0.29500409E+03</pdfrwt>
<totfact> 0.16286659E+03</totfact>
</mgrwt>
</event>
<event>
 4    1  0.1119790E+000  0.2316007E+03  0.7546771E-02  0.1125518E+00
         21   -1    0    0  503  502  0.00000000000E+00  0.00000000000E+00  0.32898986259E+02  0.32898986259E+02  0.00000000000E+00 0.  1.
         21   -1    0    0  501  503 -0.00000000000E+00 -0.00000000000E+00 -0.17494230964E+04  0.17494230964E+04  0.00000000000E+00 0. -1.
          6    1    1    2  501    0 -0.13336532763E+03 -0.79174301881E+02 -0.10906982051E+04  0.11150163476E+04  0.17200000000E+03 0. -1.
         -6    1    1    2    0  502  0.13336532763E+03  0.79174301881E+02 -0.62582590503E+03  0.66730573510E+03  0.17200000000E+03 0.  1.
<mgrwt>
<rscale>  2 0.23160069E+03</rscale>
<asrwt>0</asrwt>
<pdfrwt beam="1">  1       21 0.82247467E-02 0.23160069E+03</pdfrwt>
<pdfrwt beam="2">  1       21 0.43735577E+00 0.23160069E+03</pdfrwt>
<totfact> 0.54294321E+02</totfact>
</mgrwt>
</event>
<event>
 4    1  0.1119790E+000  0.1960405E+03  0.7546771E-02  0.1153123E+00
         21   -1    0    0  501  502  0.00000000000E+00  0.00000000000E+00  0.72125794371E+03  0.72125794371E+03  0.00000000000E+00 0. -1.
         21   -1    0    0  502  503 -0.00000000000E+00 -0.00000000000E+00 -0.39654830004E+03  0.39654830004E+03  0.00000000000E+00 0. -1.
          6    1    1    2  501    0 -0.93527452137E+02 -0.10024475321E+02  0.68235379662E+03  0.70995674387E+03  0.17200000000E+03 0. -1.
         -6    1    1    2    0  503  0.93527452137E+02  0.10024475321E+02 -0.35764415295E+03  0.40784949987E+03  0.17200000000E+03 0. -1.
<mgrwt>
<rscale>  2 0.19604049E+03</rscale>
<asrwt>0</asrwt>
<pdfrwt beam="1">  1       21 0.18031448E+00 0.19604049E+03</pdfrwt>
<pdfrwt beam="2">  1       21 0.99137076E-01 0.19604049E+03</pdfrwt>
<totfact> 0.15104051E+02</totfact>
</mgrwt>
</event>
<event>
 4    1  0.1119790E+000  0.1757822E+03  0.7546771E-02  0.1171949E+00
         21   -1    0    0  503  502  0.00000000000E+00  0.00000000000E+00  0.14486809005E+04  0.14486809005E+04  0.00000000000E+00 0.  1.
         21   -1    0    0  501  503 -0.00000000000E+00 -0.00000000000E+00 -0.21335622098E+02  0.21335622098E+02  0.00000000000E+00 0.  1.
          6    1    1    2  501    0 -0.35877073423E+02  0.53107810552E+01  0.72631164719E+03  0.74728038756E+03  0.17200000000E+03 0.  1.
         -6    1    1    2    0  502  0.35877073423E+02 -0.53107810552E+01  0.70103363116E+03  0.72273613499E+03  0.17200000000E+03 0.  1.
<mgrwt>
<rscale>  2 0.17578216E+03</rscale>
<asrwt>0</asrwt>
<pdfrwt beam="1">  1       21 0.36216989E+00 0.17578216E+03</pdfrwt>
<pdfrwt beam="2">  1       21 0.53339104E-02 0.17578216E+03</pdfrwt>
<totfact> 0.36544201E+03</totfact>
</mgrwt>
</event>
<event>
 4    1  0.1119790E+000  0.1745230E+03  0.7546771E-02  0.1173212E+00
         21   -1    0    0  503  502  0.00000000000E+00  0.00000000000E+00  0.33394175818E+02  0.33394175818E+02  0.00000000000E+00 0.  1.
         21   -1    0    0  501  503 -0.00000000000E+00 -0.00000000000E+00 -0.99596280176E+03  0.99596280176E+03  0.00000000000E+00 0.  1.
          6    1    1    2  501    0  0.47656486594E+01 -0.29181513820E+02 -0.63064703447E+03  0.65435002426E+03  0.17200000000E+03 0.  1.
         -6    1    1    2    0  502 -0.47656486594E+01  0.29181513820E+02 -0.33192159147E+03  0.37500695332E+03  0.17200000000E+03 0.  1.
<mgrwt>
<rscale>  2 0.17452298E+03</rscale>
<asrwt>0</asrwt>
<pdfrwt beam="1">  1       21 0.83485441E-02 0.17452298E+03</pdfrwt>
<pdfrwt beam="2">  1       21 0.24899070E+00 0.17452298E+03</pdfrwt>
<totfact> 0.76504833E+03</totfact>
</mgrwt>
</event>
<event>
 4    1  0.1119790E+000  0.1844470E+03  0.7546771E-02  0.1163567E+00
         21   -1    0    0  501  502  0.00000000000E+00  0.00000000000E+00  0.39177599727E+03  0.39177599727E+03  0.00000000000E+00 0. -1.
         21   -1    0    0  502  503 -0.00000000000E+00 -0.00000000000E+00 -0.13201891996E+03  0.13201891996E+03  0.00000000000E+00 0. -1.
          6    1    1    2  501    0 -0.29296730212E+01  0.66544019829E+02  0.28309134941E+03  0.33787779103E+03  0.17200000000E+03 0. -1.
         -6    1    1    2    0  503  0.29296730212E+01 -0.66544019829E+02 -0.23334272101E+02  0.18591712620E+03  0.17200000000E+03 0. -1.
<mgrwt>
<rscale>  2 0.18444698E+03</rscale>
<asrwt>0</asrwt>
<pdfrwt beam="1">  1       21 0.97943997E-01 0.18444698E+03</pdfrwt>
<pdfrwt beam="2">  1       21 0.33004731E-01 0.18444698E+03</pdfrwt>
<totfact> 0.76672257E+03</totfact>
</mgrwt>
</event>
<event>
 4    1  0.1119790E+000  0.1756331E+03  0.7546771E-02  0.1172098E+00
         21   -1    0    0  503  502  0.00000000000E+00  0.00000000000E+00  0.31989094393E+03  0.31989094393E+03  0.00000000000E+00 0. -1.
         21   -1    0    0  501  503 -0.00000000000E+00 -0.00000000000E+00 -0.10529820705E+03  0.10529820705E+03  0.00000000000E+00 0. -1.
          6    1    1    2  501    0  0.25364260446E+02  0.24892592183E+02  0.16899379045E+03  0.24373323135E+03  0.17200000000E+03 0. -1.
         -6    1    1    2    0  502 -0.25364260446E+02 -0.24892592183E+02  0.45598946431E+02  0.18145591963E+03  0.17200000000E+03 0. -1.
<mgrwt>
<rscale>  2 0.17563310E+03</rscale>
<asrwt>0</asrwt>
<pdfrwt beam="1">  1       21 0.79972734E-01 0.17563310E+03</pdfrwt>
<pdfrwt beam="2">  1       21 0.26324552E-01 0.17563310E+03</pdfrwt>
<totfact> 0.19086002E+04</totfact>
</mgrwt>
</event>
<event>
 4    1  0.1119790E+000  0.2961449E+03  0.7546771E-02  0.1087184E+00
         21   -1    0    0  503  502  0.00000000000E+00  0.00000000000E+00  0.35096211470E+03  0.35096211470E+03  0.00000000000E+00 0. -1.
         21   -1    0    0  501  503 -0.00000000000E+00 -0.00000000000E+00 -0.46393495286E+03  0.46393495286E+03  0.00000000000E+00 0.  1.
          6    1    1    2  501    0  0.21360839100E+03 -0.11175532031E+03 -0.33324243762E+03  0.44581646286E+03  0.17200000000E+03 0.  1.
         -6    1    1    2    0  502 -0.21360839100E+03  0.11175532031E+03  0.22026959946E+03  0.36908060470E+03  0.17200000000E+03 0. -1.
<mgrwt>
<rscale>  2 0.29614489E+03</rscale>
<asrwt>0</asrwt>
<pdfrwt beam="1">  1       21 0.87740529E-01 0.29614489E+03</pdfrwt>
<pdfrwt beam="2">  1       21 0.11598374E+00 0.29614489E+03</pdfrwt>
<totfact> 0.58405198E+02</totfact>
</mgrwt>
</event>
<event>
 4    1  0.1119790E+000  0.2836930E+03  0.7546771E-02  0.1093689E+00
         21   -1    0    0  501  502  0.00000000000E+00  0.00000000000E+00  0.41123701958E+02  0.41123701958E+02  0.00000000000E+00 0.  1.
         21   -1    0    0  502  503 -0.00000000000E+00 -0.00000000000E+00 -0.20304000394E+04  0.20304000394E+04  0.00000000000E+00 0. -1.
          6    1    1    2  501    0  0.16027130923E+03  0.15877922703E+03 -0.11914841176E+04  0.12247922836E+04  0.17200000000E+03 0. -1.
         -6    1    1    2    0  503 -0.16027130923E+03 -0.15877922703E+03 -0.79779221985E+03  0.84673145776E+03  0.17200000000E+03 0.  1.
<mgrwt>
<rscale>  2 0.28369303E+03</rscale>
<asrwt>0</asrwt>
<pdfrwt beam="1">  1       21 0.10280926E-01 0.28369303E+03</pdfrwt>
<pdfrwt beam="2">  1       21 0.50759996E+00 0.28369303E+03</pdfrwt>
<totfact> 0.11282747E+02</totfact>
</mgrwt>
</event>
<event>
 4    1  0.1119790E+000  0.1833409E+03  0.7546771E-02  0.1164608E+00
         21   -1    0    0  501  502  0.00000000000E+00  0.00000000000E+00  0.27047755635E+03  0.27047755635E+03  0.00000000000E+00 0. -1.
         21   -1    0    0  502  503 -0.00000000000E+00 -0.00000000000E+00 -0.36823262951E+03  0.36823262951E+03  0.00000000000E+00 0.  1.
          6    1    1    2  501    0 -0.60218493780E+02  0.20090383155E+02  0.21105997243E+03  0.27957146215E+03  0.17200000000E+03 0. -1.
         -6    1    1    2    0  503  0.60218493780E+02 -0.20090383155E+02 -0.30881504559E+03  0.35913872371E+03  0.17200000000E+03 0.  1.
<mgrwt>
<rscale>  2 0.18334091E+03</rscale>
<asrwt>0</asrwt>
<pdfrwt beam="1">  1       21 0.67619390E-01 0.18334091E+03</pdfrwt>
<pdfrwt beam="2">  1       21 0.92058157E-01 0.18334091E+03</pdfrwt>
<totfact> 0.20103489E+03</totfact>
</mgrwt>
</event>
<event>
 4    1  0.1119790E+000  0.2286761E+03  0.7546771E-02  0.1127575E+00
         21   -1    0    0  503  502  0.00000000000E+00  0.00000000000E+00  0.48653486793E+02  0.48653486793E+02  0.00000000000E+00 0.  1.
         21   -1    0    0  501  503 -0.00000000000E+00 -0.00000000000E+00 -0.10968029080E+04  0.10968029080E+04  0.00000000000E+00 0. -1.
          6    1    1    2  501    0 -0.12741834097E+03  0.80457051081E+02 -0.44295550563E+03  0.49850010096E+03  0.17200000000E+03 0. -1.
         -6    1    1    2    0  502  0.12741834097E+03 -0.80457051081E+02 -0.60519391556E+03  0.64695629382E+03  0.17200000000E+03 0. -1.
<mgrwt>
<rscale>  2 0.22867613E+03</rscale>
<asrwt>0</asrwt>
<pdfrwt beam="1">  1       21 0.12163371E-01 0.22867613E+03</pdfrwt>
<pdfrwt beam="2">  1       21 0.27420073E+00 0.22867613E+03</pdfrwt>
<totfact> 0.26469827E+03</totfact>
</mgrwt>
</event>
<event>
 4    1  0.1119790E+000  0.1962316E+03  0.7546771E-02  0.1152958E+00
         21   -1    0    0  503  502  0.00000000000E+00  0.00000000000E+00  0.15292996346E+03  0.15292996346E+03  0.00000000000E+00 0. -1.
         21   -1    0    0  501  503 -0.00000000000E+00 -0.00000000000E+00 -0.25187728685E+03  0.25187728685E+03  0.00000000000E+00 0. -1.
          6    1    1    2  501    0  0.55985615782E+02 -0.76081852947E+02 -0.45791716933E+02  0.20150364479E+03  0.17200000000E+03 0. -1.
         -6    1    1    2    0  502 -0.55985615782E+02  0.76081852947E+02 -0.53155606460E+02  0.20330360553E+03  0.17200000000E+03 0. -1.
<mgrwt>
<rscale>  2 0.19623159E+03</rscale>
<asrwt>0</asrwt>
<pdfrwt beam="1">  1       21 0.38232491E-01 0.19623159E+03</pdfrwt>
<pdfrwt beam="2">  1       21 0.62969321E-01 0.19623159E+03</pdfrwt>
<totfact> 0.15369699E+04</totfact>
</mgrwt>
</event>
<event>
 4    1  0.1119790E+000  0.1895126E+03  0.7546771E-02  0.1158902E+00
         21   -1    0    0  501  502  0.00000000000E+00  0.00000000000E+00  0.60909138663E+03  0.60909138663E+03  0.00000000000E+00 0.  1.
         21   -1    0    0  502  503 -0.00000000000E+00 -0.00000000000E+00 -0.62157022186E+02  0.62157022186E+02  0.00000000000E+00 0.  1.
          6    1    1    2  501    0  0.37961444459E+02  0.69928317337E+02  0.34952516195E+03  0.39759637784E+03  0.17200000000E+03 0.  1.
         -6    1    1    2    0  503 -0.37961444459E+02 -0.69928317337E+02  0.19740920249E+03  0.27365203098E+03  0.17200000000E+03 0.  1.
<mgrwt>
<rscale>  2 0.18951264E+03</rscale>
<asrwt>0</asrwt>
<pdfrwt beam="1">  1       21 0.15227283E+00 0.18951264E+03</pdfrwt>
<pdfrwt beam="2">  1       21 0.15539257E-01 0.18951264E+03</pdfrwt>
<totfact> 0.10591672E+04</totfact>
</mgrwt>
</event>
<event>
 4    1  0.1119790E+000  0.1787985E+03  0.7546771E-02  0.1168971E+00
         21   -1    0    0  501  502  0.00000000000E+00  0.00000000000E+00  0.15616433882E+03  0.15616433882E+03  0.00000000000E+00 0. -1.
         21   -1    0    0  502  503 -0.00000000000E+00 -0.00000000000E+00 -0.20663831027E+03  0.20663831027E+03  0.00000000000E+00 0. -1.
          6    1    1    2  501    0 -0.46681025986E+02 -0.14344673832E+02 -0.77275273258E+01  0.17896536685E+03  0.17200000000E+03 0. -1.
         -6    1    1    2    0  503  0.46681025986E+02  0.14344673832E+02 -0.42746444128E+02  0.18383728224E+03  0.17200000000E+03 0. -1.
<mgrwt>
<rscale>  2 0.17879846E+03</rscale>
<asrwt>0</asrwt>
<pdfrwt beam="1">  1       21 0.39041085E-01 0.17879846E+03</pdfrwt>
<pdfrwt beam="2">  1       21 0.51659577E-01 0.17879846E+03</pdfrwt>
<totfact> 0.22694833E+04</totfact>
</mgrwt>
</event>
<event>
 4    1  0.1119790E+000  0.2015539E+03  0.7546771E-02  0.1148435E+00
         21   -1    0    0  503  502  0.00000000000E+00  0.00000000000E+00  0.37404476033E+02  0.37404476033E+02  0.00000000000E+00 0. -1.
         21   -1    0    0  501  503 -0.00000000000E+00 -0.00000000000E+00 -0.11241220985E+04  0.11241220985E+04  0.00000000000E+00 0. -1.
          6    1    1    2  501    0  0.51714743791E+02 -0.91463436259E+02 -0.65020699165E+03  0.68072983399E+03  0.17200000000E+03 0. -1.
         -6    1    1    2    0  502 -0.51714743791E+02  0.91463436259E+02 -0.43651063081E+03  0.48079674053E+03  0.17200000000E+03 0. -1.
<mgrwt>
<rscale>  2 0.20155390E+03</rscale>
<asrwt>0</asrwt>
<pdfrwt beam="1">  1       21 0.93511189E-02 0.20155390E+03</pdfrwt>
<pdfrwt beam="2">  1       21 0.28103053E+00 0.20155390E+03</pdfrwt>
<totfact> 0.39693691E+03</totfact>
</mgrwt>
</event>
<event>
 4    1  0.1119790E+000  0.3974204E+03  0.7546771E-02  0.1044677E+00
         21   -1    0    0  503  502  0.00000000000E+00  0.00000000000E+00  0.14251087264E+03  0.14251087264E+03  0.00000000000E+00 0. -1.
         21   -1    0    0  501  503 -0.00000000000E+00 -0.00000000000E+00 -0.11111492034E+04  0.11111492034E+04  0.00000000000E+00 0.  1.
          6    1    1    2  501    0 -0.26189098923E+03 -0.24448334219E+03 -0.51613099573E+03  0.65140939477E+03  0.17200000000E+03 0.  1.
         -6    1    1    2    0  502  0.26189098923E+03  0.24448334219E+03 -0.45250733507E+03  0.60225068131E+03  0.17200000000E+03 0. -1.
<mgrwt>
<rscale>  2 0.39742043E+03</rscale>
<asrwt>0</asrwt>
<pdfrwt beam="1">  1       21 0.35627719E-01 0.39742043E+03</pdfrwt>
<pdfrwt beam="2">  1       21 0.27778729E+00 0.39742043E+03</pdfrwt>
<totfact> 0.28557232E+02</totfact>
</mgrwt>
</event>
<event>
 4    1  0.1119790E+000  0.3248836E+03  0.7546771E-02  0.1073423E+00
         21   -1    0    0  501  502  0.00000000000E+00  0.00000000000E+00  0.10060506535E+03  0.10060506535E+03  0.00000000000E+00 0. -1.
         21   -1    0    0  502  503 -0.00000000000E+00 -0.00000000000E+00 -0.13628852421E+04  0.13628852421E+04  0.00000000000E+00 0.  1.
          6    1    1    2  501    0 -0.25463453234E+03 -0.10548264757E+03 -0.28005280518E+03  0.42892762523E+03  0.17200000000E+03 0. -1.
         -6    1    1    2    0  503  0.25463453234E+03  0.10548264757E+03 -0.98222737162E+03  0.10345626823E+04  0.17200000000E+03 0.  1.
<mgrwt>
<rscale>  2 0.32488357E+03</rscale>
<asrwt>0</asrwt>
<pdfrwt beam="1">  1       21 0.25151266E-01 0.32488357E+03</pdfrwt>
<pdfrwt beam="2">  1       21 0.34072131E+00 0.32488357E+03</pdfrwt>
<totfact> 0.25318304E+02</totfact>
</mgrwt>
</event>
<event>
 4    1  0.1119790E+000  0.2555863E+03  0.7546771E-02  0.1109824E+00
         21   -1    0    0  503  502  0.00000000000E+00  0.00000000000E+00  0.51304528316E+03  0.51304528316E+03  0.00000000000E+00 0.  1.
         21   -1    0    0  501  503 -0.00000000000E+00 -0.00000000000E+00 -0.13817726841E+03  0.13817726841E+03  0.00000000000E+00 0. -1.
          6    1    1    2  501    0  0.14454420772E+02  0.18849779183E+03  0.96189240439E+02  0.27308738122E+03  0.17200000000E+03 0. -1.
         -6    1    1    2    0  502 -0.14454420772E+02 -0.18849779183E+03  0.27867877431E+03  0.37813517035E+03  0.17200000000E+03 0.  1.
<mgrwt>
<rscale>  2 0.25558628E+03</rscale>
<asrwt>0</asrwt>
<pdfrwt beam="1">  1       21 0.12826132E+00 0.25558628E+03</pdfrwt>
<pdfrwt beam="2">  1       21 0.34544318E-01 0.25558628E+03</pdfrwt>
<totfact> 0.34418177E+03</totfact>
</mgrwt>
</event>
<event>
 4    1  0.1119790E+000  0.1810454E+03  0.7546771E-02  0.1166795E+00
         21   -1    0    0  503  502  0.00000000000E+00  0.00000000000E+00  0.26045557500E+03  0.26045557500E+03  0.00000000000E+00 0.  1.
         21   -1    0    0  501  503 -0.00000000000E+00 -0.00000000000E+00 -0.23464031493E+03  0.23464031493E+03  0.00000000000E+00 0.  1.
          6    1    1    2  501    0  0.54620244867E+02  0.14493625688E+02 -0.15565449821E+03  0.23875878863E+03  0.17200000000E+03 0.  1.
         -6    1    1    2    0  502 -0.54620244867E+02 -0.14493625688E+02  0.18146975828E+03  0.25633710131E+03  0.17200000000E+03 0.  1.
<mgrwt>
<rscale>  2 0.18104540E+03</rscale>
<asrwt>0</asrwt>
<pdfrwt beam="1">  1       21 0.65113894E-01 0.18104540E+03</pdfrwt>
<pdfrwt beam="2">  1       21 0.58660079E-01 0.18104540E+03</pdfrwt>
<totfact> 0.59577712E+03</totfact>
</mgrwt>
</event>
<event>
 4    1  0.1119790E+000  0.2045421E+03  0.7546771E-02  0.1145962E+00
         21   -1    0    0  503  502  0.00000000000E+00  0.00000000000E+00  0.12790554147E+03  0.12790554147E+03  0.00000000000E+00 0.  1.
         21   -1    0    0  501  503 -0.00000000000E+00 -0.00000000000E+00 -0.34297906797E+03  0.34297906797E+03  0.00000000000E+00 0. -1.
          6    1    1    2  501    0 -0.10664131110E+03 -0.29683466039E+02 -0.15820183415E+03  0.25858325104E+03  0.17200000000E+03 0. -1.
         -6    1    1    2    0  502  0.10664131110E+03  0.29683466039E+02 -0.56871692345E+02  0.21230135840E+03  0.17200000000E+03 0.  1.
<mgrwt>
<rscale>  2 0.20454212E+03</rscale>
<asrwt>0</asrwt>
<pdfrwt beam="1">  1       21 0.31976386E-01 0.20454212E+03</pdfrwt>
<pdfrwt beam="2">  1       21 0.85744766E-01 0.20454212E+03</pdfrwt>
<totfact> 0.10958321E+04</totfact>
</mgrwt>
</event>
<event>
 4    1  0.1119790E+000  0.1880313E+03  0.7546771E-02  0.1160249E+00
         21   -1    0    0  503  502  0.00000000000E+00  0.00000000000E+00  0.38586014990E+03  0.38586014990E+03  0.00000000000E+00 0.  1.
         21   -1    0    0  501  503 -0.00000000000E+00 -0.00000000000E+00 -0.92482638089E+02  0.92482638089E+02  0.00000000000E+00 0.  1.
          6    1    1    2  501    0  0.68851321235E+02  0.32113133289E+02  0.12370281598E+03  0.22507364227E+03  0.17200000000E+03 0. -1.
         -6    1    1    2    0  502 -0.68851321235E+02 -0.32113133289E+02  0.16967469584E+03  0.25326914572E+03  0.17200000000E+03 0. -1.
<mgrwt>
<rscale>  2 0.18803127E+03</rscale>
<asrwt>0</asrwt>
<pdfrwt beam="1">  1       21 0.96465033E-01 0.18803127E+03</pdfrwt>
<pdfrwt beam="2">  1       21 0.23120661E-01 0.18803127E+03</pdfrwt>
<totfact> 0.15752048E+04</totfact>
</mgrwt>
</event>
<event>
 4    1  0.1119790E+000  0.1771039E+03  0.7546771E-02  0.1170636E+00
         21   -1    0    0  501  502  0.00000000000E+00  0.00000000000E+00  0.86879808568E+02  0.86879808568E+02  0.00000000000E+00 0. -1.
         21   -1    0    0  502  503 -0.00000000000E+00 -0.00000000000E+00 -0.39177935035E+03  0.39177935035E+03  0.00000000000E+00 0. -1.
          6    1    1    2  501    0 -0.20511384347E+02 -0.36892720307E+02 -0.85395208588E+02  0.19661671177E+03  0.17200000000E+03 0. -1.
         -6    1    1    2    0  503  0.20511384347E+02  0.36892720307E+02 -0.21950433320E+03  0.28204244715E+03  0.17200000000E+03 0. -1.
<mgrwt>
<rscale>  2 0.17710390E+03</rscale>
<asrwt>0</asrwt>
<pdfrwt beam="1">  1       21 0.21719952E-01 0.17710390E+03</pdfrwt>
<pdfrwt beam="2">  1       21 0.97944836E-01 0.17710390E+03</pdfrwt>
<totfact> 0.17221556E+04</totfact>
</mgrwt>
</event>
<event>
 4    1  0.1119790E+000  0.1722458E+03  0.7546771E-02  0.1175526E+00
         21   -1    0    0  503  502  0.00000000000E+00  0.00000000000E+00  0.75797684322E+02  0.75797684322E+02  0.00000000000E+00 0. -1.
         21   -1    0    0  501  503 -0.00000000000E+00 -0.00000000000E+00 -0.39494697458E+03  0.39494697458E+03  0.00000000000E+00 0. -1.
          6    1    1    2  501    0 -0.59944984234E+01  0.69781356654E+01 -0.13732775206E+03  0.22028967265E+03  0.17200000000E+03 0. -1.
         -6    1    1    2    0  502  0.59944984234E+01 -0.69781356654E+01 -0.18182153820E+03  0.25045498626E+03  0.17200000000E+03 0. -1.
<mgrwt>
<rscale>  2 0.17224584E+03</rscale>
<asrwt>0</asrwt>
<pdfrwt beam="1">  1       21 0.18949422E-01 0.17224584E+03</pdfrwt>
<pdfrwt beam="2">  1       21 0.98736741E-01 0.17224584E+03</pdfrwt>
<totfact> 0.21868019E+04</totfact>
</mgrwt>
</event>
<event>
 4    1  0.1119790E+000  0.1754556E+03  0.7546771E-02  0.1172275E+00
         21   -1    0    0  503  502  0.00000000000E+00  0.00000000000E+00  0.87044548936E+02  0.87044548936E+02  0.00000000000E+00 0.  1.
         21   -1    0    0  501  503 -0.00000000000E+00 -0.00000000000E+00 -0.36311487831E+03  0.36311487831E+03  0.00000000000E+00 0. -1.
          6    1    1    2  501    0  0.32271344860E+02 -0.12618589119E+02 -0.17434398209E+03  0.24734690736E+03  0.17200000000E+03 0.  1.
         -6    1    1    2    0  502 -0.32271344860E+02  0.12618589119E+02 -0.10172634729E+03  0.20281251989E+03  0.17200000000E+03 0.  1.
<mgrwt>
<rscale>  2 0.17545560E+03</rscale>
<asrwt>0</asrwt>
<pdfrwt beam="1">  1       21 0.21761138E-01 0.17545560E+03</pdfrwt>
<pdfrwt beam="2">  1       21 0.90778718E-01 0.17545560E+03</pdfrwt>
<totfact> 0.20507672E+04</totfact>
</mgrwt>
</event>
<event>
 4    1  0.1119790E+000  0.2485461E+03  0.7546771E-02  0.1114227E+00
         21   -1    0    0  503  502  0.00000000000E+00  0.00000000000E+00  0.71595063127E+03  0.71595063127E+03  0.00000000000E+00 0. -1.
         21   -1    0    0  501  503 -0.00000000000E+00 -0.00000000000E+00 -0.86993413724E+02  0.86993413724E+02  0.00000000000E+00 0. -1.
          6    1    1    2  501    0  0.95236606177E+02  0.15205649108E+03  0.27822780045E+03  0.37307626108E+03  0.17200000000E+03 0. -1.
         -6    1    1    2    0  502 -0.95236606177E+02 -0.15205649108E+03  0.35072941710E+03  0.42986778392E+03  0.17200000000E+03 0. -1.
<mgrwt>
<rscale>  2 0.24854615E+03</rscale>
<asrwt>0</asrwt>
<pdfrwt beam="1">  1       21 0.17898764E+00 0.24854615E+03</pdfrwt>
<pdfrwt beam="2">  1       21 0.21748356E-01 0.24854615E+03</pdfrwt>
<totfact> 0.34801983E+03</totfact>
</mgrwt>
</event>
<event>
 4    1  0.1119790E+000  0.1825217E+03  0.7546771E-02  0.1165385E+00
         21   -1    0    0  501  502  0.00000000000E+00  0.00000000000E+00  0.19968890747E+03  0.19968890747E+03  0.00000000000E+00 0. -1.
         21   -1    0    0  502  503 -0.00000000000E+00 -0.00000000000E+00 -0.18912816956E+03  0.18912816956E+03  0.00000000000E+00 0. -1.
          6    1    1    2  501    0 -0.44987523344E+02  0.41307447995E+02  0.72032914151E+02  0.19622161766E+03  0.17200000000E+03 0.  1.
         -6    1    1    2    0  503  0.44987523344E+02 -0.41307447995E+02 -0.61472176240E+02  0.19259545937E+03  0.17200000000E+03 0.  1.
<mgrwt>
<rscale>  2 0.18252173E+03</rscale>
<asrwt>0</asrwt>
<pdfrwt beam="1">  1       21 0.49922227E-01 0.18252173E+03</pdfrwt>
<pdfrwt beam="2">  1       21 0.47282042E-01 0.18252173E+03</pdfrwt>
<totfact> 0.16462362E+04</totfact>
</mgrwt>
</event>
<event>
 4    1  0.1119790E+000  0.1872878E+03  0.7546771E-02  0.1160931E+00
         21   -1    0    0  503  502  0.00000000000E+00  0.00000000000E+00  0.50316744625E+03  0.50316744625E+03  0.00000000000E+00 0.  1.
         21   -1    0    0  501  503 -0.00000000000E+00 -0.00000000000E+00 -0.71707835511E+02  0.71707835511E+02  0.00000000000E+00 0.  1.
          6    1    1    2  501    0 -0.55386465074E+02 -0.49244716733E+02  0.26368610950E+03  0.32343015781E+03  0.17200000000E+03 0.  1.
         -6    1    1    2    0  502  0.55386465074E+02  0.49244716733E+02  0.16777350124E+03  0.25144512395E+03  0.17200000000E+03 0.  1.
<mgrwt>
<rscale>  2 0.18728775E+03</rscale>
<asrwt>0</asrwt>
<pdfrwt beam="1">  1       21 0.12579185E+00 0.18728775E+03</pdfrwt>
<pdfrwt beam="2">  1       21 0.17926960E-01 0.18728775E+03</pdfrwt>
<totfact> 0.13331472E+04</totfact>
</mgrwt>
</event>
<event>
 4    1  0.1119790E+000  0.1802921E+03  0.7546771E-02  0.1167521E+00
         21   -1    0    0  503  502  0.00000000000E+00  0.00000000000E+00  0.56048692737E+02  0.56048692737E+02  0.00000000000E+00 0. -1.
         21   -1    0    0  501  503 -0.00000000000E+00 -0.00000000000E+00 -0.79301417163E+03  0.79301417163E+03  0.00000000000E+00 0. -1.
          6    1    1    2  501    0 -0.54017963275E+02 -0.18203539131E+01 -0.58853607657E+03  0.61553226355E+03  0.17200000000E+03 0. -1.
         -6    1    1    2    0  502  0.54017963275E+02  0.18203539131E+01 -0.14842940232E+03  0.23353060082E+03  0.17200000000E+03 0. -1.
<mgrwt>
<rscale>  2 0.18029214E+03</rscale>
<asrwt>0</asrwt>
<pdfrwt beam="1">  1       21 0.14012173E-01 0.18029214E+03</pdfrwt>
<pdfrwt beam="2">  1       21 0.19825354E+00 0.18029214E+03</pdfrwt>
<totfact> 0.61867928E+03</totfact>
</mgrwt>
</event>
<event>
 4    1  0.1119790E+000  0.2085471E+03  0.7546771E-02  0.1142722E+00
         21   -1    0    0  503  502  0.00000000000E+00  0.00000000000E+00  0.11082911027E+03  0.11082911027E+03  0.00000000000E+00 0.  1.
         21   -1    0    0  501  503 -0.00000000000E+00 -0.00000000000E+00 -0.49882729930E+03  0.49882729930E+03  0.00000000000E+00 0.  1.
          6    1    1    2  501    0  0.23083991869E+02  0.11565045227E+03 -0.33478511145E+03  0.39442739337E+03  0.17200000000E+03 0.  1.
         -6    1    1    2    0  502 -0.23083991869E+02 -0.11565045227E+03 -0.53213077573E+02  0.21522901620E+03  0.17200000000E+03 0.  1.
<mgrwt>
<rscale>  2 0.20854711E+03</rscale>
<asrwt>0</asrwt>
<pdfrwt beam="1">  1       21 0.27707278E-01 0.20854711E+03</pdfrwt>
<pdfrwt beam="2">  1       21 0.12470682E+00 0.20854711E+03</pdfrwt>
<totfact> 0.58923928E+03</totfact>
</mgrwt>
</event>
<event>
 4    1  0.1119790E+000  0.2141476E+03  0.7546771E-02  0.1138323E+00
         21   -1    0    0  501  502  0.00000000000E+00  0.00000000000E+00  0.76820948500E+02  0.76820948500E+02  0.00000000000E+00 0. -1.
         21   -1    0    0  502  503 -0.00000000000E+00 -0.00000000000E+00 -0.60684518810E+03  0.60684518810E+03  0.00000000000E+00 0. -1.
          6    1    1    2  501    0  0.91161048409E+02 -0.89245973436E+02 -0.22138811654E+03  0.30801278978E+03  0.17200000000E+03 0. -1.
         -6    1    1    2    0  503 -0.91161048409E+02  0.89245973436E+02 -0.30863612305E+03  0.37565334682E+03  0.17200000000E+03 0. -1.
<mgrwt>
<rscale>  2 0.21414757E+03</rscale>
<asrwt>0</asrwt>
<pdfrwt beam="1">  1       21 0.19205238E-01 0.21414757E+03</pdfrwt>
<pdfrwt beam="2">  1       21 0.15171129E+00 0.21414757E+03</pdfrwt>
<totfact> 0.71018445E+03</totfact>
</mgrwt>
</event>
<event>
 4    1  0.1119790E+000  0.1724597E+03  0.7546771E-02  0.1175307E+00
         21   -1    0    0  503  502  0.00000000000E+00  0.00000000000E+00  0.10097123625E+03  0.10097123625E+03  0.00000000000E+00 0. -1.
         21   -1    0    0  501  503 -0.00000000000E+00 -0.00000000000E+00 -0.29772184267E+03  0.29772184267E+03  0.00000000000E+00 0. -1.
          6    1    1    2  501    0  0.82312900009E+01 -0.95187353845E+01 -0.11890996910E+03  0.20948016902E+03  0.17200000000E+03 0.  1.
         -6    1    1    2    0  502 -0.82312900009E+01  0.95187353845E+01 -0.77840637316E+02  0.18921290991E+03  0.17200000000E+03 0.  1.
<mgrwt>
<rscale>  2 0.17245974E+03</rscale>
<asrwt>0</asrwt>
<pdfrwt beam="1">  1       21 0.25242809E-01 0.17245974E+03</pdfrwt>
<pdfrwt beam="2">  1       21 0.74430460E-01 0.17245974E+03</pdfrwt>
<totfact> 0.24333704E+04</totfact>
</mgrwt>
</event>
<event>
 4    1  0.1119790E+000  0.1747629E+03  0.7546771E-02  0.1172970E+00
         21   -1    0    0  503  502  0.00000000000E+00  0.00000000000E+00  0.26800740186E+03  0.26800740186E+03  0.00000000000E+00 0.  1.
         21   -1    0    0  501  503 -0.00000000000E+00 -0.00000000000E+00 -0.26143841027E+03  0.26143841027E+03  0.00000000000E+00 0.  1.
          6    1    1    2  501    0  0.29869336335E+02 -0.81182077200E+01 -0.19554063351E+03  0.26225602358E+03  0.17200000000E+03 0.  1.
         -6    1    1    2    0  502 -0.29869336335E+02  0.81182077200E+01  0.20210962509E+03  0.26718978855E+03  0.17200000000E+03 0.  1.
<mgrwt>
<rscale>  2 0.17476293E+03</rscale>
<asrwt>0</asrwt>
<pdfrwt beam="1">  1       21 0.67001850E-01 0.17476293E+03</pdfrwt>
<pdfrwt beam="2">  1       21 0.65359603E-01 0.17476293E+03</pdfrwt>
<totfact> 0.44577325E+03</totfact>
</mgrwt>
</event>
<event>
 4    1  0.1119790E+000  0.1753468E+03  0.7546771E-02  0.1172384E+00
         21   -1    0    0  501  502  0.00000000000E+00  0.00000000000E+00  0.41207184166E+02  0.41207184166E+02  0.00000000000E+00 0. -1.
         21   -1    0    0  502  503 -0.00000000000E+00 -0.00000000000E+00 -0.12715667956E+04  0.12715667956E+04  0.00000000000E+00 0. -1.
          6    1    1    2  501    0  0.15051862167E+02  0.30592899423E+02 -0.19324541743E+03  0.26094113399E+03  0.17200000000E+03 0. -1.
         -6    1    1    2    0  503 -0.15051862167E+02 -0.30592899423E+02 -0.10371141940E+04  0.10518328457E+04  0.17200000000E+03 0. -1.
<mgrwt>
<rscale>  2 0.17534675E+03</rscale>
<asrwt>0</asrwt>
<pdfrwt beam="1">  1       21 0.10301796E-01 0.17534675E+03</pdfrwt>
<pdfrwt beam="2">  1       21 0.31789170E+00 0.17534675E+03</pdfrwt>
<totfact> 0.21219812E+03</totfact>
</mgrwt>
</event>
<event>
 4    1  0.1119790E+000  0.1772075E+03  0.7546771E-02  0.1170533E+00
         21   -1    0    0  501  502  0.00000000000E+00  0.00000000000E+00  0.50592061202E+03  0.50592061202E+03  0.00000000000E+00 0. -1.
         21   -1    0    0  502  503 -0.00000000000E+00 -0.00000000000E+00 -0.89815917861E+02  0.89815917861E+02  0.00000000000E+00 0. -1.
          6    1    1    2  501    0 -0.28992163015E+02  0.31272430073E+02  0.37360908056E+03  0.41350484335E+03  0.17200000000E+03 0.  1.
         -6    1    1    2    0  503  0.28992163015E+02 -0.31272430073E+02  0.42495613595E+02  0.18223168653E+03  0.17200000000E+03 0.  1.
<mgrwt>
<rscale>  2 0.17720753E+03</rscale>
<asrwt>0</asrwt>
<pdfrwt beam="1">  1       21 0.12648014E+00 0.17720753E+03</pdfrwt>
<pdfrwt beam="2">  1       21 0.22453981E-01 0.17720753E+03</pdfrwt>
<totfact> 0.87040145E+03</totfact>
</mgrwt>
</event>
<event>
 4    1  0.1119790E+000  0.1768056E+03  0.7546771E-02  0.1170931E+00
         21   -1    0    0  501  502  0.00000000000E+00  0.00000000000E+00  0.10433181627E+04  0.10433181627E+04  0.00000000000E+00 0. -1.
         21   -1    0    0  502  503 -0.00000000000E+00 -0.00000000000E+00 -0.42941358946E+02  0.42941358946E+02  0.00000000000E+00 0. -1.
          6    1    1    2  501    0 -0.35836981437E+02  0.19797349011E+02  0.79878655064E+03  0.81811990426E+03  0.17200000000E+03 0. -1.
         -6    1    1    2    0  503  0.35836981437E+02 -0.19797349011E+02  0.20159025316E+03  0.26813961743E+03  0.17200000000E+03 0. -1.
<mgrwt>
<rscale>  2 0.17680561E+03</rscale>
<asrwt>0</asrwt>
<pdfrwt beam="1">  1       21 0.26082946E+00 0.17680561E+03</pdfrwt>
<pdfrwt beam="2">  1       21 0.10735343E-01 0.17680561E+03</pdfrwt>
<totfact> 0.41865547E+03</totfact>
</mgrwt>
</event>
<event>
 4    1  0.1119790E+000  0.1952612E+03  0.7546771E-02  0.1153800E+00
         21   -1    0    0  503  502  0.00000000000E+00  0.00000000000E+00  0.64609826708E+03  0.64609826708E+03  0.00000000000E+00 0.  1.
         21   -1    0    0  501  503 -0.00000000000E+00 -0.00000000000E+00 -0.65178357135E+02  0.65178357135E+02  0.00000000000E+00 0.  1.
          6    1    1    2  501    0 -0.59077325644E+02 -0.71083199020E+02  0.18106335184E+03  0.26629098552E+03  0.17200000000E+03 0.  1.
         -6    1    1    2    0  502  0.59077325644E+02  0.71083199020E+02  0.39985655810E+03  0.44498563870E+03  0.17200000000E+03 0.  1.
<mgrwt>
<rscale>  2 0.19526124E+03</rscale>
<asrwt>0</asrwt>
<pdfrwt beam="1">  1       21 0.16152455E+00 0.19526124E+03</pdfrwt>
<pdfrwt beam="2">  1       21 0.16294591E-01 0.19526124E+03</pdfrwt>
<totfact> 0.82559438E+03</totfact>
</mgrwt>
</event>
<event>
 4    1  0.1119790E+000  0.1762201E+03  0.7546771E-02  0.1171512E+00
         21   -1    0    0  501  502  0.00000000000E+00  0.00000000000E+00  0.24527452414E+03  0.24527452414E+03  0.00000000000E+00 0. -1.
         21   -1    0    0  502  503 -0.00000000000E+00 -0.00000000000E+00 -0.12877717648E+03  0.12877717648E+03  0.00000000000E+00 0.  1.
          6    1    1    2  501    0  0.22389363158E+02  0.31116761209E+02  0.82526137079E+02  0.19458699780E+03  0.17200000000E+03 0. -1.
         -6    1    1    2    0  503 -0.22389363158E+02 -0.31116761209E+02  0.33971210587E+02  0.17946470282E+03  0.17200000000E+03 0. -1.
<mgrwt>
<rscale>  2 0.17622014E+03</rscale>
<asrwt>0</asrwt>
<pdfrwt beam="1">  1       21 0.61318630E-01 0.17622014E+03</pdfrwt>
<pdfrwt beam="2">  1       21 0.32194294E-01 0.17622014E+03</pdfrwt>
<totfact> 0.23171771E+04</totfact>
</mgrwt>
</event>
<event>
 4    1  0.1119790E+000  0.2288246E+03  0.7546771E-02  0.1127470E+00
         21   -1    0    0  503  502  0.00000000000E+00  0.00000000000E+00  0.16907211060E+03  0.16907211060E+03  0.00000000000E+00 0.  1.
         21   -1    0    0  501  503 -0.00000000000E+00 -0.00000000000E+00 -0.39924344187E+03  0.39924344187E+03  0.00000000000E+00 0.  1.
          6    1    1    2  501    0  0.54889776927E+02  0.14058381452E+03 -0.24966270466E+03  0.33866231354E+03  0.17200000000E+03 0.  1.
         -6    1    1    2    0  502 -0.54889776927E+02 -0.14058381452E+03  0.19491373390E+02  0.22965323893E+03  0.17200000000E+03 0.  1.
<mgrwt>
<rscale>  2 0.22882460E+03</rscale>
<asrwt>0</asrwt>
<pdfrwt beam="1">  1       21 0.42268028E-01 0.22882460E+03</pdfrwt>
<pdfrwt beam="2">  1       21 0.99810860E-01 0.22882460E+03</pdfrwt>
<totfact> 0.43201596E+03</totfact>
</mgrwt>
</event>
<event>
 4    1  0.1119790E+000  0.1770273E+03  0.7546771E-02  0.1170711E+00
         21   -1    0    0  503  502  0.00000000000E+00  0.00000000000E+00  0.60219382133E+02  0.60219382133E+02  0.00000000000E+00 0.  1.
         21   -1    0    0  501  503 -0.00000000000E+00 -0.00000000000E+00 -0.54458258636E+03  0.54458258636E+03  0.00000000000E+00 0.  1.
          6    1    1    2  501    0  0.38252665370E+02 -0.17070660704E+02 -0.17846875312E+03  0.25137575401E+03  0.17200000000E+03 0. -1.
         -6    1    1    2    0  502 -0.38252665370E+02  0.17070660704E+02 -0.30589445110E+03  0.35342621448E+03  0.17200000000E+03 0. -1.
<mgrwt>
<rscale>  2 0.17702733E+03</rscale>
<asrwt>0</asrwt>
<pdfrwt beam="1">  1       21 0.15054846E-01 0.17702733E+03</pdfrwt>
<pdfrwt beam="2">  1       21 0.13614564E+00 0.17702733E+03</pdfrwt>
<totfact> 0.15146664E+04</totfact>
</mgrwt>
</event>
<event>
 4    1  0.1119790E+000  0.1923387E+03  0.7546771E-02  0.1156369E+00
         21   -1    0    0  501  502  0.00000000000E+00  0.00000000000E+00  0.69972319691E+02  0.69972319691E+02  0.00000000000E+00 0.  1.
         21   -1    0    0  502  503 -0.00000000000E+00 -0.00000000000E+00 -0.62686408823E+03  0.62686408823E+03  0.00000000000E+00 0.  1.
          6    1    1    2  501    0  0.83143935044E+02  0.22299629344E+02 -0.14056753075E+03  0.23822975907E+03  0.17200000000E+03 0.  1.
         -6    1    1    2    0  503 -0.83143935044E+02 -0.22299629344E+02 -0.41632423779E+03  0.45860664885E+03  0.17200000000E+03 0.  1.
<mgrwt>
<rscale>  2 0.19233873E+03</rscale>
<asrwt>0</asrwt>
<pdfrwt beam="1">  1       21 0.17493080E-01 0.19233873E+03</pdfrwt>
<pdfrwt beam="2">  1       21 0.15671602E+00 0.19233873E+03</pdfrwt>
<totfact> 0.78786816E+03</totfact>
</mgrwt>
</event>
<event>
 4    1  0.1119790E+000  0.2094679E+03  0.7546771E-02  0.1141988E+00
         21   -1    0    0  501  502  0.00000000000E+00  0.00000000000E+00  0.21143501814E+03  0.21143501814E+03  0.00000000000E+00 0.  1.
         21   -1    0    0  502  503 -0.00000000000E+00 -0.00000000000E+00 -0.23161937985E+03  0.23161937985E+03  0.00000000000E+00 0. -1.
          6    1    1    2  501    0 -0.20121557117E+02  0.11784711394E+03  0.61365682690E+02  0.21827177174E+03  0.17200000000E+03 0.  1.
         -6    1    1    2    0  503  0.20121557117E+02 -0.11784711394E+03 -0.81550044396E+02  0.22478262626E+03  0.17200000000E+03 0. -1.
<mgrwt>
<rscale>  2 0.20946794E+03</rscale>
<asrwt>0</asrwt>
<pdfrwt beam="1">  1       21 0.52858755E-01 0.20946794E+03</pdfrwt>
<pdfrwt beam="2">  1       21 0.57904845E-01 0.20946794E+03</pdfrwt>
<totfact> 0.93741636E+03</totfact>
</mgrwt>
</event>
<event>
 4    1  0.1119790E+000  0.1980053E+03  0.7546771E-02  0.1151433E+00
         21   -1    0    0  503  502  0.00000000000E+00  0.00000000000E+00  0.67740515846E+03  0.67740515846E+03  0.00000000000E+00 0. -1.
         21   -1    0    0  501  503 -0.00000000000E+00 -0.00000000000E+00 -0.73530467051E+02  0.73530467051E+02  0.00000000000E+00 0. -1.
          6    1    1    2  501    0 -0.69202313312E+02  0.69520852695E+02  0.12869831709E+03  0.23615538518E+03  0.17200000000E+03 0. -1.
         -6    1    1    2    0  502  0.69202313312E+02 -0.69520852695E+02  0.47517637432E+03  0.51478024033E+03  0.17200000000E+03 0. -1.
<mgrwt>
<rscale>  2 0.19800533E+03</rscale>
<asrwt>0</asrwt>
<pdfrwt beam="1">  1       21 0.16935127E+00 0.19800533E+03</pdfrwt>
<pdfrwt beam="2">  1       21 0.18382619E-01 0.19800533E+03</pdfrwt>
<totfact> 0.57964775E+03</totfact>
</mgrwt>
</event>
<event>
 4    1  0.1119790E+000  0.1835540E+03  0.7546771E-02  0.1164407E+00
         21   -1    0    0  503  502  0.00000000000E+00  0.00000000000E+00  0.12359181847E+04  0.12359181847E+04  0.00000000000E+00 0.  1.
         21   -1    0    0  501  503 -0.00000000000E+00 -0.00000000000E+00 -0.58077740949E+02  0.58077740949E+02  0.00000000000E+00 0.  1.
          6    1    1    2  501    0 -0.62122848567E+02 -0.15774212083E+02  0.11762496217E+03  0.21800849939E+03  0.17200000000E+03 0.  1.
         -6    1    1    2    0  502  0.62122848567E+02  0.15774212083E+02  0.10602154816E+04  0.10759874263E+04  0.17200000000E+03 0.  1.
<mgrwt>
<rscale>  2 0.18355401E+03</rscale>
<asrwt>0</asrwt>
<pdfrwt beam="1">  1       21 0.30897946E+00 0.18355401E+03</pdfrwt>
<pdfrwt beam="2">  1       21 0.14519439E-01 0.18355401E+03</pdfrwt>
<totfact> 0.12772345E+03</totfact>
</mgrwt>
</event>
<event>
 4    1  0.1119790E+000  0.2160159E+03  0.7546771E-02  0.1136889E+00
         21   -1    0    0  503  502  0.00000000000E+00  0.00000000000E+00  0.86227935455E+03  0.86227935455E+03  0.00000000000E+00 0.  1.
         21   -1    0    0  501  503 -0.00000000000E+00 -0.00000000000E+00 -0.12714265825E+03  0.12714265825E+03  0.00000000000E+00 0.  1.
          6    1    1    2  501    0 -0.36682345155E+02 -0.12543242366E+03 -0.73592494660E+01  0.21614126377E+03  0.17200000000E+03 0.  1.
         -6    1    1    2    0  502  0.36682345155E+02  0.12543242366E+03  0.74249594576E+03  0.77328074904E+03  0.17200000000E+03 0.  1.
<mgrwt>
<rscale>  2 0.21601594E+03</rscale>
<asrwt>0</asrwt>
<pdfrwt beam="1">  1       21 0.21556982E+00 0.21601594E+03</pdfrwt>
<pdfrwt beam="2">  1       21 0.31785667E-01 0.21601594E+03</pdfrwt>
<totfact> 0.99340431E+02</totfact>
</mgrwt>
</event>
<event>
 4    1  0.1119790E+000  0.1765436E+03  0.7546771E-02  0.1171191E+00
         21   -1    0    0  503  502  0.00000000000E+00  0.00000000000E+00  0.90613571397E+02  0.90613571397E+02  0.00000000000E+00 0.  1.
         21   -1    0    0  501  503 -0.00000000000E+00 -0.00000000000E+00 -0.53604874570E+03  0.53604874570E+03  0.00000000000E+00 0.  1.
          6    1    1    2  501    0 -0.39414185382E+02  0.54919292734E+01 -0.41028179473E+03  0.44665287459E+03  0.17200000000E+03 0.  1.
         -6    1    1    2    0  502  0.39414185382E+02 -0.54919292734E+01 -0.35153379580E+02  0.18000944251E+03  0.17200000000E+03 0.  1.
<mgrwt>
<rscale>  2 0.17654359E+03</rscale>
<asrwt>0</asrwt>
<pdfrwt beam="1">  1       21 0.22653393E-01 0.17654359E+03</pdfrwt>
<pdfrwt beam="2">  1       21 0.13401218E+00 0.17654359E+03</pdfrwt>
<totfact> 0.74044954E+03</totfact>
</mgrwt>
</event>
<event>
 4    1  0.1119790E+000  0.1859696E+03  0.7546771E-02  0.1162148E+00
         21   -1    0    0  503  502  0.00000000000E+00  0.00000000000E+00  0.16518783674E+03  0.16518783674E+03  0.00000000000E+00 0.  1.
         21   -1    0    0  501  503 -0.00000000000E+00 -0.00000000000E+00 -0.24368134174E+03  0.24368134174E+03  0.00000000000E+00 0.  1.
          6    1    1    2  501    0 -0.44331635793E+02  0.55094512148E+02 -0.11596312709E+03  0.21916237370E+03  0.17200000000E+03 0.  1.
         -6    1    1    2    0  502  0.44331635793E+02 -0.55094512148E+02  0.37469622089E+02  0.18970680478E+03  0.17200000000E+03 0.  1.
<mgrwt>
<rscale>  2 0.18596962E+03</rscale>
<asrwt>0</asrwt>
<pdfrwt beam="1">  1       21 0.41296959E-01 0.18596962E+03</pdfrwt>
<pdfrwt beam="2">  1       21 0.60920335E-01 0.18596962E+03</pdfrwt>
<totfact> 0.14221021E+04</totfact>
</mgrwt>
</event>
<event>
 4    1  0.1119790E+000  0.1882455E+03  0.7546771E-02  0.1160053E+00
         21   -1    0    0  501  502  0.00000000000E+00  0.00000000000E+00  0.41675763348E+03  0.41675763348E+03  0.00000000000E+00 0.  1.
         21   -1    0    0  502  503 -0.00000000000E+00 -0.00000000000E+00 -0.85926855609E+02  0.85926855609E+02  0.00000000000E+00 0.  1.
          6    1    1    2  501    0  0.76086993567E+02  0.79453350560E+01  0.13971869119E+03  0.23443052619E+03  0.17200000000E+03 0. -1.
         -6    1    1    2    0  503 -0.76086993567E+02 -0.79453350560E+01  0.19111208668E+03  0.26825396291E+03  0.17200000000E+03 0. -1.
<mgrwt>
<rscale>  2 0.18824548E+03</rscale>
<asrwt>0</asrwt>
<pdfrwt beam="1">  1       21 0.10418940E+00 0.18824548E+03</pdfrwt>
<pdfrwt beam="2">  1       21 0.21481715E-01 0.18824548E+03</pdfrwt>
<totfact> 0.15070858E+04</totfact>
</mgrwt>
</event>
<event>
 4    1  0.1119790E+000  0.1894208E+03  0.7546771E-02  0.1158985E+00
         21   -1    0    0  503  502  0.00000000000E+00  0.00000000000E+00  0.37683929007E+03  0.37683929007E+03  0.00000000000E+00 0. -1.
         21   -1    0    0  501  503 -0.00000000000E+00 -0.00000000000E+00 -0.13220066129E+03  0.13220066129E+03  0.00000000000E+00 0. -1.
          6    1    1    2  501    0  0.50818052820E+02 -0.60940688249E+02 -0.12306925141E+02  0.18982018434E+03  0.17200000000E+03 0. -1.
         -6    1    1    2    0  502 -0.50818052820E+02  0.60940688249E+02  0.25694555392E+03  0.31921976702E+03  0.17200000000E+03 0. -1.
<mgrwt>
<rscale>  2 0.18942081E+03</rscale>
<asrwt>0</asrwt>
<pdfrwt beam="1">  1       21 0.94209820E-01 0.18942081E+03</pdfrwt>
<pdfrwt beam="2">  1       21 0.33050166E-01 0.18942081E+03</pdfrwt>
<totfact> 0.83457028E+03</totfact>
</mgrwt>
</event>
<event>
 4    1  0.1119790E+000  0.1951044E+03  0.7546771E-02  0.1153936E+00
         21   -1    0    0  503  502  0.00000000000E+00  0.00000000000E+00  0.12786525788E+03  0.12786525788E+03  0.00000000000E+00 0.  1.
         21   -1    0    0  501  503 -0.00000000000E+00 -0.00000000000E+00 -0.30108403195E+03  0.30108403195E+03  0.00000000000E+00 0.  1.
          6    1    1    2  501    0  0.43452176354E+02  0.81201108644E+02 -0.10934133631E+03  0.22365428568E+03  0.17200000000E+03 0.  1.
         -6    1    1    2    0  502 -0.43452176354E+02 -0.81201108644E+02 -0.63877437766E+02  0.20529500415E+03  0.17200000000E+03 0.  1.
<mgrwt>
<rscale>  2 0.19510436E+03</rscale>
<asrwt>0</asrwt>
<pdfrwt beam="1">  1       21 0.31966315E-01 0.19510436E+03</pdfrwt>
<pdfrwt beam="2">  1       21 0.75271008E-01 0.19510436E+03</pdfrwt>
<totfact> 0.14820935E+04</totfact>
</mgrwt>
</event>
<event>
 4    1  0.1119790E+000  0.1922220E+03  0.7546771E-02  0.1156472E+00
         21   -1    0    0  501  502  0.00000000000E+00  0.00000000000E+00  0.17694545379E+03  0.17694545379E+03  0.00000000000E+00 0.  1.
         21   -1    0    0  502  503 -0.00000000000E+00 -0.00000000000E+00 -0.20888713205E+03  0.20888713205E+03  0.00000000000E+00 0.  1.
          6    1    1    2  501    0 -0.14454937676E+02  0.84595331902E+02 -0.12449768420E+02  0.19262479627E+03  0.17200000000E+03 0.  1.
         -6    1    1    2    0  503  0.14454937676E+02 -0.84595331902E+02 -0.19491909831E+02  0.19320778957E+03  0.17200000000E+03 0.  1.
<mgrwt>
<rscale>  2 0.19222205E+03</rscale>
<asrwt>0</asrwt>
<pdfrwt beam="1">  1       21 0.44236364E-01 0.19222205E+03</pdfrwt>
<pdfrwt beam="2">  1       21 0.52221783E-01 0.19222205E+03</pdfrwt>
<totfact> 0.17081063E+04</totfact>
</mgrwt>
</event>
<event>
 4    1  0.1119790E+000  0.1977359E+03  0.7546771E-02  0.1151663E+00
         21   -1    0    0  503  502  0.00000000000E+00  0.00000000000E+00  0.76813670229E+03  0.76813670229E+03  0.00000000000E+00 0.  1.
         21   -1    0    0  501  503 -0.00000000000E+00 -0.00000000000E+00 -0.51336029065E+02  0.51336029065E+02  0.00000000000E+00 0.  1.
          6    1    1    2  501    0  0.97381961304E+02 -0.56772981343E+01  0.39608751547E+03  0.44270170320E+03  0.17200000000E+03 0.  1.
         -6    1    1    2    0  502 -0.97381961304E+02  0.56772981343E+01  0.32071315775E+03  0.37677102815E+03  0.17200000000E+03 0.  1.
<mgrwt>
<rscale>  2 0.19773588E+03</rscale>
<asrwt>0</asrwt>
<pdfrwt beam="1">  1       21 0.19203414E+00 0.19773588E+03</pdfrwt>
<pdfrwt beam="2">  1       21 0.12834010E-01 0.19773588E+03</pdfrwt>
<totfact> 0.78335864E+03</totfact>
</mgrwt>
</event>
<event>
 4    1  0.1119790E+000  0.1975331E+03  0.7546771E-02  0.1151837E+00
         21   -1    0    0  501  502  0.00000000000E+00  0.00000000000E+00  0.87895692604E+02  0.87895692604E+02  0.00000000000E+00 0. -1.
         21   -1    0    0  502  503 -0.00000000000E+00 -0.00000000000E+00 -0.58131810057E+03  0.58131810057E+03  0.00000000000E+00 0.  1.
          6    1    1    2  501    0 -0.90143011347E+02  0.36188106536E+02 -0.84041753331E+02  0.21466801777E+03  0.17200000000E+03 0. -1.
         -6    1    1    2    0  503  0.90143011347E+02 -0.36188106536E+02 -0.40938065463E+03  0.45454577540E+03  0.17200000000E+03 0.  1.
<mgrwt>
<rscale>  2 0.19753314E+03</rscale>
<asrwt>0</asrwt>
<pdfrwt beam="1">  1       21 0.21973924E-01 0.19753314E+03</pdfrwt>
<pdfrwt beam="2">  1       21 0.14532952E+00 0.19753314E+03</pdfrwt>
<totfact> 0.62577567E+03</totfact>
</mgrwt>
</event>
<event>
 4    1  0.1119790E+000  0.2005768E+03  0.7546771E-02  0.1149253E+00
         21   -1    0    0  501  502  0.00000000000E+00  0.00000000000E+00  0.75433325126E+02  0.75433325126E+02  0.00000000000E+00 0.  1.
         21   -1    0    0  502  503 -0.00000000000E+00 -0.00000000000E+00 -0.11495625251E+04  0.11495625251E+04  0.00000000000E+00 0.  1.
          6    1    1    2  501    0 -0.54096128538E+02 -0.87867301875E+02 -0.88619065439E+02  0.21928153735E+03  0.17200000000E+03 0.  1.
         -6    1    1    2    0  503  0.54096128538E+02  0.87867301875E+02 -0.98551013455E+03  0.10057143129E+04  0.17200000000E+03 0.  1.
<mgrwt>
<rscale>  2 0.20057680E+03</rscale>
<asrwt>0</asrwt>
<pdfrwt beam="1">  1       21 0.18858331E-01 0.20057680E+03</pdfrwt>
<pdfrwt beam="2">  1       21 0.28739063E+00 0.20057680E+03</pdfrwt>
<totfact> 0.10284201E+03</totfact>
</mgrwt>
</event>
<event>
 4    1  0.1119790E+000  0.1739927E+03  0.7546771E-02  0.1173747E+00
         21   -1    0    0  501  502  0.00000000000E+00  0.00000000000E+00  0.13930754650E+03  0.13930754650E+03  0.00000000000E+00 0. -1.
         21   -1    0    0  502  503 -0.00000000000E+00 -0.00000000000E+00 -0.40557438451E+03  0.40557438451E+03  0.00000000000E+00 0. -1.
          6    1    1    2  501    0  0.14412176905E+02 -0.21948511674E+02  0.52483213235E+02  0.18173589541E+03  0.17200000000E+03 0. -1.
         -6    1    1    2    0  503 -0.14412176905E+02  0.21948511674E+02 -0.31875005124E+03  0.36314603560E+03  0.17200000000E+03 0. -1.
<mgrwt>
<rscale>  2 0.17399267E+03</rscale>
<asrwt>0</asrwt>
<pdfrwt beam="1">  1       21 0.34826887E-01 0.17399267E+03</pdfrwt>
<pdfrwt beam="2">  1       21 0.10139360E+00 0.17399267E+03</pdfrwt>
<totfact> 0.64059459E+03</totfact>
</mgrwt>
</event>
<event>
 4    1  0.1119790E+000  0.1938031E+03  0.7546771E-02  0.1155075E+00
         21   -1    0    0  503  502  0.00000000000E+00  0.00000000000E+00  0.46150159049E+03  0.46150159049E+03  0.00000000000E+00 0. -1.
         21   -1    0    0  501  503 -0.00000000000E+00 -0.00000000000E+00 -0.28143418227E+03  0.28143418227E+03  0.00000000000E+00 0. -1.
          6    1    1    2  501    0  0.31910143485E+02  0.83410968319E+02 -0.22315092792E+03  0.29556045663E+03  0.17200000000E+03 0. -1.
         -6    1    1    2    0  502 -0.31910143485E+02 -0.83410968319E+02  0.40321833614E+03  0.44737531614E+03  0.17200000000E+03 0. -1.
<mgrwt>
<rscale>  2 0.19380311E+03</rscale>
<asrwt>0</asrwt>
<pdfrwt beam="1">  1       21 0.11537540E+00 0.19380311E+03</pdfrwt>
<pdfrwt beam="2">  1       21 0.70358546E-01 0.19380311E+03</pdfrwt>
<totfact> 0.10644291E+03</totfact>
</mgrwt>
</event>
<event>
 4    1  0.1119790E+000  0.2774356E+03  0.7546771E-02  0.1097098E+00
         21   -1    0    0  503  502  0.00000000000E+00  0.00000000000E+00  0.16734880593E+03  0.16734880593E+03  0.00000000000E+00 0. -1.
         21   -1    0    0  501  503 -0.00000000000E+00 -0.00000000000E+00 -0.46001837176E+03  0.46001837176E+03  0.00000000000E+00 0. -1.
          6    1    1    2  501    0 -0.57919978948E+02  0.20983747991E+03 -0.14225328268E+03  0.31177955091E+03  0.17200000000E+03 0.  1.
         -6    1    1    2    0  502  0.57919978948E+02 -0.20983747991E+03 -0.15041628315E+03  0.31558762678E+03  0.17200000000E+03 0.  1.
<mgrwt>
<rscale>  2 0.27743556E+03</rscale>
<asrwt>0</asrwt>
<pdfrwt beam="1">  1       21 0.41837202E-01 0.27743556E+03</pdfrwt>
<pdfrwt beam="2">  1       21 0.11500459E+00 0.27743556E+03</pdfrwt>
<totfact> 0.30291920E+03</totfact>
</mgrwt>
</event>
<event>
 4    1  0.1119790E+000  0.2408810E+03  0.7546771E-02  0.1119207E+00
         21   -1    0    0  501  502  0.00000000000E+00  0.00000000000E+00  0.22355631332E+03  0.22355631332E+03  0.00000000000E+00 0.  1.
         21   -1    0    0  502  503 -0.00000000000E+00 -0.00000000000E+00 -0.26211923396E+03  0.26211923396E+03  0.00000000000E+00 0.  1.
          6    1    1    2  501    0  0.15425386914E+03  0.68156999652E+02  0.47689761020E+01  0.24092815502E+03  0.17200000000E+03 0.  1.
         -6    1    1    2    0  503 -0.15425386914E+03 -0.68156999652E+02 -0.43331896736E+02  0.24474739227E+03  0.17200000000E+03 0.  1.
<mgrwt>
<rscale>  2 0.24088095E+03</rscale>
<asrwt>0</asrwt>
<pdfrwt beam="1">  1       21 0.55889078E-01 0.24088095E+03</pdfrwt>
<pdfrwt beam="2">  1       21 0.65529808E-01 0.24088095E+03</pdfrwt>
<totfact> 0.62444334E+03</totfact>
</mgrwt>
</event>
<event>
 4    1  0.1119790E+000  0.1781136E+03  0.7546771E-02  0.1169641E+00
         21   -1    0    0  503  502  0.00000000000E+00  0.00000000000E+00  0.12474874732E+04  0.12474874732E+04  0.00000000000E+00 0. -1.
         21   -1    0    0  501  503 -0.00000000000E+00 -0.00000000000E+00 -0.54125086716E+02  0.54125086716E+02  0.00000000000E+00 0. -1.
          6    1    1    2  501    0  0.46264523160E+02  0.23128947231E+00  0.12282012647E+03  0.21635443851E+03  0.17200000000E+03 0. -1.
         -6    1    1    2    0  502 -0.46264523160E+02 -0.23128947231E+00  0.10705422601E+04  0.10852581214E+04  0.17200000000E+03 0. -1.
<mgrwt>
<rscale>  2 0.17811361E+03</rscale>
<asrwt>0</asrwt>
<pdfrwt beam="1">  1       21 0.31187177E+00 0.17811361E+03</pdfrwt>
<pdfrwt beam="2">  1       21 0.13531276E-01 0.17811361E+03</pdfrwt>
<totfact> 0.14072705E+03</totfact>
</mgrwt>
</event>
<event>
 4    1  0.1119790E+000  0.2233340E+03  0.7546771E-02  0.1131422E+00
         21   -1    0    0  503  502  0.00000000000E+00  0.00000000000E+00  0.57187527082E+02  0.57187527082E+02  0.00000000000E+00 0. -1.
         21   -1    0    0  501  503 -0.00000000000E+00 -0.00000000000E+00 -0.89360674726E+03  0.89360674726E+03  0.00000000000E+00 0. -1.
          6    1    1    2  501    0  0.13551910888E+02  0.14181116909E+03 -0.49181644027E+03  0.54014949124E+03  0.17200000000E+03 0. -1.
         -6    1    1    2    0  502 -0.13551910888E+02 -0.14181116909E+03 -0.34460277991E+03  0.41064478310E+03  0.17200000000E+03 0. -1.
<mgrwt>
<rscale>  2 0.22333397E+03</rscale>
<asrwt>0</asrwt>
<pdfrwt beam="1">  1       21 0.14296882E-01 0.22333397E+03</pdfrwt>
<pdfrwt beam="2">  1       21 0.22340168E+00 0.22333397E+03</pdfrwt>
<totfact> 0.39865740E+03</totfact>
</mgrwt>
</event>
<event>
 4    1  0.1119790E+000  0.1967983E+03  0.7546771E-02  0.1152469E+00
         21   -1    0    0  501  502  0.00000000000E+00  0.00000000000E+00  0.55990977157E+03  0.55990977157E+03  0.00000000000E+00 0. -1.
         21   -1    0    0  502  503 -0.00000000000E+00 -0.00000000000E+00 -0.69385287342E+02  0.69385287342E+02  0.00000000000E+00 0. -1.
          6    1    1    2  501    0 -0.54498505947E+02 -0.78584126983E+02  0.22777873661E+03  0.30101944292E+03  0.17200000000E+03 0. -1.
         -6    1    1    2    0  503  0.54498505947E+02  0.78584126983E+02  0.26274574762E+03  0.32827561599E+03  0.17200000000E+03 0. -1.
<mgrwt>
<rscale>  2 0.19679825E+03</rscale>
<asrwt>0</asrwt>
<pdfrwt beam="1">  1       21 0.13997743E+00 0.19679825E+03</pdfrwt>
<pdfrwt beam="2">  1       21 0.17346323E-01 0.19679825E+03</pdfrwt>
<totfact> 0.10728022E+04</totfact>
</mgrwt>
</event>
<event>
 4    1  0.1119790E+000  0.2083290E+03  0.7546771E-02  0.1142896E+00
         21   -1    0    0  503  502  0.00000000000E+00  0.00000000000E+00  0.36775244805E+03  0.36775244805E+03  0.00000000000E+00 0. -1.
         21   -1    0    0  501  503 -0.00000000000E+00 -0.00000000000E+00 -0.45267901343E+03  0.45267901343E+03  0.00000000000E+00 0. -1.
          6    1    1    2  501    0  0.43862929827E+02  0.10905508072E+03 -0.39517547265E+03  0.44672656226E+03  0.17200000000E+03 0. -1.
         -6    1    1    2    0  502 -0.43862929827E+02 -0.10905508072E+03  0.31024890727E+03  0.37370489923E+03  0.17200000000E+03 0. -1.
<mgrwt>
<rscale>  2 0.20832899E+03</rscale>
<asrwt>0</asrwt>
<pdfrwt beam="1">  1       21 0.91938112E-01 0.20832899E+03</pdfrwt>
<pdfrwt beam="2">  1       21 0.11316975E+00 0.20832899E+03</pdfrwt>
<totfact> 0.59948894E+02</totfact>
</mgrwt>
</event>
<event>
 4    1  0.1119790E+000  0.1930492E+03  0.7546771E-02  0.1155740E+00
         21   -1    0    0  501  502  0.00000000000E+00  0.00000000000E+00  0.61268333530E+02  0.61268333530E+02  0.00000000000E+00 0.  1.
         21   -1    0    0  502  503 -0.00000000000E+00 -0.00000000000E+00 -0.13146656967E+04  0.13146656967E+04  0.00000000000E+00 0.  1.
          6    1    1    2  501    0 -0.47007758816E+02 -0.73988271685E+02 -0.12240625571E+03  0.22858540017E+03  0.17200000000E+03 0.  1.
         -6    1    1    2    0  503  0.47007758816E+02  0.73988271685E+02 -0.11309911075E+04  0.11473486301E+04  0.17200000000E+03 0.  1.
<mgrwt>
<rscale>  2 0.19304920E+03</rscale>
<asrwt>0</asrwt>
<pdfrwt beam="1">  1       21 0.15317084E-01 0.19304920E+03</pdfrwt>
<pdfrwt beam="2">  1       21 0.32866641E+00 0.19304920E+03</pdfrwt>
<totfact> 0.87976142E+02</totfact>
</mgrwt>
</event>
<event>
 4    1  0.1119790E+000  0.2635422E+03  0.7546771E-02  0.1105033E+00
         21   -1    0    0  501  502  0.00000000000E+00  0.00000000000E+00  0.13504054417E+04  0.13504054417E+04  0.00000000000E+00 0.  1.
         21   -1    0    0  502  503 -0.00000000000E+00 -0.00000000000E+00 -0.11211289959E+03  0.11211289959E+03  0.00000000000E+00 0. -1.
          6    1    1    2  501    0 -0.98609196287E+02  0.17362809974E+03  0.11571290549E+04  0.11867611977E+04  0.17200000000E+03 0.  1.
         -6    1    1    2    0  503  0.98609196287E+02 -0.17362809974E+03  0.81163487252E+02  0.27575714365E+03  0.17200000000E+03 0. -1.
<mgrwt>
<rscale>  2 0.26354220E+03</rscale>
<asrwt>0</asrwt>
<pdfrwt beam="1">  1       21 0.33760131E+00 0.26354220E+03</pdfrwt>
<pdfrwt beam="2">  1       21 0.28028229E-01 0.26354220E+03</pdfrwt>
<totfact> 0.22815264E+02</totfact>
</mgrwt>
</event>
<event>
 4    1  0.1119790E+000  0.1880187E+03  0.7546771E-02  0.1160261E+00
         21   -1    0    0  503  502  0.00000000000E+00  0.00000000000E+00  0.53300966539E+03  0.53300966539E+03  0.00000000000E+00 0.  1.
         21   -1    0    0  501  503 -0.00000000000E+00 -0.00000000000E+00 -0.73469251817E+02  0.73469251817E+02  0.00000000000E+00 0.  1.
          6    1    1    2  501    0  0.46210314631E+01 -0.75800136219E+02  0.13519880410E+03  0.23158093879E+03  0.17200000000E+03 0.  1.
         -6    1    1    2    0  502 -0.46210314631E+01  0.75800136219E+02  0.32434160947E+03  0.37489797841E+03  0.17200000000E+03 0.  1.
<mgrwt>
<rscale>  2 0.18801865E+03</rscale>
<asrwt>0</asrwt>
<pdfrwt beam="1">  1       21 0.13325241E+00 0.18801865E+03</pdfrwt>
<pdfrwt beam="2">  1       21 0.18367315E-01 0.18801865E+03</pdfrwt>
<totfact> 0.11018991E+04</totfact>
</mgrwt>
</event>
<event>
 4    1  0.1119790E+000  0.2146467E+03  0.7546771E-02  0.1137938E+00
         21   -1    0    0  501  502  0.00000000000E+00  0.00000000000E+00  0.17807629834E+03  0.17807629834E+03  0.00000000000E+00 0. -1.
         21   -1    0    0  502  503 -0.00000000000E+00 -0.00000000000E+00 -0.25963602565E+03  0.25963602565E+03  0.00000000000E+00 0.  1.
          6    1    1    2  501    0  0.55517957309E+02  0.11578835748E+03 -0.53728067860E+02  0.22126882426E+03  0.17200000000E+03 0.  1.
         -6    1    1    2    0  503 -0.55517957309E+02 -0.11578835748E+03 -0.27831659445E+02  0.21644349974E+03  0.17200000000E+03 0. -1.
<mgrwt>
<rscale>  2 0.21464666E+03</rscale>
<asrwt>0</asrwt>
<pdfrwt beam="1">  1       21 0.44519075E-01 0.21464666E+03</pdfrwt>
<pdfrwt beam="2">  1       21 0.64909006E-01 0.21464666E+03</pdfrwt>
<totfact> 0.10435529E+04</totfact>
</mgrwt>
</event>
<event>
 4    1  0.1119790E+000  0.2378925E+03  0.7546771E-02  0.1121205E+00
         21   -1    0    0  501  502  0.00000000000E+00  0.00000000000E+00  0.66361029964E+03  0.66361029964E+03  0.00000000000E+00 0. -1.
         21   -1    0    0  502  503 -0.00000000000E+00 -0.00000000000E+00 -0.90250041651E+02  0.90250041651E+02  0.00000000000E+00 0. -1.
          6    1    1    2  501    0  0.15417373672E+03 -0.56914907294E+02  0.37513191004E+03  0.44420355435E+03  0.17200000000E+03 0. -1.
         -6    1    1    2    0  503 -0.15417373672E+03  0.56914907294E+02  0.19822834795E+03  0.30965678694E+03  0.17200000000E+03 0. -1.
<mgrwt>
<rscale>  2 0.23789251E+03</rscale>
<asrwt>0</asrwt>
<pdfrwt beam="1">  1       21 0.16590256E+00 0.23789251E+03</pdfrwt>
<pdfrwt beam="2">  1       21 0.22562512E-01 0.23789251E+03</pdfrwt>
<totfact> 0.40452421E+03</totfact>
</mgrwt>
</event>
<event>
 4    1  0.1119790E+000  0.1971917E+03  0.7546771E-02  0.1152130E+00
         21   -1    0    0  501  502  0.00000000000E+00  0.00000000000E+00  0.14086864541E+03  0.14086864541E+03  0.00000000000E+00 0. -1.
         21   -1    0    0  502  503 -0.00000000000E+00 -0.00000000000E+00 -0.28412168815E+03  0.28412168815E+03  0.00000000000E+00 0. -1.
          6    1    1    2  501    0  0.91974672394E+02  0.29003937700E+02 -0.10747764349E+03  0.22457963535E+03  0.17200000000E+03 0. -1.
         -6    1    1    2    0  503 -0.91974672394E+02 -0.29003937700E+02 -0.35775399251E+02  0.20041069821E+03  0.17200000000E+03 0. -1.
<mgrwt>
<rscale>  2 0.19719171E+03</rscale>
<asrwt>0</asrwt>
<pdfrwt beam="1">  1       21 0.35217162E-01 0.19719171E+03</pdfrwt>
<pdfrwt beam="2">  1       21 0.71030422E-01 0.19719171E+03</pdfrwt>
<totfact> 0.13904995E+04</totfact>
</mgrwt>
</event>
<event>
 4    1  0.1119790E+000  0.3944042E+03  0.7546771E-02  0.1045735E+00
         21   -1    0    0  501  502  0.00000000000E+00  0.00000000000E+00  0.27396837096E+03  0.27396837096E+03  0.00000000000E+00 0. -1.
         21   -1    0    0  502  503 -0.00000000000E+00 -0.00000000000E+00 -0.95009425331E+03  0.95009425331E+03  0.00000000000E+00 0. -1.
          6    1    1    2  501    0  0.34545551187E+02  0.35323825440E+03  0.50175629540E+02  0.39758301432E+03  0.17200000000E+03 0. -1.
         -6    1    1    2    0  503 -0.34545551187E+02 -0.35323825440E+03 -0.72630151189E+03  0.82647960994E+03  0.17200000000E+03 0. -1.
<mgrwt>
<rscale>  2 0.39440418E+03</rscale>
<asrwt>0</asrwt>
<pdfrwt beam="1">  1       21 0.68492093E-01 0.39440418E+03</pdfrwt>
<pdfrwt beam="2">  1       21 0.23752356E+00 0.39440418E+03</pdfrwt>
<totfact> 0.12558655E+02</totfact>
</mgrwt>
</event>
<event>
 4    1  0.1119790E+000  0.1801552E+03  0.7546771E-02  0.1167653E+00
         21   -1    0    0  503  502  0.00000000000E+00  0.00000000000E+00  0.34548926797E+03  0.34548926797E+03  0.00000000000E+00 0. -1.
         21   -1    0    0  501  503 -0.00000000000E+00 -0.00000000000E+00 -0.10573883648E+03  0.10573883648E+03  0.00000000000E+00 0. -1.
          6    1    1    2  501    0  0.28469794928E+02 -0.45402227968E+02  0.44516250369E+02  0.18557367290E+03  0.17200000000E+03 0.  1.
         -6    1    1    2    0  502 -0.28469794928E+02  0.45402227968E+02  0.19523418112E+03  0.26565443156E+03  0.17200000000E+03 0.  1.
<mgrwt>
<rscale>  2 0.18015519E+03</rscale>
<asrwt>0</asrwt>
<pdfrwt beam="1">  1       21 0.86372314E-01 0.18015519E+03</pdfrwt>
<pdfrwt beam="2">  1       21 0.26434710E-01 0.18015519E+03</pdfrwt>
<totfact> 0.15849076E+04</totfact>
</mgrwt>
</event>
<event>
 4    1  0.1119790E+000  0.2129783E+03  0.7546771E-02  0.1139229E+00
         21   -1    0    0  501  502  0.00000000000E+00  0.00000000000E+00  0.18973286056E+03  0.18973286056E+03  0.00000000000E+00 0.  1.
         21   -1    0    0  502  503 -0.00000000000E+00 -0.00000000000E+00 -0.89777167693E+03  0.89777167693E+03  0.00000000000E+00 0. -1.
          6    1    1    2  501    0 -0.12390268959E+03  0.20588338684E+02  0.11174034550E+03  0.24051124920E+03  0.17200000000E+03 0.  1.
         -6    1    1    2    0  503  0.12390268959E+03 -0.20588338684E+02 -0.81977916187E+03  0.84699328829E+03  0.17200000000E+03 0. -1.
<mgrwt>
<rscale>  2 0.21297830E+03</rscale>
<asrwt>0</asrwt>
<pdfrwt beam="1">  1       21 0.47433216E-01 0.21297830E+03</pdfrwt>
<pdfrwt beam="2">  1       21 0.22444292E+00 0.21297830E+03</pdfrwt>
<totfact> 0.39168843E+02</totfact>
</mgrwt>
</event>
<event>
 4    1  0.1119790E+000  0.2158759E+03  0.7546771E-02  0.1136996E+00
         21   -1    0    0  503  502  0.00000000000E+00  0.00000000000E+00  0.16967764952E+03  0.16967764952E+03  0.00000000000E+00 0.  1.
         21   -1    0    0  501  503 -0.00000000000E+00 -0.00000000000E+00 -0.32519518281E+03  0.32519518281E+03  0.00000000000E+00 0. -1.
          6    1    1    2  501    0  0.14304119085E+02  0.12966804933E+03 -0.17530717747E+03  0.27809174262E+03  0.17200000000E+03 0.  1.
         -6    1    1    2    0  502 -0.14304119085E+02 -0.12966804933E+03  0.19789644174E+02  0.21678108971E+03  0.17200000000E+03 0.  1.
<mgrwt>
<rscale>  2 0.21587592E+03</rscale>
<asrwt>0</asrwt>
<pdfrwt beam="1">  1       21 0.42419413E-01 0.21587592E+03</pdfrwt>
<pdfrwt beam="2">  1       21 0.81298795E-01 0.21587592E+03</pdfrwt>
<totfact> 0.69729936E+03</totfact>
</mgrwt>
</event>
<event>
 4    1  0.1119790E+000  0.2052451E+03  0.7546771E-02  0.1145388E+00
         21   -1    0    0  501  502  0.00000000000E+00  0.00000000000E+00  0.19859480576E+03  0.19859480576E+03  0.00000000000E+00 0. -1.
         21   -1    0    0  502  503 -0.00000000000E+00 -0.00000000000E+00 -0.23351725157E+03  0.23351725157E+03  0.00000000000E+00 0. -1.
          6    1    1    2  501    0 -0.10962552084E+03  0.22886911342E+02  0.47942810891E+02  0.21077020341E+03  0.17200000000E+03 0. -1.
         -6    1    1    2    0  503  0.10962552084E+03 -0.22886911342E+02 -0.82865256694E+02  0.22134185392E+03  0.17200000000E+03 0. -1.
<mgrwt>
<rscale>  2 0.20524514E+03</rscale>
<asrwt>0</asrwt>
<pdfrwt beam="1">  1       21 0.49648702E-01 0.20524514E+03</pdfrwt>
<pdfrwt beam="2">  1       21 0.58379313E-01 0.20524514E+03</pdfrwt>
<totfact> 0.10534575E+04</totfact>
</mgrwt>
</event>
<event>
 4    1  0.1119790E+000  0.1875541E+03  0.7546771E-02  0.1160686E+00
         21   -1    0    0  501  502  0.00000000000E+00  0.00000000000E+00  0.12085142482E+03  0.12085142482E+03  0.00000000000E+00 0. -1.
         21   -1    0    0  502  503 -0.00000000000E+00 -0.00000000000E+00 -0.32423979094E+03  0.32423979094E+03  0.00000000000E+00 0. -1.
          6    1    1    2  501    0  0.39312344780E+02 -0.63616756629E+02 -0.17287114932E+03  0.25507055189E+03  0.17200000000E+03 0. -1.
         -6    1    1    2    0  503 -0.39312344780E+02  0.63616756629E+02 -0.30517216798E+02  0.19002066387E+03  0.17200000000E+03 0. -1.
<mgrwt>
<rscale>  2 0.18755413E+03</rscale>
<asrwt>0</asrwt>
<pdfrwt beam="1">  1       21 0.30212856E-01 0.18755413E+03</pdfrwt>
<pdfrwt beam="2">  1       21 0.81059947E-01 0.18755413E+03</pdfrwt>
<totfact> 0.14077609E+04</totfact>
</mgrwt>
</event>
<event>
 4    1  0.1119790E+000  0.2186172E+03  0.7546771E-02  0.1134918E+00
         21   -1    0    0  501  502  0.00000000000E+00  0.00000000000E+00  0.24507846173E+03  0.24507846173E+03  0.00000000000E+00 0. -1.
         21   -1    0    0  502  503 -0.00000000000E+00 -0.00000000000E+00 -0.20578900640E+03  0.20578900640E+03  0.00000000000E+00 0.  1.
          6    1    1    2  501    0 -0.46809381923E+02 -0.12656368360E+03 -0.31941870425E+02  0.22093837903E+03  0.17200000000E+03 0.  1.
         -6    1    1    2    0  503  0.46809381923E+02  0.12656368360E+03  0.71231325754E+02  0.22992908909E+03  0.17200000000E+03 0. -1.
<mgrwt>
<rscale>  2 0.21861721E+03</rscale>
<asrwt>0</asrwt>
<pdfrwt beam="1">  1       21 0.61269615E-01 0.21861721E+03</pdfrwt>
<pdfrwt beam="2">  1       21 0.51447252E-01 0.21861721E+03</pdfrwt>
<totfact> 0.87356498E+03</totfact>
</mgrwt>
</event>
<event>
 4    1  0.1119790E+000  0.2658009E+03  0.7546771E-02  0.1103707E+00
         21   -1    0    0  501  502  0.00000000000E+00  0.00000000000E+00  0.24604481587E+03  0.24604481587E+03  0.00000000000E+00 0.  1.
         21   -1    0    0  502  503 -0.00000000000E+00 -0.00000000000E+00 -0.28946315513E+03  0.28946315513E+03  0.00000000000E+00 0.  1.
          6    1    1    2  501    0  0.14024746060E+03  0.14627628727E+03  0.22613010345E+01  0.26581048870E+03  0.17200000000E+03 0.  1.
         -6    1    1    2    0  503 -0.14024746060E+03 -0.14627628727E+03 -0.45679640289E+02  0.26969748230E+03  0.17200000000E+03 0.  1.
<mgrwt>
<rscale>  2 0.26580087E+03</rscale>
<asrwt>0</asrwt>
<pdfrwt beam="1">  1       21 0.61511204E-01 0.26580087E+03</pdfrwt>
<pdfrwt beam="2">  1       21 0.72365788E-01 0.26580087E+03</pdfrwt>
<totfact> 0.40165215E+03</totfact>
</mgrwt>
</event>
<event>
 4    1  0.1119790E+000  0.1731521E+03  0.7546771E-02  0.1174600E+00
         21   -1    0    0  503  502  0.00000000000E+00  0.00000000000E+00  0.15689409945E+03  0.15689409945E+03  0.00000000000E+00 0. -1.
         21   -1    0    0  501  503 -0.00000000000E+00 -0.00000000000E+00 -0.19964500152E+03  0.19964500152E+03  0.00000000000E+00 0. -1.
          6    1    1    2  501    0  0.19929037476E+02 -0.69349020662E+00 -0.58267771881E+02  0.18269313261E+03  0.17200000000E+03 0. -1.
         -6    1    1    2    0  502 -0.19929037476E+02  0.69349020662E+00  0.15516869811E+02  0.17384596835E+03  0.17200000000E+03 0. -1.
<mgrwt>
<rscale>  2 0.17315209E+03</rscale>
<asrwt>0</asrwt>
<pdfrwt beam="1">  1       21 0.39223525E-01 0.17315209E+03</pdfrwt>
<pdfrwt beam="2">  1       21 0.49911250E-01 0.17315209E+03</pdfrwt>
<totfact> 0.24238713E+04</totfact>
</mgrwt>
</event>
<event>
 4    1  0.1119790E+000  0.1961704E+03  0.7546771E-02  0.1153011E+00
         21   -1    0    0  503  502  0.00000000000E+00  0.00000000000E+00  0.11765662700E+03  0.11765662700E+03  0.00000000000E+00 0. -1.
         21   -1    0    0  501  503 -0.00000000000E+00 -0.00000000000E+00 -0.43366199138E+03  0.43366199138E+03  0.00000000000E+00 0. -1.
          6    1    1    2  501    0 -0.93078129097E+02  0.15339133809E+02 -0.29466353780E+03  0.35399071690E+03  0.17200000000E+03 0. -1.
         -6    1    1    2    0  502  0.93078129097E+02 -0.15339133809E+02 -0.21341826574E+02  0.19732790148E+03  0.17200000000E+03 0. -1.
<mgrwt>
<rscale>  2 0.19617040E+03</rscale>
<asrwt>0</asrwt>
<pdfrwt beam="1">  1       21 0.29414157E-01 0.19617040E+03</pdfrwt>
<pdfrwt beam="2">  1       21 0.10841550E+00 0.19617040E+03</pdfrwt>
<totfact> 0.74705612E+03</totfact>
</mgrwt>
</event>
<event>
 4    1  0.1119790E+000  0.1979668E+03  0.7546771E-02  0.1151466E+00
         21   -1    0    0  503  502  0.00000000000E+00  0.00000000000E+00  0.60067590577E+03  0.60067590577E+03  0.00000000000E+00 0. -1.
         21   -1    0    0  501  503 -0.00000000000E+00 -0.00000000000E+00 -0.67413435375E+02  0.67413435375E+02  0.00000000000E+00 0. -1.
          6    1    1    2  501    0  0.66288994269E+02 -0.72198544297E+02  0.32654745226E+03  0.38186921732E+03  0.17200000000E+03 0. -1.
         -6    1    1    2    0  502 -0.66288994269E+02  0.72198544297E+02  0.20671501814E+03  0.28622012383E+03  0.17200000000E+03 0. -1.
<mgrwt>
<rscale>  2 0.19796682E+03</rscale>
<asrwt>0</asrwt>
<pdfrwt beam="1">  1       21 0.15016896E+00 0.19796682E+03</pdfrwt>
<pdfrwt beam="2">  1       21 0.16853361E-01 0.19796682E+03</pdfrwt>
<totfact> 0.94081956E+03</totfact>
</mgrwt>
</event>
<event>
 4    1  0.1119790E+000  0.2495099E+03  0.7546771E-02  0.1113615E+00
         21   -1    0    0  503  502  0.00000000000E+00  0.00000000000E+00  0.18544106821E+03  0.18544106821E+03  0.00000000000E+00 0. -1.
         21   -1    0    0  501  503 -0.00000000000E+00 -0.00000000000E+00 -0.34798323780E+03  0.34798323780E+03  0.00000000000E+00 0.  1.
          6    1    1    2  501    0 -0.17947073440E+03 -0.21481093221E+02 -0.31190359248E+02  0.25145182517E+03  0.17200000000E+03 0. -1.
         -6    1    1    2    0  502  0.17947073440E+03  0.21481093221E+02 -0.13135181034E+03  0.28197248084E+03  0.17200000000E+03 0.  1.
<mgrwt>
<rscale>  2 0.24950988E+03</rscale>
<asrwt>0</asrwt>
<pdfrwt beam="1">  1       21 0.46360267E-01 0.24950988E+03</pdfrwt>
<pdfrwt beam="2">  1       21 0.86995809E-01 0.24950988E+03</pdfrwt>
<totfact> 0.48632238E+03</totfact>
</mgrwt>
</event>
<event>
 4    1  0.1119790E+000  0.1902083E+03  0.7546771E-02  0.1158274E+00
         21   -1    0    0  503  502  0.00000000000E+00  0.00000000000E+00  0.70619617762E+02  0.70619617762E+02  0.00000000000E+00 0.  1.
         21   -1    0    0  501  503 -0.00000000000E+00 -0.00000000000E+00 -0.10836228528E+04  0.10836228528E+04  0.00000000000E+00 0.  1.
          6    1    1    2  501    0 -0.61351522599E+02  0.53209016938E+02 -0.92555040102E+03  0.94489298529E+03  0.17200000000E+03 0.  1.
         -6    1    1    2    0  502  0.61351522599E+02 -0.53209016938E+02 -0.87452834017E+02  0.20934948528E+03  0.17200000000E+03 0.  1.
<mgrwt>
<rscale>  2 0.19020833E+03</rscale>
<asrwt>0</asrwt>
<pdfrwt beam="1">  1       21 0.17654905E-01 0.19020833E+03</pdfrwt>
<pdfrwt beam="2">  1       21 0.27090571E+00 0.19020833E+03</pdfrwt>
<totfact> 0.14658869E+03</totfact>
</mgrwt>
</event>
<event>
 4    1  0.1119790E+000  0.2346708E+03  0.7546771E-02  0.1123395E+00
         21   -1    0    0  501  502  0.00000000000E+00  0.00000000000E+00  0.53264375619E+03  0.53264375619E+03  0.00000000000E+00 0. -1.
         21   -1    0    0  502  503 -0.00000000000E+00 -0.00000000000E+00 -0.27910069325E+03  0.27910069325E+03  0.00000000000E+00 0. -1.
          6    1    1    2  501    0 -0.13822864037E+03  0.79870171829E+02 -0.19526647337E+03  0.30528576283E+03  0.17200000000E+03 0. -1.
         -6    1    1    2    0  503  0.13822864037E+03 -0.79870171829E+02  0.44880953631E+03  0.50645868662E+03  0.17200000000E+03 0. -1.
<mgrwt>
<rscale>  2 0.23467084E+03</rscale>
<asrwt>0</asrwt>
<pdfrwt beam="1">  1       21 0.13316094E+00 0.23467084E+03</pdfrwt>
<pdfrwt beam="2">  1       21 0.69775174E-01 0.23467084E+03</pdfrwt>
<totfact> 0.72809635E+02</totfact>
</mgrwt>
</event>
<event>
 4    1  0.1119790E+000  0.1801018E+03  0.7546771E-02  0.1167705E+00
         21   -1    0    0  501  502  0.00000000000E+00  0.00000000000E+00  0.86733618293E+03  0.86733618293E+03  0.00000000000E+00 0. -1.
         21   -1    0    0  502  503 -0.00000000000E+00 -0.00000000000E+00 -0.40842412238E+02  0.40842412238E+02  0.00000000000E+00 0. -1.
          6    1    1    2  501    0  0.29088478200E+02 -0.44794361892E+02  0.54511522247E+03  0.57409692578E+03  0.17200000000E+03 0. -1.
         -6    1    1    2    0  503 -0.29088478200E+02  0.44794361892E+02  0.28137854821E+03  0.33408166938E+03  0.17200000000E+03 0. -1.
<mgrwt>
<rscale>  2 0.18010184E+03</rscale>
<asrwt>0</asrwt>
<pdfrwt beam="1">  1       21 0.21683399E+00 0.18010184E+03</pdfrwt>
<pdfrwt beam="2">  1       21 0.10210606E-01 0.18010184E+03</pdfrwt>
<totfact> 0.83245678E+03</totfact>
</mgrwt>
</event>
<event>
 4    1  0.1119790E+000  0.2393950E+03  0.7546771E-02  0.1120196E+00
         21   -1    0    0  503  502  0.00000000000E+00  0.00000000000E+00  0.89447081468E+02  0.89447081468E+02  0.00000000000E+00 0. -1.
         21   -1    0    0  501  503 -0.00000000000E+00 -0.00000000000E+00 -0.65223932490E+03  0.65223932490E+03  0.00000000000E+00 0. -1.
          6    1    1    2  501    0  0.49678568248E+02  0.15892774558E+03 -0.23209971133E+03  0.33343704722E+03  0.17200000000E+03 0. -1.
         -6    1    1    2    0  502 -0.49678568248E+02 -0.15892774558E+03 -0.33069253210E+03  0.40824935915E+03  0.17200000000E+03 0. -1.
<mgrwt>
<rscale>  2 0.23939505E+03</rscale>
<asrwt>0</asrwt>
<pdfrwt beam="1">  1       21 0.22361771E-01 0.23939505E+03</pdfrwt>
<pdfrwt beam="2">  1       21 0.16305983E+00 0.23939505E+03</pdfrwt>
<totfact> 0.43097224E+03</totfact>
</mgrwt>
</event>
<event>
 4    1  0.1119790E+000  0.1892151E+03  0.7546771E-02  0.1159171E+00
         21   -1    0    0  503  502  0.00000000000E+00  0.00000000000E+00  0.10209765953E+03  0.10209765953E+03  0.00000000000E+00 0. -1.
         21   -1    0    0  501  503 -0.00000000000E+00 -0.00000000000E+00 -0.35596383555E+03  0.35596383555E+03  0.00000000000E+00 0. -1.
          6    1    1    2  501    0  0.23632780259E+02 -0.75231826165E+02 -0.98996291098E+02  0.21354765656E+03  0.17200000000E+03 0. -1.
         -6    1    1    2    0  502 -0.23632780259E+02  0.75231826165E+02 -0.15486988492E+03  0.24451383851E+03  0.17200000000E+03 0. -1.
<mgrwt>
<rscale>  2 0.18921505E+03</rscale>
<asrwt>0</asrwt>
<pdfrwt beam="1">  1       21 0.25524415E-01 0.18921505E+03</pdfrwt>
<pdfrwt beam="2">  1       21 0.88990958E-01 0.18921505E+03</pdfrwt>
<totfact> 0.15732463E+04</totfact>
</mgrwt>
</event>
<event>
 4    1  0.1119790E+000  0.3476825E+03  0.7546771E-02  0.1063570E+00
         21   -1    0    0  503  502  0.00000000000E+00  0.00000000000E+00  0.11303589956E+04  0.11303589956E+04  0.00000000000E+00 0.  1.
         21   -1    0    0  501  503 -0.00000000000E+00 -0.00000000000E+00 -0.26305609058E+03  0.26305609058E+03  0.00000000000E+00 0. -1.
          6    1    1    2  501    0  0.23931399842E+03 -0.18446664986E+03 -0.10306762848E+03  0.36263765771E+03  0.17200000000E+03 0. -1.
         -6    1    1    2    0  502 -0.23931399842E+03  0.18446664986E+03  0.97037053349E+03  0.10307774285E+04  0.17200000000E+03 0.  1.
<mgrwt>
<rscale>  2 0.34768252E+03</rscale>
<asrwt>0</asrwt>
<pdfrwt beam="1">  1       21 0.28258974E+00 0.34768252E+03</pdfrwt>
<pdfrwt beam="2">  1       21 0.65764025E-01 0.34768252E+03</pdfrwt>
<totfact> 0.76089129E+01</totfact>
</mgrwt>
</event>
<event>
 4    1  0.1119790E+000  0.2280474E+03  0.7546771E-02  0.1128022E+00
         21   -1    0    0  503  502  0.00000000000E+00  0.00000000000E+00  0.24315894753E+03  0.24315894753E+03  0.00000000000E+00 0.  1.
         21   -1    0    0  501  503 -0.00000000000E+00 -0.00000000000E+00 -0.31391668615E+03  0.31391668615E+03  0.00000000000E+00 0. -1.
          6    1    1    2  501    0 -0.66074754581E+02 -0.13437164064E+03 -0.19262050312E+03  0.29851008228E+03  0.17200000000E+03 0.  1.
         -6    1    1    2    0  502  0.66074754581E+02  0.13437164064E+03  0.12186276449E+03  0.25856555140E+03  0.17200000000E+03 0. -1.
<mgrwt>
<rscale>  2 0.22804739E+03</rscale>
<asrwt>0</asrwt>
<pdfrwt beam="1">  1       21 0.60789737E-01 0.22804739E+03</pdfrwt>
<pdfrwt beam="2">  1       21 0.78479171E-01 0.22804739E+03</pdfrwt>
<totfact> 0.35193992E+03</totfact>
</mgrwt>
</event>
<event>
 4    1  0.1119790E+000  0.2214246E+03  0.7546771E-02  0.1132825E+00
         21   -1    0    0  501  502  0.00000000000E+00  0.00000000000E+00  0.83760854812E+02  0.83760854812E+02  0.00000000000E+00 0.  1.
         21   -1    0    0  502  503 -0.00000000000E+00 -0.00000000000E+00 -0.65341409645E+03  0.65341409645E+03  0.00000000000E+00 0. -1.
          6    1    1    2  501    0  0.11021731563E+02  0.13900859907E+03 -0.16585970395E+03  0.27665558114E+03  0.17200000000E+03 0.  1.
         -6    1    1    2    0  503 -0.11021731563E+02 -0.13900859907E+03 -0.40379353768E+03  0.46051937012E+03  0.17200000000E+03 0.  1.
<mgrwt>
<rscale>  2 0.22142464E+03</rscale>
<asrwt>0</asrwt>
<pdfrwt beam="1">  1       21 0.20940214E-01 0.22142464E+03</pdfrwt>
<pdfrwt beam="2">  1       21 0.16335352E+00 0.22142464E+03</pdfrwt>
<totfact> 0.49214923E+03</totfact>
</mgrwt>
</event>
<event>
 4    1  0.1119790E+000  0.1756960E+03  0.7546771E-02  0.1172035E+00
         21   -1    0    0  501  502  0.00000000000E+00  0.00000000000E+00  0.58604475808E+03  0.58604475808E+03  0.00000000000E+00 0. -1.
         21   -1    0    0  502  503 -0.00000000000E+00 -0.00000000000E+00 -0.66864043373E+02  0.66864043373E+02  0.00000000000E+00 0. -1.
          6    1    1    2  501    0  0.62947136667E+00  0.35842711320E+02  0.40998208786E+03  0.44604305684E+03  0.17200000000E+03 0. -1.
         -6    1    1    2    0  503 -0.62947136667E+00 -0.35842711320E+02  0.10919862685E+03  0.20686574461E+03  0.17200000000E+03 0. -1.
<mgrwt>
<rscale>  2 0.17569603E+03</rscale>
<asrwt>0</asrwt>
<pdfrwt beam="1">  1       21 0.14651117E+00 0.17569603E+03</pdfrwt>
<pdfrwt beam="2">  1       21 0.16716013E-01 0.17569603E+03</pdfrwt>
<totfact> 0.10364432E+04</totfact>
</mgrwt>
</event>
<event>
 4    1  0.1119790E+000  0.1901928E+03  0.7546771E-02  0.1158288E+00
         21   -1    0    0  503  502  0.00000000000E+00  0.00000000000E+00  0.10739510950E+03  0.10739510950E+03  0.00000000000E+00 0.  1.
         21   -1    0    0  501  503 -0.00000000000E+00 -0.00000000000E+00 -0.38506995759E+03  0.38506995759E+03  0.00000000000E+00 0. -1.
          6    1    1    2  501    0 -0.81090951233E+02  0.36829508005E+01 -0.22599471599E+03  0.29537589298E+03  0.17200000000E+03 0. -1.
         -6    1    1    2    0  502  0.81090951233E+02 -0.36829508005E+01 -0.51680132094E+02  0.19708917411E+03  0.17200000000E+03 0.  1.
<mgrwt>
<rscale>  2 0.19019281E+03</rscale>
<asrwt>0</asrwt>
<pdfrwt beam="1">  1       21 0.26848778E-01 0.19019281E+03</pdfrwt>
<pdfrwt beam="2">  1       21 0.96267488E-01 0.19019281E+03</pdfrwt>
<totfact> 0.11883897E+04</totfact>
</mgrwt>
</event>
<event>
 4    1  0.1119790E+000  0.2053549E+03  0.7546771E-02  0.1145298E+00
         21   -1    0    0  503  502  0.00000000000E+00  0.00000000000E+00  0.23685715174E+03  0.23685715174E+03  0.00000000000E+00 0. -1.
         21   -1    0    0  501  503 -0.00000000000E+00 -0.00000000000E+00 -0.18203157254E+03  0.18203157254E+03  0.00000000000E+00 0. -1.
          6    1    1    2  501    0  0.21491558131E+02  0.11011251673E+03  0.58417527874E+02  0.21350236761E+03  0.17200000000E+03 0. -1.
         -6    1    1    2    0  502 -0.21491558131E+02 -0.11011251673E+03 -0.35919486724E+01  0.20538635667E+03  0.17200000000E+03 0. -1.
<mgrwt>
<rscale>  2 0.20535494E+03</rscale>
<asrwt>0</asrwt>
<pdfrwt beam="1">  1       21 0.59214288E-01 0.20535494E+03</pdfrwt>
<pdfrwt beam="2">  1       21 0.45507893E-01 0.20535494E+03</pdfrwt>
<totfact> 0.12239710E+04</totfact>
</mgrwt>
</event>
<event>
 4    1  0.1119790E+000  0.1850173E+03  0.7546771E-02  0.1163034E+00
         21   -1    0    0  501  502  0.00000000000E+00  0.00000000000E+00  0.35937345717E+02  0.35937345717E+02  0.00000000000E+00 0. -1.
         21   -1    0    0  502  503 -0.00000000000E+00 -0.00000000000E+00 -0.10450244111E+04  0.10450244111E+04  0.00000000000E+00 0. -1.
          6    1    1    2  501    0  0.45494251845E+02 -0.50770917662E+02 -0.34374799026E+03  0.39037686130E+03  0.17200000000E+03 0. -1.
         -6    1    1    2    0  503 -0.45494251845E+02  0.50770917662E+02 -0.66533907515E+03  0.69058489554E+03  0.17200000000E+03 0. -1.
<mgrwt>
<rscale>  2 0.18501733E+03</rscale>
<asrwt>0</asrwt>
<pdfrwt beam="1">  1       21 0.89843371E-02 0.18501733E+03</pdfrwt>
<pdfrwt beam="2">  1       21 0.26125608E+00 0.18501733E+03</pdfrwt>
<totfact> 0.56444042E+03</totfact>
</mgrwt>
</event>
<event>
 4    1  0.1119790E+000  0.2314617E+03  0.7546771E-02  0.1125615E+00
         21   -1    0    0  501  502  0.00000000000E+00  0.00000000000E+00  0.11500394759E+03  0.11500394759E+03  0.00000000000E+00 0.  1.
         21   -1    0    0  502  503 -0.00000000000E+00 -0.00000000000E+00 -0.76842776619E+03  0.76842776619E+03  0.00000000000E+00 0.  1.
          6    1    1    2  501    0 -0.14107013975E+03 -0.63951151639E+02 -0.49532915461E+02  0.23670243733E+03  0.17200000000E+03 0.  1.
         -6    1    1    2    0  503  0.14107013975E+03  0.63951151639E+02 -0.60389090314E+03  0.64672927645E+03  0.17200000000E+03 0.  1.
<mgrwt>
<rscale>  2 0.23146173E+03</rscale>
<asrwt>0</asrwt>
<pdfrwt beam="1">  1       21 0.28750987E-01 0.23146173E+03</pdfrwt>
<pdfrwt beam="2">  1       21 0.19210694E+00 0.23146173E+03</pdfrwt>
<totfact> 0.16836884E+03</totfact>
</mgrwt>
</event>
<event>
 4    1  0.1119790E+000  0.2674255E+03  0.7546771E-02  0.1102762E+00
         21   -1    0    0  503  502  0.00000000000E+00  0.00000000000E+00  0.18451360762E+03  0.18451360762E+03  0.00000000000E+00 0. -1.
         21   -1    0    0  501  503 -0.00000000000E+00 -0.00000000000E+00 -0.50670085868E+03  0.50670085868E+03  0.00000000000E+00 0.  1.
          6    1    1    2  501    0  0.76320856539E+02 -0.19001983064E+03  0.64681578365E+01  0.26750373127E+03  0.17200000000E+03 0. -1.
         -6    1    1    2    0  502 -0.76320856539E+02  0.19001983064E+03 -0.32865540890E+03  0.42371073503E+03  0.17200000000E+03 0.  1.
<mgrwt>
<rscale>  2 0.26742552E+03</rscale>
<asrwt>0</asrwt>
<pdfrwt beam="1">  1       21 0.46128402E-01 0.26742552E+03</pdfrwt>
<pdfrwt beam="2">  1       21 0.12667521E+00 0.26742552E+03</pdfrwt>
<totfact> 0.19563674E+03</totfact>
</mgrwt>
</event>
<event>
 4    1  0.1119790E+000  0.1929248E+03  0.7546771E-02  0.1155849E+00
         21   -1    0    0  501  502  0.00000000000E+00  0.00000000000E+00  0.29026136863E+03  0.29026136863E+03  0.00000000000E+00 0. -1.
         21   -1    0    0  502  503 -0.00000000000E+00 -0.00000000000E+00 -0.14720676994E+03  0.14720676994E+03  0.00000000000E+00 0. -1.
          6    1    1    2  501    0  0.32781755030E+02 -0.81002095189E+02  0.15006403556E+03  0.24441603396E+03  0.17200000000E+03 0. -1.
         -6    1    1    2    0  503 -0.32781755030E+02  0.81002095189E+02 -0.70094368805E+01  0.19305210461E+03  0.17200000000E+03 0. -1.
<mgrwt>
<rscale>  2 0.19292481E+03</rscale>
<asrwt>0</asrwt>
<pdfrwt beam="1">  1       21 0.72565341E-01 0.19292481E+03</pdfrwt>
<pdfrwt beam="2">  1       21 0.36801693E-01 0.19292481E+03</pdfrwt>
<totfact> 0.12183347E+04</totfact>
</mgrwt>
</event>
<event>
 4    1  0.1119790E+000  0.2345686E+03  0.7546771E-02  0.1123465E+00
         21   -1    0    0  503  502  0.00000000000E+00  0.00000000000E+00  0.28718109981E+03  0.28718109981E+03  0.00000000000E+00 0. -1.
         21   -1    0    0  501  503 -0.00000000000E+00 -0.00000000000E+00 -0.59683262396E+03  0.59683262396E+03  0.00000000000E+00 0. -1.
          6    1    1    2  501    0  0.53814033930E+02 -0.15014150184E+03 -0.51904064871E+03  0.56958372153E+03  0.17200000000E+03 0. -1.
         -6    1    1    2    0  502 -0.53814033930E+02  0.15014150184E+03  0.20938912456E+03  0.31443000224E+03  0.17200000000E+03 0. -1.
<mgrwt>
<rscale>  2 0.23456858E+03</rscale>
<asrwt>0</asrwt>
<pdfrwt beam="1">  1       21 0.71795276E-01 0.23456858E+03</pdfrwt>
<pdfrwt beam="2">  1       21 0.14920815E+00 0.23456858E+03</pdfrwt>
<totfact> 0.50815632E+02</totfact>
</mgrwt>
</event>
<event>
 4    1  0.1119790E+000  0.2997023E+03  0.7546771E-02  0.1085390E+00
         21   -1    0    0  503  502  0.00000000000E+00  0.00000000000E+00  0.55982302455E+03  0.55982302455E+03  0.00000000000E+00 0.  1.
         21   -1    0    0  501  503 -0.00000000000E+00 -0.00000000000E+00 -0.16196754090E+03  0.16196754090E+03  0.00000000000E+00 0. -1.
          6    1    1    2  501    0  0.24308600549E+03  0.33862737354E+02  0.16395119822E+03  0.34161599267E+03  0.17200000000E+03 0. -1.
         -6    1    1    2    0  502 -0.24308600549E+03 -0.33862737354E+02  0.23390428542E+03  0.38017457278E+03  0.17200000000E+03 0.  1.
<mgrwt>
<rscale>  2 0.29970234E+03</rscale>
<asrwt>0</asrwt>
<pdfrwt beam="1">  1       21 0.13995575E+00 0.29970234E+03</pdfrwt>
<pdfrwt beam="2">  1       21 0.40491887E-01 0.29970234E+03</pdfrwt>
<totfact> 0.19390664E+03</totfact>
</mgrwt>
</event>
<event>
 4    1  0.1119790E+000  0.2036942E+03  0.7546771E-02  0.1146659E+00
         21   -1    0    0  501  502  0.00000000000E+00  0.00000000000E+00  0.33211040295E+03  0.33211040295E+03  0.00000000000E+00 0.  1.
         21   -1    0    0  502  503 -0.00000000000E+00 -0.00000000000E+00 -0.33739666241E+03  0.33739666241E+03  0.00000000000E+00 0.  1.
          6    1    1    2  501    0 -0.10832632177E+03 -0.13143364703E+02  0.26299948878E+03  0.33265608535E+03  0.17200000000E+03 0.  1.
         -6    1    1    2    0  503  0.10832632177E+03  0.13143364703E+02 -0.26828574825E+03  0.33685098001E+03  0.17200000000E+03 0.  1.
<mgrwt>
<rscale>  2 0.20369423E+03</rscale>
<asrwt>0</asrwt>
<pdfrwt beam="1">  1       21 0.83027601E-01 0.20369423E+03</pdfrwt>
<pdfrwt beam="2">  1       21 0.84349165E-01 0.20369423E+03</pdfrwt>
<totfact> 0.15258564E+03</totfact>
</mgrwt>
</event>
<event>
 4    1  0.1119790E+000  0.1999344E+03  0.7546771E-02  0.1149794E+00
         21   -1    0    0  503  502  0.00000000000E+00  0.00000000000E+00  0.16696470527E+03  0.16696470527E+03  0.00000000000E+00 0. -1.
         21   -1    0    0  501  503 -0.00000000000E+00 -0.00000000000E+00 -0.48272564887E+03  0.48272564887E+03  0.00000000000E+00 0. -1.
          6    1    1    2  501    0 -0.10164519523E+03 -0.76167244896E+01 -0.38850595872E+03  0.43693322164E+03  0.17200000000E+03 0. -1.
         -6    1    1    2    0  502  0.10164519523E+03  0.76167244896E+01  0.72745015131E+02  0.21275713251E+03  0.17200000000E+03 0. -1.
<mgrwt>
<rscale>  2 0.19993439E+03</rscale>
<asrwt>0</asrwt>
<pdfrwt beam="1">  1       21 0.41741177E-01 0.19993439E+03</pdfrwt>
<pdfrwt beam="2">  1       21 0.12068141E+00 0.19993439E+03</pdfrwt>
<totfact> 0.28588264E+03</totfact>
</mgrwt>
</event>
<event>
 4    1  0.1119790E+000  0.2792486E+03  0.7546771E-02  0.1096100E+00
         21   -1    0    0  501  502  0.00000000000E+00  0.00000000000E+00  0.53454041423E+03  0.53454041423E+03  0.00000000000E+00 0.  1.
         21   -1    0    0  502  503 -0.00000000000E+00 -0.00000000000E+00 -0.19342346811E+03  0.19342346811E+03  0.00000000000E+00 0.  1.
          6    1    1    2  501    0 -0.39613841782E+01  0.21995470326E+03  0.35101062546E+03  0.44854010215E+03  0.17200000000E+03 0.  1.
         -6    1    1    2    0  503  0.39613841782E+01 -0.21995470326E+03 -0.98936793337E+01  0.27942378020E+03  0.17200000000E+03 0.  1.
<mgrwt>
<rscale>  2 0.27924857E+03</rscale>
<asrwt>0</asrwt>
<pdfrwt beam="1">  1       21 0.13363510E+00 0.27924857E+03</pdfrwt>
<pdfrwt beam="2">  1       21 0.48355868E-01 0.27924857E+03</pdfrwt>
<totfact> 0.15342107E+03</totfact>
</mgrwt>
</event>
<event>
 4    1  0.1119790E+000  0.1826928E+03  0.7546771E-02  0.1165222E+00
         21   -1    0    0  501  502  0.00000000000E+00  0.00000000000E+00  0.39621981831E+02  0.39621981831E+02  0.00000000000E+00 0. -1.
         21   -1    0    0  502  503 -0.00000000000E+00 -0.00000000000E+00 -0.88990900706E+03  0.88990900706E+03  0.00000000000E+00 0. -1.
          6    1    1    2  501    0  0.10367072706E+02  0.60705847436E+02 -0.31773203213E+03  0.36651100986E+03  0.17200000000E+03 0. -1.
         -6    1    1    2    0  503 -0.10367072706E+02 -0.60705847436E+02 -0.53255499310E+03  0.56301997903E+03  0.17200000000E+03 0. -1.
<mgrwt>
<rscale>  2 0.18269285E+03</rscale>
<asrwt>0</asrwt>
<pdfrwt beam="1">  1       21 0.99054950E-02 0.18269285E+03</pdfrwt>
<pdfrwt beam="2">  1       21 0.22247726E+00 0.18269285E+03</pdfrwt>
<totfact> 0.80909889E+03</totfact>
</mgrwt>
</event>
<event>
 4    1  0.1119790E+000  0.2387725E+03  0.7546771E-02  0.1120613E+00
         21   -1    0    0  501  502  0.00000000000E+00  0.00000000000E+00  0.37656933226E+03  0.37656933226E+03  0.00000000000E+00 0.  1.
         21   -1    0    0  502  503 -0.00000000000E+00 -0.00000000000E+00 -0.30329877002E+03  0.30329877002E+03  0.00000000000E+00 0.  1.
          6    1    1    2  501    0 -0.97625399348E+02  0.13378192248E+03  0.27720309409E+03  0.36586046077E+03  0.17200000000E+03 0.  1.
         -6    1    1    2    0  503  0.97625399348E+02 -0.13378192248E+03 -0.20393253185E+03  0.31400764151E+03  0.17200000000E+03 0.  1.
<mgrwt>
<rscale>  2 0.23877253E+03</rscale>
<asrwt>0</asrwt>
<pdfrwt beam="1">  1       21 0.94142333E-01 0.23877253E+03</pdfrwt>
<pdfrwt beam="2">  1       21 0.75824693E-01 0.23877253E+03</pdfrwt>
<totfact> 0.14097674E+03</totfact>
</mgrwt>
</event>
<event>
 4    1  0.1119790E+000  0.1740412E+03  0.7546771E-02  0.1173698E+00
         21   -1    0    0  503  502  0.00000000000E+00  0.00000000000E+00  0.35511175373E+02  0.35511175373E+02  0.00000000000E+00 0. -1.
         21   -1    0    0  501  503 -0.00000000000E+00 -0.00000000000E+00 -0.85864933209E+03  0.85864933209E+03  0.00000000000E+00 0. -1.
          6    1    1    2  501    0 -0.22031077038E+02  0.14865052323E+02 -0.37524233109E+03  0.41363890675E+03  0.17200000000E+03 0. -1.
         -6    1    1    2    0  502  0.22031077038E+02 -0.14865052323E+02 -0.44789582563E+03  0.48052160071E+03  0.17200000000E+03 0. -1.
<mgrwt>
<rscale>  2 0.17404120E+03</rscale>
<asrwt>0</asrwt>
<pdfrwt beam="1">  1       21 0.88777935E-02 0.17404120E+03</pdfrwt>
<pdfrwt beam="2">  1       21 0.21466234E+00 0.17404120E+03</pdfrwt>
<totfact> 0.11039894E+04</totfact>
</mgrwt>
</event>
<event>
 4    1  0.1119790E+000  0.2515589E+03  0.7546771E-02  0.1112324E+00
         21   -1    0    0  501  502  0.00000000000E+00  0.00000000000E+00  0.59720740979E+03  0.59720740979E+03  0.00000000000E+00 0.  1.
         21   -1    0    0  502  503 -0.00000000000E+00 -0.00000000000E+00 -0.13196503850E+03  0.13196503850E+03  0.00000000000E+00 0. -1.
          6    1    1    2  501    0  0.15630792219E+03 -0.96258499462E+02  0.70785296732E+02  0.26132819116E+03  0.17200000000E+03 0. -1.
         -6    1    1    2    0  503 -0.15630792219E+03  0.96258499462E+02  0.39445707456E+03  0.46784425713E+03  0.17200000000E+03 0.  1.
<mgrwt>
<rscale>  2 0.25155887E+03</rscale>
<asrwt>0</asrwt>
<pdfrwt beam="1">  1       21 0.14930185E+00 0.25155887E+03</pdfrwt>
<pdfrwt beam="2">  1       21 0.32991261E-01 0.25155887E+03</pdfrwt>
<totfact> 0.25493929E+03</totfact>
</mgrwt>
</event>
<event>
 4    1  0.1119790E+000  0.1744002E+03  0.7546771E-02  0.1173335E+00
         21   -1    0    0  503  502  0.00000000000E+00  0.00000000000E+00  0.60652928996E+03  0.60652928996E+03  0.00000000000E+00 0. -1.
         21   -1    0    0  501  503 -0.00000000000E+00 -0.00000000000E+00 -0.15743633742E+03  0.15743633742E+03  0.00000000000E+00 0. -1.
          6    1    1    2  501    0  0.23125887934E+02  0.17222253618E+02 -0.90787176903E+02  0.19661567639E+03  0.17200000000E+03 0. -1.
         -6    1    1    2    0  502 -0.23125887934E+02 -0.17222253618E+02  0.53988012944E+03  0.56734995098E+03  0.17200000000E+03 0. -1.
<mgrwt>
<rscale>  2 0.17440015E+03</rscale>
<asrwt>0</asrwt>
<pdfrwt beam="1">  1       21 0.15163232E+00 0.17440015E+03</pdfrwt>
<pdfrwt beam="2">  1       21 0.39359086E-01 0.17440015E+03</pdfrwt>
<totfact> 0.18414486E+03</totfact>
</mgrwt>
</event>
<event>
 4    1  0.1119790E+000  0.3277237E+03  0.7546771E-02  0.1072149E+00
         21   -1    0    0  501  502  0.00000000000E+00  0.00000000000E+00  0.25340647859E+03  0.25340647859E+03  0.00000000000E+00 0. -1.
         21   -1    0    0  502  503 -0.00000000000E+00 -0.00000000000E+00 -0.53637376161E+03  0.53637376161E+03  0.00000000000E+00 0.  1.
          6    1    1    2  501    0 -0.26619557539E+03 -0.83418884252E+02  0.39396793476E+02  0.33008317428E+03  0.17200000000E+03 0. -1.
         -6    1    1    2    0  503  0.26619557539E+03  0.83418884252E+02 -0.32236407649E+03  0.45969706592E+03  0.17200000000E+03 0.  1.
<mgrwt>
<rscale>  2 0.32772366E+03</rscale>
<asrwt>0</asrwt>
<pdfrwt beam="1">  1       21 0.63351620E-01 0.32772366E+03</pdfrwt>
<pdfrwt beam="2">  1       21 0.13409344E+00 0.32772366E+03</pdfrwt>
<totfact> 0.82636512E+02</totfact>
</mgrwt>
</event>
<event>
 4    1  0.1119790E+000  0.1789086E+03  0.7546771E-02  0.1168864E+00
         21   -1    0    0  501  502  0.00000000000E+00  0.00000000000E+00  0.42348036397E+03  0.42348036397E+03  0.00000000000E+00 0. -1.
         21   -1    0    0  502  503 -0.00000000000E+00 -0.00000000000E+00 -0.24973712394E+03  0.24973712394E+03  0.00000000000E+00 0. -1.
          6    1    1    2  501    0 -0.24731279066E+02 -0.42575030777E+02  0.36796439456E+03  0.40915286272E+03  0.17200000000E+03 0. -1.
         -6    1    1    2    0  503  0.24731279066E+02  0.42575030777E+02 -0.19422115453E+03  0.26406462519E+03  0.17200000000E+03 0. -1.
<mgrwt>
<rscale>  2 0.17890855E+03</rscale>
<asrwt>0</asrwt>
<pdfrwt beam="1">  1       21 0.10587009E+00 0.17890855E+03</pdfrwt>
<pdfrwt beam="2">  1       21 0.62434281E-01 0.17890855E+03</pdfrwt>
<totfact> 0.17262718E+03</totfact>
</mgrwt>
</event>
<event>
 4    1  0.1119790E+000  0.1979915E+03  0.7546771E-02  0.1151445E+00
         21   -1    0    0  503  502  0.00000000000E+00  0.00000000000E+00  0.47802538611E+03  0.47802538611E+03  0.00000000000E+00 0. -1.
         21   -1    0    0  501  503 -0.00000000000E+00 -0.00000000000E+00 -0.10045815146E+03  0.10045815146E+03  0.00000000000E+00 0. -1.
          6    1    1    2  501    0  0.85157997622E+02 -0.48628752404E+02  0.64818485430E+02  0.20833164947E+03  0.17200000000E+03 0. -1.
         -6    1    1    2    0  502 -0.85157997622E+02  0.48628752404E+02  0.31274874922E+03  0.37015188809E+03  0.17200000000E+03 0. -1.
<mgrwt>
<rscale>  2 0.19799152E+03</rscale>
<asrwt>0</asrwt>
<pdfrwt beam="1">  1       21 0.11950634E+00 0.19799152E+03</pdfrwt>
<pdfrwt beam="2">  1       21 0.25114539E-01 0.19799152E+03</pdfrwt>
<totfact> 0.79789288E+03</totfact>
</mgrwt>
</event>
<event>
 4    1  0.1119790E+000  0.2289173E+03  0.7546771E-02  0.1127404E+00
         21   -1    0    0  503  502  0.00000000000E+00  0.00000000000E+00  0.34891960146E+03  0.34891960146E+03  0.00000000000E+00 0. -1.
         21   -1    0    0  501  503 -0.00000000000E+00 -0.00000000000E+00 -0.37588412923E+03  0.37588412923E+03  0.00000000000E+00 0. -1.
          6    1    1    2  501    0 -0.10471620123E+02 -0.15069661605E+03 -0.29430135011E+03  0.37284904398E+03  0.17200000000E+03 0. -1.
         -6    1    1    2    0  502  0.10471620123E+02  0.15069661605E+03  0.26733682234E+03  0.35195468671E+03  0.17200000000E+03 0. -1.
<mgrwt>
<rscale>  2 0.22891729E+03</rscale>
<asrwt>0</asrwt>
<pdfrwt beam="1">  1       21 0.87229901E-01 0.22891729E+03</pdfrwt>
<pdfrwt beam="2">  1       21 0.93971032E-01 0.22891729E+03</pdfrwt>
<totfact> 0.10370090E+03</totfact>
</mgrwt>
</event>
<event>
 4    1  0.1119790E+000  0.2130763E+03  0.7546771E-02  0.1139153E+00
         21   -1    0    0  501  502  0.00000000000E+00  0.00000000000E+00  0.18876966399E+03  0.18876966399E+03  0.00000000000E+00 0.  1.
         21   -1    0    0  502  503 -0.00000000000E+00 -0.00000000000E+00 -0.25362135595E+03  0.25362135595E+03  0.00000000000E+00 0.  1.
          6    1    1    2  501    0  0.54342866336E+02 -0.11342110543E+03  0.17862009894E+02  0.21382363217E+03  0.17200000000E+03 0.  1.
         -6    1    1    2    0  503 -0.54342866336E+02  0.11342110543E+03 -0.82713701860E+02  0.22856738777E+03  0.17200000000E+03 0.  1.
<mgrwt>
<rscale>  2 0.21307626E+03</rscale>
<asrwt>0</asrwt>
<pdfrwt beam="1">  1       21 0.47192416E-01 0.21307626E+03</pdfrwt>
<pdfrwt beam="2">  1       21 0.63405339E-01 0.21307626E+03</pdfrwt>
<totfact> 0.97462585E+03</totfact>
</mgrwt>
</event>
<event>
 4    1  0.1119790E+000  0.2069394E+03  0.7546771E-02  0.1144013E+00
         21   -1    0    0  501  502  0.00000000000E+00  0.00000000000E+00  0.33739814167E+03  0.33739814167E+03  0.00000000000E+00 0. -1.
         21   -1    0    0  502  503 -0.00000000000E+00 -0.00000000000E+00 -0.15721484074E+03  0.15721484074E+03  0.00000000000E+00 0.  1.
          6    1    1    2  501    0  0.17736562706E+02 -0.11368954035E+03  0.19864542522E+03  0.28685170768E+03  0.17200000000E+03 0. -1.
         -6    1    1    2    0  503 -0.17736562706E+02  0.11368954035E+03 -0.18462124297E+02  0.20776127472E+03  0.17200000000E+03 0. -1.
<mgrwt>
<rscale>  2 0.20693936E+03</rscale>
<asrwt>0</asrwt>
<pdfrwt beam="1">  1       21 0.84349534E-01 0.20693936E+03</pdfrwt>
<pdfrwt beam="2">  1       21 0.39303711E-01 0.20693936E+03</pdfrwt>
<totfact> 0.75320382E+03</totfact>
</mgrwt>
</event>
<event>
 4    1  0.1119790E+000  0.1727919E+03  0.7546771E-02  0.1174967E+00
         21   -1    0    0  503  502  0.00000000000E+00  0.00000000000E+00  0.19132775525E+03  0.19132775525E+03  0.00000000000E+00 0. -1.
         21   -1    0    0  501  503 -0.00000000000E+00 -0.00000000000E+00 -0.61963020999E+03  0.61963020999E+03  0.00000000000E+00 0. -1.
          6    1    1    2  501    0 -0.16422970986E+02 -0.18204477898E+01 -0.56487377564E+03  0.59071093643E+03  0.17200000000E+03 0. -1.
         -6    1    1    2    0  502  0.16422970986E+02  0.18204477898E+01  0.13657132091E+03  0.22024702881E+03  0.17200000000E+03 0. -1.
<mgrwt>
<rscale>  2 0.17279186E+03</rscale>
<asrwt>0</asrwt>
<pdfrwt beam="1">  1       21 0.47831939E-01 0.17279186E+03</pdfrwt>
<pdfrwt beam="2">  1       21 0.15490755E+00 0.17279186E+03</pdfrwt>
<totfact> 0.11719030E+03</totfact>
</mgrwt>
</event>
<event>
 4    1  0.1119790E+000  0.1722651E+03  0.7546771E-02  0.1175506E+00
         21   -1    0    0  503  502  0.00000000000E+00  0.00000000000E+00  0.72116240184E+03  0.72116240184E+03  0.00000000000E+00 0. -1.
         21   -1    0    0  501  503 -0.00000000000E+00 -0.00000000000E+00 -0.44224976967E+02  0.44224976967E+02  0.00000000000E+00 0. -1.
          6    1    1    2  501    0 -0.73140597391E+00  0.95249060847E+01  0.23754467155E+03  0.29343266651E+03  0.17200000000E+03 0. -1.
         -6    1    1    2    0  502  0.73140597391E+00 -0.95249060847E+01  0.43939275332E+03  0.47195471230E+03  0.17200000000E+03 0. -1.
<mgrwt>
<rscale>  2 0.17226508E+03</rscale>
<asrwt>0</asrwt>
<pdfrwt beam="1">  1       21 0.18029056E+00 0.17226508E+03</pdfrwt>
<pdfrwt beam="2">  1       21 0.11056247E-01 0.17226508E+03</pdfrwt>
<totfact> 0.12505226E+04</totfact>
</mgrwt>
</event>
<event>
 4    1  0.1119790E+000  0.2354443E+03  0.7546771E-02  0.1122865E+00
         21   -1    0    0  503  502  0.00000000000E+00  0.00000000000E+00  0.58168291813E+03  0.58168291813E+03  0.00000000000E+00 0. -1.
         21   -1    0    0  501  503 -0.00000000000E+00 -0.00000000000E+00 -0.33479060500E+03  0.33479060500E+03  0.00000000000E+00 0.  1.
          6    1    1    2  501    0  0.13159152916E+03  0.92377870170E+02 -0.26412203802E+03  0.35382828097E+03  0.17200000000E+03 0.  1.
         -6    1    1    2    0  502 -0.13159152916E+03 -0.92377870170E+02  0.51101435115E+03  0.56264524216E+03  0.17200000000E+03 0. -1.
<mgrwt>
<rscale>  2 0.23544426E+03</rscale>
<asrwt>0</asrwt>
<pdfrwt beam="1">  1       21 0.14542073E+00 0.23544426E+03</pdfrwt>
<pdfrwt beam="2">  1       21 0.83697652E-01 0.23544426E+03</pdfrwt>
<totfact> 0.38425332E+02</totfact>
</mgrwt>
</event>
<event>
 4    1  0.1119790E+000  0.2317969E+03  0.7546771E-02  0.1125381E+00
         21   -1    0    0  501  502  0.00000000000E+00  0.00000000000E+00  0.26209747194E+03  0.26209747194E+03  0.00000000000E+00 0. -1.
         21   -1    0    0  502  503 -0.00000000000E+00 -0.00000000000E+00 -0.24352000945E+03  0.24352000945E+03  0.00000000000E+00 0. -1.
          6    1    1    2  501    0  0.52238070653E+01  0.15530135618E+03  0.10983636948E+03  0.25650307494E+03  0.17200000000E+03 0. -1.
         -6    1    1    2    0  503 -0.52238070653E+01 -0.15530135618E+03 -0.91258906992E+02  0.24911440644E+03  0.17200000000E+03 0. -1.
<mgrwt>
<rscale>  2 0.23179689E+03</rscale>
<asrwt>0</asrwt>
<pdfrwt beam="1">  1       21 0.65524368E-01 0.23179689E+03</pdfrwt>
<pdfrwt beam="2">  1       21 0.60880002E-01 0.23179689E+03</pdfrwt>
<totfact> 0.52274291E+03</totfact>
</mgrwt>
</event>
<event>
 4    1  0.1119790E+000  0.1781887E+03  0.7546771E-02  0.1169568E+00
         21   -1    0    0  501  502  0.00000000000E+00  0.00000000000E+00  0.35002487566E+03  0.35002487566E+03  0.00000000000E+00 0.  1.
         21   -1    0    0  502  503 -0.00000000000E+00 -0.00000000000E+00 -0.10826096577E+03  0.10826096577E+03  0.00000000000E+00 0.  1.
          6    1    1    2  501    0 -0.15194295022E+02 -0.44003952809E+02  0.21314012076E+03  0.27781275266E+03  0.17200000000E+03 0.  1.
         -6    1    1    2    0  503  0.15194295022E+02  0.44003952809E+02  0.28623789128E+02  0.18047308876E+03  0.17200000000E+03 0.  1.
<mgrwt>
<rscale>  2 0.17818870E+03</rscale>
<asrwt>0</asrwt>
<pdfrwt beam="1">  1       21 0.87506216E-01 0.17818870E+03</pdfrwt>
<pdfrwt beam="2">  1       21 0.27065242E-01 0.17818870E+03</pdfrwt>
<totfact> 0.14720864E+04</totfact>
</mgrwt>
</event>
<event>
 4    1  0.1119790E+000  0.1941984E+03  0.7546771E-02  0.1154728E+00
         21   -1    0    0  501  502  0.00000000000E+00  0.00000000000E+00  0.26208601593E+03  0.26208601593E+03  0.00000000000E+00 0. -1.
         21   -1    0    0  502  503 -0.00000000000E+00 -0.00000000000E+00 -0.29229992516E+03  0.29229992516E+03  0.00000000000E+00 0. -1.
          6    1    1    2  501    0 -0.22285607924E+02  0.87363344224E+02  0.18240403460E+03  0.26642866601E+03  0.17200000000E+03 0. -1.
         -6    1    1    2    0  503  0.22285607924E+02 -0.87363344224E+02 -0.21261794383E+03  0.28795727508E+03  0.17200000000E+03 0. -1.
<mgrwt>
<rscale>  2 0.19419836E+03</rscale>
<asrwt>0</asrwt>
<pdfrwt beam="1">  1       21 0.65521504E-01 0.19419836E+03</pdfrwt>
<pdfrwt beam="2">  1       21 0.73074981E-01 0.19419836E+03</pdfrwt>
<totfact> 0.36040642E+03</totfact>
</mgrwt>
</event>
<event>
 4    1  0.1119790E+000  0.2481856E+03  0.7546771E-02  0.1114457E+00
         21   -1    0    0  503  502  0.00000000000E+00  0.00000000000E+00  0.10170937101E+03  0.10170937101E+03  0.00000000000E+00 0.  1.
         21   -1    0    0  501  503 -0.00000000000E+00 -0.00000000000E+00 -0.80894154421E+03  0.80894154421E+03  0.00000000000E+00 0. -1.
          6    1    1    2  501    0  0.95175073303E+02  0.15150508647E+03 -0.58189566891E+03  0.63261256334E+03  0.17200000000E+03 0. -1.
         -6    1    1    2    0  502 -0.95175073303E+02 -0.15150508647E+03 -0.12533650429E+03  0.27803835187E+03  0.17200000000E+03 0.  1.
<mgrwt>
<rscale>  2 0.24818559E+03</rscale>
<asrwt>0</asrwt>
<pdfrwt beam="1">  1       21 0.25427343E-01 0.24818559E+03</pdfrwt>
<pdfrwt beam="2">  1       21 0.20223538E+00 0.24818559E+03</pdfrwt>
<totfact> 0.18078036E+03</totfact>
</mgrwt>
</event>
<event>
 4    1  0.1119790E+000  0.1865802E+03  0.7546771E-02  0.1161582E+00
         21   -1    0    0  501  502  0.00000000000E+00  0.00000000000E+00  0.13165084543E+03  0.13165084543E+03  0.00000000000E+00 0.  1.
         21   -1    0    0  502  503 -0.00000000000E+00 -0.00000000000E+00 -0.30745045567E+03  0.30745045567E+03  0.00000000000E+00 0.  1.
          6    1    1    2  501    0  0.31537432243E+02  0.65065844534E+02 -0.57711706143E+01  0.18666944090E+03  0.17200000000E+03 0.  1.
         -6    1    1    2    0  503 -0.31537432243E+02 -0.65065844534E+02 -0.17002843963E+03  0.25243186019E+03  0.17200000000E+03 0.  1.
<mgrwt>
<rscale>  2 0.18658021E+03</rscale>
<asrwt>0</asrwt>
<pdfrwt beam="1">  1       21 0.32912712E-01 0.18658021E+03</pdfrwt>
<pdfrwt beam="2">  1       21 0.76862614E-01 0.18658021E+03</pdfrwt>
<totfact> 0.13427719E+04</totfact>
</mgrwt>
</event>
<event>
 4    1  0.1119790E+000  0.1959401E+03  0.7546771E-02  0.1153210E+00
         21   -1    0    0  503  502  0.00000000000E+00  0.00000000000E+00  0.27716463977E+03  0.27716463977E+03  0.00000000000E+00 0.  1.
         21   -1    0    0  501  503 -0.00000000000E+00 -0.00000000000E+00 -0.15633406013E+03  0.15633406013E+03  0.00000000000E+00 0.  1.
          6    1    1    2  501    0  0.72027340795E+01  0.93576977672E+02 -0.12753579560E+02  0.19635474000E+03  0.17200000000E+03 0.  1.
         -6    1    1    2    0  502 -0.72027340795E+01 -0.93576977672E+02  0.13358415920E+03  0.23714395990E+03  0.17200000000E+03 0.  1.
<mgrwt>
<rscale>  2 0.19594012E+03</rscale>
<asrwt>0</asrwt>
<pdfrwt beam="1">  1       21 0.69291159E-01 0.19594012E+03</pdfrwt>
<pdfrwt beam="2">  1       21 0.39083515E-01 0.19594012E+03</pdfrwt>
<totfact> 0.11934361E+04</totfact>
</mgrwt>
</event>
<event>
 4    1  0.1119790E+000  0.1840653E+03  0.7546771E-02  0.1163926E+00
         21   -1    0    0  503  502  0.00000000000E+00  0.00000000000E+00  0.38709124115E+03  0.38709124115E+03  0.00000000000E+00 0. -1.
         21   -1    0    0  501  503 -0.00000000000E+00 -0.00000000000E+00 -0.18545526822E+03  0.18545526822E+03  0.00000000000E+00 0. -1.
          6    1    1    2  501    0  0.58476251161E+02  0.29607066550E+02 -0.10720929487E+03  0.21301146271E+03  0.17200000000E+03 0. -1.
         -6    1    1    2    0  502 -0.58476251161E+02 -0.29607066550E+02  0.30884526779E+03  0.35953504666E+03  0.17200000000E+03 0. -1.
<mgrwt>
<rscale>  2 0.18406534E+03</rscale>
<asrwt>0</asrwt>
<pdfrwt beam="1">  1       21 0.96772809E-01 0.18406534E+03</pdfrwt>
<pdfrwt beam="2">  1       21 0.46363818E-01 0.18406534E+03</pdfrwt>
<totfact> 0.39810672E+03</totfact>
</mgrwt>
</event>
<event>
 4    1  0.1119790E+000  0.2069204E+03  0.7546771E-02  0.1144028E+00
         21   -1    0    0  501  502  0.00000000000E+00  0.00000000000E+00  0.49905813137E+03  0.49905813137E+03  0.00000000000E+00 0.  1.
         21   -1    0    0  502  503 -0.00000000000E+00 -0.00000000000E+00 -0.98076175206E+02  0.98076175206E+02  0.00000000000E+00 0. -1.
          6    1    1    2  501    0 -0.10477422342E+03  0.47480508039E+02  0.30614924077E+03  0.36951778599E+03  0.17200000000E+03 0.  1.
         -6    1    1    2    0  503  0.10477422342E+03 -0.47480508039E+02  0.94832715394E+02  0.22761652059E+03  0.17200000000E+03 0. -1.
<mgrwt>
<rscale>  2 0.20692036E+03</rscale>
<asrwt>0</asrwt>
<pdfrwt beam="1">  1       21 0.12476453E+00 0.20692036E+03</pdfrwt>
<pdfrwt beam="2">  1       21 0.24519045E-01 0.20692036E+03</pdfrwt>
<totfact> 0.74527328E+03</totfact>
</mgrwt>
</event>
<event>
 4    1  0.1119790E+000  0.1722507E+03  0.7546771E-02  0.1175521E+00
         21   -1    0    0  503  502  0.00000000000E+00  0.00000000000E+00  0.85874465075E+02  0.85874465075E+02  0.00000000000E+00 0.  1.
         21   -1    0    0  501  503 -0.00000000000E+00 -0.00000000000E+00 -0.46838572557E+03  0.46838572557E+03  0.00000000000E+00 0.  1.
          6    1    1    2  501    0 -0.92366885245E+01 -0.98604721533E+00 -0.33320026518E+03  0.37509026303E+03  0.17200000000E+03 0.  1.
         -6    1    1    2    0  502  0.92366885245E+01  0.98604721533E+00 -0.49310995322E+02  0.17916992762E+03  0.17200000000E+03 0.  1.
<mgrwt>
<rscale>  2 0.17225066E+03</rscale>
<asrwt>0</asrwt>
<pdfrwt beam="1">  1       21 0.21468616E-01 0.17225066E+03</pdfrwt>
<pdfrwt beam="2">  1       21 0.11709643E+00 0.17225066E+03</pdfrwt>
<totfact> 0.11506329E+04</totfact>
</mgrwt>
</event>
<event>
 4    1  0.1119790E+000  0.1907964E+03  0.7546771E-02  0.1157745E+00
         21   -1    0    0  503  502  0.00000000000E+00  0.00000000000E+00  0.35182440383E+03  0.35182440383E+03  0.00000000000E+00 0.  1.
         21   -1    0    0  501  503 -0.00000000000E+00 -0.00000000000E+00 -0.16850982404E+03  0.16850982404E+03  0.00000000000E+00 0.  1.
          6    1    1    2  501    0 -0.73769176410E+02  0.37113229339E+02 -0.69975455846E+02  0.20322363938E+03  0.17200000000E+03 0.  1.
         -6    1    1    2    0  502  0.73769176410E+02 -0.37113229339E+02  0.25329003564E+03  0.31711058849E+03  0.17200000000E+03 0.  1.
<mgrwt>
<rscale>  2 0.19079644E+03</rscale>
<asrwt>0</asrwt>
<pdfrwt beam="1">  1       21 0.87956100E-01 0.19079644E+03</pdfrwt>
<pdfrwt beam="2">  1       21 0.42127457E-01 0.19079644E+03</pdfrwt>
<totfact> 0.60160544E+03</totfact>
</mgrwt>
</event>
<event>
 4    1  0.1119790E+000  0.1971666E+03  0.7546771E-02  0.1152152E+00
         21   -1    0    0  501  502  0.00000000000E+00  0.00000000000E+00  0.13000670421E+03  0.13000670421E+03  0.00000000000E+00 0. -1.
         21   -1    0    0  502  503 -0.00000000000E+00 -0.00000000000E+00 -0.30331427122E+03  0.30331427122E+03  0.00000000000E+00 0.  1.
          6    1    1    2  501    0  0.78418006592E+02 -0.56047203917E+02 -0.60875646514E+02  0.20635047168E+03  0.17200000000E+03 0. -1.
         -6    1    1    2    0  503 -0.78418006592E+02  0.56047203917E+02 -0.11243192050E+03  0.22697050375E+03  0.17200000000E+03 0.  1.
<mgrwt>
<rscale>  2 0.19716661E+03</rscale>
<asrwt>0</asrwt>
<pdfrwt beam="1">  1       21 0.32501676E-01 0.19716661E+03</pdfrwt>
<pdfrwt beam="2">  1       21 0.75828568E-01 0.19716661E+03</pdfrwt>
<totfact> 0.14090687E+04</totfact>
</mgrwt>
</event>
<event>
 4    1  0.1119790E+000  0.1971896E+03  0.7546771E-02  0.1152132E+00
         21   -1    0    0  503  502  0.00000000000E+00  0.00000000000E+00  0.28384497094E+03  0.28384497094E+03  0.00000000000E+00 0. -1.
         21   -1    0    0  501  503 -0.00000000000E+00 -0.00000000000E+00 -0.17218188154E+03  0.17218188154E+03  0.00000000000E+00 0. -1.
          6    1    1    2  501    0 -0.96286183473E+02 -0.53599162720E+01 -0.47252516613E+02  0.20277218290E+03  0.17200000000E+03 0. -1.
         -6    1    1    2    0  502  0.96286183473E+02  0.53599162720E+01  0.15891560601E+03  0.25325466958E+03  0.17200000000E+03 0. -1.
<mgrwt>
<rscale>  2 0.19718965E+03</rscale>
<asrwt>0</asrwt>
<pdfrwt beam="1">  1       21 0.70961242E-01 0.19718965E+03</pdfrwt>
<pdfrwt beam="2">  1       21 0.43045471E-01 0.19718965E+03</pdfrwt>
<totfact> 0.93011504E+03</totfact>
</mgrwt>
</event>
<event>
 4    1  0.1119790E+000  0.2057588E+03  0.7546771E-02  0.1144969E+00
         21   -1    0    0  501  502  0.00000000000E+00  0.00000000000E+00  0.97599241611E+02  0.97599241611E+02  0.00000000000E+00 0.  1.
         21   -1    0    0  502  503 -0.00000000000E+00 -0.00000000000E+00 -0.64163032195E+03  0.64163032195E+03  0.00000000000E+00 0. -1.
          6    1    1    2  501    0 -0.72102963386E+02 -0.86912904036E+02 -0.48238430948E+03  0.52443427829E+03  0.17200000000E+03 0. -1.
         -6    1    1    2    0  503  0.72102963386E+02  0.86912904036E+02 -0.61646770864E+02  0.21479528527E+03  0.17200000000E+03 0.  1.
<mgrwt>
<rscale>  2 0.20575882E+03</rscale>
<asrwt>0</asrwt>
<pdfrwt beam="1">  1       21 0.24399811E-01 0.20575882E+03</pdfrwt>
<pdfrwt beam="2">  1       21 0.16040758E+00 0.20575882E+03</pdfrwt>
<totfact> 0.39205114E+03</totfact>
</mgrwt>
</event>
<event>
 4    1  0.1119790E+000  0.2895428E+03  0.7546771E-02  0.1090588E+00
         21   -1    0    0  503  502  0.00000000000E+00  0.00000000000E+00  0.16594747235E+03  0.16594747235E+03  0.00000000000E+00 0. -1.
         21   -1    0    0  501  503 -0.00000000000E+00 -0.00000000000E+00 -0.92710079548E+03  0.92710079548E+03  0.00000000000E+00 0. -1.
          6    1    1    2  501    0 -0.23010648022E+03  0.36083911724E+02 -0.74926217281E+03  0.80326137996E+03  0.17200000000E+03 0. -1.
         -6    1    1    2    0  502  0.23010648022E+03 -0.36083911724E+02 -0.11891150315E+02  0.28978688787E+03  0.17200000000E+03 0. -1.
<mgrwt>
<rscale>  2 0.28954281E+03</rscale>
<asrwt>0</asrwt>
<pdfrwt beam="1">  1       21 0.41486869E-01 0.28954281E+03</pdfrwt>
<pdfrwt beam="2">  1       21 0.23177519E+00 0.28954281E+03</pdfrwt>
<totfact> 0.43096743E+02</totfact>
</mgrwt>
</event>
<event>
 4    1  0.1119790E+000  0.2575990E+03  0.7546771E-02  0.1108594E+00
         21   -1    0    0  501  502  0.00000000000E+00  0.00000000000E+00  0.75172735351E+02  0.75172735351E+02  0.00000000000E+00 0.  1.
         21   -1    0    0  502  503 -0.00000000000E+00 -0.00000000000E+00 -0.95863216207E+03  0.95863216207E+03  0.00000000000E+00 0.  1.
          6    1    1    2  501    0 -0.16587045169E+03 -0.96230050670E+02 -0.29628108236E+03  0.39260630301E+03  0.17200000000E+03 0.  1.
         -6    1    1    2    0  503  0.16587045169E+03  0.96230050670E+02 -0.58717834436E+03  0.64119859442E+03  0.17200000000E+03 0.  1.
<mgrwt>
<rscale>  2 0.25759897E+03</rscale>
<asrwt>0</asrwt>
<pdfrwt beam="1">  1       21 0.18793184E-01 0.25759897E+03</pdfrwt>
<pdfrwt beam="2">  1       21 0.23965804E+00 0.25759897E+03</pdfrwt>
<totfact> 0.18608456E+03</totfact>
</mgrwt>
</event>
<event>
 4    1  0.1119790E+000  0.2959991E+03  0.7546771E-02  0.1087258E+00
         21   -1    0    0  501  502  0.00000000000E+00  0.00000000000E+00  0.27277145580E+03  0.27277145580E+03  0.00000000000E+00 0. -1.
         21   -1    0    0  502  503 -0.00000000000E+00 -0.00000000000E+00 -0.36935215014E+03  0.36935215014E+03  0.00000000000E+00 0. -1.
          6    1    1    2  501    0  0.22492039941E+03  0.86268756382E+02  0.67628697267E+02  0.30362662118E+03  0.17200000000E+03 0. -1.
         -6    1    1    2    0  503 -0.22492039941E+03 -0.86268756382E+02 -0.16420939161E+03  0.33849698476E+03  0.17200000000E+03 0. -1.
<mgrwt>
<rscale>  2 0.29599913E+03</rscale>
<asrwt>0</asrwt>
<pdfrwt beam="1">  1       21 0.68192864E-01 0.29599913E+03</pdfrwt>
<pdfrwt beam="2">  1       21 0.92338037E-01 0.29599913E+03</pdfrwt>
<totfact> 0.17980366E+03</totfact>
</mgrwt>
</event>
<event>
 4    1  0.1119790E+000  0.2055776E+03  0.7546771E-02  0.1145117E+00
         21   -1    0    0  501  502  0.00000000000E+00  0.00000000000E+00  0.20864870857E+03  0.20864870857E+03  0.00000000000E+00 0.  1.
         21   -1    0    0  502  503 -0.00000000000E+00 -0.00000000000E+00 -0.28815537162E+03  0.28815537162E+03  0.00000000000E+00 0.  1.
          6    1    1    2  501    0 -0.64876790327E+02  0.92027950543E+02  0.95637141075E+02  0.22673465628E+03  0.17200000000E+03 0.  1.
         -6    1    1    2    0  503  0.64876790327E+02 -0.92027950543E+02 -0.17514380413E+03  0.27006942390E+03  0.17200000000E+03 0.  1.
<mgrwt>
<rscale>  2 0.20557758E+03</rscale>
<asrwt>0</asrwt>
<pdfrwt beam="1">  1       21 0.52162177E-01 0.20557758E+03</pdfrwt>
<pdfrwt beam="2">  1       21 0.72038842E-01 0.20557758E+03</pdfrwt>
<totfact> 0.60060220E+03</totfact>
</mgrwt>
</event>
<event>
 4    1  0.1119790E+000  0.1878513E+03  0.7546771E-02  0.1160414E+00
         21   -1    0    0  503  502  0.00000000000E+00  0.00000000000E+00  0.12301074877E+03  0.12301074877E+03  0.00000000000E+00 0.  1.
         21   -1    0    0  501  503 -0.00000000000E+00 -0.00000000000E+00 -0.36236381643E+03  0.36236381643E+03  0.00000000000E+00 0.  1.
          6    1    1    2  501    0  0.61542270157E+02 -0.43779513163E+02 -0.23044859066E+03  0.29731237735E+03  0.17200000000E+03 0.  1.
         -6    1    1    2    0  502 -0.61542270157E+02  0.43779513163E+02 -0.89044769970E+01  0.18806218785E+03  0.17200000000E+03 0.  1.
<mgrwt>
<rscale>  2 0.18785126E+03</rscale>
<asrwt>0</asrwt>
<pdfrwt beam="1">  1       21 0.30752687E-01 0.18785126E+03</pdfrwt>
<pdfrwt beam="2">  1       21 0.90590954E-01 0.18785126E+03</pdfrwt>
<totfact> 0.10541173E+04</totfact>
</mgrwt>
</event>
<event>
 4    1  0.1119790E+000  0.2058516E+03  0.7546771E-02  0.1144894E+00
         21   -1    0    0  503  502  0.00000000000E+00  0.00000000000E+00  0.22492192718E+03  0.22492192718E+03  0.00000000000E+00 0.  1.
         21   -1    0    0  501  503 -0.00000000000E+00 -0.00000000000E+00 -0.19776750256E+03  0.19776750256E+03  0.00000000000E+00 0.  1.
          6    1    1    2  501    0 -0.52011308572E+02 -0.10042763243E+03  0.59578249700E+02  0.21429991463E+03  0.17200000000E+03 0.  1.
         -6    1    1    2    0  502  0.52011308572E+02  0.10042763243E+03 -0.32423825077E+02  0.20838951511E+03  0.17200000000E+03 0.  1.
<mgrwt>
<rscale>  2 0.20585161E+03</rscale>
<asrwt>0</asrwt>
<pdfrwt beam="1">  1       21 0.56230482E-01 0.20585161E+03</pdfrwt>
<pdfrwt beam="2">  1       21 0.49441876E-01 0.20585161E+03</pdfrwt>
<totfact> 0.11507420E+04</totfact>
</mgrwt>
</event>
<event>
 4    1  0.1119790E+000  0.1793374E+03  0.7546771E-02  0.1168446E+00
         21   -1    0    0  503  502  0.00000000000E+00  0.00000000000E+00  0.43588756650E+03  0.43588756650E+03  0.00000000000E+00 0.  1.
         21   -1    0    0  501  503 -0.00000000000E+00 -0.00000000000E+00 -0.10015728290E+03  0.10015728290E+03  0.00000000000E+00 0.  1.
          6    1    1    2  501    0 -0.50195324224E+02 -0.76374403624E+01  0.30332774605E+02  0.18188451909E+03  0.17200000000E+03 0.  1.
         -6    1    1    2    0  502  0.50195324224E+02  0.76374403624E+01  0.30539750900E+03  0.35416033032E+03  0.17200000000E+03 0.  1.
<mgrwt>
<rscale>  2 0.17933739E+03</rscale>
<asrwt>0</asrwt>
<pdfrwt beam="1">  1       21 0.10897189E+00 0.17933739E+03</pdfrwt>
<pdfrwt beam="2">  1       21 0.25039322E-01 0.17933739E+03</pdfrwt>
<totfact> 0.10186222E+04</totfact>
</mgrwt>
</event>
<event>
 4    1  0.1119790E+000  0.1823993E+03  0.7546771E-02  0.1165501E+00
         21   -1    0    0  501  502  0.00000000000E+00  0.00000000000E+00  0.10903586159E+03  0.10903586159E+03  0.00000000000E+00 0. -1.
         21   -1    0    0  502  503 -0.00000000000E+00 -0.00000000000E+00 -0.37857032854E+03  0.37857032854E+03  0.00000000000E+00 0. -1.
          6    1    1    2  501    0  0.19115657775E+02 -0.57620299919E+02 -0.27380744634E+02  0.18444297903E+03  0.17200000000E+03 0. -1.
         -6    1    1    2    0  503 -0.19115657775E+02  0.57620299919E+02 -0.24215372232E+03  0.30316321111E+03  0.17200000000E+03 0. -1.
<mgrwt>
<rscale>  2 0.18239931E+03</rscale>
<asrwt>0</asrwt>
<pdfrwt beam="1">  1       21 0.27258966E-01 0.18239931E+03</pdfrwt>
<pdfrwt beam="2">  1       21 0.94642582E-01 0.18239931E+03</pdfrwt>
<totfact> 0.12075259E+04</totfact>
</mgrwt>
</event>
<event>
 4    1  0.1119790E+000  0.2013055E+03  0.7546771E-02  0.1148642E+00
         21   -1    0    0  501  502  0.00000000000E+00  0.00000000000E+00  0.18600771503E+03  0.18600771503E+03  0.00000000000E+00 0. -1.
         21   -1    0    0  502  503 -0.00000000000E+00 -0.00000000000E+00 -0.31557476761E+03  0.31557476761E+03  0.00000000000E+00 0. -1.
          6    1    1    2  501    0  0.10459269914E+03  0.52428267593E+00  0.74769141709E+02  0.21474247865E+03  0.17200000000E+03 0. -1.
         -6    1    1    2    0  503 -0.10459269914E+03 -0.52428267593E+00 -0.20433619429E+03  0.28684000398E+03  0.17200000000E+03 0. -1.
<mgrwt>
<rscale>  2 0.20130551E+03</rscale>
<asrwt>0</asrwt>
<pdfrwt beam="1">  1       21 0.46501929E-01 0.20130551E+03</pdfrwt>
<pdfrwt beam="2">  1       21 0.78893691E-01 0.20130551E+03</pdfrwt>
<totfact> 0.62450948E+03</totfact>
</mgrwt>
</event>
<event>
 4    1  0.1119790E+000  0.1796786E+03  0.7546771E-02  0.1168115E+00
         21   -1    0    0  501  502  0.00000000000E+00  0.00000000000E+00  0.14994809341E+03  0.14994809341E+03  0.00000000000E+00 0.  1.
         21   -1    0    0  502  503 -0.00000000000E+00 -0.00000000000E+00 -0.24250349476E+03  0.24250349476E+03  0.00000000000E+00 0.  1.
          6    1    1    2  501    0 -0.46513056923E+01 -0.51756620201E+02  0.19439604310E+02  0.18072708871E+03  0.17200000000E+03 0.  1.
         -6    1    1    2    0  503  0.46513056923E+01  0.51756620201E+02 -0.11199500566E+03  0.21172449946E+03  0.17200000000E+03 0.  1.
<mgrwt>
<rscale>  2 0.17967855E+03</rscale>
<asrwt>0</asrwt>
<pdfrwt beam="1">  1       21 0.37487024E-01 0.17967855E+03</pdfrwt>
<pdfrwt beam="2">  1       21 0.60625873E-01 0.17967855E+03</pdfrwt>
<totfact> 0.17530787E+04</totfact>
</mgrwt>
</event>
<event>
 4    1  0.1119790E+000  0.1918414E+03  0.7546771E-02  0.1156811E+00
         21   -1    0    0  503  502  0.00000000000E+00  0.00000000000E+00  0.23539005090E+03  0.23539005090E+03  0.00000000000E+00 0. -1.
         21   -1    0    0  501  503 -0.00000000000E+00 -0.00000000000E+00 -0.17546330844E+03  0.17546330844E+03  0.00000000000E+00 0. -1.
          6    1    1    2  501    0  0.50956199649E+02  0.67989548186E+02 -0.37837845641E+02  0.19553724839E+03  0.17200000000E+03 0. -1.
         -6    1    1    2    0  502 -0.50956199649E+02 -0.67989548186E+02  0.97764588103E+02  0.21531611094E+03  0.17200000000E+03 0. -1.
<mgrwt>
<rscale>  2 0.19184137E+03</rscale>
<asrwt>0</asrwt>
<pdfrwt beam="1">  1       21 0.58847513E-01 0.19184137E+03</pdfrwt>
<pdfrwt beam="2">  1       21 0.43865827E-01 0.19184137E+03</pdfrwt>
<totfact> 0.13495494E+04</totfact>
</mgrwt>
</event>
<event>
 4    1  0.1119790E+000  0.1925609E+03  0.7546771E-02  0.1156172E+00
         21   -1    0    0  503  502  0.00000000000E+00  0.00000000000E+00  0.25056162262E+03  0.25056162262E+03  0.00000000000E+00 0.  1.
         21   -1    0    0  501  503 -0.00000000000E+00 -0.00000000000E+00 -0.23907154181E+03  0.23907154181E+03  0.00000000000E+00 0.  1.
          6    1    1    2  501    0 -0.85309737094E+02 -0.14763605829E+02 -0.14536754370E+03  0.24127046662E+03  0.17200000000E+03 0.  1.
         -6    1    1    2    0  502  0.85309737094E+02  0.14763605829E+02  0.15685762450E+03  0.24836269781E+03  0.17200000000E+03 0.  1.
<mgrwt>
<rscale>  2 0.19256094E+03</rscale>
<asrwt>0</asrwt>
<pdfrwt beam="1">  1       21 0.62640406E-01 0.19256094E+03</pdfrwt>
<pdfrwt beam="2">  1       21 0.59767885E-01 0.19256094E+03</pdfrwt>
<totfact> 0.61711751E+03</totfact>
</mgrwt>
</event>
<event>
 4    1  0.1119790E+000  0.2388086E+03  0.7546771E-02  0.1120589E+00
         21   -1    0    0  503  502  0.00000000000E+00  0.00000000000E+00  0.38240761867E+03  0.38240761867E+03  0.00000000000E+00 0.  1.
         21   -1    0    0  501  503 -0.00000000000E+00 -0.00000000000E+00 -0.65997739352E+03  0.65997739352E+03  0.00000000000E+00 0. -1.
          6    1    1    2  501    0  0.11774558678E+03 -0.11653981030E+03 -0.59732570213E+03  0.64329429114E+03  0.17200000000E+03 0. -1.
         -6    1    1    2    0  502 -0.11774558678E+03  0.11653981030E+03  0.31975592728E+03  0.39909072104E+03  0.17200000000E+03 0.  1.
<mgrwt>
<rscale>  2 0.23880861E+03</rscale>
<asrwt>0</asrwt>
<pdfrwt beam="1">  1       21 0.95601905E-01 0.23880861E+03</pdfrwt>
<pdfrwt beam="2">  1       21 0.16499435E+00 0.23880861E+03</pdfrwt>
<totfact> 0.20021951E+02</totfact>
</mgrwt>
</event>
<event>
 4    1  0.1119790E+000  0.3033607E+03  0.7546771E-02  0.1083573E+00
         21   -1    0    0  501  502  0.00000000000E+00  0.00000000000E+00  0.12162158050E+04  0.12162158050E+04  0.00000000000E+00 0.  1.
         21   -1    0    0  502  503 -0.00000000000E+00 -0.00000000000E+00 -0.82001251313E+02  0.82001251313E+02  0.00000000000E+00 0.  1.
          6    1    1    2  501    0 -0.16212682191E+03 -0.19015413358E+03  0.74751132378E+03  0.80672230667E+03  0.17200000000E+03 0.  1.
         -6    1    1    2    0  503  0.16212682191E+03  0.19015413358E+03  0.38670322988E+03  0.49149474961E+03  0.17200000000E+03 0.  1.
<mgrwt>
<rscale>  2 0.30336068E+03</rscale>
<asrwt>0</asrwt>
<pdfrwt beam="1">  1       21 0.30405389E+00 0.30336068E+03</pdfrwt>
<pdfrwt beam="2">  1       21 0.20500317E-01 0.30336068E+03</pdfrwt>
<totfact> 0.63055010E+02</totfact>
</mgrwt>
</event>
<event>
 4    1  0.1119790E+000  0.1953117E+03  0.7546771E-02  0.1153756E+00
         21   -1    0    0  501  502  0.00000000000E+00  0.00000000000E+00  0.18714412224E+03  0.18714412224E+03  0.00000000000E+00 0. -1.
         21   -1    0    0  502  503 -0.00000000000E+00 -0.00000000000E+00 -0.26903261732E+03  0.26903261732E+03  0.00000000000E+00 0. -1.
          6    1    1    2  501    0  0.10003988950E+02 -0.91992249696E+02 -0.15322729525E+03  0.24824435101E+03  0.17200000000E+03 0. -1.
         -6    1    1    2    0  503 -0.10003988950E+02  0.91992249696E+02  0.71338800172E+02  0.20793238855E+03  0.17200000000E+03 0. -1.
<mgrwt>
<rscale>  2 0.19531168E+03</rscale>
<asrwt>0</asrwt>
<pdfrwt beam="1">  1       21 0.46786031E-01 0.19531168E+03</pdfrwt>
<pdfrwt beam="2">  1       21 0.67258154E-01 0.19531168E+03</pdfrwt>
<totfact> 0.88312498E+03</totfact>
</mgrwt>
</event>
<event>
 4    1  0.1119790E+000  0.2152252E+03  0.7546771E-02  0.1137494E+00
         21   -1    0    0  503  502  0.00000000000E+00  0.00000000000E+00  0.88944914830E+03  0.88944914830E+03  0.00000000000E+00 0.  1.
         21   -1    0    0  501  503 -0.00000000000E+00 -0.00000000000E+00 -0.24107200292E+03  0.24107200292E+03  0.00000000000E+00 0. -1.
          6    1    1    2  501    0 -0.61095939335E+02  0.11404015720E+03 -0.17630424485E+03  0.27821764504E+03  0.17200000000E+03 0. -1.
         -6    1    1    2    0  502  0.61095939335E+02 -0.11404015720E+03  0.82468139023E+03  0.85230350618E+03  0.17200000000E+03 0.  1.
<mgrwt>
<rscale>  2 0.21522516E+03</rscale>
<asrwt>0</asrwt>
<pdfrwt beam="1">  1       21 0.22236228E+00 0.21522516E+03</pdfrwt>
<pdfrwt beam="2">  1       21 0.60268003E-01 0.21522516E+03</pdfrwt>
<totfact> 0.24252407E+02</totfact>
</mgrwt>
</event>
<event>
 4    1  0.1119790E+000  0.1907676E+03  0.7546771E-02  0.1157771E+00
         21   -1    0    0  503  502  0.00000000000E+00  0.00000000000E+00  0.48233963648E+03  0.48233963648E+03  0.00000000000E+00 0.  1.
         21   -1    0    0  501  503 -0.00000000000E+00 -0.00000000000E+00 -0.78131310687E+02  0.78131310687E+02  0.00000000000E+00 0.  1.
          6    1    1    2  501    0 -0.34299524499E+02  0.75045391939E+02  0.15018504232E+03  0.24279171149E+03  0.17200000000E+03 0.  1.
         -6    1    1    2    0  502  0.34299524499E+02 -0.75045391939E+02  0.25402328347E+03  0.31767923567E+03  0.17200000000E+03 0.  1.
<mgrwt>
<rscale>  2 0.19076758E+03</rscale>
<asrwt>0</asrwt>
<pdfrwt beam="1">  1       21 0.12058490E+00 0.19076758E+03</pdfrwt>
<pdfrwt beam="2">  1       21 0.19532829E-01 0.19076758E+03</pdfrwt>
<totfact> 0.12603737E+04</totfact>
</mgrwt>
</event>
<event>
 4    1  0.1119790E+000  0.1743124E+03  0.7546771E-02  0.1173424E+00
         21   -1    0    0  501  502  0.00000000000E+00  0.00000000000E+00  0.29763307590E+03  0.29763307590E+03  0.00000000000E+00 0.  1.
         21   -1    0    0  502  503 -0.00000000000E+00 -0.00000000000E+00 -0.17895260782E+03  0.17895260782E+03  0.00000000000E+00 0.  1.
          6    1    1    2  501    0 -0.16885037767E+02 -0.22709514171E+02  0.21551275073E+03  0.27718328279E+03  0.17200000000E+03 0.  1.
         -6    1    1    2    0  503  0.16885037767E+02  0.22709514171E+02 -0.96832282646E+02  0.19940240093E+03  0.17200000000E+03 0.  1.
<mgrwt>
<rscale>  2 0.17431244E+03</rscale>
<asrwt>0</asrwt>
<pdfrwt beam="1">  1       21 0.74408268E-01 0.17431244E+03</pdfrwt>
<pdfrwt beam="2">  1       21 0.44738152E-01 0.17431244E+03</pdfrwt>
<totfact> 0.78668978E+03</totfact>
</mgrwt>
</event>
<event>
 4    1  0.1119790E+000  0.2122766E+03  0.7546771E-02  0.1139776E+00
         21   -1    0    0  501  502  0.00000000000E+00  0.00000000000E+00  0.12604538805E+03  0.12604538805E+03  0.00000000000E+00 0.  1.
         21   -1    0    0  502  503 -0.00000000000E+00 -0.00000000000E+00 -0.35829343337E+03  0.35829343337E+03  0.00000000000E+00 0.  1.
          6    1    1    2  501    0  0.12420421707E+03 -0.71187854728E+01 -0.10473584229E+03  0.23670859998E+03  0.17200000000E+03 0.  1.
         -6    1    1    2    0  503 -0.12420421707E+03  0.71187854728E+01 -0.12751220303E+03  0.24763022143E+03  0.17200000000E+03 0.  1.
<mgrwt>
<rscale>  2 0.21227662E+03</rscale>
<asrwt>0</asrwt>
<pdfrwt beam="1">  1       21 0.31511347E-01 0.21227662E+03</pdfrwt>
<pdfrwt beam="2">  1       21 0.89573358E-01 0.21227662E+03</pdfrwt>
<totfact> 0.10144863E+04</totfact>
</mgrwt>
</event>
<event>
 4    1  0.1119790E+000  0.1870228E+03  0.7546771E-02  0.1161174E+00
         21   -1    0    0  501  502  0.00000000000E+00  0.00000000000E+00  0.89017469854E+02  0.89017469854E+02  0.00000000000E+00 0. -1.
         21   -1    0    0  502  503 -0.00000000000E+00 -0.00000000000E+00 -0.46850723480E+03  0.46850723480E+03  0.00000000000E+00 0. -1.
          6    1    1    2  501    0  0.54183401688E+02  0.49575087781E+02 -0.77781804744E+02  0.20255255984E+03  0.17200000000E+03 0. -1.
         -6    1    1    2    0  503 -0.54183401688E+02 -0.49575087781E+02 -0.30170796020E+03  0.35497214481E+03  0.17200000000E+03 0. -1.
<mgrwt>
<rscale>  2 0.18702281E+03</rscale>
<asrwt>0</asrwt>
<pdfrwt beam="1">  1       21 0.22254368E-01 0.18702281E+03</pdfrwt>
<pdfrwt beam="2">  1       21 0.11712681E+00 0.18702281E+03</pdfrwt>
<totfact> 0.10631787E+04</totfact>
</mgrwt>
</event>
<event>
 4    1  0.1119790E+000  0.1770373E+03  0.7546771E-02  0.1170702E+00
         21   -1    0    0  503  502  0.00000000000E+00  0.00000000000E+00  0.13725047799E+03  0.13725047799E+03  0.00000000000E+00 0. -1.
         21   -1    0    0  501  503 -0.00000000000E+00 -0.00000000000E+00 -0.32743968691E+03  0.32743968691E+03  0.00000000000E+00 0. -1.
          6    1    1    2  501    0 -0.41904604339E+02  0.14867230226E+01 -0.22290469333E+03  0.28465542067E+03  0.17200000000E+03 0. -1.
         -6    1    1    2    0  502  0.41904604339E+02 -0.14867230226E+01  0.32715484407E+02  0.18003474423E+03  0.17200000000E+03 0. -1.
<mgrwt>
<rscale>  2 0.17703730E+03</rscale>
<asrwt>0</asrwt>
<pdfrwt beam="1">  1       21 0.34312620E-01 0.17703730E+03</pdfrwt>
<pdfrwt beam="2">  1       21 0.81859921E-01 0.17703730E+03</pdfrwt>
<totfact> 0.10802690E+04</totfact>
</mgrwt>
</event>
<event>
 4    1  0.1119790E+000  0.1837656E+03  0.7546771E-02  0.1164208E+00
         21   -1    0    0  503  502  0.00000000000E+00  0.00000000000E+00  0.52559303425E+03  0.52559303425E+03  0.00000000000E+00 0.  1.
         21   -1    0    0  501  503 -0.00000000000E+00 -0.00000000000E+00 -0.70085822844E+02  0.70085822844E+02  0.00000000000E+00 0.  1.
          6    1    1    2  501    0  0.24789272934E+02  0.59760267187E+02  0.14181532995E+03  0.23212364248E+03  0.17200000000E+03 0.  1.
         -6    1    1    2    0  502 -0.24789272934E+02 -0.59760267187E+02  0.31369188146E+03  0.36355521462E+03  0.17200000000E+03 0.  1.
<mgrwt>
<rscale>  2 0.18376561E+03</rscale>
<asrwt>0</asrwt>
<pdfrwt beam="1">  1       21 0.13139825E+00 0.18376561E+03</pdfrwt>
<pdfrwt beam="2">  1       21 0.17521457E-01 0.18376561E+03</pdfrwt>
<totfact> 0.12493261E+04</totfact>
</mgrwt>
</event>
<event>
 4    1  0.1119790E+000  0.1860095E+03  0.7546771E-02  0.1162111E+00
         21   -1    0    0  501  502  0.00000000000E+00  0.00000000000E+00  0.73130748475E+03  0.73130748475E+03  0.00000000000E+00 0.  1.
         21   -1    0    0  502  503 -0.00000000000E+00 -0.00000000000E+00 -0.47622528101E+02  0.47622528101E+02  0.00000000000E+00 0.  1.
          6    1    1    2  501    0  0.71116655553E+01  0.70462536638E+02  0.37329708395E+03  0.41707344406E+03  0.17200000000E+03 0.  1.
         -6    1    1    2    0  503 -0.71116655553E+01 -0.70462536638E+02  0.31038787270E+03  0.36185656879E+03  0.17200000000E+03 0.  1.
<mgrwt>
<rscale>  2 0.18600953E+03</rscale>
<asrwt>0</asrwt>
<pdfrwt beam="1">  1       21 0.18282684E+00 0.18600953E+03</pdfrwt>
<pdfrwt beam="2">  1       21 0.11905634E-01 0.18600953E+03</pdfrwt>
<totfact> 0.10418551E+04</totfact>
</mgrwt>
</event>
<event>
 4    1  0.1119790E+000  0.2458943E+03  0.7546771E-02  0.1115927E+00
         21   -1    0    0  503  502  0.00000000000E+00  0.00000000000E+00  0.33068324903E+02  0.33068324903E+02  0.00000000000E+00 0. -1.
         21   -1    0    0  501  503 -0.00000000000E+00 -0.00000000000E+00 -0.19947133032E+04  0.19947133032E+04  0.00000000000E+00 0. -1.
          6    1    1    2  501    0  0.17390711738E+03 -0.25225743332E+02 -0.12735337797E+04  0.12970552462E+04  0.17200000000E+03 0. -1.
         -6    1    1    2    0  502 -0.17390711738E+03  0.25225743332E+02 -0.68811119851E+03  0.73072638184E+03  0.17200000000E+03 0. -1.
<mgrwt>
<rscale>  2 0.24589433E+03</rscale>
<asrwt>0</asrwt>
<pdfrwt beam="1">  1       21 0.82670817E-02 0.24589433E+03</pdfrwt>
<pdfrwt beam="2">  1       21 0.49867830E+00 0.24589433E+03</pdfrwt>
<totfact> 0.20166992E+02</totfact>
</mgrwt>
</event>
<event>
 4    1  0.1119790E+000  0.1850867E+03  0.7546771E-02  0.1162969E+00
         21   -1    0    0  501  502  0.00000000000E+00  0.00000000000E+00  0.67248848583E+02  0.67248848583E+02  0.00000000000E+00 0.  1.
         21   -1    0    0  502  503 -0.00000000000E+00 -0.00000000000E+00 -0.75507907749E+03  0.75507907749E+03  0.00000000000E+00 0.  1.
          6    1    1    2  501    0 -0.24575415814E+02  0.63789870222E+02 -0.10938647835E+03  0.21499418655E+03  0.17200000000E+03 0. -1.
         -6    1    1    2    0  503  0.24575415814E+02 -0.63789870222E+02 -0.57844375055E+03  0.60733373952E+03  0.17200000000E+03 0. -1.
<mgrwt>
<rscale>  2 0.18508673E+03</rscale>
<asrwt>0</asrwt>
<pdfrwt beam="1">  1       21 0.16812212E-01 0.18508673E+03</pdfrwt>
<pdfrwt beam="2">  1       21 0.18876977E+00 0.18508673E+03</pdfrwt>
<totfact> 0.50950778E+03</totfact>
</mgrwt>
</event>
<event>
 4    1  0.1119790E+000  0.1756358E+03  0.7546771E-02  0.1172095E+00
         21   -1    0    0  501  502  0.00000000000E+00  0.00000000000E+00  0.10322420323E+04  0.10322420323E+04  0.00000000000E+00 0.  1.
         21   -1    0    0  502  503 -0.00000000000E+00 -0.00000000000E+00 -0.47513488565E+02  0.47513488565E+02  0.00000000000E+00 0. -1.
          6    1    1    2  501    0  0.18729920421E+02 -0.30217950912E+02  0.82121734135E+03  0.83978917367E+03  0.17200000000E+03 0.  1.
         -6    1    1    2    0  503 -0.18729920421E+02  0.30217950912E+02  0.16351120235E+03  0.23996634716E+03  0.17200000000E+03 0. -1.
<mgrwt>
<rscale>  2 0.17563580E+03</rscale>
<asrwt>0</asrwt>
<pdfrwt beam="1">  1       21 0.25806043E+00 0.17563580E+03</pdfrwt>
<pdfrwt beam="2">  1       21 0.11878376E-01 0.17563580E+03</pdfrwt>
<totfact> 0.36341405E+03</totfact>
</mgrwt>
</event>
<event>
 4    1  0.1119790E+000  0.1849322E+03  0.7546771E-02  0.1163113E+00
         21   -1    0    0  503  502  0.00000000000E+00  0.00000000000E+00  0.12983346022E+03  0.12983346022E+03  0.00000000000E+00 0. -1.
         21   -1    0    0  501  503 -0.00000000000E+00 -0.00000000000E+00 -0.27391604919E+03  0.27391604919E+03  0.00000000000E+00 0.  1.
          6    1    1    2  501    0  0.56035346388E+02  0.38418307633E+02 -0.11157014885E+03  0.21598107445E+03  0.17200000000E+03 0.  1.
         -6    1    1    2    0  502 -0.56035346388E+02 -0.38418307633E+02 -0.32512440116E+02  0.18776843496E+03  0.17200000000E+03 0. -1.
<mgrwt>
<rscale>  2 0.18493222E+03</rscale>
<asrwt>0</asrwt>
<pdfrwt beam="1">  1       21 0.32458365E-01 0.18493222E+03</pdfrwt>
<pdfrwt beam="2">  1       21 0.68479012E-01 0.18493222E+03</pdfrwt>
<totfact> 0.17845570E+04</totfact>
</mgrwt>
</event>
<event>
 4    1  0.1119790E+000  0.1912014E+03  0.7546771E-02  0.1157382E+00
         21   -1    0    0  503  502  0.00000000000E+00  0.00000000000E+00  0.28072980350E+03  0.28072980350E+03  0.00000000000E+00 0.  1.
         21   -1    0    0  501  503 -0.00000000000E+00 -0.00000000000E+00 -0.13059095331E+03  0.13059095331E+03  0.00000000000E+00 0.  1.
          6    1    1    2  501    0 -0.71120797769E+02 -0.43769768553E+02  0.85960532349E+02  0.20963581191E+03  0.17200000000E+03 0.  1.
         -6    1    1    2    0  502  0.71120797769E+02  0.43769768553E+02  0.64178317842E+02  0.20168494489E+03  0.17200000000E+03 0.  1.
<mgrwt>
<rscale>  2 0.19120136E+03</rscale>
<asrwt>0</asrwt>
<pdfrwt beam="1">  1       21 0.70182450E-01 0.19120136E+03</pdfrwt>
<pdfrwt beam="2">  1       21 0.32647739E-01 0.19120136E+03</pdfrwt>
<totfact> 0.16650618E+04</totfact>
</mgrwt>
</event>
<event>
 4    1  0.1119790E+000  0.2195534E+03  0.7546771E-02  0.1134216E+00
         21   -1    0    0  503  502  0.00000000000E+00  0.00000000000E+00  0.34420917866E+03  0.34420917866E+03  0.00000000000E+00 0.  1.
         21   -1    0    0  501  503 -0.00000000000E+00 -0.00000000000E+00 -0.19512952330E+03  0.19512952330E+03  0.00000000000E+00 0.  1.
          6    1    1    2  501    0 -0.95856354322E+02 -0.97114654411E+02 -0.68744020702E+02  0.23006398490E+03  0.17200000000E+03 0.  1.
         -6    1    1    2    0  502  0.95856354322E+02  0.97114654411E+02  0.21782367606E+03  0.30927471707E+03  0.17200000000E+03 0.  1.
<mgrwt>
<rscale>  2 0.21955340E+03</rscale>
<asrwt>0</asrwt>
<pdfrwt beam="1">  1       21 0.86052294E-01 0.21955340E+03</pdfrwt>
<pdfrwt beam="2">  1       21 0.48782381E-01 0.21955340E+03</pdfrwt>
<totfact> 0.45771484E+03</totfact>
</mgrwt>
</event>
<event>
 4    1  0.1119790E+000  0.1852334E+03  0.7546771E-02  0.1162832E+00
         21   -1    0    0  503  502  0.00000000000E+00  0.00000000000E+00  0.39451532268E+02  0.39451532268E+02  0.00000000000E+00 0.  1.
         21   -1    0    0  501  503 -0.00000000000E+00 -0.00000000000E+00 -0.10690662073E+04  0.10690662073E+04  0.00000000000E+00 0. -1.
          6    1    1    2  501    0 -0.64639040045E+02  0.23435510329E+02 -0.75415226302E+03  0.77656748867E+03  0.17200000000E+03 0. -1.
         -6    1    1    2    0  502  0.64639040045E+02 -0.23435510329E+02 -0.27546241205E+03  0.33195025093E+03  0.17200000000E+03 0.  1.
<mgrwt>
<rscale>  2 0.18523344E+03</rscale>
<asrwt>0</asrwt>
<pdfrwt beam="1">  1       21 0.98628827E-02 0.18523344E+03</pdfrwt>
<pdfrwt beam="2">  1       21 0.26726656E+00 0.18523344E+03</pdfrwt>
<totfact> 0.44202690E+03</totfact>
</mgrwt>
</event>
<event>
 4    1  0.1119790E+000  0.2853065E+03  0.7546771E-02  0.1092825E+00
         21   -1    0    0  503  502  0.00000000000E+00  0.00000000000E+00  0.70780739313E+03  0.70780739313E+03  0.00000000000E+00 0. -1.
         21   -1    0    0  501  503 -0.00000000000E+00 -0.00000000000E+00 -0.17614818769E+03  0.17614818769E+03  0.00000000000E+00 0.  1.
          6    1    1    2  501    0 -0.17431364620E+03 -0.14639175991E+03  0.52623105149E+03  0.59859745587E+03  0.17200000000E+03 0. -1.
         -6    1    1    2    0  502  0.17431364620E+03  0.14639175991E+03  0.54281539481E+01  0.28535812495E+03  0.17200000000E+03 0.  1.
<mgrwt>
<rscale>  2 0.28530649E+03</rscale>
<asrwt>0</asrwt>
<pdfrwt beam="1">  1       21 0.17695184E+00 0.28530649E+03</pdfrwt>
<pdfrwt beam="2">  1       21 0.44037049E-01 0.28530649E+03</pdfrwt>
<totfact> 0.86912602E+02</totfact>
</mgrwt>
</event>
<event>
 4    1  0.1119790E+000  0.1967621E+03  0.7546771E-02  0.1152500E+00
         21   -1    0    0  501  502  0.00000000000E+00  0.00000000000E+00  0.86375809119E+03  0.86375809119E+03  0.00000000000E+00 0. -1.
         21   -1    0    0  502  503 -0.00000000000E+00 -0.00000000000E+00 -0.59816127318E+02  0.59816127318E+02  0.00000000000E+00 0. -1.
          6    1    1    2  501    0 -0.12862692466E+02  0.94688205500E+02  0.63317440690E+03  0.66304233249E+03  0.17200000000E+03 0. -1.
         -6    1    1    2    0  503  0.12862692466E+02 -0.94688205500E+02  0.17076755697E+03  0.26053188602E+03  0.17200000000E+03 0. -1.
<mgrwt>
<rscale>  2 0.19676205E+03</rscale>
<asrwt>0</asrwt>
<pdfrwt beam="1">  1       21 0.21593948E+00 0.19676205E+03</pdfrwt>
<pdfrwt beam="2">  1       21 0.14954035E-01 0.19676205E+03</pdfrwt>
<totfact> 0.41869091E+03</totfact>
</mgrwt>
</event>
<event>
 4    1  0.1119790E+000  0.1727521E+03  0.7546771E-02  0.1175008E+00
         21   -1    0    0  503  502  0.00000000000E+00  0.00000000000E+00  0.93648681471E+02  0.93648681471E+02  0.00000000000E+00 0. -1.
         21   -1    0    0  501  503 -0.00000000000E+00 -0.00000000000E+00 -0.36647721595E+03  0.36647721595E+03  0.00000000000E+00 0. -1.
          6    1    1    2  501    0 -0.13283683597E+02 -0.91005617358E+01 -0.53322549498E+02  0.18079427745E+03  0.17200000000E+03 0. -1.
         -6    1    1    2    0  502  0.13283683597E+02  0.91005617358E+01 -0.21950598498E+03  0.27933161998E+03  0.17200000000E+03 0. -1.
<mgrwt>
<rscale>  2 0.17275207E+03</rscale>
<asrwt>0</asrwt>
<pdfrwt beam="1">  1       21 0.23412170E-01 0.17275207E+03</pdfrwt>
<pdfrwt beam="2">  1       21 0.91619304E-01 0.17275207E+03</pdfrwt>
<totfact> 0.17520993E+04</totfact>
</mgrwt>
</event>
<event>
 4    1  0.1119790E+000  0.1865177E+03  0.7546771E-02  0.1161640E+00
         21   -1    0    0  503  502  0.00000000000E+00  0.00000000000E+00  0.19424054140E+04  0.19424054140E+04  0.00000000000E+00 0.  1.
         21   -1    0    0  501  503 -0.00000000000E+00 -0.00000000000E+00 -0.28450479717E+02  0.28450479717E+02  0.00000000000E+00 0.  1.
          6    1    1    2  501    0 -0.16951254370E+02 -0.70124947518E+02  0.35717766598E+03  0.40294508107E+03  0.17200000000E+03 0.  1.
         -6    1    1    2    0  502  0.16951254370E+02  0.70124947518E+02  0.15567772683E+04  0.15679108127E+04  0.17200000000E+03 0.  1.
<mgrwt>
<rscale>  2 0.18651770E+03</rscale>
<asrwt>0</asrwt>
<pdfrwt beam="1">  1       21 0.48560090E+00 0.18651770E+03</pdfrwt>
<pdfrwt beam="2">  1       21 0.71126265E-02 0.18651770E+03</pdfrwt>
<totfact> 0.35510860E+02</totfact>
</mgrwt>
</event>
<event>
 4    1  0.1119790E+000  0.2395001E+03  0.7546771E-02  0.1120126E+00
         21   -1    0    0  503  502  0.00000000000E+00  0.00000000000E+00  0.14999632708E+03  0.14999632708E+03  0.00000000000E+00 0.  1.
         21   -1    0    0  501  503 -0.00000000000E+00 -0.00000000000E+00 -0.82044026232E+03  0.82044026232E+03  0.00000000000E+00 0.  1.
          6    1    1    2  501    0  0.90873853408E+02  0.13970772896E+03 -0.68976180749E+03  0.73015865251E+03  0.17200000000E+03 0.  1.
         -6    1    1    2    0  502 -0.90873853408E+02 -0.13970772896E+03  0.19317872251E+02  0.24027793689E+03  0.17200000000E+03 0.  1.
<mgrwt>
<rscale>  2 0.23950012E+03</rscale>
<asrwt>0</asrwt>
<pdfrwt beam="1">  1       21 0.37499082E-01 0.23950012E+03</pdfrwt>
<pdfrwt beam="2">  1       21 0.20511006E+00 0.23950012E+03</pdfrwt>
<totfact> 0.81298984E+02</totfact>
</mgrwt>
</event>
<event>
 4    1  0.1119790E+000  0.2310604E+03  0.7546771E-02  0.1125896E+00
         21   -1    0    0  501  502  0.00000000000E+00  0.00000000000E+00  0.22346494657E+03  0.22346494657E+03  0.00000000000E+00 0. -1.
         21   -1    0    0  502  503 -0.00000000000E+00 -0.00000000000E+00 -0.28370682472E+03  0.28370682472E+03  0.00000000000E+00 0.  1.
          6    1    1    2  501    0  0.13781267713E+03 -0.69372662184E+02  0.70640531733E+02  0.24161743513E+03  0.17200000000E+03 0. -1.
         -6    1    1    2    0  503 -0.13781267713E+03  0.69372662184E+02 -0.13088240989E+03  0.26555433616E+03  0.17200000000E+03 0.  1.
<mgrwt>
<rscale>  2 0.23106038E+03</rscale>
<asrwt>0</asrwt>
<pdfrwt beam="1">  1       21 0.55866237E-01 0.23106038E+03</pdfrwt>
<pdfrwt beam="2">  1       21 0.70926706E-01 0.23106038E+03</pdfrwt>
<totfact> 0.52815527E+03</totfact>
</mgrwt>
</event>
<event>
 4    1  0.1119790E+000  0.1975381E+03  0.7546771E-02  0.1151833E+00
         21   -1    0    0  503  502  0.00000000000E+00  0.00000000000E+00  0.10493133981E+04  0.10493133981E+04  0.00000000000E+00 0. -1.
         21   -1    0    0  501  503 -0.00000000000E+00 -0.00000000000E+00 -0.39415666566E+02  0.39415666566E+02  0.00000000000E+00 0.  1.
          6    1    1    2  501    0 -0.43854882875E+02 -0.86683557610E+02  0.37551913518E+03  0.42430638788E+03  0.17200000000E+03 0.  1.
         -6    1    1    2    0  502  0.43854882875E+02  0.86683557610E+02  0.63437859635E+03  0.66442267678E+03  0.17200000000E+03 0. -1.
<mgrwt>
<rscale>  2 0.19753807E+03</rscale>
<asrwt>0</asrwt>
<pdfrwt beam="1">  1       21 0.26232826E+00 0.19753807E+03</pdfrwt>
<pdfrwt beam="2">  1       21 0.98539201E-02 0.19753807E+03</pdfrwt>
<totfact> 0.46662452E+03</totfact>
</mgrwt>
</event>
<event>
 4    1  0.1119790E+000  0.1883071E+03  0.7546771E-02  0.1159997E+00
         21   -1    0    0  501  502  0.00000000000E+00  0.00000000000E+00  0.98735010703E+02  0.98735010703E+02  0.00000000000E+00 0. -1.
         21   -1    0    0  502  503 -0.00000000000E+00 -0.00000000000E+00 -0.36755455089E+03  0.36755455089E+03  0.00000000000E+00 0. -1.
          6    1    1    2  501    0 -0.46794290243E+02  0.60711199088E+02 -0.99130797677E+02  0.21280618023E+03  0.17200000000E+03 0. -1.
         -6    1    1    2    0  503  0.46794290243E+02 -0.60711199088E+02 -0.16968874251E+03  0.25348338136E+03  0.17200000000E+03 0. -1.
<mgrwt>
<rscale>  2 0.18830708E+03</rscale>
<asrwt>0</asrwt>
<pdfrwt beam="1">  1       21 0.24683753E-01 0.18830708E+03</pdfrwt>
<pdfrwt beam="2">  1       21 0.91888636E-01 0.18830708E+03</pdfrwt>
<totfact> 0.15580805E+04</totfact>
</mgrwt>
</event>
<event>
 4    1  0.1119790E+000  0.2054708E+03  0.7546771E-02  0.1145204E+00
         21   -1    0    0  501  502  0.00000000000E+00  0.00000000000E+00  0.45107528259E+03  0.45107528259E+03  0.00000000000E+00 0.  1.
         21   -1    0    0  502  503 -0.00000000000E+00 -0.00000000000E+00 -0.11156492289E+03  0.11156492289E+03  0.00000000000E+00 0.  1.
          6    1    1    2  501    0 -0.10948223258E+03  0.25453437324E+02  0.56849920106E+02  0.21319040818E+03  0.17200000000E+03 0.  1.
         -6    1    1    2    0  503  0.10948223258E+03 -0.25453437324E+02  0.28266043960E+03  0.34944979730E+03  0.17200000000E+03 0.  1.
<mgrwt>
<rscale>  2 0.20547077E+03</rscale>
<asrwt>0</asrwt>
<pdfrwt beam="1">  1       21 0.11276882E+00 0.20547077E+03</pdfrwt>
<pdfrwt beam="2">  1       21 0.27891232E-01 0.20547077E+03</pdfrwt>
<totfact> 0.74762521E+03</totfact>
</mgrwt>
</event>
<event>
 4    1  0.1119790E+000  0.2528238E+03  0.7546771E-02  0.1111533E+00
         21   -1    0    0  503  502  0.00000000000E+00  0.00000000000E+00  0.10170492336E+03  0.10170492336E+03  0.00000000000E+00 0.  1.
         21   -1    0    0  501  503 -0.00000000000E+00 -0.00000000000E+00 -0.64556541093E+03  0.64556541093E+03  0.00000000000E+00 0.  1.
          6    1    1    2  501    0  0.85107268879E+02  0.16459833755E+03 -0.33270827511E+03  0.41786918559E+03  0.17200000000E+03 0.  1.
         -6    1    1    2    0  502 -0.85107268879E+02 -0.16459833755E+03 -0.21115221246E+03  0.32940114870E+03  0.17200000000E+03 0.  1.
<mgrwt>
<rscale>  2 0.25282377E+03</rscale>
<asrwt>0</asrwt>
<pdfrwt beam="1">  1       21 0.25426231E-01 0.25282377E+03</pdfrwt>
<pdfrwt beam="2">  1       21 0.16139135E+00 0.25282377E+03</pdfrwt>
<totfact> 0.34351335E+03</totfact>
</mgrwt>
</event>
<event>
 4    1  0.1119790E+000  0.3493186E+03  0.7546771E-02  0.1062895E+00
         21   -1    0    0  501  502  0.00000000000E+00  0.00000000000E+00  0.14238486896E+03  0.14238486896E+03  0.00000000000E+00 0.  1.
         21   -1    0    0  502  503 -0.00000000000E+00 -0.00000000000E+00 -0.10243609206E+04  0.10243609206E+04  0.00000000000E+00 0. -1.
          6    1    1    2  501    0 -0.30340992584E+03 -0.19542136265E+02 -0.20518465759E+03  0.40512247765E+03  0.17200000000E+03 0.  1.
         -6    1    1    2    0  503  0.30340992584E+03  0.19542136265E+02 -0.67679139409E+03  0.76162331195E+03  0.17200000000E+03 0. -1.
<mgrwt>
<rscale>  2 0.34931859E+03</rscale>
<asrwt>0</asrwt>
<pdfrwt beam="1">  1       21 0.35596218E-01 0.34931859E+03</pdfrwt>
<pdfrwt beam="2">  1       21 0.25609023E+00 0.34931859E+03</pdfrwt>
<totfact> 0.39939150E+02</totfact>
</mgrwt>
</event>
<event>
 4    1  0.1119790E+000  0.2613018E+03  0.7546771E-02  0.1106364E+00
         21   -1    0    0  503  502  0.00000000000E+00  0.00000000000E+00  0.49603420670E+03  0.49603420670E+03  0.00000000000E+00 0.  1.
         21   -1    0    0  501  503 -0.00000000000E+00 -0.00000000000E+00 -0.18254159213E+03  0.18254159213E+03  0.00000000000E+00 0. -1.
          6    1    1    2  501    0  0.12155910211E+03  0.15465448010E+03 -0.11511291927E+02  0.26155522049E+03  0.17200000000E+03 0.  1.
         -6    1    1    2    0  502 -0.12155910211E+03 -0.15465448010E+03  0.32500390649E+03  0.41702057834E+03  0.17200000000E+03 0. -1.
<mgrwt>
<rscale>  2 0.26130179E+03</rscale>
<asrwt>0</asrwt>
<pdfrwt beam="1">  1       21 0.12400855E+00 0.26130179E+03</pdfrwt>
<pdfrwt beam="2">  1       21 0.45635399E-01 0.26130179E+03</pdfrwt>
<totfact> 0.21200737E+03</totfact>
</mgrwt>
</event>
<event>
 4    1  0.1119790E+000  0.2179321E+03  0.7546771E-02  0.1135434E+00
         21   -1    0    0  503  502  0.00000000000E+00  0.00000000000E+00  0.68266150479E+02  0.68266150479E+02  0.00000000000E+00 0. -1.
         21   -1    0    0  501  503 -0.00000000000E+00 -0.00000000000E+00 -0.73182695787E+03  0.73182695787E+03  0.00000000000E+00 0. -1.
          6    1    1    2  501    0  0.11463701306E+03 -0.69056124731E+02 -0.24292614122E+03  0.32635487313E+03  0.17200000000E+03 0. -1.
         -6    1    1    2    0  502 -0.11463701306E+03  0.69056124731E+02 -0.42063466617E+03  0.47373823522E+03  0.17200000000E+03 0. -1.
<mgrwt>
<rscale>  2 0.21793208E+03</rscale>
<asrwt>0</asrwt>
<pdfrwt beam="1">  1       21 0.17066538E-01 0.21793208E+03</pdfrwt>
<pdfrwt beam="2">  1       21 0.18295674E+00 0.21793208E+03</pdfrwt>
<totfact> 0.52668466E+03</totfact>
</mgrwt>
</event>
<event>
 4    1  0.1119790E+000  0.2076805E+03  0.7546771E-02  0.1143416E+00
         21   -1    0    0  501  502  0.00000000000E+00  0.00000000000E+00  0.12959372915E+03  0.12959372915E+03  0.00000000000E+00 0. -1.
         21   -1    0    0  502  503 -0.00000000000E+00 -0.00000000000E+00 -0.82883706044E+03  0.82883706044E+03  0.00000000000E+00 0. -1.
          6    1    1    2  501    0  0.11549277713E+03 -0.14443543478E+02  0.21097569710E+02  0.20874938315E+03  0.17200000000E+03 0. -1.
         -6    1    1    2    0  503 -0.11549277713E+03  0.14443543478E+02 -0.72034090099E+03  0.74968140644E+03  0.17200000000E+03 0. -1.
<mgrwt>
<rscale>  2 0.20768052E+03</rscale>
<asrwt>0</asrwt>
<pdfrwt beam="1">  1       21 0.32398433E-01 0.20768052E+03</pdfrwt>
<pdfrwt beam="2">  1       21 0.20720926E+00 0.20768052E+03</pdfrwt>
<totfact> 0.10892902E+03</totfact>
</mgrwt>
</event>
<event>
 4    1  0.1119790E+000  0.2080799E+03  0.7546771E-02  0.1143096E+00
         21   -1    0    0  503  502  0.00000000000E+00  0.00000000000E+00  0.48309203448E+03  0.48309203448E+03  0.00000000000E+00 0. -1.
         21   -1    0    0  501  503 -0.00000000000E+00 -0.00000000000E+00 -0.10598848729E+03  0.10598848729E+03  0.00000000000E+00 0. -1.
          6    1    1    2  501    0  0.87473411681E+02 -0.77856650372E+02  0.72820796085E+02  0.22045435832E+03  0.17200000000E+03 0. -1.
         -6    1    1    2    0  502 -0.87473411681E+02  0.77856650372E+02  0.30428275111E+03  0.36862616345E+03  0.17200000000E+03 0. -1.
<mgrwt>
<rscale>  2 0.20807993E+03</rscale>
<asrwt>0</asrwt>
<pdfrwt beam="1">  1       21 0.12077300E+00 0.20807993E+03</pdfrwt>
<pdfrwt beam="2">  1       21 0.26497123E-01 0.20807993E+03</pdfrwt>
<totfact> 0.69608452E+03</totfact>
</mgrwt>
</event>
<event>
 4    1  0.1119790E+000  0.1801383E+03  0.7546771E-02  0.1167669E+00
         21   -1    0    0  501  502  0.00000000000E+00  0.00000000000E+00  0.15110686863E+03  0.15110686863E+03  0.00000000000E+00 0. -1.
         21   -1    0    0  502  503 -0.00000000000E+00 -0.00000000000E+00 -0.24031634213E+03  0.24031634213E+03  0.00000000000E+00 0. -1.
          6    1    1    2  501    0 -0.52936482538E+02 -0.79710181908E+01  0.19233552781E+02  0.18116218664E+03  0.17200000000E+03 0. -1.
         -6    1    1    2    0  503  0.52936482538E+02  0.79710181908E+01 -0.10844302629E+03  0.21026102412E+03  0.17200000000E+03 0. -1.
<mgrwt>
<rscale>  2 0.18013830E+03</rscale>
<asrwt>0</asrwt>
<pdfrwt beam="1">  1       21 0.37776717E-01 0.18013830E+03</pdfrwt>
<pdfrwt beam="2">  1       21 0.60079085E-01 0.18013830E+03</pdfrwt>
<totfact> 0.17596734E+04</totfact>
</mgrwt>
</event>
<event>
 4    1  0.1119790E+000  0.2755201E+03  0.7546771E-02  0.1098161E+00
         21   -1    0    0  501  502  0.00000000000E+00  0.00000000000E+00  0.24727631681E+03  0.24727631681E+03  0.00000000000E+00 0. -1.
         21   -1    0    0  502  503 -0.00000000000E+00 -0.00000000000E+00 -0.91082427852E+03  0.91082427852E+03  0.00000000000E+00 0.  1.
          6    1    1    2  501    0 -0.19996857046E+03 -0.79623376675E+02  0.13970022477E+03  0.30891336016E+03  0.17200000000E+03 0. -1.
         -6    1    1    2    0  503  0.19996857046E+03  0.79623376675E+02 -0.80324818648E+03  0.84918723517E+03  0.17200000000E+03 0.  1.
<mgrwt>
<rscale>  2 0.27552007E+03</rscale>
<asrwt>0</asrwt>
<pdfrwt beam="1">  1       21 0.61819080E-01 0.27552007E+03</pdfrwt>
<pdfrwt beam="2">  1       21 0.22770607E+00 0.27552007E+03</pdfrwt>
<totfact> 0.19925733E+02</totfact>
</mgrwt>
</event>
<event>
 4    1  0.1119790E+000  0.3196101E+03  0.7546771E-02  0.1075829E+00
         21   -1    0    0  503  502  0.00000000000E+00  0.00000000000E+00  0.21879482678E+03  0.21879482678E+03  0.00000000000E+00 0.  1.
         21   -1    0    0  501  503 -0.00000000000E+00 -0.00000000000E+00 -0.61691444991E+03  0.61691444991E+03  0.00000000000E+00 0. -1.
          6    1    1    2  501    0  0.12130641129E+03  0.24052317512E+03 -0.40512761412E+03  0.51602231242E+03  0.17200000000E+03 0. -1.
         -6    1    1    2    0  502 -0.12130641129E+03 -0.24052317512E+03  0.70079909889E+01  0.31968696427E+03  0.17200000000E+03 0.  1.
<mgrwt>
<rscale>  2 0.31961014E+03</rscale>
<asrwt>0</asrwt>
<pdfrwt beam="1">  1       21 0.54698707E-01 0.31961014E+03</pdfrwt>
<pdfrwt beam="2">  1       21 0.15422861E+00 0.31961014E+03</pdfrwt>
<totfact> 0.78818840E+02</totfact>
</mgrwt>
</event>
<event>
 4    1  0.1119790E+000  0.2950508E+03  0.7546771E-02  0.1087741E+00
         21   -1    0    0  501  502  0.00000000000E+00  0.00000000000E+00  0.46854786882E+03  0.46854786882E+03  0.00000000000E+00 0. -1.
         21   -1    0    0  502  503 -0.00000000000E+00 -0.00000000000E+00 -0.59550709306E+03  0.59550709306E+03  0.00000000000E+00 0.  1.
          6    1    1    2  501    0 -0.10817221359E+02 -0.23948693068E+03  0.37781506162E+03  0.47937378217E+03  0.17200000000E+03 0. -1.
         -6    1    1    2    0  503  0.10817221359E+02  0.23948693068E+03 -0.50477428585E+03  0.58468117971E+03  0.17200000000E+03 0.  1.
<mgrwt>
<rscale>  2 0.29505085E+03</rscale>
<asrwt>0</asrwt>
<pdfrwt beam="1">  1       21 0.11713697E+00 0.29505085E+03</pdfrwt>
<pdfrwt beam="2">  1       21 0.14887677E+00 0.29505085E+03</pdfrwt>
<totfact> 0.15332954E+02</totfact>
</mgrwt>
</event>
<event>
 4    1  0.1119790E+000  0.1797421E+03  0.7546771E-02  0.1168053E+00
         21   -1    0    0  501  502  0.00000000000E+00  0.00000000000E+00  0.11068603370E+04  0.11068603370E+04  0.00000000000E+00 0. -1.
         21   -1    0    0  502  503 -0.00000000000E+00 -0.00000000000E+00 -0.74419890834E+02  0.74419890834E+02  0.00000000000E+00 0.  1.
          6    1    1    2  501    0  0.52145176190E+02 -0.20212571269E+01  0.97668888537E+03  0.99309032000E+03  0.17200000000E+03 0. -1.
         -6    1    1    2    0  503 -0.52145176190E+02  0.20212571269E+01  0.55751560805E+02  0.18818990784E+03  0.17200000000E+03 0.  1.
<mgrwt>
<rscale>  2 0.17974205E+03</rscale>
<asrwt>0</asrwt>
<pdfrwt beam="1">  1       21 0.27671503E+00 0.17974205E+03</pdfrwt>
<pdfrwt beam="2">  1       21 0.18604976E-01 0.17974205E+03</pdfrwt>
<totfact> 0.12487098E+03</totfact>
</mgrwt>
</event>
<event>
 4    1  0.1119790E+000  0.2064692E+03  0.7546771E-02  0.1144393E+00
         21   -1    0    0  501  502  0.00000000000E+00  0.00000000000E+00  0.59317325549E+03  0.59317325549E+03  0.00000000000E+00 0. -1.
         21   -1    0    0  502  503 -0.00000000000E+00 -0.00000000000E+00 -0.12254945157E+03  0.12254945157E+03  0.00000000000E+00 0.  1.
          6    1    1    2  501    0 -0.93606628010E+02 -0.65447257225E+02  0.46544982862E+03  0.50918865586E+03  0.17200000000E+03 0. -1.
         -6    1    1    2    0  503  0.93606628010E+02  0.65447257225E+02  0.51739752940E+01  0.20653405120E+03  0.17200000000E+03 0.  1.
<mgrwt>
<rscale>  2 0.20646923E+03</rscale>
<asrwt>0</asrwt>
<pdfrwt beam="1">  1       21 0.14829331E+00 0.20646923E+03</pdfrwt>
<pdfrwt beam="2">  1       21 0.30637364E-01 0.20646923E+03</pdfrwt>
<totfact> 0.31120640E+03</totfact>
</mgrwt>
</event>
<event>
 4    1  0.1119790E+000  0.2297932E+03  0.7546771E-02  0.1126785E+00
         21   -1    0    0  503  502  0.00000000000E+00  0.00000000000E+00  0.13764455906E+03  0.13764455906E+03  0.00000000000E+00 0.  1.
         21   -1    0    0  501  503 -0.00000000000E+00 -0.00000000000E+00 -0.44169866336E+03  0.44169866336E+03  0.00000000000E+00 0.  1.
          6    1    1    2  501    0 -0.56487732914E+02 -0.14152759758E+03 -0.25705490761E+03  0.34479290940E+03  0.17200000000E+03 0.  1.
         -6    1    1    2    0  502  0.56487732914E+02  0.14152759758E+03 -0.46999196702E+02  0.23455031302E+03  0.17200000000E+03 0.  1.
<mgrwt>
<rscale>  2 0.22979322E+03</rscale>
<asrwt>0</asrwt>
<pdfrwt beam="1">  1       21 0.34411140E-01 0.22979322E+03</pdfrwt>
<pdfrwt beam="2">  1       21 0.11042466E+00 0.22979322E+03</pdfrwt>
<totfact> 0.51208525E+03</totfact>
</mgrwt>
</event>
<event>
 4    1  0.1119790E+000  0.2068237E+03  0.7546771E-02  0.1144106E+00
         21   -1    0    0  503  502  0.00000000000E+00  0.00000000000E+00  0.28313493301E+03  0.28313493301E+03  0.00000000000E+00 0.  1.
         21   -1    0    0  501  503 -0.00000000000E+00 -0.00000000000E+00 -0.19221586797E+03  0.19221586797E+03  0.00000000000E+00 0.  1.
          6    1    1    2  501    0 -0.16701043756E+02  0.11363583664E+03  0.15541071413E+03  0.25870546631E+03  0.17200000000E+03 0. -1.
         -6    1    1    2    0  502  0.16701043756E+02 -0.11363583664E+03 -0.64491649084E+02  0.21664533467E+03  0.17200000000E+03 0. -1.
<mgrwt>
<rscale>  2 0.20682366E+03</rscale>
<asrwt>0</asrwt>
<pdfrwt beam="1">  1       21 0.70783733E-01 0.20682366E+03</pdfrwt>
<pdfrwt beam="2">  1       21 0.48053967E-01 0.20682366E+03</pdfrwt>
<totfact> 0.74053540E+03</totfact>
</mgrwt>
</event>
<event>
 4    1  0.1119790E+000  0.3508978E+03  0.7546771E-02  0.1062247E+00
         21   -1    0    0  501  502  0.00000000000E+00  0.00000000000E+00  0.24350349005E+03  0.24350349005E+03  0.00000000000E+00 0. -1.
         21   -1    0    0  502  503 -0.00000000000E+00 -0.00000000000E+00 -0.50704296063E+03  0.50704296063E+03  0.00000000000E+00 0.  1.
          6    1    1    2  501    0  0.23333088089E+03  0.19774219163E+03 -0.11215053477E+03  0.36838433297E+03  0.17200000000E+03 0.  1.
         -6    1    1    2    0  503 -0.23333088089E+03 -0.19774219163E+03 -0.15138893580E+03  0.38216211771E+03  0.17200000000E+03 0. -1.
<mgrwt>
<rscale>  2 0.35089781E+03</rscale>
<asrwt>0</asrwt>
<pdfrwt beam="1">  1       21 0.60875873E-01 0.35089781E+03</pdfrwt>
<pdfrwt beam="2">  1       21 0.12676074E+00 0.35089781E+03</pdfrwt>
<totfact> 0.10282658E+03</totfact>
</mgrwt>
</event>
<event>
 4    1  0.1119790E+000  0.1782587E+03  0.7546771E-02  0.1169499E+00
         21   -1    0    0  503  502  0.00000000000E+00  0.00000000000E+00  0.63623555914E+03  0.63623555914E+03  0.00000000000E+00 0. -1.
         21   -1    0    0  501  503 -0.00000000000E+00 -0.00000000000E+00 -0.10018450513E+03  0.10018450513E+03  0.00000000000E+00 0. -1.
          6    1    1    2  501    0 -0.46609037372E+02  0.44456461320E+01  0.72767867208E+01  0.17840716846E+03  0.17200000000E+03 0. -1.
         -6    1    1    2    0  502  0.46609037372E+02 -0.44456461320E+01  0.52877426730E+03  0.55801289581E+03  0.17200000000E+03 0. -1.
<mgrwt>
<rscale>  2 0.17825871E+03</rscale>
<asrwt>0</asrwt>
<pdfrwt beam="1">  1       21 0.15905888E+00 0.17825871E+03</pdfrwt>
<pdfrwt beam="2">  1       21 0.25046128E-01 0.17825871E+03</pdfrwt>
<totfact> 0.39107467E+03</totfact>
</mgrwt>
</event>
<event>
 4    1  0.1119790E+000  0.1775272E+03  0.7546771E-02  0.1170218E+00
         21   -1    0    0  503  502  0.00000000000E+00  0.00000000000E+00  0.34012517375E+03  0.34012517375E+03  0.00000000000E+00 0.  1.
         21   -1    0    0  501  503 -0.00000000000E+00 -0.00000000000E+00 -0.10392565760E+03  0.10392565760E+03  0.00000000000E+00 0.  1.
          6    1    1    2  501    0  0.17396673456E+02 -0.40364027045E+02  0.44998437348E+02  0.18314136150E+03  0.17200000000E+03 0. -1.
         -6    1    1    2    0  502 -0.17396673456E+02  0.40364027045E+02  0.19120107880E+03  0.26090946986E+03  0.17200000000E+03 0. -1.
<mgrwt>
<rscale>  2 0.17752718E+03</rscale>
<asrwt>0</asrwt>
<pdfrwt beam="1">  1       21 0.85031291E-01 0.17752718E+03</pdfrwt>
<pdfrwt beam="2">  1       21 0.25981415E-01 0.17752718E+03</pdfrwt>
<totfact> 0.17008824E+04</totfact>
</mgrwt>
</event>
<event>
 4    1  0.1119790E+000  0.2295455E+03  0.7546771E-02  0.1126960E+00
         21   -1    0    0  501  502  0.00000000000E+00  0.00000000000E+00  0.12424258167E+03  0.12424258167E+03  0.00000000000E+00 0. -1.
         21   -1    0    0  502  503 -0.00000000000E+00 -0.00000000000E+00 -0.71249466036E+03  0.71249466036E+03  0.00000000000E+00 0.  1.
          6    1    1    2  501    0  0.17650147856E+02 -0.15098217736E+03 -0.27953828471E+02  0.23124135038E+03  0.17200000000E+03 0. -1.
         -6    1    1    2    0  503 -0.17650147856E+02  0.15098217736E+03 -0.56029825022E+03  0.60549589165E+03  0.17200000000E+03 0.  1.
<mgrwt>
<rscale>  2 0.22954552E+03</rscale>
<asrwt>0</asrwt>
<pdfrwt beam="1">  1       21 0.31060646E-01 0.22954552E+03</pdfrwt>
<pdfrwt beam="2">  1       21 0.17812366E+00 0.22954552E+03</pdfrwt>
<totfact> 0.18017747E+03</totfact>
</mgrwt>
</event>
<event>
 4    1  0.1119790E+000  0.1883040E+03  0.7546771E-02  0.1160000E+00
         21   -1    0    0  501  502  0.00000000000E+00  0.00000000000E+00  0.40982374373E+03  0.40982374373E+03  0.00000000000E+00 0. -1.
         21   -1    0    0  502  503 -0.00000000000E+00 -0.00000000000E+00 -0.19400931141E+03  0.19400931141E+03  0.00000000000E+00 0. -1.
          6    1    1    2  501    0  0.72109644437E+02 -0.25973254561E+02  0.33263458724E+03  0.38223576416E+03  0.17200000000E+03 0. -1.
         -6    1    1    2    0  503 -0.72109644437E+02  0.25973254561E+02 -0.11682015493E+03  0.22159729098E+03  0.17200000000E+03 0. -1.
<mgrwt>
<rscale>  2 0.18830404E+03</rscale>
<asrwt>0</asrwt>
<pdfrwt beam="1">  1       21 0.10245593E+00 0.18830404E+03</pdfrwt>
<pdfrwt beam="2">  1       21 0.48502329E-01 0.18830404E+03</pdfrwt>
<totfact> 0.31570766E+03</totfact>
</mgrwt>
</event>
<event>
 4    1  0.1119790E+000  0.2160921E+03  0.7546771E-02  0.1136830E+00
         21   -1    0    0  501  502  0.00000000000E+00  0.00000000000E+00  0.93332652960E+02  0.93332652960E+02  0.00000000000E+00 0. -1.
         21   -1    0    0  502  503 -0.00000000000E+00 -0.00000000000E+00 -0.50435731433E+03  0.50435731433E+03  0.00000000000E+00 0. -1.
          6    1    1    2  501    0 -0.81175897357E+02  0.10257818930E+03 -0.17876115091E+03  0.28044849849E+03  0.17200000000E+03 0. -1.
         -6    1    1    2    0  503  0.81175897357E+02 -0.10257818930E+03 -0.23226351046E+03  0.31724146879E+03  0.17200000000E+03 0. -1.
<mgrwt>
<rscale>  2 0.21609214E+03</rscale>
<asrwt>0</asrwt>
<pdfrwt beam="1">  1       21 0.23333164E-01 0.21609214E+03</pdfrwt>
<pdfrwt beam="2">  1       21 0.12608933E+00 0.21609214E+03</pdfrwt>
<totfact> 0.79237898E+03</totfact>
</mgrwt>
</event>
<event>
 4    1  0.1119790E+000  0.1976554E+03  0.7546771E-02  0.1151732E+00
         21   -1    0    0  501  502  0.00000000000E+00  0.00000000000E+00  0.15884949021E+03  0.15884949021E+03  0.00000000000E+00 0. -1.
         21   -1    0    0  502  503 -0.00000000000E+00 -0.00000000000E+00 -0.29386214078E+03  0.29386214078E+03  0.00000000000E+00 0.  1.
          6    1    1    2  501    0  0.95293407841E+02 -0.20070445931E+02  0.23901183758E+02  0.19909526103E+03  0.17200000000E+03 0. -1.
         -6    1    1    2    0  503 -0.95293407841E+02  0.20070445931E+02 -0.15891383433E+03  0.25361636997E+03  0.17200000000E+03 0.  1.
<mgrwt>
<rscale>  2 0.19765540E+03</rscale>
<asrwt>0</asrwt>
<pdfrwt beam="1">  1       21 0.39712373E-01 0.19765540E+03</pdfrwt>
<pdfrwt beam="2">  1       21 0.73465534E-01 0.19765540E+03</pdfrwt>
<totfact> 0.10140594E+04</totfact>
</mgrwt>
</event>
<event>
 4    1  0.1119790E+000  0.1754555E+03  0.7546771E-02  0.1172275E+00
         21   -1    0    0  503  502  0.00000000000E+00  0.00000000000E+00  0.22805185739E+03  0.22805185739E+03  0.00000000000E+00 0. -1.
         21   -1    0    0  501  503 -0.00000000000E+00 -0.00000000000E+00 -0.21220282508E+03  0.21220282508E+03  0.00000000000E+00 0. -1.
          6    1    1    2  501    0 -0.48611610330E+01 -0.34307634076E+02 -0.12485896826E+03  0.21534717689E+03  0.17200000000E+03 0. -1.
         -6    1    1    2    0  502  0.48611610330E+01  0.34307634076E+02  0.14070800056E+03  0.22490750558E+03  0.17200000000E+03 0. -1.
<mgrwt>
<rscale>  2 0.17545553E+03</rscale>
<asrwt>0</asrwt>
<pdfrwt beam="1">  1       21 0.57012964E-01 0.17545553E+03</pdfrwt>
<pdfrwt beam="2">  1       21 0.53050706E-01 0.17545553E+03</pdfrwt>
<totfact> 0.98462665E+03</totfact>
</mgrwt>
</event>
<event>
 4    1  0.1119790E+000  0.2100344E+03  0.7546771E-02  0.1141539E+00
         21   -1    0    0  503  502  0.00000000000E+00  0.00000000000E+00  0.16494670904E+03  0.16494670904E+03  0.00000000000E+00 0. -1.
         21   -1    0    0  501  503 -0.00000000000E+00 -0.00000000000E+00 -0.26881977002E+03  0.26881977002E+03  0.00000000000E+00 0. -1.
          6    1    1    2  501    0  0.77170735584E+02  0.92602029668E+02 -0.36436354512E+02  0.21317144804E+03  0.17200000000E+03 0. -1.
         -6    1    1    2    0  502 -0.77170735584E+02 -0.92602029668E+02 -0.67436706467E+02  0.22059503101E+03  0.17200000000E+03 0. -1.
<mgrwt>
<rscale>  2 0.21003442E+03</rscale>
<asrwt>0</asrwt>
<pdfrwt beam="1">  1       21 0.41236678E-01 0.21003442E+03</pdfrwt>
<pdfrwt beam="2">  1       21 0.67204942E-01 0.21003442E+03</pdfrwt>
<totfact> 0.11344354E+04</totfact>
</mgrwt>
</event>
<event>
 4    1  0.1119790E+000  0.2054131E+03  0.7546771E-02  0.1145251E+00
         21   -1    0    0  503  502  0.00000000000E+00  0.00000000000E+00  0.64250054762E+02  0.64250054762E+02  0.00000000000E+00 0.  1.
         21   -1    0    0  501  503 -0.00000000000E+00 -0.00000000000E+00 -0.94407977000E+03  0.94407977000E+03  0.00000000000E+00 0.  1.
          6    1    1    2  501    0  0.96947052969E+02  0.56672695755E+02 -0.71806453172E+03  0.74686759016E+03  0.17200000000E+03 0.  1.
         -6    1    1    2    0  502 -0.96947052969E+02 -0.56672695755E+02 -0.16176518352E+03  0.26146223460E+03  0.17200000000E+03 0.  1.
<mgrwt>
<rscale>  2 0.20541306E+03</rscale>
<asrwt>0</asrwt>
<pdfrwt beam="1">  1       21 0.16062514E-01 0.20541306E+03</pdfrwt>
<pdfrwt beam="2">  1       21 0.23601994E+00 0.20541306E+03</pdfrwt>
<totfact> 0.27484981E+03</totfact>
</mgrwt>
</event>
<event>
 4    1  0.1119790E+000  0.1770838E+03  0.7546771E-02  0.1170656E+00
         21   -1    0    0  501  502  0.00000000000E+00  0.00000000000E+00  0.59176851544E+03  0.59176851544E+03  0.00000000000E+00 0. -1.
         21   -1    0    0  502  503 -0.00000000000E+00 -0.00000000000E+00 -0.58783938444E+02  0.58783938444E+02  0.00000000000E+00 0. -1.
          6    1    1    2  501    0 -0.18505199130E+02 -0.37844636087E+02  0.36859949249E+03  0.40893061116E+03  0.17200000000E+03 0. -1.
         -6    1    1    2    0  503  0.18505199130E+02  0.37844636087E+02  0.16438508450E+03  0.24162184272E+03  0.17200000000E+03 0. -1.
<mgrwt>
<rscale>  2 0.17708376E+03</rscale>
<asrwt>0</asrwt>
<pdfrwt beam="1">  1       21 0.14794211E+00 0.17708376E+03</pdfrwt>
<pdfrwt beam="2">  1       21 0.14695986E-01 0.17708376E+03</pdfrwt>
<totfact> 0.12766045E+04</totfact>
</mgrwt>
</event>
<event>
 4    1  0.1119790E+000  0.2097344E+03  0.7546771E-02  0.1141777E+00
         21   -1    0    0  501  502  0.00000000000E+00  0.00000000000E+00  0.35049703250E+03  0.35049703250E+03  0.00000000000E+00 0. -1.
         21   -1    0    0  502  503 -0.00000000000E+00 -0.00000000000E+00 -0.25034033257E+03  0.25034033257E+03  0.00000000000E+00 0. -1.
          6    1    1    2  501    0  0.61557128919E+01 -0.11986081876E+03  0.26222362816E+03  0.33578228041E+03  0.17200000000E+03 0. -1.
         -6    1    1    2    0  503 -0.61557128919E+01  0.11986081876E+03 -0.16206692823E+03  0.26505508466E+03  0.17200000000E+03 0. -1.
<mgrwt>
<rscale>  2 0.20973438E+03</rscale>
<asrwt>0</asrwt>
<pdfrwt beam="1">  1       21 0.87624258E-01 0.20973438E+03</pdfrwt>
<pdfrwt beam="2">  1       21 0.62585083E-01 0.20973438E+03</pdfrwt>
<totfact> 0.26057278E+03</totfact>
</mgrwt>
</event>
<event>
 4    1  0.1119790E+000  0.1726048E+03  0.7546771E-02  0.1175158E+00
         21   -1    0    0  501  502  0.00000000000E+00  0.00000000000E+00  0.80718279001E+02  0.80718279001E+02  0.00000000000E+00 0.  1.
         21   -1    0    0  502  503 -0.00000000000E+00 -0.00000000000E+00 -0.37247702812E+03  0.37247702812E+03  0.00000000000E+00 0.  1.
          6    1    1    2  501    0  0.11418471453E+02  0.88342892680E+01 -0.16748279229E+03  0.24050553397E+03  0.17200000000E+03 0.  1.
         -6    1    1    2    0  503 -0.11418471453E+02 -0.88342892680E+01 -0.12427595683E+03  0.21268977315E+03  0.17200000000E+03 0.  1.
<mgrwt>
<rscale>  2 0.17260483E+03</rscale>
<asrwt>0</asrwt>
<pdfrwt beam="1">  1       21 0.20179570E-01 0.17260483E+03</pdfrwt>
<pdfrwt beam="2">  1       21 0.93119256E-01 0.17260483E+03</pdfrwt>
<totfact> 0.22305316E+04</totfact>
</mgrwt>
</event>
<event>
 4    1  0.1119790E+000  0.1959205E+03  0.7546771E-02  0.1153227E+00
         21   -1    0    0  501  502  0.00000000000E+00  0.00000000000E+00  0.75822971527E+03  0.75822971527E+03  0.00000000000E+00 0. -1.
         21   -1    0    0  502  503 -0.00000000000E+00 -0.00000000000E+00 -0.18909247241E+03  0.18909247241E+03  0.00000000000E+00 0. -1.
          6    1    1    2  501    0 -0.86471246107E+02 -0.36380609338E+02  0.68989570323E+03  0.71717564548E+03  0.17200000000E+03 0. -1.
         -6    1    1    2    0  503  0.86471246107E+02  0.36380609338E+02 -0.12075846036E+03  0.23014654220E+03  0.17200000000E+03 0. -1.
<mgrwt>
<rscale>  2 0.19592046E+03</rscale>
<asrwt>0</asrwt>
<pdfrwt beam="1">  1       21 0.18955742E+00 0.19592046E+03</pdfrwt>
<pdfrwt beam="2">  1       21 0.47273120E-01 0.19592046E+03</pdfrwt>
<totfact> 0.66968739E+02</totfact>
</mgrwt>
</event>
<event>
 4    1  0.1119790E+000  0.1989775E+03  0.7546771E-02  0.1150605E+00
         21   -1    0    0  503  502  0.00000000000E+00  0.00000000000E+00  0.13209279085E+03  0.13209279085E+03  0.00000000000E+00 0. -1.
         21   -1    0    0  501  503 -0.00000000000E+00 -0.00000000000E+00 -0.73608882428E+03  0.73608882428E+03  0.00000000000E+00 0. -1.
          6    1    1    2  501    0  0.95097336449E+02  0.31057204964E+02 -0.63622215039E+03  0.66661133956E+03  0.17200000000E+03 0. -1.
         -6    1    1    2    0  502 -0.95097336449E+02 -0.31057204964E+02  0.32226116961E+02  0.20157027557E+03  0.17200000000E+03 0. -1.
<mgrwt>
<rscale>  2 0.19897752E+03</rscale>
<asrwt>0</asrwt>
<pdfrwt beam="1">  1       21 0.33023198E-01 0.19897752E+03</pdfrwt>
<pdfrwt beam="2">  1       21 0.18402220E+00 0.19897752E+03</pdfrwt>
<totfact> 0.14990313E+03</totfact>
</mgrwt>
</event>
<event>
 4    1  0.1119790E+000  0.1734586E+03  0.7546771E-02  0.1174288E+00
         21   -1    0    0  501  502  0.00000000000E+00  0.00000000000E+00  0.13453225770E+04  0.13453225770E+04  0.00000000000E+00 0. -1.
         21   -1    0    0  502  503 -0.00000000000E+00 -0.00000000000E+00 -0.73472172965E+02  0.73472172965E+02  0.00000000000E+00 0. -1.
          6    1    1    2  501    0 -0.17302076981E+02  0.14301253625E+02  0.12275820002E+04  0.12397763730E+04  0.17200000000E+03 0. -1.
         -6    1    1    2    0  503  0.17302076981E+02 -0.14301253625E+02  0.44268403811E+02  0.17901837699E+03  0.17200000000E+03 0. -1.
<mgrwt>
<rscale>  2 0.17345861E+03</rscale>
<asrwt>0</asrwt>
<pdfrwt beam="1">  1       21 0.33633056E+00 0.17345861E+03</pdfrwt>
<pdfrwt beam="2">  1       21 0.18368048E-01 0.17345861E+03</pdfrwt>
<totfact> 0.58647267E+02</totfact>
</mgrwt>
</event>
<event>
 4    1  0.1119790E+000  0.2167855E+03  0.7546771E-02  0.1136302E+00
         21   -1    0    0  503  502  0.00000000000E+00  0.00000000000E+00  0.94431378735E+02  0.94431378735E+02  0.00000000000E+00 0.  1.
         21   -1    0    0  501  503 -0.00000000000E+00 -0.00000000000E+00 -0.50083057778E+03  0.50083057778E+03  0.00000000000E+00 0.  1.
          6    1    1    2  501    0 -0.12693624408E+03  0.36043911986E+02 -0.22683106921E+03  0.31376473290E+03  0.17200000000E+03 0.  1.
         -6    1    1    2    0  502  0.12693624408E+03 -0.36043911986E+02 -0.17956812983E+03  0.28149722362E+03  0.17200000000E+03 0.  1.
<mgrwt>
<rscale>  2 0.21678555E+03</rscale>
<asrwt>0</asrwt>
<pdfrwt beam="1">  1       21 0.23607845E-01 0.21678555E+03</pdfrwt>
<pdfrwt beam="2">  1       21 0.12520764E+00 0.21678555E+03</pdfrwt>
<totfact> 0.78834907E+03</totfact>
</mgrwt>
</event>
<event>
 4    1  0.1119790E+000  0.1789790E+03  0.7546771E-02  0.1168795E+00
         21   -1    0    0  501  502  0.00000000000E+00  0.00000000000E+00  0.95562495496E+02  0.95562495496E+02  0.00000000000E+00 0. -1.
         21   -1    0    0  502  503 -0.00000000000E+00 -0.00000000000E+00 -0.41857279753E+03  0.41857279753E+03  0.00000000000E+00 0. -1.
          6    1    1    2  501    0  0.13308337357E+02  0.47669361578E+02 -0.27622768263E+03  0.32914314899E+03  0.17200000000E+03 0. -1.
         -6    1    1    2    0  503 -0.13308337357E+02 -0.47669361578E+02 -0.46782619405E+02  0.18499214404E+03  0.17200000000E+03 0. -1.
<mgrwt>
<rscale>  2 0.17897899E+03</rscale>
<asrwt>0</asrwt>
<pdfrwt beam="1">  1       21 0.23890624E-01 0.17897899E+03</pdfrwt>
<pdfrwt beam="2">  1       21 0.10464320E+00 0.17897899E+03</pdfrwt>
<totfact> 0.12279959E+04</totfact>
</mgrwt>
</event>
<event>
 4    1  0.1119790E+000  0.1890058E+03  0.7546771E-02  0.1159361E+00
         21   -1    0    0  503  502  0.00000000000E+00  0.00000000000E+00  0.12046468320E+04  0.12046468320E+04  0.00000000000E+00 0. -1.
         21   -1    0    0  501  503 -0.00000000000E+00 -0.00000000000E+00 -0.42552926043E+02  0.42552926043E+02  0.00000000000E+00 0. -1.
          6    1    1    2  501    0 -0.36358213099E+02 -0.69406633896E+02  0.23771861370E+03  0.30369942342E+03  0.17200000000E+03 0. -1.
         -6    1    1    2    0  502  0.36358213099E+02  0.69406633896E+02  0.92437529222E+03  0.94350033459E+03  0.17200000000E+03 0. -1.
<mgrwt>
<rscale>  2 0.18900582E+03</rscale>
<asrwt>0</asrwt>
<pdfrwt beam="1">  1       21 0.30116160E+00 0.18900582E+03</pdfrwt>
<pdfrwt beam="2">  1       21 0.10638235E-01 0.18900582E+03</pdfrwt>
<totfact> 0.24559582E+03</totfact>
</mgrwt>
</event>
<event>
 4    1  0.1119790E+000  0.1781352E+03  0.7546771E-02  0.1169620E+00
         21   -1    0    0  503  502  0.00000000000E+00  0.00000000000E+00  0.81472574121E+03  0.81472574121E+03  0.00000000000E+00 0.  1.
         21   -1    0    0  501  503 -0.00000000000E+00 -0.00000000000E+00 -0.45968929780E+02  0.45968929780E+02  0.00000000000E+00 0.  1.
          6    1    1    2  501    0  0.37042268003E+02  0.27857138770E+02  0.21619768759E+03  0.28013137974E+03  0.17200000000E+03 0. -1.
         -6    1    1    2    0  502 -0.37042268003E+02 -0.27857138770E+02  0.55255912384E+03  0.58056329124E+03  0.17200000000E+03 0. -1.
<mgrwt>
<rscale>  2 0.17813520E+03</rscale>
<asrwt>0</asrwt>
<pdfrwt beam="1">  1       21 0.20368139E+00 0.17813520E+03</pdfrwt>
<pdfrwt beam="2">  1       21 0.11492235E-01 0.17813520E+03</pdfrwt>
<totfact> 0.81689245E+03</totfact>
</mgrwt>
</event>
<event>
 4    1  0.1119790E+000  0.1963636E+03  0.7546771E-02  0.1152844E+00
         21   -1    0    0  501  502  0.00000000000E+00  0.00000000000E+00  0.19004946031E+03  0.19004946031E+03  0.00000000000E+00 0. -1.
         21   -1    0    0  502  503 -0.00000000000E+00 -0.00000000000E+00 -0.25570031950E+03  0.25570031950E+03  0.00000000000E+00 0. -1.
          6    1    1    2  501    0  0.56591184369E+02  0.75974472408E+02  0.68464131998E+02  0.20795677430E+03  0.17200000000E+03 0. -1.
         -6    1    1    2    0  503 -0.56591184369E+02 -0.75974472408E+02 -0.13411499119E+03  0.23779300551E+03  0.17200000000E+03 0. -1.
<mgrwt>
<rscale>  2 0.19636365E+03</rscale>
<asrwt>0</asrwt>
<pdfrwt beam="1">  1       21 0.47512365E-01 0.19636365E+03</pdfrwt>
<pdfrwt beam="2">  1       21 0.63925080E-01 0.19636365E+03</pdfrwt>
<totfact> 0.95497825E+03</totfact>
</mgrwt>
</event>
<event>
 4    1  0.1119790E+000  0.2468033E+03  0.7546771E-02  0.1115342E+00
         21   -1    0    0  503  502  0.00000000000E+00  0.00000000000E+00  0.10695805323E+04  0.10695805323E+04  0.00000000000E+00 0.  1.
         21   -1    0    0  501  503 -0.00000000000E+00 -0.00000000000E+00 -0.58035442744E+02  0.58035442744E+02  0.00000000000E+00 0. -1.
          6    1    1    2  501    0  0.17526382743E+03  0.24707521466E+02  0.58290310585E+03  0.63299913241E+03  0.17200000000E+03 0. -1.
         -6    1    1    2    0  502 -0.17526382743E+03 -0.24707521466E+02  0.42864198371E+03  0.49461684264E+03  0.17200000000E+03 0.  1.
<mgrwt>
<rscale>  2 0.24680330E+03</rscale>
<asrwt>0</asrwt>
<pdfrwt beam="1">  1       21 0.26739507E+00 0.24680330E+03</pdfrwt>
<pdfrwt beam="2">  1       21 0.14508864E-01 0.24680330E+03</pdfrwt>
<totfact> 0.20716995E+03</totfact>
</mgrwt>
</event>
<event>
 4    1  0.1119790E+000  0.2006739E+03  0.7546771E-02  0.1149172E+00
         21   -1    0    0  503  502  0.00000000000E+00  0.00000000000E+00  0.51094533325E+03  0.51094533325E+03  0.00000000000E+00 0.  1.
         21   -1    0    0  501  503 -0.00000000000E+00 -0.00000000000E+00 -0.16807936418E+03  0.16807936418E+03  0.00000000000E+00 0.  1.
          6    1    1    2  501    0 -0.42962476395E+02 -0.94022557539E+02 -0.75988896761E+02  0.21457942151E+03  0.17200000000E+03 0.  1.
         -6    1    1    2    0  502  0.42962476395E+02  0.94022557539E+02  0.41885486582E+03  0.46444527592E+03  0.17200000000E+03 0.  1.
<mgrwt>
<rscale>  2 0.20067390E+03</rscale>
<asrwt>0</asrwt>
<pdfrwt beam="1">  1       21 0.12773633E+00 0.20067390E+03</pdfrwt>
<pdfrwt beam="2">  1       21 0.42019842E-01 0.20067390E+03</pdfrwt>
<totfact> 0.24450135E+03</totfact>
</mgrwt>
</event>
<event>
 4    1  0.1119790E+000  0.1794296E+03  0.7546771E-02  0.1168356E+00
         21   -1    0    0  501  502  0.00000000000E+00  0.00000000000E+00  0.46391529749E+02  0.46391529749E+02  0.00000000000E+00 0. -1.
         21   -1    0    0  502  503 -0.00000000000E+00 -0.00000000000E+00 -0.85864338219E+03  0.85864338219E+03  0.00000000000E+00 0. -1.
          6    1    1    2  501    0  0.50693140022E+02 -0.64175154646E+01 -0.20796310509E+03  0.27467004210E+03  0.17200000000E+03 0. -1.
         -6    1    1    2    0  503 -0.50693140022E+02  0.64175154646E+01 -0.60428874735E+03  0.63036486983E+03  0.17200000000E+03 0. -1.
<mgrwt>
<rscale>  2 0.17942959E+03</rscale>
<asrwt>0</asrwt>
<pdfrwt beam="1">  1       21 0.11597883E-01 0.17942959E+03</pdfrwt>
<pdfrwt beam="2">  1       21 0.21466084E+00 0.17942959E+03</pdfrwt>
<totfact> 0.68533599E+03</totfact>
</mgrwt>
</event>
<event>
 4    1  0.1119790E+000  0.1867565E+03  0.7546771E-02  0.1161420E+00
         21   -1    0    0  501  502  0.00000000000E+00  0.00000000000E+00  0.67362819579E+03  0.67362819579E+03  0.00000000000E+00 0.  1.
         21   -1    0    0  502  503 -0.00000000000E+00 -0.00000000000E+00 -0.13081933477E+03  0.13081933477E+03  0.00000000000E+00 0. -1.
          6    1    1    2  501    0  0.41082470295E+01  0.72643745650E+02  0.58405807622E+03  0.61318987913E+03  0.17200000000E+03 0.  1.
         -6    1    1    2    0  503 -0.41082470295E+01 -0.72643745650E+02 -0.41249215192E+02  0.19125765143E+03  0.17200000000E+03 0. -1.
<mgrwt>
<rscale>  2 0.18675650E+03</rscale>
<asrwt>0</asrwt>
<pdfrwt beam="1">  1       21 0.16840704E+00 0.18675650E+03</pdfrwt>
<pdfrwt beam="2">  1       21 0.32704836E-01 0.18675650E+03</pdfrwt>
<totfact> 0.19820602E+03</totfact>
</mgrwt>
</event>
<event>
 4    1  0.1119790E+000  0.1924317E+03  0.7546771E-02  0.1156286E+00
         21   -1    0    0  501  502  0.00000000000E+00  0.00000000000E+00  0.15279003351E+03  0.15279003351E+03  0.00000000000E+00 0. -1.
         21   -1    0    0  502  503 -0.00000000000E+00 -0.00000000000E+00 -0.24250680105E+03  0.24250680105E+03  0.00000000000E+00 0. -1.
          6    1    1    2  501    0 -0.27928092914E+02 -0.81645450765E+02 -0.49746647136E+02  0.19875785998E+03  0.17200000000E+03 0. -1.
         -6    1    1    2    0  503  0.27928092914E+02  0.81645450765E+02 -0.39970120405E+02  0.19653897458E+03  0.17200000000E+03 0. -1.
<mgrwt>
<rscale>  2 0.19243170E+03</rscale>
<asrwt>0</asrwt>
<pdfrwt beam="1">  1       21 0.38197509E-01 0.19243170E+03</pdfrwt>
<pdfrwt beam="2">  1       21 0.60626700E-01 0.19243170E+03</pdfrwt>
<totfact> 0.16751633E+04</totfact>
</mgrwt>
</event>
<event>
 4    1  0.1119790E+000  0.2218047E+03  0.7546771E-02  0.1132545E+00
         21   -1    0    0  503  502  0.00000000000E+00  0.00000000000E+00  0.29912161073E+03  0.29912161073E+03  0.00000000000E+00 0.  1.
         21   -1    0    0  501  503 -0.00000000000E+00 -0.00000000000E+00 -0.16448644673E+03  0.16448644673E+03  0.00000000000E+00 0.  1.
          6    1    1    2  501    0 -0.34700051500E+02 -0.13568066838E+03  0.69437114752E+02  0.23241955652E+03  0.17200000000E+03 0.  1.
         -6    1    1    2    0  502  0.34700051500E+02  0.13568066838E+03  0.65198049249E+02  0.23118850095E+03  0.17200000000E+03 0.  1.
<mgrwt>
<rscale>  2 0.22180473E+03</rscale>
<asrwt>0</asrwt>
<pdfrwt beam="1">  1       21 0.74780402E-01 0.22180473E+03</pdfrwt>
<pdfrwt beam="2">  1       21 0.41121612E-01 0.22180473E+03</pdfrwt>
<totfact> 0.89359547E+03</totfact>
</mgrwt>
</event>
<event>
 4    1  0.1119790E+000  0.1933949E+03  0.7546771E-02  0.1155435E+00
         21   -1    0    0  503  502  0.00000000000E+00  0.00000000000E+00  0.10141344918E+04  0.10141344918E+04  0.00000000000E+00 0.  1.
         21   -1    0    0  501  503 -0.00000000000E+00 -0.00000000000E+00 -0.47658432890E+02  0.47658432890E+02  0.00000000000E+00 0. -1.
          6    1    1    2  501    0 -0.60858750233E+02 -0.64138929738E+02  0.23076696537E+03  0.30108965790E+03  0.17200000000E+03 0. -1.
         -6    1    1    2    0  502  0.60858750233E+02  0.64138929738E+02  0.73570909350E+03  0.76070326675E+03  0.17200000000E+03 0.  1.
<mgrwt>
<rscale>  2 0.19339491E+03</rscale>
<asrwt>0</asrwt>
<pdfrwt beam="1">  1       21 0.25353355E+00 0.19339491E+03</pdfrwt>
<pdfrwt beam="2">  1       21 0.11914612E-01 0.19339491E+03</pdfrwt>
<totfact> 0.37647388E+03</totfact>
</mgrwt>
</event>
<event>
 4    1  0.1119790E+000  0.1946265E+03  0.7546771E-02  0.1154354E+00
         21   -1    0    0  503  502  0.00000000000E+00  0.00000000000E+00  0.37247754609E+03  0.37247754609E+03  0.00000000000E+00 0.  1.
         21   -1    0    0  501  503 -0.00000000000E+00 -0.00000000000E+00 -0.12486156529E+03  0.12486156529E+03  0.00000000000E+00 0.  1.
          6    1    1    2  501    0  0.57667951692E+02 -0.70497340490E+02  0.23091796222E+03  0.30199763731E+03  0.17200000000E+03 0.  1.
         -6    1    1    2    0  502 -0.57667951692E+02  0.70497340490E+02  0.16698018586E+02  0.19534147407E+03  0.17200000000E+03 0.  1.
<mgrwt>
<rscale>  2 0.19462648E+03</rscale>
<asrwt>0</asrwt>
<pdfrwt beam="1">  1       21 0.93119384E-01 0.19462648E+03</pdfrwt>
<pdfrwt beam="2">  1       21 0.31215392E-01 0.19462648E+03</pdfrwt>
<totfact> 0.95582998E+03</totfact>
</mgrwt>
</event>
<event>
 4    1  0.1119790E+000  0.2486107E+03  0.7546771E-02  0.1114186E+00
         21   -1    0    0  503  502  0.00000000000E+00  0.00000000000E+00  0.27764372733E+03  0.27764372733E+03  0.00000000000E+00 0. -1.
         21   -1    0    0  501  503 -0.00000000000E+00 -0.00000000000E+00 -0.26858612719E+03  0.26858612719E+03  0.00000000000E+00 0.  1.
          6    1    1    2  501    0  0.16515369680E+03  0.70338887388E+02 -0.10846439178E+03  0.27124127070E+03  0.17200000000E+03 0.  1.
         -6    1    1    2    0  502 -0.16515369680E+03 -0.70338887388E+02  0.11752199192E+03  0.27498858382E+03  0.17200000000E+03 0. -1.
<mgrwt>
<rscale>  2 0.24861075E+03</rscale>
<asrwt>0</asrwt>
<pdfrwt beam="1">  1       21 0.69410932E-01 0.24861075E+03</pdfrwt>
<pdfrwt beam="2">  1       21 0.67146532E-01 0.24861075E+03</pdfrwt>
<totfact> 0.36771606E+03</totfact>
</mgrwt>
</event>
<event>
 4    1  0.1119790E+000  0.2938759E+03  0.7546771E-02  0.1088343E+00
         21   -1    0    0  503  502  0.00000000000E+00  0.00000000000E+00  0.14804702255E+03  0.14804702255E+03  0.00000000000E+00 0.  1.
         21   -1    0    0  501  503 -0.00000000000E+00 -0.00000000000E+00 -0.91680308639E+03  0.91680308639E+03  0.00000000000E+00 0. -1.
          6    1    1    2  501    0 -0.80391077116E+02 -0.22431298128E+03 -0.70547681886E+03  0.76423856275E+03  0.17200000000E+03 0. -1.
         -6    1    1    2    0  502  0.80391077116E+02  0.22431298128E+03 -0.63279244986E+02  0.30061154618E+03  0.17200000000E+03 0.  1.
<mgrwt>
<rscale>  2 0.29387589E+03</rscale>
<asrwt>0</asrwt>
<pdfrwt beam="1">  1       21 0.37011756E-01 0.29387589E+03</pdfrwt>
<pdfrwt beam="2">  1       21 0.22920077E+00 0.29387589E+03</pdfrwt>
<totfact> 0.56184920E+02</totfact>
</mgrwt>
</event>
<event>
 4    1  0.1119790E+000  0.3116230E+03  0.7546771E-02  0.1079571E+00
         21   -1    0    0  503  502  0.00000000000E+00  0.00000000000E+00  0.20484565127E+03  0.20484565127E+03  0.00000000000E+00 0.  1.
         21   -1    0    0  501  503 -0.00000000000E+00 -0.00000000000E+00 -0.65456223227E+03  0.65456223227E+03  0.00000000000E+00 0. -1.
          6    1    1    2  501    0  0.52481248577E+02 -0.25450073263E+03  0.79230107747E+00  0.31162402363E+03  0.17200000000E+03 0. -1.
         -6    1    1    2    0  502 -0.52481248577E+02  0.25450073263E+03 -0.45050888208E+03  0.54778385992E+03  0.17200000000E+03 0.  1.
<mgrwt>
<rscale>  2 0.31162302E+03</rscale>
<asrwt>0</asrwt>
<pdfrwt beam="1">  1       21 0.51211413E-01 0.31162302E+03</pdfrwt>
<pdfrwt beam="2">  1       21 0.16364056E+00 0.31162302E+03</pdfrwt>
<totfact> 0.77493038E+02</totfact>
</mgrwt>
</event>
<event>
 4    1  0.1119790E+000  0.2641257E+03  0.7546771E-02  0.1104689E+00
         21   -1    0    0  501  502  0.00000000000E+00  0.00000000000E+00  0.58244055232E+03  0.58244055232E+03  0.00000000000E+00 0. -1.
         21   -1    0    0  502  503 -0.00000000000E+00 -0.00000000000E+00 -0.22012442481E+03  0.22012442481E+03  0.00000000000E+00 0.  1.
          6    1    1    2  501    0 -0.19096453547E+03 -0.60917258727E+02 -0.89780918349E+02  0.27896770336E+03  0.17200000000E+03 0.  1.
         -6    1    1    2    0  503  0.19096453547E+03  0.60917258727E+02  0.45209704586E+03  0.52359727377E+03  0.17200000000E+03 0. -1.
<mgrwt>
<rscale>  2 0.26412566E+03</rscale>
<asrwt>0</asrwt>
<pdfrwt beam="1">  1       21 0.14561014E+00 0.26412566E+03</pdfrwt>
<pdfrwt beam="2">  1       21 0.55031107E-01 0.26412566E+03</pdfrwt>
<totfact> 0.94348839E+02</totfact>
</mgrwt>
</event>
<event>
 4    1  0.1119790E+000  0.3101351E+03  0.7546771E-02  0.1080281E+00
         21   -1    0    0  501  502  0.00000000000E+00  0.00000000000E+00  0.10889471175E+04  0.10889471175E+04  0.00000000000E+00 0.  1.
         21   -1    0    0  502  503 -0.00000000000E+00 -0.00000000000E+00 -0.10016121461E+03  0.10016121461E+03  0.00000000000E+00 0. -1.
          6    1    1    2  501    0 -0.16615015324E+03  0.19746877648E+03  0.69875738001E+03  0.76449046248E+03  0.17200000000E+03 0.  1.
         -6    1    1    2    0  503  0.16615015324E+03 -0.19746877648E+03  0.29002852284E+03  0.42461786958E+03  0.17200000000E+03 0. -1.
<mgrwt>
<rscale>  2 0.31013512E+03</rscale>
<asrwt>0</asrwt>
<pdfrwt beam="1">  1       21 0.27223674E+00 0.31013512E+03</pdfrwt>
<pdfrwt beam="2">  1       21 0.25040307E-01 0.31013512E+03</pdfrwt>
<totfact> 0.65954414E+02</totfact>
</mgrwt>
</event>
<event>
 4    1  0.1119790E+000  0.2264302E+03  0.7546771E-02  0.1129178E+00
         21   -1    0    0  501  502  0.00000000000E+00  0.00000000000E+00  0.58179848862E+02  0.58179848862E+02  0.00000000000E+00 0.  1.
         21   -1    0    0  502  503 -0.00000000000E+00 -0.00000000000E+00 -0.98646814069E+03  0.98646814069E+03  0.00000000000E+00 0.  1.
          6    1    1    2  501    0  0.61746474044E+02  0.13369372014E+03 -0.29355306859E+03  0.37073446285E+03  0.17200000000E+03 0.  1.
         -6    1    1    2    0  503 -0.61746474044E+02 -0.13369372014E+03 -0.63473522324E+03  0.67391352671E+03  0.17200000000E+03 0.  1.
<mgrwt>
<rscale>  2 0.22643021E+03</rscale>
<asrwt>0</asrwt>
<pdfrwt beam="1">  1       21 0.14544962E-01 0.22643021E+03</pdfrwt>
<pdfrwt beam="2">  1       21 0.24661703E+00 0.22643021E+03</pdfrwt>
<totfact> 0.27893105E+03</totfact>
</mgrwt>
</event>
<event>
 4    1  0.1119790E+000  0.2184715E+03  0.7546771E-02  0.1135028E+00
         21   -1    0    0  503  502  0.00000000000E+00  0.00000000000E+00  0.87516776320E+02  0.87516776320E+02  0.00000000000E+00 0.  1.
         21   -1    0    0  501  503 -0.00000000000E+00 -0.00000000000E+00 -0.55146857149E+03  0.55146857149E+03  0.00000000000E+00 0.  1.
          6    1    1    2  501    0 -0.10098661058E+03  0.89148855431E+02 -0.19840267135E+03  0.29511596693E+03  0.17200000000E+03 0.  1.
         -6    1    1    2    0  502  0.10098661058E+03 -0.89148855431E+02 -0.26554912382E+03  0.34386938087E+03  0.17200000000E+03 0.  1.
<mgrwt>
<rscale>  2 0.21847154E+03</rscale>
<asrwt>0</asrwt>
<pdfrwt beam="1">  1       21 0.21879194E-01 0.21847154E+03</pdfrwt>
<pdfrwt beam="2">  1       21 0.13786714E+00 0.21847154E+03</pdfrwt>
<totfact> 0.71205461E+03</totfact>
</mgrwt>
</event>
<event>
 4    1  0.1119790E+000  0.1759486E+03  0.7546771E-02  0.1171783E+00
         21   -1    0    0  501  502  0.00000000000E+00  0.00000000000E+00  0.67789371616E+03  0.67789371616E+03  0.00000000000E+00 0. -1.
         21   -1    0    0  502  503 -0.00000000000E+00 -0.00000000000E+00 -0.51737458528E+02  0.51737458528E+02  0.00000000000E+00 0. -1.
          6    1    1    2  501    0 -0.36580872078E+02 -0.59794511702E+01  0.18812331202E+03  0.25758162699E+03  0.17200000000E+03 0.  1.
         -6    1    1    2    0  503  0.36580872078E+02  0.59794511702E+01  0.43803294561E+03  0.47204954769E+03  0.17200000000E+03 0.  1.
<mgrwt>
<rscale>  2 0.17594861E+03</rscale>
<asrwt>0</asrwt>
<pdfrwt beam="1">  1       21 0.16947340E+00 0.17594861E+03</pdfrwt>
<pdfrwt beam="2">  1       21 0.12934367E-01 0.17594861E+03</pdfrwt>
<totfact> 0.11186533E+04</totfact>
</mgrwt>
</event>
<event>
 4    1  0.1119790E+000  0.1944035E+03  0.7546771E-02  0.1154549E+00
         21   -1    0    0  503  502  0.00000000000E+00  0.00000000000E+00  0.88215179524E+03  0.88215179524E+03  0.00000000000E+00 0. -1.
         21   -1    0    0  501  503 -0.00000000000E+00 -0.00000000000E+00 -0.52728353526E+02  0.52728353526E+02  0.00000000000E+00 0. -1.
          6    1    1    2  501    0  0.10384247041E+02 -0.90004861778E+02  0.21230130948E+03  0.28786203941E+03  0.17200000000E+03 0. -1.
         -6    1    1    2    0  502 -0.10384247041E+02  0.90004861778E+02  0.61712213223E+03  0.64701810935E+03  0.17200000000E+03 0. -1.
<mgrwt>
<rscale>  2 0.19440347E+03</rscale>
<asrwt>0</asrwt>
<pdfrwt beam="1">  1       21 0.22053790E+00 0.19440347E+03</pdfrwt>
<pdfrwt beam="2">  1       21 0.13182091E-01 0.19440347E+03</pdfrwt>
<totfact> 0.49408339E+03</totfact>
</mgrwt>
</event>
<event>
 4    1  0.1119790E+000  0.2083454E+03  0.7546771E-02  0.1142883E+00
         21   -1    0    0  501  502  0.00000000000E+00  0.00000000000E+00  0.51188864933E+02  0.51188864933E+02  0.00000000000E+00 0.  1.
         21   -1    0    0  502  503 -0.00000000000E+00 -0.00000000000E+00 -0.85003523643E+03  0.85003523643E+03  0.00000000000E+00 0.  1.
          6    1    1    2  501    0 -0.60764239091E+02 -0.10065543574E+03 -0.42150912313E+03  0.47018905812E+03  0.17200000000E+03 0.  1.
         -6    1    1    2    0  503  0.60764239091E+02  0.10065543574E+03 -0.37733724836E+03  0.43103504324E+03  0.17200000000E+03 0.  1.
<mgrwt>
<rscale>  2 0.20834541E+03</rscale>
<asrwt>0</asrwt>
<pdfrwt beam="1">  1       21 0.12797216E-01 0.20834541E+03</pdfrwt>
<pdfrwt beam="2">  1       21 0.21250881E+00 0.20834541E+03</pdfrwt>
<totfact> 0.57689971E+03</totfact>
</mgrwt>
</event>
<event>
 4    1  0.1119790E+000  0.1931918E+03  0.7546771E-02  0.1155614E+00
         21   -1    0    0  503  502  0.00000000000E+00  0.00000000000E+00  0.11088146185E+03  0.11088146185E+03  0.00000000000E+00 0. -1.
         21   -1    0    0  501  503 -0.00000000000E+00 -0.00000000000E+00 -0.34159503116E+03  0.34159503116E+03  0.00000000000E+00 0.  1.
          6    1    1    2  501    0 -0.48248484768E+02 -0.73560596909E+02 -0.14270514190E+03  0.24018292034E+03  0.17200000000E+03 0. -1.
         -6    1    1    2    0  502  0.48248484768E+02  0.73560596909E+02 -0.88008427407E+02  0.21229357266E+03  0.17200000000E+03 0. -1.
<mgrwt>
<rscale>  2 0.19319182E+03</rscale>
<asrwt>0</asrwt>
<pdfrwt beam="1">  1       21 0.27720366E-01 0.19319182E+03</pdfrwt>
<pdfrwt beam="2">  1       21 0.85398757E-01 0.19319182E+03</pdfrwt>
<totfact> 0.14722230E+04</totfact>
</mgrwt>
</event>
<event>
 4    1  0.1119790E+000  0.2054122E+03  0.7546771E-02  0.1145251E+00
         21   -1    0    0  501  502  0.00000000000E+00  0.00000000000E+00  0.95118683879E+03  0.95118683879E+03  0.00000000000E+00 0. -1.
         21   -1    0    0  502  503 -0.00000000000E+00 -0.00000000000E+00 -0.33659340289E+03  0.33659340289E+03  0.00000000000E+00 0. -1.
          6    1    1    2  501    0 -0.75895940815E+02  0.82764650673E+02  0.90725942266E+03  0.93022246868E+03  0.17200000000E+03 0. -1.
         -6    1    1    2    0  503  0.75895940815E+02 -0.82764650673E+02 -0.29266598675E+03  0.35755777300E+03  0.17200000000E+03 0. -1.
<mgrwt>
<rscale>  2 0.20541222E+03</rscale>
<asrwt>0</asrwt>
<pdfrwt beam="1">  1       21 0.23779670E+00 0.20541222E+03</pdfrwt>
<pdfrwt beam="2">  1       21 0.84148353E-01 0.20541222E+03</pdfrwt>
<totfact> 0.94484431E+01</totfact>
</mgrwt>
</event>
<event>
 4    1  0.1119790E+000  0.2298846E+03  0.7546771E-02  0.1126721E+00
         21   -1    0    0  501  502  0.00000000000E+00  0.00000000000E+00  0.15435802175E+03  0.15435802175E+03  0.00000000000E+00 0. -1.
         21   -1    0    0  502  503 -0.00000000000E+00 -0.00000000000E+00 -0.56170254319E+03  0.56170254319E+03  0.00000000000E+00 0. -1.
          6    1    1    2  501    0 -0.13851789610E+03  0.63841518212E+02  0.20056598764E+02  0.23075791242E+03  0.17200000000E+03 0. -1.
         -6    1    1    2    0  503  0.13851789610E+03 -0.63841518212E+02 -0.42740112021E+03  0.48530265252E+03  0.17200000000E+03 0. -1.
<mgrwt>
<rscale>  2 0.22988464E+03</rscale>
<asrwt>0</asrwt>
<pdfrwt beam="1">  1       21 0.38589506E-01 0.22988464E+03</pdfrwt>
<pdfrwt beam="2">  1       21 0.14042563E+00 0.22988464E+03</pdfrwt>
<totfact> 0.22252174E+03</totfact>
</mgrwt>
</event>
<event>
 4    1  0.1119790E+000  0.1893115E+03  0.7546771E-02  0.1159084E+00
         21   -1    0    0  503  502  0.00000000000E+00  0.00000000000E+00  0.28342731187E+03  0.28342731187E+03  0.00000000000E+00 0.  1.
         21   -1    0    0  501  503 -0.00000000000E+00 -0.00000000000E+00 -0.25319512304E+03  0.25319512304E+03  0.00000000000E+00 0.  1.
          6    1    1    2  501    0 -0.76861620561E+02 -0.18631394908E+02 -0.17472056846E+03  0.25761621579E+03  0.17200000000E+03 0.  1.
         -6    1    1    2    0  502  0.76861620561E+02  0.18631394908E+02  0.20495275729E+03  0.27900621913E+03  0.17200000000E+03 0.  1.
<mgrwt>
<rscale>  2 0.18931148E+03</rscale>
<asrwt>0</asrwt>
<pdfrwt beam="1">  1       21 0.70856828E-01 0.18931148E+03</pdfrwt>
<pdfrwt beam="2">  1       21 0.63298781E-01 0.18931148E+03</pdfrwt>
<totfact> 0.41757948E+03</totfact>
</mgrwt>
</event>
<event>
 4    1  0.1119790E+000  0.2148377E+03  0.7546771E-02  0.1137791E+00
         21   -1    0    0  501  502  0.00000000000E+00  0.00000000000E+00  0.55695361913E+03  0.55695361913E+03  0.00000000000E+00 0.  1.
         21   -1    0    0  502  503 -0.00000000000E+00 -0.00000000000E+00 -0.83265232080E+02  0.83265232080E+02  0.00000000000E+00 0.  1.
          6    1    1    2  501    0  0.93072624789E+02  0.88931102416E+02  0.21481538750E+03  0.30381064031E+03  0.17200000000E+03 0.  1.
         -6    1    1    2    0  503 -0.93072624789E+02 -0.88931102416E+02  0.25887299955E+03  0.33640821090E+03  0.17200000000E+03 0.  1.
<mgrwt>
<rscale>  2 0.21483774E+03</rscale>
<asrwt>0</asrwt>
<pdfrwt beam="1">  1       21 0.13923839E+00 0.21483774E+03</pdfrwt>
<pdfrwt beam="2">  1       21 0.20816310E-01 0.21483774E+03</pdfrwt>
<totfact> 0.76434085E+03</totfact>
</mgrwt>
</event>
<event>
 4    1  0.1119790E+000  0.1889174E+03  0.7546771E-02  0.1159441E+00
         21   -1    0    0  503  502  0.00000000000E+00  0.00000000000E+00  0.10970081613E+04  0.10970081613E+04  0.00000000000E+00 0. -1.
         21   -1    0    0  501  503 -0.00000000000E+00 -0.00000000000E+00 -0.33483342396E+02  0.33483342396E+02  0.00000000000E+00 0.  1.
          6    1    1    2  501    0 -0.25159761750E+02 -0.73978090403E+02  0.43657155419E+03  0.47569369704E+03  0.17200000000E+03 0. -1.
         -6    1    1    2    0  502  0.25159761750E+02  0.73978090403E+02  0.62695326466E+03  0.65479780661E+03  0.17200000000E+03 0. -1.
<mgrwt>
<rscale>  2 0.18891737E+03</rscale>
<asrwt>0</asrwt>
<pdfrwt beam="1">  1       21 0.27425192E+00 0.18891737E+03</pdfrwt>
<pdfrwt beam="2">  1       21 0.83708393E-02 0.18891737E+03</pdfrwt>
<totfact> 0.53483835E+03</totfact>
</mgrwt>
</event>
<event>
 4    1  0.1119790E+000  0.2260247E+03  0.7546771E-02  0.1129469E+00
         21   -1    0    0  503  502  0.00000000000E+00  0.00000000000E+00  0.37861778348E+03  0.37861778348E+03  0.00000000000E+00 0.  1.
         21   -1    0    0  501  503 -0.00000000000E+00 -0.00000000000E+00 -0.27641213141E+03  0.27641213141E+03  0.00000000000E+00 0.  1.
          6    1    1    2  501    0 -0.70490916402E+02  0.12858538517E+03 -0.18321335417E+03  0.29095412649E+03  0.17200000000E+03 0.  1.
         -6    1    1    2    0  502  0.70490916402E+02 -0.12858538517E+03  0.28541900625E+03  0.36407578840E+03  0.17200000000E+03 0.  1.
<mgrwt>
<rscale>  2 0.22602471E+03</rscale>
<asrwt>0</asrwt>
<pdfrwt beam="1">  1       21 0.94654445E-01 0.22602471E+03</pdfrwt>
<pdfrwt beam="2">  1       21 0.69103033E-01 0.22602471E+03</pdfrwt>
<totfact> 0.17294914E+03</totfact>
</mgrwt>
</event>
<event>
 4    1  0.1119790E+000  0.1885247E+03  0.7546771E-02  0.1159799E+00
         21   -1    0    0  503  502  0.00000000000E+00  0.00000000000E+00  0.52021554266E+03  0.52021554266E+03  0.00000000000E+00 0. -1.
         21   -1    0    0  501  503 -0.00000000000E+00 -0.00000000000E+00 -0.93806302899E+02  0.93806302899E+02  0.00000000000E+00 0. -1.
          6    1    1    2  501    0 -0.60940364861E+02  0.47369094713E+02  0.53180981699E+02  0.19588204619E+03  0.17200000000E+03 0. -1.
         -6    1    1    2    0  502  0.60940364861E+02 -0.47369094713E+02  0.37322825806E+03  0.41813979937E+03  0.17200000000E+03 0. -1.
<mgrwt>
<rscale>  2 0.18852469E+03</rscale>
<asrwt>0</asrwt>
<pdfrwt beam="1">  1       21 0.13005388E+00 0.18852469E+03</pdfrwt>
<pdfrwt beam="2">  1       21 0.23451577E-01 0.18852469E+03</pdfrwt>
<totfact> 0.74101879E+03</totfact>
</mgrwt>
</event>
<event>
 4    1  0.1119790E+000  0.1961355E+03  0.7546771E-02  0.1153041E+00
         21   -1    0    0  501  502  0.00000000000E+00  0.00000000000E+00  0.50406365502E+03  0.50406365502E+03  0.00000000000E+00 0.  1.
         21   -1    0    0  502  503 -0.00000000000E+00 -0.00000000000E+00 -0.76347216601E+02  0.76347216601E+02  0.00000000000E+00 0.  1.
          6    1    1    2  501    0 -0.92271041792E+02  0.19266318817E+02  0.20818234471E+03  0.28602276980E+03  0.17200000000E+03 0.  1.
         -6    1    1    2    0  503  0.92271041792E+02 -0.19266318817E+02  0.21953409371E+03  0.29438810182E+03  0.17200000000E+03 0.  1.
<mgrwt>
<rscale>  2 0.19613550E+03</rscale>
<asrwt>0</asrwt>
<pdfrwt beam="1">  1       21 0.12601590E+00 0.19613550E+03</pdfrwt>
<pdfrwt beam="2">  1       21 0.19086806E-01 0.19613550E+03</pdfrwt>
<totfact> 0.11743370E+04</totfact>
</mgrwt>
</event>
<event>
 4    1  0.1119790E+000  0.2592789E+03  0.7546771E-02  0.1107577E+00
         21   -1    0    0  503  502  0.00000000000E+00  0.00000000000E+00  0.10317785185E+04  0.10317785185E+04  0.00000000000E+00 0. -1.
         21   -1    0    0  501  503 -0.00000000000E+00 -0.00000000000E+00 -0.16197691901E+03  0.16197691901E+03  0.00000000000E+00 0.  1.
          6    1    1    2  501    0 -0.18899070475E+03  0.43864417777E+02 -0.26571404120E+02  0.26063693741E+03  0.17200000000E+03 0.  1.
         -6    1    1    2    0  502  0.18899070475E+03 -0.43864417777E+02  0.89637300357E+03  0.93311850006E+03  0.17200000000E+03 0. -1.
<mgrwt>
<rscale>  2 0.25927895E+03</rscale>
<asrwt>0</asrwt>
<pdfrwt beam="1">  1       21 0.25794461E+00 0.25927895E+03</pdfrwt>
<pdfrwt beam="2">  1       21 0.40494233E-01 0.25927895E+03</pdfrwt>
<totfact> 0.32397030E+02</totfact>
</mgrwt>
</event>
<event>
 4    1  0.1119790E+000  0.2363432E+03  0.7546771E-02  0.1122253E+00
         21   -1    0    0  503  502  0.00000000000E+00  0.00000000000E+00  0.31222472928E+03  0.31222472928E+03  0.00000000000E+00 0.  1.
         21   -1    0    0  501  503 -0.00000000000E+00 -0.00000000000E+00 -0.40769792102E+03  0.40769792102E+03  0.00000000000E+00 0.  1.
          6    1    1    2  501    0 -0.14907102665E+03 -0.63655003527E+02 -0.31739204853E+03  0.39572192627E+03  0.17200000000E+03 0.  1.
         -6    1    1    2    0  502  0.14907102665E+03  0.63655003527E+02  0.22191885679E+03  0.32420072403E+03  0.17200000000E+03 0.  1.
<mgrwt>
<rscale>  2 0.23634325E+03</rscale>
<asrwt>0</asrwt>
<pdfrwt beam="1">  1       21 0.78056182E-01 0.23634325E+03</pdfrwt>
<pdfrwt beam="2">  1       21 0.10192448E+00 0.23634325E+03</pdfrwt>
<totfact> 0.10956679E+03</totfact>
</mgrwt>
</event>
<event>
 4    1  0.1119790E+000  0.1967766E+03  0.7546771E-02  0.1152487E+00
         21   -1    0    0  501  502  0.00000000000E+00  0.00000000000E+00  0.24359894698E+03  0.24359894698E+03  0.00000000000E+00 0. -1.
         21   -1    0    0  502  503 -0.00000000000E+00 -0.00000000000E+00 -0.16367274704E+03  0.16367274704E+03  0.00000000000E+00 0. -1.
          6    1    1    2  501    0  0.73855221719E+02  0.60683128689E+02  0.74539336385E+02  0.21042135954E+03  0.17200000000E+03 0. -1.
         -6    1    1    2    0  503 -0.73855221719E+02 -0.60683128689E+02  0.53868635550E+01  0.19685033447E+03  0.17200000000E+03 0. -1.
<mgrwt>
<rscale>  2 0.19677661E+03</rscale>
<asrwt>0</asrwt>
<pdfrwt beam="1">  1       21 0.60899736E-01 0.19677661E+03</pdfrwt>
<pdfrwt beam="2">  1       21 0.40918187E-01 0.19677661E+03</pdfrwt>
<totfact> 0.14399921E+04</totfact>
</mgrwt>
</event>
<event>
 4    1  0.1119790E+000  0.2283432E+03  0.7546771E-02  0.1127811E+00
         21   -1    0    0  503  502  0.00000000000E+00  0.00000000000E+00  0.35455076495E+03  0.35455076495E+03  0.00000000000E+00 0.  1.
         21   -1    0    0  501  503 -0.00000000000E+00 -0.00000000000E+00 -0.21974635229E+03  0.21974635229E+03  0.00000000000E+00 0. -1.
          6    1    1    2  501    0  0.13967611786E+03 -0.55201592503E+02 -0.97744107787E+02  0.24838386486E+03  0.17200000000E+03 0. -1.
         -6    1    1    2    0  502 -0.13967611786E+03  0.55201592503E+02  0.23254852045E+03  0.32591325238E+03  0.17200000000E+03 0.  1.
<mgrwt>
<rscale>  2 0.22834324E+03</rscale>
<asrwt>0</asrwt>
<pdfrwt beam="1">  1       21 0.88637691E-01 0.22834324E+03</pdfrwt>
<pdfrwt beam="2">  1       21 0.54936589E-01 0.22834324E+03</pdfrwt>
<totfact> 0.33077742E+03</totfact>
</mgrwt>
</event>
<event>
 4    1  0.1119790E+000  0.2305918E+03  0.7546771E-02  0.1126224E+00
         21   -1    0    0  503  502  0.00000000000E+00  0.00000000000E+00  0.60068857291E+02  0.60068857291E+02  0.00000000000E+00 0.  1.
         21   -1    0    0  501  503 -0.00000000000E+00 -0.00000000000E+00 -0.12491334428E+04  0.12491334428E+04  0.00000000000E+00 0. -1.
          6    1    1    2  501    0 -0.76374324095E+02  0.13324996600E+03 -0.94786750604E+03  0.97551289065E+03  0.17200000000E+03 0.  1.
         -6    1    1    2    0  502  0.76374324095E+02 -0.13324996600E+03 -0.24119707942E+03  0.33368940939E+03  0.17200000000E+03 0. -1.
<mgrwt>
<rscale>  2 0.23059183E+03</rscale>
<asrwt>0</asrwt>
<pdfrwt beam="1">  1       21 0.15017214E-01 0.23059183E+03</pdfrwt>
<pdfrwt beam="2">  1       21 0.31228337E+00 0.23059183E+03</pdfrwt>
<totfact> 0.10820581E+03</totfact>
</mgrwt>
</event>
<event>
 4    1  0.1119790E+000  0.1798225E+03  0.7546771E-02  0.1167975E+00
         21   -1    0    0  503  502  0.00000000000E+00  0.00000000000E+00  0.76575672424E+02  0.76575672424E+02  0.00000000000E+00 0.  1.
         21   -1    0    0  501  503 -0.00000000000E+00 -0.00000000000E+00 -0.47841440205E+03  0.47841440205E+03  0.00000000000E+00 0.  1.
          6    1    1    2  501    0 -0.14947106844E+02 -0.50286406797E+02 -0.29597537513E+03  0.34632002742E+03  0.17200000000E+03 0. -1.
         -6    1    1    2    0  502  0.14947106844E+02  0.50286406797E+02 -0.10586335450E+03  0.20867004705E+03  0.17200000000E+03 0. -1.
<mgrwt>
<rscale>  2 0.17982252E+03</rscale>
<asrwt>0</asrwt>
<pdfrwt beam="1">  1       21 0.19143919E-01 0.17982252E+03</pdfrwt>
<pdfrwt beam="2">  1       21 0.11960360E+00 0.17982252E+03</pdfrwt>
<totfact> 0.13453461E+04</totfact>
</mgrwt>
</event>
<event>
 4    1  0.1119790E+000  0.3063759E+03  0.7546771E-02  0.1082096E+00
         21   -1    0    0  503  502  0.00000000000E+00  0.00000000000E+00  0.14999452401E+03  0.14999452401E+03  0.00000000000E+00 0.  1.
         21   -1    0    0  501  503 -0.00000000000E+00 -0.00000000000E+00 -0.62641631461E+03  0.62641631461E+03  0.00000000000E+00 0. -1.
          6    1    1    2  501    0  0.17512371266E+03  0.18334095480E+03 -0.25041084841E+03  0.39569156353E+03  0.17200000000E+03 0.  1.
         -6    1    1    2    0  502 -0.17512371266E+03 -0.18334095480E+03 -0.22601094218E+03  0.38071927509E+03  0.17200000000E+03 0. -1.
<mgrwt>
<rscale>  2 0.30637595E+03</rscale>
<asrwt>0</asrwt>
<pdfrwt beam="1">  1       21 0.37498631E-01 0.30637595E+03</pdfrwt>
<pdfrwt beam="2">  1       21 0.15660408E+00 0.30637595E+03</pdfrwt>
<totfact> 0.16724905E+03</totfact>
</mgrwt>
</event>
<event>
 4    1  0.1119790E+000  0.2418240E+03  0.7546771E-02  0.1118584E+00
         21   -1    0    0  501  502  0.00000000000E+00  0.00000000000E+00  0.32929554869E+03  0.32929554869E+03  0.00000000000E+00 0.  1.
         21   -1    0    0  502  503 -0.00000000000E+00 -0.00000000000E+00 -0.17920468372E+03  0.17920468372E+03  0.00000000000E+00 0. -1.
          6    1    1    2  501    0  0.10617115745E+03  0.13274980210E+03  0.99196993750E+02  0.26137878300E+03  0.17200000000E+03 0.  1.
         -6    1    1    2    0  503 -0.10617115745E+03 -0.13274980210E+03  0.50893871218E+02  0.24712144941E+03  0.17200000000E+03 0.  1.
<mgrwt>
<rscale>  2 0.24182395E+03</rscale>
<asrwt>0</asrwt>
<pdfrwt beam="1">  1       21 0.82323886E-01 0.24182395E+03</pdfrwt>
<pdfrwt beam="2">  1       21 0.44801171E-01 0.24182395E+03</pdfrwt>
<totfact> 0.59554035E+03</totfact>
</mgrwt>
</event>
<event>
 4    1  0.1119790E+000  0.2463619E+03  0.7546771E-02  0.1115626E+00
         21   -1    0    0  503  502  0.00000000000E+00  0.00000000000E+00  0.44717952719E+03  0.44717952719E+03  0.00000000000E+00 0. -1.
         21   -1    0    0  501  503 -0.00000000000E+00 -0.00000000000E+00 -0.29642193754E+03  0.29642193754E+03  0.00000000000E+00 0.  1.
          6    1    1    2  501    0  0.14958049945E+03  0.93465856505E+02 -0.19837276434E+03  0.31630040433E+03  0.17200000000E+03 0.  1.
         -6    1    1    2    0  502 -0.14958049945E+03 -0.93465856505E+02  0.34913035398E+03  0.42730106040E+03  0.17200000000E+03 0. -1.
<mgrwt>
<rscale>  2 0.24636191E+03</rscale>
<asrwt>0</asrwt>
<pdfrwt beam="1">  1       21 0.11179488E+00 0.24636191E+03</pdfrwt>
<pdfrwt beam="2">  1       21 0.74105485E-01 0.24636191E+03</pdfrwt>
<totfact> 0.97642412E+02</totfact>
</mgrwt>
</event>
<event>
 4    1  0.1119790E+000  0.2652453E+03  0.7546771E-02  0.1104032E+00
         21   -1    0    0  503  502  0.00000000000E+00  0.00000000000E+00  0.25399228686E+03  0.25399228686E+03  0.00000000000E+00 0. -1.
         21   -1    0    0  501  503 -0.00000000000E+00 -0.00000000000E+00 -0.30389272118E+03  0.30389272118E+03  0.00000000000E+00 0.  1.
          6    1    1    2  501    0 -0.58689898927E+02  0.19320087554E+03 -0.10793467196E+03  0.28636510953E+03  0.17200000000E+03 0.  1.
         -6    1    1    2    0  502  0.58689898927E+02 -0.19320087554E+03  0.58034237635E+02  0.27151989851E+03  0.17200000000E+03 0. -1.
<mgrwt>
<rscale>  2 0.26524533E+03</rscale>
<asrwt>0</asrwt>
<pdfrwt beam="1">  1       21 0.63498072E-01 0.26524533E+03</pdfrwt>
<pdfrwt beam="2">  1       21 0.75973180E-01 0.26524533E+03</pdfrwt>
<totfact> 0.33607278E+03</totfact>
</mgrwt>
</event>
<event>
 4    1  0.1119790E+000  0.2109316E+03  0.7546771E-02  0.1140830E+00
         21   -1    0    0  501  502  0.00000000000E+00  0.00000000000E+00  0.57760497114E+02  0.57760497114E+02  0.00000000000E+00 0. -1.
         21   -1    0    0  502  503 -0.00000000000E+00 -0.00000000000E+00 -0.11418679271E+04  0.11418679271E+04  0.00000000000E+00 0.  1.
          6    1    1    2  501    0 -0.12185041421E+03 -0.77867405817E+01 -0.19988873787E+03  0.29059880299E+03  0.17200000000E+03 0. -1.
         -6    1    1    2    0  503  0.12185041421E+03  0.77867405817E+01 -0.88421869208E+03  0.90902962119E+03  0.17200000000E+03 0.  1.
<mgrwt>
<rscale>  2 0.21093164E+03</rscale>
<asrwt>0</asrwt>
<pdfrwt beam="1">  1       21 0.14440125E-01 0.21093164E+03</pdfrwt>
<pdfrwt beam="2">  1       21 0.28546697E+00 0.21093164E+03</pdfrwt>
<totfact> 0.17019035E+03</totfact>
</mgrwt>
</event>
<event>
 4    1  0.1119790E+000  0.2050182E+03  0.7546771E-02  0.1145573E+00
         21   -1    0    0  501  502  0.00000000000E+00  0.00000000000E+00  0.21959473053E+03  0.21959473053E+03  0.00000000000E+00 0.  1.
         21   -1    0    0  502  503 -0.00000000000E+00 -0.00000000000E+00 -0.31458940031E+03  0.31458940031E+03  0.00000000000E+00 0.  1.
          6    1    1    2  501    0  0.80062427585E+02  0.77707604501E+02  0.11963454459E+03  0.23737078246E+03  0.17200000000E+03 0.  1.
         -6    1    1    2    0  503 -0.80062427585E+02 -0.77707604501E+02 -0.21462921438E+03  0.29681334837E+03  0.17200000000E+03 0.  1.
<mgrwt>
<rscale>  2 0.20501820E+03</rscale>
<asrwt>0</asrwt>
<pdfrwt beam="1">  1       21 0.54898683E-01 0.20501820E+03</pdfrwt>
<pdfrwt beam="2">  1       21 0.78647350E-01 0.20501820E+03</pdfrwt>
<totfact> 0.44320514E+03</totfact>
</mgrwt>
</event>
<event>
 4    1  0.1119790E+000  0.1946350E+03  0.7546771E-02  0.1154346E+00
         21   -1    0    0  503  502  0.00000000000E+00  0.00000000000E+00  0.10391766746E+03  0.10391766746E+03  0.00000000000E+00 0. -1.
         21   -1    0    0  501  503 -0.00000000000E+00 -0.00000000000E+00 -0.56944385167E+03  0.56944385167E+03  0.00000000000E+00 0.  1.
          6    1    1    2  501    0 -0.63983323093E+02 -0.64845296444E+02 -0.43472127941E+03  0.47630386192E+03  0.17200000000E+03 0.  1.
         -6    1    1    2    0  502  0.63983323093E+02  0.64845296444E+02 -0.30804904806E+02  0.19705765721E+03  0.17200000000E+03 0. -1.
<mgrwt>
<rscale>  2 0.19463499E+03</rscale>
<asrwt>0</asrwt>
<pdfrwt beam="1">  1       21 0.25979417E-01 0.19463499E+03</pdfrwt>
<pdfrwt beam="2">  1       21 0.14236096E+00 0.19463499E+03</pdfrwt>
<totfact> 0.48144844E+03</totfact>
</mgrwt>
</event>
<event>
 4    1  0.1119790E+000  0.2099529E+03  0.7546771E-02  0.1141603E+00
         21   -1    0    0  501  502  0.00000000000E+00  0.00000000000E+00  0.61154722573E+03  0.61154722573E+03  0.00000000000E+00 0. -1.
         21   -1    0    0  502  503 -0.00000000000E+00 -0.00000000000E+00 -0.78746863153E+02  0.78746863153E+02  0.00000000000E+00 0. -1.
          6    1    1    2  501    0 -0.14553681968E+01 -0.12039148594E+03  0.36682785738E+03  0.42266169087E+03  0.17200000000E+03 0. -1.
         -6    1    1    2    0  503  0.14553681968E+01  0.12039148594E+03  0.16597250520E+03  0.26763239801E+03  0.17200000000E+03 0. -1.
<mgrwt>
<rscale>  2 0.20995292E+03</rscale>
<asrwt>0</asrwt>
<pdfrwt beam="1">  1       21 0.15288679E+00 0.20995292E+03</pdfrwt>
<pdfrwt beam="2">  1       21 0.19686718E-01 0.20995292E+03</pdfrwt>
<totfact> 0.66647338E+03</totfact>
</mgrwt>
</event>
<event>
 4    1  0.1119790E+000  0.1840859E+03  0.7546771E-02  0.1163906E+00
         21   -1    0    0  503  502  0.00000000000E+00  0.00000000000E+00  0.19242899408E+03  0.19242899408E+03  0.00000000000E+00 0.  1.
         21   -1    0    0  501  503 -0.00000000000E+00 -0.00000000000E+00 -0.18865713792E+03  0.18865713792E+03  0.00000000000E+00 0. -1.
          6    1    1    2  501    0  0.62098707916E+02  0.21151300655E+02  0.51035830253E+02  0.19102953440E+03  0.17200000000E+03 0.  1.
         -6    1    1    2    0  502 -0.62098707916E+02 -0.21151300655E+02 -0.47263974086E+02  0.19005659760E+03  0.17200000000E+03 0. -1.
<mgrwt>
<rscale>  2 0.18408592E+03</rscale>
<asrwt>0</asrwt>
<pdfrwt beam="1">  1       21 0.48107249E-01 0.18408592E+03</pdfrwt>
<pdfrwt beam="2">  1       21 0.47164284E-01 0.18408592E+03</pdfrwt>
<totfact> 0.17852547E+04</totfact>
</mgrwt>
</event>
<event>
 4    1  0.1119790E+000  0.2846835E+03  0.7546771E-02  0.1093158E+00
         21   -1    0    0  503  502  0.00000000000E+00  0.00000000000E+00  0.36408104217E+03  0.36408104217E+03  0.00000000000E+00 0. -1.
         21   -1    0    0  501  503 -0.00000000000E+00 -0.00000000000E+00 -0.22308545437E+03  0.22308545437E+03  0.00000000000E+00 0.  1.
          6    1    1    2  501    0  0.46382146866E+02 -0.22205714163E+03  0.84183827752E+02  0.29686965919E+03  0.17200000000E+03 0. -1.
         -6    1    1    2    0  502 -0.46382146866E+02  0.22205714163E+03  0.56811760045E+02  0.29029683735E+03  0.17200000000E+03 0.  1.
<mgrwt>
<rscale>  2 0.28468347E+03</rscale>
<asrwt>0</asrwt>
<pdfrwt beam="1">  1       21 0.91020260E-01 0.28468347E+03</pdfrwt>
<pdfrwt beam="2">  1       21 0.55771364E-01 0.28468347E+03</pdfrwt>
<totfact> 0.29021331E+03</totfact>
</mgrwt>
</event>
<event>
 4    1  0.1119790E+000  0.1720941E+03  0.7546771E-02  0.1175681E+00
         21   -1    0    0  501  502  0.00000000000E+00  0.00000000000E+00  0.21103883815E+03  0.21103883815E+03  0.00000000000E+00 0. -1.
         21   -1    0    0  502  503 -0.00000000000E+00 -0.00000000000E+00 -0.26775103712E+03  0.26775103712E+03  0.00000000000E+00 0. -1.
          6    1    1    2  501    0 -0.52297460299E+01 -0.22454520710E+01  0.13678659005E+03  0.21983394532E+03  0.17200000000E+03 0. -1.
         -6    1    1    2    0  503  0.52297460299E+01  0.22454520710E+01 -0.19349878902E+03  0.25895592994E+03  0.17200000000E+03 0. -1.
<mgrwt>
<rscale>  2 0.17209414E+03</rscale>
<asrwt>0</asrwt>
<pdfrwt beam="1">  1       21 0.52759710E-01 0.17209414E+03</pdfrwt>
<pdfrwt beam="2">  1       21 0.66937759E-01 0.17209414E+03</pdfrwt>
<totfact> 0.70698339E+03</totfact>
</mgrwt>
</event>
<event>
 4    1  0.1119790E+000  0.1802420E+03  0.7546771E-02  0.1167569E+00
         21   -1    0    0  501  502  0.00000000000E+00  0.00000000000E+00  0.14433899281E+03  0.14433899281E+03  0.00000000000E+00 0. -1.
         21   -1    0    0  502  503 -0.00000000000E+00 -0.00000000000E+00 -0.22586157197E+03  0.22586157197E+03  0.00000000000E+00 0. -1.
          6    1    1    2  501    0 -0.35058501020E+02  0.40915358448E+02 -0.51681434522E+02  0.18750502853E+03  0.17200000000E+03 0. -1.
         -6    1    1    2    0  503  0.35058501020E+02 -0.40915358448E+02 -0.29841144636E+02  0.18269553625E+03  0.17200000000E+03 0. -1.
<mgrwt>
<rscale>  2 0.18024196E+03</rscale>
<asrwt>0</asrwt>
<pdfrwt beam="1">  1       21 0.36084748E-01 0.18024196E+03</pdfrwt>
<pdfrwt beam="2">  1       21 0.56465393E-01 0.18024196E+03</pdfrwt>
<totfact> 0.22006819E+04</totfact>
</mgrwt>
</event>
<event>
 4    1  0.1119790E+000  0.1726342E+03  0.7546771E-02  0.1175128E+00
         21   -1    0    0  503  502  0.00000000000E+00  0.00000000000E+00  0.15090015353E+03  0.15090015353E+03  0.00000000000E+00 0.  1.
         21   -1    0    0  501  503 -0.00000000000E+00 -0.00000000000E+00 -0.19899470211E+03  0.19899470211E+03  0.00000000000E+00 0.  1.
          6    1    1    2  501    0 -0.38722785805E+01  0.14267495672E+02 -0.39217079728E+02  0.17703258264E+03  0.17200000000E+03 0. -1.
         -6    1    1    2    0  502  0.38722785805E+01 -0.14267495672E+02 -0.88774688483E+01  0.17286227300E+03  0.17200000000E+03 0. -1.
<mgrwt>
<rscale>  2 0.17263417E+03</rscale>
<asrwt>0</asrwt>
<pdfrwt beam="1">  1       21 0.37725039E-01 0.17263417E+03</pdfrwt>
<pdfrwt beam="2">  1       21 0.49748675E-01 0.17263417E+03</pdfrwt>
<totfact> 0.26392262E+04</totfact>
</mgrwt>
</event>
<event>
 4    1  0.1119790E+000  0.2006042E+03  0.7546771E-02  0.1149230E+00
         21   -1    0    0  503  502  0.00000000000E+00  0.00000000000E+00  0.21125054945E+03  0.21125054945E+03  0.00000000000E+00 0. -1.
         21   -1    0    0  501  503 -0.00000000000E+00 -0.00000000000E+00 -0.81091505185E+03  0.81091505185E+03  0.00000000000E+00 0. -1.
          6    1    1    2  501    0  0.75684189291E+02  0.70213605403E+02 -0.74687258387E+03  0.77334384553E+03  0.17200000000E+03 0. -1.
         -6    1    1    2    0  502 -0.75684189291E+02 -0.70213605403E+02  0.14720808146E+03  0.24882175576E+03  0.17200000000E+03 0. -1.
<mgrwt>
<rscale>  2 0.20060420E+03</rscale>
<asrwt>0</asrwt>
<pdfrwt beam="1">  1       21 0.52812638E-01 0.20060420E+03</pdfrwt>
<pdfrwt beam="2">  1       21 0.20272876E+00 0.20060420E+03</pdfrwt>
<totfact> 0.43401168E+02</totfact>
</mgrwt>
</event>
<event>
 4    1  0.1119790E+000  0.2134812E+03  0.7546771E-02  0.1138839E+00
         21   -1    0    0  501  502  0.00000000000E+00  0.00000000000E+00  0.37653243871E+03  0.37653243871E+03  0.00000000000E+00 0.  1.
         21   -1    0    0  502  503 -0.00000000000E+00 -0.00000000000E+00 -0.14691271900E+03  0.14691271900E+03  0.00000000000E+00 0.  1.
          6    1    1    2  501    0  0.44861177249E+02 -0.11822735316E+03  0.22464984895E+03  0.30990609367E+03  0.17200000000E+03 0.  1.
         -6    1    1    2    0  503 -0.44861177249E+02  0.11822735316E+03  0.49698707666E+01  0.21353906405E+03  0.17200000000E+03 0.  1.
<mgrwt>
<rscale>  2 0.21348122E+03</rscale>
<asrwt>0</asrwt>
<pdfrwt beam="1">  1       21 0.94133108E-01 0.21348122E+03</pdfrwt>
<pdfrwt beam="2">  1       21 0.36728181E-01 0.21348122E+03</pdfrwt>
<totfact> 0.66633827E+03</totfact>
</mgrwt>
</event>
<event>
 4    1  0.1119790E+000  0.2042152E+03  0.7546771E-02  0.1146231E+00
         21   -1    0    0  501  502  0.00000000000E+00  0.00000000000E+00  0.27387714871E+03  0.27387714871E+03  0.00000000000E+00 0.  1.
         21   -1    0    0  502  503 -0.00000000000E+00 -0.00000000000E+00 -0.16882532780E+03  0.16882532780E+03  0.00000000000E+00 0.  1.
          6    1    1    2  501    0 -0.10476339766E+03 -0.33830049007E+02  0.12183733580E+03  0.23779860828E+03  0.17200000000E+03 0.  1.
         -6    1    1    2    0  503  0.10476339766E+03  0.33830049007E+02 -0.16785514886E+02  0.20490386823E+03  0.17200000000E+03 0.  1.
<mgrwt>
<rscale>  2 0.20421518E+03</rscale>
<asrwt>0</asrwt>
<pdfrwt beam="1">  1       21 0.68469287E-01 0.20421518E+03</pdfrwt>
<pdfrwt beam="2">  1       21 0.42206332E-01 0.20421518E+03</pdfrwt>
<totfact> 0.10425887E+04</totfact>
</mgrwt>
</event>
<event>
 4    1  0.1119790E+000  0.1813754E+03  0.7546771E-02  0.1166479E+00
         21   -1    0    0  503  502  0.00000000000E+00  0.00000000000E+00  0.89780535343E+02  0.89780535343E+02  0.00000000000E+00 0.  1.
         21   -1    0    0  501  503 -0.00000000000E+00 -0.00000000000E+00 -0.45370171754E+03  0.45370171754E+03  0.00000000000E+00 0.  1.
          6    1    1    2  501    0 -0.16793059450E+01  0.57534416208E+02 -0.30115108757E+03  0.35155228155E+03  0.17200000000E+03 0.  1.
         -6    1    1    2    0  502  0.16793059450E+01 -0.57534416208E+02 -0.62770094627E+02  0.19192997133E+03  0.17200000000E+03 0.  1.
<mgrwt>
<rscale>  2 0.18137538E+03</rscale>
<asrwt>0</asrwt>
<pdfrwt beam="1">  1       21 0.22445134E-01 0.18137538E+03</pdfrwt>
<pdfrwt beam="2">  1       21 0.11342543E+00 0.18137538E+03</pdfrwt>
<totfact> 0.11358877E+04</totfact>
</mgrwt>
</event>
<event>
 4    1  0.1119790E+000  0.1975302E+03  0.7546771E-02  0.1151840E+00
         21   -1    0    0  501  502  0.00000000000E+00  0.00000000000E+00  0.35244736350E+03  0.35244736350E+03  0.00000000000E+00 0. -1.
         21   -1    0    0  502  503 -0.00000000000E+00 -0.00000000000E+00 -0.12392349833E+03  0.12392349833E+03  0.00000000000E+00 0. -1.
          6    1    1    2  501    0  0.88705572818E+00  0.97125639845E+02  0.19204884181E+03  0.27550124215E+03  0.17200000000E+03 0. -1.
         -6    1    1    2    0  503 -0.88705572818E+00 -0.97125639845E+02  0.36475023356E+02  0.20086961968E+03  0.17200000000E+03 0. -1.
<mgrwt>
<rscale>  2 0.19753019E+03</rscale>
<asrwt>0</asrwt>
<pdfrwt beam="1">  1       21 0.88111839E-01 0.19753019E+03</pdfrwt>
<pdfrwt beam="2">  1       21 0.30980875E-01 0.19753019E+03</pdfrwt>
<totfact> 0.11004303E+04</totfact>
</mgrwt>
</event>
<event>
 4    1  0.1119790E+000  0.1977275E+03  0.7546771E-02  0.1151671E+00
         21   -1    0    0  501  502  0.00000000000E+00  0.00000000000E+00  0.95553214954E+03  0.95553214954E+03  0.00000000000E+00 0.  1.
         21   -1    0    0  502  503 -0.00000000000E+00 -0.00000000000E+00 -0.44966254138E+02  0.44966254138E+02  0.00000000000E+00 0.  1.
          6    1    1    2  501    0  0.92902395947E+02 -0.29687049301E+02  0.60542604073E+03  0.63689627638E+03  0.17200000000E+03 0.  1.
         -6    1    1    2    0  503 -0.92902395947E+02  0.29687049301E+02  0.30513985468E+03  0.36360212731E+03  0.17200000000E+03 0.  1.
<mgrwt>
<rscale>  2 0.19772753E+03</rscale>
<asrwt>0</asrwt>
<pdfrwt beam="1">  1       21 0.23888297E+00 0.19772753E+03</pdfrwt>
<pdfrwt beam="2">  1       21 0.11241567E-01 0.19772753E+03</pdfrwt>
<totfact> 0.50749610E+03</totfact>
</mgrwt>
</event>
<event>
 4    1  0.1119790E+000  0.1898356E+03  0.7546771E-02  0.1158610E+00
         21   -1    0    0  501  502  0.00000000000E+00  0.00000000000E+00  0.15616839588E+03  0.15616839588E+03  0.00000000000E+00 0.  1.
         21   -1    0    0  502  503 -0.00000000000E+00 -0.00000000000E+00 -0.26998668284E+03  0.26998668284E+03  0.00000000000E+00 0.  1.
          6    1    1    2  501    0  0.87239254648E+01  0.79859032236E+02  0.24308778674E+02  0.19138570643E+03  0.17200000000E+03 0.  1.
         -6    1    1    2    0  503 -0.87239254648E+01 -0.79859032236E+02 -0.13812706563E+03  0.23476937229E+03  0.17200000000E+03 0.  1.
<mgrwt>
<rscale>  2 0.18983564E+03</rscale>
<asrwt>0</asrwt>
<pdfrwt beam="1">  1       21 0.39042099E-01 0.18983564E+03</pdfrwt>
<pdfrwt beam="2">  1       21 0.67496670E-01 0.18983564E+03</pdfrwt>
<totfact> 0.12720509E+04</totfact>
</mgrwt>
</event>
<event>
 4    1  0.1119790E+000  0.1992669E+03  0.7546771E-02  0.1150359E+00
         21   -1    0    0  501  502  0.00000000000E+00  0.00000000000E+00  0.64497745127E+02  0.64497745127E+02  0.00000000000E+00 0. -1.
         21   -1    0    0  502  503 -0.00000000000E+00 -0.00000000000E+00 -0.74588212489E+03  0.74588212489E+03  0.00000000000E+00 0.  1.
          6    1    1    2  501    0 -0.46488814565E+02  0.89230602248E+02 -0.17137486672E+03  0.26282438091E+03  0.17200000000E+03 0. -1.
         -6    1    1    2    0  503  0.46488814565E+02 -0.89230602248E+02 -0.51000951305E+03  0.54755548911E+03  0.17200000000E+03 0.  1.
<mgrwt>
<rscale>  2 0.19926693E+03</rscale>
<asrwt>0</asrwt>
<pdfrwt beam="1">  1       21 0.16124437E-01 0.19926693E+03</pdfrwt>
<pdfrwt beam="2">  1       21 0.18647053E+00 0.19926693E+03</pdfrwt>
<totfact> 0.56253156E+03</totfact>
</mgrwt>
</event>
<event>
 4    1  0.1119790E+000  0.2965840E+03  0.7546771E-02  0.1086961E+00
         21   -1    0    0  501  502  0.00000000000E+00  0.00000000000E+00  0.30463300276E+03  0.30463300276E+03  0.00000000000E+00 0.  1.
         21   -1    0    0  502  503 -0.00000000000E+00 -0.00000000000E+00 -0.37131985467E+03  0.37131985467E+03  0.00000000000E+00 0.  1.
          6    1    1    2  501    0 -0.17388756524E+03  0.16775340956E+03  0.12603481317E+03  0.32225279812E+03  0.17200000000E+03 0.  1.
         -6    1    1    2    0  503  0.17388756524E+03 -0.16775340956E+03 -0.19272166508E+03  0.35370005931E+03  0.17200000000E+03 0.  1.
<mgrwt>
<rscale>  2 0.29658404E+03</rscale>
<asrwt>0</asrwt>
<pdfrwt beam="1">  1       21 0.76158251E-01 0.29658404E+03</pdfrwt>
<pdfrwt beam="2">  1       21 0.92829964E-01 0.29658404E+03</pdfrwt>
<totfact> 0.13856841E+03</totfact>
</mgrwt>
</event>
<event>
 4    1  0.1119790E+000  0.2215669E+03  0.7546771E-02  0.1132720E+00
         21   -1    0    0  501  502  0.00000000000E+00  0.00000000000E+00  0.73134039215E+02  0.73134039215E+02  0.00000000000E+00 0. -1.
         21   -1    0    0  502  503 -0.00000000000E+00 -0.00000000000E+00 -0.87636587357E+03  0.87636587357E+03  0.00000000000E+00 0.  1.
          6    1    1    2  501    0 -0.11807882083E+03  0.74600828892E+02 -0.63129009671E+03  0.66904340502E+03  0.17200000000E+03 0.  1.
         -6    1    1    2    0  503  0.11807882083E+03 -0.74600828892E+02 -0.17194173764E+03  0.28045650776E+03  0.17200000000E+03 0. -1.
<mgrwt>
<rscale>  2 0.22156690E+03</rscale>
<asrwt>0</asrwt>
<pdfrwt beam="1">  1       21 0.18283510E-01 0.22156690E+03</pdfrwt>
<pdfrwt beam="2">  1       21 0.21909147E+00 0.22156690E+03</pdfrwt>
<totfact> 0.27009078E+03</totfact>
</mgrwt>
</event>
<event>
 4    1  0.1119790E+000  0.2321693E+03  0.7546771E-02  0.1125122E+00
         21   -1    0    0  503  502  0.00000000000E+00  0.00000000000E+00  0.72292825046E+03  0.72292825046E+03  0.00000000000E+00 0. -1.
         21   -1    0    0  501  503 -0.00000000000E+00 -0.00000000000E+00 -0.13590706444E+03  0.13590706444E+03  0.00000000000E+00 0.  1.
          6    1    1    2  501    0 -0.12630198944E+03  0.91467923163E+02  0.50073709377E+01  0.23222327030E+03  0.17200000000E+03 0.  1.
         -6    1    1    2    0  502  0.12630198944E+03 -0.91467923163E+02  0.58201381508E+03  0.62661204461E+03  0.17200000000E+03 0. -1.
<mgrwt>
<rscale>  2 0.23216928E+03</rscale>
<asrwt>0</asrwt>
<pdfrwt beam="1">  1       21 0.18073205E+00 0.23216928E+03</pdfrwt>
<pdfrwt beam="2">  1       21 0.33976768E-01 0.23216928E+03</pdfrwt>
<totfact> 0.14446187E+03</totfact>
</mgrwt>
</event>
<event>
 4    1  0.1119790E+000  0.2191669E+03  0.7546771E-02  0.1134506E+00
         21   -1    0    0  501  502  0.00000000000E+00  0.00000000000E+00  0.10725000963E+03  0.10725000963E+03  0.00000000000E+00 0.  1.
         21   -1    0    0  502  503 -0.00000000000E+00 -0.00000000000E+00 -0.45032404871E+03  0.45032404871E+03  0.00000000000E+00 0.  1.
          6    1    1    2  501    0  0.86047559426E+02 -0.10509964518E+03 -0.15095891809E+03  0.26612537055E+03  0.17200000000E+03 0.  1.
         -6    1    1    2    0  503 -0.86047559426E+02  0.10509964518E+03 -0.19211512099E+03  0.29144868779E+03  0.17200000000E+03 0.  1.
<mgrwt>
<rscale>  2 0.21916687E+03</rscale>
<asrwt>0</asrwt>
<pdfrwt beam="1">  1       21 0.26812503E-01 0.21916687E+03</pdfrwt>
<pdfrwt beam="2">  1       21 0.11258101E+00 0.21916687E+03</pdfrwt>
<totfact> 0.80234380E+03</totfact>
</mgrwt>
</event>
<event>
 4    1  0.1119790E+000  0.1992438E+03  0.7546771E-02  0.1150379E+00
         21   -1    0    0  503  502  0.00000000000E+00  0.00000000000E+00  0.11479926186E+04  0.11479926186E+04  0.00000000000E+00 0.  1.
         21   -1    0    0  501  503 -0.00000000000E+00 -0.00000000000E+00 -0.55110148966E+02  0.55110148966E+02  0.00000000000E+00 0. -1.
          6    1    1    2  501    0  0.10047052170E+03 -0.44462852201E+01  0.17928721702E+03  0.26803358254E+03  0.17200000000E+03 0. -1.
         -6    1    1    2    0  502 -0.10047052170E+03  0.44462852201E+01  0.91359525262E+03  0.93506918503E+03  0.17200000000E+03 0.  1.
<mgrwt>
<rscale>  2 0.19924381E+03</rscale>
<asrwt>0</asrwt>
<pdfrwt beam="1">  1       21 0.28699808E+00 0.19924381E+03</pdfrwt>
<pdfrwt beam="2">  1       21 0.13777541E-01 0.19924381E+03</pdfrwt>
<totfact> 0.18413076E+03</totfact>
</mgrwt>
</event>
<event>
 4    1  0.1119790E+000  0.2769676E+03  0.7546771E-02  0.1097357E+00
         21   -1    0    0  503  502  0.00000000000E+00  0.00000000000E+00  0.57337999127E+03  0.57337999127E+03  0.00000000000E+00 0. -1.
         21   -1    0    0  501  503 -0.00000000000E+00 -0.00000000000E+00 -0.18472147657E+03  0.18472147657E+03  0.00000000000E+00 0.  1.
          6    1    1    2  501    0 -0.15930962635E+03 -0.14747035480E+03 -0.47117379959E+01  0.27700769496E+03  0.17200000000E+03 0.  1.
         -6    1    1    2    0  502  0.15930962635E+03  0.14747035480E+03  0.39337025270E+03  0.48109377288E+03  0.17200000000E+03 0. -1.
<mgrwt>
<rscale>  2 0.27696762E+03</rscale>
<asrwt>0</asrwt>
<pdfrwt beam="1">  1       21 0.14334499E+00 0.27696762E+03</pdfrwt>
<pdfrwt beam="2">  1       21 0.46180370E-01 0.27696762E+03</pdfrwt>
<totfact> 0.14090086E+03</totfact>
</mgrwt>
</event>
<event>
 4    1  0.1119790E+000  0.2003566E+03  0.7546771E-02  0.1149439E+00
         21   -1    0    0  501  502  0.00000000000E+00  0.00000000000E+00  0.36263242001E+03  0.36263242001E+03  0.00000000000E+00 0.  1.
         21   -1    0    0  502  503 -0.00000000000E+00 -0.00000000000E+00 -0.12882197070E+03  0.12882197070E+03  0.00000000000E+00 0.  1.
          6    1    1    2  501    0  0.10219807166E+03  0.10691873045E+02  0.20907368672E+03  0.28957653302E+03  0.17200000000E+03 0.  1.
         -6    1    1    2    0  503 -0.10219807166E+03 -0.10691873045E+02  0.24736762591E+02  0.20187785768E+03  0.17200000000E+03 0.  1.
<mgrwt>
<rscale>  2 0.20035659E+03</rscale>
<asrwt>0</asrwt>
<pdfrwt beam="1">  1       21 0.90658103E-01 0.20035659E+03</pdfrwt>
<pdfrwt beam="2">  1       21 0.32205493E-01 0.20035659E+03</pdfrwt>
<totfact> 0.95289908E+03</totfact>
</mgrwt>
</event>
<event>
 4    1  0.1119790E+000  0.2575293E+03  0.7546771E-02  0.1108637E+00
         21   -1    0    0  503  502  0.00000000000E+00  0.00000000000E+00  0.55319830001E+03  0.55319830001E+03  0.00000000000E+00 0. -1.
         21   -1    0    0  501  503 -0.00000000000E+00 -0.00000000000E+00 -0.14283103170E+03  0.14283103170E+03  0.00000000000E+00 0. -1.
          6    1    1    2  501    0  0.63181304050E+02  0.18095702928E+03  0.34466637051E+03  0.43025135745E+03  0.17200000000E+03 0. -1.
         -6    1    1    2    0  502 -0.63181304050E+02 -0.18095702928E+03  0.65700897798E+02  0.26577797425E+03  0.17200000000E+03 0. -1.
<mgrwt>
<rscale>  2 0.25752927E+03</rscale>
<asrwt>0</asrwt>
<pdfrwt beam="1">  1       21 0.13829957E+00 0.25752927E+03</pdfrwt>
<pdfrwt beam="2">  1       21 0.35707759E-01 0.25752927E+03</pdfrwt>
<totfact> 0.26516615E+03</totfact>
</mgrwt>
</event>
<event>
 4    1  0.1119790E+000  0.2610927E+03  0.7546771E-02  0.1106488E+00
         21   -1    0    0  503  502  0.00000000000E+00  0.00000000000E+00  0.16848873615E+03  0.16848873615E+03  0.00000000000E+00 0.  1.
         21   -1    0    0  501  503 -0.00000000000E+00 -0.00000000000E+00 -0.73566341406E+03  0.73566341406E+03  0.00000000000E+00 0. -1.
          6    1    1    2  501    0  0.19643163095E+03 -0.58628784563E-01 -0.58685913971E+03  0.64231848715E+03  0.17200000000E+03 0. -1.
         -6    1    1    2    0  502 -0.19643163095E+03  0.58628784563E-01  0.19684461799E+02  0.26183366306E+03  0.17200000000E+03 0.  1.
<mgrwt>
<rscale>  2 0.26109268E+03</rscale>
<asrwt>0</asrwt>
<pdfrwt beam="1">  1       21 0.42122185E-01 0.26109268E+03</pdfrwt>
<pdfrwt beam="2">  1       21 0.18391585E+00 0.26109268E+03</pdfrwt>
<totfact> 0.86911761E+02</totfact>
</mgrwt>
</event>
<event>
 4    1  0.1119790E+000  0.2754728E+03  0.7546771E-02  0.1098188E+00
         21   -1    0    0  503  502  0.00000000000E+00  0.00000000000E+00  0.15948979971E+03  0.15948979971E+03  0.00000000000E+00 0. -1.
         21   -1    0    0  501  503 -0.00000000000E+00 -0.00000000000E+00 -0.75192498966E+03  0.75192498966E+03  0.00000000000E+00 0.  1.
          6    1    1    2  501    0  0.21514918152E+03  0.34764093087E+01 -0.57237177950E+03  0.63521233434E+03  0.17200000000E+03 0.  1.
         -6    1    1    2    0  502 -0.21514918152E+03 -0.34764093087E+01 -0.20063410455E+02  0.27620245504E+03  0.17200000000E+03 0.  1.
<mgrwt>
<rscale>  2 0.27547279E+03</rscale>
<asrwt>0</asrwt>
<pdfrwt beam="1">  1       21 0.39872450E-01 0.27547279E+03</pdfrwt>
<pdfrwt beam="2">  1       21 0.18798125E+00 0.27547279E+03</pdfrwt>
<totfact> 0.90196985E+02</totfact>
</mgrwt>
</event>
<event>
 4    1  0.1119790E+000  0.1880976E+03  0.7546771E-02  0.1160188E+00
         21   -1    0    0  501  502  0.00000000000E+00  0.00000000000E+00  0.11398450576E+03  0.11398450576E+03  0.00000000000E+00 0. -1.
         21   -1    0    0  502  503 -0.00000000000E+00 -0.00000000000E+00 -0.33454285507E+03  0.33454285507E+03  0.00000000000E+00 0. -1.
          6    1    1    2  501    0 -0.42928172550E+02 -0.62879757755E+02 -0.50032211051E+02  0.19463790503E+03  0.17200000000E+03 0.  1.
         -6    1    1    2    0  503  0.42928172550E+02  0.62879757755E+02 -0.17052613826E+03  0.25388945579E+03  0.17200000000E+03 0.  1.
<mgrwt>
<rscale>  2 0.18809756E+03</rscale>
<asrwt>0</asrwt>
<pdfrwt beam="1">  1       21 0.28496127E-01 0.18809756E+03</pdfrwt>
<pdfrwt beam="2">  1       21 0.83635713E-01 0.18809756E+03</pdfrwt>
<totfact> 0.14685221E+04</totfact>
</mgrwt>
</event>
<event>
 4    1  0.1119790E+000  0.1840272E+03  0.7546771E-02  0.1163961E+00
         21   -1    0    0  503  502  0.00000000000E+00  0.00000000000E+00  0.29048144201E+02  0.29048144201E+02  0.00000000000E+00 0.  1.
         21   -1    0    0  501  503 -0.00000000000E+00 -0.00000000000E+00 -0.12564709234E+04  0.12564709234E+04  0.00000000000E+00 0. -1.
          6    1    1    2  501    0  0.74567891945E+01  0.65010690697E+02 -0.44110024345E+03  0.47794917971E+03  0.17200000000E+03 0.  1.
         -6    1    1    2    0  502 -0.74567891945E+01 -0.65010690697E+02 -0.78632253579E+03  0.80756988794E+03  0.17200000000E+03 0. -1.
<mgrwt>
<rscale>  2 0.18402715E+03</rscale>
<asrwt>0</asrwt>
<pdfrwt beam="1">  1       21 0.72620364E-02 0.18402715E+03</pdfrwt>
<pdfrwt beam="2">  1       21 0.31411771E+00 0.18402715E+03</pdfrwt>
<totfact> 0.40613263E+03</totfact>
</mgrwt>
</event>
<event>
 4    1  0.1119790E+000  0.2184502E+03  0.7546771E-02  0.1135044E+00
         21   -1    0    0  503  502  0.00000000000E+00  0.00000000000E+00  0.34093366523E+03  0.34093366523E+03  0.00000000000E+00 0. -1.
         21   -1    0    0  501  503 -0.00000000000E+00 -0.00000000000E+00 -0.21346571648E+03  0.21346571648E+03  0.00000000000E+00 0. -1.
          6    1    1    2  501    0 -0.32116442903E+02 -0.13078616388E+03 -0.98918125841E+02  0.23980259003E+03  0.17200000000E+03 0. -1.
         -6    1    1    2    0  502  0.32116442903E+02  0.13078616388E+03  0.22638607459E+03  0.31459679168E+03  0.17200000000E+03 0. -1.
<mgrwt>
<rscale>  2 0.21845019E+03</rscale>
<asrwt>0</asrwt>
<pdfrwt beam="1">  1       21 0.85233416E-01 0.21845019E+03</pdfrwt>
<pdfrwt beam="2">  1       21 0.53366430E-01 0.21845019E+03</pdfrwt>
<totfact> 0.38784248E+03</totfact>
</mgrwt>
</event>
<event>
 4    1  0.1119790E+000  0.2163276E+03  0.7546771E-02  0.1136651E+00
         21   -1    0    0  501  502  0.00000000000E+00  0.00000000000E+00  0.57337493239E+03  0.57337493239E+03  0.00000000000E+00 0.  1.
         21   -1    0    0  502  503 -0.00000000000E+00 -0.00000000000E+00 -0.85601198546E+02  0.85601198546E+02  0.00000000000E+00 0.  1.
          6    1    1    2  501    0 -0.33343289483E+02  0.12689306920E+03  0.17281066208E+03  0.27687750160E+03  0.17200000000E+03 0. -1.
         -6    1    1    2    0  503  0.33343289483E+02 -0.12689306920E+03  0.31496307177E+03  0.38209862934E+03  0.17200000000E+03 0. -1.
<mgrwt>
<rscale>  2 0.21632759E+03</rscale>
<asrwt>0</asrwt>
<pdfrwt beam="1">  1       21 0.14334372E+00 0.21632759E+03</pdfrwt>
<pdfrwt beam="2">  1       21 0.21400301E-01 0.21632759E+03</pdfrwt>
<totfact> 0.67199138E+03</totfact>
</mgrwt>
</event>
<event>
 4    1  0.1119790E+000  0.1971670E+03  0.7546771E-02  0.1152151E+00
         21   -1    0    0  503  502  0.00000000000E+00  0.00000000000E+00  0.93621619742E+02  0.93621619742E+02  0.00000000000E+00 0. -1.
         21   -1    0    0  501  503 -0.00000000000E+00 -0.00000000000E+00 -0.48676126512E+03  0.48676126512E+03  0.00000000000E+00 0.  1.
          6    1    1    2  501    0  0.96044311717E+02  0.81428789777E+01 -0.85328931331E+02  0.21483910913E+03  0.17200000000E+03 0. -1.
         -6    1    1    2    0  502 -0.96044311717E+02 -0.81428789777E+01 -0.30781071404E+03  0.36554377573E+03  0.17200000000E+03 0. -1.
<mgrwt>
<rscale>  2 0.19716698E+03</rscale>
<asrwt>0</asrwt>
<pdfrwt beam="1">  1       21 0.23405405E-01 0.19716698E+03</pdfrwt>
<pdfrwt beam="2">  1       21 0.12169031E+00 0.19716698E+03</pdfrwt>
<totfact> 0.87288192E+03</totfact>
</mgrwt>
</event>
<event>
 4    1  0.1119790E+000  0.1904467E+03  0.7546771E-02  0.1158059E+00
         21   -1    0    0  503  502  0.00000000000E+00  0.00000000000E+00  0.24558474168E+03  0.24558474168E+03  0.00000000000E+00 0. -1.
         21   -1    0    0  501  503 -0.00000000000E+00 -0.00000000000E+00 -0.14989164590E+03  0.14989164590E+03  0.00000000000E+00 0. -1.
          6    1    1    2  501    0  0.32863125946E+01 -0.81701603005E+02  0.71821609410E+02  0.20353941968E+03  0.17200000000E+03 0. -1.
         -6    1    1    2    0  502 -0.32863125946E+01  0.81701603005E+02  0.23871486368E+02  0.19193696790E+03  0.17200000000E+03 0. -1.
<mgrwt>
<rscale>  2 0.19044672E+03</rscale>
<asrwt>0</asrwt>
<pdfrwt beam="1">  1       21 0.61396185E-01 0.19044672E+03</pdfrwt>
<pdfrwt beam="2">  1       21 0.37472912E-01 0.19044672E+03</pdfrwt>
<totfact> 0.16960974E+04</totfact>
</mgrwt>
</event>
<event>
 4    1  0.1119790E+000  0.1746823E+03  0.7546771E-02  0.1173051E+00
         21   -1    0    0  503  502  0.00000000000E+00  0.00000000000E+00  0.78230057681E+03  0.78230057681E+03  0.00000000000E+00 0.  1.
         21   -1    0    0  501  503 -0.00000000000E+00 -0.00000000000E+00 -0.39023342020E+02  0.39023342020E+02  0.00000000000E+00 0.  1.
          6    1    1    2  501    0  0.22396451310E+02 -0.20695871556E+02  0.38045259518E+03  0.41863838489E+03  0.17200000000E+03 0.  1.
         -6    1    1    2    0  502 -0.22396451310E+02  0.20695871556E+02  0.36282463961E+03  0.40268553394E+03  0.17200000000E+03 0.  1.
<mgrwt>
<rscale>  2 0.17468234E+03</rscale>
<asrwt>0</asrwt>
<pdfrwt beam="1">  1       21 0.19557509E+00 0.17468234E+03</pdfrwt>
<pdfrwt beam="2">  1       21 0.97558381E-02 0.17468234E+03</pdfrwt>
<totfact> 0.12338688E+04</totfact>
</mgrwt>
</event>
<event>
 4    1  0.1119790E+000  0.1966840E+03  0.7546771E-02  0.1152567E+00
         21   -1    0    0  503  502  0.00000000000E+00  0.00000000000E+00  0.12209060521E+03  0.12209060521E+03  0.00000000000E+00 0.  1.
         21   -1    0    0  501  503 -0.00000000000E+00 -0.00000000000E+00 -0.37285960631E+03  0.37285960631E+03  0.00000000000E+00 0. -1.
          6    1    1    2  501    0 -0.95233007196E+02  0.55907842377E+01 -0.29469932275E+02  0.19887950985E+03  0.17200000000E+03 0.  1.
         -6    1    1    2    0  502  0.95233007196E+02 -0.55907842377E+01 -0.22129906883E+03  0.29607070168E+03  0.17200000000E+03 0. -1.
<mgrwt>
<rscale>  2 0.19668397E+03</rscale>
<asrwt>0</asrwt>
<pdfrwt beam="1">  1       21 0.30522652E-01 0.19668397E+03</pdfrwt>
<pdfrwt beam="2">  1       21 0.93214900E-01 0.19668397E+03</pdfrwt>
<totfact> 0.99486626E+03</totfact>
</mgrwt>
</event>
<event>
 4    1  0.1119790E+000  0.2028126E+03  0.7546771E-02  0.1147387E+00
         21   -1    0    0  503  502  0.00000000000E+00  0.00000000000E+00  0.12256017567E+03  0.12256017567E+03  0.00000000000E+00 0. -1.
         21   -1    0    0  501  503 -0.00000000000E+00 -0.00000000000E+00 -0.33642114677E+03  0.33642114677E+03  0.00000000000E+00 0.  1.
          6    1    1    2  501    0 -0.82485295331E+02 -0.68884881145E+02 -0.95691896048E+02  0.22425407413E+03  0.17200000000E+03 0. -1.
         -6    1    1    2    0  502  0.82485295331E+02  0.68884881145E+02 -0.11816907506E+03  0.23472724830E+03  0.17200000000E+03 0.  1.
<mgrwt>
<rscale>  2 0.20281260E+03</rscale>
<asrwt>0</asrwt>
<pdfrwt beam="1">  1       21 0.30640044E-01 0.20281260E+03</pdfrwt>
<pdfrwt beam="2">  1       21 0.84105286E-01 0.20281260E+03</pdfrwt>
<totfact> 0.12468442E+04</totfact>
</mgrwt>
</event>
<event>
 4    1  0.1119790E+000  0.1853087E+03  0.7546771E-02  0.1162762E+00
         21   -1    0    0  503  502  0.00000000000E+00  0.00000000000E+00  0.16969163550E+03  0.16969163550E+03  0.00000000000E+00 0. -1.
         21   -1    0    0  501  503 -0.00000000000E+00 -0.00000000000E+00 -0.38812247335E+03  0.38812247335E+03  0.00000000000E+00 0. -1.
          6    1    1    2  501    0  0.28999858882E+02  0.62564401403E+02 -0.30216803634E+03  0.35446412840E+03  0.17200000000E+03 0. -1.
         -6    1    1    2    0  502 -0.28999858882E+02 -0.62564401403E+02  0.83737198485E+02  0.20334998045E+03  0.17200000000E+03 0. -1.
<mgrwt>
<rscale>  2 0.18530865E+03</rscale>
<asrwt>0</asrwt>
<pdfrwt beam="1">  1       21 0.42422909E-01 0.18530865E+03</pdfrwt>
<pdfrwt beam="2">  1       21 0.97030617E-01 0.18530865E+03</pdfrwt>
<totfact> 0.47404684E+03</totfact>
</mgrwt>
</event>
<event>
 4    1  0.1119790E+000  0.1755034E+03  0.7546771E-02  0.1172227E+00
         21   -1    0    0  501  502  0.00000000000E+00  0.00000000000E+00  0.53685454826E+02  0.53685454826E+02  0.00000000000E+00 0. -1.
         21   -1    0    0  502  503 -0.00000000000E+00 -0.00000000000E+00 -0.67620401143E+03  0.67620401143E+03  0.00000000000E+00 0. -1.
          6    1    1    2  501    0 -0.32897762084E+02  0.11626990468E+02 -0.16919803502E+03  0.24378151019E+03  0.17200000000E+03 0. -1.
         -6    1    1    2    0  503  0.32897762084E+02 -0.11626990468E+02 -0.45332052159E+03  0.48610795606E+03  0.17200000000E+03 0. -1.
<mgrwt>
<rscale>  2 0.17550342E+03</rscale>
<asrwt>0</asrwt>
<pdfrwt beam="1">  1       21 0.13421364E-01 0.17550342E+03</pdfrwt>
<pdfrwt beam="2">  1       21 0.16905100E+00 0.17550342E+03</pdfrwt>
<totfact> 0.10542709E+04</totfact>
</mgrwt>
</event>
<event>
 4    1  0.1119790E+000  0.1987293E+03  0.7546771E-02  0.1150816E+00
         21   -1    0    0  503  502  0.00000000000E+00  0.00000000000E+00  0.24097148041E+03  0.24097148041E+03  0.00000000000E+00 0. -1.
         21   -1    0    0  501  503 -0.00000000000E+00 -0.00000000000E+00 -0.25245130020E+03  0.25245130020E+03  0.00000000000E+00 0. -1.
          6    1    1    2  501    0  0.74315452709E+02  0.66231087293E+02 -0.15186238475E+03  0.25011103002E+03  0.17200000000E+03 0. -1.
         -6    1    1    2    0  502 -0.74315452709E+02 -0.66231087293E+02  0.14038256496E+03  0.24331175060E+03  0.17200000000E+03 0. -1.
<mgrwt>
<rscale>  2 0.19872932E+03</rscale>
<asrwt>0</asrwt>
<pdfrwt beam="1">  1       21 0.60242870E-01 0.19872932E+03</pdfrwt>
<pdfrwt beam="2">  1       21 0.63112825E-01 0.19872932E+03</pdfrwt>
<totfact> 0.59411178E+03</totfact>
</mgrwt>
</event>
<event>
 4    1  0.1119790E+000  0.1721431E+03  0.7546771E-02  0.1175631E+00
         21   -1    0    0  501  502  0.00000000000E+00  0.00000000000E+00  0.13675396874E+03  0.13675396874E+03  0.00000000000E+00 0. -1.
         21   -1    0    0  502  503 -0.00000000000E+00 -0.00000000000E+00 -0.34537080658E+03  0.34537080658E+03  0.00000000000E+00 0. -1.
          6    1    1    2  501    0 -0.38185885179E+01  0.58870221073E+01  0.42835821514E+02  0.17739263303E+03  0.17200000000E+03 0. -1.
         -6    1    1    2    0  503  0.38185885179E+01 -0.58870221073E+01 -0.25145265936E+03  0.30473214229E+03  0.17200000000E+03 0. -1.
<mgrwt>
<rscale>  2 0.17214308E+03</rscale>
<asrwt>0</asrwt>
<pdfrwt beam="1">  1       21 0.34188493E-01 0.17214308E+03</pdfrwt>
<pdfrwt beam="2">  1       21 0.86342701E-01 0.17214308E+03</pdfrwt>
<totfact> 0.96717561E+03</totfact>
</mgrwt>
</event>
<event>
 4    1  0.1119790E+000  0.2070518E+03  0.7546771E-02  0.1143922E+00
         21   -1    0    0  503  502  0.00000000000E+00  0.00000000000E+00  0.43518366339E+02  0.43518366339E+02  0.00000000000E+00 0.  1.
         21   -1    0    0  501  503 -0.00000000000E+00 -0.00000000000E+00 -0.99178559075E+03  0.99178559075E+03  0.00000000000E+00 0.  1.
          6    1    1    2  501    0  0.96973867529E+02  0.62309982803E+02 -0.51659642287E+03  0.55654499285E+03  0.17200000000E+03 0.  1.
         -6    1    1    2    0  502 -0.96973867529E+02 -0.62309982803E+02 -0.43167080154E+03  0.47875896424E+03  0.17200000000E+03 0.  1.
<mgrwt>
<rscale>  2 0.20705184E+03</rscale>
<asrwt>0</asrwt>
<pdfrwt beam="1">  1       21 0.10879592E-01 0.20705184E+03</pdfrwt>
<pdfrwt beam="2">  1       21 0.24794640E+00 0.20705184E+03</pdfrwt>
<totfact> 0.47089499E+03</totfact>
</mgrwt>
</event>
<event>
 4    1  0.1119790E+000  0.2181045E+03  0.7546771E-02  0.1135304E+00
         21   -1    0    0  503  502  0.00000000000E+00  0.00000000000E+00  0.24577387097E+03  0.24577387097E+03  0.00000000000E+00 0. -1.
         21   -1    0    0  501  503 -0.00000000000E+00 -0.00000000000E+00 -0.29092170919E+03  0.29092170919E+03  0.00000000000E+00 0.  1.
          6    1    1    2  501    0  0.13343953430E+03  0.13396127815E+02 -0.17782193435E+03  0.28140754413E+03  0.17200000000E+03 0.  1.
         -6    1    1    2    0  502 -0.13343953430E+03 -0.13396127815E+02  0.13267409613E+03  0.25528803603E+03  0.17200000000E+03 0. -1.
<mgrwt>
<rscale>  2 0.21810448E+03</rscale>
<asrwt>0</asrwt>
<pdfrwt beam="1">  1       21 0.61443468E-01 0.21810448E+03</pdfrwt>
<pdfrwt beam="2">  1       21 0.72730427E-01 0.21810448E+03</pdfrwt>
<totfact> 0.41091676E+03</totfact>
</mgrwt>
</event>
<event>
 4    1  0.1119790E+000  0.3029277E+03  0.7546771E-02  0.1083786E+00
         21   -1    0    0  501  502  0.00000000000E+00  0.00000000000E+00  0.35585760858E+03  0.35585760858E+03  0.00000000000E+00 0.  1.
         21   -1    0    0  502  503 -0.00000000000E+00 -0.00000000000E+00 -0.31111603809E+03  0.31111603809E+03  0.00000000000E+00 0. -1.
          6    1    1    2  501    0  0.20514665194E+03 -0.14176061322E+03  0.16033251202E+03  0.34274149832E+03  0.17200000000E+03 0.  1.
         -6    1    1    2    0  503 -0.20514665194E+03  0.14176061322E+03 -0.11559094153E+03  0.32423214835E+03  0.17200000000E+03 0. -1.
<mgrwt>
<rscale>  2 0.30292775E+03</rscale>
<asrwt>0</asrwt>
<pdfrwt beam="1">  1       21 0.88964402E-01 0.30292775E+03</pdfrwt>
<pdfrwt beam="2">  1       21 0.77779010E-01 0.30292775E+03</pdfrwt>
<totfact> 0.14541199E+03</totfact>
</mgrwt>
</event>
<event>
 4    1  0.1119790E+000  0.1895234E+03  0.7546771E-02  0.1158892E+00
         21   -1    0    0  503  502  0.00000000000E+00  0.00000000000E+00  0.23395978759E+03  0.23395978759E+03  0.00000000000E+00 0. -1.
         21   -1    0    0  501  503 -0.00000000000E+00 -0.00000000000E+00 -0.68772949144E+03  0.68772949144E+03  0.00000000000E+00 0. -1.
          6    1    1    2  501    0  0.37204881889E+02  0.70362716168E+02 -0.63304632121E+03  0.66080765723E+03  0.17200000000E+03 0. -1.
         -6    1    1    2    0  502 -0.37204881889E+02 -0.70362716168E+02  0.17927661735E+03  0.26088162180E+03  0.17200000000E+03 0. -1.
<mgrwt>
<rscale>  2 0.18952339E+03</rscale>
<asrwt>0</asrwt>
<pdfrwt beam="1">  1       21 0.58489948E-01 0.18952339E+03</pdfrwt>
<pdfrwt beam="2">  1       21 0.17193237E+00 0.18952339E+03</pdfrwt>
<totfact> 0.56812031E+02</totfact>
</mgrwt>
</event>
<event>
 4    1  0.1119790E+000  0.2653560E+03  0.7546771E-02  0.1103967E+00
         21   -1    0    0  501  502  0.00000000000E+00  0.00000000000E+00  0.18003241995E+03  0.18003241995E+03  0.00000000000E+00 0. -1.
         21   -1    0    0  502  503 -0.00000000000E+00 -0.00000000000E+00 -0.39574050989E+03  0.39574050989E+03  0.00000000000E+00 0.  1.
          6    1    1    2  501    0 -0.82966657349E+02 -0.18424535025E+03 -0.13896993556E+03  0.29954375025E+03  0.17200000000E+03 0.  1.
         -6    1    1    2    0  503  0.82966657349E+02  0.18424535025E+03 -0.76738154369E+02  0.27622917959E+03  0.17200000000E+03 0.  1.
<mgrwt>
<rscale>  2 0.26535602E+03</rscale>
<asrwt>0</asrwt>
<pdfrwt beam="1">  1       21 0.45008105E-01 0.26535602E+03</pdfrwt>
<pdfrwt beam="2">  1       21 0.98935127E-01 0.26535602E+03</pdfrwt>
<totfact> 0.37853914E+03</totfact>
</mgrwt>
</event>
<event>
 4    1  0.1119790E+000  0.1935488E+03  0.7546771E-02  0.1155299E+00
         21   -1    0    0  501  502  0.00000000000E+00  0.00000000000E+00  0.35806826689E+03  0.35806826689E+03  0.00000000000E+00 0. -1.
         21   -1    0    0  502  503 -0.00000000000E+00 -0.00000000000E+00 -0.59675077898E+03  0.59675077898E+03  0.00000000000E+00 0. -1.
          6    1    1    2  501    0 -0.18295340582E+02  0.86846999822E+02  0.31420438197E+03  0.36903321600E+03  0.17200000000E+03 0. -1.
         -6    1    1    2    0  503  0.18295340582E+02 -0.86846999822E+02 -0.55288689405E+03  0.58578582987E+03  0.17200000000E+03 0. -1.
<mgrwt>
<rscale>  2 0.19354876E+03</rscale>
<asrwt>0</asrwt>
<pdfrwt beam="1">  1       21 0.89517067E-01 0.19354876E+03</pdfrwt>
<pdfrwt beam="2">  1       21 0.14918769E+00 0.19354876E+03</pdfrwt>
<totfact> 0.32219344E+02</totfact>
</mgrwt>
</event>
<event>
 4    1  0.1119790E+000  0.1726095E+03  0.7546771E-02  0.1175154E+00
         21   -1    0    0  501  502  0.00000000000E+00  0.00000000000E+00  0.44464118244E+02  0.44464118244E+02  0.00000000000E+00 0.  1.
         21   -1    0    0  502  503 -0.00000000000E+00 -0.00000000000E+00 -0.79225740779E+03  0.79225740779E+03  0.00000000000E+00 0.  1.
          6    1    1    2  501    0  0.10746453309E+02  0.97239315113E+01 -0.53819463128E+03  0.56519687034E+03  0.17200000000E+03 0.  1.
         -6    1    1    2    0  503 -0.10746453309E+02 -0.97239315113E+01 -0.20959865826E+03  0.27152465569E+03  0.17200000000E+03 0.  1.
<mgrwt>
<rscale>  2 0.17260950E+03</rscale>
<asrwt>0</asrwt>
<pdfrwt beam="1">  1       21 0.11116029E-01 0.17260950E+03</pdfrwt>
<pdfrwt beam="2">  1       21 0.19806436E+00 0.17260950E+03</pdfrwt>
<totfact> 0.94594948E+03</totfact>
</mgrwt>
</event>
<event>
 4    1  0.1119790E+000  0.2186200E+03  0.7546771E-02  0.1134916E+00
         21   -1    0    0  501  502  0.00000000000E+00  0.00000000000E+00  0.73189089383E+03  0.73189089383E+03  0.00000000000E+00 0. -1.
         21   -1    0    0  502  503 -0.00000000000E+00 -0.00000000000E+00 -0.11022363074E+03  0.11022363074E+03  0.00000000000E+00 0.  1.
          6    1    1    2  501    0  0.29600273867E+02 -0.13166063618E+03  0.57963194662E+03  0.61949002645E+03  0.17200000000E+03 0. -1.
         -6    1    1    2    0  503 -0.29600273867E+02  0.13166063618E+03  0.42035316472E+02  0.22262449812E+03  0.17200000000E+03 0.  1.
<mgrwt>
<rscale>  2 0.21861999E+03</rscale>
<asrwt>0</asrwt>
<pdfrwt beam="1">  1       21 0.18297271E+00 0.21861999E+03</pdfrwt>
<pdfrwt beam="2">  1       21 0.27555910E-01 0.21861999E+03</pdfrwt>
<totfact> 0.21292059E+03</totfact>
</mgrwt>
</event>
<event>
 4    1  0.1119790E+000  0.2015379E+03  0.7546771E-02  0.1148448E+00
         21   -1    0    0  503  502  0.00000000000E+00  0.00000000000E+00  0.14048173381E+03  0.14048173381E+03  0.00000000000E+00 0. -1.
         21   -1    0    0  501  503 -0.00000000000E+00 -0.00000000000E+00 -0.28985037088E+03  0.28985037088E+03  0.00000000000E+00 0.  1.
          6    1    1    2  501    0 -0.61114610821E+01  0.10486270526E+03 -0.63960469766E+02  0.21144379538E+03  0.17200000000E+03 0. -1.
         -6    1    1    2    0  502  0.61114610821E+01 -0.10486270526E+03 -0.85408167297E+02  0.21888830931E+03  0.17200000000E+03 0.  1.
<mgrwt>
<rscale>  2 0.20153793E+03</rscale>
<asrwt>0</asrwt>
<pdfrwt beam="1">  1       21 0.35120434E-01 0.20153793E+03</pdfrwt>
<pdfrwt beam="2">  1       21 0.72462592E-01 0.20153793E+03</pdfrwt>
<totfact> 0.13337936E+04</totfact>
</mgrwt>
</event>
<event>
 4    1  0.1119790E+000  0.1721110E+03  0.7546771E-02  0.1175664E+00
         21   -1    0    0  503  502  0.00000000000E+00  0.00000000000E+00  0.13065063316E+04  0.13065063316E+04  0.00000000000E+00 0.  1.
         21   -1    0    0  501  503 -0.00000000000E+00 -0.00000000000E+00 -0.26205255938E+02  0.26205255938E+02  0.00000000000E+00 0.  1.
          6    1    1    2  501    0  0.53805758625E+01  0.30408553791E+01  0.39549872412E+03  0.43132521162E+03  0.17200000000E+03 0.  1.
         -6    1    1    2    0  502 -0.53805758625E+01 -0.30408553791E+01  0.88480235151E+03  0.90138637589E+03  0.17200000000E+03 0.  1.
<mgrwt>
<rscale>  2 0.17211100E+03</rscale>
<asrwt>0</asrwt>
<pdfrwt beam="1">  1       21 0.32662636E+00 0.17211100E+03</pdfrwt>
<pdfrwt beam="2">  1       21 0.65513184E-02 0.17211100E+03</pdfrwt>
<totfact> 0.41732750E+03</totfact>
</mgrwt>
</event>
<event>
 4    1  0.1119790E+000  0.3229213E+03  0.7546771E-02  0.1074313E+00
         21   -1    0    0  503  502  0.00000000000E+00  0.00000000000E+00  0.65775302829E+03  0.65775302829E+03  0.00000000000E+00 0.  1.
         21   -1    0    0  501  503 -0.00000000000E+00 -0.00000000000E+00 -0.22028558088E+03  0.22028558088E+03  0.00000000000E+00 0.  1.
          6    1    1    2  501    0  0.14603421271E+03 -0.23101546225E+03 -0.13702802461E+02  0.32321185293E+03  0.17200000000E+03 0.  1.
         -6    1    1    2    0  502 -0.14603421271E+03  0.23101546225E+03  0.45117024986E+03  0.55482675624E+03  0.17200000000E+03 0.  1.
<mgrwt>
<rscale>  2 0.32292125E+03</rscale>
<asrwt>0</asrwt>
<pdfrwt beam="1">  1       21 0.16443825E+00 0.32292125E+03</pdfrwt>
<pdfrwt beam="2">  1       21 0.55071397E-01 0.32292125E+03</pdfrwt>
<totfact> 0.64997885E+02</totfact>
</mgrwt>
</event>
<event>
 4    1  0.1119790E+000  0.2421015E+03  0.7546771E-02  0.1118401E+00
         21   -1    0    0  501  502  0.00000000000E+00  0.00000000000E+00  0.23922115242E+03  0.23922115242E+03  0.00000000000E+00 0. -1.
         21   -1    0    0  502  503 -0.00000000000E+00 -0.00000000000E+00 -0.25526037778E+03  0.25526037778E+03  0.00000000000E+00 0. -1.
          6    1    1    2  501    0  0.14174346829E+03 -0.94540496323E+02  0.41509636284E+02  0.24563421210E+03  0.17200000000E+03 0. -1.
         -6    1    1    2    0  503 -0.14174346829E+03  0.94540496323E+02 -0.57548861645E+02  0.24884731810E+03  0.17200000000E+03 0. -1.
<mgrwt>
<rscale>  2 0.24210146E+03</rscale>
<asrwt>0</asrwt>
<pdfrwt beam="1">  1       21 0.59805288E-01 0.24210146E+03</pdfrwt>
<pdfrwt beam="2">  1       21 0.63815094E-01 0.24210146E+03</pdfrwt>
<totfact> 0.57178934E+03</totfact>
</mgrwt>
</event>
<event>
 4    1  0.1119790E+000  0.1914697E+03  0.7546771E-02  0.1157142E+00
         21   -1    0    0  503  502  0.00000000000E+00  0.00000000000E+00  0.16786169313E+03  0.16786169313E+03  0.00000000000E+00 0.  1.
         21   -1    0    0  501  503 -0.00000000000E+00 -0.00000000000E+00 -0.81772263062E+03  0.81772263062E+03  0.00000000000E+00 0. -1.
          6    1    1    2  501    0  0.58740630007E+02  0.60217929339E+02 -0.74681328905E+03  0.77096741132E+03  0.17200000000E+03 0. -1.
         -6    1    1    2    0  502 -0.58740630007E+02 -0.60217929339E+02  0.96952351551E+02  0.21461691242E+03  0.17200000000E+03 0.  1.
<mgrwt>
<rscale>  2 0.19146974E+03</rscale>
<asrwt>0</asrwt>
<pdfrwt beam="1">  1       21 0.41965424E-01 0.19146974E+03</pdfrwt>
<pdfrwt beam="2">  1       21 0.20443066E+00 0.19146974E+03</pdfrwt>
<totfact> 0.68857006E+02</totfact>
</mgrwt>
</event>
<event>
 4    1  0.1119790E+000  0.1757586E+03  0.7546771E-02  0.1171972E+00
         21   -1    0    0  501  502  0.00000000000E+00  0.00000000000E+00  0.36521660947E+03  0.36521660947E+03  0.00000000000E+00 0.  1.
         21   -1    0    0  502  503 -0.00000000000E+00 -0.00000000000E+00 -0.87158897225E+02  0.87158897225E+02  0.00000000000E+00 0.  1.
          6    1    1    2  501    0 -0.33662372452E+02  0.13188288886E+02  0.17791406703E+03  0.25008898722E+03  0.17200000000E+03 0.  1.
         -6    1    1    2    0  503  0.33662372452E+02 -0.13188288886E+02  0.10014364522E+03  0.20228651947E+03  0.17200000000E+03 0.  1.
<mgrwt>
<rscale>  2 0.17575860E+03</rscale>
<asrwt>0</asrwt>
<pdfrwt beam="1">  1       21 0.91304148E-01 0.17575860E+03</pdfrwt>
<pdfrwt beam="2">  1       21 0.21789725E-01 0.17575860E+03</pdfrwt>
<totfact> 0.20181900E+04</totfact>
</mgrwt>
</event>
<event>
 4    1  0.1119790E+000  0.1855899E+03  0.7546771E-02  0.1162500E+00
         21   -1    0    0  503  502  0.00000000000E+00  0.00000000000E+00  0.91312871682E+02  0.91312871682E+02  0.00000000000E+00 0.  1.
         21   -1    0    0  501  503 -0.00000000000E+00 -0.00000000000E+00 -0.38007556861E+03  0.38007556861E+03  0.00000000000E+00 0.  1.
          6    1    1    2  501    0  0.47669329162E+01 -0.69547656038E+02 -0.16486735338E+03  0.24824351819E+03  0.17200000000E+03 0.  1.
         -6    1    1    2    0  502 -0.47669329162E+01  0.69547656038E+02 -0.12389534354E+03  0.22314492211E+03  0.17200000000E+03 0.  1.
<mgrwt>
<rscale>  2 0.18558987E+03</rscale>
<asrwt>0</asrwt>
<pdfrwt beam="1">  1       21 0.22828218E-01 0.18558987E+03</pdfrwt>
<pdfrwt beam="2">  1       21 0.95018891E-01 0.18558987E+03</pdfrwt>
<totfact> 0.16743156E+04</totfact>
</mgrwt>
</event>
<event>
 4    1  0.1119790E+000  0.1758017E+03  0.7546771E-02  0.1171929E+00
         21   -1    0    0  503  502  0.00000000000E+00  0.00000000000E+00  0.21861957940E+03  0.21861957940E+03  0.00000000000E+00 0. -1.
         21   -1    0    0  501  503 -0.00000000000E+00 -0.00000000000E+00 -0.14209533259E+03  0.14209533259E+03  0.00000000000E+00 0. -1.
          6    1    1    2  501    0 -0.30424253968E+01  0.36235227081E+02  0.51148042483E+02  0.18309115294E+03  0.17200000000E+03 0.  1.
         -6    1    1    2    0  502  0.30424253968E+01 -0.36235227081E+02  0.25376204321E+02  0.17762375905E+03  0.17200000000E+03 0.  1.
<mgrwt>
<rscale>  2 0.17580173E+03</rscale>
<asrwt>0</asrwt>
<pdfrwt beam="1">  1       21 0.54654895E-01 0.17580173E+03</pdfrwt>
<pdfrwt beam="2">  1       21 0.35523833E-01 0.17580173E+03</pdfrwt>
<totfact> 0.24386604E+04</totfact>
</mgrwt>
</event>
<event>
 4    1  0.1119790E+000  0.3137228E+03  0.7546771E-02  0.1078575E+00
         21   -1    0    0  501  502  0.00000000000E+00  0.00000000000E+00  0.12596001628E+03  0.12596001628E+03  0.00000000000E+00 0. -1.
         21   -1    0    0  502  503 -0.00000000000E+00 -0.00000000000E+00 -0.83630882354E+03  0.83630882354E+03  0.00000000000E+00 0. -1.
          6    1    1    2  501    0  0.21568781468E+03  0.14938794087E+03 -0.47848589460E+03  0.57216321239E+03  0.17200000000E+03 0. -1.
         -6    1    1    2    0  503 -0.21568781468E+03 -0.14938794087E+03 -0.23186291266E+03  0.39010562742E+03  0.17200000000E+03 0. -1.
<mgrwt>
<rscale>  2 0.31372279E+03</rscale>
<asrwt>0</asrwt>
<pdfrwt beam="1">  1       21 0.31490005E-01 0.31372279E+03</pdfrwt>
<pdfrwt beam="2">  1       21 0.20907720E+00 0.31372279E+03</pdfrwt>
<totfact> 0.10237413E+03</totfact>
</mgrwt>
</event>
<event>
 4    1  0.1119790E+000  0.2624935E+03  0.7546771E-02  0.1105654E+00
         21   -1    0    0  501  502  0.00000000000E+00  0.00000000000E+00  0.10177783820E+03  0.10177783820E+03  0.00000000000E+00 0. -1.
         21   -1    0    0  502  503 -0.00000000000E+00 -0.00000000000E+00 -0.67991975618E+03  0.67991975618E+03  0.00000000000E+00 0.  1.
          6    1    1    2  501    0  0.17790549556E+03  0.87569926843E+02 -0.31471536212E+03  0.40981534450E+03  0.17200000000E+03 0.  1.
         -6    1    1    2    0  503 -0.17790549556E+03 -0.87569926843E+02 -0.26342655587E+03  0.37188224988E+03  0.17200000000E+03 0. -1.
<mgrwt>
<rscale>  2 0.26249354E+03</rscale>
<asrwt>0</asrwt>
<pdfrwt beam="1">  1       21 0.25444460E-01 0.26249354E+03</pdfrwt>
<pdfrwt beam="2">  1       21 0.16997994E+00 0.26249354E+03</pdfrwt>
<totfact> 0.29527954E+03</totfact>
</mgrwt>
</event>
<event>
 4    1  0.1119790E+000  0.1753815E+03  0.7546771E-02  0.1172349E+00
         21   -1    0    0  503  502  0.00000000000E+00  0.00000000000E+00  0.81941243696E+02  0.81941243696E+02  0.00000000000E+00 0. -1.
         21   -1    0    0  501  503 -0.00000000000E+00 -0.00000000000E+00 -0.76771154621E+03  0.76771154621E+03  0.00000000000E+00 0. -1.
          6    1    1    2  501    0  0.14841498063E+02 -0.30893579113E+02 -0.64658313801E+03  0.66994659314E+03  0.17200000000E+03 0. -1.
         -6    1    1    2    0  502 -0.14841498063E+02  0.30893579113E+02 -0.39187164503E+02  0.17970619677E+03  0.17200000000E+03 0. -1.
<mgrwt>
<rscale>  2 0.17538154E+03</rscale>
<asrwt>0</asrwt>
<pdfrwt beam="1">  1       21 0.20485311E-01 0.17538154E+03</pdfrwt>
<pdfrwt beam="2">  1       21 0.19192788E+00 0.17538154E+03</pdfrwt>
<totfact> 0.34014034E+03</totfact>
</mgrwt>
</event>
<event>
 4    1  0.1119790E+000  0.2125641E+03  0.7546771E-02  0.1139551E+00
         21   -1    0    0  503  502  0.00000000000E+00  0.00000000000E+00  0.17849783977E+03  0.17849783977E+03  0.00000000000E+00 0. -1.
         21   -1    0    0  501  503 -0.00000000000E+00 -0.00000000000E+00 -0.26822899742E+03  0.26822899742E+03  0.00000000000E+00 0. -1.
          6    1    1    2  501    0  0.10724264576E+03  0.64019705184E+02  0.81257824393E+01  0.21271938337E+03  0.17200000000E+03 0. -1.
         -6    1    1    2    0  502 -0.10724264576E+03 -0.64019705184E+02 -0.97856940083E+02  0.23400745382E+03  0.17200000000E+03 0. -1.
<mgrwt>
<rscale>  2 0.21256413E+03</rscale>
<asrwt>0</asrwt>
<pdfrwt beam="1">  1       21 0.44624460E-01 0.21256413E+03</pdfrwt>
<pdfrwt beam="2">  1       21 0.67057249E-01 0.21256413E+03</pdfrwt>
<totfact> 0.96839186E+03</totfact>
</mgrwt>
</event>
<event>
 4    1  0.1119790E+000  0.2072175E+03  0.7546771E-02  0.1143789E+00
         21   -1    0    0  503  502  0.00000000000E+00  0.00000000000E+00  0.94382760833E+03  0.94382760833E+03  0.00000000000E+00 0.  1.
         21   -1    0    0  501  503 -0.00000000000E+00 -0.00000000000E+00 -0.10703553872E+03  0.10703553872E+03  0.00000000000E+00 0.  1.
          6    1    1    2  501    0  0.12660507980E+02  0.11486866597E+03  0.19982505544E+02  0.20817876792E+03  0.17200000000E+03 0.  1.
         -6    1    1    2    0  502 -0.12660507980E+02 -0.11486866597E+03  0.81680956407E+03  0.84268437913E+03  0.17200000000E+03 0.  1.
<mgrwt>
<rscale>  2 0.20721752E+03</rscale>
<asrwt>0</asrwt>
<pdfrwt beam="1">  1       21 0.23595688E+00 0.20721752E+03</pdfrwt>
<pdfrwt beam="2">  1       21 0.26758888E-01 0.20721752E+03</pdfrwt>
<totfact> 0.10528554E+03</totfact>
</mgrwt>
</event>
<event>
 4    1  0.1119790E+000  0.2672697E+03  0.7546771E-02  0.1102852E+00
         21   -1    0    0  501  502  0.00000000000E+00  0.00000000000E+00  0.35519568082E+03  0.35519568082E+03  0.00000000000E+00 0.  1.
         21   -1    0    0  502  503 -0.00000000000E+00 -0.00000000000E+00 -0.22667968580E+03  0.22667968580E+03  0.00000000000E+00 0. -1.
          6    1    1    2  501    0 -0.92257192304E+02  0.18258612334E+03  0.16197363175E+03  0.31251966234E+03  0.17200000000E+03 0. -1.
         -6    1    1    2    0  503  0.92257192304E+02 -0.18258612334E+03 -0.33457636735E+02  0.26935570427E+03  0.17200000000E+03 0. -1.
<mgrwt>
<rscale>  2 0.26726968E+03</rscale>
<asrwt>0</asrwt>
<pdfrwt beam="1">  1       21 0.88798919E-01 0.26726968E+03</pdfrwt>
<pdfrwt beam="2">  1       21 0.56669922E-01 0.26726968E+03</pdfrwt>
<totfact> 0.30028564E+03</totfact>
</mgrwt>
</event>
<event>
 4    1  0.1119790E+000  0.1854120E+03  0.7546771E-02  0.1162666E+00
         21   -1    0    0  503  502  0.00000000000E+00  0.00000000000E+00  0.25193898530E+03  0.25193898530E+03  0.00000000000E+00 0.  1.
         21   -1    0    0  501  503 -0.00000000000E+00 -0.00000000000E+00 -0.34294824506E+03  0.34294824506E+03  0.00000000000E+00 0.  1.
          6    1    1    2  501    0 -0.59581833652E+02  0.35265185148E+02 -0.27631017057E+03  0.33275357030E+03  0.17200000000E+03 0.  1.
         -6    1    1    2    0  502  0.59581833652E+02 -0.35265185148E+02  0.18530091082E+03  0.26213366006E+03  0.17200000000E+03 0.  1.
<mgrwt>
<rscale>  2 0.18541205E+03</rscale>
<asrwt>0</asrwt>
<pdfrwt beam="1">  1       21 0.62984747E-01 0.18541205E+03</pdfrwt>
<pdfrwt beam="2">  1       21 0.85737061E-01 0.18541205E+03</pdfrwt>
<totfact> 0.27590187E+03</totfact>
</mgrwt>
</event>
<event>
 4    1  0.1119790E+000  0.2098052E+03  0.7546771E-02  0.1141720E+00
         21   -1    0    0  503  502  0.00000000000E+00  0.00000000000E+00  0.84635017679E+02  0.84635017679E+02  0.00000000000E+00 0. -1.
         21   -1    0    0  501  503 -0.00000000000E+00 -0.00000000000E+00 -0.88187733883E+03  0.88187733883E+03  0.00000000000E+00 0.  1.
          6    1    1    2  501    0  0.81945930360E+01  0.11986264216E+03 -0.70814729574E+03  0.73857348774E+03  0.17200000000E+03 0.  1.
         -6    1    1    2    0  502 -0.81945930360E+01 -0.11986264216E+03 -0.89095025414E+02  0.22793886876E+03  0.17200000000E+03 0. -1.
<mgrwt>
<rscale>  2 0.20980516E+03</rscale>
<asrwt>0</asrwt>
<pdfrwt beam="1">  1       21 0.21158755E-01 0.20980516E+03</pdfrwt>
<pdfrwt beam="2">  1       21 0.22046933E+00 0.20980516E+03</pdfrwt>
<totfact> 0.20387971E+03</totfact>
</mgrwt>
</event>
<event>
 4    1  0.1119790E+000  0.2176232E+03  0.7546771E-02  0.1135668E+00
         21   -1    0    0  501  502  0.00000000000E+00  0.00000000000E+00  0.11730392185E+03  0.11730392185E+03  0.00000000000E+00 0.  1.
         21   -1    0    0  502  503 -0.00000000000E+00 -0.00000000000E+00 -0.78948617329E+03  0.78948617329E+03  0.00000000000E+00 0. -1.
          6    1    1    2  501    0 -0.71161823841E+02  0.11274676290E+03 -0.19165417525E+02  0.21846544566E+03  0.17200000000E+03 0.  1.
         -6    1    1    2    0  503  0.71161823841E+02 -0.11274676290E+03 -0.65301683391E+03  0.68832464948E+03  0.17200000000E+03 0. -1.
<mgrwt>
<rscale>  2 0.21762316E+03</rscale>
<asrwt>0</asrwt>
<pdfrwt beam="1">  1       21 0.29325981E-01 0.21762316E+03</pdfrwt>
<pdfrwt beam="2">  1       21 0.19737154E+00 0.21762316E+03</pdfrwt>
<totfact> 0.15156696E+03</totfact>
</mgrwt>
</event>
<event>
 4    1  0.1119790E+000  0.1952299E+03  0.7546771E-02  0.1153827E+00
         21   -1    0    0  503  502  0.00000000000E+00  0.00000000000E+00  0.95455763836E+03  0.95455763836E+03  0.00000000000E+00 0.  1.
         21   -1    0    0  501  503 -0.00000000000E+00 -0.00000000000E+00 -0.15341120334E+03  0.15341120334E+03  0.00000000000E+00 0.  1.
          6    1    1    2  501    0 -0.74020018633E+02  0.55242669475E+02 -0.75893451042E+02  0.20946248256E+03  0.17200000000E+03 0.  1.
         -6    1    1    2    0  502  0.74020018633E+02 -0.55242669475E+02  0.87703988606E+03  0.89850635915E+03  0.17200000000E+03 0.  1.
<mgrwt>
<rscale>  2 0.19522990E+03</rscale>
<asrwt>0</asrwt>
<pdfrwt beam="1">  1       21 0.23863939E+00 0.19522990E+03</pdfrwt>
<pdfrwt beam="2">  1       21 0.38352804E-01 0.19522990E+03</pdfrwt>
<totfact> 0.50719304E+02</totfact>
</mgrwt>
</event>
<event>
 4    1  0.1119790E+000  0.3094604E+03  0.7546771E-02  0.1080605E+00
         21   -1    0    0  503  502  0.00000000000E+00  0.00000000000E+00  0.18533229080E+03  0.18533229080E+03  0.00000000000E+00 0. -1.
         21   -1    0    0  501  503 -0.00000000000E+00 -0.00000000000E+00 -0.51752047793E+03  0.51752047793E+03  0.00000000000E+00 0.  1.
          6    1    1    2  501    0  0.20878574148E+03  0.15030055216E+03 -0.17987606994E+03  0.35794013796E+03  0.17200000000E+03 0.  1.
         -6    1    1    2    0  502 -0.20878574148E+03 -0.15030055216E+03 -0.15231211718E+03  0.34491263077E+03  0.17200000000E+03 0. -1.
<mgrwt>
<rscale>  2 0.30946040E+03</rscale>
<asrwt>0</asrwt>
<pdfrwt beam="1">  1       21 0.46333073E-01 0.30946040E+03</pdfrwt>
<pdfrwt beam="2">  1       21 0.12938012E+00 0.30946040E+03</pdfrwt>
<totfact> 0.17885802E+03</totfact>
</mgrwt>
</event>
<event>
 4    1  0.1119790E+000  0.2906672E+03  0.7546771E-02  0.1090001E+00
         21   -1    0    0  501  502  0.00000000000E+00  0.00000000000E+00  0.16439158925E+04  0.16439158925E+04  0.00000000000E+00 0.  1.
         21   -1    0    0  502  503 -0.00000000000E+00 -0.00000000000E+00 -0.52455890064E+02  0.52455890064E+02  0.00000000000E+00 0. -1.
          6    1    1    2  501    0 -0.86936073893E+02  0.21759026715E+03  0.67505016904E+03  0.73496947966E+03  0.17200000000E+03 0. -1.
         -6    1    1    2    0  503  0.86936073893E+02 -0.21759026715E+03  0.91640983342E+03  0.96140230294E+03  0.17200000000E+03 0.  1.
<mgrwt>
<rscale>  2 0.29066717E+03</rscale>
<asrwt>0</asrwt>
<pdfrwt beam="1">  1       21 0.41097880E+00 0.29066717E+03</pdfrwt>
<pdfrwt beam="2">  1       21 0.13113978E-01 0.29066717E+03</pdfrwt>
<totfact> 0.32597015E+02</totfact>
</mgrwt>
</event>
<event>
 4    1  0.1119790E+000  0.2126842E+03  0.7546771E-02  0.1139458E+00
         21   -1    0    0  501  502  0.00000000000E+00  0.00000000000E+00  0.95713126296E+03  0.95713126296E+03  0.00000000000E+00 0.  1.
         21   -1    0    0  502  503 -0.00000000000E+00 -0.00000000000E+00 -0.85695759468E+02  0.85695759468E+02  0.00000000000E+00 0. -1.
          6    1    1    2  501    0  0.98017952005E+02  0.77737078163E+02  0.78491202205E+03  0.81321673286E+03  0.17200000000E+03 0.  1.
         -6    1    1    2    0  503 -0.98017952005E+02 -0.77737078163E+02  0.86523481438E+02  0.22961028957E+03  0.17200000000E+03 0. -1.
<mgrwt>
<rscale>  2 0.21268421E+03</rscale>
<asrwt>0</asrwt>
<pdfrwt beam="1">  1       21 0.23928278E+00 0.21268421E+03</pdfrwt>
<pdfrwt beam="2">  1       21 0.21423943E-01 0.21268421E+03</pdfrwt>
<totfact> 0.15267514E+03</totfact>
</mgrwt>
</event>
<event>
 4    1  0.1119790E+000  0.2809648E+03  0.7546771E-02  0.1095163E+00
         21   -1    0    0  503  502  0.00000000000E+00  0.00000000000E+00  0.15321380828E+03  0.15321380828E+03  0.00000000000E+00 0.  1.
         21   -1    0    0  501  503 -0.00000000000E+00 -0.00000000000E+00 -0.58405829574E+03  0.58405829574E+03  0.00000000000E+00 0.  1.
          6    1    1    2  501    0 -0.16471569055E+03  0.14908378213E+03 -0.34196434615E+03  0.44258428219E+03  0.17200000000E+03 0.  1.
         -6    1    1    2    0  502  0.16471569055E+03 -0.14908378213E+03 -0.88880141314E+02  0.29468782182E+03  0.17200000000E+03 0.  1.
<mgrwt>
<rscale>  2 0.28096482E+03</rscale>
<asrwt>0</asrwt>
<pdfrwt beam="1">  1       21 0.38303453E-01 0.28096482E+03</pdfrwt>
<pdfrwt beam="2">  1       21 0.14601457E+00 0.28096482E+03</pdfrwt>
<totfact> 0.19645626E+03</totfact>
</mgrwt>
</event>
<event>
 4    1  0.1119790E+000  0.1907134E+03  0.7546771E-02  0.1157819E+00
         21   -1    0    0  501  502  0.00000000000E+00  0.00000000000E+00  0.77145358155E+02  0.77145358155E+02  0.00000000000E+00 0. -1.
         21   -1    0    0  502  503 -0.00000000000E+00 -0.00000000000E+00 -0.49008097213E+03  0.49008097213E+03  0.00000000000E+00 0. -1.
          6    1    1    2  501    0  0.47996258690E+02  0.66962378905E+02 -0.15119706548E+03  0.24337656758E+03  0.17200000000E+03 0. -1.
         -6    1    1    2    0  503 -0.47996258690E+02 -0.66962378905E+02 -0.26173854849E+03  0.32384976270E+03  0.17200000000E+03 0. -1.
<mgrwt>
<rscale>  2 0.19071340E+03</rscale>
<asrwt>0</asrwt>
<pdfrwt beam="1">  1       21 0.19286340E-01 0.19071340E+03</pdfrwt>
<pdfrwt beam="2">  1       21 0.12252024E+00 0.19071340E+03</pdfrwt>
<totfact> 0.12404820E+04</totfact>
</mgrwt>
</event>
<event>
 4    1  0.1119790E+000  0.2124764E+03  0.7546771E-02  0.1139620E+00
         21   -1    0    0  501  502  0.00000000000E+00  0.00000000000E+00  0.26079730944E+03  0.26079730944E+03  0.00000000000E+00 0. -1.
         21   -1    0    0  502  503 -0.00000000000E+00 -0.00000000000E+00 -0.46269224202E+03  0.46269224202E+03  0.00000000000E+00 0.  1.
          6    1    1    2  501    0  0.12127801196E+03  0.29221087946E+02  0.18523515358E+03  0.28188346934E+03  0.17200000000E+03 0. -1.
         -6    1    1    2    0  503 -0.12127801196E+03 -0.29221087946E+02 -0.38713008615E+03  0.44160608212E+03  0.17200000000E+03 0.  1.
<mgrwt>
<rscale>  2 0.21247642E+03</rscale>
<asrwt>0</asrwt>
<pdfrwt beam="1">  1       21 0.65199328E-01 0.21247642E+03</pdfrwt>
<pdfrwt beam="2">  1       21 0.11567306E+00 0.21247642E+03</pdfrwt>
<totfact> 0.12277429E+03</totfact>
</mgrwt>
</event>
<event>
 4    1  0.1119790E+000  0.2281657E+03  0.7546771E-02  0.1127938E+00
         21   -1    0    0  503  502  0.00000000000E+00  0.00000000000E+00  0.38543930054E+03  0.38543930054E+03  0.00000000000E+00 0.  1.
         21   -1    0    0  501  503 -0.00000000000E+00 -0.00000000000E+00 -0.17617279489E+03  0.17617279489E+03  0.00000000000E+00 0.  1.
          6    1    1    2  501    0 -0.10005753296E+03 -0.11164261706E+03 -0.31009328363E+02  0.23026324564E+03  0.17200000000E+03 0.  1.
         -6    1    1    2    0  502  0.10005753296E+03  0.11164261706E+03  0.24027583401E+03  0.33134884979E+03  0.17200000000E+03 0.  1.
<mgrwt>
<rscale>  2 0.22816569E+03</rscale>
<asrwt>0</asrwt>
<pdfrwt beam="1">  1       21 0.96359824E-01 0.22816569E+03</pdfrwt>
<pdfrwt beam="2">  1       21 0.44043199E-01 0.22816569E+03</pdfrwt>
<totfact> 0.43179804E+03</totfact>
</mgrwt>
</event>
<event>
 4    1  0.1119790E+000  0.2535644E+03  0.7546771E-02  0.1111073E+00
         21   -1    0    0  501  502  0.00000000000E+00  0.00000000000E+00  0.29995113671E+03  0.29995113671E+03  0.00000000000E+00 0.  1.
         21   -1    0    0  502  503 -0.00000000000E+00 -0.00000000000E+00 -0.25670833081E+03  0.25670833081E+03  0.00000000000E+00 0. -1.
          6    1    1    2  501    0 -0.86571695455E+02  0.16497344053E+03  0.13467977967E+03  0.28711241280E+03  0.17200000000E+03 0.  1.
         -6    1    1    2    0  503  0.86571695455E+02 -0.16497344053E+03 -0.91436973776E+02  0.26954705472E+03  0.17200000000E+03 0. -1.
<mgrwt>
<rscale>  2 0.25356438E+03</rscale>
<asrwt>0</asrwt>
<pdfrwt beam="1">  1       21 0.74987784E-01 0.25356438E+03</pdfrwt>
<pdfrwt beam="2">  1       21 0.64177083E-01 0.25356438E+03</pdfrwt>
<totfact> 0.34065471E+03</totfact>
</mgrwt>
</event>
<event>
 4    1  0.1119790E+000  0.1968026E+03  0.7546771E-02  0.1152465E+00
         21   -1    0    0  503  502  0.00000000000E+00  0.00000000000E+00  0.27464976888E+03  0.27464976888E+03  0.00000000000E+00 0. -1.
         21   -1    0    0  501  503 -0.00000000000E+00 -0.00000000000E+00 -0.14269166018E+03  0.14269166018E+03  0.00000000000E+00 0. -1.
          6    1    1    2  501    0  0.59296684692E+02  0.75041096371E+02  0.43396969062E+02  0.20153054330E+03  0.17200000000E+03 0. -1.
         -6    1    1    2    0  502 -0.59296684692E+02 -0.75041096371E+02  0.88561139635E+02  0.21581088576E+03  0.17200000000E+03 0. -1.
<mgrwt>
<rscale>  2 0.19680260E+03</rscale>
<asrwt>0</asrwt>
<pdfrwt beam="1">  1       21 0.68662441E-01 0.19680260E+03</pdfrwt>
<pdfrwt beam="2">  1       21 0.35672915E-01 0.19680260E+03</pdfrwt>
<totfact> 0.14609899E+04</totfact>
</mgrwt>
</event>
<event>
 4    1  0.1119790E+000  0.2371045E+03  0.7546771E-02  0.1121737E+00
         21   -1    0    0  503  502  0.00000000000E+00  0.00000000000E+00  0.27409406607E+03  0.27409406607E+03  0.00000000000E+00 0. -1.
         21   -1    0    0  501  503 -0.00000000000E+00 -0.00000000000E+00 -0.30419917639E+03  0.30419917639E+03  0.00000000000E+00 0. -1.
          6    1    1    2  501    0  0.16199542398E+03  0.19799872329E+02 -0.18008117298E+03  0.29773777254E+03  0.17200000000E+03 0. -1.
         -6    1    1    2    0  502 -0.16199542398E+03 -0.19799872329E+02  0.14997606266E+03  0.28055546993E+03  0.17200000000E+03 0. -1.
<mgrwt>
<rscale>  2 0.23710452E+03</rscale>
<asrwt>0</asrwt>
<pdfrwt beam="1">  1       21 0.68523517E-01 0.23710452E+03</pdfrwt>
<pdfrwt beam="2">  1       21 0.76049794E-01 0.23710452E+03</pdfrwt>
<totfact> 0.28896500E+03</totfact>
</mgrwt>
</event>
<event>
 4    1  0.1119790E+000  0.2482223E+03  0.7546771E-02  0.1114433E+00
         21   -1    0    0  501  502  0.00000000000E+00  0.00000000000E+00  0.79374850935E+02  0.79374850935E+02  0.00000000000E+00 0. -1.
         21   -1    0    0  502  503 -0.00000000000E+00 -0.00000000000E+00 -0.77673337379E+03  0.77673337379E+03  0.00000000000E+00 0.  1.
          6    1    1    2  501    0 -0.15015645183E+03  0.97382607304E+02 -0.33794597089E+03  0.41931111537E+03  0.17200000000E+03 0.  1.
         -6    1    1    2    0  503  0.15015645183E+03 -0.97382607304E+02 -0.35941255196E+03  0.43679710935E+03  0.17200000000E+03 0. -1.
<mgrwt>
<rscale>  2 0.24822234E+03</rscale>
<asrwt>0</asrwt>
<pdfrwt beam="1">  1       21 0.19843713E-01 0.24822234E+03</pdfrwt>
<pdfrwt beam="2">  1       21 0.19418334E+00 0.24822234E+03</pdfrwt>
<totfact> 0.32684074E+03</totfact>
</mgrwt>
</event>
<event>
 4    1  0.1119790E+000  0.2948678E+03  0.7546771E-02  0.1087835E+00
         21   -1    0    0  501  502  0.00000000000E+00  0.00000000000E+00  0.99878535249E+02  0.99878535249E+02  0.00000000000E+00 0.  1.
         21   -1    0    0  502  503 -0.00000000000E+00 -0.00000000000E+00 -0.91368942894E+03  0.91368942894E+03  0.00000000000E+00 0.  1.
          6    1    1    2  501    0 -0.23938471084E+03 -0.76133063196E+01 -0.51705290375E+03  0.59522324173E+03  0.17200000000E+03 0.  1.
         -6    1    1    2    0  503  0.23938471084E+03  0.76133063196E+01 -0.29675798995E+03  0.41834472246E+03  0.17200000000E+03 0.  1.
<mgrwt>
<rscale>  2 0.29486777E+03</rscale>
<asrwt>0</asrwt>
<pdfrwt beam="1">  1       21 0.24969634E-01 0.29486777E+03</pdfrwt>
<pdfrwt beam="2">  1       21 0.22842236E+00 0.29486777E+03</pdfrwt>
<totfact> 0.12336286E+03</totfact>
</mgrwt>
</event>
<event>
 4    1  0.1119790E+000  0.2215665E+03  0.7546771E-02  0.1132720E+00
         21   -1    0    0  503  502  0.00000000000E+00  0.00000000000E+00  0.12207728678E+03  0.12207728678E+03  0.00000000000E+00 0.  1.
         21   -1    0    0  501  503 -0.00000000000E+00 -0.00000000000E+00 -0.52737787478E+03  0.52737787478E+03  0.00000000000E+00 0.  1.
          6    1    1    2  501    0  0.69556852636E+02  0.12111803788E+03 -0.36089606356E+03  0.42348282555E+03  0.17200000000E+03 0.  1.
         -6    1    1    2    0  502 -0.69556852636E+02 -0.12111803788E+03 -0.44404524448E+02  0.22597233601E+03  0.17200000000E+03 0.  1.
<mgrwt>
<rscale>  2 0.22156655E+03</rscale>
<asrwt>0</asrwt>
<pdfrwt beam="1">  1       21 0.30519322E-01 0.22156655E+03</pdfrwt>
<pdfrwt beam="2">  1       21 0.13184447E+00 0.22156655E+03</pdfrwt>
<totfact> 0.41995056E+03</totfact>
</mgrwt>
</event>
<event>
 4    1  0.1119790E+000  0.2007768E+03  0.7546771E-02  0.1149085E+00
         21   -1    0    0  503  502  0.00000000000E+00  0.00000000000E+00  0.13331053562E+03  0.13331053562E+03  0.00000000000E+00 0.  1.
         21   -1    0    0  501  503 -0.00000000000E+00 -0.00000000000E+00 -0.82449260262E+03  0.82449260262E+03  0.00000000000E+00 0.  1.
          6    1    1    2  501    0 -0.67553229493E+02 -0.78510399059E+02 -0.72668512481E+03  0.75391152809E+03  0.17200000000E+03 0.  1.
         -6    1    1    2    0  502  0.67553229493E+02  0.78510399059E+02  0.35503057805E+02  0.20389161015E+03  0.17200000000E+03 0.  1.
<mgrwt>
<rscale>  2 0.20077680E+03</rscale>
<asrwt>0</asrwt>
<pdfrwt beam="1">  1       21 0.33327635E-01 0.20077680E+03</pdfrwt>
<pdfrwt beam="2">  1       21 0.20612315E+00 0.20077680E+03</pdfrwt>
<totfact> 0.10545201E+03</totfact>
</mgrwt>
</event>
<event>
 4    1  0.1119790E+000  0.2180310E+03  0.7546771E-02  0.1135360E+00
         21   -1    0    0  503  502  0.00000000000E+00  0.00000000000E+00  0.56022703175E+03  0.56022703175E+03  0.00000000000E+00 0.  1.
         21   -1    0    0  501  503 -0.00000000000E+00 -0.00000000000E+00 -0.17634701936E+03  0.17634701936E+03  0.00000000000E+00 0.  1.
          6    1    1    2  501    0 -0.70535602420E+01  0.13380493102E+03 -0.73334982539E+02  0.23003376261E+03  0.17200000000E+03 0.  1.
         -6    1    1    2    0  502  0.70535602420E+01 -0.13380493102E+03  0.45721499493E+03  0.50654028849E+03  0.17200000000E+03 0.  1.
<mgrwt>
<rscale>  2 0.21803099E+03</rscale>
<asrwt>0</asrwt>
<pdfrwt beam="1">  1       21 0.14005675E+00 0.21803099E+03</pdfrwt>
<pdfrwt beam="2">  1       21 0.44086756E-01 0.21803099E+03</pdfrwt>
<totfact> 0.17254905E+03</totfact>
</mgrwt>
</event>
<event>
 4    1  0.1119790E+000  0.2545012E+03  0.7546771E-02  0.1110493E+00
         21   -1    0    0  501  502  0.00000000000E+00  0.00000000000E+00  0.26828556242E+03  0.26828556242E+03  0.00000000000E+00 0. -1.
         21   -1    0    0  502  503 -0.00000000000E+00 -0.00000000000E+00 -0.24147160749E+03  0.24147160749E+03  0.00000000000E+00 0.  1.
          6    1    1    2  501    0  0.60865266833E+02  0.17743244706E+03  0.16946286262E+02  0.25506475765E+03  0.17200000000E+03 0. -1.
         -6    1    1    2    0  503 -0.60865266833E+02 -0.17743244706E+03  0.98676686711E+01  0.25469241226E+03  0.17200000000E+03 0.  1.
<mgrwt>
<rscale>  2 0.25450119E+03</rscale>
<asrwt>0</asrwt>
<pdfrwt beam="1">  1       21 0.67071391E-01 0.25450119E+03</pdfrwt>
<pdfrwt beam="2">  1       21 0.60367902E-01 0.25450119E+03</pdfrwt>
<totfact> 0.49859242E+03</totfact>
</mgrwt>
</event>
<event>
 4    1  0.1119790E+000  0.1866119E+03  0.7546771E-02  0.1161553E+00
         21   -1    0    0  503  502  0.00000000000E+00  0.00000000000E+00  0.22196361538E+03  0.22196361538E+03  0.00000000000E+00 0.  1.
         21   -1    0    0  501  503 -0.00000000000E+00 -0.00000000000E+00 -0.18624270195E+03  0.18624270195E+03  0.00000000000E+00 0.  1.
          6    1    1    2  501    0 -0.55668308582E+02 -0.46271213594E+02 -0.63166649922E+02  0.19701271901E+03  0.17200000000E+03 0.  1.
         -6    1    1    2    0  502  0.55668308582E+02  0.46271213594E+02  0.98887563353E+02  0.21119359833E+03  0.17200000000E+03 0.  1.
<mgrwt>
<rscale>  2 0.18661186E+03</rscale>
<asrwt>0</asrwt>
<pdfrwt beam="1">  1       21 0.55490904E-01 0.18661186E+03</pdfrwt>
<pdfrwt beam="2">  1       21 0.46560675E-01 0.18661186E+03</pdfrwt>
<totfact> 0.13574868E+04</totfact>
</mgrwt>
</event>
<event>
 4    1  0.1119790E+000  0.2209653E+03  0.7546771E-02  0.1133165E+00
         21   -1    0    0  501  502  0.00000000000E+00  0.00000000000E+00  0.21982146795E+03  0.21982146795E+03  0.00000000000E+00 0. -1.
         21   -1    0    0  502  503 -0.00000000000E+00 -0.00000000000E+00 -0.51022463686E+03  0.51022463686E+03  0.00000000000E+00 0. -1.
          6    1    1    2  501    0  0.50303380302E+02  0.12927195154E+03  0.12909373463E+03  0.25591182045E+03  0.17200000000E+03 0. -1.
         -6    1    1    2    0  503 -0.50303380302E+02 -0.12927195154E+03 -0.41949690354E+03  0.47413428436E+03  0.17200000000E+03 0. -1.
<mgrwt>
<rscale>  2 0.22096531E+03</rscale>
<asrwt>0</asrwt>
<pdfrwt beam="1">  1       21 0.54955367E-01 0.22096531E+03</pdfrwt>
<pdfrwt beam="2">  1       21 0.12755616E+00 0.22096531E+03</pdfrwt>
<totfact> 0.13796155E+03</totfact>
</mgrwt>
</event>
<event>
 4    1  0.1119790E+000  0.2852340E+03  0.7546771E-02  0.1092864E+00
         21   -1    0    0  503  502  0.00000000000E+00  0.00000000000E+00  0.46424752396E+03  0.46424752396E+03  0.00000000000E+00 0.  1.
         21   -1    0    0  501  503 -0.00000000000E+00 -0.00000000000E+00 -0.23477039613E+03  0.23477039613E+03  0.00000000000E+00 0.  1.
          6    1    1    2  501    0 -0.10481306091E+03 -0.20196200131E+03 -0.61246992735E+02  0.29173553405E+03  0.17200000000E+03 0.  1.
         -6    1    1    2    0  502  0.10481306091E+03  0.20196200131E+03  0.29072412056E+03  0.40728238605E+03  0.17200000000E+03 0.  1.
<mgrwt>
<rscale>  2 0.28523399E+03</rscale>
<asrwt>0</asrwt>
<pdfrwt beam="1">  1       21 0.11606188E+00 0.28523399E+03</pdfrwt>
<pdfrwt beam="2">  1       21 0.58692600E-01 0.28523399E+03</pdfrwt>
<totfact> 0.14460765E+03</totfact>
</mgrwt>
</event>
<event>
 4    1  0.1119790E+000  0.2453555E+03  0.7546771E-02  0.1116276E+00
         21   -1    0    0  501  502  0.00000000000E+00  0.00000000000E+00  0.61656442830E+03  0.61656442830E+03  0.00000000000E+00 0.  1.
         21   -1    0    0  502  503 -0.00000000000E+00 -0.00000000000E+00 -0.26174557025E+03  0.26174557025E+03  0.00000000000E+00 0.  1.
          6    1    1    2  501    0  0.12688782532E+03 -0.12047731612E+03  0.52514107389E+03  0.57963130643E+03  0.17200000000E+03 0.  1.
         -6    1    1    2    0  503 -0.12688782532E+03  0.12047731612E+03 -0.17032221584E+03  0.29867869211E+03  0.17200000000E+03 0.  1.
<mgrwt>
<rscale>  2 0.24535546E+03</rscale>
<asrwt>0</asrwt>
<pdfrwt beam="1">  1       21 0.15414110E+00 0.24535546E+03</pdfrwt>
<pdfrwt beam="2">  1       21 0.65436394E-01 0.24535546E+03</pdfrwt>
<totfact> 0.56637357E+02</totfact>
</mgrwt>
</event>
<event>
 4    1  0.1119790E+000  0.1890750E+03  0.7546771E-02  0.1159298E+00
         21   -1    0    0  503  502  0.00000000000E+00  0.00000000000E+00  0.19931860065E+03  0.19931860065E+03  0.00000000000E+00 0.  1.
         21   -1    0    0  501  503 -0.00000000000E+00 -0.00000000000E+00 -0.21555974593E+03  0.21555974593E+03  0.00000000000E+00 0.  1.
          6    1    1    2  501    0  0.77421767574E+02 -0.13085061588E+02 -0.93131117993E+02  0.21076706116E+03  0.17200000000E+03 0.  1.
         -6    1    1    2    0  502 -0.77421767574E+02  0.13085061588E+02  0.76889972713E+02  0.20411128542E+03  0.17200000000E+03 0.  1.
<mgrwt>
<rscale>  2 0.18907498E+03</rscale>
<asrwt>0</asrwt>
<pdfrwt beam="1">  1       21 0.49829650E-01 0.18907498E+03</pdfrwt>
<pdfrwt beam="2">  1       21 0.53889936E-01 0.18907498E+03</pdfrwt>
<totfact> 0.12526547E+04</totfact>
</mgrwt>
</event>
<event>
 4    1  0.1119790E+000  0.1828979E+03  0.7546771E-02  0.1165028E+00
         21   -1    0    0  501  502  0.00000000000E+00  0.00000000000E+00  0.44330803641E+03  0.44330803641E+03  0.00000000000E+00 0.  1.
         21   -1    0    0  502  503 -0.00000000000E+00 -0.00000000000E+00 -0.10843513479E+03  0.10843513479E+03  0.00000000000E+00 0.  1.
          6    1    1    2  501    0  0.56810404295E+02  0.25302723608E+02  0.31956853426E+03  0.36820605365E+03  0.17200000000E+03 0.  1.
         -6    1    1    2    0  503 -0.56810404295E+02 -0.25302723608E+02  0.15304367365E+02  0.18353711755E+03  0.17200000000E+03 0.  1.
<mgrwt>
<rscale>  2 0.18289792E+03</rscale>
<asrwt>0</asrwt>
<pdfrwt beam="1">  1       21 0.11082700E+00 0.18289792E+03</pdfrwt>
<pdfrwt beam="2">  1       21 0.27108785E-01 0.18289792E+03</pdfrwt>
<totfact> 0.83778492E+03</totfact>
</mgrwt>
</event>
<event>
 4    1  0.1119790E+000  0.1957631E+03  0.7546771E-02  0.1153364E+00
         21   -1    0    0  501  502  0.00000000000E+00  0.00000000000E+00  0.33995989189E+02  0.33995989189E+02  0.00000000000E+00 0.  1.
         21   -1    0    0  502  503 -0.00000000000E+00 -0.00000000000E+00 -0.11632216003E+04  0.11632216003E+04  0.00000000000E+00 0.  1.
          6    1    1    2  501    0  0.93468765108E+02 -0.16679322028E+01 -0.45939815822E+03  0.49936946225E+03  0.17200000000E+03 0.  1.
         -6    1    1    2    0  503 -0.93468765108E+02  0.16679322028E+01 -0.66982745290E+03  0.69784812726E+03  0.17200000000E+03 0.  1.
<mgrwt>
<rscale>  2 0.19576310E+03</rscale>
<asrwt>0</asrwt>
<pdfrwt beam="1">  1       21 0.84989977E-02 0.19576310E+03</pdfrwt>
<pdfrwt beam="2">  1       21 0.29080539E+00 0.19576310E+03</pdfrwt>
<totfact> 0.41488059E+03</totfact>
</mgrwt>
</event>
<event>
 4    1  0.1119790E+000  0.1806524E+03  0.7546771E-02  0.1167173E+00
         21   -1    0    0  503  502  0.00000000000E+00  0.00000000000E+00  0.42634452593E+03  0.42634452593E+03  0.00000000000E+00 0. -1.
         21   -1    0    0  501  503 -0.00000000000E+00 -0.00000000000E+00 -0.76612556598E+02  0.76612556598E+02  0.00000000000E+00 0. -1.
          6    1    1    2  501    0  0.52245528870E+02  0.17935874954E+02  0.18223589180E+03  0.25660321736E+03  0.17200000000E+03 0. -1.
         -6    1    1    2    0  502 -0.52245528870E+02 -0.17935874954E+02  0.16749607753E+03  0.24635386517E+03  0.17200000000E+03 0. -1.
<mgrwt>
<rscale>  2 0.18065240E+03</rscale>
<asrwt>0</asrwt>
<pdfrwt beam="1">  1       21 0.10658612E+00 0.18065240E+03</pdfrwt>
<pdfrwt beam="2">  1       21 0.19153140E-01 0.18065240E+03</pdfrwt>
<totfact> 0.17770030E+04</totfact>
</mgrwt>
</event>
<event>
 4    1  0.1119790E+000  0.2370766E+03  0.7546771E-02  0.1121756E+00
         21   -1    0    0  501  502  0.00000000000E+00  0.00000000000E+00  0.13497294006E+03  0.13497294006E+03  0.00000000000E+00 0.  1.
         21   -1    0    0  502  503 -0.00000000000E+00 -0.00000000000E+00 -0.48880135203E+03  0.48880135203E+03  0.00000000000E+00 0. -1.
          6    1    1    2  501    0 -0.16306802626E+03  0.54894618897E+01 -0.56895978629E+02  0.24380826025E+03  0.17200000000E+03 0.  1.
         -6    1    1    2    0  503  0.16306802626E+03 -0.54894618897E+01 -0.29693243334E+03  0.37996603184E+03  0.17200000000E+03 0. -1.
<mgrwt>
<rscale>  2 0.23707660E+03</rscale>
<asrwt>0</asrwt>
<pdfrwt beam="1">  1       21 0.33743235E-01 0.23707660E+03</pdfrwt>
<pdfrwt beam="2">  1       21 0.12220034E+00 0.23707660E+03</pdfrwt>
<totfact> 0.41264374E+03</totfact>
</mgrwt>
</event>
<event>
 4    1  0.1119790E+000  0.2016671E+03  0.7546771E-02  0.1148340E+00
         21   -1    0    0  501  502  0.00000000000E+00  0.00000000000E+00  0.44839741052E+03  0.44839741052E+03  0.00000000000E+00 0. -1.
         21   -1    0    0  502  503 -0.00000000000E+00 -0.00000000000E+00 -0.10038411725E+03  0.10038411725E+03  0.00000000000E+00 0.  1.
          6    1    1    2  501    0 -0.32733374070E+02  0.10007069830E+03  0.25923190788E+03  0.32843690490E+03  0.17200000000E+03 0.  1.
         -6    1    1    2    0  503  0.32733374070E+02 -0.10007069830E+03  0.88781385388E+02  0.22034462287E+03  0.17200000000E+03 0.  1.
<mgrwt>
<rscale>  2 0.20166710E+03</rscale>
<asrwt>0</asrwt>
<pdfrwt beam="1">  1       21 0.11209935E+00 0.20166710E+03</pdfrwt>
<pdfrwt beam="2">  1       21 0.25096031E-01 0.20166710E+03</pdfrwt>
<totfact> 0.93193995E+03</totfact>
</mgrwt>
</event>
<event>
 4    1  0.1119790E+000  0.4137488E+03  0.7546771E-02  0.1039120E+00
         21   -1    0    0  503  502  0.00000000000E+00  0.00000000000E+00  0.71334472557E+03  0.71334472557E+03  0.00000000000E+00 0.  1.
         21   -1    0    0  501  503 -0.00000000000E+00 -0.00000000000E+00 -0.47660763455E+03  0.47660763455E+03  0.00000000000E+00 0. -1.
          6    1    1    2  501    0  0.11670309178E+03 -0.35774920363E+03  0.53759847462E+03  0.67838058953E+03  0.17200000000E+03 0.  1.
         -6    1    1    2    0  502 -0.11670309178E+03  0.35774920363E+03 -0.30086138360E+03  0.51157177059E+03  0.17200000000E+03 0. -1.
<mgrwt>
<rscale>  2 0.41374884E+03</rscale>
<asrwt>0</asrwt>
<pdfrwt beam="1">  1       21 0.17833618E+00 0.41374884E+03</pdfrwt>
<pdfrwt beam="2">  1       21 0.11915191E+00 0.41374884E+03</pdfrwt>
<totfact> 0.81553175E+01</totfact>
</mgrwt>
</event>
<event>
 4    1  0.1119790E+000  0.2273305E+03  0.7546771E-02  0.1128533E+00
         21   -1    0    0  501  502  0.00000000000E+00  0.00000000000E+00  0.52459622607E+03  0.52459622607E+03  0.00000000000E+00 0.  1.
         21   -1    0    0  502  503 -0.00000000000E+00 -0.00000000000E+00 -0.13817882768E+03  0.13817882768E+03  0.00000000000E+00 0.  1.
          6    1    1    2  501    0 -0.14319028063E+03  0.39896086535E+02  0.15655796679E+02  0.22786894953E+03  0.17200000000E+03 0.  1.
         -6    1    1    2    0  503  0.14319028063E+03 -0.39896086535E+02  0.37076160171E+03  0.43490610423E+03  0.17200000000E+03 0.  1.
<mgrwt>
<rscale>  2 0.22733050E+03</rscale>
<asrwt>0</asrwt>
<pdfrwt beam="1">  1       21 0.13114905E+00 0.22733050E+03</pdfrwt>
<pdfrwt beam="2">  1       21 0.34544708E-01 0.22733050E+03</pdfrwt>
<totfact> 0.33180946E+03</totfact>
</mgrwt>
</event>
<event>
 4    1  0.1119790E+000  0.1879475E+03  0.7546771E-02  0.1160326E+00
         21   -1    0    0  503  502  0.00000000000E+00  0.00000000000E+00  0.12757003667E+03  0.12757003667E+03  0.00000000000E+00 0. -1.
         21   -1    0    0  501  503 -0.00000000000E+00 -0.00000000000E+00 -0.27715937659E+03  0.27715937659E+03  0.00000000000E+00 0. -1.
          6    1    1    2  501    0 -0.14668393666E+02 -0.74331148030E+02 -0.80972367009E+02  0.20464800404E+03  0.17200000000E+03 0. -1.
         -6    1    1    2    0  502  0.14668393666E+02  0.74331148030E+02 -0.68616972913E+02  0.20008140921E+03  0.17200000000E+03 0. -1.
<mgrwt>
<rscale>  2 0.18794755E+03</rscale>
<asrwt>0</asrwt>
<pdfrwt beam="1">  1       21 0.31892510E-01 0.18794755E+03</pdfrwt>
<pdfrwt beam="2">  1       21 0.69289843E-01 0.18794755E+03</pdfrwt>
<totfact> 0.17967941E+04</totfact>
</mgrwt>
</event>
<event>
 4    1  0.1119790E+000  0.2097169E+03  0.7546771E-02  0.1141790E+00
         21   -1    0    0  501  502  0.00000000000E+00  0.00000000000E+00  0.35778568421E+03  0.35778568421E+03  0.00000000000E+00 0.  1.
         21   -1    0    0  502  503 -0.00000000000E+00 -0.00000000000E+00 -0.13946145069E+03  0.13946145069E+03  0.00000000000E+00 0. -1.
          6    1    1    2  501    0  0.50381989507E+01  0.11988246950E+03  0.19477167076E+03  0.28621179863E+03  0.17200000000E+03 0.  1.
         -6    1    1    2    0  503 -0.50381989507E+01 -0.11988246950E+03  0.23552562761E+02  0.21103533627E+03  0.17200000000E+03 0.  1.
<mgrwt>
<rscale>  2 0.20971693E+03</rscale>
<asrwt>0</asrwt>
<pdfrwt beam="1">  1       21 0.89446419E-01 0.20971693E+03</pdfrwt>
<pdfrwt beam="2">  1       21 0.34865363E-01 0.20971693E+03</pdfrwt>
<totfact> 0.83485939E+03</totfact>
</mgrwt>
</event>
<event>
 4    1  0.1119790E+000  0.1887658E+03  0.7546771E-02  0.1159579E+00
         21   -1    0    0  501  502  0.00000000000E+00  0.00000000000E+00  0.16070328857E+03  0.16070328857E+03  0.00000000000E+00 0. -1.
         21   -1    0    0  502  503 -0.00000000000E+00 -0.00000000000E+00 -0.30387804431E+03  0.30387804431E+03  0.00000000000E+00 0. -1.
          6    1    1    2  501    0 -0.24643965405E+02  0.73764534150E+02 -0.19236435200E+03  0.26951173527E+03  0.17200000000E+03 0. -1.
         -6    1    1    2    0  503  0.24643965405E+02 -0.73764534150E+02  0.49189596263E+02  0.19506959760E+03  0.17200000000E+03 0. -1.
<mgrwt>
<rscale>  2 0.18876581E+03</rscale>
<asrwt>0</asrwt>
<pdfrwt beam="1">  1       21 0.40175822E-01 0.18876581E+03</pdfrwt>
<pdfrwt beam="2">  1       21 0.75969510E-01 0.18876581E+03</pdfrwt>
<totfact> 0.92490153E+03</totfact>
</mgrwt>
</event>
<event>
 4    1  0.1119790E+000  0.2102753E+03  0.7546771E-02  0.1141348E+00
         21   -1    0    0  501  502  0.00000000000E+00  0.00000000000E+00  0.76370451457E+03  0.76370451457E+03  0.00000000000E+00 0.  1.
         21   -1    0    0  502  503 -0.00000000000E+00 -0.00000000000E+00 -0.31923674272E+03  0.31923674272E+03  0.00000000000E+00 0.  1.
          6    1    1    2  501    0  0.11992823157E+03  0.15777302531E+02  0.71215001543E+03  0.74254518279E+03  0.17200000000E+03 0.  1.
         -6    1    1    2    0  503 -0.11992823157E+03 -0.15777302531E+02 -0.26768224359E+03  0.34039607450E+03  0.17200000000E+03 0.  1.
<mgrwt>
<rscale>  2 0.21027531E+03</rscale>
<asrwt>0</asrwt>
<pdfrwt beam="1">  1       21 0.19092613E+00 0.21027531E+03</pdfrwt>
<pdfrwt beam="2">  1       21 0.79809187E-01 0.21027531E+03</pdfrwt>
<totfact> 0.20793515E+02</totfact>
</mgrwt>
</event>
<event>
 4    1  0.1119790E+000  0.1883586E+03  0.7546771E-02  0.1159950E+00
         21   -1    0    0  503  502  0.00000000000E+00  0.00000000000E+00  0.15381252788E+03  0.15381252788E+03  0.00000000000E+00 0. -1.
         21   -1    0    0  501  503 -0.00000000000E+00 -0.00000000000E+00 -0.24947899616E+03  0.24947899616E+03  0.00000000000E+00 0. -1.
          6    1    1    2  501    0  0.64178084265E+02 -0.42144180328E+02 -0.10321008577E+03  0.21478193649E+03  0.17200000000E+03 0. -1.
         -6    1    1    2    0  502 -0.64178084265E+02  0.42144180328E+02  0.75436174925E+01  0.18850958756E+03  0.17200000000E+03 0. -1.
<mgrwt>
<rscale>  2 0.18835859E+03</rscale>
<asrwt>0</asrwt>
<pdfrwt beam="1">  1       21 0.38453132E-01 0.18835859E+03</pdfrwt>
<pdfrwt beam="2">  1       21 0.62369749E-01 0.18835859E+03</pdfrwt>
<totfact> 0.15587882E+04</totfact>
</mgrwt>
</event>
<event>
 4    1  0.1119790E+000  0.2752892E+03  0.7546771E-02  0.1098290E+00
         21   -1    0    0  501  502  0.00000000000E+00  0.00000000000E+00  0.14314985766E+03  0.14314985766E+03  0.00000000000E+00 0.  1.
         21   -1    0    0  502  503 -0.00000000000E+00 -0.00000000000E+00 -0.61283861616E+03  0.61283861616E+03  0.00000000000E+00 0. -1.
          6    1    1    2  501    0  0.18862164862E+03  0.10306307880E+03 -0.37431570802E+03  0.46464650414E+03  0.17200000000E+03 0.  1.
         -6    1    1    2    0  503 -0.18862164862E+03 -0.10306307880E+03 -0.95373050488E+02  0.29134196968E+03  0.17200000000E+03 0.  1.
<mgrwt>
<rscale>  2 0.27528917E+03</rscale>
<asrwt>0</asrwt>
<pdfrwt beam="1">  1       21 0.35787465E-01 0.27528917E+03</pdfrwt>
<pdfrwt beam="2">  1       21 0.15320965E+00 0.27528917E+03</pdfrwt>
<totfact> 0.19894085E+03</totfact>
</mgrwt>
</event>
<event>
 4    1  0.1119790E+000  0.1720966E+03  0.7546771E-02  0.1175679E+00
         21   -1    0    0  503  502  0.00000000000E+00  0.00000000000E+00  0.57483602445E+03  0.57483602445E+03  0.00000000000E+00 0. -1.
         21   -1    0    0  501  503 -0.00000000000E+00 -0.00000000000E+00 -0.53012162502E+02  0.53012162502E+02  0.00000000000E+00 0. -1.
          6    1    1    2  501    0 -0.54531231599E+01 -0.18682237905E+01  0.20829560309E+03  0.27019305150E+03  0.17200000000E+03 0. -1.
         -6    1    1    2    0  502  0.54531231599E+01  0.18682237905E+01  0.31352825885E+03  0.35765513545E+03  0.17200000000E+03 0. -1.
<mgrwt>
<rscale>  2 0.17209656E+03</rscale>
<asrwt>0</asrwt>
<pdfrwt beam="1">  1       21 0.14370899E+00 0.17209656E+03</pdfrwt>
<pdfrwt beam="2">  1       21 0.13253042E-01 0.17209656E+03</pdfrwt>
<totfact> 0.16655494E+04</totfact>
</mgrwt>
</event>
<event>
 4    1  0.1119790E+000  0.2140725E+03  0.7546771E-02  0.1138381E+00
         21   -1    0    0  503  502  0.00000000000E+00  0.00000000000E+00  0.26587833623E+03  0.26587833623E+03  0.00000000000E+00 0. -1.
         21   -1    0    0  501  503 -0.00000000000E+00 -0.00000000000E+00 -0.19130167885E+03  0.19130167885E+03  0.00000000000E+00 0. -1.
          6    1    1    2  501    0 -0.63347007093E+02 -0.11059016351E+03 -0.34639482283E+02  0.21685691436E+03  0.17200000000E+03 0. -1.
         -6    1    1    2    0  502  0.63347007093E+02  0.11059016351E+03  0.10921613966E+03  0.24032310071E+03  0.17200000000E+03 0. -1.
<mgrwt>
<rscale>  2 0.21407248E+03</rscale>
<asrwt>0</asrwt>
<pdfrwt beam="1">  1       21 0.66469584E-01 0.21407248E+03</pdfrwt>
<pdfrwt beam="2">  1       21 0.47825420E-01 0.21407248E+03</pdfrwt>
<totfact> 0.85472316E+03</totfact>
</mgrwt>
</event>
<event>
 4    1  0.1119790E+000  0.1954857E+03  0.7546771E-02  0.1153605E+00
         21   -1    0    0  501  502  0.00000000000E+00  0.00000000000E+00  0.49315927062E+02  0.49315927062E+02  0.00000000000E+00 0. -1.
         21   -1    0    0  502  503 -0.00000000000E+00 -0.00000000000E+00 -0.84976875753E+03  0.84976875753E+03  0.00000000000E+00 0. -1.
          6    1    1    2  501    0  0.53139196099E+01  0.92749137211E+02 -0.53366656323E+03  0.56834377001E+03  0.17200000000E+03 0. -1.
         -6    1    1    2    0  503 -0.53139196099E+01 -0.92749137211E+02 -0.26678626724E+03  0.33074091459E+03  0.17200000000E+03 0. -1.
<mgrwt>
<rscale>  2 0.19548565E+03</rscale>
<asrwt>0</asrwt>
<pdfrwt beam="1">  1       21 0.12328982E-01 0.19548565E+03</pdfrwt>
<pdfrwt beam="2">  1       21 0.21244218E+00 0.19548565E+03</pdfrwt>
<totfact> 0.62470848E+03</totfact>
</mgrwt>
</event>
<event>
 4    1  0.1119790E+000  0.1755358E+03  0.7546771E-02  0.1172195E+00
         21   -1    0    0  503  502  0.00000000000E+00  0.00000000000E+00  0.23172213646E+03  0.23172213646E+03  0.00000000000E+00 0.  1.
         21   -1    0    0  501  503 -0.00000000000E+00 -0.00000000000E+00 -0.16384257671E+03  0.16384257671E+03  0.00000000000E+00 0.  1.
          6    1    1    2  501    0  0.28856353708E+02  0.19902840555E+02 -0.51909914643E+02  0.18305040685E+03  0.17200000000E+03 0.  1.
         -6    1    1    2    0  502 -0.28856353708E+02 -0.19902840555E+02  0.11978947440E+03  0.21251430632E+03  0.17200000000E+03 0.  1.
<mgrwt>
<rscale>  2 0.17553579E+03</rscale>
<asrwt>0</asrwt>
<pdfrwt beam="1">  1       21 0.57930534E-01 0.17553579E+03</pdfrwt>
<pdfrwt beam="2">  1       21 0.40960644E-01 0.17553579E+03</pdfrwt>
<totfact> 0.16211784E+04</totfact>
</mgrwt>
</event>
<event>
 4    1  0.1119790E+000  0.1898652E+03  0.7546771E-02  0.1158583E+00
         21   -1    0    0  501  502  0.00000000000E+00  0.00000000000E+00  0.96013774131E+02  0.96013774131E+02  0.00000000000E+00 0. -1.
         21   -1    0    0  502  503 -0.00000000000E+00 -0.00000000000E+00 -0.39111210420E+03  0.39111210420E+03  0.00000000000E+00 0. -1.
          6    1    1    2  501    0 -0.20815547316E+02 -0.77662705719E+02 -0.98815820066E+02  0.21404053159E+03  0.17200000000E+03 0. -1.
         -6    1    1    2    0  503  0.20815547316E+02  0.77662705719E+02 -0.19628251001E+03  0.27308534674E+03  0.17200000000E+03 0. -1.
<mgrwt>
<rscale>  2 0.18986517E+03</rscale>
<asrwt>0</asrwt>
<pdfrwt beam="1">  1       21 0.24003444E-01 0.18986517E+03</pdfrwt>
<pdfrwt beam="2">  1       21 0.97778025E-01 0.18986517E+03</pdfrwt>
<totfact> 0.14195694E+04</totfact>
</mgrwt>
</event>
<event>
 4    1  0.1119790E+000  0.1963531E+03  0.7546771E-02  0.1152853E+00
         21   -1    0    0  503  502  0.00000000000E+00  0.00000000000E+00  0.42346437677E+03  0.42346437677E+03  0.00000000000E+00 0.  1.
         21   -1    0    0  501  503 -0.00000000000E+00 -0.00000000000E+00 -0.92541911024E+02  0.92541911024E+02  0.00000000000E+00 0.  1.
          6    1    1    2  501    0 -0.36373211512E+02 -0.87450242273E+02  0.13265388562E+03  0.23696330678E+03  0.17200000000E+03 0.  1.
         -6    1    1    2    0  502  0.36373211512E+02  0.87450242273E+02  0.19826858013E+03  0.27904298102E+03  0.17200000000E+03 0.  1.
<mgrwt>
<rscale>  2 0.19635314E+03</rscale>
<asrwt>0</asrwt>
<pdfrwt beam="1">  1       21 0.10586609E+00 0.19635314E+03</pdfrwt>
<pdfrwt beam="2">  1       21 0.23135479E-01 0.19635314E+03</pdfrwt>
<totfact> 0.12541615E+04</totfact>
</mgrwt>
</event>
<event>
 4    1  0.1119790E+000  0.1763200E+03  0.7546771E-02  0.1171413E+00
         21   -1    0    0  501  502  0.00000000000E+00  0.00000000000E+00  0.27269517046E+03  0.27269517046E+03  0.00000000000E+00 0.  1.
         21   -1    0    0  502  503 -0.00000000000E+00 -0.00000000000E+00 -0.17332034135E+03  0.17332034135E+03  0.00000000000E+00 0.  1.
          6    1    1    2  501    0 -0.12313283538E+01 -0.38771360263E+02  0.18014732728E+03  0.25207497708E+03  0.17200000000E+03 0.  1.
         -6    1    1    2    0  503  0.12313283538E+01  0.38771360263E+02 -0.80772498168E+02  0.19394053472E+03  0.17200000000E+03 0.  1.
<mgrwt>
<rscale>  2 0.17631998E+03</rscale>
<asrwt>0</asrwt>
<pdfrwt beam="1">  1       21 0.68173792E-01 0.17631998E+03</pdfrwt>
<pdfrwt beam="2">  1       21 0.43330086E-01 0.17631998E+03</pdfrwt>
<totfact> 0.10170821E+04</totfact>
</mgrwt>
</event>
<event>
 4    1  0.1119790E+000  0.3088951E+03  0.7546771E-02  0.1080877E+00
         21   -1    0    0  503  502  0.00000000000E+00  0.00000000000E+00  0.75814014217E+03  0.75814014217E+03  0.00000000000E+00 0. -1.
         21   -1    0    0  501  503 -0.00000000000E+00 -0.00000000000E+00 -0.25725903656E+03  0.25725903656E+03  0.00000000000E+00 0.  1.
          6    1    1    2  501    0  0.25917699432E+02  0.25526544158E+03 -0.11240756570E+03  0.32871208319E+03  0.17200000000E+03 0.  1.
         -6    1    1    2    0  502 -0.25917699432E+02 -0.25526544158E+03  0.61328867131E+03  0.68668709553E+03  0.17200000000E+03 0. -1.
<mgrwt>
<rscale>  2 0.30889508E+03</rscale>
<asrwt>0</asrwt>
<pdfrwt beam="1">  1       21 0.18953503E+00 0.30889508E+03</pdfrwt>
<pdfrwt beam="2">  1       21 0.64314761E-01 0.30889508E+03</pdfrwt>
<totfact> 0.31242648E+02</totfact>
</mgrwt>
</event>
<event>
 4    1  0.1119790E+000  0.2573357E+03  0.7546771E-02  0.1108755E+00
         21   -1    0    0  501  502  0.00000000000E+00  0.00000000000E+00  0.33961790964E+03  0.33961790964E+03  0.00000000000E+00 0.  1.
         21   -1    0    0  502  503 -0.00000000000E+00 -0.00000000000E+00 -0.22408890513E+03  0.22408890513E+03  0.00000000000E+00 0. -1.
          6    1    1    2  501    0  0.18994451466E+03  0.23637914866E+02  0.15933341611E+03  0.30266946850E+03  0.17200000000E+03 0.  1.
         -6    1    1    2    0  503 -0.18994451466E+03 -0.23637914866E+02 -0.43804411605E+02  0.26103734627E+03  0.17200000000E+03 0. -1.
<mgrwt>
<rscale>  2 0.25733571E+03</rscale>
<asrwt>0</asrwt>
<pdfrwt beam="1">  1       21 0.84904477E-01 0.25733571E+03</pdfrwt>
<pdfrwt beam="2">  1       21 0.56022227E-01 0.25733571E+03</pdfrwt>
<totfact> 0.34362500E+03</totfact>
</mgrwt>
</event>
<event>
 4    1  0.1119790E+000  0.2790913E+03  0.7546771E-02  0.1096186E+00
         21   -1    0    0  501  502  0.00000000000E+00  0.00000000000E+00  0.37577213287E+03  0.37577213287E+03  0.00000000000E+00 0. -1.
         21   -1    0    0  502  503 -0.00000000000E+00 -0.00000000000E+00 -0.35120151070E+03  0.35120151070E+03  0.00000000000E+00 0.  1.
          6    1    1    2  501    0  0.21680771546E+03 -0.36088640016E+02  0.24496881587E+03  0.37135117634E+03  0.17200000000E+03 0. -1.
         -6    1    1    2    0  503 -0.21680771546E+03  0.36088640016E+02 -0.22039819369E+03  0.35562246724E+03  0.17200000000E+03 0.  1.
<mgrwt>
<rscale>  2 0.27909134E+03</rscale>
<asrwt>0</asrwt>
<pdfrwt beam="1">  1       21 0.93943033E-01 0.27909134E+03</pdfrwt>
<pdfrwt beam="2">  1       21 0.87800378E-01 0.27909134E+03</pdfrwt>
<totfact> 0.98318600E+02</totfact>
</mgrwt>
</event>
<event>
 4    1  0.1119790E+000  0.2102809E+03  0.7546771E-02  0.1141344E+00
         21   -1    0    0  503  502  0.00000000000E+00  0.00000000000E+00  0.12186339559E+03  0.12186339559E+03  0.00000000000E+00 0. -1.
         21   -1    0    0  501  503 -0.00000000000E+00 -0.00000000000E+00 -0.61319628278E+03  0.61319628278E+03  0.00000000000E+00 0. -1.
          6    1    1    2  501    0 -0.11614527353E+03  0.33828228606E+02 -0.48050199500E+03  0.52449999124E+03  0.17200000000E+03 0. -1.
         -6    1    1    2    0  502  0.11614527353E+03 -0.33828228606E+02 -0.10830892192E+02  0.21055968712E+03  0.17200000000E+03 0. -1.
<mgrwt>
<rscale>  2 0.21028094E+03</rscale>
<asrwt>0</asrwt>
<pdfrwt beam="1">  1       21 0.30465850E-01 0.21028094E+03</pdfrwt>
<pdfrwt beam="2">  1       21 0.15329907E+00 0.21028094E+03</pdfrwt>
<totfact> 0.28725349E+03</totfact>
</mgrwt>
</event>
<event>
 4    1  0.1119790E+000  0.1730779E+03  0.7546771E-02  0.1174676E+00
         21   -1    0    0  503  502  0.00000000000E+00  0.00000000000E+00  0.36389398939E+03  0.36389398939E+03  0.00000000000E+00 0.  1.
         21   -1    0    0  501  503 -0.00000000000E+00 -0.00000000000E+00 -0.88132789686E+02  0.88132789686E+02  0.00000000000E+00 0.  1.
          6    1    1    2  501    0 -0.30343558425E+01 -0.19046059964E+02  0.79839382341E+02  0.19060505420E+03  0.17200000000E+03 0. -1.
         -6    1    1    2    0  502  0.30343558425E+01  0.19046059964E+02  0.19592181736E+03  0.26142172487E+03  0.17200000000E+03 0. -1.
<mgrwt>
<rscale>  2 0.17307790E+03</rscale>
<asrwt>0</asrwt>
<pdfrwt beam="1">  1       21 0.90973493E-01 0.17307790E+03</pdfrwt>
<pdfrwt beam="2">  1       21 0.22033198E-01 0.17307790E+03</pdfrwt>
<totfact> 0.19965899E+04</totfact>
</mgrwt>
</event>
<event>
 4    1  0.1119790E+000  0.2350931E+03  0.7546771E-02  0.1123105E+00
         21   -1    0    0  501  502  0.00000000000E+00  0.00000000000E+00  0.27421998738E+03  0.27421998738E+03  0.00000000000E+00 0.  1.
         21   -1    0    0  502  503 -0.00000000000E+00 -0.00000000000E+00 -0.28056377521E+03  0.28056377521E+03  0.00000000000E+00 0. -1.
          6    1    1    2  501    0 -0.10570260849E+03  0.12046465909E+03  0.14403630153E+03  0.27570859923E+03  0.17200000000E+03 0.  1.
         -6    1    1    2    0  503  0.10570260849E+03 -0.12046465909E+03 -0.15038008935E+03  0.27907516336E+03  0.17200000000E+03 0. -1.
<mgrwt>
<rscale>  2 0.23509312E+03</rscale>
<asrwt>0</asrwt>
<pdfrwt beam="1">  1       21 0.68554997E-01 0.23509312E+03</pdfrwt>
<pdfrwt beam="2">  1       21 0.70140944E-01 0.23509312E+03</pdfrwt>
<totfact> 0.34632558E+03</totfact>
</mgrwt>
</event>
<event>
 4    1  0.1119790E+000  0.1934863E+03  0.7546771E-02  0.1155354E+00
         21   -1    0    0  503  502  0.00000000000E+00  0.00000000000E+00  0.50534668822E+02  0.50534668822E+02  0.00000000000E+00 0.  1.
         21   -1    0    0  501  503 -0.00000000000E+00 -0.00000000000E+00 -0.74251433438E+03  0.74251433438E+03  0.00000000000E+00 0.  1.
          6    1    1    2  501    0  0.88109863396E+02 -0.94650946653E+01 -0.32703081821E+03  0.37998169970E+03  0.17200000000E+03 0.  1.
         -6    1    1    2    0  502 -0.88109863396E+02  0.94650946653E+01 -0.36494884735E+03  0.41306730350E+03  0.17200000000E+03 0.  1.
<mgrwt>
<rscale>  2 0.19348627E+03</rscale>
<asrwt>0</asrwt>
<pdfrwt beam="1">  1       21 0.12633668E-01 0.19348627E+03</pdfrwt>
<pdfrwt beam="2">  1       21 0.18562858E+00 0.19348627E+03</pdfrwt>
<totfact> 0.89165347E+03</totfact>
</mgrwt>
</event>
<event>
 4    1  0.1119790E+000  0.2356265E+03  0.7546771E-02  0.1122741E+00
         21   -1    0    0  501  502  0.00000000000E+00  0.00000000000E+00  0.95539787210E+02  0.95539787210E+02  0.00000000000E+00 0. -1.
         21   -1    0    0  502  503 -0.00000000000E+00 -0.00000000000E+00 -0.63359782619E+03  0.63359782619E+03  0.00000000000E+00 0. -1.
          6    1    1    2  501    0 -0.15045529398E+03 -0.57437506637E+02 -0.37395186218E+03  0.44199531432E+03  0.17200000000E+03 0. -1.
         -6    1    1    2    0  503  0.15045529398E+03  0.57437506637E+02 -0.16410617681E+03  0.28714229908E+03  0.17200000000E+03 0. -1.
<mgrwt>
<rscale>  2 0.23562653E+03</rscale>
<asrwt>0</asrwt>
<pdfrwt beam="1">  1       21 0.23884947E-01 0.23562653E+03</pdfrwt>
<pdfrwt beam="2">  1       21 0.15839945E+00 0.23562653E+03</pdfrwt>
<totfact> 0.41253990E+03</totfact>
</mgrwt>
</event>
<event>
 4    1  0.1119790E+000  0.1852011E+03  0.7546771E-02  0.1162862E+00
         21   -1    0    0  503  502  0.00000000000E+00  0.00000000000E+00  0.12189627398E+03  0.12189627398E+03  0.00000000000E+00 0. -1.
         21   -1    0    0  501  503 -0.00000000000E+00 -0.00000000000E+00 -0.31127047610E+03  0.31127047610E+03  0.00000000000E+00 0.  1.
          6    1    1    2  501    0  0.58511921986E+02 -0.35941499699E+02 -0.16180013978E+03  0.24592421932E+03  0.17200000000E+03 0.  1.
         -6    1    1    2    0  502 -0.58511921986E+02  0.35941499699E+02 -0.27574062341E+02  0.18724253077E+03  0.17200000000E+03 0. -1.
<mgrwt>
<rscale>  2 0.18520107E+03</rscale>
<asrwt>0</asrwt>
<pdfrwt beam="1">  1       21 0.30474069E-01 0.18520107E+03</pdfrwt>
<pdfrwt beam="2">  1       21 0.77817618E-01 0.18520107E+03</pdfrwt>
<totfact> 0.15200935E+04</totfact>
</mgrwt>
</event>
<event>
 4    1  0.1119790E+000  0.2408024E+03  0.7546771E-02  0.1119259E+00
         21   -1    0    0  501  502  0.00000000000E+00  0.00000000000E+00  0.42784133095E+02  0.42784133095E+02  0.00000000000E+00 0.  1.
         21   -1    0    0  502  503 -0.00000000000E+00 -0.00000000000E+00 -0.13608233200E+04  0.13608233200E+04  0.00000000000E+00 0. -1.
          6    1    1    2  501    0  0.11115962540E+03 -0.12667017326E+03 -0.61435203391E+03  0.65985924005E+03  0.17200000000E+03 0. -1.
         -6    1    1    2    0  503 -0.11115962540E+03  0.12667017326E+03 -0.70368715297E+03  0.74374821302E+03  0.17200000000E+03 0.  1.
<mgrwt>
<rscale>  2 0.24080240E+03</rscale>
<asrwt>0</asrwt>
<pdfrwt beam="1">  1       21 0.10696033E-01 0.24080240E+03</pdfrwt>
<pdfrwt beam="2">  1       21 0.34020583E+00 0.24080240E+03</pdfrwt>
<totfact> 0.13534328E+03</totfact>
</mgrwt>
</event>
<event>
 4    1  0.1119790E+000  0.4175426E+03  0.7546771E-02  0.1037869E+00
         21   -1    0    0  503  502  0.00000000000E+00  0.00000000000E+00  0.38594410799E+03  0.38594410799E+03  0.00000000000E+00 0.  1.
         21   -1    0    0  501  503 -0.00000000000E+00 -0.00000000000E+00 -0.45304983420E+03  0.45304983420E+03  0.00000000000E+00 0. -1.
          6    1    1    2  501    0  0.28145551057E+02  0.37942804701E+03 -0.10894894589E+02  0.41768470600E+03  0.17200000000E+03 0. -1.
         -6    1    1    2    0  502 -0.28145551057E+02 -0.37942804701E+03 -0.56210831623E+02  0.42130923618E+03  0.17200000000E+03 0.  1.
<mgrwt>
<rscale>  2 0.41754259E+03</rscale>
<asrwt>0</asrwt>
<pdfrwt beam="1">  1       21 0.96486027E-01 0.41754259E+03</pdfrwt>
<pdfrwt beam="2">  1       21 0.11326246E+00 0.41754259E+03</pdfrwt>
<totfact> 0.46063191E+02</totfact>
</mgrwt>
</event>
<event>
 4    1  0.1119790E+000  0.2275668E+03  0.7546771E-02  0.1128364E+00
         21   -1    0    0  501  502  0.00000000000E+00  0.00000000000E+00  0.78558264643E+02  0.78558264643E+02  0.00000000000E+00 0. -1.
         21   -1    0    0  502  503 -0.00000000000E+00 -0.00000000000E+00 -0.79242558143E+03  0.79242558143E+03  0.00000000000E+00 0. -1.
          6    1    1    2  501    0 -0.28354196142E+02 -0.14628297563E+03 -0.17837839720E+03  0.28914619483E+03  0.17200000000E+03 0. -1.
         -6    1    1    2    0  503  0.28354196142E+02  0.14628297563E+03 -0.53548891959E+03  0.58183765124E+03  0.17200000000E+03 0. -1.
<mgrwt>
<rscale>  2 0.22756685E+03</rscale>
<asrwt>0</asrwt>
<pdfrwt beam="1">  1       21 0.19639566E-01 0.22756685E+03</pdfrwt>
<pdfrwt beam="2">  1       21 0.19810639E+00 0.22756685E+03</pdfrwt>
<totfact> 0.31932355E+03</totfact>
</mgrwt>
</event>
<event>
 4    1  0.1119790E+000  0.1860710E+03  0.7546771E-02  0.1162054E+00
         21   -1    0    0  503  502  0.00000000000E+00  0.00000000000E+00  0.50060951071E+03  0.50060951071E+03  0.00000000000E+00 0.  1.
         21   -1    0    0  501  503 -0.00000000000E+00 -0.00000000000E+00 -0.77018946188E+02  0.77018946188E+02  0.00000000000E+00 0.  1.
          6    1    1    2  501    0  0.46356111029E+02 -0.53754327615E+02  0.11954080771E+03  0.22116152802E+03  0.17200000000E+03 0.  1.
         -6    1    1    2    0  502 -0.46356111029E+02  0.53754327615E+02  0.30404975681E+03  0.35646692888E+03  0.17200000000E+03 0.  1.
<mgrwt>
<rscale>  2 0.18607100E+03</rscale>
<asrwt>0</asrwt>
<pdfrwt beam="1">  1       21 0.12515237E+00 0.18607100E+03</pdfrwt>
<pdfrwt beam="2">  1       21 0.19254738E-01 0.18607100E+03</pdfrwt>
<totfact> 0.11838058E+04</totfact>
</mgrwt>
</event>
<event>
 4    1  0.1119790E+000  0.2035879E+03  0.7546771E-02  0.1146747E+00
         21   -1    0    0  501  502  0.00000000000E+00  0.00000000000E+00  0.59445517497E+03  0.59445517497E+03  0.00000000000E+00 0. -1.
         21   -1    0    0  502  503 -0.00000000000E+00 -0.00000000000E+00 -0.10356732984E+03  0.10356732984E+03  0.00000000000E+00 0. -1.
          6    1    1    2  501    0 -0.10566797993E+03 -0.26425480526E+02  0.44495271600E+03  0.48931681708E+03  0.17200000000E+03 0. -1.
         -6    1    1    2    0  503  0.10566797993E+03  0.26425480526E+02  0.45935129126E+02  0.20870568773E+03  0.17200000000E+03 0. -1.
<mgrwt>
<rscale>  2 0.20358789E+03</rscale>
<asrwt>0</asrwt>
<pdfrwt beam="1">  1       21 0.14861378E+00 0.20358789E+03</pdfrwt>
<pdfrwt beam="2">  1       21 0.25891834E-01 0.20358789E+03</pdfrwt>
<totfact> 0.42981185E+03</totfact>
</mgrwt>
</event>
<event>
 4    1  0.1119790E+000  0.1819818E+03  0.7546771E-02  0.1165899E+00
         21   -1    0    0  501  502  0.00000000000E+00  0.00000000000E+00  0.35599823562E+03  0.35599823562E+03  0.00000000000E+00 0. -1.
         21   -1    0    0  502  503 -0.00000000000E+00 -0.00000000000E+00 -0.95041838955E+02  0.95041838955E+02  0.00000000000E+00 0. -1.
          6    1    1    2  501    0  0.44971636350E+02 -0.38870798669E+02  0.16331541165E+03  0.24451852844E+03  0.17200000000E+03 0.  1.
         -6    1    1    2    0  503 -0.44971636350E+02  0.38870798669E+02  0.97640985009E+02  0.20652154614E+03  0.17200000000E+03 0.  1.
<mgrwt>
<rscale>  2 0.18198183E+03</rscale>
<asrwt>0</asrwt>
<pdfrwt beam="1">  1       21 0.88999556E-01 0.18198183E+03</pdfrwt>
<pdfrwt beam="2">  1       21 0.23760461E-01 0.18198183E+03</pdfrwt>
<totfact> 0.18109633E+04</totfact>
</mgrwt>
</event>
<event>
 4    1  0.1119790E+000  0.1808322E+03  0.7546771E-02  0.1167000E+00
         21   -1    0    0  501  502  0.00000000000E+00  0.00000000000E+00  0.79452663123E+02  0.79452663123E+02  0.00000000000E+00 0. -1.
         21   -1    0    0  502  503 -0.00000000000E+00 -0.00000000000E+00 -0.53145391681E+03  0.53145391681E+03  0.00000000000E+00 0. -1.
          6    1    1    2  501    0 -0.25044205638E+02 -0.49890740136E+02 -0.80925403923E+02  0.19811415696E+03  0.17200000000E+03 0. -1.
         -6    1    1    2    0  503  0.25044205638E+02  0.49890740136E+02 -0.37107584976E+03  0.41279242297E+03  0.17200000000E+03 0. -1.
<mgrwt>
<rscale>  2 0.18083224E+03</rscale>
<asrwt>0</asrwt>
<pdfrwt beam="1">  1       21 0.19863166E-01 0.18083224E+03</pdfrwt>
<pdfrwt beam="2">  1       21 0.13286348E+00 0.18083224E+03</pdfrwt>
<totfact> 0.96495442E+03</totfact>
</mgrwt>
</event>
<event>
 4    1  0.1119790E+000  0.1952966E+03  0.7546771E-02  0.1153769E+00
         21   -1    0    0  501  502  0.00000000000E+00  0.00000000000E+00  0.37506225484E+03  0.37506225484E+03  0.00000000000E+00 0.  1.
         21   -1    0    0  502  503 -0.00000000000E+00 -0.00000000000E+00 -0.32821219612E+03  0.32821219612E+03  0.00000000000E+00 0. -1.
          6    1    1    2  501    0  0.88892155201E+02 -0.25592047888E+02  0.31555163453E+03  0.37109783376E+03  0.17200000000E+03 0.  1.
         -6    1    1    2    0  503 -0.88892155201E+02  0.25592047888E+02 -0.26870157580E+03  0.33217661719E+03  0.17200000000E+03 0. -1.
<mgrwt>
<rscale>  2 0.19529662E+03</rscale>
<asrwt>0</asrwt>
<pdfrwt beam="1">  1       21 0.93765564E-01 0.19529662E+03</pdfrwt>
<pdfrwt beam="2">  1       21 0.82053049E-01 0.19529662E+03</pdfrwt>
<totfact> 0.12371624E+03</totfact>
</mgrwt>
</event>
<event>
 4    1  0.1119790E+000  0.1723700E+03  0.7546771E-02  0.1175399E+00
         21   -1    0    0  503  502  0.00000000000E+00  0.00000000000E+00  0.53937112509E+03  0.53937112509E+03  0.00000000000E+00 0.  1.
         21   -1    0    0  501  503 -0.00000000000E+00 -0.00000000000E+00 -0.68862297591E+02  0.68862297591E+02  0.00000000000E+00 0.  1.
          6    1    1    2  501    0 -0.87987778352E+01  0.70699785402E+01  0.99226723627E+02  0.19889028576E+03  0.17200000000E+03 0. -1.
         -6    1    1    2    0  502  0.87987778352E+01 -0.70699785402E+01  0.37128210387E+03  0.40934313692E+03  0.17200000000E+03 0. -1.
<mgrwt>
<rscale>  2 0.17236996E+03</rscale>
<asrwt>0</asrwt>
<pdfrwt beam="1">  1       21 0.13484277E+00 0.17236996E+03</pdfrwt>
<pdfrwt beam="2">  1       21 0.17215576E-01 0.17236996E+03</pdfrwt>
<totfact> 0.12189875E+04</totfact>
</mgrwt>
</event>
<event>
 4    1  0.1119790E+000  0.2434078E+03  0.7546771E-02  0.1117543E+00
         21   -1    0    0  503  502  0.00000000000E+00  0.00000000000E+00  0.12209441517E+04  0.12209441517E+04  0.00000000000E+00 0.  1.
         21   -1    0    0  501  503 -0.00000000000E+00 -0.00000000000E+00 -0.48599127591E+02  0.48599127591E+02  0.00000000000E+00 0.  1.
          6    1    1    2  501    0 -0.13540580838E+03  0.10643589628E+03  0.61082364732E+03  0.65753544474E+03  0.17200000000E+03 0.  1.
         -6    1    1    2    0  502  0.13540580838E+03 -0.10643589628E+03  0.56152137674E+03  0.61200783450E+03  0.17200000000E+03 0.  1.
<mgrwt>
<rscale>  2 0.24340775E+03</rscale>
<asrwt>0</asrwt>
<pdfrwt beam="1">  1       21 0.30523594E+00 0.24340775E+03</pdfrwt>
<pdfrwt beam="2">  1       21 0.12149786E-01 0.24340775E+03</pdfrwt>
<totfact> 0.17232437E+03</totfact>
</mgrwt>
</event>
<event>
 4    1  0.1119790E+000  0.2868949E+03  0.7546771E-02  0.1091982E+00
         21   -1    0    0  501  502  0.00000000000E+00  0.00000000000E+00  0.92365910425E+03  0.92365910425E+03  0.00000000000E+00 0. -1.
         21   -1    0    0  502  503 -0.00000000000E+00 -0.00000000000E+00 -0.18445378396E+03  0.18445378396E+03  0.00000000000E+00 0.  1.
          6    1    1    2  501    0  0.52128183402E+02 -0.22362314886E+03  0.76794179170E+03  0.81978244409E+03  0.17200000000E+03 0. -1.
         -6    1    1    2    0  503 -0.52128183402E+02  0.22362314886E+03 -0.28736471404E+02  0.28833044411E+03  0.17200000000E+03 0.  1.
<mgrwt>
<rscale>  2 0.28689486E+03</rscale>
<asrwt>0</asrwt>
<pdfrwt beam="1">  1       21 0.23091476E+00 0.28689486E+03</pdfrwt>
<pdfrwt beam="2">  1       21 0.46113448E-01 0.28689486E+03</pdfrwt>
<totfact> 0.35145245E+02</totfact>
</mgrwt>
</event>
<event>
 4    1  0.1119790E+000  0.1843976E+03  0.7546771E-02  0.1163614E+00
         21   -1    0    0  503  502  0.00000000000E+00  0.00000000000E+00  0.17494247269E+03  0.17494247269E+03  0.00000000000E+00 0.  1.
         21   -1    0    0  501  503 -0.00000000000E+00 -0.00000000000E+00 -0.21486910501E+03  0.21486910501E+03  0.00000000000E+00 0.  1.
          6    1    1    2  501    0  0.50141162593E+02  0.43638663569E+02 -0.80173749536E+02  0.20107287052E+03  0.17200000000E+03 0. -1.
         -6    1    1    2    0  502 -0.50141162593E+02 -0.43638663569E+02  0.40247117208E+02  0.18873870718E+03  0.17200000000E+03 0. -1.
<mgrwt>
<rscale>  2 0.18439758E+03</rscale>
<asrwt>0</asrwt>
<pdfrwt beam="1">  1       21 0.43735618E-01 0.18439758E+03</pdfrwt>
<pdfrwt beam="2">  1       21 0.53717276E-01 0.18439758E+03</pdfrwt>
<totfact> 0.16554701E+04</totfact>
</mgrwt>
</event>
<event>
 4    1  0.1119790E+000  0.1882785E+03  0.7546771E-02  0.1160023E+00
         21   -1    0    0  503  502  0.00000000000E+00  0.00000000000E+00  0.56209384534E+02  0.56209384534E+02  0.00000000000E+00 0. -1.
         21   -1    0    0  501  503 -0.00000000000E+00 -0.00000000000E+00 -0.13175466319E+04  0.13175466319E+04  0.00000000000E+00 0. -1.
          6    1    1    2  501    0  0.24504541140E+01 -0.76542679080E+02 -0.11266214919E+04  0.11422454957E+04  0.17200000000E+03 0. -1.
         -6    1    1    2    0  502 -0.24504541140E+01  0.76542679080E+02 -0.13471575551E+03  0.23151052078E+03  0.17200000000E+03 0. -1.
<mgrwt>
<rscale>  2 0.18827848E+03</rscale>
<asrwt>0</asrwt>
<pdfrwt beam="1">  1       21 0.14052346E-01 0.18827848E+03</pdfrwt>
<pdfrwt beam="2">  1       21 0.32938665E+00 0.18827848E+03</pdfrwt>
<totfact> 0.10261693E+03</totfact>
</mgrwt>
</event>
<event>
 4    1  0.1119790E+000  0.1878423E+03  0.7546771E-02  0.1160422E+00
         21   -1    0    0  503  502  0.00000000000E+00  0.00000000000E+00  0.26731047502E+03  0.26731047502E+03  0.00000000000E+00 0.  1.
         21   -1    0    0  501  503 -0.00000000000E+00 -0.00000000000E+00 -0.15924187565E+03  0.15924187565E+03  0.00000000000E+00 0.  1.
          6    1    1    2  501    0 -0.67335899604E+02 -0.34155384661E+02 -0.34180251123E+02  0.19092669600E+03  0.17200000000E+03 0.  1.
         -6    1    1    2    0  502  0.67335899604E+02  0.34155384661E+02  0.14224885049E+03  0.23562565468E+03  0.17200000000E+03 0.  1.
<mgrwt>
<rscale>  2 0.18784226E+03</rscale>
<asrwt>0</asrwt>
<pdfrwt beam="1">  1       21 0.66827618E-01 0.18784226E+03</pdfrwt>
<pdfrwt beam="2">  1       21 0.39810469E-01 0.18784226E+03</pdfrwt>
<totfact> 0.12516300E+04</totfact>
</mgrwt>
</event>
<event>
 4    1  0.1119790E+000  0.1838245E+03  0.7546771E-02  0.1164152E+00
         21   -1    0    0  501  502  0.00000000000E+00  0.00000000000E+00  0.10196282171E+04  0.10196282171E+04  0.00000000000E+00 0. -1.
         21   -1    0    0  502  503 -0.00000000000E+00 -0.00000000000E+00 -0.61495567142E+02  0.61495567142E+02  0.00000000000E+00 0. -1.
          6    1    1    2  501    0 -0.42473043308E+02  0.49025539074E+02  0.84612483782E+03  0.86586298227E+03  0.17200000000E+03 0. -1.
         -6    1    1    2    0  503  0.42473043308E+02 -0.49025539074E+02  0.11200781216E+03  0.21526080199E+03  0.17200000000E+03 0. -1.
<mgrwt>
<rscale>  2 0.18382454E+03</rscale>
<asrwt>0</asrwt>
<pdfrwt beam="1">  1       21 0.25490700E+00 0.18382454E+03</pdfrwt>
<pdfrwt beam="2">  1       21 0.15373895E-01 0.18382454E+03</pdfrwt>
<totfact> 0.23581584E+03</totfact>
</mgrwt>
</event>
<event>
 4    1  0.1119790E+000  0.2110820E+03  0.7546771E-02  0.1140712E+00
         21   -1    0    0  501  502  0.00000000000E+00  0.00000000000E+00  0.24432641714E+03  0.24432641714E+03  0.00000000000E+00 0.  1.
         21   -1    0    0  502  503 -0.00000000000E+00 -0.00000000000E+00 -0.24964305266E+03  0.24964305266E+03  0.00000000000E+00 0. -1.
          6    1    1    2  501    0 -0.88100262133E+02  0.84911413321E+02  0.12556294755E+03  0.24560467849E+03  0.17200000000E+03 0.  1.
         -6    1    1    2    0  503  0.88100262133E+02 -0.84911413321E+02 -0.13087958307E+03  0.24836479131E+03  0.17200000000E+03 0. -1.
<mgrwt>
<rscale>  2 0.21108198E+03</rscale>
<asrwt>0</asrwt>
<pdfrwt beam="1">  1       21 0.61081604E-01 0.21108198E+03</pdfrwt>
<pdfrwt beam="2">  1       21 0.62410763E-01 0.21108198E+03</pdfrwt>
<totfact> 0.58545046E+03</totfact>
</mgrwt>
</event>
<event>
 4    1  0.1119790E+000  0.3009754E+03  0.7546771E-02  0.1084754E+00
         21   -1    0    0  501  502  0.00000000000E+00  0.00000000000E+00  0.32575983172E+03  0.32575983172E+03  0.00000000000E+00 0. -1.
         21   -1    0    0  502  503 -0.00000000000E+00 -0.00000000000E+00 -0.33146874622E+03  0.33146874622E+03  0.00000000000E+00 0.  1.
          6    1    1    2  501    0  0.14768091933E+03  0.19797099829E+03 -0.13474208116E+03  0.32975991044E+03  0.17200000000E+03 0.  1.
         -6    1    1    2    0  503 -0.14768091933E+03 -0.19797099829E+03  0.12903316665E+03  0.32746866750E+03  0.17200000000E+03 0.  1.
<mgrwt>
<rscale>  2 0.30097536E+03</rscale>
<asrwt>0</asrwt>
<pdfrwt beam="1">  1       21 0.81439958E-01 0.30097536E+03</pdfrwt>
<pdfrwt beam="2">  1       21 0.82867187E-01 0.30097536E+03</pdfrwt>
<totfact> 0.15453572E+03</totfact>
</mgrwt>
</event>
<event>
 4    1  0.1119790E+000  0.1722033E+03  0.7546771E-02  0.1175569E+00
         21   -1    0    0  501  502  0.00000000000E+00  0.00000000000E+00  0.13757309991E+04  0.13757309991E+04  0.00000000000E+00 0. -1.
         21   -1    0    0  502  503 -0.00000000000E+00 -0.00000000000E+00 -0.21668013617E+02  0.21668013617E+02  0.00000000000E+00 0. -1.
          6    1    1    2  501    0  0.72390501974E+01 -0.41912846091E+01  0.72747693062E+03  0.74758053433E+03  0.17200000000E+03 0.  1.
         -6    1    1    2    0  503 -0.72390501974E+01  0.41912846091E+01  0.62658605486E+03  0.64981847839E+03  0.17200000000E+03 0.  1.
<mgrwt>
<rscale>  2 0.17220328E+03</rscale>
<asrwt>0</asrwt>
<pdfrwt beam="1">  1       21 0.34393245E+00 0.17220328E+03</pdfrwt>
<pdfrwt beam="2">  1       21 0.54170081E-02 0.17220328E+03</pdfrwt>
<totfact> 0.45812328E+03</totfact>
</mgrwt>
</event>
<event>
 4    1  0.1119790E+000  0.2611216E+03  0.7546771E-02  0.1106471E+00
         21   -1    0    0  501  502  0.00000000000E+00  0.00000000000E+00  0.66761354642E+03  0.66761354642E+03  0.00000000000E+00 0.  1.
         21   -1    0    0  502  503 -0.00000000000E+00 -0.00000000000E+00 -0.28269906393E+03  0.28269906393E+03  0.00000000000E+00 0.  1.
          6    1    1    2  501    0 -0.12568689958E+03  0.15100766705E+03  0.57220387247E+03  0.62896882586E+03  0.17200000000E+03 0.  1.
         -6    1    1    2    0  503  0.12568689958E+03 -0.15100766705E+03 -0.18728938998E+03  0.32134378450E+03  0.17200000000E+03 0.  1.
<mgrwt>
<rscale>  2 0.26112164E+03</rscale>
<asrwt>0</asrwt>
<pdfrwt beam="1">  1       21 0.16690338E+00 0.26112164E+03</pdfrwt>
<pdfrwt beam="2">  1       21 0.70674767E-01 0.26112164E+03</pdfrwt>
<totfact> 0.37919641E+02</totfact>
</mgrwt>
</event>
<event>
 4    1  0.1119790E+000  0.2159325E+03  0.7546771E-02  0.1136952E+00
         21   -1    0    0  501  502  0.00000000000E+00  0.00000000000E+00  0.80921767064E+02  0.80921767064E+02  0.00000000000E+00 0.  1.
         21   -1    0    0  502  503 -0.00000000000E+00 -0.00000000000E+00 -0.57638033691E+03  0.57638033691E+03  0.00000000000E+00 0.  1.
          6    1    1    2  501    0  0.12649670106E+03 -0.32271432553E+02 -0.24186414184E+03  0.32423004772E+03  0.17200000000E+03 0.  1.
         -6    1    1    2    0  503 -0.12649670106E+03  0.32271432553E+02 -0.25359442800E+03  0.33307205624E+03  0.17200000000E+03 0.  1.
<mgrwt>
<rscale>  2 0.21593254E+03</rscale>
<asrwt>0</asrwt>
<pdfrwt beam="1">  1       21 0.20230442E-01 0.21593254E+03</pdfrwt>
<pdfrwt beam="2">  1       21 0.14409508E+00 0.21593254E+03</pdfrwt>
<totfact> 0.73697808E+03</totfact>
</mgrwt>
</event>
<event>
 4    1  0.1119790E+000  0.2106061E+03  0.7546771E-02  0.1141087E+00
         21   -1    0    0  503  502  0.00000000000E+00  0.00000000000E+00  0.24407189612E+03  0.24407189612E+03  0.00000000000E+00 0.  1.
         21   -1    0    0  501  503 -0.00000000000E+00 -0.00000000000E+00 -0.95048618324E+03  0.95048618324E+03  0.00000000000E+00 0. -1.
          6    1    1    2  501    0  0.18021145497E+02  0.12019216390E+03 -0.89036136240E+03  0.91493074798E+03  0.17200000000E+03 0. -1.
         -6    1    1    2    0  502 -0.18021145497E+02 -0.12019216390E+03  0.18394707528E+03  0.27962733137E+03  0.17200000000E+03 0.  1.
<mgrwt>
<rscale>  2 0.21060607E+03</rscale>
<asrwt>0</asrwt>
<pdfrwt beam="1">  1       21 0.61017975E-01 0.21060607E+03</pdfrwt>
<pdfrwt beam="2">  1       21 0.23762154E+00 0.21060607E+03</pdfrwt>
<totfact> 0.19194328E+02</totfact>
</mgrwt>
</event>
<event>
 4    1  0.1119790E+000  0.2497751E+03  0.7546771E-02  0.1113447E+00
         21   -1    0    0  501  502  0.00000000000E+00  0.00000000000E+00  0.19923097345E+03  0.19923097345E+03  0.00000000000E+00 0.  1.
         21   -1    0    0  502  503 -0.00000000000E+00 -0.00000000000E+00 -0.31316840104E+03  0.31316840104E+03  0.00000000000E+00 0. -1.
          6    1    1    2  501    0  0.28107707681E+02 -0.17892335905E+03 -0.54622229115E+02  0.25567792153E+03  0.17200000000E+03 0. -1.
         -6    1    1    2    0  503 -0.28107707681E+02  0.17892335905E+03 -0.59315198476E+02  0.25672145297E+03  0.17200000000E+03 0. -1.
<mgrwt>
<rscale>  2 0.24977512E+03</rscale>
<asrwt>0</asrwt>
<pdfrwt beam="1">  1       21 0.49807744E-01 0.24977512E+03</pdfrwt>
<pdfrwt beam="2">  1       21 0.78292100E-01 0.24977512E+03</pdfrwt>
<totfact> 0.53299131E+03</totfact>
</mgrwt>
</event>
<event>
 4    1  0.1119790E+000  0.1818363E+03  0.7546771E-02  0.1166038E+00
         21   -1    0    0  501  502  0.00000000000E+00  0.00000000000E+00  0.17126176570E+03  0.17126176570E+03  0.00000000000E+00 0. -1.
         21   -1    0    0  502  503 -0.00000000000E+00 -0.00000000000E+00 -0.32330137897E+03  0.32330137897E+03  0.00000000000E+00 0. -1.
          6    1    1    2  501    0  0.58206313747E+02  0.96162014145E+01  0.80928322028E+02  0.19903225768E+03  0.17200000000E+03 0. -1.
         -6    1    1    2    0  503 -0.58206313747E+02 -0.96162014145E+01 -0.23296793530E+03  0.29553088699E+03  0.17200000000E+03 0. -1.
<mgrwt>
<rscale>  2 0.18183632E+03</rscale>
<asrwt>0</asrwt>
<pdfrwt beam="1">  1       21 0.42815442E-01 0.18183632E+03</pdfrwt>
<pdfrwt beam="2">  1       21 0.80825344E-01 0.18183632E+03</pdfrwt>
<totfact> 0.71073599E+03</totfact>
</mgrwt>
</event>
<event>
 4    1  0.1119790E+000  0.3006542E+03  0.7546771E-02  0.1084914E+00
         21   -1    0    0  503  502  0.00000000000E+00  0.00000000000E+00  0.12571790954E+03  0.12571790954E+03  0.00000000000E+00 0. -1.
         21   -1    0    0  501  503 -0.00000000000E+00 -0.00000000000E+00 -0.72083398547E+03  0.72083398547E+03  0.00000000000E+00 0.  1.
          6    1    1    2  501    0 -0.22949196445E+03  0.90235211830E+02 -0.31882584222E+03  0.43822696502E+03  0.17200000000E+03 0. -1.
         -6    1    1    2    0  502  0.22949196445E+03 -0.90235211830E+02 -0.27629023372E+03  0.40832492999E+03  0.17200000000E+03 0. -1.
<mgrwt>
<rscale>  2 0.30065421E+03</rscale>
<asrwt>0</asrwt>
<pdfrwt beam="1">  1       21 0.31429478E-01 0.30065421E+03</pdfrwt>
<pdfrwt beam="2">  1       21 0.18020849E+00 0.30065421E+03</pdfrwt>
<totfact> 0.16140447E+03</totfact>
</mgrwt>
</event>
<event>
 4    1  0.1119790E+000  0.2095244E+03  0.7546771E-02  0.1141943E+00
         21   -1    0    0  503  502  0.00000000000E+00  0.00000000000E+00  0.89552458865E+03  0.89552458865E+03  0.00000000000E+00 0. -1.
         21   -1    0    0  501  503 -0.00000000000E+00 -0.00000000000E+00 -0.58011876296E+02  0.58011876296E+02  0.00000000000E+00 0. -1.
          6    1    1    2  501    0  0.89288246033E+02 -0.79649724512E+02  0.23107375680E+03  0.31192234703E+03  0.17200000000E+03 0. -1.
         -6    1    1    2    0  502 -0.89288246033E+02  0.79649724512E+02  0.60643895556E+03  0.64161411792E+03  0.17200000000E+03 0. -1.
<mgrwt>
<rscale>  2 0.20952439E+03</rscale>
<asrwt>0</asrwt>
<pdfrwt beam="1">  1       21 0.22388110E+00 0.20952439E+03</pdfrwt>
<pdfrwt beam="2">  1       21 0.14502972E-01 0.20952439E+03</pdfrwt>
<totfact> 0.39073667E+03</totfact>
</mgrwt>
</event>
<event>
 4    1  0.1119790E+000  0.1754750E+03  0.7546771E-02  0.1172256E+00
         21   -1    0    0  501  502  0.00000000000E+00  0.00000000000E+00  0.32855651468E+03  0.32855651468E+03  0.00000000000E+00 0. -1.
         21   -1    0    0  502  503 -0.00000000000E+00 -0.00000000000E+00 -0.16020297797E+03  0.16020297797E+03  0.00000000000E+00 0. -1.
          6    1    1    2  501    0 -0.16991012408E+02 -0.30311687421E+02  0.24160888607E+03  0.29860734540E+03  0.17200000000E+03 0. -1.
         -6    1    1    2    0  503  0.16991012408E+02  0.30311687421E+02 -0.73255349357E+02  0.19015214726E+03  0.17200000000E+03 0. -1.
<mgrwt>
<rscale>  2 0.17547505E+03</rscale>
<asrwt>0</asrwt>
<pdfrwt beam="1">  1       21 0.82139127E-01 0.17547505E+03</pdfrwt>
<pdfrwt beam="2">  1       21 0.40050745E-01 0.17547505E+03</pdfrwt>
<totfact> 0.78833259E+03</totfact>
</mgrwt>
</event>
<event>
 4    1  0.1119790E+000  0.1930836E+03  0.7546771E-02  0.1155709E+00
         21   -1    0    0  501  502  0.00000000000E+00  0.00000000000E+00  0.63998320013E+03  0.63998320013E+03  0.00000000000E+00 0.  1.
         21   -1    0    0  502  503 -0.00000000000E+00 -0.00000000000E+00 -0.30529350364E+03  0.30529350364E+03  0.00000000000E+00 0.  1.
          6    1    1    2  501    0 -0.65384211329E+02 -0.58499292230E+02  0.59250623895E+03  0.62317325479E+03  0.17200000000E+03 0.  1.
         -6    1    1    2    0  503  0.65384211329E+02  0.58499292230E+02 -0.25781654246E+03  0.32210344899E+03  0.17200000000E+03 0.  1.
<mgrwt>
<rscale>  2 0.19308356E+03</rscale>
<asrwt>0</asrwt>
<pdfrwt beam="1">  1       21 0.15999580E+00 0.19308356E+03</pdfrwt>
<pdfrwt beam="2">  1       21 0.76323377E-01 0.19308356E+03</pdfrwt>
<totfact> 0.38467252E+02</totfact>
</mgrwt>
</event>
<event>
 4    1  0.1119790E+000  0.2047833E+03  0.7546771E-02  0.1145765E+00
         21   -1    0    0  501  502  0.00000000000E+00  0.00000000000E+00  0.87100383542E+03  0.87100383542E+03  0.00000000000E+00 0.  1.
         21   -1    0    0  502  503 -0.00000000000E+00 -0.00000000000E+00 -0.48179215534E+02  0.48179215534E+02  0.00000000000E+00 0.  1.
          6    1    1    2  501    0  0.94702524205E+02  0.58169037290E+02  0.42330017355E+03  0.47023317824E+03  0.17200000000E+03 0.  1.
         -6    1    1    2    0  503 -0.94702524205E+02 -0.58169037290E+02  0.39952444634E+03  0.44894987271E+03  0.17200000000E+03 0.  1.
<mgrwt>
<rscale>  2 0.20478331E+03</rscale>
<asrwt>0</asrwt>
<pdfrwt beam="1">  1       21 0.21775091E+00 0.20478331E+03</pdfrwt>
<pdfrwt beam="2">  1       21 0.12044807E-01 0.20478331E+03</pdfrwt>
<totfact> 0.59860913E+03</totfact>
</mgrwt>
</event>
<event>
 4    1  0.1119790E+000  0.2034957E+03  0.7546771E-02  0.1146823E+00
         21   -1    0    0  501  502  0.00000000000E+00  0.00000000000E+00  0.79662664429E+02  0.79662664429E+02  0.00000000000E+00 0. -1.
         21   -1    0    0  502  503 -0.00000000000E+00 -0.00000000000E+00 -0.67505704836E+03  0.67505704836E+03  0.00000000000E+00 0. -1.
          6    1    1    2  501    0  0.57928992311E+02  0.92036486964E+02 -0.11673869137E+03  0.23460265375E+03  0.17200000000E+03 0. -1.
         -6    1    1    2    0  503 -0.57928992311E+02 -0.92036486964E+02 -0.47865569256E+03  0.52011705904E+03  0.17200000000E+03 0. -1.
<mgrwt>
<rscale>  2 0.20349566E+03</rscale>
<asrwt>0</asrwt>
<pdfrwt beam="1">  1       21 0.19915666E-01 0.20349566E+03</pdfrwt>
<pdfrwt beam="2">  1       21 0.16876426E+00 0.20349566E+03</pdfrwt>
<totfact> 0.50178355E+03</totfact>
</mgrwt>
</event>
<event>
 4    1  0.1119790E+000  0.1759667E+03  0.7546771E-02  0.1171765E+00
         21   -1    0    0  503  502  0.00000000000E+00  0.00000000000E+00  0.68051600649E+03  0.68051600649E+03  0.00000000000E+00 0. -1.
         21   -1    0    0  501  503 -0.00000000000E+00 -0.00000000000E+00 -0.50277970497E+02  0.50277970497E+02  0.00000000000E+00 0. -1.
          6    1    1    2  501    0 -0.25878885126E+02 -0.26656375288E+02  0.42774649168E+03  0.46252712373E+03  0.17200000000E+03 0. -1.
         -6    1    1    2    0  502  0.25878885126E+02  0.26656375288E+02  0.20249154431E+03  0.26826685326E+03  0.17200000000E+03 0. -1.
<mgrwt>
<rscale>  2 0.17596670E+03</rscale>
<asrwt>0</asrwt>
<pdfrwt beam="1">  1       21 0.17012897E+00 0.17596670E+03</pdfrwt>
<pdfrwt beam="2">  1       21 0.12569495E-01 0.17596670E+03</pdfrwt>
<totfact> 0.11651457E+04</totfact>
</mgrwt>
</event>
<event>
 4    1  0.1119790E+000  0.1894004E+03  0.7546771E-02  0.1159003E+00
         21   -1    0    0  501  502  0.00000000000E+00  0.00000000000E+00  0.54559830576E+03  0.54559830576E+03  0.00000000000E+00 0. -1.
         21   -1    0    0  502  503 -0.00000000000E+00 -0.00000000000E+00 -0.92266834424E+02  0.92266834424E+02  0.00000000000E+00 0. -1.
          6    1    1    2  501    0 -0.34002067706E+02 -0.71640611386E+02  0.39764579669E+03  0.44044829144E+03  0.17200000000E+03 0. -1.
         -6    1    1    2    0  503  0.34002067706E+02  0.71640611386E+02  0.55685674650E+02  0.19741684875E+03  0.17200000000E+03 0. -1.
<mgrwt>
<rscale>  2 0.18940042E+03</rscale>
<asrwt>0</asrwt>
<pdfrwt beam="1">  1       21 0.13639957E+00 0.18940042E+03</pdfrwt>
<pdfrwt beam="2">  1       21 0.23066710E-01 0.18940042E+03</pdfrwt>
<totfact> 0.67717698E+03</totfact>
</mgrwt>
</event>
<event>
 4    1  0.1119790E+000  0.1878267E+03  0.7546771E-02  0.1160436E+00
         21   -1    0    0  501  502  0.00000000000E+00  0.00000000000E+00  0.19299411554E+03  0.19299411554E+03  0.00000000000E+00 0.  1.
         21   -1    0    0  502  503 -0.00000000000E+00 -0.00000000000E+00 -0.32603552858E+03  0.32603552858E+03  0.00000000000E+00 0.  1.
          6    1    1    2  501    0 -0.59878784559E+02  0.45928091506E+02  0.10549129147E+03  0.21542346902E+03  0.17200000000E+03 0.  1.
         -6    1    1    2    0  503  0.59878784559E+02 -0.45928091506E+02 -0.23853270452E+03  0.30360617509E+03  0.17200000000E+03 0.  1.
<mgrwt>
<rscale>  2 0.18782667E+03</rscale>
<asrwt>0</asrwt>
<pdfrwt beam="1">  1       21 0.48248529E-01 0.18782667E+03</pdfrwt>
<pdfrwt beam="2">  1       21 0.81508881E-01 0.18782667E+03</pdfrwt>
<totfact> 0.54305892E+03</totfact>
</mgrwt>
</event>
<event>
 4    1  0.1119790E+000  0.1739783E+03  0.7546771E-02  0.1173761E+00
         21   -1    0    0  503  502  0.00000000000E+00  0.00000000000E+00  0.17780049764E+03  0.17780049764E+03  0.00000000000E+00 0.  1.
         21   -1    0    0  501  503 -0.00000000000E+00 -0.00000000000E+00 -0.22635207043E+03  0.22635207043E+03  0.00000000000E+00 0.  1.
          6    1    1    2  501    0  0.19069095411E+02  0.17911389885E+02 -0.12488968356E+03  0.21416321194E+03  0.17200000000E+03 0.  1.
         -6    1    1    2    0  502 -0.19069095411E+02 -0.17911389885E+02  0.76338110768E+02  0.18998935613E+03  0.17200000000E+03 0.  1.
<mgrwt>
<rscale>  2 0.17397830E+03</rscale>
<asrwt>0</asrwt>
<pdfrwt beam="1">  1       21 0.44450124E-01 0.17397830E+03</pdfrwt>
<pdfrwt beam="2">  1       21 0.56588018E-01 0.17397830E+03</pdfrwt>
<totfact> 0.14445040E+04</totfact>
</mgrwt>
</event>
<event>
 4    1  0.1119790E+000  0.2222400E+03  0.7546771E-02  0.1132224E+00
         21   -1    0    0  501  502  0.00000000000E+00  0.00000000000E+00  0.27943644511E+03  0.27943644511E+03  0.00000000000E+00 0.  1.
         21   -1    0    0  502  503 -0.00000000000E+00 -0.00000000000E+00 -0.18628304935E+03  0.18628304935E+03  0.00000000000E+00 0. -1.
          6    1    1    2  501    0  0.11060034346E+03  0.87029649815E+02  0.99251998561E+02  0.24339588152E+03  0.17200000000E+03 0.  1.
         -6    1    1    2    0  503 -0.11060034346E+03 -0.87029649815E+02 -0.60986028014E+01  0.22232361295E+03  0.17200000000E+03 0. -1.
<mgrwt>
<rscale>  2 0.22223995E+03</rscale>
<asrwt>0</asrwt>
<pdfrwt beam="1">  1       21 0.69859111E-01 0.22223995E+03</pdfrwt>
<pdfrwt beam="2">  1       21 0.46570763E-01 0.22223995E+03</pdfrwt>
<totfact> 0.80516320E+03</totfact>
</mgrwt>
</event>
<event>
 4    1  0.1119790E+000  0.1755159E+03  0.7546771E-02  0.1172215E+00
         21   -1    0    0  501  502  0.00000000000E+00  0.00000000000E+00  0.72033675287E+03  0.72033675287E+03  0.00000000000E+00 0. -1.
         21   -1    0    0  502  503 -0.00000000000E+00 -0.00000000000E+00 -0.76498027945E+02  0.76498027945E+02  0.00000000000E+00 0. -1.
          6    1    1    2  501    0 -0.33966701142E+02  0.82514217175E+01  0.58648612057E+03  0.61218607659E+03  0.17200000000E+03 0. -1.
         -6    1    1    2    0  503  0.33966701142E+02 -0.82514217175E+01  0.57352604355E+02  0.18464870423E+03  0.17200000000E+03 0. -1.
<mgrwt>
<rscale>  2 0.17551588E+03</rscale>
<asrwt>0</asrwt>
<pdfrwt beam="1">  1       21 0.18008417E+00 0.17551588E+03</pdfrwt>
<pdfrwt beam="2">  1       21 0.19124509E-01 0.17551588E+03</pdfrwt>
<totfact> 0.46329034E+03</totfact>
</mgrwt>
</event>
<event>
 4    1  0.1119790E+000  0.2135676E+03  0.7546771E-02  0.1138772E+00
         21   -1    0    0  501  502  0.00000000000E+00  0.00000000000E+00  0.33993853531E+03  0.33993853531E+03  0.00000000000E+00 0.  1.
         21   -1    0    0  502  503 -0.00000000000E+00 -0.00000000000E+00 -0.16328181212E+03  0.16328181212E+03  0.00000000000E+00 0. -1.
          6    1    1    2  501    0  0.13301895299E+02  0.12589752212E+03 -0.17904624401E+02  0.21431682638E+03  0.17200000000E+03 0. -1.
         -6    1    1    2    0  503 -0.13301895299E+02 -0.12589752212E+03  0.19456134759E+03  0.28890352104E+03  0.17200000000E+03 0.  1.
<mgrwt>
<rscale>  2 0.21356762E+03</rscale>
<asrwt>0</asrwt>
<pdfrwt beam="1">  1       21 0.84984633E-01 0.21356762E+03</pdfrwt>
<pdfrwt beam="2">  1       21 0.40820454E-01 0.21356762E+03</pdfrwt>
<totfact> 0.68252578E+03</totfact>
</mgrwt>
</event>
<event>
 4    1  0.1119790E+000  0.2009895E+03  0.7546771E-02  0.1148907E+00
         21   -1    0    0  501  502  0.00000000000E+00  0.00000000000E+00  0.21552691069E+03  0.21552691069E+03  0.00000000000E+00 0.  1.
         21   -1    0    0  502  503 -0.00000000000E+00 -0.00000000000E+00 -0.27762317266E+03  0.27762317266E+03  0.00000000000E+00 0.  1.
          6    1    1    2  501    0 -0.85370915511E+02  0.59368171350E+02  0.10949246442E+03  0.22887851090E+03  0.17200000000E+03 0.  1.
         -6    1    1    2    0  503  0.85370915511E+02 -0.59368171350E+02 -0.17158872639E+03  0.26427157246E+03  0.17200000000E+03 0.  1.
<mgrwt>
<rscale>  2 0.20098948E+03</rscale>
<asrwt>0</asrwt>
<pdfrwt beam="1">  1       21 0.53881728E-01 0.20098948E+03</pdfrwt>
<pdfrwt beam="2">  1       21 0.69405792E-01 0.20098948E+03</pdfrwt>
<totfact> 0.61117476E+03</totfact>
</mgrwt>
</event>
<event>
 4    1  0.1119790E+000  0.1804968E+03  0.7546771E-02  0.1167323E+00
         21   -1    0    0  501  502  0.00000000000E+00  0.00000000000E+00  0.13305970493E+03  0.13305970493E+03  0.00000000000E+00 0. -1.
         21   -1    0    0  502  503 -0.00000000000E+00 -0.00000000000E+00 -0.25596939404E+03  0.25596939404E+03  0.00000000000E+00 0.  1.
          6    1    1    2  501    0 -0.53919228604E+02  0.93707059470E+01 -0.10200411698E+03  0.20732566948E+03  0.17200000000E+03 0.  1.
         -6    1    1    2    0  503  0.53919228604E+02 -0.93707059470E+01 -0.20905572138E+02  0.18170342949E+03  0.17200000000E+03 0. -1.
<mgrwt>
<rscale>  2 0.18049680E+03</rscale>
<asrwt>0</asrwt>
<pdfrwt beam="1">  1       21 0.33264927E-01 0.18049680E+03</pdfrwt>
<pdfrwt beam="2">  1       21 0.63992348E-01 0.18049680E+03</pdfrwt>
<totfact> 0.19765391E+04</totfact>
</mgrwt>
</event>
<event>
 4    1  0.1119790E+000  0.1765132E+03  0.7546771E-02  0.1171221E+00
         21   -1    0    0  501  502  0.00000000000E+00  0.00000000000E+00  0.15427313538E+04  0.15427313538E+04  0.00000000000E+00 0.  1.
         21   -1    0    0  502  503 -0.00000000000E+00 -0.00000000000E+00 -0.20450855813E+02  0.20450855813E+02  0.00000000000E+00 0.  1.
          6    1    1    2  501    0 -0.38702823098E+02  0.86593898127E+01  0.84840347375E+03  0.86657102872E+03  0.17200000000E+03 0.  1.
         -6    1    1    2    0  503  0.38702823098E+02 -0.86593898127E+01  0.67387702423E+03  0.69661118088E+03  0.17200000000E+03 0.  1.
<mgrwt>
<rscale>  2 0.17651315E+03</rscale>
<asrwt>0</asrwt>
<pdfrwt beam="1">  1       21 0.38568244E+00 0.17651315E+03</pdfrwt>
<pdfrwt beam="2">  1       21 0.51127192E-02 0.17651315E+03</pdfrwt>
<totfact> 0.28322065E+03</totfact>
</mgrwt>
</event>
<event>
 4    1  0.1119790E+000  0.2552529E+03  0.7546771E-02  0.1110029E+00
         21   -1    0    0  501  502  0.00000000000E+00  0.00000000000E+00  0.75857078141E+03  0.75857078141E+03  0.00000000000E+00 0. -1.
         21   -1    0    0  502  503 -0.00000000000E+00 -0.00000000000E+00 -0.38705222606E+03  0.38705222606E+03  0.00000000000E+00 0. -1.
          6    1    1    2  501    0 -0.17417088372E+03  0.72350201328E+02  0.69103311552E+03  0.73666872821E+03  0.17200000000E+03 0. -1.
         -6    1    1    2    0  503  0.17417088372E+03 -0.72350201328E+02 -0.31951456017E+03  0.40895427927E+03  0.17200000000E+03 0. -1.
<mgrwt>
<rscale>  2 0.25525291E+03</rscale>
<asrwt>0</asrwt>
<pdfrwt beam="1">  1       21 0.18964269E+00 0.25525291E+03</pdfrwt>
<pdfrwt beam="2">  1       21 0.96763058E-01 0.25525291E+03</pdfrwt>
<totfact> 0.12898690E+02</totfact>
</mgrwt>
</event>
<event>
 4    1  0.1119790E+000  0.1874590E+03  0.7546771E-02  0.1160773E+00
         21   -1    0    0  501  502  0.00000000000E+00  0.00000000000E+00  0.12881719733E+04  0.12881719733E+04  0.00000000000E+00 0.  1.
         21   -1    0    0  502  503 -0.00000000000E+00 -0.00000000000E+00 -0.30487719400E+02  0.30487719400E+02  0.00000000000E+00 0.  1.
          6    1    1    2  501    0  0.29970163444E+02  0.68254534345E+02  0.84271787185E+03  0.86331587712E+03  0.17200000000E+03 0.  1.
         -6    1    1    2    0  503 -0.29970163444E+02 -0.68254534345E+02  0.41496638209E+03  0.45534381561E+03  0.17200000000E+03 0.  1.
<mgrwt>
<rscale>  2 0.18745904E+03</rscale>
<asrwt>0</asrwt>
<pdfrwt beam="1">  1       21 0.32204281E+00 0.18745904E+03</pdfrwt>
<pdfrwt beam="2">  1       21 0.76219342E-02 0.18745904E+03</pdfrwt>
<totfact> 0.33469510E+03</totfact>
</mgrwt>
</event>
<event>
 4    1  0.1119790E+000  0.1798194E+03  0.7546771E-02  0.1167978E+00
         21   -1    0    0  501  502  0.00000000000E+00  0.00000000000E+00  0.67623881901E+02  0.67623881901E+02  0.00000000000E+00 0.  1.
         21   -1    0    0  502  503 -0.00000000000E+00 -0.00000000000E+00 -0.66502379541E+03  0.66502379541E+03  0.00000000000E+00 0. -1.
          6    1    1    2  501    0  0.50863208083E+02  0.12804959912E+02 -0.10451784781E+03  0.20798801274E+03  0.17200000000E+03 0.  1.
         -6    1    1    2    0  503 -0.50863208083E+02 -0.12804959912E+02 -0.49288206570E+03  0.52465966457E+03  0.17200000000E+03 0. -1.
<mgrwt>
<rscale>  2 0.17981945E+03</rscale>
<asrwt>0</asrwt>
<pdfrwt beam="1">  1       21 0.16905970E-01 0.17981945E+03</pdfrwt>
<pdfrwt beam="2">  1       21 0.16625595E+00 0.17981945E+03</pdfrwt>
<totfact> 0.72256486E+03</totfact>
</mgrwt>
</event>
<event>
 4    1  0.1119790E+000  0.1986649E+03  0.7546771E-02  0.1150870E+00
         21   -1    0    0  501  502  0.00000000000E+00  0.00000000000E+00  0.67948239676E+02  0.67948239676E+02  0.00000000000E+00 0. -1.
         21   -1    0    0  502  503 -0.00000000000E+00 -0.00000000000E+00 -0.10126143607E+04  0.10126143607E+04  0.00000000000E+00 0. -1.
          6    1    1    2  501    0 -0.32479003903E+02  0.93961986787E+02 -0.11953901281E+03  0.23185624046E+03  0.17200000000E+03 0. -1.
         -6    1    1    2    0  503  0.32479003903E+02 -0.93961986787E+02 -0.82512710822E+03  0.84870635993E+03  0.17200000000E+03 0. -1.
<mgrwt>
<rscale>  2 0.19866490E+03</rscale>
<asrwt>0</asrwt>
<pdfrwt beam="1">  1       21 0.16987060E-01 0.19866490E+03</pdfrwt>
<pdfrwt beam="2">  1       21 0.25315359E+00 0.19866490E+03</pdfrwt>
<totfact> 0.19768996E+03</totfact>
</mgrwt>
</event>
<event>
 4    1  0.1119790E+000  0.1893876E+03  0.7546771E-02  0.1159015E+00
         21   -1    0    0  501  502  0.00000000000E+00  0.00000000000E+00  0.25341402137E+03  0.25341402137E+03  0.00000000000E+00 0.  1.
         21   -1    0    0  502  503 -0.00000000000E+00 -0.00000000000E+00 -0.20076870390E+03  0.20076870390E+03  0.00000000000E+00 0.  1.
          6    1    1    2  501    0 -0.37431714907E+02 -0.69875183728E+02  0.14966909952E+03  0.24138871957E+03  0.17200000000E+03 0.  1.
         -6    1    1    2    0  503  0.37431714907E+02  0.69875183728E+02 -0.97023782052E+02  0.21279400571E+03  0.17200000000E+03 0.  1.
<mgrwt>
<rscale>  2 0.18938763E+03</rscale>
<asrwt>0</asrwt>
<pdfrwt beam="1">  1       21 0.63353505E-01 0.18938763E+03</pdfrwt>
<pdfrwt beam="2">  1       21 0.50192176E-01 0.18938763E+03</pdfrwt>
<totfact> 0.87309087E+03</totfact>
</mgrwt>
</event>
<event>
 4    1  0.1119790E+000  0.2198180E+03  0.7546771E-02  0.1134019E+00
         21   -1    0    0  503  502  0.00000000000E+00  0.00000000000E+00  0.15621197320E+03  0.15621197320E+03  0.00000000000E+00 0. -1.
         21   -1    0    0  501  503 -0.00000000000E+00 -0.00000000000E+00 -0.36204267290E+03  0.36204267290E+03  0.00000000000E+00 0.  1.
          6    1    1    2  501    0 -0.47135606268E+02 -0.12850753417E+03 -0.20179793197E+03  0.29839965996E+03  0.17200000000E+03 0.  1.
         -6    1    1    2    0  502  0.47135606268E+02  0.12850753417E+03 -0.40327677374E+01  0.21985498614E+03  0.17200000000E+03 0. -1.
<mgrwt>
<rscale>  2 0.21981800E+03</rscale>
<asrwt>0</asrwt>
<pdfrwt beam="1">  1       21 0.39052994E-01 0.21981800E+03</pdfrwt>
<pdfrwt beam="2">  1       21 0.90510668E-01 0.21981800E+03</pdfrwt>
<totfact> 0.64265285E+03</totfact>
</mgrwt>
</event>
<event>
 4    1  0.1119790E+000  0.1922905E+03  0.7546771E-02  0.1156412E+00
         21   -1    0    0  501  502  0.00000000000E+00  0.00000000000E+00  0.27461710702E+03  0.27461710702E+03  0.00000000000E+00 0. -1.
         21   -1    0    0  502  503 -0.00000000000E+00 -0.00000000000E+00 -0.29137510794E+03  0.29137510794E+03  0.00000000000E+00 0. -1.
          6    1    1    2  501    0  0.37103849241E+02 -0.77556087589E+02  0.19917511673E+03  0.27685080725E+03  0.17200000000E+03 0. -1.
         -6    1    1    2    0  503 -0.37103849241E+02  0.77556087589E+02 -0.21593311766E+03  0.28914140771E+03  0.17200000000E+03 0. -1.
<mgrwt>
<rscale>  2 0.19229052E+03</rscale>
<asrwt>0</asrwt>
<pdfrwt beam="1">  1       21 0.68654277E-01 0.19229052E+03</pdfrwt>
<pdfrwt beam="2">  1       21 0.72843777E-01 0.19229052E+03</pdfrwt>
<totfact> 0.32821092E+03</totfact>
</mgrwt>
</event>
<event>
 4    1  0.1119790E+000  0.1859650E+03  0.7546771E-02  0.1162152E+00
         21   -1    0    0  501  502  0.00000000000E+00  0.00000000000E+00  0.13706381553E+03  0.13706381553E+03  0.00000000000E+00 0.  1.
         21   -1    0    0  502  503 -0.00000000000E+00 -0.00000000000E+00 -0.13106388317E+04  0.13106388317E+04  0.00000000000E+00 0. -1.
          6    1    1    2  501    0 -0.38186658814E+02  0.59504330342E+02  0.63667931571E+02  0.19656192854E+03  0.17200000000E+03 0.  1.
         -6    1    1    2    0  503  0.38186658814E+02 -0.59504330342E+02 -0.12372429477E+04  0.12511407187E+04  0.17200000000E+03 0. -1.
<mgrwt>
<rscale>  2 0.18596501E+03</rscale>
<asrwt>0</asrwt>
<pdfrwt beam="1">  1       21 0.34265954E-01 0.18596501E+03</pdfrwt>
<pdfrwt beam="2">  1       21 0.32765970E+00 0.18596501E+03</pdfrwt>
<totfact> 0.19609594E+02</totfact>
</mgrwt>
</event>
<event>
 4    1  0.1119790E+000  0.2722841E+03  0.7546771E-02  0.1099979E+00
         21   -1    0    0  503  502  0.00000000000E+00  0.00000000000E+00  0.10157603309E+04  0.10157603309E+04  0.00000000000E+00 0.  1.
         21   -1    0    0  501  503 -0.00000000000E+00 -0.00000000000E+00 -0.35936415373E+03  0.35936415373E+03  0.00000000000E+00 0. -1.
          6    1    1    2  501    0 -0.19490594103E+03 -0.81032730204E+02 -0.28558205356E+03  0.39458299321E+03  0.17200000000E+03 0. -1.
         -6    1    1    2    0  502  0.19490594103E+03  0.81032730204E+02  0.94197823072E+03  0.98054149141E+03  0.17200000000E+03 0.  1.
<mgrwt>
<rscale>  2 0.27228410E+03</rscale>
<asrwt>0</asrwt>
<pdfrwt beam="1">  1       21 0.25394008E+00 0.27228410E+03</pdfrwt>
<pdfrwt beam="2">  1       21 0.89841041E-01 0.27228410E+03</pdfrwt>
<totfact> 0.59725253E+01</totfact>
</mgrwt>
</event>
<event>
 4    1  0.1119790E+000  0.2389479E+03  0.7546771E-02  0.1120496E+00
         21   -1    0    0  501  502  0.00000000000E+00  0.00000000000E+00  0.37194350800E+03  0.37194350800E+03  0.00000000000E+00 0.  1.
         21   -1    0    0  502  503 -0.00000000000E+00 -0.00000000000E+00 -0.16123227381E+03  0.16123227381E+03  0.00000000000E+00 0. -1.
          6    1    1    2  501    0  0.66468175460E+02  0.15196740925E+03  0.16370789120E+03  0.28964872771E+03  0.17200000000E+03 0.  1.
         -6    1    1    2    0  503 -0.66468175460E+02 -0.15196740925E+03  0.47003343000E+02  0.24352705410E+03  0.17200000000E+03 0. -1.
<mgrwt>
<rscale>  2 0.23894793E+03</rscale>
<asrwt>0</asrwt>
<pdfrwt beam="1">  1       21 0.92985875E-01 0.23894793E+03</pdfrwt>
<pdfrwt beam="2">  1       21 0.40308069E-01 0.23894793E+03</pdfrwt>
<totfact> 0.55877569E+03</totfact>
</mgrwt>
</event>
<event>
 4    1  0.1119790E+000  0.1813569E+03  0.7546771E-02  0.1166496E+00
         21   -1    0    0  503  502  0.00000000000E+00  0.00000000000E+00  0.75240441804E+03  0.75240441804E+03  0.00000000000E+00 0.  1.
         21   -1    0    0  501  503 -0.00000000000E+00 -0.00000000000E+00 -0.43813950125E+02  0.43813950125E+02  0.00000000000E+00 0.  1.
          6    1    1    2  501    0 -0.10545765394E+02 -0.56525343997E+02  0.33524536820E+03  0.38115585340E+03  0.17200000000E+03 0. -1.
         -6    1    1    2    0  502  0.10545765394E+02  0.56525343997E+02  0.37334509972E+03  0.41506251477E+03  0.17200000000E+03 0. -1.
<mgrwt>
<rscale>  2 0.18135691E+03</rscale>
<asrwt>0</asrwt>
<pdfrwt beam="1">  1       21 0.18810106E+00 0.18135691E+03</pdfrwt>
<pdfrwt beam="2">  1       21 0.10953490E-01 0.18135691E+03</pdfrwt>
<totfact> 0.11188578E+04</totfact>
</mgrwt>
</event>
<event>
 4    1  0.1119790E+000  0.2136601E+03  0.7546771E-02  0.1138700E+00
         21   -1    0    0  503  502  0.00000000000E+00  0.00000000000E+00  0.12150036344E+03  0.12150036344E+03  0.00000000000E+00 0.  1.
         21   -1    0    0  501  503 -0.00000000000E+00 -0.00000000000E+00 -0.39476550611E+03  0.39476550611E+03  0.00000000000E+00 0. -1.
          6    1    1    2  501    0  0.39696112536E+02 -0.12037790937E+03 -0.79940463546E+02  0.22812518521E+03  0.17200000000E+03 0. -1.
         -6    1    1    2    0  502 -0.39696112536E+02  0.12037790937E+03 -0.19332467912E+03  0.28814068434E+03  0.17200000000E+03 0.  1.
<mgrwt>
<rscale>  2 0.21366006E+03</rscale>
<asrwt>0</asrwt>
<pdfrwt beam="1">  1       21 0.30375091E-01 0.21366006E+03</pdfrwt>
<pdfrwt beam="2">  1       21 0.98691376E-01 0.21366006E+03</pdfrwt>
<totfact> 0.86791621E+03</totfact>
</mgrwt>
</event>
<event>
 4    1  0.1119790E+000  0.3314202E+03  0.7546771E-02  0.1070510E+00
         21   -1    0    0  503  502  0.00000000000E+00  0.00000000000E+00  0.49114567310E+03  0.49114567310E+03  0.00000000000E+00 0. -1.
         21   -1    0    0  501  503 -0.00000000000E+00 -0.00000000000E+00 -0.25447206202E+03  0.25447206202E+03  0.00000000000E+00 0. -1.
          6    1    1    2  501    0 -0.85578219018E+02 -0.27005876790E+03 -0.11433073009E+02  0.33161737718E+03  0.17200000000E+03 0. -1.
         -6    1    1    2    0  502  0.85578219018E+02  0.27005876790E+03  0.24810668409E+03  0.41400035795E+03  0.17200000000E+03 0. -1.
<mgrwt>
<rscale>  2 0.33142023E+03</rscale>
<asrwt>0</asrwt>
<pdfrwt beam="1">  1       21 0.12278642E+00 0.33142023E+03</pdfrwt>
<pdfrwt beam="2">  1       21 0.63618016E-01 0.33142023E+03</pdfrwt>
<totfact> 0.10237989E+03</totfact>
</mgrwt>
</event>
<event>
 4    1  0.1119790E+000  0.1813330E+03  0.7546771E-02  0.1166519E+00
         21   -1    0    0  501  502  0.00000000000E+00  0.00000000000E+00  0.15646042484E+03  0.15646042484E+03  0.00000000000E+00 0.  1.
         21   -1    0    0  502  503 -0.00000000000E+00 -0.00000000000E+00 -0.45208511633E+03  0.45208511633E+03  0.00000000000E+00 0.  1.
          6    1    1    2  501    0  0.47075294165E+02  0.32887402920E+02  0.74771580096E+02  0.19614396188E+03  0.17200000000E+03 0.  1.
         -6    1    1    2    0  503 -0.47075294165E+02 -0.32887402920E+02 -0.37039627159E+03  0.41240157929E+03  0.17200000000E+03 0.  1.
<mgrwt>
<rscale>  2 0.18133302E+03</rscale>
<asrwt>0</asrwt>
<pdfrwt beam="1">  1       21 0.39115107E-01 0.18133302E+03</pdfrwt>
<pdfrwt beam="2">  1       21 0.11302128E+00 0.18133302E+03</pdfrwt>
<totfact> 0.38909795E+03</totfact>
</mgrwt>
</event>
<event>
 4    1  0.1119790E+000  0.2261476E+03  0.7546771E-02  0.1129381E+00
         21   -1    0    0  503  502  0.00000000000E+00  0.00000000000E+00  0.41491814560E+03  0.41491814560E+03  0.00000000000E+00 0.  1.
         21   -1    0    0  501  503 -0.00000000000E+00 -0.00000000000E+00 -0.17818559619E+03  0.17818559619E+03  0.00000000000E+00 0.  1.
          6    1    1    2  501    0  0.93432503184E+02  0.11326567048E+03  0.28301273126E+03  0.36226916901E+03  0.17200000000E+03 0.  1.
         -6    1    1    2    0  502 -0.93432503184E+02 -0.11326567048E+03 -0.46280181851E+02  0.23083457278E+03  0.17200000000E+03 0.  1.
<mgrwt>
<rscale>  2 0.22614762E+03</rscale>
<asrwt>0</asrwt>
<pdfrwt beam="1">  1       21 0.10372953E+00 0.22614762E+03</pdfrwt>
<pdfrwt beam="2">  1       21 0.44546400E-01 0.22614762E+03</pdfrwt>
<totfact> 0.35437000E+03</totfact>
</mgrwt>
</event>
<event>
 4    1  0.1119790E+000  0.2317721E+03  0.7546771E-02  0.1125399E+00
         21   -1    0    0  503  502  0.00000000000E+00  0.00000000000E+00  0.32539368996E+03  0.32539368996E+03  0.00000000000E+00 0.  1.
         21   -1    0    0  501  503 -0.00000000000E+00 -0.00000000000E+00 -0.24824416904E+03  0.24824416904E+03  0.00000000000E+00 0. -1.
          6    1    1    2  501    0  0.31387044339E+02 -0.15214852217E+03  0.20457844178E+03  0.30914504394E+03  0.17200000000E+03 0.  1.
         -6    1    1    2    0  502 -0.31387044339E+02  0.15214852217E+03 -0.12742892086E+03  0.26449281507E+03  0.17200000000E+03 0. -1.
<mgrwt>
<rscale>  2 0.23177213E+03</rscale>
<asrwt>0</asrwt>
<pdfrwt beam="1">  1       21 0.81348422E-01 0.23177213E+03</pdfrwt>
<pdfrwt beam="2">  1       21 0.62061042E-01 0.23177213E+03</pdfrwt>
<totfact> 0.30932390E+03</totfact>
</mgrwt>
</event>
<event>
 4    1  0.1119790E+000  0.1931089E+03  0.7546771E-02  0.1155687E+00
         21   -1    0    0  503  502  0.00000000000E+00  0.00000000000E+00  0.61542421330E+02  0.61542421330E+02  0.00000000000E+00 0.  1.
         21   -1    0    0  501  503 -0.00000000000E+00 -0.00000000000E+00 -0.18254552372E+04  0.18254552372E+04  0.00000000000E+00 0.  1.
          6    1    1    2  501    0  0.29044673040E+02  0.82845866021E+02 -0.16531250144E+04  0.16643657482E+04  0.17200000000E+03 0.  1.
         -6    1    1    2    0  502 -0.29044673040E+02 -0.82845866021E+02 -0.11078780150E+03  0.22263191036E+03  0.17200000000E+03 0.  1.
<mgrwt>
<rscale>  2 0.19310886E+03</rscale>
<asrwt>0</asrwt>
<pdfrwt beam="1">  1       21 0.15385606E-01 0.19310886E+03</pdfrwt>
<pdfrwt beam="2">  1       21 0.45636379E+00 0.19310886E+03</pdfrwt>
<totfact> 0.14121819E+02</totfact>
</mgrwt>
</event>
<event>
 4    1  0.1119790E+000  0.2291883E+03  0.7546771E-02  0.1127212E+00
         21   -1    0    0  503  502  0.00000000000E+00  0.00000000000E+00  0.14945513444E+03  0.14945513444E+03  0.00000000000E+00 0. -1.
         21   -1    0    0  501  503 -0.00000000000E+00 -0.00000000000E+00 -0.36273413765E+03  0.36273413765E+03  0.00000000000E+00 0. -1.
          6    1    1    2  501    0  0.13324997486E+03  0.72025756969E+02 -0.15179164342E+03  0.27489628676E+03  0.17200000000E+03 0. -1.
         -6    1    1    2    0  502 -0.13324997486E+03 -0.72025756969E+02 -0.61487359794E+02  0.23729298532E+03  0.17200000000E+03 0. -1.
<mgrwt>
<rscale>  2 0.22918828E+03</rscale>
<asrwt>0</asrwt>
<pdfrwt beam="1">  1       21 0.37363784E-01 0.22918828E+03</pdfrwt>
<pdfrwt beam="2">  1       21 0.90683534E-01 0.22918828E+03</pdfrwt>
<totfact> 0.69501807E+03</totfact>
</mgrwt>
</event>
<event>
 4    1  0.1119790E+000  0.1921259E+03  0.7546771E-02  0.1156558E+00
         21   -1    0    0  501  502  0.00000000000E+00  0.00000000000E+00  0.12153473138E+03  0.12153473138E+03  0.00000000000E+00 0. -1.
         21   -1    0    0  502  503 -0.00000000000E+00 -0.00000000000E+00 -0.53605466862E+03  0.53605466862E+03  0.00000000000E+00 0.  1.
          6    1    1    2  501    0 -0.68456470730E+02  0.51401010211E+02  0.92005192917E+01  0.19234604699E+03  0.17200000000E+03 0. -1.
         -6    1    1    2    0  503  0.68456470730E+02 -0.51401010211E+02 -0.42372045654E+03  0.46524335302E+03  0.17200000000E+03 0.  1.
<mgrwt>
<rscale>  2 0.19212588E+03</rscale>
<asrwt>0</asrwt>
<pdfrwt beam="1">  1       21 0.30383684E-01 0.19212588E+03</pdfrwt>
<pdfrwt beam="2">  1       21 0.13401366E+00 0.19212588E+03</pdfrwt>
<totfact> 0.41625544E+03</totfact>
</mgrwt>
</event>
<event>
 4    1  0.1119790E+000  0.1945999E+03  0.7546771E-02  0.1154377E+00
         21   -1    0    0  503  502  0.00000000000E+00  0.00000000000E+00  0.22297702433E+03  0.22297702433E+03  0.00000000000E+00 0.  1.
         21   -1    0    0  501  503 -0.00000000000E+00 -0.00000000000E+00 -0.16986041979E+03  0.16986041979E+03  0.00000000000E+00 0.  1.
          6    1    1    2  501    0  0.40159975690E+02  0.81684067459E+02  0.24115031857E+02  0.19608836091E+03  0.17200000000E+03 0.  1.
         -6    1    1    2    0  502 -0.40159975690E+02 -0.81684067459E+02  0.29001572691E+02  0.19674908321E+03  0.17200000000E+03 0.  1.
<mgrwt>
<rscale>  2 0.19459987E+03</rscale>
<asrwt>0</asrwt>
<pdfrwt beam="1">  1       21 0.55744256E-01 0.19459987E+03</pdfrwt>
<pdfrwt beam="2">  1       21 0.42465105E-01 0.19459987E+03</pdfrwt>
<totfact> 0.16155586E+04</totfact>
</mgrwt>
</event>
<event>
 4    1  0.1119790E+000  0.1948471E+03  0.7546771E-02  0.1154161E+00
         21   -1    0    0  501  502  0.00000000000E+00  0.00000000000E+00  0.36295980444E+03  0.36295980444E+03  0.00000000000E+00 0.  1.
         21   -1    0    0  502  503 -0.00000000000E+00 -0.00000000000E+00 -0.10460452391E+03  0.10460452391E+03  0.00000000000E+00 0. -1.
          6    1    1    2  501    0 -0.11629837676E+02  0.90808210286E+02  0.13081101944E+03  0.23468469696E+03  0.17200000000E+03 0. -1.
         -6    1    1    2    0  503  0.11629837676E+02 -0.90808210286E+02  0.12754426108E+03  0.23287963139E+03  0.17200000000E+03 0.  1.
<mgrwt>
<rscale>  2 0.19484708E+03</rscale>
<asrwt>0</asrwt>
<pdfrwt beam="1">  1       21 0.90739948E-01 0.19484708E+03</pdfrwt>
<pdfrwt beam="2">  1       21 0.26151132E-01 0.19484708E+03</pdfrwt>
<totfact> 0.14305129E+04</totfact>
</mgrwt>
</event>
<event>
 4    1  0.1119790E+000  0.1816123E+03  0.7546771E-02  0.1166252E+00
         21   -1    0    0  501  502  0.00000000000E+00  0.00000000000E+00  0.19034595487E+03  0.19034595487E+03  0.00000000000E+00 0. -1.
         21   -1    0    0  502  503 -0.00000000000E+00 -0.00000000000E+00 -0.21720510882E+03  0.21720510882E+03  0.00000000000E+00 0. -1.
          6    1    1    2  501    0  0.51718388282E+02  0.26911954901E+02  0.78208526169E+02  0.19773623484E+03  0.17200000000E+03 0. -1.
         -6    1    1    2    0  503 -0.51718388282E+02 -0.26911954901E+02 -0.10506768012E+03  0.20981482886E+03  0.17200000000E+03 0. -1.
<mgrwt>
<rscale>  2 0.18161235E+03</rscale>
<asrwt>0</asrwt>
<pdfrwt beam="1">  1       21 0.47586489E-01 0.18161235E+03</pdfrwt>
<pdfrwt beam="2">  1       21 0.54301277E-01 0.18161235E+03</pdfrwt>
<totfact> 0.13629948E+04</totfact>
</mgrwt>
</event>
<event>
 4    1  0.1119790E+000  0.2004832E+03  0.7546771E-02  0.1149332E+00
         21   -1    0    0  501  502  0.00000000000E+00  0.00000000000E+00  0.29100049747E+03  0.29100049747E+03  0.00000000000E+00 0.  1.
         21   -1    0    0  502  503 -0.00000000000E+00 -0.00000000000E+00 -0.15697950632E+03  0.15697950632E+03  0.00000000000E+00 0. -1.
          6    1    1    2  501    0 -0.97627467360E+02 -0.32839010310E+02  0.14464435443E+03  0.24721551782E+03  0.17200000000E+03 0.  1.
         -6    1    1    2    0  503  0.97627467360E+02  0.32839010310E+02 -0.10623363270E+02  0.20076448597E+03  0.17200000000E+03 0. -1.
<mgrwt>
<rscale>  2 0.20048322E+03</rscale>
<asrwt>0</asrwt>
<pdfrwt beam="1">  1       21 0.72750124E-01 0.20048322E+03</pdfrwt>
<pdfrwt beam="2">  1       21 0.39244877E-01 0.20048322E+03</pdfrwt>
<totfact> 0.10593645E+04</totfact>
</mgrwt>
</event>
<event>
 4    1  0.1119790E+000  0.2055450E+03  0.7546771E-02  0.1145143E+00
         21   -1    0    0  503  502  0.00000000000E+00  0.00000000000E+00  0.47042037239E+03  0.47042037239E+03  0.00000000000E+00 0.  1.
         21   -1    0    0  501  503 -0.00000000000E+00 -0.00000000000E+00 -0.11612711492E+03  0.11612711492E+03  0.00000000000E+00 0. -1.
          6    1    1    2  501    0  0.35670990687E+02 -0.10673486504E+03  0.37535419842E+02  0.20894415219E+03  0.17200000000E+03 0. -1.
         -6    1    1    2    0  502 -0.35670990687E+02  0.10673486504E+03  0.31675783763E+03  0.37760333512E+03  0.17200000000E+03 0.  1.
<mgrwt>
<rscale>  2 0.20554501E+03</rscale>
<asrwt>0</asrwt>
<pdfrwt beam="1">  1       21 0.11760509E+00 0.20554501E+03</pdfrwt>
<pdfrwt beam="2">  1       21 0.29031780E-01 0.20554501E+03</pdfrwt>
<totfact> 0.62419070E+03</totfact>
</mgrwt>
</event>
<event>
 4    1  0.1119790E+000  0.2037207E+03  0.7546771E-02  0.1146637E+00
         21   -1    0    0  501  502  0.00000000000E+00  0.00000000000E+00  0.40724761335E+02  0.40724761335E+02  0.00000000000E+00 0. -1.
         21   -1    0    0  502  503 -0.00000000000E+00 -0.00000000000E+00 -0.10544744524E+04  0.10544744524E+04  0.00000000000E+00 0. -1.
          6    1    1    2  501    0 -0.12374398409E+02 -0.10846654523E+03 -0.40656042485E+03  0.45474552909E+03  0.17200000000E+03 0. -1.
         -6    1    1    2    0  503  0.12374398409E+02  0.10846654523E+03 -0.60718926622E+03  0.64045368465E+03  0.17200000000E+03 0. -1.
<mgrwt>
<rscale>  2 0.20372068E+03</rscale>
<asrwt>0</asrwt>
<pdfrwt beam="1">  1       21 0.10181190E-01 0.20372068E+03</pdfrwt>
<pdfrwt beam="2">  1       21 0.26361862E+00 0.20372068E+03</pdfrwt>
<totfact> 0.43006506E+03</totfact>
</mgrwt>
</event>
<event>
 4    1  0.1119790E+000  0.2201341E+03  0.7546771E-02  0.1133783E+00
         21   -1    0    0  501  502  0.00000000000E+00  0.00000000000E+00  0.54607251969E+03  0.54607251969E+03  0.00000000000E+00 0. -1.
         21   -1    0    0  502  503 -0.00000000000E+00 -0.00000000000E+00 -0.15981593518E+03  0.15981593518E+03  0.00000000000E+00 0. -1.
          6    1    1    2  501    0 -0.12730016258E+03 -0.51668923849E+02  0.42850004879E+03  0.48173779268E+03  0.17200000000E+03 0. -1.
         -6    1    1    2    0  503  0.12730016258E+03  0.51668923849E+02 -0.42243464277E+02  0.22415066219E+03  0.17200000000E+03 0. -1.
<mgrwt>
<rscale>  2 0.22013407E+03</rscale>
<asrwt>0</asrwt>
<pdfrwt beam="1">  1       21 0.13651813E+00 0.22013407E+03</pdfrwt>
<pdfrwt beam="2">  1       21 0.39953985E-01 0.22013407E+03</pdfrwt>
<totfact> 0.22495782E+03</totfact>
</mgrwt>
</event>
<event>
 4    1  0.1119790E+000  0.1813357E+03  0.7546771E-02  0.1166517E+00
         21   -1    0    0  501  502  0.00000000000E+00  0.00000000000E+00  0.71791662392E+02  0.71791662392E+02  0.00000000000E+00 0.  1.
         21   -1    0    0  502  503 -0.00000000000E+00 -0.00000000000E+00 -0.50974710886E+03  0.50974710886E+03  0.00000000000E+00 0. -1.
          6    1    1    2  501    0  0.29040757101E+02 -0.49550516377E+02 -0.12635976780E+03  0.22101902671E+03  0.17200000000E+03 0. -1.
         -6    1    1    2    0  503 -0.29040757101E+02  0.49550516377E+02 -0.31159567866E+03  0.36051974455E+03  0.17200000000E+03 0. -1.
<mgrwt>
<rscale>  2 0.18133565E+03</rscale>
<asrwt>0</asrwt>
<pdfrwt beam="1">  1       21 0.17947916E-01 0.18133565E+03</pdfrwt>
<pdfrwt beam="2">  1       21 0.12743677E+00 0.18133565E+03</pdfrwt>
<totfact> 0.12930695E+04</totfact>
</mgrwt>
</event>
<event>
 4    1  0.1119790E+000  0.1826402E+03  0.7546771E-02  0.1165272E+00
         21   -1    0    0  501  502  0.00000000000E+00  0.00000000000E+00  0.40180223038E+02  0.40180223038E+02  0.00000000000E+00 0.  1.
         21   -1    0    0  502  503 -0.00000000000E+00 -0.00000000000E+00 -0.10108891469E+04  0.10108891469E+04  0.00000000000E+00 0.  1.
          6    1    1    2  501    0  0.44539912655E+01  0.61266526391E+02 -0.26316599643E+03  0.32033383676E+03  0.17200000000E+03 0.  1.
         -6    1    1    2    0  503 -0.44539912655E+01 -0.61266526391E+02 -0.70754292739E+03  0.73073553314E+03  0.17200000000E+03 0.  1.
<mgrwt>
<rscale>  2 0.18264015E+03</rscale>
<asrwt>0</asrwt>
<pdfrwt beam="1">  1       21 0.10045056E-01 0.18264015E+03</pdfrwt>
<pdfrwt beam="2">  1       21 0.25272228E+00 0.18264015E+03</pdfrwt>
<totfact> 0.52146442E+03</totfact>
</mgrwt>
</event>
<event>
 4    1  0.1119790E+000  0.2242512E+03  0.7546771E-02  0.1130753E+00
         21   -1    0    0  503  502  0.00000000000E+00  0.00000000000E+00  0.12350955993E+03  0.12350955993E+03  0.00000000000E+00 0.  1.
         21   -1    0    0  501  503 -0.00000000000E+00 -0.00000000000E+00 -0.48596043971E+03  0.48596043971E+03  0.00000000000E+00 0. -1.
          6    1    1    2  501    0  0.14345640845E+03  0.11174384648E+02 -0.58516547847E+02  0.23176020877E+03  0.17200000000E+03 0. -1.
         -6    1    1    2    0  502 -0.14345640845E+03 -0.11174384648E+02 -0.30393433194E+03  0.37770979088E+03  0.17200000000E+03 0.  1.
<mgrwt>
<rscale>  2 0.22425122E+03</rscale>
<asrwt>0</asrwt>
<pdfrwt beam="1">  1       21 0.30877390E-01 0.22425122E+03</pdfrwt>
<pdfrwt beam="2">  1       21 0.12149011E+00 0.22425122E+03</pdfrwt>
<totfact> 0.50346480E+03</totfact>
</mgrwt>
</event>
<event>
 4    1  0.1119790E+000  0.2534726E+03  0.7546771E-02  0.1111130E+00
         21   -1    0    0  503  502  0.00000000000E+00  0.00000000000E+00  0.76553852978E+02  0.76553852978E+02  0.00000000000E+00 0. -1.
         21   -1    0    0  501  503 -0.00000000000E+00 -0.00000000000E+00 -0.84084826684E+03  0.84084826684E+03  0.00000000000E+00 0. -1.
          6    1    1    2  501    0  0.32576009062E+01 -0.18615510336E+03 -0.36219078988E+03  0.44207522294E+03  0.17200000000E+03 0. -1.
         -6    1    1    2    0  502 -0.32576009062E+01  0.18615510336E+03 -0.40210362398E+03  0.47532689687E+03  0.17200000000E+03 0. -1.
<mgrwt>
<rscale>  2 0.25347255E+03</rscale>
<asrwt>0</asrwt>
<pdfrwt beam="1">  1       21 0.19138463E-01 0.25347255E+03</pdfrwt>
<pdfrwt beam="2">  1       21 0.21021206E+00 0.25347255E+03</pdfrwt>
<totfact> 0.27441206E+03</totfact>
</mgrwt>
</event>
<event>
 4    1  0.1119790E+000  0.1830214E+03  0.7546771E-02  0.1164911E+00
         21   -1    0    0  501  502  0.00000000000E+00  0.00000000000E+00  0.25924333028E+02  0.25924333028E+02  0.00000000000E+00 0.  1.
         21   -1    0    0  502  503 -0.00000000000E+00 -0.00000000000E+00 -0.13327339815E+04  0.13327339815E+04  0.00000000000E+00 0.  1.
          6    1    1    2  501    0 -0.53370749455E+02 -0.32625187056E+02 -0.53478661893E+03  0.56523762040E+03  0.17200000000E+03 0.  1.
         -6    1    1    2    0  503  0.53370749455E+02  0.32625187056E+02 -0.77202302956E+03  0.79342069414E+03  0.17200000000E+03 0.  1.
<mgrwt>
<rscale>  2 0.18302142E+03</rscale>
<asrwt>0</asrwt>
<pdfrwt beam="1">  1       21 0.64810835E-02 0.18302142E+03</pdfrwt>
<pdfrwt beam="2">  1       21 0.33318348E+00 0.18302142E+03</pdfrwt>
<totfact> 0.38384810E+03</totfact>
</mgrwt>
</event>
<event>
 4    1  0.1119790E+000  0.2695879E+03  0.7546771E-02  0.1101516E+00
         21   -1    0    0  503  502  0.00000000000E+00  0.00000000000E+00  0.13496206079E+03  0.13496206079E+03  0.00000000000E+00 0. -1.
         21   -1    0    0  501  503 -0.00000000000E+00 -0.00000000000E+00 -0.14826611622E+04  0.14826611622E+04  0.00000000000E+00 0.  1.
          6    1    1    2  501    0  0.13311817729E+03 -0.15928956057E+03 -0.13192786793E+04  0.13465414390E+04  0.17200000000E+03 0.  1.
         -6    1    1    2    0  502 -0.13311817729E+03  0.15928956057E+03 -0.28420422116E+02  0.27108178402E+03  0.17200000000E+03 0. -1.
<mgrwt>
<rscale>  2 0.26958786E+03</rscale>
<asrwt>0</asrwt>
<pdfrwt beam="1">  1       21 0.33740515E-01 0.26958786E+03</pdfrwt>
<pdfrwt beam="2">  1       21 0.37066529E+00 0.26958786E+03</pdfrwt>
<totfact> 0.99371826E+01</totfact>
</mgrwt>
</event>
<event>
 4    1  0.1119790E+000  0.1855307E+03  0.7546771E-02  0.1162555E+00
         21   -1    0    0  501  502  0.00000000000E+00  0.00000000000E+00  0.35144830904E+03  0.35144830904E+03  0.00000000000E+00 0.  1.
         21   -1    0    0  502  503 -0.00000000000E+00 -0.00000000000E+00 -0.16487383028E+03  0.16487383028E+03  0.00000000000E+00 0. -1.
          6    1    1    2  501    0  0.52721192802E+02 -0.45366539657E+02  0.25777377174E+03  0.31759874762E+03  0.17200000000E+03 0.  1.
         -6    1    1    2    0  503 -0.52721192802E+02  0.45366539657E+02 -0.71199292983E+02  0.19872339171E+03  0.17200000000E+03 0. -1.
<mgrwt>
<rscale>  2 0.18553072E+03</rscale>
<asrwt>0</asrwt>
<pdfrwt beam="1">  1       21 0.87862076E-01 0.18553072E+03</pdfrwt>
<pdfrwt beam="2">  1       21 0.41218458E-01 0.18553072E+03</pdfrwt>
<totfact> 0.63291982E+03</totfact>
</mgrwt>
</event>
<event>
 4    1  0.1119790E+000  0.1883101E+03  0.7546771E-02  0.1159994E+00
         21   -1    0    0  501  502  0.00000000000E+00  0.00000000000E+00  0.60270106085E+03  0.60270106085E+03  0.00000000000E+00 0. -1.
         21   -1    0    0  502  503 -0.00000000000E+00 -0.00000000000E+00 -0.10014305327E+03  0.10014305327E+03  0.00000000000E+00 0. -1.
          6    1    1    2  501    0 -0.41121950265E+02 -0.64696712118E+02  0.47697783830E+03  0.51280458030E+03  0.17200000000E+03 0. -1.
         -6    1    1    2    0  503  0.41121950265E+02  0.64696712118E+02  0.25580169273E+02  0.19003953381E+03  0.17200000000E+03 0. -1.
<mgrwt>
<rscale>  2 0.18831006E+03</rscale>
<asrwt>0</asrwt>
<pdfrwt beam="1">  1       21 0.15067526E+00 0.18831006E+03</pdfrwt>
<pdfrwt beam="2">  1       21 0.25035765E-01 0.18831006E+03</pdfrwt>
<totfact> 0.44787525E+03</totfact>
</mgrwt>
</event>
<event>
 4    1  0.1119790E+000  0.1738626E+03  0.7546771E-02  0.1173879E+00
         21   -1    0    0  503  502  0.00000000000E+00  0.00000000000E+00  0.16180974494E+03  0.16180974494E+03  0.00000000000E+00 0.  1.
         21   -1    0    0  501  503 -0.00000000000E+00 -0.00000000000E+00 -0.27706030007E+03  0.27706030007E+03  0.00000000000E+00 0.  1.
          6    1    1    2  501    0 -0.25345713417E+02  0.13463275837E+01 -0.18286298264E+03  0.25232338023E+03  0.17200000000E+03 0.  1.
         -6    1    1    2    0  502  0.25345713417E+02 -0.13463275837E+01  0.67612427510E+02  0.18654666478E+03  0.17200000000E+03 0.  1.
<mgrwt>
<rscale>  2 0.17386264E+03</rscale>
<asrwt>0</asrwt>
<pdfrwt beam="1">  1       21 0.40452437E-01 0.17386264E+03</pdfrwt>
<pdfrwt beam="2">  1       21 0.69265074E-01 0.17386264E+03</pdfrwt>
<totfact> 0.11312024E+04</totfact>
</mgrwt>
</event>
<event>
 4    1  0.1119790E+000  0.1948272E+03  0.7546771E-02  0.1154178E+00
         21   -1    0    0  503  502  0.00000000000E+00  0.00000000000E+00  0.65277857571E+02  0.65277857571E+02  0.00000000000E+00 0. -1.
         21   -1    0    0  501  503 -0.00000000000E+00 -0.00000000000E+00 -0.62396532390E+03  0.62396532390E+03  0.00000000000E+00 0. -1.
          6    1    1    2  501    0 -0.89487978764E+02 -0.19118762612E+02 -0.18941614757E+03  0.27172799338E+03  0.17200000000E+03 0. -1.
         -6    1    1    2    0  502  0.89487978764E+02  0.19118762612E+02 -0.36927131876E+03  0.41751518809E+03  0.17200000000E+03 0. -1.
<mgrwt>
<rscale>  2 0.19482717E+03</rscale>
<asrwt>0</asrwt>
<pdfrwt beam="1">  1       21 0.16319464E-01 0.19482717E+03</pdfrwt>
<pdfrwt beam="2">  1       21 0.15599133E+00 0.19482717E+03</pdfrwt>
<totfact> 0.90458809E+03</totfact>
</mgrwt>
</event>
<event>
 4    1  0.1119790E+000  0.1770651E+03  0.7546771E-02  0.1170674E+00
         21   -1    0    0  501  502  0.00000000000E+00  0.00000000000E+00  0.27989543373E+03  0.27989543373E+03  0.00000000000E+00 0.  1.
         21   -1    0    0  502  503 -0.00000000000E+00 -0.00000000000E+00 -0.11201769629E+03  0.11201769629E+03  0.00000000000E+00 0.  1.
          6    1    1    2  501    0  0.11314833496E+02 -0.40497093988E+02  0.85151978940E+02  0.19647620618E+03  0.17200000000E+03 0.  1.
         -6    1    1    2    0  503 -0.11314833496E+02  0.40497093988E+02  0.82725758495E+02  0.19543692383E+03  0.17200000000E+03 0.  1.
<mgrwt>
<rscale>  2 0.17706507E+03</rscale>
<asrwt>0</asrwt>
<pdfrwt beam="1">  1       21 0.69973857E-01 0.17706507E+03</pdfrwt>
<pdfrwt beam="2">  1       21 0.28004425E-01 0.17706507E+03</pdfrwt>
<totfact> 0.22794288E+04</totfact>
</mgrwt>
</event>
<event>
 4    1  0.1119790E+000  0.1763187E+03  0.7546771E-02  0.1171414E+00
         21   -1    0    0  503  502  0.00000000000E+00  0.00000000000E+00  0.47216212525E+02  0.47216212525E+02  0.00000000000E+00 0. -1.
         21   -1    0    0  501  503 -0.00000000000E+00 -0.00000000000E+00 -0.11491588195E+04  0.11491588195E+04  0.00000000000E+00 0. -1.
          6    1    1    2  501    0 -0.24836019671E+02  0.29790416145E+02 -0.94187580187E+03  0.95823709118E+03  0.17200000000E+03 0.  1.
         -6    1    1    2    0  502  0.24836019671E+02 -0.29790416145E+02 -0.16006680507E+03  0.23813794081E+03  0.17200000000E+03 0.  1.
<mgrwt>
<rscale>  2 0.17631874E+03</rscale>
<asrwt>0</asrwt>
<pdfrwt beam="1">  1       21 0.11804053E-01 0.17631874E+03</pdfrwt>
<pdfrwt beam="2">  1       21 0.28728972E+00 0.17631874E+03</pdfrwt>
<totfact> 0.24924503E+03</totfact>
</mgrwt>
</event>
<event>
 4    1  0.1119790E+000  0.2431581E+03  0.7546771E-02  0.1117707E+00
         21   -1    0    0  501  502  0.00000000000E+00  0.00000000000E+00  0.99425351188E+02  0.99425351188E+02  0.00000000000E+00 0.  1.
         21   -1    0    0  502  503 -0.00000000000E+00 -0.00000000000E+00 -0.72445944442E+03  0.72445944442E+03  0.00000000000E+00 0. -1.
          6    1    1    2  501    0  0.35061254499E+02 -0.16826339294E+03 -0.13816009968E+03  0.27966779241E+03  0.17200000000E+03 0.  1.
         -6    1    1    2    0  503 -0.35061254499E+02  0.16826339294E+03 -0.48687399355E+03  0.54421700319E+03  0.17200000000E+03 0. -1.
<mgrwt>
<rscale>  2 0.24315810E+03</rscale>
<asrwt>0</asrwt>
<pdfrwt beam="1">  1       21 0.24856338E-01 0.24315810E+03</pdfrwt>
<pdfrwt beam="2">  1       21 0.18111486E+00 0.24315810E+03</pdfrwt>
<totfact> 0.26191405E+03</totfact>
</mgrwt>
</event>
<event>
 4    1  0.1119790E+000  0.2095289E+03  0.7546771E-02  0.1141940E+00
         21   -1    0    0  503  502  0.00000000000E+00  0.00000000000E+00  0.53478492902E+03  0.53478492902E+03  0.00000000000E+00 0. -1.
         21   -1    0    0  501  503 -0.00000000000E+00 -0.00000000000E+00 -0.94731492798E+02  0.94731492798E+02  0.00000000000E+00 0. -1.
          6    1    1    2  501    0  0.11825313965E+03  0.18291159467E+02  0.10506089069E+03  0.23439317888E+03  0.17200000000E+03 0. -1.
         -6    1    1    2    0  502 -0.11825313965E+03 -0.18291159467E+02  0.33499254553E+03  0.39512324294E+03  0.17200000000E+03 0. -1.
<mgrwt>
<rscale>  2 0.20952893E+03</rscale>
<asrwt>0</asrwt>
<pdfrwt beam="1">  1       21 0.13369622E+00 0.20952893E+03</pdfrwt>
<pdfrwt beam="2">  1       21 0.23682875E-01 0.20952893E+03</pdfrwt>
<totfact> 0.66729515E+03</totfact>
</mgrwt>
</event>
<event>
 4    1  0.1119790E+000  0.2422969E+03  0.7546771E-02  0.1118272E+00
         21   -1    0    0  503  502  0.00000000000E+00  0.00000000000E+00  0.34593538875E+03  0.34593538875E+03  0.00000000000E+00 0.  1.
         21   -1    0    0  501  503 -0.00000000000E+00 -0.00000000000E+00 -0.17247146875E+03  0.17247146875E+03  0.00000000000E+00 0.  1.
          6    1    1    2  501    0  0.11624003361E+03 -0.12494809170E+03  0.53917741686E+02  0.24822347573E+03  0.17200000000E+03 0.  1.
         -6    1    1    2    0  502 -0.11624003361E+03  0.12494809170E+03  0.11954617831E+03  0.27018338177E+03  0.17200000000E+03 0.  1.
<mgrwt>
<rscale>  2 0.24229687E+03</rscale>
<asrwt>0</asrwt>
<pdfrwt beam="1">  1       21 0.86483846E-01 0.24229687E+03</pdfrwt>
<pdfrwt beam="2">  1       21 0.43117868E-01 0.24229687E+03</pdfrwt>
<totfact> 0.57517873E+03</totfact>
</mgrwt>
</event>
<event>
 4    1  0.1119790E+000  0.1737532E+03  0.7546771E-02  0.1173989E+00
         21   -1    0    0  501  502  0.00000000000E+00  0.00000000000E+00  0.85435693394E+03  0.85435693394E+03  0.00000000000E+00 0.  1.
         21   -1    0    0  502  503 -0.00000000000E+00 -0.00000000000E+00 -0.24678226642E+03  0.24678226642E+03  0.00000000000E+00 0.  1.
          6    1    1    2  501    0  0.18441484141E+02  0.16311877958E+02  0.81341680203E+03  0.83176743115E+03  0.17200000000E+03 0.  1.
         -6    1    1    2    0  503 -0.18441484141E+02 -0.16311877958E+02 -0.20584213451E+03  0.26937176920E+03  0.17200000000E+03 0.  1.
<mgrwt>
<rscale>  2 0.17375317E+03</rscale>
<asrwt>0</asrwt>
<pdfrwt beam="1">  1       21 0.21358923E+00 0.17375317E+03</pdfrwt>
<pdfrwt beam="2">  1       21 0.61695569E-01 0.17375317E+03</pdfrwt>
<totfact> 0.27611408E+02</totfact>
</mgrwt>
</event>
<event>
 4    1  0.1119790E+000  0.2125488E+03  0.7546771E-02  0.1139563E+00
         21   -1    0    0  501  502  0.00000000000E+00  0.00000000000E+00  0.64587192421E+02  0.64587192421E+02  0.00000000000E+00 0.  1.
         21   -1    0    0  502  503 -0.00000000000E+00 -0.00000000000E+00 -0.99408359805E+03  0.99408359805E+03  0.00000000000E+00 0. -1.
          6    1    1    2  501    0 -0.12437687989E+03  0.11107776997E+02 -0.17658154102E+03  0.27632957060E+03  0.17200000000E+03 0.  1.
         -6    1    1    2    0  503  0.12437687989E+03 -0.11107776997E+02 -0.75291486460E+03  0.78234121986E+03  0.17200000000E+03 0. -1.
<mgrwt>
<rscale>  2 0.21254880E+03</rscale>
<asrwt>0</asrwt>
<pdfrwt beam="1">  1       21 0.16146798E-01 0.21254880E+03</pdfrwt>
<pdfrwt beam="2">  1       21 0.24852090E+00 0.21254880E+03</pdfrwt>
<totfact> 0.22763936E+03</totfact>
</mgrwt>
</event>
<event>
 4    1  0.1119790E+000  0.2677902E+03  0.7546771E-02  0.1102551E+00
         21   -1    0    0  503  502  0.00000000000E+00  0.00000000000E+00  0.20535204425E+03  0.20535204425E+03  0.00000000000E+00 0. -1.
         21   -1    0    0  501  503 -0.00000000000E+00 -0.00000000000E+00 -0.51347596914E+03  0.51347596914E+03  0.00000000000E+00 0.  1.
          6    1    1    2  501    0 -0.96414768434E+02  0.18119538840E+03 -0.35734678032E+03  0.44655156226E+03  0.17200000000E+03 0.  1.
         -6    1    1    2    0  502  0.96414768434E+02 -0.18119538840E+03  0.49222855423E+02  0.27227645114E+03  0.17200000000E+03 0. -1.
<mgrwt>
<rscale>  2 0.26779017E+03</rscale>
<asrwt>0</asrwt>
<pdfrwt beam="1">  1       21 0.51338011E-01 0.26779017E+03</pdfrwt>
<pdfrwt beam="2">  1       21 0.12836899E+00 0.26779017E+03</pdfrwt>
<totfact> 0.15114093E+03</totfact>
</mgrwt>
</event>
<event>
 4    1  0.1119790E+000  0.2247306E+03  0.7546771E-02  0.1130405E+00
         21   -1    0    0  503  502  0.00000000000E+00  0.00000000000E+00  0.56107149456E+03  0.56107149456E+03  0.00000000000E+00 0.  1.
         21   -1    0    0  501  503 -0.00000000000E+00 -0.00000000000E+00 -0.11532856770E+03  0.11532856770E+03  0.00000000000E+00 0. -1.
          6    1    1    2  501    0 -0.14425038487E+03  0.10566611204E+02  0.38132339058E+03  0.44261874679E+03  0.17200000000E+03 0.  1.
         -6    1    1    2    0  502  0.14425038487E+03 -0.10566611204E+02  0.64419536277E+02  0.23378131547E+03  0.17200000000E+03 0. -1.
<mgrwt>
<rscale>  2 0.22473056E+03</rscale>
<asrwt>0</asrwt>
<pdfrwt beam="1">  1       21 0.14026787E+00 0.22473056E+03</pdfrwt>
<pdfrwt beam="2">  1       21 0.28832143E-01 0.22473056E+03</pdfrwt>
<totfact> 0.39928776E+03</totfact>
</mgrwt>
</event>
<event>
 4    1  0.1119790E+000  0.2294842E+03  0.7546771E-02  0.1127003E+00
         21   -1    0    0  503  502  0.00000000000E+00  0.00000000000E+00  0.48484558698E+03  0.48484558698E+03  0.00000000000E+00 0.  1.
         21   -1    0    0  501  503 -0.00000000000E+00 -0.00000000000E+00 -0.14558367001E+03  0.14558367001E+03  0.00000000000E+00 0. -1.
          6    1    1    2  501    0  0.13996666969E+03 -0.59061932462E+02  0.10794918595E+02  0.22973791754E+03  0.17200000000E+03 0. -1.
         -6    1    1    2    0  502 -0.13996666969E+03  0.59061932462E+02  0.32846699837E+03  0.40069133945E+03  0.17200000000E+03 0.  1.
<mgrwt>
<rscale>  2 0.22948416E+03</rscale>
<asrwt>0</asrwt>
<pdfrwt beam="1">  1       21 0.12121139E+00 0.22948416E+03</pdfrwt>
<pdfrwt beam="2">  1       21 0.36395919E-01 0.22948416E+03</pdfrwt>
<totfact> 0.36409963E+03</totfact>
</mgrwt>
</event>
<event>
 4    1  0.1119790E+000  0.1960548E+03  0.7546771E-02  0.1153111E+00
         21   -1    0    0  501  502  0.00000000000E+00  0.00000000000E+00  0.45455608922E+03  0.45455608922E+03  0.00000000000E+00 0.  1.
         21   -1    0    0  502  503 -0.00000000000E+00 -0.00000000000E+00 -0.18884473004E+03  0.18884473004E+03  0.00000000000E+00 0.  1.
          6    1    1    2  501    0 -0.37949808770E+02 -0.86100565767E+02  0.37191653797E+03  0.42042764731E+03  0.17200000000E+03 0.  1.
         -6    1    1    2    0  503  0.37949808770E+02  0.86100565767E+02 -0.10620517878E+03  0.22297317195E+03  0.17200000000E+03 0.  1.
<mgrwt>
<rscale>  2 0.19605483E+03</rscale>
<asrwt>0</asrwt>
<pdfrwt beam="1">  1       21 0.11363902E+00 0.19605483E+03</pdfrwt>
<pdfrwt beam="2">  1       21 0.47211183E-01 0.19605483E+03</pdfrwt>
<totfact> 0.25828999E+03</totfact>
</mgrwt>
</event>
<event>
 4    1  0.1119790E+000  0.1810517E+03  0.7546771E-02  0.1166789E+00
         21   -1    0    0  503  502  0.00000000000E+00  0.00000000000E+00  0.46506149449E+03  0.46506149449E+03  0.00000000000E+00 0. -1.
         21   -1    0    0  501  503 -0.00000000000E+00 -0.00000000000E+00 -0.80346836736E+02  0.80346836736E+02  0.00000000000E+00 0. -1.
          6    1    1    2  501    0  0.14375689545E+02 -0.54672203564E+02  0.96815544963E+02  0.20531186044E+03  0.17200000000E+03 0. -1.
         -6    1    1    2    0  502 -0.14375689545E+02  0.54672203564E+02  0.28789911279E+03  0.34009647078E+03  0.17200000000E+03 0. -1.
<mgrwt>
<rscale>  2 0.18105168E+03</rscale>
<asrwt>0</asrwt>
<pdfrwt beam="1">  1       21 0.11626537E+00 0.18105168E+03</pdfrwt>
<pdfrwt beam="2">  1       21 0.20086710E-01 0.18105168E+03</pdfrwt>
<totfact> 0.13174700E+04</totfact>
</mgrwt>
</event>
<event>
 4    1  0.1119790E+000  0.2471873E+03  0.7546771E-02  0.1115095E+00
         21   -1    0    0  503  502  0.00000000000E+00  0.00000000000E+00  0.13925347340E+03  0.13925347340E+03  0.00000000000E+00 0. -1.
         21   -1    0    0  501  503 -0.00000000000E+00 -0.00000000000E+00 -0.43901738376E+03  0.43901738376E+03  0.00000000000E+00 0.  1.
          6    1    1    2  501    0  0.15275546649E+03 -0.90461776008E+02 -0.15661278898E+03  0.29262455662E+03  0.17200000000E+03 0. -1.
         -6    1    1    2    0  502 -0.15275546649E+03  0.90461776008E+02 -0.14315112138E+03  0.28564630054E+03  0.17200000000E+03 0. -1.
<mgrwt>
<rscale>  2 0.24718731E+03</rscale>
<asrwt>0</asrwt>
<pdfrwt beam="1">  1       21 0.34813369E-01 0.24718731E+03</pdfrwt>
<pdfrwt beam="2">  1       21 0.10975435E+00 0.24718731E+03</pdfrwt>
<totfact> 0.50203849E+03</totfact>
</mgrwt>
</event>
<event>
 4    1  0.1119790E+000  0.2314077E+03  0.7546771E-02  0.1125653E+00
         21   -1    0    0  501  502  0.00000000000E+00  0.00000000000E+00  0.71564594316E+03  0.71564594316E+03  0.00000000000E+00 0.  1.
         21   -1    0    0  502  503 -0.00000000000E+00 -0.00000000000E+00 -0.16568668906E+03  0.16568668906E+03  0.00000000000E+00 0.  1.
          6    1    1    2  501    0  0.12843263354E+03 -0.86432582673E+02  0.60130588682E+03  0.64429675013E+03  0.17200000000E+03 0.  1.
         -6    1    1    2    0  503 -0.12843263354E+03  0.86432582673E+02 -0.51346632723E+02  0.23703588209E+03  0.17200000000E+03 0.  1.
<mgrwt>
<rscale>  2 0.23140772E+03</rscale>
<asrwt>0</asrwt>
<pdfrwt beam="1">  1       21 0.17891148E+00 0.23140772E+03</pdfrwt>
<pdfrwt beam="2">  1       21 0.41421674E-01 0.23140772E+03</pdfrwt>
<totfact> 0.99869984E+02</totfact>
</mgrwt>
</event>
<event>
 4    1  0.1119790E+000  0.2227130E+03  0.7546771E-02  0.1131876E+00
         21   -1    0    0  501  502  0.00000000000E+00  0.00000000000E+00  0.39486760176E+03  0.39486760176E+03  0.00000000000E+00 0.  1.
         21   -1    0    0  502  503 -0.00000000000E+00 -0.00000000000E+00 -0.16372216371E+03  0.16372216371E+03  0.00000000000E+00 0. -1.
          6    1    1    2  501    0  0.11618322414E+03 -0.80737353480E+02  0.25031872508E+03  0.33505301960E+03  0.17200000000E+03 0. -1.
         -6    1    1    2    0  503 -0.11618322414E+03  0.80737353480E+02 -0.19173287033E+02  0.22353674587E+03  0.17200000000E+03 0. -1.
<mgrwt>
<rscale>  2 0.22271296E+03</rscale>
<asrwt>0</asrwt>
<pdfrwt beam="1">  1       21 0.98716899E-01 0.22271296E+03</pdfrwt>
<pdfrwt beam="2">  1       21 0.40930542E-01 0.22271296E+03</pdfrwt>
<totfact> 0.47560242E+03</totfact>
</mgrwt>
</event>
<event>
 4    1  0.1119790E+000  0.2322665E+03  0.7546771E-02  0.1125055E+00
         21   -1    0    0  503  502  0.00000000000E+00  0.00000000000E+00  0.59319855817E+03  0.59319855817E+03  0.00000000000E+00 0.  1.
         21   -1    0    0  501  503 -0.00000000000E+00 -0.00000000000E+00 -0.99933307829E+02  0.99933307829E+02  0.00000000000E+00 0. -1.
          6    1    1    2  501    0  0.10602992717E+03 -0.11454850883E+03  0.35057669131E+03  0.42053742143E+03  0.17200000000E+03 0. -1.
         -6    1    1    2    0  502 -0.10602992717E+03  0.11454850883E+03  0.14268855903E+03  0.27259444457E+03  0.17200000000E+03 0. -1.
<mgrwt>
<rscale>  2 0.23226646E+03</rscale>
<asrwt>0</asrwt>
<pdfrwt beam="1">  1       21 0.14829963E+00 0.23226646E+03</pdfrwt>
<pdfrwt beam="2">  1       21 0.24983329E-01 0.23226646E+03</pdfrwt>
<totfact> 0.45253846E+03</totfact>
</mgrwt>
</event>
<event>
 4    1  0.1119790E+000  0.2871318E+03  0.7546771E-02  0.1091856E+00
         21   -1    0    0  503  502  0.00000000000E+00  0.00000000000E+00  0.66765091629E+03  0.66765091629E+03  0.00000000000E+00 0.  1.
         21   -1    0    0  501  503 -0.00000000000E+00 -0.00000000000E+00 -0.12634298786E+03  0.12634298786E+03  0.00000000000E+00 0.  1.
          6    1    1    2  501    0  0.20194447556E+03  0.10990488236E+03  0.33036666492E+03  0.43770628013E+03  0.17200000000E+03 0.  1.
         -6    1    1    2    0  502 -0.20194447556E+03 -0.10990488236E+03  0.21094126351E+03  0.35628762401E+03  0.17200000000E+03 0.  1.
<mgrwt>
<rscale>  2 0.28713177E+03</rscale>
<asrwt>0</asrwt>
<pdfrwt beam="1">  1       21 0.16691272E+00 0.28713177E+03</pdfrwt>
<pdfrwt beam="2">  1       21 0.31585749E-01 0.28713177E+03</pdfrwt>
<totfact> 0.20025602E+03</totfact>
</mgrwt>
</event>
<event>
 4    1  0.1119790E+000  0.2141792E+03  0.7546771E-02  0.1138299E+00
         21   -1    0    0  501  502  0.00000000000E+00  0.00000000000E+00  0.80957983418E+02  0.80957983418E+02  0.00000000000E+00 0.  1.
         21   -1    0    0  502  503 -0.00000000000E+00 -0.00000000000E+00 -0.68918204371E+03  0.68918204371E+03  0.00000000000E+00 0.  1.
          6    1    1    2  501    0  0.11634179874E+03  0.52472012302E+02 -0.14172779784E+03  0.25682580651E+03  0.17200000000E+03 0.  1.
         -6    1    1    2    0  503 -0.11634179874E+03 -0.52472012302E+02 -0.46649626245E+03  0.51331422062E+03  0.17200000000E+03 0.  1.
<mgrwt>
<rscale>  2 0.21417919E+03</rscale>
<asrwt>0</asrwt>
<pdfrwt beam="1">  1       21 0.20239496E-01 0.21417919E+03</pdfrwt>
<pdfrwt beam="2">  1       21 0.17229551E+00 0.21417919E+03</pdfrwt>
<totfact> 0.45567937E+03</totfact>
</mgrwt>
</event>
<event>
 4    1  0.1119790E+000  0.2304798E+03  0.7546771E-02  0.1126303E+00
         21   -1    0    0  503  502  0.00000000000E+00  0.00000000000E+00  0.27840998027E+03  0.27840998027E+03  0.00000000000E+00 0.  1.
         21   -1    0    0  501  503 -0.00000000000E+00 -0.00000000000E+00 -0.32098401422E+03  0.32098401422E+03  0.00000000000E+00 0.  1.
          6    1    1    2  501    0  0.85476179555E+01 -0.15317919186E+03  0.16957420832E+03  0.28614041783E+03  0.17200000000E+03 0.  1.
         -6    1    1    2    0  502 -0.85476179555E+01  0.15317919186E+03 -0.21214824227E+03  0.31325357666E+03  0.17200000000E+03 0.  1.
<mgrwt>
<rscale>  2 0.23047977E+03</rscale>
<asrwt>0</asrwt>
<pdfrwt beam="1">  1       21 0.69602495E-01 0.23047977E+03</pdfrwt>
<pdfrwt beam="2">  1       21 0.80246003E-01 0.23047977E+03</pdfrwt>
<totfact> 0.24842154E+03</totfact>
</mgrwt>
</event>
<event>
 4    1  0.1119790E+000  0.2273563E+03  0.7546771E-02  0.1128515E+00
         21   -1    0    0  503  502  0.00000000000E+00  0.00000000000E+00  0.15568579352E+03  0.15568579352E+03  0.00000000000E+00 0. -1.
         21   -1    0    0  501  503 -0.00000000000E+00 -0.00000000000E+00 -0.40736446025E+03  0.40736446025E+03  0.00000000000E+00 0. -1.
          6    1    1    2  501    0  0.10735545188E+03 -0.10286726120E+03 -0.24691307788E+03  0.33564405924E+03  0.17200000000E+03 0. -1.
         -6    1    1    2    0  502 -0.10735545188E+03  0.10286726120E+03 -0.47655888620E+01  0.22740619454E+03  0.17200000000E+03 0. -1.
<mgrwt>
<rscale>  2 0.22735625E+03</rscale>
<asrwt>0</asrwt>
<pdfrwt beam="1">  1       21 0.38921449E-01 0.22735625E+03</pdfrwt>
<pdfrwt beam="2">  1       21 0.10184111E+00 0.22735625E+03</pdfrwt>
<totfact> 0.48734390E+03</totfact>
</mgrwt>
</event>
<event>
 4    1  0.1119790E+000  0.1855177E+03  0.7546771E-02  0.1162567E+00
         21   -1    0    0  503  502  0.00000000000E+00  0.00000000000E+00  0.93556838297E+03  0.93556838297E+03  0.00000000000E+00 0.  1.
         21   -1    0    0  501  503 -0.00000000000E+00 -0.00000000000E+00 -0.47065731040E+02  0.47065731040E+02  0.00000000000E+00 0.  1.
          6    1    1    2  501    0  0.10361695624E+01  0.69510731014E+02  0.21464819552E+03  0.28370876478E+03  0.17200000000E+03 0.  1.
         -6    1    1    2    0  502 -0.10361695624E+01 -0.69510731014E+02  0.67385445640E+03  0.69892534923E+03  0.17200000000E+03 0.  1.
<mgrwt>
<rscale>  2 0.18551770E+03</rscale>
<asrwt>0</asrwt>
<pdfrwt beam="1">  1       21 0.23389204E+00 0.18551770E+03</pdfrwt>
<pdfrwt beam="2">  1       21 0.11766436E-01 0.18551770E+03</pdfrwt>
<totfact> 0.50730520E+03</totfact>
</mgrwt>
</event>
<event>
 4    1  0.1119790E+000  0.1780026E+03  0.7546771E-02  0.1169750E+00
         21   -1    0    0  503  502  0.00000000000E+00  0.00000000000E+00  0.20860997343E+03  0.20860997343E+03  0.00000000000E+00 0. -1.
         21   -1    0    0  501  503 -0.00000000000E+00 -0.00000000000E+00 -0.15208995146E+03  0.15208995146E+03  0.00000000000E+00 0.  1.
          6    1    1    2  501    0  0.44066618644E+02  0.12612124590E+02  0.21655530102E+02  0.17931507061E+03  0.17200000000E+03 0.  1.
         -6    1    1    2    0  502 -0.44066618644E+02 -0.12612124590E+02  0.34864491873E+02  0.18138485427E+03  0.17200000000E+03 0. -1.
<mgrwt>
<rscale>  2 0.17800262E+03</rscale>
<asrwt>0</asrwt>
<pdfrwt beam="1">  1       21 0.52152493E-01 0.17800262E+03</pdfrwt>
<pdfrwt beam="2">  1       21 0.38022488E-01 0.17800262E+03</pdfrwt>
<totfact> 0.23470603E+04</totfact>
</mgrwt>
</event>
<event>
 4    1  0.1119790E+000  0.1815846E+03  0.7546771E-02  0.1166278E+00
         21   -1    0    0  503  502  0.00000000000E+00  0.00000000000E+00  0.28395201447E+03  0.28395201447E+03  0.00000000000E+00 0. -1.
         21   -1    0    0  501  503 -0.00000000000E+00 -0.00000000000E+00 -0.11769927434E+03  0.11769927434E+03  0.00000000000E+00 0. -1.
          6    1    1    2  501    0  0.58695217591E+01  0.57918201141E+02  0.10637715039E+03  0.21044967910E+03  0.17200000000E+03 0. -1.
         -6    1    1    2    0  502 -0.58695217591E+01 -0.57918201141E+02  0.59875589749E+02  0.19120160971E+03  0.17200000000E+03 0. -1.
<mgrwt>
<rscale>  2 0.18158461E+03</rscale>
<asrwt>0</asrwt>
<pdfrwt beam="1">  1       21 0.70988002E-01 0.18158461E+03</pdfrwt>
<pdfrwt beam="2">  1       21 0.29424819E-01 0.18158461E+03</pdfrwt>
<totfact> 0.20011007E+04</totfact>
</mgrwt>
</event>
<event>
 4    1  0.1119790E+000  0.1773936E+03  0.7546771E-02  0.1170350E+00
         21   -1    0    0  503  502  0.00000000000E+00  0.00000000000E+00  0.36310801741E+02  0.36310801741E+02  0.00000000000E+00 0. -1.
         21   -1    0    0  501  503 -0.00000000000E+00 -0.00000000000E+00 -0.10261215212E+04  0.10261215212E+04  0.00000000000E+00 0. -1.
          6    1    1    2  501    0  0.42298021799E+02 -0.97653979091E+01 -0.28548273414E+03  0.33610843062E+03  0.17200000000E+03 0. -1.
         -6    1    1    2    0  502 -0.42298021799E+02  0.97653979091E+01 -0.70432798529E+03  0.72632389229E+03  0.17200000000E+03 0. -1.
<mgrwt>
<rscale>  2 0.17739359E+03</rscale>
<asrwt>0</asrwt>
<pdfrwt beam="1">  1       21 0.90776998E-02 0.17739359E+03</pdfrwt>
<pdfrwt beam="2">  1       21 0.25653040E+00 0.17739359E+03</pdfrwt>
<totfact> 0.59543904E+03</totfact>
</mgrwt>
</event>
<event>
 4    1  0.1119790E+000  0.2125308E+03  0.7546771E-02  0.1139577E+00
         21   -1    0    0  501  502  0.00000000000E+00  0.00000000000E+00  0.32939582265E+03  0.32939582265E+03  0.00000000000E+00 0.  1.
         21   -1    0    0  502  503 -0.00000000000E+00 -0.00000000000E+00 -0.14230751514E+03  0.14230751514E+03  0.00000000000E+00 0. -1.
          6    1    1    2  501    0 -0.86368795351E+02  0.90143113449E+02  0.13854024240E+03  0.25369814441E+03  0.17200000000E+03 0.  1.
         -6    1    1    2    0  503  0.86368795351E+02 -0.90143113449E+02  0.48548065114E+02  0.21800519338E+03  0.17200000000E+03 0. -1.
<mgrwt>
<rscale>  2 0.21253082E+03</rscale>
<asrwt>0</asrwt>
<pdfrwt beam="1">  1       21 0.82348954E-01 0.21253082E+03</pdfrwt>
<pdfrwt beam="2">  1       21 0.35576879E-01 0.21253082E+03</pdfrwt>
<totfact> 0.96790631E+03</totfact>
</mgrwt>
</event>
<event>
 4    1  0.1119790E+000  0.4100932E+03  0.7546771E-02  0.1040340E+00
         21   -1    0    0  503  502  0.00000000000E+00  0.00000000000E+00  0.77981936056E+03  0.77981936056E+03  0.00000000000E+00 0. -1.
         21   -1    0    0  501  503 -0.00000000000E+00 -0.00000000000E+00 -0.60804068406E+03  0.60804068406E+03  0.00000000000E+00 0.  1.
          6    1    1    2  501    0  0.31237979022E+03  0.20251241054E+03 -0.47155661340E+03  0.62493363599E+03  0.17200000000E+03 0.  1.
         -6    1    1    2    0  502 -0.31237979022E+03 -0.20251241054E+03  0.64333528990E+03  0.76292640863E+03  0.17200000000E+03 0. -1.
<mgrwt>
<rscale>  2 0.41009317E+03</rscale>
<asrwt>0</asrwt>
<pdfrwt beam="1">  1       21 0.19495484E+00 0.41009317E+03</pdfrwt>
<pdfrwt beam="2">  1       21 0.15201017E+00 0.41009317E+03</pdfrwt>
<totfact> 0.33178556E+01</totfact>
</mgrwt>
</event>
<event>
 4    1  0.1119790E+000  0.2114576E+03  0.7546771E-02  0.1140417E+00
         21   -1    0    0  501  502  0.00000000000E+00  0.00000000000E+00  0.27523591612E+03  0.27523591612E+03  0.00000000000E+00 0. -1.
         21   -1    0    0  502  503 -0.00000000000E+00 -0.00000000000E+00 -0.51727545931E+03  0.51727545931E+03  0.00000000000E+00 0. -1.
          6    1    1    2  501    0 -0.97235510439E+02 -0.75336311297E+02  0.20716392347E+03  0.29602566693E+03  0.17200000000E+03 0. -1.
         -6    1    1    2    0  503  0.97235510439E+02  0.75336311297E+02 -0.44920346666E+03  0.49648570850E+03  0.17200000000E+03 0. -1.
<mgrwt>
<rscale>  2 0.21145757E+03</rscale>
<asrwt>0</asrwt>
<pdfrwt beam="1">  1       21 0.68808980E-01 0.21145757E+03</pdfrwt>
<pdfrwt beam="2">  1       21 0.12931886E+00 0.21145757E+03</pdfrwt>
<totfact> 0.82680639E+02</totfact>
</mgrwt>
</event>
<event>
 4    1  0.1119790E+000  0.2028335E+03  0.7546771E-02  0.1147370E+00
         21   -1    0    0  503  502  0.00000000000E+00  0.00000000000E+00  0.18450062217E+03  0.18450062217E+03  0.00000000000E+00 0.  1.
         21   -1    0    0  501  503 -0.00000000000E+00 -0.00000000000E+00 -0.24045802337E+03  0.24045802337E+03  0.00000000000E+00 0.  1.
          6    1    1    2  501    0  0.10626581135E+03  0.16279084178E+02 -0.85250831467E+02  0.22002076154E+03  0.17200000000E+03 0.  1.
         -6    1    1    2    0  502 -0.10626581135E+03 -0.16279084178E+02  0.29293430260E+02  0.20493788400E+03  0.17200000000E+03 0.  1.
<mgrwt>
<rscale>  2 0.20283351E+03</rscale>
<asrwt>0</asrwt>
<pdfrwt beam="1">  1       21 0.46125156E-01 0.20283351E+03</pdfrwt>
<pdfrwt beam="2">  1       21 0.60114505E-01 0.20283351E+03</pdfrwt>
<totfact> 0.11543760E+04</totfact>
</mgrwt>
</event>
<event>
 4    1  0.1119790E+000  0.2643246E+03  0.7546771E-02  0.1104572E+00
         21   -1    0    0  501  502  0.00000000000E+00  0.00000000000E+00  0.35448267229E+03  0.35448267229E+03  0.00000000000E+00 0. -1.
         21   -1    0    0  502  503 -0.00000000000E+00 -0.00000000000E+00 -0.27290859768E+03  0.27290859768E+03  0.00000000000E+00 0.  1.
          6    1    1    2  501    0  0.11190533391E+03 -0.16661535811E+03 -0.12454903258E+03  0.29219846480E+03  0.17200000000E+03 0.  1.
         -6    1    1    2    0  503 -0.11190533391E+03  0.16661535811E+03  0.20612310719E+03  0.33519280517E+03  0.17200000000E+03 0. -1.
<mgrwt>
<rscale>  2 0.26432458E+03</rscale>
<asrwt>0</asrwt>
<pdfrwt beam="1">  1       21 0.88620668E-01 0.26432458E+03</pdfrwt>
<pdfrwt beam="2">  1       21 0.68227150E-01 0.26432458E+03</pdfrwt>
<totfact> 0.20175974E+03</totfact>
</mgrwt>
</event>
<event>
 4    1  0.1119790E+000  0.2092451E+03  0.7546771E-02  0.1142165E+00
         21   -1    0    0  501  502  0.00000000000E+00  0.00000000000E+00  0.28238542439E+03  0.28238542439E+03  0.00000000000E+00 0. -1.
         21   -1    0    0  502  503 -0.00000000000E+00 -0.00000000000E+00 -0.23275960786E+03  0.23275960786E+03  0.00000000000E+00 0.  1.
          6    1    1    2  501    0 -0.11055526976E+03 -0.44463888631E+02  0.17364157236E+03  0.27190972898E+03  0.17200000000E+03 0. -1.
         -6    1    1    2    0  503  0.11055526976E+03  0.44463888631E+02 -0.12401575582E+03  0.24323530327E+03  0.17200000000E+03 0.  1.
<mgrwt>
<rscale>  2 0.20924508E+03</rscale>
<asrwt>0</asrwt>
<pdfrwt beam="1">  1       21 0.70596356E-01 0.20924508E+03</pdfrwt>
<pdfrwt beam="2">  1       21 0.58189902E-01 0.20924508E+03</pdfrwt>
<totfact> 0.49678781E+03</totfact>
</mgrwt>
</event>
<event>
 4    1  0.1119790E+000  0.1808818E+03  0.7546771E-02  0.1166952E+00
         21   -1    0    0  501  502  0.00000000000E+00  0.00000000000E+00  0.58512444585E+03  0.58512444585E+03  0.00000000000E+00 0. -1.
         21   -1    0    0  502  503 -0.00000000000E+00 -0.00000000000E+00 -0.61251316852E+02  0.61251316852E+02  0.00000000000E+00 0. -1.
          6    1    1    2  501    0  0.52864231614E+02  0.18427848483E+02  0.16655816109E+03  0.24588581417E+03  0.17200000000E+03 0. -1.
         -6    1    1    2    0  503 -0.52864231614E+02 -0.18427848483E+02  0.35731496791E+03  0.40048994853E+03  0.17200000000E+03 0. -1.
<mgrwt>
<rscale>  2 0.18088176E+03</rscale>
<asrwt>0</asrwt>
<pdfrwt beam="1">  1       21 0.14628109E+00 0.18088176E+03</pdfrwt>
<pdfrwt beam="2">  1       21 0.15312831E-01 0.18088176E+03</pdfrwt>
<totfact> 0.12166135E+04</totfact>
</mgrwt>
</event>
<event>
 4    1  0.1119790E+000  0.2011639E+03  0.7546771E-02  0.1148761E+00
         21   -1    0    0  503  502  0.00000000000E+00  0.00000000000E+00  0.10193511337E+03  0.10193511337E+03  0.00000000000E+00 0.  1.
         21   -1    0    0  501  503 -0.00000000000E+00 -0.00000000000E+00 -0.84579781392E+03  0.84579781392E+03  0.00000000000E+00 0. -1.
          6    1    1    2  501    0 -0.98984401933E+02 -0.32939335960E+02 -0.71711829835E+03  0.74479901014E+03  0.17200000000E+03 0. -1.
         -6    1    1    2    0  502  0.98984401933E+02  0.32939335960E+02 -0.26744402201E+02  0.20293391715E+03  0.17200000000E+03 0.  1.
<mgrwt>
<rscale>  2 0.20116389E+03</rscale>
<asrwt>0</asrwt>
<pdfrwt beam="1">  1       21 0.25483779E-01 0.20116389E+03</pdfrwt>
<pdfrwt beam="2">  1       21 0.21144945E+00 0.20116389E+03</pdfrwt>
<totfact> 0.16442836E+03</totfact>
</mgrwt>
</event>
<event>
 4    1  0.1119790E+000  0.1759416E+03  0.7546771E-02  0.1171790E+00
         21   -1    0    0  501  502  0.00000000000E+00  0.00000000000E+00  0.30978218959E+03  0.30978218959E+03  0.00000000000E+00 0. -1.
         21   -1    0    0  502  503 -0.00000000000E+00 -0.00000000000E+00 -0.13364492910E+03  0.13364492910E+03  0.00000000000E+00 0. -1.
          6    1    1    2  501    0 -0.56505569096E+01 -0.36599503257E+02  0.19943386247E+03  0.26594984101E+03  0.17200000000E+03 0. -1.
         -6    1    1    2    0  503  0.56505569096E+01  0.36599503257E+02 -0.23296601978E+02  0.17747727769E+03  0.17200000000E+03 0. -1.
<mgrwt>
<rscale>  2 0.17594162E+03</rscale>
<asrwt>0</asrwt>
<pdfrwt beam="1">  1       21 0.77445546E-01 0.17594162E+03</pdfrwt>
<pdfrwt beam="2">  1       21 0.33411233E-01 0.17594162E+03</pdfrwt>
<totfact> 0.12909294E+04</totfact>
</mgrwt>
</event>
<event>
 4    1  0.1119790E+000  0.2577803E+03  0.7546771E-02  0.1108484E+00
         21   -1    0    0  503  502  0.00000000000E+00  0.00000000000E+00  0.13110022501E+04  0.13110022501E+04  0.00000000000E+00 0.  1.
         21   -1    0    0  501  503 -0.00000000000E+00 -0.00000000000E+00 -0.50687909301E+02  0.50687909301E+02  0.00000000000E+00 0. -1.
          6    1    1    2  501    0  0.19098555465E+03  0.19779316415E+02  0.63312151607E+03  0.68358873422E+03  0.17200000000E+03 0.  1.
         -6    1    1    2    0  502 -0.19098555465E+03 -0.19779316415E+02  0.62719282474E+03  0.67810142519E+03  0.17200000000E+03 0.  1.
<mgrwt>
<rscale>  2 0.25778034E+03</rscale>
<asrwt>0</asrwt>
<pdfrwt beam="1">  1       21 0.32775045E+00 0.25778034E+03</pdfrwt>
<pdfrwt beam="2">  1       21 0.12671982E-01 0.25778034E+03</pdfrwt>
<totfact> 0.11613936E+03</totfact>
</mgrwt>
</event>
<event>
 4    1  0.1119790E+000  0.1953041E+03  0.7546771E-02  0.1153763E+00
         21   -1    0    0  501  502  0.00000000000E+00  0.00000000000E+00  0.41033641351E+02  0.41033641351E+02  0.00000000000E+00 0.  1.
         21   -1    0    0  502  503 -0.00000000000E+00 -0.00000000000E+00 -0.94469595325E+03  0.94469595325E+03  0.00000000000E+00 0. -1.
          6    1    1    2  501    0  0.90811794290E+02  0.17688714768E+02 -0.38946737521E+03  0.43569313624E+03  0.17200000000E+03 0. -1.
         -6    1    1    2    0  503 -0.90811794290E+02 -0.17688714768E+02 -0.51419493669E+03  0.55003645836E+03  0.17200000000E+03 0.  1.
<mgrwt>
<rscale>  2 0.19530405E+03</rscale>
<asrwt>0</asrwt>
<pdfrwt beam="1">  1       21 0.10258410E-01 0.19530405E+03</pdfrwt>
<pdfrwt beam="2">  1       21 0.23617399E+00 0.19530405E+03</pdfrwt>
<totfact> 0.62121529E+03</totfact>
</mgrwt>
</event>
<event>
 4    1  0.1119790E+000  0.2313687E+03  0.7546771E-02  0.1125680E+00
         21   -1    0    0  501  502  0.00000000000E+00  0.00000000000E+00  0.13834706289E+03  0.13834706289E+03  0.00000000000E+00 0.  1.
         21   -1    0    0  502  503 -0.00000000000E+00 -0.00000000000E+00 -0.38796177888E+03  0.38796177888E+03  0.00000000000E+00 0. -1.
          6    1    1    2  501    0  0.98933332006E+02 -0.11899440223E+03 -0.11127655840E+03  0.25673711145E+03  0.17200000000E+03 0.  1.
         -6    1    1    2    0  503 -0.98933332006E+02  0.11899440223E+03 -0.13833815759E+03  0.26957173032E+03  0.17200000000E+03 0. -1.
<mgrwt>
<rscale>  2 0.23136869E+03</rscale>
<asrwt>0</asrwt>
<pdfrwt beam="1">  1       21 0.34586766E-01 0.23136869E+03</pdfrwt>
<pdfrwt beam="2">  1       21 0.96990444E-01 0.23136869E+03</pdfrwt>
<totfact> 0.69172414E+03</totfact>
</mgrwt>
</event>
<event>
 4    1  0.1119790E+000  0.2113933E+03  0.7546771E-02  0.1140467E+00
         21   -1    0    0  503  502  0.00000000000E+00  0.00000000000E+00  0.10523815999E+04  0.10523815999E+04  0.00000000000E+00 0.  1.
         21   -1    0    0  501  503 -0.00000000000E+00 -0.00000000000E+00 -0.21053955298E+03  0.21053955298E+03  0.00000000000E+00 0.  1.
          6    1    1    2  501    0 -0.96858220649E+02  0.75641262434E+02 -0.14327908022E+03  0.25537425540E+03  0.17200000000E+03 0.  1.
         -6    1    1    2    0  502  0.96858220649E+02 -0.75641262434E+02  0.98512112715E+03  0.10075468975E+04  0.17200000000E+03 0.  1.
<mgrwt>
<rscale>  2 0.21139327E+03</rscale>
<asrwt>0</asrwt>
<pdfrwt beam="1">  1       21 0.26309539E+00 0.21139327E+03</pdfrwt>
<pdfrwt beam="2">  1       21 0.52634891E-01 0.21139327E+03</pdfrwt>
<totfact> 0.18575855E+02</totfact>
</mgrwt>
</event>
<event>
 4    1  0.1119790E+000  0.3110807E+03  0.7546771E-02  0.1079829E+00
         21   -1    0    0  503  502  0.00000000000E+00  0.00000000000E+00  0.32975899283E+03  0.32975899283E+03  0.00000000000E+00 0. -1.
         21   -1    0    0  501  503 -0.00000000000E+00 -0.00000000000E+00 -0.47822615180E+03  0.47822615180E+03  0.00000000000E+00 0. -1.
          6    1    1    2  501    0 -0.22140621058E+03 -0.13478303440E+03  0.17687847503E+03  0.35785076691E+03  0.17200000000E+03 0. -1.
         -6    1    1    2    0  502  0.22140621058E+03  0.13478303440E+03 -0.32534563400E+03  0.45013437773E+03  0.17200000000E+03 0. -1.
<mgrwt>
<rscale>  2 0.31108066E+03</rscale>
<asrwt>0</asrwt>
<pdfrwt beam="1">  1       21 0.82439749E-01 0.31108066E+03</pdfrwt>
<pdfrwt beam="2">  1       21 0.11955654E+00 0.31108066E+03</pdfrwt>
<totfact> 0.61929454E+02</totfact>
</mgrwt>
</event>
<event>
 4    1  0.1119790E+000  0.2589174E+03  0.7546771E-02  0.1107795E+00
         21   -1    0    0  503  502  0.00000000000E+00  0.00000000000E+00  0.85876406001E+03  0.85876406001E+03  0.00000000000E+00 0.  1.
         21   -1    0    0  501  503 -0.00000000000E+00 -0.00000000000E+00 -0.35865577751E+03  0.35865577751E+03  0.00000000000E+00 0.  1.
          6    1    1    2  501    0  0.14963788364E+03  0.12273021834E+03 -0.28835106760E+03  0.38753650267E+03  0.17200000000E+03 0.  1.
         -6    1    1    2    0  502 -0.14963788364E+03 -0.12273021834E+03  0.78845935010E+03  0.82988333485E+03  0.17200000000E+03 0.  1.
<mgrwt>
<rscale>  2 0.25891737E+03</rscale>
<asrwt>0</asrwt>
<pdfrwt beam="1">  1       21 0.21469101E+00 0.25891737E+03</pdfrwt>
<pdfrwt beam="2">  1       21 0.89663946E-01 0.25891737E+03</pdfrwt>
<totfact> 0.10576955E+02</totfact>
</mgrwt>
</event>
<event>
 4    1  0.1119790E+000  0.1835922E+03  0.7546771E-02  0.1164371E+00
         21   -1    0    0  501  502  0.00000000000E+00  0.00000000000E+00  0.49767376051E+03  0.49767376051E+03  0.00000000000E+00 0.  1.
         21   -1    0    0  502  503 -0.00000000000E+00 -0.00000000000E+00 -0.67727756898E+02  0.67727756898E+02  0.00000000000E+00 0.  1.
          6    1    1    2  501    0 -0.49772252122E+02 -0.40556237672E+02  0.21421555409E+03  0.28212477578E+03  0.17200000000E+03 0.  1.
         -6    1    1    2    0  503  0.49772252122E+02  0.40556237672E+02  0.21573044951E+03  0.28327674162E+03  0.17200000000E+03 0.  1.
<mgrwt>
<rscale>  2 0.18359217E+03</rscale>
<asrwt>0</asrwt>
<pdfrwt beam="1">  1       21 0.12441843E+00 0.18359217E+03</pdfrwt>
<pdfrwt beam="2">  1       21 0.16931941E-01 0.18359217E+03</pdfrwt>
<totfact> 0.15260805E+04</totfact>
</mgrwt>
</event>
<event>
 4    1  0.1119790E+000  0.1727665E+03  0.7546771E-02  0.1174993E+00
         21   -1    0    0  503  502  0.00000000000E+00  0.00000000000E+00  0.86173958763E+02  0.86173958763E+02  0.00000000000E+00 0.  1.
         21   -1    0    0  501  503 -0.00000000000E+00 -0.00000000000E+00 -0.73215050798E+03  0.73215050798E+03  0.00000000000E+00 0.  1.
          6    1    1    2  501    0  0.74643020599E+00 -0.16238811644E+02 -0.61999364866E+03  0.64361508725E+03  0.17200000000E+03 0.  1.
         -6    1    1    2    0  502 -0.74643020599E+00  0.16238811644E+02 -0.25982900561E+02  0.17470937949E+03  0.17200000000E+03 0.  1.
<mgrwt>
<rscale>  2 0.17276648E+03</rscale>
<asrwt>0</asrwt>
<pdfrwt beam="1">  1       21 0.21543490E-01 0.17276648E+03</pdfrwt>
<pdfrwt beam="2">  1       21 0.18303762E+00 0.17276648E+03</pdfrwt>
<totfact> 0.35532712E+03</totfact>
</mgrwt>
</event>
<event>
 4    1  0.1119790E+000  0.1930613E+03  0.7546771E-02  0.1155729E+00
         21   -1    0    0  503  502  0.00000000000E+00  0.00000000000E+00  0.12993552329E+04  0.12993552329E+04  0.00000000000E+00 0.  1.
         21   -1    0    0  501  503 -0.00000000000E+00 -0.00000000000E+00 -0.44494317264E+02  0.44494317264E+02  0.00000000000E+00 0. -1.
          6    1    1    2  501    0 -0.85411800783E+02  0.19836861403E+02  0.22691633422E+03  0.29793237407E+03  0.17200000000E+03 0.  1.
         -6    1    1    2    0  502  0.85411800783E+02 -0.19836861403E+02  0.10279445814E+04  0.10459171761E+04  0.17200000000E+03 0.  1.
<mgrwt>
<rscale>  2 0.19306133E+03</rscale>
<asrwt>0</asrwt>
<pdfrwt beam="1">  1       21 0.32483868E+00 0.19306133E+03</pdfrwt>
<pdfrwt beam="2">  1       21 0.11123584E-01 0.19306133E+03</pdfrwt>
<totfact> 0.16475025E+03</totfact>
</mgrwt>
</event>
<event>
 4    1  0.1119790E+000  0.1910208E+03  0.7546771E-02  0.1157544E+00
         21   -1    0    0  503  502  0.00000000000E+00  0.00000000000E+00  0.11029248921E+03  0.11029248921E+03  0.00000000000E+00 0. -1.
         21   -1    0    0  501  503 -0.00000000000E+00 -0.00000000000E+00 -0.33270382652E+03  0.33270382652E+03  0.00000000000E+00 0.  1.
          6    1    1    2  501    0 -0.81137356208E+02  0.17934983835E+02 -0.12779350949E+03  0.22982627196E+03  0.17200000000E+03 0.  1.
         -6    1    1    2    0  502  0.81137356208E+02 -0.17934983835E+02 -0.94617827827E+02  0.21317004377E+03  0.17200000000E+03 0.  1.
<mgrwt>
<rscale>  2 0.19102077E+03</rscale>
<asrwt>0</asrwt>
<pdfrwt beam="1">  1       21 0.27573122E-01 0.19102077E+03</pdfrwt>
<pdfrwt beam="2">  1       21 0.83175956E-01 0.19102077E+03</pdfrwt>
<totfact> 0.15819159E+04</totfact>
</mgrwt>
</event>
<event>
 4    1  0.1119790E+000  0.1745737E+03  0.7546771E-02  0.1173160E+00
         21   -1    0    0  503  502  0.00000000000E+00  0.00000000000E+00  0.14676848195E+03  0.14676848195E+03  0.00000000000E+00 0. -1.
         21   -1    0    0  501  503 -0.00000000000E+00 -0.00000000000E+00 -0.39177220814E+03  0.39177220814E+03  0.00000000000E+00 0. -1.
          6    1    1    2  501    0 -0.28292081560E+02  0.95670371258E+01 -0.30710065797E+03  0.35325172923E+03  0.17200000000E+03 0. -1.
         -6    1    1    2    0  502  0.28292081560E+02 -0.95670371258E+01  0.62096931777E+02  0.18528896085E+03  0.17200000000E+03 0. -1.
<mgrwt>
<rscale>  2 0.17457368E+03</rscale>
<asrwt>0</asrwt>
<pdfrwt beam="1">  1       21 0.36692121E-01 0.17457368E+03</pdfrwt>
<pdfrwt beam="2">  1       21 0.97943051E-01 0.17457368E+03</pdfrwt>
<totfact> 0.62650786E+03</totfact>
</mgrwt>
</event>
<event>
 4    1  0.1119790E+000  0.1776837E+03  0.7546771E-02  0.1170064E+00
         21   -1    0    0  501  502  0.00000000000E+00  0.00000000000E+00  0.50399187135E+03  0.50399187135E+03  0.00000000000E+00 0. -1.
         21   -1    0    0  502  503 -0.00000000000E+00 -0.00000000000E+00 -0.68985746845E+02  0.68985746845E+02  0.00000000000E+00 0. -1.
          6    1    1    2  501    0 -0.10552703199E+02  0.43314321085E+02  0.30437342077E+03  0.35244101525E+03  0.17200000000E+03 0.  1.
         -6    1    1    2    0  503  0.10552703199E+02 -0.43314321085E+02  0.13063270373E+03  0.22053660295E+03  0.17200000000E+03 0.  1.
<mgrwt>
<rscale>  2 0.17768368E+03</rscale>
<asrwt>0</asrwt>
<pdfrwt beam="1">  1       21 0.12599796E+00 0.17768368E+03</pdfrwt>
<pdfrwt beam="2">  1       21 0.17246438E-01 0.17768368E+03</pdfrwt>
<totfact> 0.14354735E+04</totfact>
</mgrwt>
</event>
<event>
 4    1  0.1119790E+000  0.1878521E+03  0.7546771E-02  0.1160413E+00
         21   -1    0    0  501  502  0.00000000000E+00  0.00000000000E+00  0.29958064558E+03  0.29958064558E+03  0.00000000000E+00 0. -1.
         21   -1    0    0  502  503 -0.00000000000E+00 -0.00000000000E+00 -0.12913488712E+03  0.12913488712E+03  0.00000000000E+00 0. -1.
          6    1    1    2  501    0  0.16501325130E+02  0.73702873054E+02  0.21694729101E+02  0.18910068349E+03  0.17200000000E+03 0. -1.
         -6    1    1    2    0  503 -0.16501325130E+02 -0.73702873054E+02  0.14875102936E+03  0.23961484921E+03  0.17200000000E+03 0. -1.
<mgrwt>
<rscale>  2 0.18785209E+03</rscale>
<asrwt>0</asrwt>
<pdfrwt beam="1">  1       21 0.74895160E-01 0.18785209E+03</pdfrwt>
<pdfrwt beam="2">  1       21 0.32283722E-01 0.18785209E+03</pdfrwt>
<totfact> 0.14767410E+04</totfact>
</mgrwt>
</event>
<event>
 4    1  0.1119790E+000  0.2119109E+03  0.7546771E-02  0.1140062E+00
         21   -1    0    0  503  502  0.00000000000E+00  0.00000000000E+00  0.14996466293E+03  0.14996466293E+03  0.00000000000E+00 0. -1.
         21   -1    0    0  501  503 -0.00000000000E+00 -0.00000000000E+00 -0.31119094596E+03  0.31119094596E+03  0.00000000000E+00 0.  1.
          6    1    1    2  501    0  0.12021713958E+03  0.29497183328E+02 -0.12540908164E+03  0.24623907535E+03  0.17200000000E+03 0. -1.
         -6    1    1    2    0  502 -0.12021713958E+03 -0.29497183328E+02 -0.35817201396E+02  0.21491653354E+03  0.17200000000E+03 0. -1.
<mgrwt>
<rscale>  2 0.21191094E+03</rscale>
<asrwt>0</asrwt>
<pdfrwt beam="1">  1       21 0.37491166E-01 0.21191094E+03</pdfrwt>
<pdfrwt beam="2">  1       21 0.77797736E-01 0.21191094E+03</pdfrwt>
<totfact> 0.99184864E+03</totfact>
</mgrwt>
</event>
<event>
 4    1  0.1119790E+000  0.2381190E+03  0.7546771E-02  0.1121052E+00
         21   -1    0    0  503  502  0.00000000000E+00  0.00000000000E+00  0.21044606627E+03  0.21044606627E+03  0.00000000000E+00 0.  1.
         21   -1    0    0  501  503 -0.00000000000E+00 -0.00000000000E+00 -0.28258291947E+03  0.28258291947E+03  0.00000000000E+00 0.  1.
          6    1    1    2  501    0  0.51752174192E+02  0.15632781712E+03 -0.89250547621E+02  0.25429576125E+03  0.17200000000E+03 0.  1.
         -6    1    1    2    0  502 -0.51752174192E+02 -0.15632781712E+03  0.17113694418E+02  0.23873322449E+03  0.17200000000E+03 0.  1.
<mgrwt>
<rscale>  2 0.23811903E+03</rscale>
<asrwt>0</asrwt>
<pdfrwt beam="1">  1       21 0.52611517E-01 0.23811903E+03</pdfrwt>
<pdfrwt beam="2">  1       21 0.70645730E-01 0.23811903E+03</pdfrwt>
<totfact> 0.60243987E+03</totfact>
</mgrwt>
</event>
<event>
 4    1  0.1119790E+000  0.2828331E+03  0.7546771E-02  0.1094152E+00
         21   -1    0    0  501  502  0.00000000000E+00  0.00000000000E+00  0.11354434390E+03  0.11354434390E+03  0.00000000000E+00 0.  1.
         21   -1    0    0  502  503 -0.00000000000E+00 -0.00000000000E+00 -0.70533372071E+03  0.70533372071E+03  0.00000000000E+00 0. -1.
          6    1    1    2  501    0  0.20665692293E+03 -0.87769580835E+02 -0.30977731435E+03  0.41947177212E+03  0.17200000000E+03 0. -1.
         -6    1    1    2    0  503 -0.20665692293E+03  0.87769580835E+02 -0.28201206246E+03  0.39940629250E+03  0.17200000000E+03 0.  1.
<mgrwt>
<rscale>  2 0.28283314E+03</rscale>
<asrwt>0</asrwt>
<pdfrwt beam="1">  1       21 0.28386087E-01 0.28283314E+03</pdfrwt>
<pdfrwt beam="2">  1       21 0.17633343E+00 0.28283314E+03</pdfrwt>
<totfact> 0.21234932E+03</totfact>
</mgrwt>
</event>
<event>
 4    1  0.1119790E+000  0.2095924E+03  0.7546771E-02  0.1141889E+00
         21   -1    0    0  503  502  0.00000000000E+00  0.00000000000E+00  0.17604764124E+03  0.17604764124E+03  0.00000000000E+00 0.  1.
         21   -1    0    0  501  503 -0.00000000000E+00 -0.00000000000E+00 -0.25163025236E+03  0.25163025236E+03  0.00000000000E+00 0.  1.
          6    1    1    2  501    0  0.79755774091E+02  0.89353207841E+02 -0.57332535478E+02  0.21729242710E+03  0.17200000000E+03 0.  1.
         -6    1    1    2    0  502 -0.79755774091E+02 -0.89353207841E+02 -0.18250075636E+02  0.21038546650E+03  0.17200000000E+03 0.  1.
<mgrwt>
<rscale>  2 0.20959241E+03</rscale>
<asrwt>0</asrwt>
<pdfrwt beam="1">  1       21 0.44011911E-01 0.20959241E+03</pdfrwt>
<pdfrwt beam="2">  1       21 0.62907563E-01 0.20959241E+03</pdfrwt>
<totfact> 0.11474530E+04</totfact>
</mgrwt>
</event>
<event>
 4    1  0.1119790E+000  0.2149165E+03  0.7546771E-02  0.1137731E+00
         21   -1    0    0  501  502  0.00000000000E+00  0.00000000000E+00  0.10007105851E+04  0.10007105851E+04  0.00000000000E+00 0.  1.
         21   -1    0    0  502  503 -0.00000000000E+00 -0.00000000000E+00 -0.46853737509E+02  0.46853737509E+02  0.00000000000E+00 0.  1.
          6    1    1    2  501    0 -0.12763576068E+03 -0.17725553476E+02  0.54083359507E+03  0.58197084137E+03  0.17200000000E+03 0.  1.
         -6    1    1    2    0  503  0.12763576068E+03  0.17725553476E+02  0.41302325256E+03  0.46559348127E+03  0.17200000000E+03 0.  1.
<mgrwt>
<rscale>  2 0.21491646E+03</rscale>
<asrwt>0</asrwt>
<pdfrwt beam="1">  1       21 0.25017758E+00 0.21491646E+03</pdfrwt>
<pdfrwt beam="2">  1       21 0.11713438E-01 0.21491646E+03</pdfrwt>
<totfact> 0.39728989E+03</totfact>
</mgrwt>
</event>
<event>
 4    1  0.1119790E+000  0.1722915E+03  0.7546771E-02  0.1175479E+00
         21   -1    0    0  503  502  0.00000000000E+00  0.00000000000E+00  0.16938765621E+03  0.16938765621E+03  0.00000000000E+00 0.  1.
         21   -1    0    0  501  503 -0.00000000000E+00 -0.00000000000E+00 -0.27185709379E+03  0.27185709379E+03  0.00000000000E+00 0.  1.
          6    1    1    2  501    0 -0.33730467473E+01  0.94329393637E+01 -0.18275560578E+03  0.25116522298E+03  0.17200000000E+03 0.  1.
         -6    1    1    2    0  502  0.33730467473E+01 -0.94329393637E+01  0.80286168197E+02  0.19007952702E+03  0.17200000000E+03 0.  1.
<mgrwt>
<rscale>  2 0.17229149E+03</rscale>
<asrwt>0</asrwt>
<pdfrwt beam="1">  1       21 0.42346914E-01 0.17229149E+03</pdfrwt>
<pdfrwt beam="2">  1       21 0.67964273E-01 0.17229149E+03</pdfrwt>
<totfact> 0.10760497E+04</totfact>
</mgrwt>
</event>
<event>
 4    1  0.1119790E+000  0.1998466E+03  0.7546771E-02  0.1149869E+00
         21   -1    0    0  501  502  0.00000000000E+00  0.00000000000E+00  0.34035408699E+02  0.34035408699E+02  0.00000000000E+00 0. -1.
         21   -1    0    0  502  503 -0.00000000000E+00 -0.00000000000E+00 -0.11928965021E+04  0.11928965021E+04  0.00000000000E+00 0. -1.
          6    1    1    2  501    0  0.52019504973E+02 -0.87456373350E+02 -0.50109176456E+03  0.53947344943E+03  0.17200000000E+03 0. -1.
         -6    1    1    2    0  503 -0.52019504973E+02  0.87456373350E+02 -0.65776932889E+03  0.68745846142E+03  0.17200000000E+03 0. -1.
<mgrwt>
<rscale>  2 0.19984656E+03</rscale>
<asrwt>0</asrwt>
<pdfrwt beam="1">  1       21 0.85088529E-02 0.19984656E+03</pdfrwt>
<pdfrwt beam="2">  1       21 0.29822410E+00 0.19984656E+03</pdfrwt>
<totfact> 0.37346754E+03</totfact>
</mgrwt>
</event>
<event>
 4    1  0.1119790E+000  0.1772040E+03  0.7546771E-02  0.1170537E+00
         21   -1    0    0  501  502  0.00000000000E+00  0.00000000000E+00  0.74991577112E+03  0.74991577112E+03  0.00000000000E+00 0.  1.
         21   -1    0    0  502  503 -0.00000000000E+00 -0.00000000000E+00 -0.51495493494E+02  0.51495493494E+02  0.00000000000E+00 0.  1.
          6    1    1    2  501    0  0.22171301071E+02  0.36410033305E+02  0.52242439117E+03  0.55165976979E+03  0.17200000000E+03 0.  1.
         -6    1    1    2    0  503 -0.22171301071E+02 -0.36410033305E+02  0.17599588646E+03  0.24975149482E+03  0.17200000000E+03 0.  1.
<mgrwt>
<rscale>  2 0.17720400E+03</rscale>
<asrwt>0</asrwt>
<pdfrwt beam="1">  1       21 0.18747891E+00 0.17720400E+03</pdfrwt>
<pdfrwt beam="2">  1       21 0.12873876E-01 0.17720400E+03</pdfrwt>
<totfact> 0.84963643E+03</totfact>
</mgrwt>
</event>
<event>
 4    1  0.1119790E+000  0.1916401E+03  0.7546771E-02  0.1156990E+00
         21   -1    0    0  501  502  0.00000000000E+00  0.00000000000E+00  0.89902434835E+02  0.89902434835E+02  0.00000000000E+00 0. -1.
         21   -1    0    0  502  503 -0.00000000000E+00 -0.00000000000E+00 -0.67754287355E+03  0.67754287355E+03  0.00000000000E+00 0.  1.
          6    1    1    2  501    0 -0.73573718411E+02  0.41579419517E+02 -0.52022247805E+02  0.19857556354E+03  0.17200000000E+03 0. -1.
         -6    1    1    2    0  503  0.73573718411E+02 -0.41579419517E+02 -0.53561819091E+03  0.56886974485E+03  0.17200000000E+03 0.  1.
<mgrwt>
<rscale>  2 0.19164013E+03</rscale>
<asrwt>0</asrwt>
<pdfrwt beam="1">  1       21 0.22475609E-01 0.19164013E+03</pdfrwt>
<pdfrwt beam="2">  1       21 0.16938571E+00 0.19164013E+03</pdfrwt>
<totfact> 0.39993563E+03</totfact>
</mgrwt>
</event>
<event>
 4    1  0.1119790E+000  0.1726585E+03  0.7546771E-02  0.1175104E+00
         21   -1    0    0  503  502  0.00000000000E+00  0.00000000000E+00  0.22664947420E+03  0.22664947420E+03  0.00000000000E+00 0.  1.
         21   -1    0    0  501  503 -0.00000000000E+00 -0.00000000000E+00 -0.13392078986E+03  0.13392078986E+03  0.00000000000E+00 0.  1.
          6    1    1    2  501    0 -0.14066841649E+02  0.53921080027E+01  0.70458323451E+02  0.18648143663E+03  0.17200000000E+03 0.  1.
         -6    1    1    2    0  502  0.14066841649E+02 -0.53921080027E+01  0.22270360884E+02  0.17408882743E+03  0.17200000000E+03 0.  1.
<mgrwt>
<rscale>  2 0.17265848E+03</rscale>
<asrwt>0</asrwt>
<pdfrwt beam="1">  1       21 0.56662368E-01 0.17265848E+03</pdfrwt>
<pdfrwt beam="2">  1       21 0.33480198E-01 0.17265848E+03</pdfrwt>
<totfact> 0.25451047E+04</totfact>
</mgrwt>
</event>
<event>
 4    1  0.1119790E+000  0.2170380E+03  0.7546771E-02  0.1136111E+00
         21   -1    0    0  503  502  0.00000000000E+00  0.00000000000E+00  0.78391675647E+03  0.78391675647E+03  0.00000000000E+00 0.  1.
         21   -1    0    0  501  503 -0.00000000000E+00 -0.00000000000E+00 -0.16115784748E+03  0.16115784748E+03  0.00000000000E+00 0.  1.
          6    1    1    2  501    0 -0.99590312478E+02  0.87196580407E+02 -0.62832025370E+02  0.22594985591E+03  0.17200000000E+03 0.  1.
         -6    1    1    2    0  502  0.99590312478E+02 -0.87196580407E+02  0.68559093436E+03  0.71912474804E+03  0.17200000000E+03 0.  1.
<mgrwt>
<rscale>  2 0.21703796E+03</rscale>
<asrwt>0</asrwt>
<pdfrwt beam="1">  1       21 0.19597918E+00 0.21703796E+03</pdfrwt>
<pdfrwt beam="2">  1       21 0.40289464E-01 0.21703796E+03</pdfrwt>
<totfact> 0.82383531E+02</totfact>
</mgrwt>
</event>
<event>
 4    1  0.1119790E+000  0.1982415E+03  0.7546771E-02  0.1151231E+00
         21   -1    0    0  501  502  0.00000000000E+00  0.00000000000E+00  0.12452806580E+03  0.12452806580E+03  0.00000000000E+00 0. -1.
         21   -1    0    0  502  503 -0.00000000000E+00 -0.00000000000E+00 -0.36725845501E+03  0.36725845501E+03  0.00000000000E+00 0. -1.
          6    1    1    2  501    0 -0.68141724978E+02  0.71220892685E+02 -0.29134197095E+02  0.20037093521E+03  0.17200000000E+03 0. -1.
         -6    1    1    2    0  503  0.68141724978E+02 -0.71220892685E+02 -0.21359619212E+03  0.29141558559E+03  0.17200000000E+03 0. -1.
<mgrwt>
<rscale>  2 0.19824155E+03</rscale>
<asrwt>0</asrwt>
<pdfrwt beam="1">  1       21 0.31132017E-01 0.19824155E+03</pdfrwt>
<pdfrwt beam="2">  1       21 0.91814613E-01 0.19824155E+03</pdfrwt>
<totfact> 0.99038274E+03</totfact>
</mgrwt>
</event>
<event>
 4    1  0.1119790E+000  0.2080930E+03  0.7546771E-02  0.1143085E+00
         21   -1    0    0  501  502  0.00000000000E+00  0.00000000000E+00  0.22581383765E+03  0.22581383765E+03  0.00000000000E+00 0.  1.
         21   -1    0    0  502  503 -0.00000000000E+00 -0.00000000000E+00 -0.22627184389E+03  0.22627184389E+03  0.00000000000E+00 0.  1.
          6    1    1    2  501    0 -0.54053555801E+02  0.10390826640E+03  0.88046739285E+02  0.22595340896E+03  0.17200000000E+03 0.  1.
         -6    1    1    2    0  503  0.54053555801E+02 -0.10390826640E+03 -0.88504745521E+02  0.22613227258E+03  0.17200000000E+03 0.  1.
<mgrwt>
<rscale>  2 0.20809304E+03</rscale>
<asrwt>0</asrwt>
<pdfrwt beam="1">  1       21 0.56453459E-01 0.20809304E+03</pdfrwt>
<pdfrwt beam="2">  1       21 0.56567961E-01 0.20809304E+03</pdfrwt>
<totfact> 0.85797837E+03</totfact>
</mgrwt>
</event>
<event>
 4    1  0.1119790E+000  0.2246221E+03  0.7546771E-02  0.1130483E+00
         21   -1    0    0  501  502  0.00000000000E+00  0.00000000000E+00  0.48677346652E+03  0.48677346652E+03  0.00000000000E+00 0. -1.
         21   -1    0    0  502  503 -0.00000000000E+00 -0.00000000000E+00 -0.24920128784E+03  0.24920128784E+03  0.00000000000E+00 0. -1.
          6    1    1    2  501    0  0.40937763017E+01 -0.14441033345E+03  0.40001673165E+03  0.45876844814E+03  0.17200000000E+03 0. -1.
         -6    1    1    2    0  503 -0.40937763017E+01  0.14441033345E+03 -0.16244455297E+03  0.27720630621E+03  0.17200000000E+03 0. -1.
<mgrwt>
<rscale>  2 0.22462213E+03</rscale>
<asrwt>0</asrwt>
<pdfrwt beam="1">  1       21 0.12169337E+00 0.22462213E+03</pdfrwt>
<pdfrwt beam="2">  1       21 0.62300323E-01 0.22462213E+03</pdfrwt>
<totfact> 0.11824915E+03</totfact>
</mgrwt>
</event>
<event>
 4    1  0.1119790E+000  0.2787615E+03  0.7546771E-02  0.1096367E+00
         21   -1    0    0  501  502  0.00000000000E+00  0.00000000000E+00  0.15075256023E+03  0.15075256023E+03  0.00000000000E+00 0.  1.
         21   -1    0    0  502  503 -0.00000000000E+00 -0.00000000000E+00 -0.75695105842E+03  0.75695105842E+03  0.00000000000E+00 0. -1.
          6    1    1    2  501    0  0.15553931078E+03  0.15469812927E+03 -0.46754577891E+02  0.28265522983E+03  0.17200000000E+03 0.  1.
         -6    1    1    2    0  503 -0.15553931078E+03 -0.15469812927E+03 -0.55944392030E+03  0.62504838881E+03  0.17200000000E+03 0. -1.
<mgrwt>
<rscale>  2 0.27876153E+03</rscale>
<asrwt>0</asrwt>
<pdfrwt beam="1">  1       21 0.37688140E-01 0.27876153E+03</pdfrwt>
<pdfrwt beam="2">  1       21 0.18923776E+00 0.27876153E+03</pdfrwt>
<totfact> 0.98913461E+02</totfact>
</mgrwt>
</event>
<event>
 4    1  0.1119790E+000  0.1761093E+03  0.7546771E-02  0.1171623E+00
         21   -1    0    0  501  502  0.00000000000E+00  0.00000000000E+00  0.27170265551E+03  0.27170265551E+03  0.00000000000E+00 0.  1.
         21   -1    0    0  502  503 -0.00000000000E+00 -0.00000000000E+00 -0.20668562921E+03  0.20668562921E+03  0.00000000000E+00 0.  1.
          6    1    1    2  501    0 -0.10119562424E+02 -0.36442669276E+02  0.19255760374E+03  0.26094617155E+03  0.17200000000E+03 0.  1.
         -6    1    1    2    0  503  0.10119562424E+02  0.36442669276E+02 -0.12754057744E+03  0.21744211317E+03  0.17200000000E+03 0.  1.
<mgrwt>
<rscale>  2 0.17610927E+03</rscale>
<asrwt>0</asrwt>
<pdfrwt beam="1">  1       21 0.67925664E-01 0.17610927E+03</pdfrwt>
<pdfrwt beam="2">  1       21 0.51671407E-01 0.17610927E+03</pdfrwt>
<totfact> 0.71299694E+03</totfact>
</mgrwt>
</event>
<event>
 4    1  0.1119790E+000  0.1865510E+03  0.7546771E-02  0.1161609E+00
         21   -1    0    0  501  502  0.00000000000E+00  0.00000000000E+00  0.34319828039E+03  0.34319828039E+03  0.00000000000E+00 0.  1.
         21   -1    0    0  502  503 -0.00000000000E+00 -0.00000000000E+00 -0.10851713454E+03  0.10851713454E+03  0.00000000000E+00 0.  1.
          6    1    1    2  501    0  0.70228399593E+02 -0.16889812762E+02  0.17517021054E+03  0.25590212298E+03  0.17200000000E+03 0.  1.
         -6    1    1    2    0  503 -0.70228399593E+02  0.16889812762E+02  0.59510935315E+02  0.19581329196E+03  0.17200000000E+03 0.  1.
<mgrwt>
<rscale>  2 0.18655105E+03</rscale>
<asrwt>0</asrwt>
<pdfrwt beam="1">  1       21 0.85799568E-01 0.18655105E+03</pdfrwt>
<pdfrwt beam="2">  1       21 0.27129284E-01 0.18655105E+03</pdfrwt>
<totfact> 0.15247216E+04</totfact>
</mgrwt>
</event>
<event>
 4    1  0.1119790E+000  0.1966421E+03  0.7546771E-02  0.1152603E+00
         21   -1    0    0  503  502  0.00000000000E+00  0.00000000000E+00  0.99479973266E+02  0.99479973266E+02  0.00000000000E+00 0. -1.
         21   -1    0    0  501  503 -0.00000000000E+00 -0.00000000000E+00 -0.48562610285E+03  0.48562610285E+03  0.00000000000E+00 0. -1.
          6    1    1    2  501    0  0.15614631843E+02 -0.94022794399E+02 -0.32377097388E+03  0.37880832372E+03  0.17200000000E+03 0. -1.
         -6    1    1    2    0  502 -0.15614631843E+02  0.94022794399E+02 -0.62375155708E+02  0.20629775240E+03  0.17200000000E+03 0. -1.
<mgrwt>
<rscale>  2 0.19664207E+03</rscale>
<asrwt>0</asrwt>
<pdfrwt beam="1">  1       21 0.24869994E-01 0.19664207E+03</pdfrwt>
<pdfrwt beam="2">  1       21 0.12140652E+00 0.19664207E+03</pdfrwt>
<totfact> 0.78250077E+03</totfact>
</mgrwt>
</event>
<event>
 4    1  0.1119790E+000  0.2637389E+03  0.7546771E-02  0.1104917E+00
         21   -1    0    0  503  502  0.00000000000E+00  0.00000000000E+00  0.14688127968E+04  0.14688127968E+04  0.00000000000E+00 0. -1.
         21   -1    0    0  501  503 -0.00000000000E+00 -0.00000000000E+00 -0.24682551766E+03  0.24682551766E+03  0.00000000000E+00 0.  1.
          6    1    1    2  501    0  0.85070380916E+01 -0.19975449668E+03 -0.16015508386E+03  0.30855774099E+03  0.17200000000E+03 0.  1.
         -6    1    1    2    0  502 -0.85070380916E+01  0.19975449668E+03  0.13821423630E+04  0.14070805735E+04  0.17200000000E+03 0. -1.
<mgrwt>
<rscale>  2 0.26373894E+03</rscale>
<asrwt>0</asrwt>
<pdfrwt beam="1">  1       21 0.36720317E+00 0.26373894E+03</pdfrwt>
<pdfrwt beam="2">  1       21 0.61706383E-01 0.26373894E+03</pdfrwt>
<totfact> 0.30009638E+01</totfact>
</mgrwt>
</event>
<event>
 4    1  0.1119790E+000  0.1789936E+03  0.7546771E-02  0.1168781E+00
         21   -1    0    0  503  502  0.00000000000E+00  0.00000000000E+00  0.13958480263E+03  0.13958480263E+03  0.00000000000E+00 0. -1.
         21   -1    0    0  501  503 -0.00000000000E+00 -0.00000000000E+00 -0.24488159215E+03  0.24488159215E+03  0.00000000000E+00 0. -1.
          6    1    1    2  501    0  0.49377463576E+02  0.40720034323E+01 -0.45150834392E+01  0.17905055459E+03  0.17200000000E+03 0.  1.
         -6    1    1    2    0  502 -0.49377463576E+02 -0.40720034323E+01 -0.10078170608E+03  0.20541584019E+03  0.17200000000E+03 0.  1.
<mgrwt>
<rscale>  2 0.17899362E+03</rscale>
<asrwt>0</asrwt>
<pdfrwt beam="1">  1       21 0.34896201E-01 0.17899362E+03</pdfrwt>
<pdfrwt beam="2">  1       21 0.61220398E-01 0.17899362E+03</pdfrwt>
<totfact> 0.19804175E+04</totfact>
</mgrwt>
</event>
<event>
 4    1  0.1119790E+000  0.1971045E+03  0.7546771E-02  0.1152205E+00
         21   -1    0    0  503  502  0.00000000000E+00  0.00000000000E+00  0.19986865412E+03  0.19986865412E+03  0.00000000000E+00 0.  1.
         21   -1    0    0  501  503 -0.00000000000E+00 -0.00000000000E+00 -0.26909944864E+03  0.26909944864E+03  0.00000000000E+00 0. -1.
          6    1    1    2  501    0  0.94632270380E+02 -0.17633049456E+02  0.88944567575E+02  0.21624367536E+03  0.17200000000E+03 0.  1.
         -6    1    1    2    0  502 -0.94632270380E+02  0.17633049456E+02 -0.15817536209E+03  0.25272442740E+03  0.17200000000E+03 0. -1.
<mgrwt>
<rscale>  2 0.19710452E+03</rscale>
<asrwt>0</asrwt>
<pdfrwt beam="1">  1       21 0.49967164E-01 0.19710452E+03</pdfrwt>
<pdfrwt beam="2">  1       21 0.67274862E-01 0.19710452E+03</pdfrwt>
<totfact> 0.76897977E+03</totfact>
</mgrwt>
</event>
<event>
 4    1  0.1119790E+000  0.2775532E+03  0.7546771E-02  0.1097033E+00
         21   -1    0    0  501  502  0.00000000000E+00  0.00000000000E+00  0.17617408763E+03  0.17617408763E+03  0.00000000000E+00 0.  1.
         21   -1    0    0  502  503 -0.00000000000E+00 -0.00000000000E+00 -0.53887820547E+03  0.53887820547E+03  0.00000000000E+00 0.  1.
          6    1    1    2  501    0  0.11992751280E+03 -0.18184923850E+03 -0.26104225609E+02  0.27877802005E+03  0.17200000000E+03 0.  1.
         -6    1    1    2    0  503 -0.11992751280E+03  0.18184923850E+03 -0.33659989223E+03  0.43627427304E+03  0.17200000000E+03 0.  1.
<mgrwt>
<rscale>  2 0.27755316E+03</rscale>
<asrwt>0</asrwt>
<pdfrwt beam="1">  1       21 0.44043523E-01 0.27755316E+03</pdfrwt>
<pdfrwt beam="2">  1       21 0.13471955E+00 0.27755316E+03</pdfrwt>
<totfact> 0.18269228E+03</totfact>
</mgrwt>
</event>
<event>
 4    1  0.1119790E+000  0.2064817E+03  0.7546771E-02  0.1144383E+00
         21   -1    0    0  503  502  0.00000000000E+00  0.00000000000E+00  0.15290712345E+03  0.15290712345E+03  0.00000000000E+00 0.  1.
         21   -1    0    0  501  503 -0.00000000000E+00 -0.00000000000E+00 -0.37627225794E+03  0.37627225794E+03  0.00000000000E+00 0.  1.
          6    1    1    2  501    0  0.37004275444E+02 -0.10808040587E+03 -0.24633101684E+03  0.32142442408E+03  0.17200000000E+03 0.  1.
         -6    1    1    2    0  502 -0.37004275444E+02  0.10808040587E+03  0.22965882360E+02  0.20775495731E+03  0.17200000000E+03 0.  1.
<mgrwt>
<rscale>  2 0.20648170E+03</rscale>
<asrwt>0</asrwt>
<pdfrwt beam="1">  1       21 0.38226781E-01 0.20648170E+03</pdfrwt>
<pdfrwt beam="2">  1       21 0.94068064E-01 0.20648170E+03</pdfrwt>
<totfact> 0.61908468E+03</totfact>
</mgrwt>
</event>
<event>
 4    1  0.1119790E+000  0.1937784E+03  0.7546771E-02  0.1155097E+00
         21   -1    0    0  501  502  0.00000000000E+00  0.00000000000E+00  0.16495571258E+04  0.16495571258E+04  0.00000000000E+00 0.  1.
         21   -1    0    0  502  503 -0.00000000000E+00 -0.00000000000E+00 -0.38522887600E+02  0.38522887600E+02  0.00000000000E+00 0.  1.
          6    1    1    2  501    0 -0.80238326081E+02 -0.39088237480E+02  0.13453633364E+04  0.13592470659E+04  0.17200000000E+03 0.  1.
         -6    1    1    2    0  503  0.80238326081E+02  0.39088237480E+02  0.26567090177E+03  0.32883294745E+03  0.17200000000E+03 0.  1.
<mgrwt>
<rscale>  2 0.19377843E+03</rscale>
<asrwt>0</asrwt>
<pdfrwt beam="1">  1       21 0.41238904E+00 0.19377843E+03</pdfrwt>
<pdfrwt beam="2">  1       21 0.96307274E-02 0.19377843E+03</pdfrwt>
<totfact> 0.63058163E+02</totfact>
</mgrwt>
</event>
<event>
 4    1  0.1119790E+000  0.1936201E+03  0.7546771E-02  0.1155236E+00
         21   -1    0    0  501  502  0.00000000000E+00  0.00000000000E+00  0.54318630350E+02  0.54318630350E+02  0.00000000000E+00 0. -1.
         21   -1    0    0  502  503 -0.00000000000E+00 -0.00000000000E+00 -0.73400568083E+03  0.73400568083E+03  0.00000000000E+00 0. -1.
          6    1    1    2  501    0  0.73211726323E+02 -0.50445712682E+02 -0.43617586987E+03  0.47721914909E+03  0.17200000000E+03 0. -1.
         -6    1    1    2    0  503 -0.73211726323E+02  0.50445712682E+02 -0.24351118061E+03  0.31110516209E+03  0.17200000000E+03 0. -1.
<mgrwt>
<rscale>  2 0.19362006E+03</rscale>
<asrwt>0</asrwt>
<pdfrwt beam="1">  1       21 0.13579658E-01 0.19362006E+03</pdfrwt>
<pdfrwt beam="2">  1       21 0.18350142E+00 0.19362006E+03</pdfrwt>
<totfact> 0.80892703E+03</totfact>
</mgrwt>
</event>
<event>
 4    1  0.1119790E+000  0.1811695E+03  0.7546771E-02  0.1166676E+00
         21   -1    0    0  503  502  0.00000000000E+00  0.00000000000E+00  0.23258077108E+03  0.23258077108E+03  0.00000000000E+00 0.  1.
         21   -1    0    0  501  503 -0.00000000000E+00 -0.00000000000E+00 -0.15248650962E+03  0.15248650962E+03  0.00000000000E+00 0.  1.
          6    1    1    2  501    0 -0.40961039308E+02  0.39504070451E+02 -0.12513048040E+02  0.18160108671E+03  0.17200000000E+03 0.  1.
         -6    1    1    2    0  502  0.40961039308E+02 -0.39504070451E+02  0.92607309505E+02  0.20346619399E+03  0.17200000000E+03 0.  1.
<mgrwt>
<rscale>  2 0.18116947E+03</rscale>
<asrwt>0</asrwt>
<pdfrwt beam="1">  1       21 0.58145192E-01 0.18116947E+03</pdfrwt>
<pdfrwt beam="2">  1       21 0.38121628E-01 0.18116947E+03</pdfrwt>
<totfact> 0.18519719E+04</totfact>
</mgrwt>
</event>
<event>
 4    1  0.1119790E+000  0.1847725E+03  0.7546771E-02  0.1163263E+00
         21   -1    0    0  503  502  0.00000000000E+00  0.00000000000E+00  0.14126372338E+03  0.14126372338E+03  0.00000000000E+00 0.  1.
         21   -1    0    0  501  503 -0.00000000000E+00 -0.00000000000E+00 -0.34102408792E+03  0.34102408792E+03  0.00000000000E+00 0.  1.
          6    1    1    2  501    0  0.51124962922E+02 -0.44080604402E+02 -0.23003222458E+03  0.29505200535E+03  0.17200000000E+03 0.  1.
         -6    1    1    2    0  502 -0.51124962922E+02  0.44080604402E+02  0.30271860048E+02  0.18723580595E+03  0.17200000000E+03 0.  1.
<mgrwt>
<rscale>  2 0.18477246E+03</rscale>
<asrwt>0</asrwt>
<pdfrwt beam="1">  1       21 0.35315931E-01 0.18477246E+03</pdfrwt>
<pdfrwt beam="2">  1       21 0.85256021E-01 0.18477246E+03</pdfrwt>
<totfact> 0.92505963E+03</totfact>
</mgrwt>
</event>
<event>
 4    1  0.1119790E+000  0.2090553E+03  0.7546771E-02  0.1142316E+00
         21   -1    0    0  501  502  0.00000000000E+00  0.00000000000E+00  0.18097438845E+03  0.18097438845E+03  0.00000000000E+00 0.  1.
         21   -1    0    0  502  503 -0.00000000000E+00 -0.00000000000E+00 -0.35731369879E+03  0.35731369879E+03  0.00000000000E+00 0.  1.
          6    1    1    2  501    0 -0.91948618476E+02 -0.75270113983E+02  0.65063270084E+02  0.21894603813E+03  0.17200000000E+03 0.  1.
         -6    1    1    2    0  503  0.91948618476E+02  0.75270113983E+02 -0.24140258042E+03  0.31934204912E+03  0.17200000000E+03 0.  1.
<mgrwt>
<rscale>  2 0.20905535E+03</rscale>
<asrwt>0</asrwt>
<pdfrwt beam="1">  1       21 0.45243597E-01 0.20905535E+03</pdfrwt>
<pdfrwt beam="2">  1       21 0.89328424E-01 0.20905535E+03</pdfrwt>
<totfact> 0.49460401E+03</totfact>
</mgrwt>
</event>
<event>
 4    1  0.1119790E+000  0.1870149E+03  0.7546771E-02  0.1161182E+00
         21   -1    0    0  501  502  0.00000000000E+00  0.00000000000E+00  0.82955677638E+02  0.82955677638E+02  0.00000000000E+00 0.  1.
         21   -1    0    0  502  503 -0.00000000000E+00 -0.00000000000E+00 -0.42162979140E+03  0.42162979140E+03  0.00000000000E+00 0.  1.
          6    1    1    2  501    0 -0.54071251523E+02  0.49667523343E+02 -0.16741882850E+03  0.25100523352E+03  0.17200000000E+03 0.  1.
         -6    1    1    2    0  503  0.54071251523E+02 -0.49667523343E+02 -0.17125528526E+03  0.25358023552E+03  0.17200000000E+03 0.  1.
<mgrwt>
<rscale>  2 0.18701487E+03</rscale>
<asrwt>0</asrwt>
<pdfrwt beam="1">  1       21 0.20738919E-01 0.18701487E+03</pdfrwt>
<pdfrwt beam="2">  1       21 0.10540745E+00 0.18701487E+03</pdfrwt>
<totfact> 0.15669407E+04</totfact>
</mgrwt>
</event>
<event>
 4    1  0.1119790E+000  0.1838575E+03  0.7546771E-02  0.1164121E+00
         21   -1    0    0  503  502  0.00000000000E+00  0.00000000000E+00  0.70824187242E+02  0.70824187242E+02  0.00000000000E+00 0. -1.
         21   -1    0    0  501  503 -0.00000000000E+00 -0.00000000000E+00 -0.83952215299E+03  0.83952215299E+03  0.00000000000E+00 0. -1.
          6    1    1    2  501    0  0.63833124390E+02 -0.12037370866E+02 -0.68333784233E+03  0.70763986096E+03  0.17200000000E+03 0. -1.
         -6    1    1    2    0  502 -0.63833124390E+02  0.12037370866E+02 -0.85360123418E+02  0.20270647927E+03  0.17200000000E+03 0. -1.
<mgrwt>
<rscale>  2 0.18385746E+03</rscale>
<asrwt>0</asrwt>
<pdfrwt beam="1">  1       21 0.17706047E-01 0.18385746E+03</pdfrwt>
<pdfrwt beam="2">  1       21 0.20988054E+00 0.18385746E+03</pdfrwt>
<totfact> 0.33944821E+03</totfact>
</mgrwt>
</event>
<event>
 4    1  0.1119790E+000  0.2443893E+03  0.7546771E-02  0.1116903E+00
         21   -1    0    0  503  502  0.00000000000E+00  0.00000000000E+00  0.64871294052E+02  0.64871294052E+02  0.00000000000E+00 0. -1.
         21   -1    0    0  501  503 -0.00000000000E+00 -0.00000000000E+00 -0.11844012400E+04  0.11844012400E+04  0.00000000000E+00 0.  1.
          6    1    1    2  501    0 -0.12946917177E+03  0.11567128079E+03 -0.85450908448E+03  0.88876987297E+03  0.17200000000E+03 0.  1.
         -6    1    1    2    0  502  0.12946917177E+03 -0.11567128079E+03 -0.26502086149E+03  0.36050266111E+03  0.17200000000E+03 0. -1.
<mgrwt>
<rscale>  2 0.24438926E+03</rscale>
<asrwt>0</asrwt>
<pdfrwt beam="1">  1       21 0.16217823E-01 0.24438926E+03</pdfrwt>
<pdfrwt beam="2">  1       21 0.29610032E+00 0.24438926E+03</pdfrwt>
<totfact> 0.11501659E+03</totfact>
</mgrwt>
</event>
<event>
 4    1  0.1119790E+000  0.2052840E+03  0.7546771E-02  0.1145356E+00
         21   -1    0    0  501  502  0.00000000000E+00  0.00000000000E+00  0.36573118961E+03  0.36573118961E+03  0.00000000000E+00 0. -1.
         21   -1    0    0  502  503 -0.00000000000E+00 -0.00000000000E+00 -0.21937024964E+03  0.21937024964E+03  0.00000000000E+00 0.  1.
          6    1    1    2  501    0 -0.10849900874E+03  0.28026568975E+02  0.27475293175E+03  0.34297331816E+03  0.17200000000E+03 0. -1.
         -6    1    1    2    0  503  0.10849900874E+03 -0.28026568975E+02 -0.12839199178E+03  0.24212812109E+03  0.17200000000E+03 0.  1.
<mgrwt>
<rscale>  2 0.20528401E+03</rscale>
<asrwt>0</asrwt>
<pdfrwt beam="1">  1       21 0.91432797E-01 0.20528401E+03</pdfrwt>
<pdfrwt beam="2">  1       21 0.54842563E-01 0.20528401E+03</pdfrwt>
<totfact> 0.31448065E+03</totfact>
</mgrwt>
</event>
<event>
 4    1  0.1119790E+000  0.1724656E+03  0.7546771E-02  0.1175301E+00
         21   -1    0    0  503  502  0.00000000000E+00  0.00000000000E+00  0.12310983632E+03  0.12310983632E+03  0.00000000000E+00 0. -1.
         21   -1    0    0  501  503 -0.00000000000E+00 -0.00000000000E+00 -0.40653104231E+03  0.40653104231E+03  0.00000000000E+00 0. -1.
          6    1    1    2  501    0  0.99341081285E+01  0.78557439256E+01 -0.31038318021E+03  0.35508043846E+03  0.17200000000E+03 0. -1.
         -6    1    1    2    0  502 -0.99341081285E+01 -0.78557439256E+01  0.26961974227E+02  0.17456044017E+03  0.17200000000E+03 0. -1.
<mgrwt>
<rscale>  2 0.17246565E+03</rscale>
<asrwt>0</asrwt>
<pdfrwt beam="1">  1       21 0.30777459E-01 0.17246565E+03</pdfrwt>
<pdfrwt beam="2">  1       21 0.10163276E+00 0.17246565E+03</pdfrwt>
<totfact> 0.81302000E+03</totfact>
</mgrwt>
</event>
<event>
 4    1  0.1119790E+000  0.2399066E+03  0.7546771E-02  0.1119855E+00
         21   -1    0    0  503  502  0.00000000000E+00  0.00000000000E+00  0.25289310108E+03  0.25289310108E+03  0.00000000000E+00 0. -1.
         21   -1    0    0  501  503 -0.00000000000E+00 -0.00000000000E+00 -0.36276697556E+03  0.36276697556E+03  0.00000000000E+00 0.  1.
          6    1    1    2  501    0  0.12766496940E+03 -0.10804081042E+03 -0.24284847209E+03  0.34136570057E+03  0.17200000000E+03 0.  1.
         -6    1    1    2    0  502 -0.12766496940E+03  0.10804081042E+03  0.13297459762E+03  0.27429437606E+03  0.17200000000E+03 0. -1.
<mgrwt>
<rscale>  2 0.23990657E+03</rscale>
<asrwt>0</asrwt>
<pdfrwt beam="1">  1       21 0.63223276E-01 0.23990657E+03</pdfrwt>
<pdfrwt beam="2">  1       21 0.90691743E-01 0.23990657E+03</pdfrwt>
<totfact> 0.22986694E+03</totfact>
</mgrwt>
</event>
<event>
 4    1  0.1119790E+000  0.2620989E+03  0.7546771E-02  0.1105889E+00
         21   -1    0    0  501  502  0.00000000000E+00  0.00000000000E+00  0.10394881522E+04  0.10394881522E+04  0.00000000000E+00 0. -1.
         21   -1    0    0  502  503 -0.00000000000E+00 -0.00000000000E+00 -0.66089482209E+02  0.66089482209E+02  0.00000000000E+00 0.  1.
          6    1    1    2  501    0  0.10988031438E+03 -0.16443284039E+03  0.48281547476E+03  0.54936929761E+03  0.17200000000E+03 0.  1.
         -6    1    1    2    0  503 -0.10988031438E+03  0.16443284039E+03  0.49058319526E+03  0.55620833683E+03  0.17200000000E+03 0. -1.
<mgrwt>
<rscale>  2 0.26209892E+03</rscale>
<asrwt>0</asrwt>
<pdfrwt beam="1">  1       21 0.25987199E+00 0.26209892E+03</pdfrwt>
<pdfrwt beam="2">  1       21 0.16522374E-01 0.26209892E+03</pdfrwt>
<totfact> 0.17826579E+03</totfact>
</mgrwt>
</event>
<event>
 4    1  0.1119790E+000  0.2186186E+03  0.7546771E-02  0.1134917E+00
         21   -1    0    0  503  502  0.00000000000E+00  0.00000000000E+00  0.68062034212E+02  0.68062034212E+02  0.00000000000E+00 0.  1.
         21   -1    0    0  501  503 -0.00000000000E+00 -0.00000000000E+00 -0.77312497216E+03  0.77312497216E+03  0.00000000000E+00 0. -1.
          6    1    1    2  501    0  0.13130067671E+03 -0.31148287785E+02 -0.47990986261E+03  0.52735904256E+03  0.17200000000E+03 0. -1.
         -6    1    1    2    0  502 -0.13130067671E+03  0.31148287785E+02 -0.22515307534E+03  0.31382796381E+03  0.17200000000E+03 0.  1.
<mgrwt>
<rscale>  2 0.21861858E+03</rscale>
<asrwt>0</asrwt>
<pdfrwt beam="1">  1       21 0.17015509E-01 0.21861858E+03</pdfrwt>
<pdfrwt beam="2">  1       21 0.19328124E+00 0.21861858E+03</pdfrwt>
<totfact> 0.45171175E+03</totfact>
</mgrwt>
</event>
<event>
 4    1  0.1119790E+000  0.1727510E+03  0.7546771E-02  0.1175009E+00
         21   -1    0    0  503  502  0.00000000000E+00  0.00000000000E+00  0.18991259660E+04  0.18991259660E+04  0.00000000000E+00 0. -1.
         21   -1    0    0  501  503 -0.00000000000E+00 -0.00000000000E+00 -0.31036523108E+02  0.31036523108E+02  0.00000000000E+00 0. -1.
          6    1    1    2  501    0  0.16078992303E+02 -0.62168964131E+00  0.25594732697E+03  0.30879111819E+03  0.17200000000E+03 0. -1.
         -6    1    1    2    0  502 -0.16078992303E+02  0.62168964131E+00  0.16121421160E+04  0.16213713709E+04  0.17200000000E+03 0. -1.
<mgrwt>
<rscale>  2 0.17275104E+03</rscale>
<asrwt>0</asrwt>
<pdfrwt beam="1">  1       21 0.47478110E+00 0.17275104E+03</pdfrwt>
<pdfrwt beam="2">  1       21 0.77591372E-02 0.17275104E+03</pdfrwt>
<totfact> 0.37195250E+02</totfact>
</mgrwt>
</event>
<event>
 4    1  0.1119790E+000  0.2539863E+03  0.7546771E-02  0.1110811E+00
         21   -1    0    0  503  502  0.00000000000E+00  0.00000000000E+00  0.10303987855E+03  0.10303987855E+03  0.00000000000E+00 0. -1.
         21   -1    0    0  501  503 -0.00000000000E+00 -0.00000000000E+00 -0.69076461588E+03  0.69076461588E+03  0.00000000000E+00 0.  1.
          6    1    1    2  501    0 -0.55747720758E+02 -0.17837389895E+03 -0.17238675972E+03  0.30696294748E+03  0.17200000000E+03 0. -1.
         -6    1    1    2    0  502  0.55747720758E+02  0.17837389895E+03 -0.41533797761E+03  0.48684154696E+03  0.17200000000E+03 0.  1.
<mgrwt>
<rscale>  2 0.25398633E+03</rscale>
<asrwt>0</asrwt>
<pdfrwt beam="1">  1       21 0.25759970E-01 0.25398633E+03</pdfrwt>
<pdfrwt beam="2">  1       21 0.17269115E+00 0.25398633E+03</pdfrwt>
<totfact> 0.27756724E+03</totfact>
</mgrwt>
</event>
<event>
 4    1  0.1119790E+000  0.1897381E+03  0.7546771E-02  0.1158698E+00
         21   -1    0    0  501  502  0.00000000000E+00  0.00000000000E+00  0.21580695042E+03  0.21580695042E+03  0.00000000000E+00 0. -1.
         21   -1    0    0  502  503 -0.00000000000E+00 -0.00000000000E+00 -0.16751004271E+03  0.16751004271E+03  0.00000000000E+00 0.  1.
          6    1    1    2  501    0 -0.20752081831E+02  0.77368627328E+02  0.11832360576E+02  0.19010670202E+03  0.17200000000E+03 0.  1.
         -6    1    1    2    0  503  0.20752081831E+02 -0.77368627328E+02  0.36464547135E+02  0.19321029111E+03  0.17200000000E+03 0.  1.
<mgrwt>
<rscale>  2 0.18973812E+03</rscale>
<asrwt>0</asrwt>
<pdfrwt beam="1">  1       21 0.53951737E-01 0.18973812E+03</pdfrwt>
<pdfrwt beam="2">  1       21 0.41877511E-01 0.18973812E+03</pdfrwt>
<totfact> 0.17862577E+04</totfact>
</mgrwt>
</event>
<event>
 4    1  0.1119790E+000  0.1866305E+03  0.7546771E-02  0.1161536E+00
         21   -1    0    0  501  502  0.00000000000E+00  0.00000000000E+00  0.23105246390E+03  0.23105246390E+03  0.00000000000E+00 0.  1.
         21   -1    0    0  502  503 -0.00000000000E+00 -0.00000000000E+00 -0.20460056642E+03  0.20460056642E+03  0.00000000000E+00 0.  1.
          6    1    1    2  501    0  0.49509667165E+02  0.52874633856E+02  0.12497822819E+03  0.22461186872E+03  0.17200000000E+03 0.  1.
         -6    1    1    2    0  503 -0.49509667165E+02 -0.52874633856E+02 -0.98526330708E+02  0.21104116160E+03  0.17200000000E+03 0.  1.
<mgrwt>
<rscale>  2 0.18663047E+03</rscale>
<asrwt>0</asrwt>
<pdfrwt beam="1">  1       21 0.57763116E-01 0.18663047E+03</pdfrwt>
<pdfrwt beam="2">  1       21 0.51150142E-01 0.18663047E+03</pdfrwt>
<totfact> 0.10255409E+04</totfact>
</mgrwt>
</event>
<event>
 4    1  0.1119790E+000  0.2105667E+03  0.7546771E-02  0.1141118E+00
         21   -1    0    0  503  502  0.00000000000E+00  0.00000000000E+00  0.25054924820E+03  0.25054924820E+03  0.00000000000E+00 0.  1.
         21   -1    0    0  501  503 -0.00000000000E+00 -0.00000000000E+00 -0.18401949423E+03  0.18401949423E+03  0.00000000000E+00 0. -1.
          6    1    1    2  501    0 -0.50879778685E+02  0.11029769902E+03  0.75809379367E+02  0.22379766819E+03  0.17200000000E+03 0.  1.
         -6    1    1    2    0  502  0.50879778685E+02 -0.11029769902E+03 -0.92796253986E+01  0.21077107424E+03  0.17200000000E+03 0. -1.
<mgrwt>
<rscale>  2 0.21056670E+03</rscale>
<asrwt>0</asrwt>
<pdfrwt beam="1">  1       21 0.62637312E-01 0.21056670E+03</pdfrwt>
<pdfrwt beam="2">  1       21 0.46004874E-01 0.21056670E+03</pdfrwt>
<totfact> 0.10566518E+04</totfact>
</mgrwt>
</event>
<event>
 4    1  0.1119790E+000  0.2026419E+03  0.7546771E-02  0.1147529E+00
         21   -1    0    0  503  502  0.00000000000E+00  0.00000000000E+00  0.73205771729E+03  0.73205771729E+03  0.00000000000E+00 0. -1.
         21   -1    0    0  501  503 -0.00000000000E+00 -0.00000000000E+00 -0.26269499527E+03  0.26269499527E+03  0.00000000000E+00 0. -1.
          6    1    1    2  501    0 -0.10315177103E+03  0.28973165588E+02 -0.20640729798E+03  0.28925370326E+03  0.17200000000E+03 0. -1.
         -6    1    1    2    0  502  0.10315177103E+03 -0.28973165588E+02  0.67577002000E+03  0.70549900930E+03  0.17200000000E+03 0. -1.
<mgrwt>
<rscale>  2 0.20264188E+03</rscale>
<asrwt>0</asrwt>
<pdfrwt beam="1">  1       21 0.18301443E+00 0.20264188E+03</pdfrwt>
<pdfrwt beam="2">  1       21 0.65673750E-01 0.20264188E+03</pdfrwt>
<totfact> 0.36552212E+02</totfact>
</mgrwt>
</event>
<event>
 4    1  0.1119790E+000  0.1845655E+03  0.7546771E-02  0.1163456E+00
         21   -1    0    0  503  502  0.00000000000E+00  0.00000000000E+00  0.77515450319E+02  0.77515450319E+02  0.00000000000E+00 0.  1.
         21   -1    0    0  501  503 -0.00000000000E+00 -0.00000000000E+00 -0.54922546345E+03  0.54922546345E+03  0.00000000000E+00 0. -1.
          6    1    1    2  501    0  0.43014347772E+02 -0.51285404538E+02 -0.37595195238E+03  0.41881296223E+03  0.17200000000E+03 0. -1.
         -6    1    1    2    0  502 -0.43014347772E+02  0.51285404538E+02 -0.95758060750E+02  0.20792795154E+03  0.17200000000E+03 0.  1.
<mgrwt>
<rscale>  2 0.18456551E+03</rscale>
<asrwt>0</asrwt>
<pdfrwt beam="1">  1       21 0.19378863E-01 0.18456551E+03</pdfrwt>
<pdfrwt beam="2">  1       21 0.13730636E+00 0.18456551E+03</pdfrwt>
<totfact> 0.92666547E+03</totfact>
</mgrwt>
</event>
<event>
 4    1  0.1119790E+000  0.2212496E+03  0.7546771E-02  0.1132955E+00
         21   -1    0    0  501  502  0.00000000000E+00  0.00000000000E+00  0.32876619080E+03  0.32876619080E+03  0.00000000000E+00 0. -1.
         21   -1    0    0  502  503 -0.00000000000E+00 -0.00000000000E+00 -0.15581870441E+03  0.15581870441E+03  0.00000000000E+00 0. -1.
          6    1    1    2  501    0  0.55329618403E+02  0.12769502668E+03  0.13755054679E+03  0.26052166787E+03  0.17200000000E+03 0. -1.
         -6    1    1    2    0  503 -0.55329618403E+02 -0.12769502668E+03  0.35396939603E+02  0.22406322733E+03  0.17200000000E+03 0. -1.
<mgrwt>
<rscale>  2 0.22124960E+03</rscale>
<asrwt>0</asrwt>
<pdfrwt beam="1">  1       21 0.82191546E-01 0.22124960E+03</pdfrwt>
<pdfrwt beam="2">  1       21 0.38954677E-01 0.22124960E+03</pdfrwt>
<totfact> 0.80577143E+03</totfact>
</mgrwt>
</event>
<event>
 4    1  0.1119790E+000  0.1903430E+03  0.7546771E-02  0.1158152E+00
         21   -1    0    0  503  502  0.00000000000E+00  0.00000000000E+00  0.11374018546E+03  0.11374018546E+03  0.00000000000E+00 0.  1.
         21   -1    0    0  501  503 -0.00000000000E+00 -0.00000000000E+00 -0.37569330589E+03  0.37569330589E+03  0.00000000000E+00 0.  1.
          6    1    1    2  501    0 -0.81488141767E+02  0.24766835065E+01 -0.22642728812E+03  0.29580359703E+03  0.17200000000E+03 0. -1.
         -6    1    1    2    0  502  0.81488141767E+02 -0.24766835065E+01 -0.35525832307E+02  0.19362989431E+03  0.17200000000E+03 0. -1.
<mgrwt>
<rscale>  2 0.19034298E+03</rscale>
<asrwt>0</asrwt>
<pdfrwt beam="1">  1       21 0.28435047E-01 0.19034298E+03</pdfrwt>
<pdfrwt beam="2">  1       21 0.93923326E-01 0.19034298E+03</pdfrwt>
<totfact> 0.11268295E+04</totfact>
</mgrwt>
</event>
<event>
 4    1  0.1119790E+000  0.1767876E+03  0.7546771E-02  0.1170949E+00
         21   -1    0    0  501  502  0.00000000000E+00  0.00000000000E+00  0.11074162932E+03  0.11074162932E+03  0.00000000000E+00 0. -1.
         21   -1    0    0  502  503 -0.00000000000E+00 -0.00000000000E+00 -0.36812037798E+03  0.36812037798E+03  0.00000000000E+00 0. -1.
          6    1    1    2  501    0  0.17534805984E+01  0.40826043774E+02 -0.13031480323E+02  0.17726719951E+03  0.17200000000E+03 0. -1.
         -6    1    1    2    0  503 -0.17534805984E+01 -0.40826043774E+02 -0.24434726834E+03  0.30159480779E+03  0.17200000000E+03 0. -1.
<mgrwt>
<rscale>  2 0.17678756E+03</rscale>
<asrwt>0</asrwt>
<pdfrwt beam="1">  1       21 0.27685408E-01 0.17678756E+03</pdfrwt>
<pdfrwt beam="2">  1       21 0.92030093E-01 0.17678756E+03</pdfrwt>
<totfact> 0.12557429E+04</totfact>
</mgrwt>
</event>
<event>
 4    1  0.1119790E+000  0.1766354E+03  0.7546771E-02  0.1171100E+00
         21   -1    0    0  501  502  0.00000000000E+00  0.00000000000E+00  0.28829260459E+03  0.28829260459E+03  0.00000000000E+00 0. -1.
         21   -1    0    0  502  503 -0.00000000000E+00 -0.00000000000E+00 -0.10852939660E+03  0.10852939660E+03  0.00000000000E+00 0. -1.
          6    1    1    2  501    0 -0.36203534511E+02  0.17475119046E+02  0.79350391147E+02  0.19364028577E+03  0.17200000000E+03 0. -1.
         -6    1    1    2    0  503  0.36203534511E+02 -0.17475119046E+02  0.10041281684E+03  0.20318171542E+03  0.17200000000E+03 0. -1.
<mgrwt>
<rscale>  2 0.17663543E+03</rscale>
<asrwt>0</asrwt>
<pdfrwt beam="1">  1       21 0.72073150E-01 0.17663543E+03</pdfrwt>
<pdfrwt beam="2">  1       21 0.27132350E-01 0.17663543E+03</pdfrwt>
<totfact> 0.22703542E+04</totfact>
</mgrwt>
</event>
<event>
 4    1  0.1119790E+000  0.3054949E+03  0.7546771E-02  0.1082526E+00
         21   -1    0    0  503  502  0.00000000000E+00  0.00000000000E+00  0.74909700427E+03  0.74909700427E+03  0.00000000000E+00 0. -1.
         21   -1    0    0  501  503 -0.00000000000E+00 -0.00000000000E+00 -0.12905998594E+03  0.12905998594E+03  0.00000000000E+00 0. -1.
          6    1    1    2  501    0 -0.17453417711E+03  0.18243060567E+03  0.22826868392E+03  0.38135770207E+03  0.17200000000E+03 0. -1.
         -6    1    1    2    0  502  0.17453417711E+03 -0.18243060567E+03  0.39176833440E+03  0.49679928815E+03  0.17200000000E+03 0. -1.
<mgrwt>
<rscale>  2 0.30549485E+03</rscale>
<asrwt>0</asrwt>
<pdfrwt beam="1">  1       21 0.18727424E+00 0.30549485E+03</pdfrwt>
<pdfrwt beam="2">  1       21 0.32264999E-01 0.30549485E+03</pdfrwt>
<totfact> 0.13661018E+03</totfact>
</mgrwt>
</event>
<event>
 4    1  0.1119790E+000  0.1815048E+03  0.7546771E-02  0.1166355E+00
         21   -1    0    0  501  502  0.00000000000E+00  0.00000000000E+00  0.99308857209E+02  0.99308857209E+02  0.00000000000E+00 0.  1.
         21   -1    0    0  502  503 -0.00000000000E+00 -0.00000000000E+00 -0.44688140078E+03  0.44688140078E+03  0.00000000000E+00 0.  1.
          6    1    1    2  501    0  0.14903287331E+01 -0.57946302841E+02 -0.35159426590E+02  0.18487882618E+03  0.17200000000E+03 0.  1.
         -6    1    1    2    0  503 -0.14903287331E+01  0.57946302841E+02 -0.31241311698E+03  0.36131143181E+03  0.17200000000E+03 0.  1.
<mgrwt>
<rscale>  2 0.18150481E+03</rscale>
<asrwt>0</asrwt>
<pdfrwt beam="1">  1       21 0.24827215E-01 0.18150481E+03</pdfrwt>
<pdfrwt beam="2">  1       21 0.11172035E+00 0.18150481E+03</pdfrwt>
<totfact> 0.97324274E+03</totfact>
</mgrwt>
</event>
<event>
 4    1  0.1119790E+000  0.1853689E+03  0.7546771E-02  0.1162706E+00
         21   -1    0    0  503  502  0.00000000000E+00  0.00000000000E+00  0.45902789560E+03  0.45902789560E+03  0.00000000000E+00 0. -1.
         21   -1    0    0  501  503 -0.00000000000E+00 -0.00000000000E+00 -0.75380662288E+02  0.75380662288E+02  0.00000000000E+00 0. -1.
          6    1    1    2  501    0 -0.22855174866E+02 -0.65232350847E+02  0.16956040698E+03  0.25122171529E+03  0.17200000000E+03 0. -1.
         -6    1    1    2    0  502  0.22855174866E+02  0.65232350847E+02  0.21408682633E+03  0.28318684260E+03  0.17200000000E+03 0. -1.
<mgrwt>
<rscale>  2 0.18536887E+03</rscale>
<asrwt>0</asrwt>
<pdfrwt beam="1">  1       21 0.11475697E+00 0.18536887E+03</pdfrwt>
<pdfrwt beam="2">  1       21 0.18845167E-01 0.18536887E+03</pdfrwt>
<totfact> 0.15269852E+04</totfact>
</mgrwt>
</event>
<event>
 4    1  0.1119790E+000  0.2066101E+03  0.7546771E-02  0.1144279E+00
         21   -1    0    0  501  502  0.00000000000E+00  0.00000000000E+00  0.62180099529E+03  0.62180099529E+03  0.00000000000E+00 0. -1.
         21   -1    0    0  502  503 -0.00000000000E+00 -0.00000000000E+00 -0.36953456882E+03  0.36953456882E+03  0.00000000000E+00 0. -1.
          6    1    1    2  501    0  0.75000888852E+01 -0.11422558523E+03  0.57339504614E+03  0.60948307162E+03  0.17200000000E+03 0. -1.
         -6    1    1    2    0  503 -0.75000888852E+01  0.11422558523E+03 -0.32112861966E+03  0.38185249249E+03  0.17200000000E+03 0. -1.
<mgrwt>
<rscale>  2 0.20661011E+03</rscale>
<asrwt>0</asrwt>
<pdfrwt beam="1">  1       21 0.15545025E+00 0.20661011E+03</pdfrwt>
<pdfrwt beam="2">  1       21 0.92383643E-01 0.20661011E+03</pdfrwt>
<totfact> 0.26439383E+02</totfact>
</mgrwt>
</event>
<event>
 4    1  0.1119790E+000  0.2083035E+03  0.7546771E-02  0.1142917E+00
         21   -1    0    0  503  502  0.00000000000E+00  0.00000000000E+00  0.38910565802E+02  0.38910565802E+02  0.00000000000E+00 0.  1.
         21   -1    0    0  501  503 -0.00000000000E+00 -0.00000000000E+00 -0.13662289447E+04  0.13662289447E+04  0.00000000000E+00 0.  1.
          6    1    1    2  501    0  0.69865333148E+01  0.11729252880E+03 -0.96485570048E+03  0.98708503773E+03  0.17200000000E+03 0.  1.
         -6    1    1    2    0  502 -0.69865333148E+01 -0.11729252880E+03 -0.36246267844E+03  0.41805447279E+03  0.17200000000E+03 0.  1.
<mgrwt>
<rscale>  2 0.20830350E+03</rscale>
<asrwt>0</asrwt>
<pdfrwt beam="1">  1       21 0.97276414E-02 0.20830350E+03</pdfrwt>
<pdfrwt beam="2">  1       21 0.34155724E+00 0.20830350E+03</pdfrwt>
<totfact> 0.16358274E+03</totfact>
</mgrwt>
</event>
<event>
 4    1  0.1119790E+000  0.2043285E+03  0.7546771E-02  0.1146138E+00
         21   -1    0    0  503  502  0.00000000000E+00  0.00000000000E+00  0.32435878231E+03  0.32435878231E+03  0.00000000000E+00 0.  1.
         21   -1    0    0  501  503 -0.00000000000E+00 -0.00000000000E+00 -0.15932216234E+03  0.15932216234E+03  0.00000000000E+00 0. -1.
          6    1    1    2  501    0  0.20448619568E+02  0.10838822806E+03 -0.23479176192E+02  0.20567310407E+03  0.17200000000E+03 0.  1.
         -6    1    1    2    0  502 -0.20448619568E+02 -0.10838822806E+03  0.18851579616E+03  0.27800784058E+03  0.17200000000E+03 0.  1.
<mgrwt>
<rscale>  2 0.20432854E+03</rscale>
<asrwt>0</asrwt>
<pdfrwt beam="1">  1       21 0.81089695E-01 0.20432854E+03</pdfrwt>
<pdfrwt beam="2">  1       21 0.39830541E-01 0.20432854E+03</pdfrwt>
<totfact> 0.80360570E+03</totfact>
</mgrwt>
</event>
<event>
 4    1  0.1119790E+000  0.1786653E+03  0.7546771E-02  0.1169101E+00
         21   -1    0    0  503  502  0.00000000000E+00  0.00000000000E+00  0.60269079876E+02  0.60269079876E+02  0.00000000000E+00 0.  1.
         21   -1    0    0  501  503 -0.00000000000E+00 -0.00000000000E+00 -0.78956229476E+03  0.78956229476E+03  0.00000000000E+00 0.  1.
          6    1    1    2  501    0  0.44796203224E+02 -0.18181665485E+02 -0.60844249633E+03  0.63413211882E+03  0.17200000000E+03 0.  1.
         -6    1    1    2    0  502 -0.44796203224E+02  0.18181665485E+02 -0.12085071855E+03  0.21569925581E+03  0.17200000000E+03 0.  1.
<mgrwt>
<rscale>  2 0.17866525E+03</rscale>
<asrwt>0</asrwt>
<pdfrwt beam="1">  1       21 0.15067270E-01 0.17866525E+03</pdfrwt>
<pdfrwt beam="2">  1       21 0.19739057E+00 0.17866525E+03</pdfrwt>
<totfact> 0.55020320E+03</totfact>
</mgrwt>
</event>
<event>
 4    1  0.1119790E+000  0.1879560E+03  0.7546771E-02  0.1160318E+00
         21   -1    0    0  501  502  0.00000000000E+00  0.00000000000E+00  0.89711824248E+02  0.89711824248E+02  0.00000000000E+00 0.  1.
         21   -1    0    0  502  503 -0.00000000000E+00 -0.00000000000E+00 -0.47534545274E+03  0.47534545274E+03  0.00000000000E+00 0.  1.
          6    1    1    2  501    0  0.74469823341E+02  0.14061283340E+02 -0.30984449801E+03  0.36239631237E+03  0.17200000000E+03 0.  1.
         -6    1    1    2    0  503 -0.74469823341E+02 -0.14061283340E+02 -0.75789130482E+02  0.20266096461E+03  0.17200000000E+03 0.  1.
<mgrwt>
<rscale>  2 0.18795604E+03</rscale>
<asrwt>0</asrwt>
<pdfrwt beam="1">  1       21 0.22427956E-01 0.18795604E+03</pdfrwt>
<pdfrwt beam="2">  1       21 0.11883636E+00 0.18795604E+03</pdfrwt>
<totfact> 0.10104436E+04</totfact>
</mgrwt>
</event>
<event>
 4    1  0.1119790E+000  0.1802319E+03  0.7546771E-02  0.1167579E+00
         21   -1    0    0  501  502  0.00000000000E+00  0.00000000000E+00  0.30141192582E+02  0.30141192582E+02  0.00000000000E+00 0.  1.
         21   -1    0    0  502  503 -0.00000000000E+00 -0.00000000000E+00 -0.13643806015E+04  0.13643806015E+04  0.00000000000E+00 0.  1.
          6    1    1    2  501    0 -0.38351750137E+02  0.37797991651E+02 -0.34751209981E+03  0.39146928925E+03  0.17200000000E+03 0.  1.
         -6    1    1    2    0  503  0.38351750137E+02 -0.37797991651E+02 -0.98672730910E+03  0.10030525048E+04  0.17200000000E+03 0.  1.
<mgrwt>
<rscale>  2 0.18023192E+03</rscale>
<asrwt>0</asrwt>
<pdfrwt beam="1">  1       21 0.75352985E-02 0.18023192E+03</pdfrwt>
<pdfrwt beam="2">  1       21 0.34109514E+00 0.18023192E+03</pdfrwt>
<totfact> 0.26722028E+03</totfact>
</mgrwt>
</event>
<event>
 4    1  0.1119790E+000  0.1900305E+03  0.7546771E-02  0.1158434E+00
         21   -1    0    0  503  502  0.00000000000E+00  0.00000000000E+00  0.93839382685E+03  0.93839382685E+03  0.00000000000E+00 0. -1.
         21   -1    0    0  501  503 -0.00000000000E+00 -0.00000000000E+00 -0.63131966869E+02  0.63131966869E+02  0.00000000000E+00 0. -1.
          6    1    1    2  501    0  0.56698828788E+02  0.57557089315E+02  0.12472571967E+03  0.22730613908E+03  0.17200000000E+03 0. -1.
         -6    1    1    2    0  502 -0.56698828788E+02 -0.57557089315E+02  0.75053614031E+03  0.77421965464E+03  0.17200000000E+03 0. -1.
<mgrwt>
<rscale>  2 0.19003046E+03</rscale>
<asrwt>0</asrwt>
<pdfrwt beam="1">  1       21 0.23459841E+00 0.19003046E+03</pdfrwt>
<pdfrwt beam="2">  1       21 0.15782995E-01 0.19003046E+03</pdfrwt>
<totfact> 0.29419331E+03</totfact>
</mgrwt>
</event>
<event>
 4    1  0.1119790E+000  0.3103857E+03  0.7546771E-02  0.1080161E+00
         21   -1    0    0  501  502  0.00000000000E+00  0.00000000000E+00  0.10245567337E+04  0.10245567337E+04  0.00000000000E+00 0.  1.
         21   -1    0    0  502  503 -0.00000000000E+00 -0.00000000000E+00 -0.17215714339E+03  0.17215714339E+03  0.00000000000E+00 0. -1.
          6    1    1    2  501    0 -0.63015352636E+02 -0.25056800548E+03  0.82928630497E+03  0.88546882252E+03  0.17200000000E+03 0.  1.
         -6    1    1    2    0  503  0.63015352636E+02  0.25056800548E+03  0.23113285335E+02  0.31124505458E+03  0.17200000000E+03 0. -1.
<mgrwt>
<rscale>  2 0.31038566E+03</rscale>
<asrwt>0</asrwt>
<pdfrwt beam="1">  1       21 0.25613917E+00 0.31038566E+03</pdfrwt>
<pdfrwt beam="2">  1       21 0.43039289E-01 0.31038566E+03</pdfrwt>
<totfact> 0.27938782E+02</totfact>
</mgrwt>
</event>
<event>
 4    1  0.1119790E+000  0.1776537E+03  0.7546771E-02  0.1170093E+00
         21   -1    0    0  503  502  0.00000000000E+00  0.00000000000E+00  0.20343562742E+02  0.20343562742E+02  0.00000000000E+00 0. -1.
         21   -1    0    0  501  503 -0.00000000000E+00 -0.00000000000E+00 -0.24764660623E+04  0.24764660623E+04  0.00000000000E+00 0. -1.
          6    1    1    2  501    0  0.10423381220E+02 -0.43222521401E+02 -0.19910665936E+04  0.19989764915E+04  0.17200000000E+03 0. -1.
         -6    1    1    2    0  502 -0.10423381220E+02  0.43222521401E+02 -0.46505590595E+03  0.49783313358E+03  0.17200000000E+03 0. -1.
<mgrwt>
<rscale>  2 0.17765369E+03</rscale>
<asrwt>0</asrwt>
<pdfrwt beam="1">  1       21 0.50858913E-02 0.17765369E+03</pdfrwt>
<pdfrwt beam="2">  1       21 0.61911644E+00 0.17765369E+03</pdfrwt>
<totfact> 0.64733400E+01</totfact>
</mgrwt>
</event>
<event>
 4    1  0.1119790E+000  0.2320444E+03  0.7546771E-02  0.1125209E+00
         21   -1    0    0  501  502  0.00000000000E+00  0.00000000000E+00  0.66187306701E+03  0.66187306701E+03  0.00000000000E+00 0. -1.
         21   -1    0    0  502  503 -0.00000000000E+00 -0.00000000000E+00 -0.16696585284E+03  0.16696585284E+03  0.00000000000E+00 0.  1.
          6    1    1    2  501    0  0.38629702435E+02 -0.15089187964E+03  0.54420902389E+03  0.59161480284E+03  0.17200000000E+03 0. -1.
         -6    1    1    2    0  503 -0.38629702435E+02  0.15089187964E+03 -0.49301809722E+02  0.23722411701E+03  0.17200000000E+03 0.  1.
<mgrwt>
<rscale>  2 0.23204442E+03</rscale>
<asrwt>0</asrwt>
<pdfrwt beam="1">  1       21 0.16546826E+00 0.23204442E+03</pdfrwt>
<pdfrwt beam="2">  1       21 0.41741465E-01 0.23204442E+03</pdfrwt>
<totfact> 0.12218375E+03</totfact>
</mgrwt>
</event>
<event>
 4    1  0.1119790E+000  0.1747362E+03  0.7546771E-02  0.1172997E+00
         21   -1    0    0  503  502  0.00000000000E+00  0.00000000000E+00  0.68017827969E+03  0.68017827969E+03  0.00000000000E+00 0.  1.
         21   -1    0    0  501  503 -0.00000000000E+00 -0.00000000000E+00 -0.48652282923E+02  0.48652282923E+02  0.00000000000E+00 0. -1.
          6    1    1    2  501    0 -0.28843008125E+02  0.10808339047E+02  0.21441619965E+03  0.27659907083E+03  0.17200000000E+03 0. -1.
         -6    1    1    2    0  502  0.28843008125E+02 -0.10808339047E+02  0.41710979711E+03  0.45223149178E+03  0.17200000000E+03 0.  1.
<mgrwt>
<rscale>  2 0.17473620E+03</rscale>
<asrwt>0</asrwt>
<pdfrwt beam="1">  1       21 0.17004454E+00 0.17473620E+03</pdfrwt>
<pdfrwt beam="2">  1       21 0.12163073E-01 0.17473620E+03</pdfrwt>
<totfact> 0.12386321E+04</totfact>
</mgrwt>
</event>
<event>
 4    1  0.1119790E+000  0.1773430E+03  0.7546771E-02  0.1170400E+00
         21   -1    0    0  501  502  0.00000000000E+00  0.00000000000E+00  0.34262191467E+03  0.34262191467E+03  0.00000000000E+00 0.  1.
         21   -1    0    0  502  503 -0.00000000000E+00 -0.00000000000E+00 -0.10169862498E+03  0.10169862498E+03  0.00000000000E+00 0.  1.
          6    1    1    2  501    0 -0.40113239371E+02 -0.16045246876E+02  0.18979387561E+03  0.25975418599E+03  0.17200000000E+03 0.  1.
         -6    1    1    2    0  503  0.40113239371E+02  0.16045246876E+02  0.51129414080E+02  0.18456635366E+03  0.17200000000E+03 0.  1.
<mgrwt>
<rscale>  2 0.17734295E+03</rscale>
<asrwt>0</asrwt>
<pdfrwt beam="1">  1       21 0.85655476E-01 0.17734295E+03</pdfrwt>
<pdfrwt beam="2">  1       21 0.25424657E-01 0.17734295E+03</pdfrwt>
<totfact> 0.17436010E+04</totfact>
</mgrwt>
</event>
<event>
 4    1  0.1119790E+000  0.1965677E+03  0.7546771E-02  0.1152668E+00
         21   -1    0    0  501  502  0.00000000000E+00  0.00000000000E+00  0.26872853515E+03  0.26872853515E+03  0.00000000000E+00 0. -1.
         21   -1    0    0  502  503 -0.00000000000E+00 -0.00000000000E+00 -0.19756609002E+03  0.19756609002E+03  0.00000000000E+00 0. -1.
          6    1    1    2  501    0 -0.40285526784E+02 -0.86208640391E+02  0.15722592617E+03  0.25171182969E+03  0.17200000000E+03 0. -1.
         -6    1    1    2    0  503  0.40285526784E+02  0.86208640391E+02 -0.86063481047E+02  0.21458279548E+03  0.17200000000E+03 0. -1.
<mgrwt>
<rscale>  2 0.19656768E+03</rscale>
<asrwt>0</asrwt>
<pdfrwt beam="1">  1       21 0.67182134E-01 0.19656768E+03</pdfrwt>
<pdfrwt beam="2">  1       21 0.49391523E-01 0.19656768E+03</pdfrwt>
<totfact> 0.79047200E+03</totfact>
</mgrwt>
</event>
<event>
 4    1  0.1119790E+000  0.1851360E+03  0.7546771E-02  0.1162923E+00
         21   -1    0    0  501  502  0.00000000000E+00  0.00000000000E+00  0.50210128778E+03  0.50210128778E+03  0.00000000000E+00 0.  1.
         21   -1    0    0  502  503 -0.00000000000E+00 -0.00000000000E+00 -0.91299052582E+02  0.91299052582E+02  0.00000000000E+00 0.  1.
          6    1    1    2  501    0 -0.49571732096E+02  0.47264895621E+02  0.35443376944E+03  0.39987325979E+03  0.17200000000E+03 0.  1.
         -6    1    1    2    0  503  0.49571732096E+02 -0.47264895621E+02  0.56368465761E+02  0.19352708057E+03  0.17200000000E+03 0.  1.
<mgrwt>
<rscale>  2 0.18513597E+03</rscale>
<asrwt>0</asrwt>
<pdfrwt beam="1">  1       21 0.12552531E+00 0.18513597E+03</pdfrwt>
<pdfrwt beam="2">  1       21 0.22824765E-01 0.18513597E+03</pdfrwt>
<totfact> 0.85482055E+03</totfact>
</mgrwt>
</event>
<event>
 4    1  0.1119790E+000  0.1980024E+03  0.7546771E-02  0.1151435E+00
         21   -1    0    0  503  502  0.00000000000E+00  0.00000000000E+00  0.19187423966E+03  0.19187423966E+03  0.00000000000E+00 0.  1.
         21   -1    0    0  501  503 -0.00000000000E+00 -0.00000000000E+00 -0.28202773779E+03  0.28202773779E+03  0.00000000000E+00 0.  1.
          6    1    1    2  501    0  0.77445021573E+02  0.60193238111E+02 -0.16945002831E+03  0.26061133777E+03  0.17200000000E+03 0.  1.
         -6    1    1    2    0  502 -0.77445021573E+02 -0.60193238111E+02  0.79296530177E+02  0.21329063969E+03  0.17200000000E+03 0.  1.
<mgrwt>
<rscale>  2 0.19800242E+03</rscale>
<asrwt>0</asrwt>
<pdfrwt beam="1">  1       21 0.47968560E-01 0.19800242E+03</pdfrwt>
<pdfrwt beam="2">  1       21 0.70506934E-01 0.19800242E+03</pdfrwt>
<totfact> 0.75451768E+03</totfact>
</mgrwt>
</event>
<event>
 4    1  0.1119790E+000  0.1903442E+03  0.7546771E-02  0.1158151E+00
         21   -1    0    0  501  502  0.00000000000E+00  0.00000000000E+00  0.49509576822E+02  0.49509576822E+02  0.00000000000E+00 0.  1.
         21   -1    0    0  502  503 -0.00000000000E+00 -0.00000000000E+00 -0.80646926003E+03  0.80646926003E+03  0.00000000000E+00 0. -1.
          6    1    1    2  501    0  0.58190728503E+02  0.57103065685E+02 -0.24824684031E+03  0.31282169797E+03  0.17200000000E+03 0.  1.
         -6    1    1    2    0  503 -0.58190728503E+02 -0.57103065685E+02 -0.50871284290E+03  0.54315713889E+03  0.17200000000E+03 0. -1.
<mgrwt>
<rscale>  2 0.19034422E+03</rscale>
<asrwt>0</asrwt>
<pdfrwt beam="1">  1       21 0.12377394E-01 0.19034422E+03</pdfrwt>
<pdfrwt beam="2">  1       21 0.20161731E+00 0.19034422E+03</pdfrwt>
<totfact> 0.72934140E+03</totfact>
</mgrwt>
</event>
<event>
 4    1  0.1119790E+000  0.1790464E+03  0.7546771E-02  0.1168729E+00
         21   -1    0    0  501  502  0.00000000000E+00  0.00000000000E+00  0.68971168943E+03  0.68971168943E+03  0.00000000000E+00 0. -1.
         21   -1    0    0  502  503 -0.00000000000E+00 -0.00000000000E+00 -0.46673256161E+02  0.46673256161E+02  0.00000000000E+00 0. -1.
          6    1    1    2  501    0 -0.36228223231E+02  0.34075101267E+02  0.29780889728E+03  0.34748774941E+03  0.17200000000E+03 0.  1.
         -6    1    1    2    0  503  0.36228223231E+02 -0.34075101267E+02  0.34522953599E+03  0.38889719619E+03  0.17200000000E+03 0.  1.
<mgrwt>
<rscale>  2 0.17904635E+03</rscale>
<asrwt>0</asrwt>
<pdfrwt beam="1">  1       21 0.17242789E+00 0.17904635E+03</pdfrwt>
<pdfrwt beam="2">  1       21 0.11668316E-01 0.17904635E+03</pdfrwt>
<totfact> 0.12794046E+04</totfact>
</mgrwt>
</event>
<event>
 4    1  0.1119790E+000  0.2367264E+03  0.7546771E-02  0.1121993E+00
         21   -1    0    0  503  502  0.00000000000E+00  0.00000000000E+00  0.51335495522E+03  0.51335495522E+03  0.00000000000E+00 0.  1.
         21   -1    0    0  501  503 -0.00000000000E+00 -0.00000000000E+00 -0.11562016662E+03  0.11562016662E+03  0.00000000000E+00 0.  1.
          6    1    1    2  501    0  0.73991676537E+02 -0.14484682068E+03  0.12454708681E+03  0.26749083440E+03  0.17200000000E+03 0.  1.
         -6    1    1    2    0  502 -0.73991676537E+02  0.14484682068E+03  0.27318770178E+03  0.36148428743E+03  0.17200000000E+03 0.  1.
<mgrwt>
<rscale>  2 0.23672636E+03</rscale>
<asrwt>0</asrwt>
<pdfrwt beam="1">  1       21 0.12833873E+00 0.23672636E+03</pdfrwt>
<pdfrwt beam="2">  1       21 0.28905043E-01 0.23672636E+03</pdfrwt>
<totfact> 0.49463889E+03</totfact>
</mgrwt>
</event>
<event>
 4    1  0.1119790E+000  0.1853940E+03  0.7546771E-02  0.1162682E+00
         21   -1    0    0  503  502  0.00000000000E+00  0.00000000000E+00  0.68037079714E+03  0.68037079714E+03  0.00000000000E+00 0. -1.
         21   -1    0    0  501  503 -0.00000000000E+00 -0.00000000000E+00 -0.50562855045E+02  0.50562855045E+02  0.00000000000E+00 0. -1.
          6    1    1    2  501    0 -0.41459522246E+02 -0.55390004104E+02  0.30401385217E+03  0.35608337064E+03  0.17200000000E+03 0. -1.
         -6    1    1    2    0  502  0.41459522246E+02  0.55390004104E+02  0.32579408993E+03  0.37485028154E+03  0.17200000000E+03 0. -1.
<mgrwt>
<rscale>  2 0.18539403E+03</rscale>
<asrwt>0</asrwt>
<pdfrwt beam="1">  1       21 0.17009267E+00 0.18539403E+03</pdfrwt>
<pdfrwt beam="2">  1       21 0.12640716E-01 0.18539403E+03</pdfrwt>
<totfact> 0.11454129E+04</totfact>
</mgrwt>
</event>
<event>
 4    1  0.1119790E+000  0.2193990E+03  0.7546771E-02  0.1134332E+00
         21   -1    0    0  501  502  0.00000000000E+00  0.00000000000E+00  0.14720959938E+03  0.14720959938E+03  0.00000000000E+00 0. -1.
         21   -1    0    0  502  503 -0.00000000000E+00 -0.00000000000E+00 -0.48162271741E+03  0.48162271741E+03  0.00000000000E+00 0.  1.
          6    1    1    2  501    0 -0.81493761849E+02  0.10913612142E+03  0.10950654397E+02  0.21967212625E+03  0.17200000000E+03 0. -1.
         -6    1    1    2    0  503  0.81493761849E+02 -0.10913612142E+03 -0.34536377243E+03  0.40916019054E+03  0.17200000000E+03 0.  1.
<mgrwt>
<rscale>  2 0.21939901E+03</rscale>
<asrwt>0</asrwt>
<pdfrwt beam="1">  1       21 0.36802400E-01 0.21939901E+03</pdfrwt>
<pdfrwt beam="2">  1       21 0.12040568E+00 0.21939901E+03</pdfrwt>
<totfact> 0.36484600E+03</totfact>
</mgrwt>
</event>
<event>
 4    1  0.1119790E+000  0.2017140E+03  0.7546771E-02  0.1148301E+00
         21   -1    0    0  501  502  0.00000000000E+00  0.00000000000E+00  0.51469262097E+02  0.51469262097E+02  0.00000000000E+00 0.  1.
         21   -1    0    0  502  503 -0.00000000000E+00 -0.00000000000E+00 -0.79351392171E+03  0.79351392171E+03  0.00000000000E+00 0.  1.
          6    1    1    2  501    0  0.13329898417E+02  0.10453159941E+03 -0.34516036212E+03  0.39978021093E+03  0.17200000000E+03 0.  1.
         -6    1    1    2    0  503 -0.13329898417E+02 -0.10453159941E+03 -0.39688429749E+03  0.44520297288E+03  0.17200000000E+03 0.  1.
<mgrwt>
<rscale>  2 0.20171401E+03</rscale>
<asrwt>0</asrwt>
<pdfrwt beam="1">  1       21 0.12867316E-01 0.20171401E+03</pdfrwt>
<pdfrwt beam="2">  1       21 0.19837848E+00 0.20171401E+03</pdfrwt>
<totfact> 0.70649326E+03</totfact>
</mgrwt>
</event>
<event>
 4    1  0.1119790E+000  0.2793366E+03  0.7546771E-02  0.1096052E+00
         21   -1    0    0  503  502  0.00000000000E+00  0.00000000000E+00  0.15172508572E+03  0.15172508572E+03  0.00000000000E+00 0.  1.
         21   -1    0    0  501  503 -0.00000000000E+00 -0.00000000000E+00 -0.52576278284E+03  0.52576278284E+03  0.00000000000E+00 0.  1.
          6    1    1    2  501    0  0.15016407592E+03  0.16092130932E+03 -0.23708365434E+03  0.36638446561E+03  0.17200000000E+03 0.  1.
         -6    1    1    2    0  502 -0.15016407592E+03 -0.16092130932E+03 -0.13695404279E+03  0.31110340295E+03  0.17200000000E+03 0.  1.
<mgrwt>
<rscale>  2 0.27933657E+03</rscale>
<asrwt>0</asrwt>
<pdfrwt beam="1">  1       21 0.37931272E-01 0.27933657E+03</pdfrwt>
<pdfrwt beam="2">  1       21 0.13144070E+00 0.27933657E+03</pdfrwt>
<totfact> 0.26384629E+03</totfact>
</mgrwt>
</event>
<event>
 4    1  0.1119790E+000  0.1940552E+03  0.7546771E-02  0.1154854E+00
         21   -1    0    0  501  502  0.00000000000E+00  0.00000000000E+00  0.73370467928E+02  0.73370467928E+02  0.00000000000E+00 0. -1.
         21   -1    0    0  502  503 -0.00000000000E+00 -0.00000000000E+00 -0.83945664804E+03  0.83945664804E+03  0.00000000000E+00 0. -1.
          6    1    1    2  501    0  0.84701084594E+02  0.29985463649E+02 -0.98527727235E+02  0.21763527930E+03  0.17200000000E+03 0. -1.
         -6    1    1    2    0  503 -0.84701084594E+02 -0.29985463649E+02 -0.66755845288E+03  0.69519183667E+03  0.17200000000E+03 0. -1.
<mgrwt>
<rscale>  2 0.19405515E+03</rscale>
<asrwt>0</asrwt>
<pdfrwt beam="1">  1       21 0.18342617E-01 0.19405515E+03</pdfrwt>
<pdfrwt beam="2">  1       21 0.20986416E+00 0.19405515E+03</pdfrwt>
<totfact> 0.31480251E+03</totfact>
</mgrwt>
</event>
<event>
 4    1  0.1119790E+000  0.2208035E+03  0.7546771E-02  0.1133285E+00
         21   -1    0    0  503  502  0.00000000000E+00  0.00000000000E+00  0.50289192034E+03  0.50289192034E+03  0.00000000000E+00 0.  1.
         21   -1    0    0  501  503 -0.00000000000E+00 -0.00000000000E+00 -0.14099435971E+03  0.14099435971E+03  0.00000000000E+00 0.  1.
          6    1    1    2  501    0  0.13737602344E+03 -0.17262945996E+02  0.10057094687E+01  0.22080578021E+03  0.17200000000E+03 0.  1.
         -6    1    1    2    0  502 -0.13737602344E+03  0.17262945996E+02  0.36089185115E+03  0.42308049985E+03  0.17200000000E+03 0.  1.
<mgrwt>
<rscale>  2 0.22080349E+03</rscale>
<asrwt>0</asrwt>
<pdfrwt beam="1">  1       21 0.12572298E+00 0.22080349E+03</pdfrwt>
<pdfrwt beam="2">  1       21 0.35248591E-01 0.22080349E+03</pdfrwt>
<totfact> 0.35649737E+03</totfact>
</mgrwt>
</event>
<event>
 4    1  0.1119790E+000  0.2719341E+03  0.7546771E-02  0.1100178E+00
         21   -1    0    0  503  502  0.00000000000E+00  0.00000000000E+00  0.78251368894E+03  0.78251368894E+03  0.00000000000E+00 0.  1.
         21   -1    0    0  501  503 -0.00000000000E+00 -0.00000000000E+00 -0.98938996847E+02  0.98938996847E+02  0.00000000000E+00 0. -1.
          6    1    1    2  501    0  0.14883633572E+03  0.14903653317E+03  0.43513216112E+03  0.51311610839E+03  0.17200000000E+03 0.  1.
         -6    1    1    2    0  502 -0.14883633572E+03 -0.14903653317E+03  0.24844253098E+03  0.36833657740E+03  0.17200000000E+03 0. -1.
<mgrwt>
<rscale>  2 0.27193408E+03</rscale>
<asrwt>0</asrwt>
<pdfrwt beam="1">  1       21 0.19562840E+00 0.27193408E+03</pdfrwt>
<pdfrwt beam="2">  1       21 0.24734752E-01 0.27193408E+03</pdfrwt>
<totfact> 0.20668033E+03</totfact>
</mgrwt>
</event>
<event>
 4    1  0.1119790E+000  0.2042633E+03  0.7546771E-02  0.1146191E+00
         21   -1    0    0  501  502  0.00000000000E+00  0.00000000000E+00  0.23123288461E+03  0.23123288461E+03  0.00000000000E+00 0. -1.
         21   -1    0    0  502  503 -0.00000000000E+00 -0.00000000000E+00 -0.92423281109E+03  0.92423281109E+03  0.00000000000E+00 0. -1.
          6    1    1    2  501    0  0.10519156769E+03  0.32775414691E+02  0.17177779294E+03  0.26689155826E+03  0.17200000000E+03 0. -1.
         -6    1    1    2    0  503 -0.10519156769E+03 -0.32775414691E+02 -0.86477771942E+03  0.88857413744E+03  0.17200000000E+03 0. -1.
<mgrwt>
<rscale>  2 0.20426330E+03</rscale>
<asrwt>0</asrwt>
<pdfrwt beam="1">  1       21 0.57808222E-01 0.20426330E+03</pdfrwt>
<pdfrwt beam="2">  1       21 0.23105820E+00 0.20426330E+03</pdfrwt>
<totfact> 0.23807349E+02</totfact>
</mgrwt>
</event>
<event>
 4    1  0.1119790E+000  0.2315440E+03  0.7546771E-02  0.1125558E+00
         21   -1    0    0  503  502  0.00000000000E+00  0.00000000000E+00  0.68371413281E+03  0.68371413281E+03  0.00000000000E+00 0. -1.
         21   -1    0    0  501  503 -0.00000000000E+00 -0.00000000000E+00 -0.43958484476E+03  0.43958484476E+03  0.00000000000E+00 0. -1.
          6    1    1    2  501    0 -0.15213734994E+03 -0.29712674683E+02 -0.38703228960E+03  0.45100621889E+03  0.17200000000E+03 0. -1.
         -6    1    1    2    0  502  0.15213734994E+03  0.29712674683E+02  0.63116157764E+03  0.67229275868E+03  0.17200000000E+03 0. -1.
<mgrwt>
<rscale>  2 0.23154398E+03</rscale>
<asrwt>0</asrwt>
<pdfrwt beam="1">  1       21 0.17092853E+00 0.23154398E+03</pdfrwt>
<pdfrwt beam="2">  1       21 0.10989621E+00 0.23154398E+03</pdfrwt>
<totfact> 0.13100312E+02</totfact>
</mgrwt>
</event>
<event>
 4    1  0.1119790E+000  0.1981915E+03  0.7546771E-02  0.1151274E+00
         21   -1    0    0  501  502  0.00000000000E+00  0.00000000000E+00  0.25012236406E+03  0.25012236406E+03  0.00000000000E+00 0. -1.
         21   -1    0    0  502  503 -0.00000000000E+00 -0.00000000000E+00 -0.16658960678E+03  0.16658960678E+03  0.00000000000E+00 0. -1.
          6    1    1    2  501    0 -0.89700754807E+02  0.40616029918E+02  0.91644919650E+02  0.21835447922E+03  0.17200000000E+03 0. -1.
         -6    1    1    2    0  503  0.89700754807E+02 -0.40616029918E+02 -0.81121623697E+01  0.19835749161E+03  0.17200000000E+03 0. -1.
<mgrwt>
<rscale>  2 0.19819154E+03</rscale>
<asrwt>0</asrwt>
<pdfrwt beam="1">  1       21 0.62530591E-01 0.19819154E+03</pdfrwt>
<pdfrwt beam="2">  1       21 0.41647402E-01 0.19819154E+03</pdfrwt>
<totfact> 0.13109989E+04</totfact>
</mgrwt>
</event>
<event>
 4    1  0.1119790E+000  0.2580909E+03  0.7546771E-02  0.1108296E+00
         21   -1    0    0  501  502  0.00000000000E+00  0.00000000000E+00  0.46451857572E+03  0.46451857572E+03  0.00000000000E+00 0.  1.
         21   -1    0    0  502  503 -0.00000000000E+00 -0.00000000000E+00 -0.17291464230E+03  0.17291464230E+03  0.00000000000E+00 0. -1.
          6    1    1    2  501    0 -0.73540873319E+02  0.17781641466E+03  0.27748318281E+03  0.37895626940E+03  0.17200000000E+03 0.  1.
         -6    1    1    2    0  503  0.73540873319E+02 -0.17781641466E+03  0.14120750616E+02  0.25847694862E+03  0.17200000000E+03 0. -1.
<mgrwt>
<rscale>  2 0.25809095E+03</rscale>
<asrwt>0</asrwt>
<pdfrwt beam="1">  1       21 0.11612964E+00 0.25809095E+03</pdfrwt>
<pdfrwt beam="2">  1       21 0.43228661E-01 0.25809095E+03</pdfrwt>
<totfact> 0.27997359E+03</totfact>
</mgrwt>
</event>
<event>
 4    1  0.1119790E+000  0.1873080E+03  0.7546771E-02  0.1160912E+00
         21   -1    0    0  501  502  0.00000000000E+00  0.00000000000E+00  0.11722992453E+03  0.11722992453E+03  0.00000000000E+00 0. -1.
         21   -1    0    0  502  503 -0.00000000000E+00 -0.00000000000E+00 -0.65926649455E+03  0.65926649455E+03  0.00000000000E+00 0. -1.
          6    1    1    2  501    0  0.74091727136E+02 -0.32709339274E+01  0.15877091364E+02  0.18797969324E+03  0.17200000000E+03 0. -1.
         -6    1    1    2    0  503 -0.74091727136E+02  0.32709339274E+01 -0.55791366139E+03  0.58851672585E+03  0.17200000000E+03 0. -1.
<mgrwt>
<rscale>  2 0.18730799E+03</rscale>
<asrwt>0</asrwt>
<pdfrwt beam="1">  1       21 0.29307482E-01 0.18730799E+03</pdfrwt>
<pdfrwt beam="2">  1       21 0.16481662E+00 0.18730799E+03</pdfrwt>
<totfact> 0.26033524E+03</totfact>
</mgrwt>
</event>
<event>
 4    1  0.1119790E+000  0.2769062E+03  0.7546771E-02  0.1097391E+00
         21   -1    0    0  501  502  0.00000000000E+00  0.00000000000E+00  0.85343241377E+03  0.85343241377E+03  0.00000000000E+00 0.  1.
         21   -1    0    0  502  503 -0.00000000000E+00 -0.00000000000E+00 -0.89997138035E+02  0.89997138035E+02  0.00000000000E+00 0.  1.
          6    1    1    2  501    0 -0.21015949194E+03 -0.54092558532E+02  0.40108385008E+03  0.48738616285E+03  0.17200000000E+03 0.  1.
         -6    1    1    2    0  503  0.21015949194E+03  0.54092558532E+02  0.36235142565E+03  0.45604338896E+03  0.17200000000E+03 0.  1.
<mgrwt>
<rscale>  2 0.27690615E+03</rscale>
<asrwt>0</asrwt>
<pdfrwt beam="1">  1       21 0.21335808E+00 0.27690615E+03</pdfrwt>
<pdfrwt beam="2">  1       21 0.22499287E-01 0.27690615E+03</pdfrwt>
<totfact> 0.18962117E+03</totfact>
</mgrwt>
</event>
<event>
 4    1  0.1119790E+000  0.1775911E+03  0.7546771E-02  0.1170155E+00
         21   -1    0    0  501  502  0.00000000000E+00  0.00000000000E+00  0.96778235587E+02  0.96778235587E+02  0.00000000000E+00 0. -1.
         21   -1    0    0  502  503 -0.00000000000E+00 -0.00000000000E+00 -0.38539639129E+03  0.38539639129E+03  0.00000000000E+00 0. -1.
          6    1    1    2  501    0  0.33271566435E+02  0.29113584825E+02 -0.49572054866E+02  0.18438000591E+03  0.17200000000E+03 0. -1.
         -6    1    1    2    0  503 -0.33271566435E+02 -0.29113584825E+02 -0.23904610084E+03  0.29779462097E+03  0.17200000000E+03 0. -1.
<mgrwt>
<rscale>  2 0.17759110E+03</rscale>
<asrwt>0</asrwt>
<pdfrwt beam="1">  1       21 0.24194559E-01 0.17759110E+03</pdfrwt>
<pdfrwt beam="2">  1       21 0.96349097E-01 0.17759110E+03</pdfrwt>
<totfact> 0.14593856E+04</totfact>
</mgrwt>
</event>
<event>
 4    1  0.1119790E+000  0.1901369E+03  0.7546771E-02  0.1158338E+00
         21   -1    0    0  501  502  0.00000000000E+00  0.00000000000E+00  0.75770665419E+02  0.75770665419E+02  0.00000000000E+00 0. -1.
         21   -1    0    0  502  503 -0.00000000000E+00 -0.00000000000E+00 -0.55091202114E+03  0.55091202114E+03  0.00000000000E+00 0. -1.
          6    1    1    2  501    0  0.66101151447E+02 -0.46889892451E+02 -0.35224566025E+03  0.40028618437E+03  0.17200000000E+03 0. -1.
         -6    1    1    2    0  503 -0.66101151447E+02  0.46889892451E+02 -0.12289569548E+03  0.22639650219E+03  0.17200000000E+03 0. -1.
<mgrwt>
<rscale>  2 0.19013686E+03</rscale>
<asrwt>0</asrwt>
<pdfrwt beam="1">  1       21 0.18942667E-01 0.19013686E+03</pdfrwt>
<pdfrwt beam="2">  1       21 0.13772800E+00 0.19013686E+03</pdfrwt>
<totfact> 0.95514719E+03</totfact>
</mgrwt>
</event>
<event>
 4    1  0.1119790E+000  0.3139939E+03  0.7546771E-02  0.1078447E+00
         21   -1    0    0  501  502  0.00000000000E+00  0.00000000000E+00  0.92775722050E+02  0.92775722050E+02  0.00000000000E+00 0. -1.
         21   -1    0    0  502  503 -0.00000000000E+00 -0.00000000000E+00 -0.11504229322E+04  0.11504229322E+04  0.00000000000E+00 0.  1.
          6    1    1    2  501    0  0.69581266097E+02  0.25331124377E+03 -0.70047799287E+03  0.76763373903E+03  0.17200000000E+03 0.  1.
         -6    1    1    2    0  503 -0.69581266097E+02 -0.25331124377E+03 -0.35716921728E+03  0.47556491521E+03  0.17200000000E+03 0.  1.
<mgrwt>
<rscale>  2 0.31399385E+03</rscale>
<asrwt>0</asrwt>
<pdfrwt beam="1">  1       21 0.23193931E-01 0.31399385E+03</pdfrwt>
<pdfrwt beam="2">  1       21 0.28760573E+00 0.31399385E+03</pdfrwt>
<totfact> 0.61778849E+02</totfact>
</mgrwt>
</event>
<event>
 4    1  0.1119790E+000  0.2193025E+03  0.7546771E-02  0.1134404E+00
         21   -1    0    0  503  502  0.00000000000E+00  0.00000000000E+00  0.19276187685E+04  0.19276187685E+04  0.00000000000E+00 0.  1.
         21   -1    0    0  501  503 -0.00000000000E+00 -0.00000000000E+00 -0.33307161040E+02  0.33307161040E+02  0.00000000000E+00 0.  1.
          6    1    1    2  501    0 -0.11708253759E+03 -0.69291288312E+02  0.45602371693E+03  0.50601505279E+03  0.17200000000E+03 0.  1.
         -6    1    1    2    0  502  0.11708253759E+03  0.69291288312E+02  0.14382878905E+04  0.14549108767E+04  0.17200000000E+03 0.  1.
<mgrwt>
<rscale>  2 0.21930254E+03</rscale>
<asrwt>0</asrwt>
<pdfrwt beam="1">  1       21 0.48190432E+00 0.21930254E+03</pdfrwt>
<pdfrwt beam="2">  1       21 0.83267968E-02 0.21930254E+03</pdfrwt>
<totfact> 0.27119820E+02</totfact>
</mgrwt>
</event>
<event>
 4    1  0.1119790E+000  0.2516473E+03  0.7546771E-02  0.1112268E+00
         21   -1    0    0  503  502  0.00000000000E+00  0.00000000000E+00  0.76639754134E+03  0.76639754134E+03  0.00000000000E+00 0. -1.
         21   -1    0    0  501  503 -0.00000000000E+00 -0.00000000000E+00 -0.15143796647E+03  0.15143796647E+03  0.00000000000E+00 0. -1.
          6    1    1    2  501    0  0.18233562979E+03  0.22273154210E+02 -0.18638404217E+01  0.25165422546E+03  0.17200000000E+03 0. -1.
         -6    1    1    2    0  502 -0.18233562979E+03 -0.22273154210E+02  0.61682341529E+03  0.66618128234E+03  0.17200000000E+03 0. -1.
<mgrwt>
<rscale>  2 0.25164732E+03</rscale>
<asrwt>0</asrwt>
<pdfrwt beam="1">  1       21 0.19159937E+00 0.25164732E+03</pdfrwt>
<pdfrwt beam="2">  1       21 0.37859494E-01 0.25164732E+03</pdfrwt>
<totfact> 0.96636690E+02</totfact>
</mgrwt>
</event>
<event>
 4    1  0.1119790E+000  0.2567177E+03  0.7546771E-02  0.1109131E+00
         21   -1    0    0  503  502  0.00000000000E+00  0.00000000000E+00  0.15233807229E+03  0.15233807229E+03  0.00000000000E+00 0.  1.
         21   -1    0    0  501  503 -0.00000000000E+00 -0.00000000000E+00 -0.76043640270E+03  0.76043640270E+03  0.00000000000E+00 0.  1.
          6    1    1    2  501    0  0.18540394095E+03 -0.44106407575E+02 -0.60370280514E+03  0.65601911058E+03  0.17200000000E+03 0.  1.
         -6    1    1    2    0  502 -0.18540394095E+03  0.44106407575E+02 -0.43955252700E+01  0.25675536441E+03  0.17200000000E+03 0.  1.
<mgrwt>
<rscale>  2 0.25671774E+03</rscale>
<asrwt>0</asrwt>
<pdfrwt beam="1">  1       21 0.38084519E-01 0.25671774E+03</pdfrwt>
<pdfrwt beam="2">  1       21 0.19010910E+00 0.25671774E+03</pdfrwt>
<totfact> 0.97272963E+02</totfact>
</mgrwt>
</event>
<event>
 4    1  0.1119790E+000  0.1868047E+03  0.7546771E-02  0.1161375E+00
         21   -1    0    0  503  502  0.00000000000E+00  0.00000000000E+00  0.40209295034E+03  0.40209295034E+03  0.00000000000E+00 0. -1.
         21   -1    0    0  501  503 -0.00000000000E+00 -0.00000000000E+00 -0.14849626122E+03  0.14849626122E+03  0.00000000000E+00 0. -1.
          6    1    1    2  501    0  0.16653142603E+02  0.70955449545E+02 -0.50669203046E+02  0.19355456883E+03  0.17200000000E+03 0. -1.
         -6    1    1    2    0  502 -0.16653142603E+02 -0.70955449545E+02  0.30426589217E+03  0.35703464274E+03  0.17200000000E+03 0. -1.
<mgrwt>
<rscale>  2 0.18680472E+03</rscale>
<asrwt>0</asrwt>
<pdfrwt beam="1">  1       21 0.10052324E+00 0.18680472E+03</pdfrwt>
<pdfrwt beam="2">  1       21 0.37124066E-01 0.18680472E+03</pdfrwt>
<totfact> 0.57001249E+03</totfact>
</mgrwt>
</event>
<event>
 4    1  0.1119790E+000  0.1964576E+03  0.7546771E-02  0.1152763E+00
         21   -1    0    0  501  502  0.00000000000E+00  0.00000000000E+00  0.68277318933E+02  0.68277318933E+02  0.00000000000E+00 0. -1.
         21   -1    0    0  502  503 -0.00000000000E+00 -0.00000000000E+00 -0.59653432219E+03  0.59653432219E+03  0.00000000000E+00 0. -1.
          6    1    1    2  501    0  0.56143764799E+02 -0.76547086202E+02 -0.18803829765E+03  0.27194481079E+03  0.17200000000E+03 0. -1.
         -6    1    1    2    0  503 -0.56143764799E+02  0.76547086202E+02 -0.34021870561E+03  0.39286683033E+03  0.17200000000E+03 0. -1.
<mgrwt>
<rscale>  2 0.19645757E+03</rscale>
<asrwt>0</asrwt>
<pdfrwt beam="1">  1       21 0.17069330E-01 0.19645757E+03</pdfrwt>
<pdfrwt beam="2">  1       21 0.14913358E+00 0.19645757E+03</pdfrwt>
<totfact> 0.93701173E+03</totfact>
</mgrwt>
</event>
<event>
 4    1  0.1119790E+000  0.1931364E+03  0.7546771E-02  0.1155663E+00
         21   -1    0    0  501  502  0.00000000000E+00  0.00000000000E+00  0.32943534587E+03  0.32943534587E+03  0.00000000000E+00 0. -1.
         21   -1    0    0  502  503 -0.00000000000E+00 -0.00000000000E+00 -0.15460958112E+03  0.15460958112E+03  0.00000000000E+00 0. -1.
          6    1    1    2  501    0  0.30378125212E+02  0.82430871429E+02  0.21262174277E+03  0.28724499048E+03  0.17200000000E+03 0. -1.
         -6    1    1    2    0  503 -0.30378125212E+02 -0.82430871429E+02 -0.37795978028E+02  0.19679993651E+03  0.17200000000E+03 0. -1.
<mgrwt>
<rscale>  2 0.19313643E+03</rscale>
<asrwt>0</asrwt>
<pdfrwt beam="1">  1       21 0.82358835E-01 0.19313643E+03</pdfrwt>
<pdfrwt beam="2">  1       21 0.38652396E-01 0.19313643E+03</pdfrwt>
<totfact> 0.83087002E+03</totfact>
</mgrwt>
</event>
<event>
 4    1  0.1119790E+000  0.2455477E+03  0.7546771E-02  0.1116151E+00
         21   -1    0    0  501  502  0.00000000000E+00  0.00000000000E+00  0.20021862384E+03  0.20021862384E+03  0.00000000000E+00 0. -1.
         21   -1    0    0  502  503 -0.00000000000E+00 -0.00000000000E+00 -0.75115331644E+03  0.75115331644E+03  0.00000000000E+00 0.  1.
          6    1    1    2  501    0 -0.53303155992E+02  0.16693847236E+03  0.92720210913E+02  0.26247041262E+03  0.17200000000E+03 0. -1.
         -6    1    1    2    0  503  0.53303155992E+02 -0.16693847236E+03 -0.64365490351E+03  0.68890152765E+03  0.17200000000E+03 0.  1.
<mgrwt>
<rscale>  2 0.24554771E+03</rscale>
<asrwt>0</asrwt>
<pdfrwt beam="1">  1       21 0.50054657E-01 0.24554771E+03</pdfrwt>
<pdfrwt beam="2">  1       21 0.18778833E+00 0.24554771E+03</pdfrwt>
<totfact> 0.58001874E+02</totfact>
</mgrwt>
</event>
<event>
 4    1  0.1119790E+000  0.1732732E+03  0.7546771E-02  0.1174477E+00
         21   -1    0    0  501  502  0.00000000000E+00  0.00000000000E+00  0.32996377000E+03  0.32996377000E+03  0.00000000000E+00 0. -1.
         21   -1    0    0  502  503 -0.00000000000E+00 -0.00000000000E+00 -0.11777541065E+03  0.11777541065E+03  0.00000000000E+00 0. -1.
          6    1    1    2  501    0  0.20873356181E+02  0.19796006754E+01  0.21285495700E+03  0.27446465809E+03  0.17200000000E+03 0.  1.
         -6    1    1    2    0  503 -0.20873356181E+02 -0.19796006754E+01 -0.66659765866E+00  0.17327452256E+03  0.17200000000E+03 0.  1.
<mgrwt>
<rscale>  2 0.17327324E+03</rscale>
<asrwt>0</asrwt>
<pdfrwt beam="1">  1       21 0.82490941E-01 0.17327324E+03</pdfrwt>
<pdfrwt beam="2">  1       21 0.29443853E-01 0.17327324E+03</pdfrwt>
<totfact> 0.14362193E+04</totfact>
</mgrwt>
</event>
<event>
 4    1  0.1119790E+000  0.1918249E+03  0.7546771E-02  0.1156826E+00
         21   -1    0    0  503  502  0.00000000000E+00  0.00000000000E+00  0.14106565248E+03  0.14106565248E+03  0.00000000000E+00 0.  1.
         21   -1    0    0  501  503 -0.00000000000E+00 -0.00000000000E+00 -0.10110848604E+04  0.10110848604E+04  0.00000000000E+00 0.  1.
          6    1    1    2  501    0 -0.36674643150E+02 -0.76601317437E+02 -0.93124120329E+03  0.95079281129E+03  0.17200000000E+03 0.  1.
         -6    1    1    2    0  502  0.36674643150E+02  0.76601317437E+02  0.61221995357E+02  0.20135770161E+03  0.17200000000E+03 0.  1.
<mgrwt>
<rscale>  2 0.19182490E+03</rscale>
<asrwt>0</asrwt>
<pdfrwt beam="1">  1       21 0.35266413E-01 0.19182490E+03</pdfrwt>
<pdfrwt beam="2">  1       21 0.25277121E+00 0.19182490E+03</pdfrwt>
<totfact> 0.49703680E+02</totfact>
</mgrwt>
</event>
<event>
 4    1  0.1119790E+000  0.1755570E+03  0.7546771E-02  0.1172174E+00
         21   -1    0    0  503  502  0.00000000000E+00  0.00000000000E+00  0.10794816645E+03  0.10794816645E+03  0.00000000000E+00 0.  1.
         21   -1    0    0  501  503 -0.00000000000E+00 -0.00000000000E+00 -0.29198651023E+03  0.29198651023E+03  0.00000000000E+00 0.  1.
          6    1    1    2  501    0  0.16594781432E+02  0.30998137524E+02 -0.12180099049E+03  0.21367206786E+03  0.17200000000E+03 0.  1.
         -6    1    1    2    0  502 -0.16594781432E+02 -0.30998137524E+02 -0.62237353291E+02  0.18626260882E+03  0.17200000000E+03 0.  1.
<mgrwt>
<rscale>  2 0.17555703E+03</rscale>
<asrwt>0</asrwt>
<pdfrwt beam="1">  1       21 0.26987042E-01 0.17555703E+03</pdfrwt>
<pdfrwt beam="2">  1       21 0.72996627E-01 0.17555703E+03</pdfrwt>
<totfact> 0.22316237E+04</totfact>
</mgrwt>
</event>
<event>
 4    1  0.1119790E+000  0.2347254E+03  0.7546771E-02  0.1123357E+00
         21   -1    0    0  503  502  0.00000000000E+00  0.00000000000E+00  0.45557325336E+03  0.45557325336E+03  0.00000000000E+00 0. -1.
         21   -1    0    0  501  503 -0.00000000000E+00 -0.00000000000E+00 -0.12191600612E+03  0.12191600612E+03  0.00000000000E+00 0.  1.
          6    1    1    2  501    0  0.15288378523E+03 -0.46244675202E+02  0.19269295692E+03  0.30368832282E+03  0.17200000000E+03 0.  1.
         -6    1    1    2    0  502 -0.15288378523E+03  0.46244675202E+02  0.14096429032E+03  0.27380093666E+03  0.17200000000E+03 0. -1.
<mgrwt>
<rscale>  2 0.23472542E+03</rscale>
<asrwt>0</asrwt>
<pdfrwt beam="1">  1       21 0.11389331E+00 0.23472542E+03</pdfrwt>
<pdfrwt beam="2">  1       21 0.30479003E-01 0.23472542E+03</pdfrwt>
<totfact> 0.60143619E+03</totfact>
</mgrwt>
</event>
<event>
 4    1  0.1119790E+000  0.1997853E+03  0.7546771E-02  0.1149920E+00
         21   -1    0    0  501  502  0.00000000000E+00  0.00000000000E+00  0.44637225329E+03  0.44637225329E+03  0.00000000000E+00 0. -1.
         21   -1    0    0  502  503 -0.00000000000E+00 -0.00000000000E+00 -0.94899751196E+02  0.94899751196E+02  0.00000000000E+00 0.  1.
          6    1    1    2  501    0  0.20978202556E+02 -0.99448866422E+02  0.24077511448E+03  0.31286869094E+03  0.17200000000E+03 0. -1.
         -6    1    1    2    0  503 -0.20978202556E+02  0.99448866422E+02  0.11069738761E+03  0.22840331355E+03  0.17200000000E+03 0. -1.
<mgrwt>
<rscale>  2 0.19978529E+03</rscale>
<asrwt>0</asrwt>
<pdfrwt beam="1">  1       21 0.11159306E+00 0.19978529E+03</pdfrwt>
<pdfrwt beam="2">  1       21 0.23724939E-01 0.19978529E+03</pdfrwt>
<totfact> 0.10501717E+04</totfact>
</mgrwt>
</event>
<event>
 4    1  0.1119790E+000  0.2070416E+03  0.7546771E-02  0.1143930E+00
         21   -1    0    0  503  502  0.00000000000E+00  0.00000000000E+00  0.17204784479E+04  0.17204784479E+04  0.00000000000E+00 0. -1.
         21   -1    0    0  501  503 -0.00000000000E+00 -0.00000000000E+00 -0.26103731941E+02  0.26103731941E+02  0.00000000000E+00 0. -1.
          6    1    1    2  501    0  0.48714202915E+02  0.10444682704E+03  0.66085109793E+03  0.69252464713E+03  0.17200000000E+03 0. -1.
         -6    1    1    2    0  502 -0.48714202915E+02 -0.10444682704E+03  0.10335236180E+04  0.10540575327E+04  0.17200000000E+03 0. -1.
<mgrwt>
<rscale>  2 0.20704157E+03</rscale>
<asrwt>0</asrwt>
<pdfrwt beam="1">  1       21 0.43011923E+00 0.20704157E+03</pdfrwt>
<pdfrwt beam="2">  1       21 0.65259388E-02 0.20704157E+03</pdfrwt>
<totfact> 0.93746957E+02</totfact>
</mgrwt>
</event>
<event>
 4    1  0.1119790E+000  0.1892026E+03  0.7546771E-02  0.1159183E+00
         21   -1    0    0  501  502  0.00000000000E+00  0.00000000000E+00  0.63435275929E+03  0.63435275929E+03  0.00000000000E+00 0. -1.
         21   -1    0    0  502  503 -0.00000000000E+00 -0.00000000000E+00 -0.10453757672E+03  0.10453757672E+03  0.00000000000E+00 0. -1.
          6    1    1    2  501    0 -0.68411379713E+02 -0.39159933804E+02  0.51552587599E+03  0.54914892890E+03  0.17200000000E+03 0. -1.
         -6    1    1    2    0  503  0.68411379713E+02  0.39159933804E+02  0.14289306573E+02  0.18974140711E+03  0.17200000000E+03 0. -1.
<mgrwt>
<rscale>  2 0.18920258E+03</rscale>
<asrwt>0</asrwt>
<pdfrwt beam="1">  1       21 0.15858818E+00 0.18920258E+03</pdfrwt>
<pdfrwt beam="2">  1       21 0.26134396E-01 0.18920258E+03</pdfrwt>
<totfact> 0.35978372E+03</totfact>
</mgrwt>
</event>
<event>
 4    1  0.1119790E+000  0.1791870E+03  0.7546771E-02  0.1168592E+00
         21   -1    0    0  503  502  0.00000000000E+00  0.00000000000E+00  0.31057388604E+02  0.31057388604E+02  0.00000000000E+00 0.  1.
         21   -1    0    0  501  503 -0.00000000000E+00 -0.00000000000E+00 -0.10474795394E+04  0.10474795394E+04  0.00000000000E+00 0.  1.
          6    1    1    2  501    0  0.16494410645E+02 -0.47454377393E+02 -0.56977558903E+03  0.59728737252E+03  0.17200000000E+03 0. -1.
         -6    1    1    2    0  502 -0.16494410645E+02  0.47454377393E+02 -0.44664656176E+03  0.48124955548E+03  0.17200000000E+03 0. -1.
<mgrwt>
<rscale>  2 0.17918701E+03</rscale>
<asrwt>0</asrwt>
<pdfrwt beam="1">  1       21 0.77643473E-02 0.17918701E+03</pdfrwt>
<pdfrwt beam="2">  1       21 0.26186988E+00 0.17918701E+03</pdfrwt>
<totfact> 0.72658620E+03</totfact>
</mgrwt>
</event>
<event>
 4    1  0.1119790E+000  0.1932072E+03  0.7546771E-02  0.1155600E+00
         21   -1    0    0  503  502  0.00000000000E+00  0.00000000000E+00  0.45151267138E+03  0.45151267138E+03  0.00000000000E+00 0.  1.
         21   -1    0    0  501  503 -0.00000000000E+00 -0.00000000000E+00 -0.22355864335E+03  0.22355864335E+03  0.00000000000E+00 0. -1.
          6    1    1    2  501    0 -0.40687094200E+02  0.78035888086E+02 -0.15397278155E+03  0.24705597933E+03  0.17200000000E+03 0. -1.
         -6    1    1    2    0  502  0.40687094200E+02 -0.78035888086E+02  0.38192680958E+03  0.42801533540E+03  0.17200000000E+03 0.  1.
<mgrwt>
<rscale>  2 0.19320724E+03</rscale>
<asrwt>0</asrwt>
<pdfrwt beam="1">  1       21 0.11287817E+00 0.19320724E+03</pdfrwt>
<pdfrwt beam="2">  1       21 0.55889662E-01 0.19320724E+03</pdfrwt>
<totfact> 0.18486698E+03</totfact>
</mgrwt>
</event>
<event>
 4    1  0.1119790E+000  0.1729967E+03  0.7546771E-02  0.1174758E+00
         21   -1    0    0  503  502  0.00000000000E+00  0.00000000000E+00  0.13861077162E+03  0.13861077162E+03  0.00000000000E+00 0. -1.
         21   -1    0    0  501  503 -0.00000000000E+00 -0.00000000000E+00 -0.24019305324E+03  0.24019305324E+03  0.00000000000E+00 0. -1.
          6    1    1    2  501    0  0.18378380354E+02  0.24691768966E+01 -0.11100955746E+03  0.20555044039E+03  0.17200000000E+03 0.  1.
         -6    1    1    2    0  502 -0.18378380354E+02 -0.24691768966E+01  0.94272758469E+01  0.17325338447E+03  0.17200000000E+03 0.  1.
<mgrwt>
<rscale>  2 0.17299671E+03</rscale>
<asrwt>0</asrwt>
<pdfrwt beam="1">  1       21 0.34652693E-01 0.17299671E+03</pdfrwt>
<pdfrwt beam="2">  1       21 0.60048263E-01 0.17299671E+03</pdfrwt>
<totfact> 0.21009324E+04</totfact>
</mgrwt>
</event>
<event>
 4    1  0.1119790E+000  0.1937834E+03  0.7546771E-02  0.1155093E+00
         21   -1    0    0  503  502  0.00000000000E+00  0.00000000000E+00  0.50366664999E+03  0.50366664999E+03  0.00000000000E+00 0.  1.
         21   -1    0    0  501  503 -0.00000000000E+00 -0.00000000000E+00 -0.80355127256E+02  0.80355127256E+02  0.00000000000E+00 0.  1.
          6    1    1    2  501    0 -0.33441843340E+01  0.89201121898E+02  0.13321803086E+03  0.23515753754E+03  0.17200000000E+03 0. -1.
         -6    1    1    2    0  502  0.33441843340E+01 -0.89201121898E+02  0.29009349188E+03  0.34886423971E+03  0.17200000000E+03 0. -1.
<mgrwt>
<rscale>  2 0.19378345E+03</rscale>
<asrwt>0</asrwt>
<pdfrwt beam="1">  1       21 0.12591665E+00 0.19378345E+03</pdfrwt>
<pdfrwt beam="2">  1       21 0.20088783E-01 0.19378345E+03</pdfrwt>
<totfact> 0.10714229E+04</totfact>
</mgrwt>
</event>
<event>
 4    1  0.1119790E+000  0.1722464E+03  0.7546771E-02  0.1175525E+00
         21   -1    0    0  503  502  0.00000000000E+00  0.00000000000E+00  0.99376412341E+02  0.99376412341E+02  0.00000000000E+00 0.  1.
         21   -1    0    0  501  503 -0.00000000000E+00 -0.00000000000E+00 -0.31243041613E+03  0.31243041613E+03  0.00000000000E+00 0.  1.
          6    1    1    2  501    0 -0.82651337082E+01 -0.40613813088E+01 -0.14992716767E+03  0.22835709505E+03  0.17200000000E+03 0.  1.
         -6    1    1    2    0  502  0.82651337082E+01  0.40613813088E+01 -0.63126836112E+02  0.18344973342E+03  0.17200000000E+03 0.  1.
<mgrwt>
<rscale>  2 0.17224636E+03</rscale>
<asrwt>0</asrwt>
<pdfrwt beam="1">  1       21 0.24844103E-01 0.17224636E+03</pdfrwt>
<pdfrwt beam="2">  1       21 0.78107604E-01 0.17224636E+03</pdfrwt>
<totfact> 0.22525483E+04</totfact>
</mgrwt>
</event>
<event>
 4    1  0.1119790E+000  0.1799371E+03  0.7546771E-02  0.1167864E+00
         21   -1    0    0  503  502  0.00000000000E+00  0.00000000000E+00  0.16317005020E+03  0.16317005020E+03  0.00000000000E+00 0.  1.
         21   -1    0    0  501  503 -0.00000000000E+00 -0.00000000000E+00 -0.21373276471E+03  0.21373276471E+03  0.00000000000E+00 0.  1.
          6    1    1    2  501    0 -0.30533041996E+02  0.43140210795E+02 -0.75711624849E+02  0.19521678867E+03  0.17200000000E+03 0.  1.
         -6    1    1    2    0  502  0.30533041996E+02 -0.43140210795E+02  0.25148910344E+02  0.18168602624E+03  0.17200000000E+03 0.  1.
<mgrwt>
<rscale>  2 0.17993706E+03</rscale>
<asrwt>0</asrwt>
<pdfrwt beam="1">  1       21 0.40792513E-01 0.17993706E+03</pdfrwt>
<pdfrwt beam="2">  1       21 0.53433191E-01 0.17993706E+03</pdfrwt>
<totfact> 0.19340425E+04</totfact>
</mgrwt>
</event>
<event>
 4    1  0.1119790E+000  0.1788874E+03  0.7546771E-02  0.1168884E+00
         21   -1    0    0  503  502  0.00000000000E+00  0.00000000000E+00  0.12717882544E+03  0.12717882544E+03  0.00000000000E+00 0. -1.
         21   -1    0    0  501  503 -0.00000000000E+00 -0.00000000000E+00 -0.25706590556E+03  0.25706590556E+03  0.00000000000E+00 0. -1.
          6    1    1    2  501    0 -0.45105980639E+02  0.19548858358E+02 -0.92907568663E+02  0.20157510677E+03  0.17200000000E+03 0. -1.
         -6    1    1    2    0  502  0.45105980639E+02 -0.19548858358E+02 -0.36979511452E+02  0.18266962424E+03  0.17200000000E+03 0. -1.
<mgrwt>
<rscale>  2 0.17888742E+03</rscale>
<asrwt>0</asrwt>
<pdfrwt beam="1">  1       21 0.31794707E-01 0.17888742E+03</pdfrwt>
<pdfrwt beam="2">  1       21 0.64266476E-01 0.17888742E+03</pdfrwt>
<totfact> 0.21422176E+04</totfact>
</mgrwt>
</event>
<event>
 4    1  0.1119790E+000  0.1922429E+03  0.7546771E-02  0.1156454E+00
         21   -1    0    0  503  502  0.00000000000E+00  0.00000000000E+00  0.11665937497E+03  0.11665937497E+03  0.00000000000E+00 0.  1.
         21   -1    0    0  501  503 -0.00000000000E+00 -0.00000000000E+00 -0.60332552557E+03  0.60332552557E+03  0.00000000000E+00 0. -1.
          6    1    1    2  501    0  0.64085625880E+02  0.57152146451E+02 -0.49141864646E+03  0.52768325857E+03  0.17200000000E+03 0. -1.
         -6    1    1    2    0  502 -0.64085625880E+02 -0.57152146451E+02  0.47524958654E+01  0.19230164197E+03  0.17200000000E+03 0.  1.
<mgrwt>
<rscale>  2 0.19224291E+03</rscale>
<asrwt>0</asrwt>
<pdfrwt beam="1">  1       21 0.29164844E-01 0.19224291E+03</pdfrwt>
<pdfrwt beam="2">  1       21 0.15083138E+00 0.19224291E+03</pdfrwt>
<totfact> 0.33177715E+03</totfact>
</mgrwt>
</event>
<event>
 4    1  0.1119790E+000  0.1798199E+03  0.7546771E-02  0.1167977E+00
         21   -1    0    0  501  502  0.00000000000E+00  0.00000000000E+00  0.42595346644E+03  0.42595346644E+03  0.00000000000E+00 0. -1.
         21   -1    0    0  502  503 -0.00000000000E+00 -0.00000000000E+00 -0.78025993480E+02  0.78025993480E+02  0.00000000000E+00 0. -1.
          6    1    1    2  501    0  0.10933854631E+01  0.52440332667E+02  0.21543676051E+03  0.28062106436E+03  0.17200000000E+03 0.  1.
         -6    1    1    2    0  503 -0.10933854631E+01 -0.52440332667E+02  0.13249071244E+03  0.22335839556E+03  0.17200000000E+03 0.  1.
<mgrwt>
<rscale>  2 0.17981987E+03</rscale>
<asrwt>0</asrwt>
<pdfrwt beam="1">  1       21 0.10648836E+00 0.17981987E+03</pdfrwt>
<pdfrwt beam="2">  1       21 0.19506500E-01 0.17981987E+03</pdfrwt>
<totfact> 0.17223615E+04</totfact>
</mgrwt>
</event>
<event>
 4    1  0.1119790E+000  0.3484354E+03  0.7546771E-02  0.1063259E+00
         21   -1    0    0  503  502  0.00000000000E+00  0.00000000000E+00  0.26295839156E+03  0.26295839156E+03  0.00000000000E+00 0. -1.
         21   -1    0    0  501  503 -0.00000000000E+00 -0.00000000000E+00 -0.46249559211E+03  0.46249559211E+03  0.00000000000E+00 0. -1.
          6    1    1    2  501    0 -0.26129760786E+03 -0.15344968065E+03 -0.11483605088E+03  0.36687131660E+03  0.17200000000E+03 0. -1.
         -6    1    1    2    0  502  0.26129760786E+03  0.15344968065E+03 -0.84701149662E+02  0.35858266707E+03  0.17200000000E+03 0. -1.
<mgrwt>
<rscale>  2 0.34843542E+03</rscale>
<asrwt>0</asrwt>
<pdfrwt beam="1">  1       21 0.65739599E-01 0.34843542E+03</pdfrwt>
<pdfrwt beam="2">  1       21 0.11562390E+00 0.34843542E+03</pdfrwt>
<totfact> 0.10970619E+03</totfact>
</mgrwt>
</event>
<event>
 4    1  0.1119790E+000  0.3009104E+03  0.7546771E-02  0.1084786E+00
         21   -1    0    0  501  502  0.00000000000E+00  0.00000000000E+00  0.38769040726E+03  0.38769040726E+03  0.00000000000E+00 0. -1.
         21   -1    0    0  502  503 -0.00000000000E+00 -0.00000000000E+00 -0.26634298203E+03  0.26634298203E+03  0.00000000000E+00 0. -1.
          6    1    1    2  501    0 -0.21236036882E+03 -0.12596099290E+03  0.17541125174E+03  0.34830475911E+03  0.17200000000E+03 0. -1.
         -6    1    1    2    0  503  0.21236036882E+03  0.12596099290E+03 -0.54063826517E+02  0.30572863019E+03  0.17200000000E+03 0. -1.
<mgrwt>
<rscale>  2 0.30091045E+03</rscale>
<asrwt>0</asrwt>
<pdfrwt beam="1">  1       21 0.96922601E-01 0.30091045E+03</pdfrwt>
<pdfrwt beam="2">  1       21 0.66585746E-01 0.30091045E+03</pdfrwt>
<totfact> 0.16850807E+03</totfact>
</mgrwt>
</event>
<event>
 4    1  0.1119790E+000  0.1854894E+03  0.7546771E-02  0.1162594E+00
         21   -1    0    0  501  502  0.00000000000E+00  0.00000000000E+00  0.29954070730E+03  0.29954070730E+03  0.00000000000E+00 0.  1.
         21   -1    0    0  502  503 -0.00000000000E+00 -0.00000000000E+00 -0.21343486337E+03  0.21343486337E+03  0.00000000000E+00 0.  1.
          6    1    1    2  501    0 -0.69131755808E+02 -0.65651332735E+01  0.21735771944E+03  0.28574582908E+03  0.17200000000E+03 0.  1.
         -6    1    1    2    0  503  0.69131755808E+02  0.65651332735E+01 -0.13125187552E+03  0.22722974159E+03  0.17200000000E+03 0.  1.
<mgrwt>
<rscale>  2 0.18548935E+03</rscale>
<asrwt>0</asrwt>
<pdfrwt beam="1">  1       21 0.74885176E-01 0.18548935E+03</pdfrwt>
<pdfrwt beam="2">  1       21 0.53358716E-01 0.18548935E+03</pdfrwt>
<totfact> 0.53344633E+03</totfact>
</mgrwt>
</event>
<event>
 4    1  0.1119790E+000  0.2792009E+03  0.7546771E-02  0.1096126E+00
         21   -1    0    0  503  502  0.00000000000E+00  0.00000000000E+00  0.16809888508E+03  0.16809888508E+03  0.00000000000E+00 0.  1.
         21   -1    0    0  501  503 -0.00000000000E+00 -0.00000000000E+00 -0.53555790232E+03  0.53555790232E+03  0.00000000000E+00 0.  1.
          6    1    1    2  501    0  0.41936267484E+02  0.21589464022E+03 -0.54885992842E+02  0.28454458072E+03  0.17200000000E+03 0.  1.
         -6    1    1    2    0  502 -0.41936267484E+02 -0.21589464022E+03 -0.31257302440E+03  0.41911220668E+03  0.17200000000E+03 0.  1.
<mgrwt>
<rscale>  2 0.27920091E+03</rscale>
<asrwt>0</asrwt>
<pdfrwt beam="1">  1       21 0.42024722E-01 0.27920091E+03</pdfrwt>
<pdfrwt beam="2">  1       21 0.13388947E+00 0.27920091E+03</pdfrwt>
<totfact> 0.20422648E+03</totfact>
</mgrwt>
</event>
<event>
 4    1  0.1119790E+000  0.2041378E+03  0.7546771E-02  0.1146294E+00
         21   -1    0    0  501  502  0.00000000000E+00  0.00000000000E+00  0.11744332163E+03  0.11744332163E+03  0.00000000000E+00 0. -1.
         21   -1    0    0  502  503 -0.00000000000E+00 -0.00000000000E+00 -0.14291244165E+04  0.14291244165E+04  0.00000000000E+00 0.  1.
          6    1    1    2  501    0 -0.10428812680E+03  0.34817222516E+02  0.14608639289E+02  0.20465987569E+03  0.17200000000E+03 0. -1.
         -6    1    1    2    0  503  0.10428812680E+03 -0.34817222516E+02 -0.13262897342E+04  0.13419078625E+04  0.17200000000E+03 0.  1.
<mgrwt>
<rscale>  2 0.20413783E+03</rscale>
<asrwt>0</asrwt>
<pdfrwt beam="1">  1       21 0.29360830E-01 0.20413783E+03</pdfrwt>
<pdfrwt beam="2">  1       21 0.35728110E+00 0.20413783E+03</pdfrwt>
<totfact> 0.17267686E+02</totfact>
</mgrwt>
</event>
<event>
 4    1  0.1119790E+000  0.1947158E+03  0.7546771E-02  0.1154275E+00
         21   -1    0    0  501  502  0.00000000000E+00  0.00000000000E+00  0.64350470479E+03  0.64350470479E+03  0.00000000000E+00 0. -1.
         21   -1    0    0  502  503 -0.00000000000E+00 -0.00000000000E+00 -0.67213193413E+02  0.67213193413E+02  0.00000000000E+00 0. -1.
          6    1    1    2  501    0 -0.38529268890E-02  0.91270097025E+02  0.41298303153E+03  0.45658429118E+03  0.17200000000E+03 0. -1.
         -6    1    1    2    0  503  0.38529268890E-02 -0.91270097025E+02  0.16330847985E+03  0.25413360702E+03  0.17200000000E+03 0. -1.
<mgrwt>
<rscale>  2 0.19471577E+03</rscale>
<asrwt>0</asrwt>
<pdfrwt beam="1">  1       21 0.16087616E+00 0.19471577E+03</pdfrwt>
<pdfrwt beam="2">  1       21 0.16803300E-01 0.19471577E+03</pdfrwt>
<totfact> 0.78917017E+03</totfact>
</mgrwt>
</event>
<event>
 4    1  0.1119790E+000  0.1799907E+03  0.7546771E-02  0.1167812E+00
         21   -1    0    0  501  502  0.00000000000E+00  0.00000000000E+00  0.22517231503E+03  0.22517231503E+03  0.00000000000E+00 0.  1.
         21   -1    0    0  502  503 -0.00000000000E+00 -0.00000000000E+00 -0.61086424023E+03  0.61086424023E+03  0.00000000000E+00 0.  1.
          6    1    1    2  501    0  0.52897464321E+02 -0.38113118064E+01  0.17264475810E+03  0.24940505274E+03  0.17200000000E+03 0.  1.
         -6    1    1    2    0  503 -0.52897464321E+02  0.38113118064E+01 -0.55833668331E+03  0.58663150253E+03  0.17200000000E+03 0.  1.
<mgrwt>
<rscale>  2 0.17999074E+03</rscale>
<asrwt>0</asrwt>
<pdfrwt beam="1">  1       21 0.56293079E-01 0.17999074E+03</pdfrwt>
<pdfrwt beam="2">  1       21 0.15271606E+00 0.17999074E+03</pdfrwt>
<totfact> 0.85840752E+02</totfact>
</mgrwt>
</event>
<event>
 4    1  0.1119790E+000  0.1766960E+03  0.7546771E-02  0.1171040E+00
         21   -1    0    0  501  502  0.00000000000E+00  0.00000000000E+00  0.10693108256E+04  0.10693108256E+04  0.00000000000E+00 0.  1.
         21   -1    0    0  502  503 -0.00000000000E+00 -0.00000000000E+00 -0.62975709098E+02  0.62975709098E+02  0.00000000000E+00 0.  1.
          6    1    1    2  501    0  0.14587047264E+02  0.37745079679E+02  0.91779352734E+03  0.93464775815E+03  0.17200000000E+03 0.  1.
         -6    1    1    2    0  503 -0.14587047264E+02 -0.37745079679E+02  0.88541589180E+02  0.19763877657E+03  0.17200000000E+03 0.  1.
<mgrwt>
<rscale>  2 0.17669599E+03</rscale>
<asrwt>0</asrwt>
<pdfrwt beam="1">  1       21 0.26732765E+00 0.17669599E+03</pdfrwt>
<pdfrwt beam="2">  1       21 0.15743931E-01 0.17669599E+03</pdfrwt>
<totfact> 0.19298568E+03</totfact>
</mgrwt>
</event>
<event>
 4    1  0.1119790E+000  0.2654912E+03  0.7546771E-02  0.1103888E+00
         21   -1    0    0  503  502  0.00000000000E+00  0.00000000000E+00  0.10515720257E+03  0.10515720257E+03  0.00000000000E+00 0. -1.
         21   -1    0    0  501  503 -0.00000000000E+00 -0.00000000000E+00 -0.67372270107E+03  0.67372270107E+03  0.00000000000E+00 0. -1.
          6    1    1    2  501    0  0.18764070909E+03 -0.75449059480E+02 -0.25647580740E+03  0.36914148516E+03  0.17200000000E+03 0. -1.
         -6    1    1    2    0  502 -0.18764070909E+03  0.75449059480E+02 -0.31208969110E+03  0.40973841848E+03  0.17200000000E+03 0. -1.
<mgrwt>
<rscale>  2 0.26549124E+03</rscale>
<asrwt>0</asrwt>
<pdfrwt beam="1">  1       21 0.26289301E-01 0.26549124E+03</pdfrwt>
<pdfrwt beam="2">  1       21 0.16843067E+00 0.26549124E+03</pdfrwt>
<totfact> 0.28379909E+03</totfact>
</mgrwt>
</event>
<event>
 4    1  0.1119790E+000  0.1744730E+03  0.7546771E-02  0.1173262E+00
         21   -1    0    0  503  502  0.00000000000E+00  0.00000000000E+00  0.47447838199E+02  0.47447838199E+02  0.00000000000E+00 0.  1.
         21   -1    0    0  501  503 -0.00000000000E+00 -0.00000000000E+00 -0.66039613727E+03  0.66039613727E+03  0.00000000000E+00 0.  1.
          6    1    1    2  501    0 -0.20711069489E+02  0.20685622733E+02 -0.24670864544E+03  0.30216882553E+03  0.17200000000E+03 0.  1.
         -6    1    1    2    0  502  0.20711069489E+02 -0.20685622733E+02 -0.36623965363E+03  0.40567514994E+03  0.17200000000E+03 0.  1.
<mgrwt>
<rscale>  2 0.17447304E+03</rscale>
<asrwt>0</asrwt>
<pdfrwt beam="1">  1       21 0.11861960E-01 0.17447304E+03</pdfrwt>
<pdfrwt beam="2">  1       21 0.16509903E+00 0.17447304E+03</pdfrwt>
<totfact> 0.14041465E+04</totfact>
</mgrwt>
</event>
<event>
 4    1  0.1119790E+000  0.1798351E+03  0.7546771E-02  0.1167963E+00
         21   -1    0    0  503  502  0.00000000000E+00  0.00000000000E+00  0.74306342810E+03  0.74306342810E+03  0.00000000000E+00 0. -1.
         21   -1    0    0  501  503 -0.00000000000E+00 -0.00000000000E+00 -0.57523144942E+02  0.57523144942E+02  0.00000000000E+00 0. -1.
          6    1    1    2  501    0 -0.47255397436E+01  0.52290840742E+02  0.14529304911E+03  0.23119414541E+03  0.17200000000E+03 0. -1.
         -6    1    1    2    0  502  0.47255397436E+01 -0.52290840742E+02  0.54024723405E+03  0.56939242764E+03  0.17200000000E+03 0. -1.
<mgrwt>
<rscale>  2 0.17983510E+03</rscale>
<asrwt>0</asrwt>
<pdfrwt beam="1">  1       21 0.18576583E+00 0.17983510E+03</pdfrwt>
<pdfrwt beam="2">  1       21 0.14380789E-01 0.17983510E+03</pdfrwt>
<totfact> 0.71263749E+03</totfact>
</mgrwt>
</event>
<event>
 4    1  0.1119790E+000  0.1891558E+03  0.7546771E-02  0.1159225E+00
         21   -1    0    0  503  502  0.00000000000E+00  0.00000000000E+00  0.77494321846E+02  0.77494321846E+02  0.00000000000E+00 0.  1.
         21   -1    0    0  501  503 -0.00000000000E+00 -0.00000000000E+00 -0.52982852028E+03  0.52982852028E+03  0.00000000000E+00 0.  1.
          6    1    1    2  501    0 -0.61364191520E+02 -0.49298726308E+02 -0.33504845626E+03  0.38475628189E+03  0.17200000000E+03 0.  1.
         -6    1    1    2    0  502  0.61364191520E+02  0.49298726308E+02 -0.11728574218E+03  0.22256656024E+03  0.17200000000E+03 0.  1.
<mgrwt>
<rscale>  2 0.18915583E+03</rscale>
<asrwt>0</asrwt>
<pdfrwt beam="1">  1       21 0.19373581E-01 0.18915583E+03</pdfrwt>
<pdfrwt beam="2">  1       21 0.13245713E+00 0.18915583E+03</pdfrwt>
<totfact> 0.10124338E+04</totfact>
</mgrwt>
</event>
<event>
 4    1  0.1119790E+000  0.1936854E+03  0.7546771E-02  0.1155179E+00
         21   -1    0    0  501  502  0.00000000000E+00  0.00000000000E+00  0.46806020460E+03  0.46806020460E+03  0.00000000000E+00 0. -1.
         21   -1    0    0  502  503 -0.00000000000E+00 -0.00000000000E+00 -0.90540372328E+02  0.90540372328E+02  0.00000000000E+00 0.  1.
          6    1    1    2  501    0 -0.47024791182E+02  0.75622228578E+02  0.28338564540E+03  0.34325133133E+03  0.17200000000E+03 0. -1.
         -6    1    1    2    0  503  0.47024791182E+02 -0.75622228578E+02  0.94134186868E+02  0.21534924559E+03  0.17200000000E+03 0. -1.
<mgrwt>
<rscale>  2 0.19368545E+03</rscale>
<asrwt>0</asrwt>
<pdfrwt beam="1">  1       21 0.11701504E+00 0.19368545E+03</pdfrwt>
<pdfrwt beam="2">  1       21 0.22635094E-01 0.19368545E+03</pdfrwt>
<totfact> 0.10272339E+04</totfact>
</mgrwt>
</event>
<event>
 4    1  0.1119790E+000  0.2054366E+03  0.7546771E-02  0.1145231E+00
         21   -1    0    0  503  502  0.00000000000E+00  0.00000000000E+00  0.22878049046E+03  0.22878049046E+03  0.00000000000E+00 0. -1.
         21   -1    0    0  501  503 -0.00000000000E+00 -0.00000000000E+00 -0.23707645897E+03  0.23707645897E+03  0.00000000000E+00 0. -1.
          6    1    1    2  501    0  0.49468761087E+02  0.10086156086E+03 -0.11386613835E+03  0.23488233277E+03  0.17200000000E+03 0. -1.
         -6    1    1    2    0  502 -0.49468761087E+02 -0.10086156086E+03  0.10557016984E+03  0.23097461666E+03  0.17200000000E+03 0. -1.
<mgrwt>
<rscale>  2 0.20543664E+03</rscale>
<asrwt>0</asrwt>
<pdfrwt beam="1">  1       21 0.57195123E-01 0.20543664E+03</pdfrwt>
<pdfrwt beam="2">  1       21 0.59269115E-01 0.20543664E+03</pdfrwt>
<totfact> 0.75663591E+03</totfact>
</mgrwt>
</event>
<event>
 4    1  0.1119790E+000  0.1721256E+03  0.7546771E-02  0.1175649E+00
         21   -1    0    0  501  502  0.00000000000E+00  0.00000000000E+00  0.20291198500E+03  0.20291198500E+03  0.00000000000E+00 0.  1.
         21   -1    0    0  502  503 -0.00000000000E+00 -0.00000000000E+00 -0.29972311585E+03  0.29972311585E+03  0.00000000000E+00 0.  1.
          6    1    1    2  501    0 -0.61532109921E+01 -0.23152965252E+01  0.13157178651E+03  0.21665261967E+03  0.17200000000E+03 0.  1.
         -6    1    1    2    0  503  0.61532109921E+01  0.23152965252E+01 -0.22838291735E+03  0.28598248118E+03  0.17200000000E+03 0.  1.
<mgrwt>
<rscale>  2 0.17212560E+03</rscale>
<asrwt>0</asrwt>
<pdfrwt beam="1">  1       21 0.50727997E-01 0.17212560E+03</pdfrwt>
<pdfrwt beam="2">  1       21 0.74930778E-01 0.17212560E+03</pdfrwt>
<totfact> 0.59858240E+03</totfact>
</mgrwt>
</event>
<event>
 4    1  0.1119790E+000  0.1825244E+03  0.7546771E-02  0.1165382E+00
         21   -1    0    0  501  502  0.00000000000E+00  0.00000000000E+00  0.63611834068E+03  0.63611834068E+03  0.00000000000E+00 0. -1.
         21   -1    0    0  502  503 -0.00000000000E+00 -0.00000000000E+00 -0.10373924176E+03  0.10373924176E+03  0.00000000000E+00 0. -1.
          6    1    1    2  501    0 -0.42600086869E+02  0.43776415604E+02  0.52649746894E+03  0.55723848284E+03  0.17200000000E+03 0. -1.
         -6    1    1    2    0  503  0.42600086869E+02 -0.43776415604E+02  0.58816299847E+01  0.18261909959E+03  0.17200000000E+03 0. -1.
<mgrwt>
<rscale>  2 0.18252436E+03</rscale>
<asrwt>0</asrwt>
<pdfrwt beam="1">  1       21 0.15902957E+00 0.18252436E+03</pdfrwt>
<pdfrwt beam="2">  1       21 0.25934812E-01 0.18252436E+03</pdfrwt>
<totfact> 0.36460791E+03</totfact>
</mgrwt>
</event>
<event>
 4    1  0.1119790E+000  0.1814183E+03  0.7546771E-02  0.1166437E+00
         21   -1    0    0  501  502  0.00000000000E+00  0.00000000000E+00  0.16022910903E+03  0.16022910903E+03  0.00000000000E+00 0.  1.
         21   -1    0    0  502  503 -0.00000000000E+00 -0.00000000000E+00 -0.30407877049E+03  0.30407877049E+03  0.00000000000E+00 0. -1.
          6    1    1    2  501    0 -0.57661944166E+02 -0.19269764642E+01  0.60318423828E+02  0.19118296288E+03  0.17200000000E+03 0. -1.
         -6    1    1    2    0  503  0.57661944166E+02  0.19269764642E+01 -0.20416808529E+03  0.27312491665E+03  0.17200000000E+03 0. -1.
<mgrwt>
<rscale>  2 0.18141834E+03</rscale>
<asrwt>0</asrwt>
<pdfrwt beam="1">  1       21 0.40057278E-01 0.18141834E+03</pdfrwt>
<pdfrwt beam="2">  1       21 0.76019692E-01 0.18141834E+03</pdfrwt>
<totfact> 0.93389903E+03</totfact>
</mgrwt>
</event>
<event>
 4    1  0.1119790E+000  0.2105721E+03  0.7546771E-02  0.1141114E+00
         21   -1    0    0  501  502  0.00000000000E+00  0.00000000000E+00  0.33646560036E+03  0.33646560036E+03  0.00000000000E+00 0. -1.
         21   -1    0    0  502  503 -0.00000000000E+00 -0.00000000000E+00 -0.18034776494E+03  0.18034776494E+03  0.00000000000E+00 0. -1.
          6    1    1    2  501    0 -0.11439011988E+03  0.40883938562E+02  0.21215219773E+03  0.29891328335E+03  0.17200000000E+03 0. -1.
         -6    1    1    2    0  503  0.11439011988E+03 -0.40883938562E+02 -0.56034362310E+02  0.21790008196E+03  0.17200000000E+03 0. -1.
<mgrwt>
<rscale>  2 0.21057207E+03</rscale>
<asrwt>0</asrwt>
<pdfrwt beam="1">  1       21 0.84116399E-01 0.21057207E+03</pdfrwt>
<pdfrwt beam="2">  1       21 0.45086942E-01 0.21057207E+03</pdfrwt>
<totfact> 0.57145508E+03</totfact>
</mgrwt>
</event>
<event>
 4    1  0.1119790E+000  0.1984384E+03  0.7546771E-02  0.1151063E+00
         21   -1    0    0  501  502  0.00000000000E+00  0.00000000000E+00  0.86498677427E+03  0.86498677427E+03  0.00000000000E+00 0.  1.
         21   -1    0    0  502  503 -0.00000000000E+00 -0.00000000000E+00 -0.50335418057E+02  0.50335418057E+02  0.00000000000E+00 0.  1.
          6    1    1    2  501    0 -0.49132456338E+02  0.85905873182E+02  0.54881881868E+03  0.58359224896E+03  0.17200000000E+03 0.  1.
         -6    1    1    2    0  503  0.49132456338E+02 -0.85905873182E+02  0.26583253754E+03  0.33172994337E+03  0.17200000000E+03 0.  1.
<mgrwt>
<rscale>  2 0.19843845E+03</rscale>
<asrwt>0</asrwt>
<pdfrwt beam="1">  1       21 0.21624665E+00 0.19843845E+03</pdfrwt>
<pdfrwt beam="2">  1       21 0.12583857E-01 0.19843845E+03</pdfrwt>
<totfact> 0.56869128E+03</totfact>
</mgrwt>
</event>
<event>
 4    1  0.1119790E+000  0.1809210E+03  0.7546771E-02  0.1166915E+00
         21   -1    0    0  501  502  0.00000000000E+00  0.00000000000E+00  0.23404600781E+04  0.23404600781E+04  0.00000000000E+00 0.  1.
         21   -1    0    0  502  503 -0.00000000000E+00 -0.00000000000E+00 -0.19393345094E+02  0.19393345094E+02  0.00000000000E+00 0.  1.
          6    1    1    2  501    0 -0.54859548022E+02 -0.11783535493E+02  0.17836110700E+04  0.17927634731E+04  0.17200000000E+03 0.  1.
         -6    1    1    2    0  503  0.54859548022E+02  0.11783535493E+02  0.53745566301E+03  0.56708995003E+03  0.17200000000E+03 0.  1.
<mgrwt>
<rscale>  2 0.18092104E+03</rscale>
<asrwt>0</asrwt>
<pdfrwt beam="1">  1       21 0.58511406E+00 0.18092104E+03</pdfrwt>
<pdfrwt beam="2">  1       21 0.48483442E-02 0.18092104E+03</pdfrwt>
<totfact> 0.12887436E+02</totfact>
</mgrwt>
</event>
<event>
 4    1  0.1119790E+000  0.1898782E+03  0.7546771E-02  0.1158571E+00
         21   -1    0    0  503  502  0.00000000000E+00  0.00000000000E+00  0.16828224584E+03  0.16828224584E+03  0.00000000000E+00 0. -1.
         21   -1    0    0  501  503 -0.00000000000E+00 -0.00000000000E+00 -0.22029954428E+03  0.22029954428E+03  0.00000000000E+00 0.  1.
          6    1    1    2  501    0  0.63486490259E+02  0.49388201397E+02  0.61994616873E+01  0.18997937311E+03  0.17200000000E+03 0. -1.
         -6    1    1    2    0  502 -0.63486490259E+02 -0.49388201397E+02 -0.58216760125E+02  0.19860241701E+03  0.17200000000E+03 0.  1.
<mgrwt>
<rscale>  2 0.18987819E+03</rscale>
<asrwt>0</asrwt>
<pdfrwt beam="1">  1       21 0.42070562E-01 0.18987819E+03</pdfrwt>
<pdfrwt beam="2">  1       21 0.55074886E-01 0.18987819E+03</pdfrwt>
<totfact> 0.16941410E+04</totfact>
</mgrwt>
</event>
<event>
 4    1  0.1119790E+000  0.2157220E+03  0.7546771E-02  0.1137113E+00
         21   -1    0    0  503  502  0.00000000000E+00  0.00000000000E+00  0.75570707890E+03  0.75570707890E+03  0.00000000000E+00 0. -1.
         21   -1    0    0  501  503 -0.00000000000E+00 -0.00000000000E+00 -0.62534934776E+02  0.62534934776E+02  0.00000000000E+00 0.  1.
          6    1    1    2  501    0 -0.75809584960E+02 -0.10585321800E+03  0.29601395437E+03  0.36627893485E+03  0.17200000000E+03 0.  1.
         -6    1    1    2    0  502  0.75809584960E+02  0.10585321800E+03  0.39715818975E+03  0.45196307882E+03  0.17200000000E+03 0. -1.
<mgrwt>
<rscale>  2 0.21572204E+03</rscale>
<asrwt>0</asrwt>
<pdfrwt beam="1">  1       21 0.18892674E+00 0.21572204E+03</pdfrwt>
<pdfrwt beam="2">  1       21 0.15633736E-01 0.21572204E+03</pdfrwt>
<totfact> 0.56534324E+03</totfact>
</mgrwt>
</event>
<event>
 4    1  0.1119790E+000  0.1721394E+03  0.7546771E-02  0.1175635E+00
         21   -1    0    0  503  502  0.00000000000E+00  0.00000000000E+00  0.88826118626E+03  0.88826118626E+03  0.00000000000E+00 0.  1.
         21   -1    0    0  501  503 -0.00000000000E+00 -0.00000000000E+00 -0.39107125445E+03  0.39107125445E+03  0.00000000000E+00 0.  1.
          6    1    1    2  501    0  0.76537337293E+00 -0.68833089738E+01 -0.36318051069E+03  0.40191049885E+03  0.17200000000E+03 0.  1.
         -6    1    1    2    0  502 -0.76537337293E+00  0.68833089738E+01  0.86037044250E+03  0.87742194186E+03  0.17200000000E+03 0.  1.
<mgrwt>
<rscale>  2 0.17213938E+03</rscale>
<asrwt>0</asrwt>
<pdfrwt beam="1">  1       21 0.22206529E+00 0.17213938E+03</pdfrwt>
<pdfrwt beam="2">  1       21 0.97767815E-01 0.17213938E+03</pdfrwt>
<totfact> 0.87425890E+01</totfact>
</mgrwt>
</event>
<event>
 4    1  0.1119790E+000  0.2158784E+03  0.7546771E-02  0.1136994E+00
         21   -1    0    0  501  502  0.00000000000E+00  0.00000000000E+00  0.21088728543E+03  0.21088728543E+03  0.00000000000E+00 0. -1.
         21   -1    0    0  502  503 -0.00000000000E+00 -0.00000000000E+00 -0.22242533197E+03  0.22242533197E+03  0.00000000000E+00 0. -1.
          6    1    1    2  501    0  0.12982437332E+03  0.12850166401E+02  0.11649211478E+02  0.21619250406E+03  0.17200000000E+03 0. -1.
         -6    1    1    2    0  503 -0.12982437332E+03 -0.12850166401E+02 -0.23187258010E+02  0.21712011334E+03  0.17200000000E+03 0. -1.
<mgrwt>
<rscale>  2 0.21587843E+03</rscale>
<asrwt>0</asrwt>
<pdfrwt beam="1">  1       21 0.52721821E-01 0.21587843E+03</pdfrwt>
<pdfrwt beam="2">  1       21 0.55606333E-01 0.21587843E+03</pdfrwt>
<totfact> 0.10232706E+04</totfact>
</mgrwt>
</event>
<event>
 4    1  0.1119790E+000  0.2499890E+03  0.7546771E-02  0.1113312E+00
         21   -1    0    0  501  502  0.00000000000E+00  0.00000000000E+00  0.19004837575E+03  0.19004837575E+03  0.00000000000E+00 0.  1.
         21   -1    0    0  502  503 -0.00000000000E+00 -0.00000000000E+00 -0.50238399731E+03  0.50238399731E+03  0.00000000000E+00 0.  1.
          6    1    1    2  501    0 -0.83661782453E+02  0.16096951088E+03  0.47321243487E+02  0.25442833443E+03  0.17200000000E+03 0.  1.
         -6    1    1    2    0  503  0.83661782453E+02 -0.16096951088E+03 -0.35965686505E+03  0.43800403863E+03  0.17200000000E+03 0.  1.
<mgrwt>
<rscale>  2 0.24998895E+03</rscale>
<asrwt>0</asrwt>
<pdfrwt beam="1">  1       21 0.47512094E-01 0.24998895E+03</pdfrwt>
<pdfrwt beam="2">  1       21 0.12559600E+00 0.24998895E+03</pdfrwt>
<totfact> 0.19033737E+03</totfact>
</mgrwt>
</event>
<event>
 4    1  0.1119790E+000  0.2259092E+03  0.7546771E-02  0.1129553E+00
         21   -1    0    0  501  502  0.00000000000E+00  0.00000000000E+00  0.36004337779E+03  0.36004337779E+03  0.00000000000E+00 0. -1.
         21   -1    0    0  502  503 -0.00000000000E+00 -0.00000000000E+00 -0.29858703925E+03  0.29858703925E+03  0.00000000000E+00 0. -1.
          6    1    1    2  501    0 -0.12211226534E+03 -0.80867459245E+02  0.26940223659E+03  0.35158571699E+03  0.17200000000E+03 0. -1.
         -6    1    1    2    0  503  0.12211226534E+03  0.80867459245E+02 -0.20794589805E+03  0.30704470005E+03  0.17200000000E+03 0. -1.
<mgrwt>
<rscale>  2 0.22590917E+03</rscale>
<asrwt>0</asrwt>
<pdfrwt beam="1">  1       21 0.90010844E-01 0.22590917E+03</pdfrwt>
<pdfrwt beam="2">  1       21 0.74646760E-01 0.22590917E+03</pdfrwt>
<totfact> 0.16386083E+03</totfact>
</mgrwt>
</event>
<event>
 4    1  0.1119790E+000  0.1727133E+03  0.7546771E-02  0.1175048E+00
         21   -1    0    0  501  502  0.00000000000E+00  0.00000000000E+00  0.92112912911E+02  0.92112912911E+02  0.00000000000E+00 0. -1.
         21   -1    0    0  502  503 -0.00000000000E+00 -0.00000000000E+00 -0.36062431324E+03  0.36062431324E+03  0.00000000000E+00 0. -1.
          6    1    1    2  501    0  0.15411020983E+02  0.28946200567E+01 -0.61959089061E+02  0.18349061859E+03  0.17200000000E+03 0. -1.
         -6    1    1    2    0  503 -0.15411020983E+02 -0.28946200567E+01 -0.20655231127E+03  0.26924660756E+03  0.17200000000E+03 0. -1.
<mgrwt>
<rscale>  2 0.17271328E+03</rscale>
<asrwt>0</asrwt>
<pdfrwt beam="1">  1       21 0.23028229E-01 0.17271328E+03</pdfrwt>
<pdfrwt beam="2">  1       21 0.90156077E-01 0.17271328E+03</pdfrwt>
<totfact> 0.18763063E+04</totfact>
</mgrwt>
</event>
<event>
 4    1  0.1119790E+000  0.1957355E+03  0.7546771E-02  0.1153388E+00
         21   -1    0    0  501  502  0.00000000000E+00  0.00000000000E+00  0.37382890369E+03  0.37382890369E+03  0.00000000000E+00 0.  1.
         21   -1    0    0  502  503 -0.00000000000E+00 -0.00000000000E+00 -0.11664782850E+03  0.11664782850E+03  0.00000000000E+00 0.  1.
          6    1    1    2  501    0 -0.19251245863E+02  0.91420872498E+02  0.21403881169E+03  0.29004309905E+03  0.17200000000E+03 0.  1.
         -6    1    1    2    0  503  0.19251245863E+02 -0.91420872498E+02  0.43142263494E+02  0.20043363314E+03  0.17200000000E+03 0.  1.
<mgrwt>
<rscale>  2 0.19573550E+03</rscale>
<asrwt>0</asrwt>
<pdfrwt beam="1">  1       21 0.93457223E-01 0.19573550E+03</pdfrwt>
<pdfrwt beam="2">  1       21 0.29161958E-01 0.19573550E+03</pdfrwt>
<totfact> 0.10814829E+04</totfact>
</mgrwt>
</event>
<event>
 4    1  0.1119790E+000  0.2419356E+03  0.7546771E-02  0.1118510E+00
         21   -1    0    0  501  502  0.00000000000E+00  0.00000000000E+00  0.38783512393E+03  0.38783512393E+03  0.00000000000E+00 0.  1.
         21   -1    0    0  502  503 -0.00000000000E+00 -0.00000000000E+00 -0.15304690627E+03  0.15304690627E+03  0.00000000000E+00 0. -1.
          6    1    1    2  501    0 -0.28051628674E+02 -0.16781512939E+03  0.85527123158E+02  0.25660806753E+03  0.17200000000E+03 0.  1.
         -6    1    1    2    0  503  0.28051628674E+02  0.16781512939E+03  0.14926109451E+03  0.28427396268E+03  0.17200000000E+03 0.  1.
<mgrwt>
<rscale>  2 0.24193555E+03</rscale>
<asrwt>0</asrwt>
<pdfrwt beam="1">  1       21 0.96958779E-01 0.24193555E+03</pdfrwt>
<pdfrwt beam="2">  1       21 0.38261727E-01 0.24193555E+03</pdfrwt>
<totfact> 0.56161862E+03</totfact>
</mgrwt>
</event>
<event>
 4    1  0.1119790E+000  0.3123954E+03  0.7546771E-02  0.1079203E+00
         21   -1    0    0  503  502  0.00000000000E+00  0.00000000000E+00  0.42051982174E+03  0.42051982174E+03  0.00000000000E+00 0.  1.
         21   -1    0    0  501  503 -0.00000000000E+00 -0.00000000000E+00 -0.49048935702E+03  0.49048935702E+03  0.00000000000E+00 0. -1.
          6    1    1    2  501    0 -0.25915721021E+03  0.29058927163E+02 -0.36561213084E+03  0.48089823359E+03  0.17200000000E+03 0. -1.
         -6    1    1    2    0  502  0.25915721021E+03 -0.29058927163E+02  0.29564259556E+03  0.43011094518E+03  0.17200000000E+03 0.  1.
<mgrwt>
<rscale>  2 0.31239539E+03</rscale>
<asrwt>0</asrwt>
<pdfrwt beam="1">  1       21 0.10512996E+00 0.31239539E+03</pdfrwt>
<pdfrwt beam="2">  1       21 0.12262234E+00 0.31239539E+03</pdfrwt>
<totfact> 0.32651582E+02</totfact>
</mgrwt>
</event>
<event>
 4    1  0.1119790E+000  0.2006653E+03  0.7546771E-02  0.1149179E+00
         21   -1    0    0  503  502  0.00000000000E+00  0.00000000000E+00  0.40990821954E+02  0.40990821954E+02  0.00000000000E+00 0. -1.
         21   -1    0    0  501  503 -0.00000000000E+00 -0.00000000000E+00 -0.10274900398E+04  0.10274900398E+04  0.00000000000E+00 0.  1.
          6    1    1    2  501    0  0.71811310374E+02  0.74335135566E+02 -0.60524954186E+03  0.63764691217E+03  0.17200000000E+03 0.  1.
         -6    1    1    2    0  502 -0.71811310374E+02 -0.74335135566E+02 -0.38124967600E+03  0.43083394960E+03  0.17200000000E+03 0. -1.
<mgrwt>
<rscale>  2 0.20066534E+03</rscale>
<asrwt>0</asrwt>
<pdfrwt beam="1">  1       21 0.10247706E-01 0.20066534E+03</pdfrwt>
<pdfrwt beam="2">  1       21 0.25687250E+00 0.20066534E+03</pdfrwt>
<totfact> 0.46699551E+03</totfact>
</mgrwt>
</event>
<event>
 4    1  0.1119790E+000  0.1841111E+03  0.7546771E-02  0.1163883E+00
         21   -1    0    0  501  502  0.00000000000E+00  0.00000000000E+00  0.77919744669E+03  0.77919744669E+03  0.00000000000E+00 0.  1.
         21   -1    0    0  502  503 -0.00000000000E+00 -0.00000000000E+00 -0.43505740640E+02  0.43505740640E+02  0.00000000000E+00 0.  1.
          6    1    1    2  501    0  0.80337145000E+01 -0.65179309139E+02  0.36418896382E+03  0.40808146770E+03  0.17200000000E+03 0.  1.
         -6    1    1    2    0  503 -0.80337145000E+01  0.65179309139E+02  0.37150274223E+03  0.41462171963E+03  0.17200000000E+03 0.  1.
<mgrwt>
<rscale>  2 0.18411106E+03</rscale>
<asrwt>0</asrwt>
<pdfrwt beam="1">  1       21 0.19479932E+00 0.18411106E+03</pdfrwt>
<pdfrwt beam="2">  1       21 0.10876438E-01 0.18411106E+03</pdfrwt>
<totfact> 0.10217267E+04</totfact>
</mgrwt>
</event>
<event>
 4    1  0.1119790E+000  0.2145350E+03  0.7546771E-02  0.1138024E+00
         21   -1    0    0  501  502  0.00000000000E+00  0.00000000000E+00  0.21431239175E+03  0.21431239175E+03  0.00000000000E+00 0.  1.
         21   -1    0    0  502  503 -0.00000000000E+00 -0.00000000000E+00 -0.76574653187E+03  0.76574653187E+03  0.00000000000E+00 0.  1.
          6    1    1    2  501    0  0.61936113000E+02  0.11227286494E+03  0.13995514267E+03  0.25614980042E+03  0.17200000000E+03 0.  1.
         -6    1    1    2    0  503 -0.61936113000E+02 -0.11227286494E+03 -0.69138928279E+03  0.72390912320E+03  0.17200000000E+03 0.  1.
<mgrwt>
<rscale>  2 0.21453503E+03</rscale>
<asrwt>0</asrwt>
<pdfrwt beam="1">  1       21 0.53578099E-01 0.21453503E+03</pdfrwt>
<pdfrwt beam="2">  1       21 0.19143663E+00 0.21453503E+03</pdfrwt>
<totfact> 0.49051742E+02</totfact>
</mgrwt>
</event>
<event>
 4    1  0.1119790E+000  0.2178893E+03  0.7546771E-02  0.1135466E+00
         21   -1    0    0  501  502  0.00000000000E+00  0.00000000000E+00  0.65546347896E+02  0.65546347896E+02  0.00000000000E+00 0.  1.
         21   -1    0    0  502  503 -0.00000000000E+00 -0.00000000000E+00 -0.75466885302E+03  0.75466885302E+03  0.00000000000E+00 0.  1.
          6    1    1    2  501    0  0.11623582838E+03  0.66189116260E+02 -0.26230401770E+03  0.34099730881E+03  0.17200000000E+03 0.  1.
         -6    1    1    2    0  503 -0.11623582838E+03 -0.66189116260E+02 -0.42681848742E+03  0.47921789211E+03  0.17200000000E+03 0.  1.
<mgrwt>
<rscale>  2 0.21788935E+03</rscale>
<asrwt>0</asrwt>
<pdfrwt beam="1">  1       21 0.16386587E-01 0.21788935E+03</pdfrwt>
<pdfrwt beam="2">  1       21 0.18866721E+00 0.21788935E+03</pdfrwt>
<totfact> 0.51971815E+03</totfact>
</mgrwt>
</event>
<event>
 4    1  0.1119790E+000  0.2723043E+03  0.7546771E-02  0.1099968E+00
         21   -1    0    0  503  502  0.00000000000E+00  0.00000000000E+00  0.10417433429E+04  0.10417433429E+04  0.00000000000E+00 0. -1.
         21   -1    0    0  501  503 -0.00000000000E+00 -0.00000000000E+00 -0.90290591285E+02  0.90290591285E+02  0.00000000000E+00 0. -1.
          6    1    1    2  501    0  0.18946460121E+03  0.93106456516E+02  0.73613969447E+03  0.78488935343E+03  0.17200000000E+03 0. -1.
         -6    1    1    2    0  502 -0.18946460121E+03 -0.93106456516E+02  0.21531305711E+03  0.34714458071E+03  0.17200000000E+03 0. -1.
<mgrwt>
<rscale>  2 0.27230433E+03</rscale>
<asrwt>0</asrwt>
<pdfrwt beam="1">  1       21 0.26043580E+00 0.27230433E+03</pdfrwt>
<pdfrwt beam="2">  1       21 0.22572651E-01 0.27230433E+03</pdfrwt>
<totfact> 0.97625577E+02</totfact>
</mgrwt>
</event>
<event>
 4    1  0.1119790E+000  0.2249651E+03  0.7546771E-02  0.1130235E+00
         21   -1    0    0  501  502  0.00000000000E+00  0.00000000000E+00  0.30152849796E+03  0.30152849796E+03  0.00000000000E+00 0. -1.
         21   -1    0    0  502  503 -0.00000000000E+00 -0.00000000000E+00 -0.29006427957E+03  0.29006427957E+03  0.00000000000E+00 0.  1.
          6    1    1    2  501    0  0.58608020847E+02 -0.13262872523E+03  0.19774047454E+03  0.29951723513E+03  0.17200000000E+03 0. -1.
         -6    1    1    2    0  503 -0.58608020847E+02  0.13262872523E+03 -0.18627625616E+03  0.29207554241E+03  0.17200000000E+03 0.  1.
<mgrwt>
<rscale>  2 0.22496506E+03</rscale>
<asrwt>0</asrwt>
<pdfrwt beam="1">  1       21 0.75382125E-01 0.22496506E+03</pdfrwt>
<pdfrwt beam="2">  1       21 0.72516070E-01 0.22496506E+03</pdfrwt>
<totfact> 0.26230140E+03</totfact>
</mgrwt>
</event>
<event>
 4    1  0.1119790E+000  0.1994271E+03  0.7546771E-02  0.1150223E+00
         21   -1    0    0  501  502  0.00000000000E+00  0.00000000000E+00  0.30806359311E+03  0.30806359311E+03  0.00000000000E+00 0.  1.
         21   -1    0    0  502  503 -0.00000000000E+00 -0.00000000000E+00 -0.12920679637E+03  0.12920679637E+03  0.00000000000E+00 0.  1.
          6    1    1    2  501    0 -0.95818534220E+02  0.31717223010E+02  0.83158342705E+02  0.21607055259E+03  0.17200000000E+03 0. -1.
         -6    1    1    2    0  503  0.95818534220E+02 -0.31717223010E+02  0.95698454033E+02  0.22119983689E+03  0.17200000000E+03 0. -1.
<mgrwt>
<rscale>  2 0.19942711E+03</rscale>
<asrwt>0</asrwt>
<pdfrwt beam="1">  1       21 0.77015897E-01 0.19942711E+03</pdfrwt>
<pdfrwt beam="2">  1       21 0.32301700E-01 0.19942711E+03</pdfrwt>
<totfact> 0.13754035E+04</totfact>
</mgrwt>
</event>
<event>
 4    1  0.1119790E+000  0.1924674E+03  0.7546771E-02  0.1156255E+00
         21   -1    0    0  501  502  0.00000000000E+00  0.00000000000E+00  0.50507149497E+02  0.50507149497E+02  0.00000000000E+00 0.  1.
         21   -1    0    0  502  503 -0.00000000000E+00 -0.00000000000E+00 -0.74425785889E+03  0.74425785889E+03  0.00000000000E+00 0.  1.
          6    1    1    2  501    0  0.86080946250E+02 -0.70551324163E+01 -0.39479579533E+03  0.43921227694E+03  0.17200000000E+03 0.  1.
         -6    1    1    2    0  503 -0.86080946250E+02  0.70551324163E+01 -0.29895491406E+03  0.35555273145E+03  0.17200000000E+03 0.  1.
<mgrwt>
<rscale>  2 0.19246741E+03</rscale>
<asrwt>0</asrwt>
<pdfrwt beam="1">  1       21 0.12626788E-01 0.19246741E+03</pdfrwt>
<pdfrwt beam="2">  1       21 0.18606446E+00 0.19246741E+03</pdfrwt>
<totfact> 0.88731678E+03</totfact>
</mgrwt>
</event>
<event>
 4    1  0.1119790E+000  0.1927935E+03  0.7546771E-02  0.1155966E+00
         21   -1    0    0  503  502  0.00000000000E+00  0.00000000000E+00  0.25979172844E+03  0.25979172844E+03  0.00000000000E+00 0.  1.
         21   -1    0    0  501  503 -0.00000000000E+00 -0.00000000000E+00 -0.16807024314E+03  0.16807024314E+03  0.00000000000E+00 0. -1.
          6    1    1    2  501    0  0.65365802690E+02  0.57555450049E+02 -0.36642266105E+02  0.19624467803E+03  0.17200000000E+03 0. -1.
         -6    1    1    2    0  502 -0.65365802690E+02 -0.57555450049E+02  0.12836375141E+03  0.23161729354E+03  0.17200000000E+03 0.  1.
<mgrwt>
<rscale>  2 0.19279346E+03</rscale>
<asrwt>0</asrwt>
<pdfrwt beam="1">  1       21 0.64947932E-01 0.19279346E+03</pdfrwt>
<pdfrwt beam="2">  1       21 0.42017561E-01 0.19279346E+03</pdfrwt>
<totfact> 0.11902150E+04</totfact>
</mgrwt>
</event>
<event>
 4    1  0.1119790E+000  0.1776948E+03  0.7546771E-02  0.1170053E+00
         21   -1    0    0  501  502  0.00000000000E+00  0.00000000000E+00  0.14700433229E+03  0.14700433229E+03  0.00000000000E+00 0.  1.
         21   -1    0    0  502  503 -0.00000000000E+00 -0.00000000000E+00 -0.36900666473E+03  0.36900666473E+03  0.00000000000E+00 0.  1.
          6    1    1    2  501    0  0.39232285297E+02  0.21266697012E+02  0.55790301647E+02  0.18624715399E+03  0.17200000000E+03 0.  1.
         -6    1    1    2    0  503 -0.39232285297E+02 -0.21266697012E+02 -0.27779263409E+03  0.32976384302E+03  0.17200000000E+03 0.  1.
<mgrwt>
<rscale>  2 0.17769481E+03</rscale>
<asrwt>0</asrwt>
<pdfrwt beam="1">  1       21 0.36751083E-01 0.17769481E+03</pdfrwt>
<pdfrwt beam="2">  1       21 0.92251665E-01 0.17769481E+03</pdfrwt>
<totfact> 0.71641857E+03</totfact>
</mgrwt>
</event>
<event>
 4    1  0.1119790E+000  0.1952880E+03  0.7546771E-02  0.1153777E+00
         21   -1    0    0  503  502  0.00000000000E+00  0.00000000000E+00  0.14467221572E+04  0.14467221572E+04  0.00000000000E+00 0.  1.
         21   -1    0    0  501  503 -0.00000000000E+00 -0.00000000000E+00 -0.52633213128E+02  0.52633213128E+02  0.00000000000E+00 0.  1.
          6    1    1    2  501    0 -0.13447198733E+02  0.91501822185E+02  0.16739216297E+03  0.25721109393E+03  0.17200000000E+03 0.  1.
         -6    1    1    2    0  502  0.13447198733E+02 -0.91501822185E+02  0.12266967811E+04  0.12421442764E+04  0.17200000000E+03 0.  1.
<mgrwt>
<rscale>  2 0.19528802E+03</rscale>
<asrwt>0</asrwt>
<pdfrwt beam="1">  1       21 0.36168041E+00 0.19528802E+03</pdfrwt>
<pdfrwt beam="2">  1       21 0.13158308E-01 0.19528802E+03</pdfrwt>
<totfact> 0.73845619E+02</totfact>
</mgrwt>
</event>
<event>
 4    1  0.1119790E+000  0.2038700E+03  0.7546771E-02  0.1146514E+00
         21   -1    0    0  501  502  0.00000000000E+00  0.00000000000E+00  0.31775098345E+03  0.31775098345E+03  0.00000000000E+00 0.  1.
         21   -1    0    0  502  503 -0.00000000000E+00 -0.00000000000E+00 -0.15641672590E+03  0.15641672590E+03  0.00000000000E+00 0.  1.
          6    1    1    2  501    0 -0.26179797047E+02 -0.10627142335E+03  0.17660520784E+03  0.26972652192E+03  0.17200000000E+03 0.  1.
         -6    1    1    2    0  503  0.26179797047E+02  0.10627142335E+03 -0.15270950294E+02  0.20444118743E+03  0.17200000000E+03 0.  1.
<mgrwt>
<rscale>  2 0.20387005E+03</rscale>
<asrwt>0</asrwt>
<pdfrwt beam="1">  1       21 0.79437745E-01 0.20387005E+03</pdfrwt>
<pdfrwt beam="2">  1       21 0.39104182E-01 0.20387005E+03</pdfrwt>
<totfact> 0.87411644E+03</totfact>
</mgrwt>
</event>
<event>
 4    1  0.1119790E+000  0.1866767E+03  0.7546771E-02  0.1161493E+00
         21   -1    0    0  501  502  0.00000000000E+00  0.00000000000E+00  0.35950555191E+03  0.35950555191E+03  0.00000000000E+00 0.  1.
         21   -1    0    0  502  503 -0.00000000000E+00 -0.00000000000E+00 -0.15050719585E+03  0.15050719585E+03  0.00000000000E+00 0. -1.
          6    1    1    2  501    0 -0.49137856110E+02  0.53382354310E+02  0.25664056872E+03  0.31735246363E+03  0.17200000000E+03 0.  1.
         -6    1    1    2    0  503  0.49137856110E+02 -0.53382354310E+02 -0.47642212662E+02  0.19266028413E+03  0.17200000000E+03 0. -1.
<mgrwt>
<rscale>  2 0.18667674E+03</rscale>
<asrwt>0</asrwt>
<pdfrwt beam="1">  1       21 0.89876387E-01 0.18667674E+03</pdfrwt>
<pdfrwt beam="2">  1       21 0.37626800E-01 0.18667674E+03</pdfrwt>
<totfact> 0.72113059E+03</totfact>
</mgrwt>
</event>
<event>
 4    1  0.1119790E+000  0.2193197E+03  0.7546771E-02  0.1134391E+00
         21   -1    0    0  501  502  0.00000000000E+00  0.00000000000E+00  0.57349317490E+03  0.57349317490E+03  0.00000000000E+00 0. -1.
         21   -1    0    0  502  503 -0.00000000000E+00 -0.00000000000E+00 -0.11830135019E+03  0.11830135019E+03  0.00000000000E+00 0. -1.
          6    1    1    2  501    0  0.18890208507E+02 -0.13476010557E+03  0.41419285281E+03  0.46867562914E+03  0.17200000000E+03 0. -1.
         -6    1    1    2    0  503 -0.18890208507E+02  0.13476010557E+03  0.40998971894E+02  0.22311889594E+03  0.17200000000E+03 0. -1.
<mgrwt>
<rscale>  2 0.21931969E+03</rscale>
<asrwt>0</asrwt>
<pdfrwt beam="1">  1       21 0.14337329E+00 0.21931969E+03</pdfrwt>
<pdfrwt beam="2">  1       21 0.29575339E-01 0.21931969E+03</pdfrwt>
<totfact> 0.36039576E+03</totfact>
</mgrwt>
</event>
<event>
 4    1  0.1119790E+000  0.2472105E+03  0.7546771E-02  0.1115081E+00
         21   -1    0    0  501  502  0.00000000000E+00  0.00000000000E+00  0.35352151609E+03  0.35352151609E+03  0.00000000000E+00 0. -1.
         21   -1    0    0  502  503 -0.00000000000E+00 -0.00000000000E+00 -0.22807588279E+03  0.22807588279E+03  0.00000000000E+00 0.  1.
          6    1    1    2  501    0 -0.86525737950E+02  0.15505586075E+03  0.20579267291E+03  0.32165765576E+03  0.17200000000E+03 0. -1.
         -6    1    1    2    0  503  0.86525737950E+02 -0.15505586075E+03 -0.80347039615E+02  0.25993974313E+03  0.17200000000E+03 0.  1.
<mgrwt>
<rscale>  2 0.24721048E+03</rscale>
<asrwt>0</asrwt>
<pdfrwt beam="1">  1       21 0.88380378E-01 0.24721048E+03</pdfrwt>
<pdfrwt beam="2">  1       21 0.57018971E-01 0.24721048E+03</pdfrwt>
<totfact> 0.30357456E+03</totfact>
</mgrwt>
</event>
<event>
 4    1  0.1119790E+000  0.1758121E+03  0.7546771E-02  0.1171919E+00
         21   -1    0    0  501  502  0.00000000000E+00  0.00000000000E+00  0.88597860986E+02  0.88597860986E+02  0.00000000000E+00 0. -1.
         21   -1    0    0  502  503 -0.00000000000E+00 -0.00000000000E+00 -0.39929927875E+03  0.39929927875E+03  0.00000000000E+00 0. -1.
          6    1    1    2  501    0 -0.28246381907E+02 -0.22979116259E+02 -0.24203758425E+03  0.29915228574E+03  0.17200000000E+03 0. -1.
         -6    1    1    2    0  503  0.28246381907E+02  0.22979116259E+02 -0.68663833508E+02  0.18874485399E+03  0.17200000000E+03 0. -1.
<mgrwt>
<rscale>  2 0.17581211E+03</rscale>
<asrwt>0</asrwt>
<pdfrwt beam="1">  1       21 0.22149465E-01 0.17581211E+03</pdfrwt>
<pdfrwt beam="2">  1       21 0.99824819E-01 0.17581211E+03</pdfrwt>
<totfact> 0.15885858E+04</totfact>
</mgrwt>
</event>
<event>
 4    1  0.1119790E+000  0.1886013E+03  0.7546771E-02  0.1159729E+00
         21   -1    0    0  503  502  0.00000000000E+00  0.00000000000E+00  0.64321832761E+03  0.64321832761E+03  0.00000000000E+00 0. -1.
         21   -1    0    0  501  503 -0.00000000000E+00 -0.00000000000E+00 -0.10183694150E+03  0.10183694150E+03  0.00000000000E+00 0. -1.
          6    1    1    2  501    0  0.37117571593E+02  0.67887596503E+02  0.18864235426E+02  0.18954234160E+03  0.17200000000E+03 0. -1.
         -6    1    1    2    0  502 -0.37117571593E+02 -0.67887596503E+02  0.52251715068E+03  0.55551292752E+03  0.17200000000E+03 0. -1.
<mgrwt>
<rscale>  2 0.18860127E+03</rscale>
<asrwt>0</asrwt>
<pdfrwt beam="1">  1       21 0.16080457E+00 0.18860127E+03</pdfrwt>
<pdfrwt beam="2">  1       21 0.25459237E-01 0.18860127E+03</pdfrwt>
<totfact> 0.36458931E+03</totfact>
</mgrwt>
</event>
<event>
 4    1  0.1119790E+000  0.2020641E+03  0.7546771E-02  0.1148009E+00
         21   -1    0    0  501  502  0.00000000000E+00  0.00000000000E+00  0.14031073872E+03  0.14031073872E+03  0.00000000000E+00 0. -1.
         21   -1    0    0  502  503 -0.00000000000E+00 -0.00000000000E+00 -0.55925027818E+03  0.55925027818E+03  0.00000000000E+00 0.  1.
          6    1    1    2  501    0 -0.29664513892E+02 -0.10181306885E+03  0.32781303447E+02  0.20470588225E+03  0.17200000000E+03 0. -1.
         -6    1    1    2    0  503  0.29664513892E+02  0.10181306885E+03 -0.45172084290E+03  0.49485513465E+03  0.17200000000E+03 0.  1.
<mgrwt>
<rscale>  2 0.20206406E+03</rscale>
<asrwt>0</asrwt>
<pdfrwt beam="1">  1       21 0.35077685E-01 0.20206406E+03</pdfrwt>
<pdfrwt beam="2">  1       21 0.13981257E+00 0.20206406E+03</pdfrwt>
<totfact> 0.27895900E+03</totfact>
</mgrwt>
</event>
<event>
 4    1  0.1119790E+000  0.2125679E+03  0.7546771E-02  0.1139548E+00
         21   -1    0    0  503  502  0.00000000000E+00  0.00000000000E+00  0.42110577956E+02  0.42110577956E+02  0.00000000000E+00 0. -1.
         21   -1    0    0  501  503 -0.00000000000E+00 -0.00000000000E+00 -0.15970362067E+04  0.15970362067E+04  0.00000000000E+00 0.  1.
          6    1    1    2  501    0 -0.12265148635E+03 -0.23615927879E+02 -0.12469315743E+04  0.12649203335E+04  0.17200000000E+03 0.  1.
         -6    1    1    2    0  502  0.12265148635E+03  0.23615927879E+02 -0.30799405438E+03  0.37422645108E+03  0.17200000000E+03 0. -1.
<mgrwt>
<rscale>  2 0.21256787E+03</rscale>
<asrwt>0</asrwt>
<pdfrwt beam="1">  1       21 0.10527645E-01 0.21256787E+03</pdfrwt>
<pdfrwt beam="2">  1       21 0.39925903E+00 0.21256787E+03</pdfrwt>
<totfact> 0.63288699E+02</totfact>
</mgrwt>
</event>
<event>
 4    1  0.1119790E+000  0.1771848E+03  0.7546771E-02  0.1170556E+00
         21   -1    0    0  501  502  0.00000000000E+00  0.00000000000E+00  0.22232543625E+03  0.22232543625E+03  0.00000000000E+00 0.  1.
         21   -1    0    0  502  503 -0.00000000000E+00 -0.00000000000E+00 -0.22497114538E+03  0.22497114538E+03  0.00000000000E+00 0.  1.
          6    1    1    2  501    0  0.31948551959E+02  0.28102548659E+02  0.13514324514E+03  0.22284110913E+03  0.17200000000E+03 0.  1.
         -6    1    1    2    0  503 -0.31948551959E+02 -0.28102548659E+02 -0.13778895427E+03  0.22445547249E+03  0.17200000000E+03 0.  1.
<mgrwt>
<rscale>  2 0.17718483E+03</rscale>
<asrwt>0</asrwt>
<pdfrwt beam="1">  1       21 0.55581359E-01 0.17718483E+03</pdfrwt>
<pdfrwt beam="2">  1       21 0.56242786E-01 0.17718483E+03</pdfrwt>
<totfact> 0.91751825E+03</totfact>
</mgrwt>
</event>
<event>
 4    1  0.1119790E+000  0.1774791E+03  0.7546771E-02  0.1170265E+00
         21   -1    0    0  501  502  0.00000000000E+00  0.00000000000E+00  0.25373963273E+03  0.25373963273E+03  0.00000000000E+00 0.  1.
         21   -1    0    0  502  503 -0.00000000000E+00 -0.00000000000E+00 -0.37879674990E+03  0.37879674990E+03  0.00000000000E+00 0.  1.
          6    1    1    2  501    0  0.18832547160E+01  0.43718086526E+02  0.19678868775E+03  0.26499925541E+03  0.17200000000E+03 0.  1.
         -6    1    1    2    0  503 -0.18832547160E+01 -0.43718086526E+02 -0.32184580492E+03  0.36753712722E+03  0.17200000000E+03 0.  1.
<mgrwt>
<rscale>  2 0.17747906E+03</rscale>
<asrwt>0</asrwt>
<pdfrwt beam="1">  1       21 0.63434909E-01 0.17747906E+03</pdfrwt>
<pdfrwt beam="2">  1       21 0.94699187E-01 0.17747906E+03</pdfrwt>
<totfact> 0.21749110E+03</totfact>
</mgrwt>
</event>
<event>
 4    1  0.1119790E+000  0.2299830E+03  0.7546771E-02  0.1126652E+00
         21   -1    0    0  501  502  0.00000000000E+00  0.00000000000E+00  0.57147979692E+03  0.57147979692E+03  0.00000000000E+00 0.  1.
         21   -1    0    0  502  503 -0.00000000000E+00 -0.00000000000E+00 -0.98250512439E+02  0.98250512439E+02  0.00000000000E+00 0. -1.
          6    1    1    2  501    0  0.61736801561E+02  0.13963069710E+03  0.31725371912E+03  0.39184446728E+03  0.17200000000E+03 0.  1.
         -6    1    1    2    0  503 -0.61736801561E+02 -0.13963069710E+03  0.15597556536E+03  0.27788584208E+03  0.17200000000E+03 0. -1.
<mgrwt>
<rscale>  2 0.22998297E+03</rscale>
<asrwt>0</asrwt>
<pdfrwt beam="1">  1       21 0.14286994E+00 0.22998297E+03</pdfrwt>
<pdfrwt beam="2">  1       21 0.24562630E-01 0.22998297E+03</pdfrwt>
<totfact> 0.51653824E+03</totfact>
</mgrwt>
</event>
<event>
 4    1  0.1119790E+000  0.2196913E+03  0.7546771E-02  0.1134113E+00
         21   -1    0    0  503  502  0.00000000000E+00  0.00000000000E+00  0.10346026913E+03  0.10346026913E+03  0.00000000000E+00 0. -1.
         21   -1    0    0  501  503 -0.00000000000E+00 -0.00000000000E+00 -0.10511627921E+04  0.10511627921E+04  0.00000000000E+00 0.  1.
          6    1    1    2  501    0  0.47708709555E+02 -0.12807862545E+03 -0.90440545885E+03  0.93070590911E+03  0.17200000000E+03 0.  1.
         -6    1    1    2    0  502 -0.47708709555E+02  0.12807862545E+03 -0.43297064166E+02  0.22391715216E+03  0.17200000000E+03 0. -1.
<mgrwt>
<rscale>  2 0.21969127E+03</rscale>
<asrwt>0</asrwt>
<pdfrwt beam="1">  1       21 0.25865068E-01 0.21969127E+03</pdfrwt>
<pdfrwt beam="2">  1       21 0.26279069E+00 0.21969127E+03</pdfrwt>
<totfact> 0.76849819E+02</totfact>
</mgrwt>
</event>
<event>
 4    1  0.1119790E+000  0.1897127E+03  0.7546771E-02  0.1158721E+00
         21   -1    0    0  503  502  0.00000000000E+00  0.00000000000E+00  0.67369883999E+03  0.67369883999E+03  0.00000000000E+00 0.  1.
         21   -1    0    0  501  503 -0.00000000000E+00 -0.00000000000E+00 -0.55932934318E+02  0.55932934318E+02  0.00000000000E+00 0.  1.
          6    1    1    2  501    0 -0.56025369197E+02  0.57166904017E+02  0.23159958423E+03  0.29938146957E+03  0.17200000000E+03 0.  1.
         -6    1    1    2    0  502  0.56025369197E+02 -0.57166904017E+02  0.38616632145E+03  0.43025030474E+03  0.17200000000E+03 0.  1.
<mgrwt>
<rscale>  2 0.18971267E+03</rscale>
<asrwt>0</asrwt>
<pdfrwt beam="1">  1       21 0.16842468E+00 0.18971267E+03</pdfrwt>
<pdfrwt beam="2">  1       21 0.13983236E-01 0.18971267E+03</pdfrwt>
<totfact> 0.97774900E+03</totfact>
</mgrwt>
</event>
<event>
 4    1  0.1119790E+000  0.2528233E+03  0.7546771E-02  0.1111533E+00
         21   -1    0    0  501  502  0.00000000000E+00  0.00000000000E+00  0.36412353531E+03  0.36412353531E+03  0.00000000000E+00 0.  1.
         21   -1    0    0  502  503 -0.00000000000E+00 -0.00000000000E+00 -0.29956672960E+03  0.29956672960E+03  0.00000000000E+00 0.  1.
          6    1    1    2  501    0  0.24124516333E+02  0.18372165503E+03  0.24579891802E+03  0.35261416153E+03  0.17200000000E+03 0.  1.
         -6    1    1    2    0  503 -0.24124516333E+02 -0.18372165503E+03 -0.18124211231E+03  0.31107610337E+03  0.17200000000E+03 0.  1.
<mgrwt>
<rscale>  2 0.25282334E+03</rscale>
<asrwt>0</asrwt>
<pdfrwt beam="1">  1       21 0.91030884E-01 0.25282334E+03</pdfrwt>
<pdfrwt beam="2">  1       21 0.74891682E-01 0.25282334E+03</pdfrwt>
<totfact> 0.15519128E+03</totfact>
</mgrwt>
</event>
<event>
 4    1  0.1119790E+000  0.1852995E+03  0.7546771E-02  0.1162771E+00
         21   -1    0    0  503  502  0.00000000000E+00  0.00000000000E+00  0.76381415967E+02  0.76381415967E+02  0.00000000000E+00 0. -1.
         21   -1    0    0  501  503 -0.00000000000E+00 -0.00000000000E+00 -0.52325605149E+03  0.52325605149E+03  0.00000000000E+00 0. -1.
          6    1    1    2  501    0 -0.63367527379E+02  0.27137476923E+02 -0.11089744850E+03  0.21594936968E+03  0.17200000000E+03 0. -1.
         -6    1    1    2    0  502  0.63367527379E+02 -0.27137476923E+02 -0.33597718702E+03  0.38368809778E+03  0.17200000000E+03 0. -1.
<mgrwt>
<rscale>  2 0.18529945E+03</rscale>
<asrwt>0</asrwt>
<pdfrwt beam="1">  1       21 0.19095355E-01 0.18529945E+03</pdfrwt>
<pdfrwt beam="2">  1       21 0.13081401E+00 0.18529945E+03</pdfrwt>
<totfact> 0.10763955E+04</totfact>
</mgrwt>
</event>
<event>
 4    1  0.1119790E+000  0.3032264E+03  0.7546771E-02  0.1083639E+00
         21   -1    0    0  501  502  0.00000000000E+00  0.00000000000E+00  0.13528272875E+04  0.13528272875E+04  0.00000000000E+00 0. -1.
         21   -1    0    0  502  503 -0.00000000000E+00 -0.00000000000E+00 -0.81337504885E+02  0.81337504885E+02  0.00000000000E+00 0.  1.
          6    1    1    2  501    0  0.17352544377E+03 -0.17958611446E+03  0.92649097208E+03  0.97484961583E+03  0.17200000000E+03 0. -1.
         -6    1    1    2    0  503 -0.17352544377E+03  0.17958611446E+03  0.34499881055E+03  0.45931517657E+03  0.17200000000E+03 0.  1.
<mgrwt>
<rscale>  2 0.30322640E+03</rscale>
<asrwt>0</asrwt>
<pdfrwt beam="1">  1       21 0.33820675E+00 0.30322640E+03</pdfrwt>
<pdfrwt beam="2">  1       21 0.20334381E-01 0.30322640E+03</pdfrwt>
<totfact> 0.40162312E+02</totfact>
</mgrwt>
</event>
<event>
 4    1  0.1119790E+000  0.2521690E+03  0.7546771E-02  0.1111942E+00
         21   -1    0    0  503  502  0.00000000000E+00  0.00000000000E+00  0.15882754475E+03  0.15882754475E+03  0.00000000000E+00 0.  1.
         21   -1    0    0  501  503 -0.00000000000E+00 -0.00000000000E+00 -0.63506846122E+03  0.63506846122E+03  0.00000000000E+00 0. -1.
          6    1    1    2  501    0  0.18381834366E+03  0.14697232252E+02 -0.47943412471E+03  0.54170681373E+03  0.17200000000E+03 0. -1.
         -6    1    1    2    0  502 -0.18381834366E+03 -0.14697232252E+02  0.31932082461E+01  0.25218919224E+03  0.17200000000E+03 0. -1.
<mgrwt>
<rscale>  2 0.25216898E+03</rscale>
<asrwt>0</asrwt>
<pdfrwt beam="1">  1       21 0.39706886E-01 0.25216898E+03</pdfrwt>
<pdfrwt beam="2">  1       21 0.15876711E+00 0.25216898E+03</pdfrwt>
<totfact> 0.14897481E+03</totfact>
</mgrwt>
</event>
<event>
 4    1  0.1119790E+000  0.2017008E+03  0.7546771E-02  0.1148312E+00
         21   -1    0    0  503  502  0.00000000000E+00  0.00000000000E+00  0.72763142988E+03  0.72763142988E+03  0.00000000000E+00 0. -1.
         21   -1    0    0  501  503 -0.00000000000E+00 -0.00000000000E+00 -0.60610730434E+02  0.60610730434E+02  0.00000000000E+00 0.  1.
          6    1    1    2  501    0  0.95133365313E+02 -0.45264464754E+02  0.22377375161E+03  0.30126055313E+03  0.17200000000E+03 0.  1.
         -6    1    1    2    0  502 -0.95133365313E+02  0.45264464754E+02  0.44324694783E+03  0.48698160718E+03  0.17200000000E+03 0. -1.
<mgrwt>
<rscale>  2 0.20170084E+03</rscale>
<asrwt>0</asrwt>
<pdfrwt beam="1">  1       21 0.18190783E+00 0.20170084E+03</pdfrwt>
<pdfrwt beam="2">  1       21 0.15152685E-01 0.20170084E+03</pdfrwt>
<totfact> 0.67495594E+03</totfact>
</mgrwt>
</event>
<event>
 4    1  0.1119790E+000  0.1961656E+03  0.7546771E-02  0.1153015E+00
         21   -1    0    0  501  502  0.00000000000E+00  0.00000000000E+00  0.12426988545E+03  0.12426988545E+03  0.00000000000E+00 0. -1.
         21   -1    0    0  502  503 -0.00000000000E+00 -0.00000000000E+00 -0.31708319773E+03  0.31708319773E+03  0.00000000000E+00 0. -1.
          6    1    1    2  501    0 -0.65619920961E+02  0.67756799713E+02 -0.62633464939E+02  0.20592209416E+03  0.17200000000E+03 0. -1.
         -6    1    1    2    0  503  0.65619920961E+02 -0.67756799713E+02 -0.13017984735E+03  0.23543098902E+03  0.17200000000E+03 0. -1.
<mgrwt>
<rscale>  2 0.19616564E+03</rscale>
<asrwt>0</asrwt>
<pdfrwt beam="1">  1       21 0.31067472E-01 0.19616564E+03</pdfrwt>
<pdfrwt beam="2">  1       21 0.79270798E-01 0.19616564E+03</pdfrwt>
<totfact> 0.13942936E+04</totfact>
</mgrwt>
</event>
<event>
 4    1  0.1119790E+000  0.3116374E+03  0.7546771E-02  0.1079564E+00
         21   -1    0    0  501  502  0.00000000000E+00  0.00000000000E+00  0.75812618030E+02  0.75812618030E+02  0.00000000000E+00 0. -1.
         21   -1    0    0  502  503 -0.00000000000E+00 -0.00000000000E+00 -0.19793301383E+04  0.19793301383E+04  0.00000000000E+00 0.  1.
          6    1    1    2  501    0  0.68377174401E+02 -0.25071584761E+03 -0.34141369612E+03  0.46225662366E+03  0.17200000000E+03 0. -1.
         -6    1    1    2    0  503 -0.68377174401E+02  0.25071584761E+03 -0.15621038241E+04  0.15928861326E+04  0.17200000000E+03 0.  1.
<mgrwt>
<rscale>  2 0.31163741E+03</rscale>
<asrwt>0</asrwt>
<pdfrwt beam="1">  1       21 0.18953155E-01 0.31163741E+03</pdfrwt>
<pdfrwt beam="2">  1       21 0.49483253E+00 0.31163741E+03</pdfrwt>
<totfact> 0.43977979E+01</totfact>
</mgrwt>
</event>
<event>
 4    1  0.1119790E+000  0.1837648E+03  0.7546771E-02  0.1164208E+00
         21   -1    0    0  503  502  0.00000000000E+00  0.00000000000E+00  0.10415186737E+04  0.10415186737E+04  0.00000000000E+00 0.  1.
         21   -1    0    0  501  503 -0.00000000000E+00 -0.00000000000E+00 -0.55064351932E+02  0.55064351932E+02  0.00000000000E+00 0.  1.
          6    1    1    2  501    0 -0.11193963461E+02  0.63719713684E+02  0.14164709625E+03  0.23202027197E+03  0.17200000000E+03 0.  1.
         -6    1    1    2    0  502  0.11193963461E+02 -0.63719713684E+02  0.84480722553E+03  0.86456275367E+03  0.17200000000E+03 0.  1.
<mgrwt>
<rscale>  2 0.18376481E+03</rscale>
<asrwt>0</asrwt>
<pdfrwt beam="1">  1       21 0.26037960E+00 0.18376481E+03</pdfrwt>
<pdfrwt beam="2">  1       21 0.13766091E-01 0.18376481E+03</pdfrwt>
<totfact> 0.26778184E+03</totfact>
</mgrwt>
</event>
<event>
 4    1  0.1119790E+000  0.1846984E+03  0.7546771E-02  0.1163332E+00
         21   -1    0    0  503  502  0.00000000000E+00  0.00000000000E+00  0.37801501960E+03  0.37801501960E+03  0.00000000000E+00 0. -1.
         21   -1    0    0  501  503 -0.00000000000E+00 -0.00000000000E+00 -0.93376318125E+02  0.93376318125E+02  0.00000000000E+00 0. -1.
          6    1    1    2  501    0 -0.65410835824E+02 -0.15840082134E+02  0.99149074617E+02  0.20962830115E+03  0.17200000000E+03 0. -1.
         -6    1    1    2    0  502  0.65410835824E+02  0.15840082134E+02  0.18548962686E+03  0.26176303657E+03  0.17200000000E+03 0. -1.
<mgrwt>
<rscale>  2 0.18469836E+03</rscale>
<asrwt>0</asrwt>
<pdfrwt beam="1">  1       21 0.94503751E-01 0.18469836E+03</pdfrwt>
<pdfrwt beam="2">  1       21 0.23344080E-01 0.18469836E+03</pdfrwt>
<totfact> 0.16264532E+04</totfact>
</mgrwt>
</event>
<event>
 4    1  0.1119790E+000  0.1934425E+03  0.7546771E-02  0.1155393E+00
         21   -1    0    0  501  502  0.00000000000E+00  0.00000000000E+00  0.15823417269E+03  0.15823417269E+03  0.00000000000E+00 0.  1.
         21   -1    0    0  502  503 -0.00000000000E+00 -0.00000000000E+00 -0.25694104053E+03  0.25694104053E+03  0.00000000000E+00 0.  1.
          6    1    1    2  501    0  0.88148038933E+02 -0.81185402135E+01 -0.10792635321E+03  0.22151317157E+03  0.17200000000E+03 0.  1.
         -6    1    1    2    0  503 -0.88148038933E+02  0.81185402135E+01  0.92194853731E+01  0.19366204164E+03  0.17200000000E+03 0.  1.
<mgrwt>
<rscale>  2 0.19344247E+03</rscale>
<asrwt>0</asrwt>
<pdfrwt beam="1">  1       21 0.39558544E-01 0.19344247E+03</pdfrwt>
<pdfrwt beam="2">  1       21 0.64235260E-01 0.19344247E+03</pdfrwt>
<totfact> 0.13769545E+04</totfact>
</mgrwt>
</event>
<event>
 4    1  0.1119790E+000  0.1986408E+03  0.7546771E-02  0.1150891E+00
         21   -1    0    0  501  502  0.00000000000E+00  0.00000000000E+00  0.38431915340E+03  0.38431915340E+03  0.00000000000E+00 0.  1.
         21   -1    0    0  502  503 -0.00000000000E+00 -0.00000000000E+00 -0.20274030381E+03  0.20274030381E+03  0.00000000000E+00 0. -1.
          6    1    1    2  501    0 -0.96614128228E+02  0.23235420143E+02 -0.11543207374E+03  0.22974494155E+03  0.17200000000E+03 0. -1.
         -6    1    1    2    0  503  0.96614128228E+02 -0.23235420143E+02  0.29701092332E+03  0.35731451565E+03  0.17200000000E+03 0.  1.
<mgrwt>
<rscale>  2 0.19864082E+03</rscale>
<asrwt>0</asrwt>
<pdfrwt beam="1">  1       21 0.96079787E-01 0.19864082E+03</pdfrwt>
<pdfrwt beam="2">  1       21 0.50685077E-01 0.19864082E+03</pdfrwt>
<totfact> 0.33244232E+03</totfact>
</mgrwt>
</event>
<event>
 4    1  0.1119790E+000  0.2176911E+03  0.7546771E-02  0.1135616E+00
         21   -1    0    0  501  502  0.00000000000E+00  0.00000000000E+00  0.13074042645E+03  0.13074042645E+03  0.00000000000E+00 0.  1.
         21   -1    0    0  502  503 -0.00000000000E+00 -0.00000000000E+00 -0.52974105126E+03  0.52974105126E+03  0.00000000000E+00 0. -1.
          6    1    1    2  501    0 -0.75520454215E+02  0.11000941161E+03 -0.13929380759E+02  0.21813628147E+03  0.17200000000E+03 0.  1.
         -6    1    1    2    0  503  0.75520454215E+02 -0.11000941161E+03 -0.38507124405E+03  0.44234519625E+03  0.17200000000E+03 0. -1.
<mgrwt>
<rscale>  2 0.21769109E+03</rscale>
<asrwt>0</asrwt>
<pdfrwt beam="1">  1       21 0.32685107E-01 0.21769109E+03</pdfrwt>
<pdfrwt beam="2">  1       21 0.13243526E+00 0.21769109E+03</pdfrwt>
<totfact> 0.36391644E+03</totfact>
</mgrwt>
</event>
<event>
 4    1  0.1119790E+000  0.1737721E+03  0.7546771E-02  0.1173970E+00
         21   -1    0    0  501  502  0.00000000000E+00  0.00000000000E+00  0.56178423592E+03  0.56178423592E+03  0.00000000000E+00 0.  1.
         21   -1    0    0  502  503 -0.00000000000E+00 -0.00000000000E+00 -0.88115286499E+02  0.88115286499E+02  0.00000000000E+00 0.  1.
          6    1    1    2  501    0 -0.12848159256E+02  0.21158073957E+02  0.33906852005E+02  0.17704918498E+03  0.17200000000E+03 0. -1.
         -6    1    1    2    0  503  0.12848159256E+02 -0.21158073957E+02  0.43976209742E+03  0.47285033744E+03  0.17200000000E+03 0. -1.
<mgrwt>
<rscale>  2 0.17377209E+03</rscale>
<asrwt>0</asrwt>
<pdfrwt beam="1">  1       21 0.14044605E+00 0.17377209E+03</pdfrwt>
<pdfrwt beam="2">  1       21 0.22028823E-01 0.17377209E+03</pdfrwt>
<totfact> 0.69396529E+03</totfact>
</mgrwt>
</event>
<event>
 4    1  0.1119790E+000  0.1945869E+03  0.7546771E-02  0.1154388E+00
         21   -1    0    0  503  502  0.00000000000E+00  0.00000000000E+00  0.10813951840E+03  0.10813951840E+03  0.00000000000E+00 0.  1.
         21   -1    0    0  501  503 -0.00000000000E+00 -0.00000000000E+00 -0.43706060457E+03  0.43706060457E+03  0.00000000000E+00 0.  1.
          6    1    1    2  501    0  0.90623255775E+02 -0.82149346274E+01 -0.28602719033E+03  0.34594163272E+03  0.17200000000E+03 0.  1.
         -6    1    1    2    0  502 -0.90623255775E+02  0.82149346274E+01 -0.42893895836E+02  0.19925849025E+03  0.17200000000E+03 0.  1.
<mgrwt>
<rscale>  2 0.19458689E+03</rscale>
<asrwt>0</asrwt>
<pdfrwt beam="1">  1       21 0.27034880E-01 0.19458689E+03</pdfrwt>
<pdfrwt beam="2">  1       21 0.10926515E+00 0.19458689E+03</pdfrwt>
<totfact> 0.86416745E+03</totfact>
</mgrwt>
</event>
<event>
 4    1  0.1119790E+000  0.1994010E+03  0.7546771E-02  0.1150245E+00
         21   -1    0    0  503  502  0.00000000000E+00  0.00000000000E+00  0.13354014268E+04  0.13354014268E+04  0.00000000000E+00 0.  1.
         21   -1    0    0  501  503 -0.00000000000E+00 -0.00000000000E+00 -0.37294871560E+02  0.37294871560E+02  0.00000000000E+00 0. -1.
          6    1    1    2  501    0 -0.99867671742E+02 -0.14255550615E+02  0.34084625879E+03  0.39488852188E+03  0.17200000000E+03 0. -1.
         -6    1    1    2    0  502  0.99867671742E+02  0.14255550615E+02  0.95726029641E+03  0.97780777644E+03  0.17200000000E+03 0.  1.
<mgrwt>
<rscale>  2 0.19940103E+03</rscale>
<asrwt>0</asrwt>
<pdfrwt beam="1">  1       21 0.33385020E+00 0.19940103E+03</pdfrwt>
<pdfrwt beam="2">  1       21 0.93237224E-02 0.19940103E+03</pdfrwt>
<totfact> 0.19787950E+03</totfact>
</mgrwt>
</event>
<event>
 4    1  0.1119790E+000  0.1863346E+03  0.7546771E-02  0.1161809E+00
         21   -1    0    0  501  502  0.00000000000E+00  0.00000000000E+00  0.40648792047E+02  0.40648792047E+02  0.00000000000E+00 0.  1.
         21   -1    0    0  502  503 -0.00000000000E+00 -0.00000000000E+00 -0.11343697628E+04  0.11343697628E+04  0.00000000000E+00 0. -1.
          6    1    1    2  501    0 -0.68143265964E+02  0.22205534204E+02 -0.25486328208E+03  0.31571487611E+03  0.17200000000E+03 0.  1.
         -6    1    1    2    0  503  0.68143265964E+02 -0.22205534204E+02 -0.83885768871E+03  0.85930367878E+03  0.17200000000E+03 0. -1.
<mgrwt>
<rscale>  2 0.18633462E+03</rscale>
<asrwt>0</asrwt>
<pdfrwt beam="1">  1       21 0.10162198E-01 0.18633462E+03</pdfrwt>
<pdfrwt beam="2">  1       21 0.28359245E+00 0.18633462E+03</pdfrwt>
<totfact> 0.33716660E+03</totfact>
</mgrwt>
</event>
<event>
 4    1  0.1119790E+000  0.2395476E+03  0.7546771E-02  0.1120095E+00
         21   -1    0    0  501  502  0.00000000000E+00  0.00000000000E+00  0.40285613827E+02  0.40285613827E+02  0.00000000000E+00 0.  1.
         21   -1    0    0  502  503 -0.00000000000E+00 -0.00000000000E+00 -0.16445075121E+04  0.16445075121E+04  0.00000000000E+00 0. -1.
          6    1    1    2  501    0  0.50322269101E+02 -0.15895513079E+03 -0.49392679313E+03  0.54895058188E+03  0.17200000000E+03 0.  1.
         -6    1    1    2    0  503 -0.50322269101E+02  0.15895513079E+03 -0.11102951052E+04  0.11358425441E+04  0.17200000000E+03 0. -1.
<mgrwt>
<rscale>  2 0.23954762E+03</rscale>
<asrwt>0</asrwt>
<pdfrwt beam="1">  1       21 0.10071404E-01 0.23954762E+03</pdfrwt>
<pdfrwt beam="2">  1       21 0.41112686E+00 0.23954762E+03</pdfrwt>
<totfact> 0.55521228E+02</totfact>
</mgrwt>
</event>
<event>
 4    1  0.1119790E+000  0.2401526E+03  0.7546771E-02  0.1119691E+00
         21   -1    0    0  503  502  0.00000000000E+00  0.00000000000E+00  0.44710047917E+03  0.44710047917E+03  0.00000000000E+00 0.  1.
         21   -1    0    0  501  503 -0.00000000000E+00 -0.00000000000E+00 -0.12899492221E+03  0.12899492221E+03  0.00000000000E+00 0.  1.
          6    1    1    2  501    0  0.15702317823E+03 -0.58591823872E+02  0.15982191712E+03  0.28847239992E+03  0.17200000000E+03 0.  1.
         -6    1    1    2    0  502 -0.15702317823E+03  0.58591823872E+02  0.15828363984E+03  0.28762300145E+03  0.17200000000E+03 0.  1.
<mgrwt>
<rscale>  2 0.24015262E+03</rscale>
<asrwt>0</asrwt>
<pdfrwt beam="1">  1       21 0.11177512E+00 0.24015262E+03</pdfrwt>
<pdfrwt beam="2">  1       21 0.32248732E-01 0.24015262E+03</pdfrwt>
<totfact> 0.56149407E+03</totfact>
</mgrwt>
</event>
<event>
 4    1  0.1119790E+000  0.2495724E+03  0.7546771E-02  0.1113575E+00
         21   -1    0    0  503  502  0.00000000000E+00  0.00000000000E+00  0.28326155638E+03  0.28326155638E+03  0.00000000000E+00 0. -1.
         21   -1    0    0  501  503 -0.00000000000E+00 -0.00000000000E+00 -0.45264397178E+03  0.45264397178E+03  0.00000000000E+00 0. -1.
          6    1    1    2  501    0  0.13041432854E+03  0.12527764942E+03 -0.34854433138E+03  0.42868349335E+03  0.17200000000E+03 0. -1.
         -6    1    1    2    0  502 -0.13041432854E+03 -0.12527764942E+03  0.17916191598E+03  0.30722203481E+03  0.17200000000E+03 0. -1.
<mgrwt>
<rscale>  2 0.24957241E+03</rscale>
<asrwt>0</asrwt>
<pdfrwt beam="1">  1       21 0.70815390E-01 0.24957241E+03</pdfrwt>
<pdfrwt beam="2">  1       21 0.11316099E+00 0.24957241E+03</pdfrwt>
<totfact> 0.10463260E+03</totfact>
</mgrwt>
</event>
<event>
 4    1  0.1119790E+000  0.2638342E+03  0.7546771E-02  0.1104861E+00
         21   -1    0    0  503  502  0.00000000000E+00  0.00000000000E+00  0.10953380272E+04  0.10953380272E+04  0.00000000000E+00 0.  1.
         21   -1    0    0  501  503 -0.00000000000E+00 -0.00000000000E+00 -0.66743495758E+02  0.66743495758E+02  0.00000000000E+00 0.  1.
          6    1    1    2  501    0  0.33068107682E+02 -0.19730937244E+03  0.38719584393E+03  0.46853933640E+03  0.17200000000E+03 0.  1.
         -6    1    1    2    0  502 -0.33068107682E+02  0.19730937244E+03  0.64139868751E+03  0.69354218656E+03  0.17200000000E+03 0.  1.
<mgrwt>
<rscale>  2 0.26383421E+03</rscale>
<asrwt>0</asrwt>
<pdfrwt beam="1">  1       21 0.27383445E+00 0.26383421E+03</pdfrwt>
<pdfrwt beam="2">  1       21 0.16685877E-01 0.26383421E+03</pdfrwt>
<totfact> 0.14456275E+03</totfact>
</mgrwt>
</event>
<event>
 4    1  0.1119790E+000  0.1898469E+03  0.7546771E-02  0.1158600E+00
         21   -1    0    0  501  502  0.00000000000E+00  0.00000000000E+00  0.23145279478E+03  0.23145279478E+03  0.00000000000E+00 0.  1.
         21   -1    0    0  502  503 -0.00000000000E+00 -0.00000000000E+00 -0.21419084866E+03  0.21419084866E+03  0.00000000000E+00 0.  1.
          6    1    1    2  501    0  0.62998931677E+02  0.49889628624E+02  0.12505075546E+03  0.22733132621E+03  0.17200000000E+03 0.  1.
         -6    1    1    2    0  503 -0.62998931677E+02 -0.49889628624E+02 -0.10778880933E+03  0.21831231723E+03  0.17200000000E+03 0.  1.
<mgrwt>
<rscale>  2 0.18984689E+03</rscale>
<asrwt>0</asrwt>
<pdfrwt beam="1">  1       21 0.57863199E-01 0.18984689E+03</pdfrwt>
<pdfrwt beam="2">  1       21 0.53547712E-01 0.18984689E+03</pdfrwt>
<totfact> 0.92608653E+03</totfact>
</mgrwt>
</event>
<event>
 4    1  0.1119790E+000  0.2531767E+03  0.7546771E-02  0.1111314E+00
         21   -1    0    0  503  502  0.00000000000E+00  0.00000000000E+00  0.35034482025E+03  0.35034482025E+03  0.00000000000E+00 0. -1.
         21   -1    0    0  501  503 -0.00000000000E+00 -0.00000000000E+00 -0.26337133568E+03  0.26337133568E+03  0.00000000000E+00 0. -1.
          6    1    1    2  501    0 -0.47509336248E+02 -0.17960323323E+03 -0.12607067805E+03  0.28282905487E+03  0.17200000000E+03 0. -1.
         -6    1    1    2    0  502  0.47509336248E+02  0.17960323323E+03  0.21304416263E+03  0.33088710106E+03  0.17200000000E+03 0. -1.
<mgrwt>
<rscale>  2 0.25317673E+03</rscale>
<asrwt>0</asrwt>
<pdfrwt beam="1">  1       21 0.87586205E-01 0.25317673E+03</pdfrwt>
<pdfrwt beam="2">  1       21 0.65842834E-01 0.25317673E+03</pdfrwt>
<totfact> 0.22596326E+03</totfact>
</mgrwt>
</event>
<event>
 4    1  0.1119790E+000  0.1864810E+03  0.7546771E-02  0.1161674E+00
         21   -1    0    0  501  502  0.00000000000E+00  0.00000000000E+00  0.79354179066E+03  0.79354179066E+03  0.00000000000E+00 0. -1.
         21   -1    0    0  502  503 -0.00000000000E+00 -0.00000000000E+00 -0.54122246131E+02  0.54122246131E+02  0.00000000000E+00 0. -1.
          6    1    1    2  501    0 -0.64155845916E+02  0.32789940090E+02  0.55460030054E+03  0.58511250721E+03  0.17200000000E+03 0. -1.
         -6    1    1    2    0  503  0.64155845916E+02 -0.32789940090E+02  0.18481924399E+03  0.26255152958E+03  0.17200000000E+03 0. -1.
<mgrwt>
<rscale>  2 0.18648097E+03</rscale>
<asrwt>0</asrwt>
<pdfrwt beam="1">  1       21 0.19838541E+00 0.18648097E+03</pdfrwt>
<pdfrwt beam="2">  1       21 0.13530564E-01 0.18648097E+03</pdfrwt>
<totfact> 0.65399451E+03</totfact>
</mgrwt>
</event>
<event>
 4    1  0.1119790E+000  0.1910936E+03  0.7546771E-02  0.1157479E+00
         21   -1    0    0  501  502  0.00000000000E+00  0.00000000000E+00  0.20247619847E+04  0.20247619847E+04  0.00000000000E+00 0.  1.
         21   -1    0    0  502  503 -0.00000000000E+00 -0.00000000000E+00 -0.13304003588E+03  0.13304003588E+03  0.00000000000E+00 0.  1.
          6    1    1    2  501    0 -0.66336900217E+01  0.82998515906E+02  0.19489712677E+04  0.19583170738E+04  0.17200000000E+03 0.  1.
         -6    1    1    2    0  503  0.66336900217E+01 -0.82998515906E+02 -0.57249318811E+02  0.19948494678E+03  0.17200000000E+03 0.  1.
<mgrwt>
<rscale>  2 0.19109359E+03</rscale>
<asrwt>0</asrwt>
<pdfrwt beam="1">  1       21 0.50619040E+00 0.19109359E+03</pdfrwt>
<pdfrwt beam="2">  1       21 0.33260015E-01 0.19109359E+03</pdfrwt>
<totfact> 0.14948070E+01</totfact>
</mgrwt>
</event>
<event>
 4    1  0.1119790E+000  0.2559146E+03  0.7546771E-02  0.1109623E+00
         21   -1    0    0  503  502  0.00000000000E+00  0.00000000000E+00  0.47827053072E+02  0.47827053072E+02  0.00000000000E+00 0.  1.
         21   -1    0    0  501  503 -0.00000000000E+00 -0.00000000000E+00 -0.13792255640E+04  0.13792255640E+04  0.00000000000E+00 0. -1.
          6    1    1    2  501    0 -0.11443564450E+03 -0.15103891096E+03 -0.72605769197E+03  0.76983897110E+03  0.17200000000E+03 0.  1.
         -6    1    1    2    0  502  0.11443564450E+03  0.15103891096E+03 -0.60534081899E+03  0.65721364600E+03  0.17200000000E+03 0. -1.
<mgrwt>
<rscale>  2 0.25591457E+03</rscale>
<asrwt>0</asrwt>
<pdfrwt beam="1">  1       21 0.11956764E-01 0.25591457E+03</pdfrwt>
<pdfrwt beam="2">  1       21 0.34480638E+00 0.25591457E+03</pdfrwt>
<totfact> 0.10238822E+03</totfact>
</mgrwt>
</event>
<event>
 4    1  0.1119790E+000  0.1804145E+03  0.7546771E-02  0.1167403E+00
         21   -1    0    0  501  502  0.00000000000E+00  0.00000000000E+00  0.20543892597E+03  0.20543892597E+03  0.00000000000E+00 0.  1.
         21   -1    0    0  502  503 -0.00000000000E+00 -0.00000000000E+00 -0.16928457772E+03  0.16928457772E+03  0.00000000000E+00 0.  1.
          6    1    1    2  501    0 -0.22874542370E+02  0.49417972511E+02  0.65502892259E+02  0.19193751481E+03  0.17200000000E+03 0.  1.
         -6    1    1    2    0  503  0.22874542370E+02 -0.49417972511E+02 -0.29348544018E+02  0.18278598888E+03  0.17200000000E+03 0.  1.
<mgrwt>
<rscale>  2 0.18041447E+03</rscale>
<asrwt>0</asrwt>
<pdfrwt beam="1">  1       21 0.51359731E-01 0.18041447E+03</pdfrwt>
<pdfrwt beam="2">  1       21 0.42321145E-01 0.18041447E+03</pdfrwt>
<totfact> 0.19497235E+04</totfact>
</mgrwt>
</event>
<event>
 4    1  0.1119790E+000  0.1746362E+03  0.7546771E-02  0.1173097E+00
         21   -1    0    0  503  502  0.00000000000E+00  0.00000000000E+00  0.21938405234E+03  0.21938405234E+03  0.00000000000E+00 0.  1.
         21   -1    0    0  501  503 -0.00000000000E+00 -0.00000000000E+00 -0.88879973590E+03  0.88879973590E+03  0.00000000000E+00 0.  1.
          6    1    1    2  501    0  0.16486909437E+02  0.25337319816E+02 -0.84362602981E+03  0.86151185490E+03  0.17200000000E+03 0.  1.
         -6    1    1    2    0  502 -0.16486909437E+02 -0.25337319816E+02  0.17421034624E+03  0.24667193334E+03  0.17200000000E+03 0.  1.
<mgrwt>
<rscale>  2 0.17463619E+03</rscale>
<asrwt>0</asrwt>
<pdfrwt beam="1">  1       21 0.54846014E-01 0.17463619E+03</pdfrwt>
<pdfrwt beam="2">  1       21 0.22219993E+00 0.17463619E+03</pdfrwt>
<totfact> 0.31377127E+02</totfact>
</mgrwt>
</event>
<event>
 4    1  0.1119790E+000  0.2048315E+03  0.7546771E-02  0.1145726E+00
         21   -1    0    0  503  502  0.00000000000E+00  0.00000000000E+00  0.23930755971E+03  0.23930755971E+03  0.00000000000E+00 0. -1.
         21   -1    0    0  501  503 -0.00000000000E+00 -0.00000000000E+00 -0.17532506520E+03  0.17532506520E+03  0.00000000000E+00 0.  1.
          6    1    1    2  501    0 -0.96165800181E+02 -0.55893409139E+02  0.32825373166E+02  0.20744502750E+03  0.17200000000E+03 0.  1.
         -6    1    1    2    0  502  0.96165800181E+02  0.55893409139E+02  0.31157121350E+02  0.20718759741E+03  0.17200000000E+03 0. -1.
<mgrwt>
<rscale>  2 0.20483148E+03</rscale>
<asrwt>0</asrwt>
<pdfrwt beam="1">  1       21 0.59826890E-01 0.20483148E+03</pdfrwt>
<pdfrwt beam="2">  1       21 0.43831267E-01 0.20483148E+03</pdfrwt>
<totfact> 0.12936400E+04</totfact>
</mgrwt>
</event>
<event>
 4    1  0.1119790E+000  0.1953925E+03  0.7546771E-02  0.1153686E+00
         21   -1    0    0  501  502  0.00000000000E+00  0.00000000000E+00  0.16177622537E+03  0.16177622537E+03  0.00000000000E+00 0. -1.
         21   -1    0    0  502  503 -0.00000000000E+00 -0.00000000000E+00 -0.31811791428E+03  0.31811791428E+03  0.00000000000E+00 0. -1.
          6    1    1    2  501    0 -0.17209944149E+02 -0.91093672023E+02  0.43743797991E+02  0.20022926640E+03  0.17200000000E+03 0. -1.
         -6    1    1    2    0  503  0.17209944149E+02  0.91093672023E+02 -0.20008548690E+03  0.27966487325E+03  0.17200000000E+03 0. -1.
<mgrwt>
<rscale>  2 0.19539253E+03</rscale>
<asrwt>0</asrwt>
<pdfrwt beam="1">  1       21 0.40444057E-01 0.19539253E+03</pdfrwt>
<pdfrwt beam="2">  1       21 0.79529478E-01 0.19539253E+03</pdfrwt>
<totfact> 0.81943094E+03</totfact>
</mgrwt>
</event>
<event>
 4    1  0.1119790E+000  0.2046235E+03  0.7546771E-02  0.1145896E+00
         21   -1    0    0  503  502  0.00000000000E+00  0.00000000000E+00  0.37703330167E+03  0.37703330167E+03  0.00000000000E+00 0. -1.
         21   -1    0    0  501  503 -0.00000000000E+00 -0.00000000000E+00 -0.11152794200E+03  0.11152794200E+03  0.00000000000E+00 0.  1.
          6    1    1    2  501    0 -0.22876773372E+02  0.10845927957E+03  0.11681529754E+03  0.23561955739E+03  0.17200000000E+03 0.  1.
         -6    1    1    2    0  502  0.22876773372E+02 -0.10845927957E+03  0.14869006212E+03  0.25294168628E+03  0.17200000000E+03 0.  1.
<mgrwt>
<rscale>  2 0.20462346E+03</rscale>
<asrwt>0</asrwt>
<pdfrwt beam="1">  1       21 0.94258322E-01 0.20462346E+03</pdfrwt>
<pdfrwt beam="2">  1       21 0.27881986E-01 0.20462346E+03</pdfrwt>
<totfact> 0.11494923E+04</totfact>
</mgrwt>
</event>
<event>
 4    1  0.1119790E+000  0.2232501E+03  0.7546771E-02  0.1131483E+00
         21   -1    0    0  501  502  0.00000000000E+00  0.00000000000E+00  0.15470706440E+03  0.15470706440E+03  0.00000000000E+00 0.  1.
         21   -1    0    0  502  503 -0.00000000000E+00 -0.00000000000E+00 -0.32308241977E+03  0.32308241977E+03  0.00000000000E+00 0. -1.
          6    1    1    2  501    0 -0.97257017289E+02  0.10391180035E+03 -0.71430109739E+02  0.23439891263E+03  0.17200000000E+03 0.  1.
         -6    1    1    2    0  503  0.97257017289E+02 -0.10391180035E+03 -0.96945245626E+02  0.24339057154E+03  0.17200000000E+03 0.  1.
<mgrwt>
<rscale>  2 0.22325006E+03</rscale>
<asrwt>0</asrwt>
<pdfrwt beam="1">  1       21 0.38676766E-01 0.22325006E+03</pdfrwt>
<pdfrwt beam="2">  1       21 0.80770604E-01 0.22325006E+03</pdfrwt>
<totfact> 0.84950955E+03</totfact>
</mgrwt>
</event>
<event>
 4    1  0.1119790E+000  0.1999369E+03  0.7546771E-02  0.1149792E+00
         21   -1    0    0  501  502  0.00000000000E+00  0.00000000000E+00  0.12780666447E+03  0.12780666447E+03  0.00000000000E+00 0. -1.
         21   -1    0    0  502  503 -0.00000000000E+00 -0.00000000000E+00 -0.31347483766E+03  0.31347483766E+03  0.00000000000E+00 0. -1.
          6    1    1    2  501    0 -0.83274196909E+02  0.58789350930E+02 -0.10325632951E+03  0.22502588571E+03  0.17200000000E+03 0. -1.
         -6    1    1    2    0  503  0.83274196909E+02 -0.58789350930E+02 -0.82411843684E+02  0.21625561642E+03  0.17200000000E+03 0. -1.
<mgrwt>
<rscale>  2 0.19993694E+03</rscale>
<asrwt>0</asrwt>
<pdfrwt beam="1">  1       21 0.31951666E-01 0.19993694E+03</pdfrwt>
<pdfrwt beam="2">  1       21 0.78368709E-01 0.19993694E+03</pdfrwt>
<totfact> 0.13507519E+04</totfact>
</mgrwt>
</event>
<event>
 4    1  0.1119790E+000  0.2301650E+03  0.7546771E-02  0.1126524E+00
         21   -1    0    0  503  502  0.00000000000E+00  0.00000000000E+00  0.14748158948E+04  0.14748158948E+04  0.00000000000E+00 0.  1.
         21   -1    0    0  501  503 -0.00000000000E+00 -0.00000000000E+00 -0.38300499127E+02  0.38300499127E+02  0.00000000000E+00 0. -1.
          6    1    1    2  501    0 -0.13273748135E+03  0.75978329588E+02  0.52965861092E+03  0.57750687411E+03  0.17200000000E+03 0.  1.
         -6    1    1    2    0  502  0.13273748135E+03 -0.75978329588E+02  0.90685678474E+03  0.93560951980E+03  0.17200000000E+03 0. -1.
<mgrwt>
<rscale>  2 0.23016504E+03</rscale>
<asrwt>0</asrwt>
<pdfrwt beam="1">  1       21 0.36870378E+00 0.23016504E+03</pdfrwt>
<pdfrwt beam="2">  1       21 0.95751297E-02 0.23016504E+03</pdfrwt>
<totfact> 0.11261747E+03</totfact>
</mgrwt>
</event>
<event>
 4    1  0.1119790E+000  0.1984193E+03  0.7546771E-02  0.1151080E+00
         21   -1    0    0  503  502  0.00000000000E+00  0.00000000000E+00  0.29050164663E+02  0.29050164663E+02  0.00000000000E+00 0.  1.
         21   -1    0    0  501  503 -0.00000000000E+00 -0.00000000000E+00 -0.15554154484E+04  0.15554154484E+04  0.00000000000E+00 0. -1.
          6    1    1    2  501    0 -0.15918850693E+01  0.98912409454E+02 -0.10473836083E+04  0.10660124867E+04  0.17200000000E+03 0.  1.
         -6    1    1    2    0  502  0.15918850693E+01 -0.98912409454E+02 -0.47898167544E+03  0.51845312637E+03  0.17200000000E+03 0. -1.
<mgrwt>
<rscale>  2 0.19841925E+03</rscale>
<asrwt>0</asrwt>
<pdfrwt beam="1">  1       21 0.72625411E-02 0.19841925E+03</pdfrwt>
<pdfrwt beam="2">  1       21 0.38885387E+00 0.19841925E+03</pdfrwt>
<totfact> 0.14369356E+03</totfact>
</mgrwt>
</event>
<event>
 4    1  0.1119790E+000  0.1800348E+03  0.7546771E-02  0.1167769E+00
         21   -1    0    0  501  502  0.00000000000E+00  0.00000000000E+00  0.18810539682E+03  0.18810539682E+03  0.00000000000E+00 0.  1.
         21   -1    0    0  502  503 -0.00000000000E+00 -0.00000000000E+00 -0.19362561656E+03  0.19362561656E+03  0.00000000000E+00 0.  1.
          6    1    1    2  501    0 -0.42567871656E+02  0.31882750929E+02  0.60567045274E+02  0.18994973145E+03  0.17200000000E+03 0.  1.
         -6    1    1    2    0  503  0.42567871656E+02 -0.31882750929E+02 -0.66087265009E+02  0.19178128193E+03  0.17200000000E+03 0.  1.
<mgrwt>
<rscale>  2 0.18003481E+03</rscale>
<asrwt>0</asrwt>
<pdfrwt beam="1">  1       21 0.47026349E-01 0.18003481E+03</pdfrwt>
<pdfrwt beam="2">  1       21 0.48406404E-01 0.18003481E+03</pdfrwt>
<totfact> 0.17776248E+04</totfact>
</mgrwt>
</event>
<event>
 4    1  0.1119790E+000  0.1770044E+03  0.7546771E-02  0.1170734E+00
         21   -1    0    0  503  502  0.00000000000E+00  0.00000000000E+00  0.90235948671E+03  0.90235948671E+03  0.00000000000E+00 0.  1.
         21   -1    0    0  501  503 -0.00000000000E+00 -0.00000000000E+00 -0.90682360328E+02  0.90682360328E+02  0.00000000000E+00 0.  1.
          6    1    1    2  501    0  0.73996162401E+01 -0.41131554946E+02  0.15787544944E+02  0.17770707838E+03  0.17200000000E+03 0.  1.
         -6    1    1    2    0  502 -0.73996162401E+01  0.41131554946E+02  0.79588958144E+03  0.81533476865E+03  0.17200000000E+03 0.  1.
<mgrwt>
<rscale>  2 0.17700440E+03</rscale>
<asrwt>0</asrwt>
<pdfrwt beam="1">  1       21 0.22558984E+00 0.17700440E+03</pdfrwt>
<pdfrwt beam="2">  1       21 0.22670593E-01 0.17700440E+03</pdfrwt>
<totfact> 0.17271613E+03</totfact>
</mgrwt>
</event>
<event>
 4    1  0.1119790E+000  0.1865029E+03  0.7546771E-02  0.1161654E+00
         21   -1    0    0  501  502  0.00000000000E+00  0.00000000000E+00  0.18742011510E+03  0.18742011510E+03  0.00000000000E+00 0. -1.
         21   -1    0    0  502  503 -0.00000000000E+00 -0.00000000000E+00 -0.31835820724E+03  0.31835820724E+03  0.00000000000E+00 0. -1.
          6    1    1    2  501    0 -0.43120773572E+02 -0.57792082163E+02  0.97843294496E+02  0.21061015206E+03  0.17200000000E+03 0. -1.
         -6    1    1    2    0  503  0.43120773572E+02  0.57792082163E+02 -0.22878138663E+03  0.29516817028E+03  0.17200000000E+03 0. -1.
<mgrwt>
<rscale>  2 0.18650288E+03</rscale>
<asrwt>0</asrwt>
<pdfrwt beam="1">  1       21 0.46855029E-01 0.18650288E+03</pdfrwt>
<pdfrwt beam="2">  1       21 0.79589551E-01 0.18650288E+03</pdfrwt>
<totfact> 0.60955664E+03</totfact>
</mgrwt>
</event>
<event>
 4    1  0.1119790E+000  0.1906464E+03  0.7546771E-02  0.1157880E+00
         21   -1    0    0  501  502  0.00000000000E+00  0.00000000000E+00  0.27773399247E+03  0.27773399247E+03  0.00000000000E+00 0. -1.
         21   -1    0    0  502  503 -0.00000000000E+00 -0.00000000000E+00 -0.13095516703E+03  0.13095516703E+03  0.00000000000E+00 0.  1.
          6    1    1    2  501    0 -0.74889925356E+02  0.33964098530E+02  0.68070636233E+02  0.20243436572E+03  0.17200000000E+03 0. -1.
         -6    1    1    2    0  503  0.74889925356E+02 -0.33964098530E+02  0.78708189208E+02  0.20625479378E+03  0.17200000000E+03 0.  1.
<mgrwt>
<rscale>  2 0.19064643E+03</rscale>
<asrwt>0</asrwt>
<pdfrwt beam="1">  1       21 0.69433497E-01 0.19064643E+03</pdfrwt>
<pdfrwt beam="2">  1       21 0.32738792E-01 0.19064643E+03</pdfrwt>
<totfact> 0.16961387E+04</totfact>
</mgrwt>
</event>
<event>
 4    1  0.1119790E+000  0.1792274E+03  0.7546771E-02  0.1168553E+00
         21   -1    0    0  501  502  0.00000000000E+00  0.00000000000E+00  0.21062552588E+03  0.21062552588E+03  0.00000000000E+00 0.  1.
         21   -1    0    0  502  503 -0.00000000000E+00 -0.00000000000E+00 -0.18212202406E+03  0.18212202406E+03  0.00000000000E+00 0.  1.
          6    1    1    2  501    0 -0.23773530875E+02 -0.44421710007E+02  0.93435733525E+02  0.20212052194E+03  0.17200000000E+03 0.  1.
         -6    1    1    2    0  503  0.23773530875E+02  0.44421710007E+02 -0.64932231708E+02  0.19062702800E+03  0.17200000000E+03 0.  1.
<mgrwt>
<rscale>  2 0.17922742E+03</rscale>
<asrwt>0</asrwt>
<pdfrwt beam="1">  1       21 0.52656381E-01 0.17922742E+03</pdfrwt>
<pdfrwt beam="2">  1       21 0.45530506E-01 0.17922742E+03</pdfrwt>
<totfact> 0.15950522E+04</totfact>
</mgrwt>
</event>
<event>
 4    1  0.1119790E+000  0.2632166E+03  0.7546771E-02  0.1105226E+00
         21   -1    0    0  503  502  0.00000000000E+00  0.00000000000E+00  0.97223267773E+02  0.97223267773E+02  0.00000000000E+00 0.  1.
         21   -1    0    0  501  503 -0.00000000000E+00 -0.00000000000E+00 -0.72026596118E+03  0.72026596118E+03  0.00000000000E+00 0.  1.
          6    1    1    2  501    0  0.33504326857E+02  0.19640886678E+03 -0.35364230313E+03  0.44084675505E+03  0.17200000000E+03 0.  1.
         -6    1    1    2    0  502 -0.33504326857E+02 -0.19640886678E+03 -0.26940039027E+03  0.37664247390E+03  0.17200000000E+03 0.  1.
<mgrwt>
<rscale>  2 0.26321661E+03</rscale>
<asrwt>0</asrwt>
<pdfrwt beam="1">  1       21 0.24305818E-01 0.26321661E+03</pdfrwt>
<pdfrwt beam="2">  1       21 0.18006649E+00 0.26321661E+03</pdfrwt>
<totfact> 0.27385342E+03</totfact>
</mgrwt>
</event>
<event>
 4    1  0.1119790E+000  0.2023745E+03  0.7546771E-02  0.1147751E+00
         21   -1    0    0  501  502  0.00000000000E+00  0.00000000000E+00  0.12111319154E+03  0.12111319154E+03  0.00000000000E+00 0.  1.
         21   -1    0    0  502  503 -0.00000000000E+00 -0.00000000000E+00 -0.40383614542E+03  0.40383614542E+03  0.00000000000E+00 0.  1.
          6    1    1    2  501    0  0.77835413160E+02  0.72890807710E+02 -0.35510587477E+02  0.20546635543E+03  0.17200000000E+03 0.  1.
         -6    1    1    2    0  503 -0.77835413160E+02 -0.72890807710E+02 -0.24721236640E+03  0.31948298154E+03  0.17200000000E+03 0.  1.
<mgrwt>
<rscale>  2 0.20237446E+03</rscale>
<asrwt>0</asrwt>
<pdfrwt beam="1">  1       21 0.30278298E-01 0.20237446E+03</pdfrwt>
<pdfrwt beam="2">  1       21 0.10095904E+00 0.20237446E+03</pdfrwt>
<totfact> 0.83400259E+03</totfact>
</mgrwt>
</event>
<event>
 4    1  0.1119790E+000  0.2251028E+03  0.7546771E-02  0.1130135E+00
         21   -1    0    0  503  502  0.00000000000E+00  0.00000000000E+00  0.30740251145E+03  0.30740251145E+03  0.00000000000E+00 0. -1.
         21   -1    0    0  501  503 -0.00000000000E+00 -0.00000000000E+00 -0.32363374371E+03  0.32363374371E+03  0.00000000000E+00 0. -1.
          6    1    1    2  501    0  0.95948433765E+02  0.10900087592E+03 -0.22912885035E+03  0.32120293112E+03  0.17200000000E+03 0. -1.
         -6    1    1    2    0  502 -0.95948433765E+02 -0.10900087592E+03  0.21289761810E+03  0.30983332404E+03  0.17200000000E+03 0. -1.
<mgrwt>
<rscale>  2 0.22510285E+03</rscale>
<asrwt>0</asrwt>
<pdfrwt beam="1">  1       21 0.76850628E-01 0.22510285E+03</pdfrwt>
<pdfrwt beam="2">  1       21 0.80908436E-01 0.22510285E+03</pdfrwt>
<totfact> 0.19627061E+03</totfact>
</mgrwt>
</event>
<event>
 4    1  0.1119790E+000  0.1856074E+03  0.7546771E-02  0.1162484E+00
         21   -1    0    0  503  502  0.00000000000E+00  0.00000000000E+00  0.29116411209E+03  0.29116411209E+03  0.00000000000E+00 0. -1.
         21   -1    0    0  501  503 -0.00000000000E+00 -0.00000000000E+00 -0.11974133760E+03  0.11974133760E+03  0.00000000000E+00 0. -1.
          6    1    1    2  501    0 -0.69740362894E+02 -0.15429286516E+01  0.63315480705E+02  0.19610953302E+03  0.17200000000E+03 0. -1.
         -6    1    1    2    0  502  0.69740362894E+02  0.15429286516E+01  0.10810729379E+03  0.21479591666E+03  0.17200000000E+03 0. -1.
<mgrwt>
<rscale>  2 0.18560738E+03</rscale>
<asrwt>0</asrwt>
<pdfrwt beam="1">  1       21 0.72791027E-01 0.18560738E+03</pdfrwt>
<pdfrwt beam="2">  1       21 0.29935335E-01 0.18560738E+03</pdfrwt>
<totfact> 0.18263239E+04</totfact>
</mgrwt>
</event>
<event>
 4    1  0.1119790E+000  0.2229607E+03  0.7546771E-02  0.1131695E+00
         21   -1    0    0  501  502  0.00000000000E+00  0.00000000000E+00  0.24891190262E+03  0.24891190262E+03  0.00000000000E+00 0. -1.
         21   -1    0    0  502  503 -0.00000000000E+00 -0.00000000000E+00 -0.41347311623E+03  0.41347311623E+03  0.00000000000E+00 0. -1.
          6    1    1    2  501    0  0.10764745772E+03 -0.92409372498E+02  0.15585156081E+03  0.27203157223E+03  0.17200000000E+03 0. -1.
         -6    1    1    2    0  503 -0.10764745772E+03  0.92409372498E+02 -0.32041277442E+03  0.39035344663E+03  0.17200000000E+03 0. -1.
<mgrwt>
<rscale>  2 0.22296069E+03</rscale>
<asrwt>0</asrwt>
<pdfrwt beam="1">  1       21 0.62227976E-01 0.22296069E+03</pdfrwt>
<pdfrwt beam="2">  1       21 0.10336828E+00 0.22296069E+03</pdfrwt>
<totfact> 0.17689949E+03</totfact>
</mgrwt>
</event>
<event>
 4    1  0.1119790E+000  0.2723241E+03  0.7546771E-02  0.1099957E+00
         21   -1    0    0  503  502  0.00000000000E+00  0.00000000000E+00  0.54164024479E+03  0.54164024479E+03  0.00000000000E+00 0. -1.
         21   -1    0    0  501  503 -0.00000000000E+00 -0.00000000000E+00 -0.13694499545E+03  0.13694499545E+03  0.00000000000E+00 0.  1.
          6    1    1    2  501    0 -0.17589723959E+02 -0.21039723353E+03  0.19759943830E+03  0.33646089265E+03  0.17200000000E+03 0.  1.
         -6    1    1    2    0  502  0.17589723959E+02  0.21039723353E+03  0.20709581104E+03  0.34212434760E+03  0.17200000000E+03 0.  1.
<mgrwt>
<rscale>  2 0.27232406E+03</rscale>
<asrwt>0</asrwt>
<pdfrwt beam="1">  1       21 0.13541006E+00 0.27232406E+03</pdfrwt>
<pdfrwt beam="2">  1       21 0.34236250E-01 0.27232406E+03</pdfrwt>
<totfact> 0.30167532E+03</totfact>
</mgrwt>
</event>
<event>
 4    1  0.1119790E+000  0.2053198E+03  0.7546771E-02  0.1145327E+00
         21   -1    0    0  501  502  0.00000000000E+00  0.00000000000E+00  0.11485775065E+04  0.11485775065E+04  0.00000000000E+00 0.  1.
         21   -1    0    0  502  503 -0.00000000000E+00 -0.00000000000E+00 -0.36746934236E+02  0.36746934236E+02  0.00000000000E+00 0.  1.
          6    1    1    2  501    0 -0.58858558661E+02  0.95435283455E+02  0.57641138537E+03  0.61188749655E+03  0.17200000000E+03 0.  1.
         -6    1    1    2    0  503  0.58858558661E+02 -0.95435283455E+02  0.53541918688E+03  0.57343694417E+03  0.17200000000E+03 0.  1.
<mgrwt>
<rscale>  2 0.20531981E+03</rscale>
<asrwt>0</asrwt>
<pdfrwt beam="1">  1       21 0.28714426E+00 0.20531981E+03</pdfrwt>
<pdfrwt beam="2">  1       21 0.91867374E-02 0.20531981E+03</pdfrwt>
<totfact> 0.37595979E+03</totfact>
</mgrwt>
</event>
<event>
 4    1  0.1119790E+000  0.1799572E+03  0.7546771E-02  0.1167844E+00
         21   -1    0    0  503  502  0.00000000000E+00  0.00000000000E+00  0.61070049537E+03  0.61070049537E+03  0.00000000000E+00 0.  1.
         21   -1    0    0  501  503 -0.00000000000E+00 -0.00000000000E+00 -0.61766708346E+02  0.61766708346E+02  0.00000000000E+00 0.  1.
          6    1    1    2  501    0 -0.42588037760E+02  0.31414079241E+02  0.40093263064E+03  0.43946735903E+03  0.17200000000E+03 0.  1.
         -6    1    1    2    0  502  0.42588037760E+02 -0.31414079241E+02  0.14800115638E+03  0.23299984469E+03  0.17200000000E+03 0.  1.
<mgrwt>
<rscale>  2 0.17995718E+03</rscale>
<asrwt>0</asrwt>
<pdfrwt beam="1">  1       21 0.15267511E+00 0.17995718E+03</pdfrwt>
<pdfrwt beam="2">  1       21 0.15441679E-01 0.17995718E+03</pdfrwt>
<totfact> 0.10717746E+04</totfact>
</mgrwt>
</event>
<event>
 4    1  0.1119790E+000  0.2088948E+03  0.7546771E-02  0.1142444E+00
         21   -1    0    0  501  502  0.00000000000E+00  0.00000000000E+00  0.29178715038E+03  0.29178715038E+03  0.00000000000E+00 0. -1.
         21   -1    0    0  502  503 -0.00000000000E+00 -0.00000000000E+00 -0.24882517281E+03  0.24882517281E+03  0.00000000000E+00 0. -1.
          6    1    1    2  501    0  0.86027488406E+02 -0.81561603286E+02  0.19221781276E+03  0.28387446422E+03  0.17200000000E+03 0.  1.
         -6    1    1    2    0  503 -0.86027488406E+02  0.81561603286E+02 -0.14925583519E+03  0.25673785897E+03  0.17200000000E+03 0.  1.
<mgrwt>
<rscale>  2 0.20889477E+03</rscale>
<asrwt>0</asrwt>
<pdfrwt beam="1">  1       21 0.72946787E-01 0.20889477E+03</pdfrwt>
<pdfrwt beam="2">  1       21 0.62206293E-01 0.20889477E+03</pdfrwt>
<totfact> 0.40023488E+03</totfact>
</mgrwt>
</event>
<event>
 4    1  0.1119790E+000  0.1842341E+03  0.7546771E-02  0.1163767E+00
         21   -1    0    0  503  502  0.00000000000E+00  0.00000000000E+00  0.22866657260E+03  0.22866657260E+03  0.00000000000E+00 0. -1.
         21   -1    0    0  501  503 -0.00000000000E+00 -0.00000000000E+00 -0.20591575413E+03  0.20591575413E+03  0.00000000000E+00 0. -1.
          6    1    1    2  501    0 -0.58547789376E+02 -0.30502066838E+02 -0.10342855998E+03  0.21128106101E+03  0.17200000000E+03 0. -1.
         -6    1    1    2    0  502  0.58547789376E+02  0.30502066838E+02  0.12617937846E+03  0.22330126571E+03  0.17200000000E+03 0. -1.
<mgrwt>
<rscale>  2 0.18423414E+03</rscale>
<asrwt>0</asrwt>
<pdfrwt beam="1">  1       21 0.57166643E-01 0.18423414E+03</pdfrwt>
<pdfrwt beam="2">  1       21 0.51478938E-01 0.18423414E+03</pdfrwt>
<totfact> 0.10362128E+04</totfact>
</mgrwt>
</event>
<event>
 4    1  0.1119790E+000  0.1779326E+03  0.7546771E-02  0.1169819E+00
         21   -1    0    0  503  502  0.00000000000E+00  0.00000000000E+00  0.38300226315E+03  0.38300226315E+03  0.00000000000E+00 0.  1.
         21   -1    0    0  501  503 -0.00000000000E+00 -0.00000000000E+00 -0.14044541253E+03  0.14044541253E+03  0.00000000000E+00 0.  1.
          6    1    1    2  501    0 -0.17987878009E+02 -0.41862438539E+02 -0.46597417202E+02  0.18393299542E+03  0.17200000000E+03 0.  1.
         -6    1    1    2    0  502  0.17987878009E+02  0.41862438539E+02  0.28915426781E+03  0.33951468026E+03  0.17200000000E+03 0.  1.
<mgrwt>
<rscale>  2 0.17793265E+03</rscale>
<asrwt>0</asrwt>
<pdfrwt beam="1">  1       21 0.95750564E-01 0.17793265E+03</pdfrwt>
<pdfrwt beam="2">  1       21 0.35111354E-01 0.17793265E+03</pdfrwt>
<totfact> 0.71913016E+03</totfact>
</mgrwt>
</event>
<event>
 4    1  0.1119790E+000  0.2161747E+03  0.7546771E-02  0.1136767E+00
         21   -1    0    0  503  502  0.00000000000E+00  0.00000000000E+00  0.25285454329E+02  0.25285454329E+02  0.00000000000E+00 0.  1.
         21   -1    0    0  501  503 -0.00000000000E+00 -0.00000000000E+00 -0.18489694715E+04  0.18489694715E+04  0.00000000000E+00 0. -1.
          6    1    1    2  501    0  0.41701069112E+02  0.12413114882E+03 -0.93147113136E+03  0.95622695518E+03  0.17200000000E+03 0.  1.
         -6    1    1    2    0  502 -0.41701069112E+02 -0.12413114882E+03 -0.89221288584E+03  0.91802797067E+03  0.17200000000E+03 0.  1.
<mgrwt>
<rscale>  2 0.21617475E+03</rscale>
<asrwt>0</asrwt>
<pdfrwt beam="1">  1       21 0.63213628E-02 0.21617475E+03</pdfrwt>
<pdfrwt beam="2">  1       21 0.46224243E+00 0.21617475E+03</pdfrwt>
<totfact> 0.59901713E+02</totfact>
</mgrwt>
</event>
<event>
 4    1  0.1119790E+000  0.2192638E+03  0.7546771E-02  0.1134433E+00
         21   -1    0    0  501  502  0.00000000000E+00  0.00000000000E+00  0.28885912906E+03  0.28885912906E+03  0.00000000000E+00 0.  1.
         21   -1    0    0  502  503 -0.00000000000E+00 -0.00000000000E+00 -0.26889034495E+03  0.26889034495E+03  0.00000000000E+00 0.  1.
          6    1    1    2  501    0 -0.41424783814E+02  0.12952458012E+03  0.18212615048E+03  0.28503782952E+03  0.17200000000E+03 0.  1.
         -6    1    1    2    0  503  0.41424783814E+02 -0.12952458012E+03 -0.16215736638E+03  0.27271164449E+03  0.17200000000E+03 0.  1.
<mgrwt>
<rscale>  2 0.21926384E+03</rscale>
<asrwt>0</asrwt>
<pdfrwt beam="1">  1       21 0.72214782E-01 0.21926384E+03</pdfrwt>
<pdfrwt beam="2">  1       21 0.67222586E-01 0.21926384E+03</pdfrwt>
<totfact> 0.34290348E+03</totfact>
</mgrwt>
</event>
<event>
 4    1  0.1119790E+000  0.1793911E+03  0.7546771E-02  0.1168394E+00
         21   -1    0    0  503  502  0.00000000000E+00  0.00000000000E+00  0.15378366033E+03  0.15378366033E+03  0.00000000000E+00 0. -1.
         21   -1    0    0  501  503 -0.00000000000E+00 -0.00000000000E+00 -0.52355640640E+03  0.52355640640E+03  0.00000000000E+00 0. -1.
          6    1    1    2  501    0  0.27716614335E+01  0.50886982180E+02 -0.44728584077E+03  0.48191886289E+03  0.17200000000E+03 0. -1.
         -6    1    1    2    0  502 -0.27716614335E+01 -0.50886982180E+02  0.77513094692E+02  0.19542120384E+03  0.17200000000E+03 0. -1.
<mgrwt>
<rscale>  2 0.17939110E+03</rscale>
<asrwt>0</asrwt>
<pdfrwt beam="1">  1       21 0.38445916E-01 0.17939110E+03</pdfrwt>
<pdfrwt beam="2">  1       21 0.13088910E+00 0.17939110E+03</pdfrwt>
<totfact> 0.28057354E+03</totfact>
</mgrwt>
</event>
<event>
 4    1  0.1119790E+000  0.2077487E+03  0.7546771E-02  0.1143361E+00
         21   -1    0    0  501  502  0.00000000000E+00  0.00000000000E+00  0.78123354177E+03  0.78123354177E+03  0.00000000000E+00 0. -1.
         21   -1    0    0  502  503 -0.00000000000E+00 -0.00000000000E+00 -0.10221642173E+03  0.10221642173E+03  0.00000000000E+00 0. -1.
          6    1    1    2  501    0 -0.11647464969E+03 -0.30262017434E+01  0.63894659840E+03  0.67187220327E+03  0.17200000000E+03 0. -1.
         -6    1    1    2    0  503  0.11647464969E+03  0.30262017434E+01  0.40070521644E+02  0.21157776023E+03  0.17200000000E+03 0. -1.
<mgrwt>
<rscale>  2 0.20774865E+03</rscale>
<asrwt>0</asrwt>
<pdfrwt beam="1">  1       21 0.19530837E+00 0.20774865E+03</pdfrwt>
<pdfrwt beam="2">  1       21 0.25554108E-01 0.20774865E+03</pdfrwt>
<totfact> 0.20597622E+03</totfact>
</mgrwt>
</event>
<event>
 4    1  0.1119790E+000  0.1831550E+03  0.7546771E-02  0.1164784E+00
         21   -1    0    0  503  502  0.00000000000E+00  0.00000000000E+00  0.82681469795E+03  0.82681469795E+03  0.00000000000E+00 0.  1.
         21   -1    0    0  501  503 -0.00000000000E+00 -0.00000000000E+00 -0.50450330560E+02  0.50450330560E+02  0.00000000000E+00 0. -1.
          6    1    1    2  501    0 -0.34530933795E+02 -0.52624780701E+02  0.19409156019E+03  0.26686567159E+03  0.17200000000E+03 0. -1.
         -6    1    1    2    0  502  0.34530933795E+02  0.52624780701E+02  0.58227280720E+03  0.61039935693E+03  0.17200000000E+03 0.  1.
<mgrwt>
<rscale>  2 0.18315500E+03</rscale>
<asrwt>0</asrwt>
<pdfrwt beam="1">  1       21 0.20670363E+00 0.18315500E+03</pdfrwt>
<pdfrwt beam="2">  1       21 0.12612585E-01 0.18315500E+03</pdfrwt>
<totfact> 0.65898716E+03</totfact>
</mgrwt>
</event>
<event>
 4    1  0.1119790E+000  0.2005092E+03  0.7546771E-02  0.1149310E+00
         21   -1    0    0  501  502  0.00000000000E+00  0.00000000000E+00  0.35700718000E+03  0.35700718000E+03  0.00000000000E+00 0.  1.
         21   -1    0    0  502  503 -0.00000000000E+00 -0.00000000000E+00 -0.15595067668E+03  0.15595067668E+03  0.00000000000E+00 0.  1.
          6    1    1    2  501    0 -0.91345359340E+02 -0.47706888631E+02  0.23573147605E+03  0.30947253625E+03  0.17200000000E+03 0.  1.
         -6    1    1    2    0  503  0.91345359340E+02  0.47706888631E+02 -0.34674972729E+02  0.20348532043E+03  0.17200000000E+03 0.  1.
<mgrwt>
<rscale>  2 0.20050916E+03</rscale>
<asrwt>0</asrwt>
<pdfrwt beam="1">  1       21 0.89251794E-01 0.20050916E+03</pdfrwt>
<pdfrwt beam="2">  1       21 0.38987670E-01 0.20050916E+03</pdfrwt>
<totfact> 0.67539913E+03</totfact>
</mgrwt>
</event>
<event>
 4    1  0.1119790E+000  0.3402261E+03  0.7546771E-02  0.1066700E+00
         21   -1    0    0  503  502  0.00000000000E+00  0.00000000000E+00  0.49702789040E+03  0.49702789040E+03  0.00000000000E+00 0. -1.
         21   -1    0    0  501  503 -0.00000000000E+00 -0.00000000000E+00 -0.24704447831E+03  0.24704447831E+03  0.00000000000E+00 0. -1.
          6    1    1    2  501    0  0.24996244851E+03  0.15391090221E+03  0.35945643978E+02  0.34211968784E+03  0.17200000000E+03 0. -1.
         -6    1    1    2    0  502 -0.24996244851E+03 -0.15391090221E+03  0.21403776811E+03  0.40195268088E+03  0.17200000000E+03 0. -1.
<mgrwt>
<rscale>  2 0.34022609E+03</rscale>
<asrwt>0</asrwt>
<pdfrwt beam="1">  1       21 0.12425697E+00 0.34022609E+03</pdfrwt>
<pdfrwt beam="2">  1       21 0.61761120E-01 0.34022609E+03</pdfrwt>
<totfact> 0.10545506E+03</totfact>
</mgrwt>
</event>
<event>
 4    1  0.1119790E+000  0.1904476E+03  0.7546771E-02  0.1158058E+00
         21   -1    0    0  501  502  0.00000000000E+00  0.00000000000E+00  0.39704282823E+03  0.39704282823E+03  0.00000000000E+00 0.  1.
         21   -1    0    0  502  503 -0.00000000000E+00 -0.00000000000E+00 -0.17972597385E+03  0.17972597385E+03  0.00000000000E+00 0. -1.
          6    1    1    2  501    0 -0.14815674470E+02 -0.80416231058E+02  0.31088159008E+03  0.36457871232E+03  0.17200000000E+03 0.  1.
         -6    1    1    2    0  503  0.14815674470E+02  0.80416231058E+02 -0.93564735699E+02  0.21219008976E+03  0.17200000000E+03 0. -1.
<mgrwt>
<rscale>  2 0.19044756E+03</rscale>
<asrwt>0</asrwt>
<pdfrwt beam="1">  1       21 0.99260706E-01 0.19044756E+03</pdfrwt>
<pdfrwt beam="2">  1       21 0.44931494E-01 0.19044756E+03</pdfrwt>
<totfact> 0.39789506E+03</totfact>
</mgrwt>
</event>
<event>
 4    1  0.1119790E+000  0.1828095E+03  0.7546771E-02  0.1165111E+00
         21   -1    0    0  503  502  0.00000000000E+00  0.00000000000E+00  0.15736835423E+03  0.15736835423E+03  0.00000000000E+00 0. -1.
         21   -1    0    0  501  503 -0.00000000000E+00 -0.00000000000E+00 -0.21260509025E+03  0.21260509025E+03  0.00000000000E+00 0. -1.
          6    1    1    2  501    0 -0.58687709105E+02 -0.19775852738E+02 -0.33851146088E+02  0.18591727096E+03  0.17200000000E+03 0. -1.
         -6    1    1    2    0  502  0.58687709105E+02  0.19775852738E+02 -0.21385589926E+02  0.18405617351E+03  0.17200000000E+03 0. -1.
<mgrwt>
<rscale>  2 0.18280955E+03</rscale>
<asrwt>0</asrwt>
<pdfrwt beam="1">  1       21 0.39342089E-01 0.18280955E+03</pdfrwt>
<pdfrwt beam="2">  1       21 0.53151272E-01 0.18280955E+03</pdfrwt>
<totfact> 0.21002300E+04</totfact>
</mgrwt>
</event>
<event>
 4    1  0.1119790E+000  0.1883163E+03  0.7546771E-02  0.1159989E+00
         21   -1    0    0  501  502  0.00000000000E+00  0.00000000000E+00  0.69980152102E+03  0.69980152102E+03  0.00000000000E+00 0.  1.
         21   -1    0    0  502  503 -0.00000000000E+00 -0.00000000000E+00 -0.11948351684E+03  0.11948351684E+03  0.00000000000E+00 0.  1.
          6    1    1    2  501    0 -0.75719151982E+02 -0.12068086871E+02  0.60102232318E+03  0.62983399532E+03  0.17200000000E+03 0.  1.
         -6    1    1    2    0  503  0.75719151982E+02  0.12068086871E+02 -0.20704318995E+02  0.18945104255E+03  0.17200000000E+03 0.  1.
<mgrwt>
<rscale>  2 0.18831630E+03</rscale>
<asrwt>0</asrwt>
<pdfrwt beam="1">  1       21 0.17495037E+00 0.18831630E+03</pdfrwt>
<pdfrwt beam="2">  1       21 0.29870881E-01 0.18831630E+03</pdfrwt>
<totfact> 0.21270633E+03</totfact>
</mgrwt>
</event>
<event>
 4    1  0.1119790E+000  0.1776455E+03  0.7546771E-02  0.1170101E+00
         21   -1    0    0  501  502  0.00000000000E+00  0.00000000000E+00  0.48604081272E+03  0.48604081272E+03  0.00000000000E+00 0.  1.
         21   -1    0    0  502  503 -0.00000000000E+00 -0.00000000000E+00 -0.72973670297E+02  0.72973670297E+02  0.00000000000E+00 0.  1.
          6    1    1    2  501    0  0.20942461288E+02 -0.39183466208E+02  0.29933954561E+03  0.34808345878E+03  0.17200000000E+03 0.  1.
         -6    1    1    2    0  503 -0.20942461288E+02  0.39183466208E+02  0.11372759681E+03  0.21093102423E+03  0.17200000000E+03 0.  1.
<mgrwt>
<rscale>  2 0.17764552E+03</rscale>
<asrwt>0</asrwt>
<pdfrwt beam="1">  1       21 0.12151019E+00 0.17764552E+03</pdfrwt>
<pdfrwt beam="2">  1       21 0.18243419E-01 0.17764552E+03</pdfrwt>
<totfact> 0.14166090E+04</totfact>
</mgrwt>
</event>
<event>
 4    1  0.1119790E+000  0.2023130E+03  0.7546771E-02  0.1147802E+00
         21   -1    0    0  501  502  0.00000000000E+00  0.00000000000E+00  0.46734638270E+03  0.46734638270E+03  0.00000000000E+00 0.  1.
         21   -1    0    0  502  503 -0.00000000000E+00 -0.00000000000E+00 -0.94533177521E+02  0.94533177521E+02  0.00000000000E+00 0. -1.
          6    1    1    2  501    0  0.10488588646E+03  0.18587400121E+02  0.26259516023E+03  0.33149171754E+03  0.17200000000E+03 0.  1.
         -6    1    1    2    0  503 -0.10488588646E+03 -0.18587400121E+02  0.11021804494E+03  0.23038784267E+03  0.17200000000E+03 0.  1.
<mgrwt>
<rscale>  2 0.20231298E+03</rscale>
<asrwt>0</asrwt>
<pdfrwt beam="1">  1       21 0.11683659E+00 0.20231298E+03</pdfrwt>
<pdfrwt beam="2">  1       21 0.23633296E-01 0.20231298E+03</pdfrwt>
<totfact> 0.94415587E+03</totfact>
</mgrwt>
</event>
<event>
 4    1  0.1119790E+000  0.2054810E+03  0.7546771E-02  0.1145195E+00
         21   -1    0    0  501  502  0.00000000000E+00  0.00000000000E+00  0.44234122739E+03  0.44234122739E+03  0.00000000000E+00 0. -1.
         21   -1    0    0  502  503 -0.00000000000E+00 -0.00000000000E+00 -0.11672455886E+03  0.11672455886E+03  0.00000000000E+00 0. -1.
          6    1    1    2  501    0 -0.90831937781E+02 -0.66242096490E+02  0.28214099526E+03  0.34903581117E+03  0.17200000000E+03 0. -1.
         -6    1    1    2    0  503  0.90831937781E+02  0.66242096490E+02  0.43475673274E+02  0.21002997509E+03  0.17200000000E+03 0. -1.
<mgrwt>
<rscale>  2 0.20548104E+03</rscale>
<asrwt>0</asrwt>
<pdfrwt beam="1">  1       21 0.11058530E+00 0.20548104E+03</pdfrwt>
<pdfrwt beam="2">  1       21 0.29181141E-01 0.20548104E+03</pdfrwt>
<totfact> 0.71814748E+03</totfact>
</mgrwt>
</event>
<event>
 4    1  0.1119790E+000  0.3513089E+03  0.7546771E-02  0.1062079E+00
         21   -1    0    0  501  502  0.00000000000E+00  0.00000000000E+00  0.18213703316E+03  0.18213703316E+03  0.00000000000E+00 0. -1.
         21   -1    0    0  502  503 -0.00000000000E+00 -0.00000000000E+00 -0.68923827865E+03  0.68923827865E+03  0.00000000000E+00 0. -1.
          6    1    1    2  501    0 -0.16099219250E+03  0.26060599338E+03 -0.19696077083E+03  0.40275490695E+03  0.17200000000E+03 0. -1.
         -6    1    1    2    0  503  0.16099219250E+03 -0.26060599338E+03 -0.31014047465E+03  0.46862040486E+03  0.17200000000E+03 0. -1.
<mgrwt>
<rscale>  2 0.35130894E+03</rscale>
<asrwt>0</asrwt>
<pdfrwt beam="1">  1       21 0.45534259E-01 0.35130894E+03</pdfrwt>
<pdfrwt beam="2">  1       21 0.17230957E+00 0.35130894E+03</pdfrwt>
<totfact> 0.83719782E+02</totfact>
</mgrwt>
</event>
<event>
 4    1  0.1119790E+000  0.2286999E+03  0.7546771E-02  0.1127558E+00
         21   -1    0    0  501  502  0.00000000000E+00  0.00000000000E+00  0.11901609718E+03  0.11901609718E+03  0.00000000000E+00 0. -1.
         21   -1    0    0  502  503 -0.00000000000E+00 -0.00000000000E+00 -0.49854910754E+03  0.49854910754E+03  0.00000000000E+00 0. -1.
          6    1    1    2  501    0  0.13612156594E+03  0.64734713494E+02 -0.83468203431E+02  0.24345555001E+03  0.17200000000E+03 0. -1.
         -6    1    1    2    0  503 -0.13612156594E+03 -0.64734713494E+02 -0.29606480693E+03  0.37410965471E+03  0.17200000000E+03 0. -1.
<mgrwt>
<rscale>  2 0.22869994E+03</rscale>
<asrwt>0</asrwt>
<pdfrwt beam="1">  1       21 0.29754024E-01 0.22869994E+03</pdfrwt>
<pdfrwt beam="2">  1       21 0.12463728E+00 0.22869994E+03</pdfrwt>
<totfact> 0.50612122E+03</totfact>
</mgrwt>
</event>
<event>
 4    1  0.1119790E+000  0.2000970E+03  0.7546771E-02  0.1149657E+00
         21   -1    0    0  501  502  0.00000000000E+00  0.00000000000E+00  0.11100740194E+04  0.11100740194E+04  0.00000000000E+00 0.  1.
         21   -1    0    0  502  503 -0.00000000000E+00 -0.00000000000E+00 -0.41770461267E+02  0.41770461267E+02  0.00000000000E+00 0.  1.
          6    1    1    2  501    0 -0.10183738779E+03  0.91638217113E+01  0.32136870557E+03  0.37857188762E+03  0.17200000000E+03 0.  1.
         -6    1    1    2    0  503  0.10183738779E+03 -0.91638217113E+01  0.74693485261E+03  0.77327259309E+03  0.17200000000E+03 0.  1.
<mgrwt>
<rscale>  2 0.20009705E+03</rscale>
<asrwt>0</asrwt>
<pdfrwt beam="1">  1       21 0.27751841E+00 0.20009705E+03</pdfrwt>
<pdfrwt beam="2">  1       21 0.10442619E-01 0.20009705E+03</pdfrwt>
<totfact> 0.34277444E+03</totfact>
</mgrwt>
</event>
<event>
 4    1  0.1119790E+000  0.1908995E+03  0.7546771E-02  0.1157653E+00
         21   -1    0    0  503  502  0.00000000000E+00  0.00000000000E+00  0.13632776433E+03  0.13632776433E+03  0.00000000000E+00 0. -1.
         21   -1    0    0  501  503 -0.00000000000E+00 -0.00000000000E+00 -0.27954238039E+03  0.27954238039E+03  0.00000000000E+00 0. -1.
          6    1    1    2  501    0 -0.82805728077E+02 -0.13530159028E+01 -0.28121313794E+02  0.19295965263E+03  0.17200000000E+03 0. -1.
         -6    1    1    2    0  502  0.82805728077E+02  0.13530159028E+01 -0.11509330227E+03  0.22291049208E+03  0.17200000000E+03 0. -1.
<mgrwt>
<rscale>  2 0.19089950E+03</rscale>
<asrwt>0</asrwt>
<pdfrwt beam="1">  1       21 0.34081941E-01 0.19089950E+03</pdfrwt>
<pdfrwt beam="2">  1       21 0.69885595E-01 0.19089950E+03</pdfrwt>
<totfact> 0.15443008E+04</totfact>
</mgrwt>
</event>
<event>
 4    1  0.1119790E+000  0.1807743E+03  0.7546771E-02  0.1167056E+00
         21   -1    0    0  501  502  0.00000000000E+00  0.00000000000E+00  0.50485122389E+03  0.50485122389E+03  0.00000000000E+00 0.  1.
         21   -1    0    0  502  503 -0.00000000000E+00 -0.00000000000E+00 -0.73628212564E+02  0.73628212564E+02  0.00000000000E+00 0.  1.
          6    1    1    2  501    0 -0.54998988490E+02 -0.83939000687E+01  0.31615903483E+03  0.36419209437E+03  0.17200000000E+03 0.  1.
         -6    1    1    2    0  503  0.54998988490E+02  0.83939000687E+01  0.11506397650E+03  0.21428734209E+03  0.17200000000E+03 0.  1.
<mgrwt>
<rscale>  2 0.18077430E+03</rscale>
<asrwt>0</asrwt>
<pdfrwt beam="1">  1       21 0.12621280E+00 0.18077430E+03</pdfrwt>
<pdfrwt beam="2">  1       21 0.18407055E-01 0.18077430E+03</pdfrwt>
<totfact> 0.12648112E+04</totfact>
</mgrwt>
</event>
<event>
 4    1  0.1119790E+000  0.2005155E+03  0.7546771E-02  0.1149305E+00
         21   -1    0    0  503  502  0.00000000000E+00  0.00000000000E+00  0.77793854782E+03  0.77793854782E+03  0.00000000000E+00 0.  1.
         21   -1    0    0  501  503 -0.00000000000E+00 -0.00000000000E+00 -0.52413838959E+02  0.52413838959E+02  0.00000000000E+00 0.  1.
          6    1    1    2  501    0 -0.42917292482E+02 -0.93704673306E+02  0.41177636946E+03  0.45800244348E+03  0.17200000000E+03 0. -1.
         -6    1    1    2    0  502  0.42917292482E+02  0.93704673306E+02  0.31374833940E+03  0.37234994329E+03  0.17200000000E+03 0. -1.
<mgrwt>
<rscale>  2 0.20051549E+03</rscale>
<asrwt>0</asrwt>
<pdfrwt beam="1">  1       21 0.19448460E+00 0.20051549E+03</pdfrwt>
<pdfrwt beam="2">  1       21 0.13103462E-01 0.20051549E+03</pdfrwt>
<totfact> 0.72546700E+03</totfact>
</mgrwt>
</event>
<event>
 4    1  0.1119790E+000  0.2054543E+03  0.7546771E-02  0.1145217E+00
         21   -1    0    0  503  502  0.00000000000E+00  0.00000000000E+00  0.89037205976E+02  0.89037205976E+02  0.00000000000E+00 0. -1.
         21   -1    0    0  501  503 -0.00000000000E+00 -0.00000000000E+00 -0.10218922779E+04  0.10218922779E+04  0.00000000000E+00 0. -1.
          6    1    1    2  501    0  0.35693866576E+02  0.10655239324E+03 -0.87312051632E+03  0.89696761404E+03  0.17200000000E+03 0. -1.
         -6    1    1    2    0  502 -0.35693866576E+02 -0.10655239324E+03 -0.59734555618E+02  0.21396186985E+03  0.17200000000E+03 0. -1.
<mgrwt>
<rscale>  2 0.20545429E+03</rscale>
<asrwt>0</asrwt>
<pdfrwt beam="1">  1       21 0.22259302E-01 0.20545429E+03</pdfrwt>
<pdfrwt beam="2">  1       21 0.25547307E+00 0.20545429E+03</pdfrwt>
<totfact> 0.11482271E+03</totfact>
</mgrwt>
</event>
<event>
 4    1  0.1119790E+000  0.1958563E+03  0.7546771E-02  0.1153283E+00
         21   -1    0    0  501  502  0.00000000000E+00  0.00000000000E+00  0.38997214343E+03  0.38997214343E+03  0.00000000000E+00 0. -1.
         21   -1    0    0  502  503 -0.00000000000E+00 -0.00000000000E+00 -0.10642153899E+03  0.10642153899E+03  0.00000000000E+00 0.  1.
          6    1    1    2  501    0 -0.46499534202E+02  0.81323267564E+02  0.21006431852E+03  0.28720497635E+03  0.17200000000E+03 0. -1.
         -6    1    1    2    0  503  0.46499534202E+02 -0.81323267564E+02  0.73486285920E+02  0.20918870607E+03  0.17200000000E+03 0.  1.
<mgrwt>
<rscale>  2 0.19585628E+03</rscale>
<asrwt>0</asrwt>
<pdfrwt beam="1">  1       21 0.97493032E-01 0.19585628E+03</pdfrwt>
<pdfrwt beam="2">  1       21 0.26605386E-01 0.19585628E+03</pdfrwt>
<totfact> 0.11694080E+04</totfact>
</mgrwt>
</event>
<event>
 4    1  0.1119790E+000  0.2442577E+03  0.7546771E-02  0.1116989E+00
         21   -1    0    0  503  502  0.00000000000E+00  0.00000000000E+00  0.10390104293E+04  0.10390104293E+04  0.00000000000E+00 0. -1.
         21   -1    0    0  501  503 -0.00000000000E+00 -0.00000000000E+00 -0.12619485663E+03  0.12619485663E+03  0.00000000000E+00 0.  1.
          6    1    1    2  501    0  0.10819883255E+03 -0.13553909656E+03  0.26316313331E+02  0.24567128935E+03  0.17200000000E+03 0.  1.
         -6    1    1    2    0  502 -0.10819883255E+03  0.13553909656E+03  0.88649925932E+03  0.91953399656E+03  0.17200000000E+03 0. -1.
<mgrwt>
<rscale>  2 0.24425772E+03</rscale>
<asrwt>0</asrwt>
<pdfrwt beam="1">  1       21 0.25975258E+00 0.24425772E+03</pdfrwt>
<pdfrwt beam="2">  1       21 0.31548717E-01 0.24425772E+03</pdfrwt>
<totfact> 0.52939415E+02</totfact>
</mgrwt>
</event>
<event>
 4    1  0.1119790E+000  0.2153247E+03  0.7546771E-02  0.1137417E+00
         21   -1    0    0  501  502  0.00000000000E+00  0.00000000000E+00  0.60367539445E+03  0.60367539445E+03  0.00000000000E+00 0.  1.
         21   -1    0    0  502  503 -0.00000000000E+00 -0.00000000000E+00 -0.16449122818E+03  0.16449122818E+03  0.00000000000E+00 0.  1.
          6    1    1    2  501    0  0.34461471791E+02  0.12487250096E+03  0.50002050850E+03  0.54441275100E+03  0.17200000000E+03 0.  1.
         -6    1    1    2    0  503 -0.34461471791E+02 -0.12487250096E+03 -0.60836342221E+02  0.22375387163E+03  0.17200000000E+03 0.  1.
<mgrwt>
<rscale>  2 0.21532472E+03</rscale>
<asrwt>0</asrwt>
<pdfrwt beam="1">  1       21 0.15091884E+00 0.21532472E+03</pdfrwt>
<pdfrwt beam="2">  1       21 0.41122809E-01 0.21532472E+03</pdfrwt>
<totfact> 0.16393946E+03</totfact>
</mgrwt>
</event>
<event>
 4    1  0.1119790E+000  0.2088122E+03  0.7546771E-02  0.1142510E+00
         21   -1    0    0  503  502  0.00000000000E+00  0.00000000000E+00  0.13414123736E+03  0.13414123736E+03  0.00000000000E+00 0.  1.
         21   -1    0    0  501  503 -0.00000000000E+00 -0.00000000000E+00 -0.37602990473E+03  0.37602990473E+03  0.00000000000E+00 0.  1.
          6    1    1    2  501    0  0.45438554506E+02  0.10933369825E+03 -0.27020232136E+02  0.21055311148E+03  0.17200000000E+03 0.  1.
         -6    1    1    2    0  502 -0.45438554506E+02 -0.10933369825E+03 -0.21486843523E+03  0.29961803061E+03  0.17200000000E+03 0.  1.
<mgrwt>
<rscale>  2 0.20881216E+03</rscale>
<asrwt>0</asrwt>
<pdfrwt beam="1">  1       21 0.33535310E-01 0.20881216E+03</pdfrwt>
<pdfrwt beam="2">  1       21 0.94007475E-01 0.20881216E+03</pdfrwt>
<totfact> 0.80367171E+03</totfact>
</mgrwt>
</event>
<event>
 4    1  0.1119790E+000  0.2438981E+03  0.7546771E-02  0.1117223E+00
         21   -1    0    0  503  502  0.00000000000E+00  0.00000000000E+00  0.12495046423E+03  0.12495046423E+03  0.00000000000E+00 0. -1.
         21   -1    0    0  501  503 -0.00000000000E+00 -0.00000000000E+00 -0.97127975528E+03  0.97127975528E+03  0.00000000000E+00 0.  1.
          6    1    1    2  501    0  0.98167438511E+02  0.14235665179E+03 -0.81453719346E+03  0.85026884091E+03  0.17200000000E+03 0.  1.
         -6    1    1    2    0  502 -0.98167438511E+02 -0.14235665179E+03 -0.31792097589E+02  0.24596137860E+03  0.17200000000E+03 0. -1.
<mgrwt>
<rscale>  2 0.24389806E+03</rscale>
<asrwt>0</asrwt>
<pdfrwt beam="1">  1       21 0.31237616E-01 0.24389806E+03</pdfrwt>
<pdfrwt beam="2">  1       21 0.24281994E+00 0.24389806E+03</pdfrwt>
<totfact> 0.68107253E+02</totfact>
</mgrwt>
</event>
<event>
 4    1  0.1119790E+000  0.1942475E+03  0.7546771E-02  0.1154685E+00
         21   -1    0    0  503  502  0.00000000000E+00  0.00000000000E+00  0.79884936724E+02  0.79884936724E+02  0.00000000000E+00 0.  1.
         21   -1    0    0  501  503 -0.00000000000E+00 -0.00000000000E+00 -0.72177257566E+03  0.72177257566E+03  0.00000000000E+00 0.  1.
          6    1    1    2  501    0  0.56041786840E+02  0.70763109614E+02 -0.55658080455E+03  0.58950342794E+03  0.17200000000E+03 0.  1.
         -6    1    1    2    0  502 -0.56041786840E+02 -0.70763109614E+02 -0.85306834385E+02  0.21215408445E+03  0.17200000000E+03 0.  1.
<mgrwt>
<rscale>  2 0.19424752E+03</rscale>
<asrwt>0</asrwt>
<pdfrwt beam="1">  1       21 0.19971234E-01 0.19424752E+03</pdfrwt>
<pdfrwt beam="2">  1       21 0.18044314E+00 0.19424752E+03</pdfrwt>
<totfact> 0.41764194E+03</totfact>
</mgrwt>
</event>
<event>
 4    1  0.1119790E+000  0.2422703E+03  0.7546771E-02  0.1118290E+00
         21   -1    0    0  503  502  0.00000000000E+00  0.00000000000E+00  0.20638356852E+03  0.20638356852E+03  0.00000000000E+00 0.  1.
         21   -1    0    0  501  503 -0.00000000000E+00 -0.00000000000E+00 -0.29880371958E+03  0.29880371958E+03  0.00000000000E+00 0.  1.
          6    1    1    2  501    0 -0.15560385982E+03 -0.69988254427E+02  0.92535654550E+01  0.24244699507E+03  0.17200000000E+03 0.  1.
         -6    1    1    2    0  502  0.15560385982E+03  0.69988254427E+02 -0.10167371652E+03  0.26274029302E+03  0.17200000000E+03 0.  1.
<mgrwt>
<rscale>  2 0.24227034E+03</rscale>
<asrwt>0</asrwt>
<pdfrwt beam="1">  1       21 0.51595893E-01 0.24227034E+03</pdfrwt>
<pdfrwt beam="2">  1       21 0.74700929E-01 0.24227034E+03</pdfrwt>
<totfact> 0.55274725E+03</totfact>
</mgrwt>
</event>
<event>
 4    1  0.1119790E+000  0.2284683E+03  0.7546771E-02  0.1127722E+00
         21   -1    0    0  503  502  0.00000000000E+00  0.00000000000E+00  0.92164854886E+03  0.92164854886E+03  0.00000000000E+00 0. -1.
         21   -1    0    0  501  503 -0.00000000000E+00 -0.00000000000E+00 -0.89519362413E+02  0.89519362413E+02  0.00000000000E+00 0. -1.
          6    1    1    2  501    0 -0.14140179188E+03 -0.51179248597E+02  0.10963694093E+03  0.25341278786E+03  0.17200000000E+03 0. -1.
         -6    1    1    2    0  502  0.14140179188E+03  0.51179248597E+02  0.72249224552E+03  0.75775512342E+03  0.17200000000E+03 0. -1.
<mgrwt>
<rscale>  2 0.22846834E+03</rscale>
<asrwt>0</asrwt>
<pdfrwt beam="1">  1       21 0.23041211E+00 0.22846834E+03</pdfrwt>
<pdfrwt beam="2">  1       21 0.22379843E-01 0.22846834E+03</pdfrwt>
<totfact> 0.15646067E+03</totfact>
</mgrwt>
</event>
<event>
 4    1  0.1119790E+000  0.1726806E+03  0.7546771E-02  0.1175081E+00
         21   -1    0    0  503  502  0.00000000000E+00  0.00000000000E+00  0.45011773038E+03  0.45011773038E+03  0.00000000000E+00 0. -1.
         21   -1    0    0  501  503 -0.00000000000E+00 -0.00000000000E+00 -0.10562969508E+03  0.10562969508E+03  0.00000000000E+00 0. -1.
          6    1    1    2  501    0 -0.14581719201E+02 -0.46859413776E+01  0.25714489851E+01  0.17269973055E+03  0.17200000000E+03 0. -1.
         -6    1    1    2    0  502  0.14581719201E+02  0.46859413776E+01  0.34191658632E+03  0.38304769492E+03  0.17200000000E+03 0. -1.
<mgrwt>
<rscale>  2 0.17268059E+03</rscale>
<asrwt>0</asrwt>
<pdfrwt beam="1">  1       21 0.11252943E+00 0.17268059E+03</pdfrwt>
<pdfrwt beam="2">  1       21 0.26407425E-01 0.17268059E+03</pdfrwt>
<totfact> 0.85582000E+03</totfact>
</mgrwt>
</event>
<event>
 4    1  0.1119790E+000  0.2039191E+03  0.7546771E-02  0.1146474E+00
         21   -1    0    0  503  502  0.00000000000E+00  0.00000000000E+00  0.34591386729E+03  0.34591386729E+03  0.00000000000E+00 0.  1.
         21   -1    0    0  501  503 -0.00000000000E+00 -0.00000000000E+00 -0.22407652934E+03  0.22407652934E+03  0.00000000000E+00 0.  1.
          6    1    1    2  501    0  0.46463833725E+00  0.10953889744E+03 -0.13311319638E+03  0.24352024349E+03  0.17200000000E+03 0.  1.
         -6    1    1    2    0  502 -0.46463833725E+00 -0.10953889744E+03  0.25495053432E+03  0.32647015314E+03  0.17200000000E+03 0.  1.
<mgrwt>
<rscale>  2 0.20391907E+03</rscale>
<asrwt>0</asrwt>
<pdfrwt beam="1">  1       21 0.86478466E-01 0.20391907E+03</pdfrwt>
<pdfrwt beam="2">  1       21 0.56019133E-01 0.20391907E+03</pdfrwt>
<totfact> 0.34235515E+03</totfact>
</mgrwt>
</event>
<event>
 4    1  0.1119790E+000  0.2099896E+03  0.7546771E-02  0.1141574E+00
         21   -1    0    0  503  502  0.00000000000E+00  0.00000000000E+00  0.61272620955E+02  0.61272620955E+02  0.00000000000E+00 0.  1.
         21   -1    0    0  501  503 -0.00000000000E+00 -0.00000000000E+00 -0.82841486985E+03  0.82841486985E+03  0.00000000000E+00 0. -1.
          6    1    1    2  501    0  0.11207314049E+03 -0.44172975010E+02 -0.54474766740E+03  0.58381988804E+03  0.17200000000E+03 0. -1.
         -6    1    1    2    0  502 -0.11207314049E+03  0.44172975010E+02 -0.22239458150E+03  0.30586760276E+03  0.17200000000E+03 0.  1.
<mgrwt>
<rscale>  2 0.20998962E+03</rscale>
<asrwt>0</asrwt>
<pdfrwt beam="1">  1       21 0.15318156E-01 0.20998962E+03</pdfrwt>
<pdfrwt beam="2">  1       21 0.20710371E+00 0.20998962E+03</pdfrwt>
<totfact> 0.44955262E+03</totfact>
</mgrwt>
</event>
<event>
 4    1  0.1119790E+000  0.1780872E+03  0.7546771E-02  0.1169667E+00
         21   -1    0    0  501  502  0.00000000000E+00  0.00000000000E+00  0.14640069997E+03  0.14640069997E+03  0.00000000000E+00 0.  1.
         21   -1    0    0  502  503 -0.00000000000E+00 -0.00000000000E+00 -0.24335911419E+03  0.24335911419E+03  0.00000000000E+00 0.  1.
          6    1    1    2  501    0  0.35830872739E+02 -0.29106869671E+02  0.16104077717E+02  0.17881387704E+03  0.17200000000E+03 0. -1.
         -6    1    1    2    0  503 -0.35830872739E+02  0.29106869671E+02 -0.11306249194E+03  0.21094593712E+03  0.17200000000E+03 0. -1.
<mgrwt>
<rscale>  2 0.17808723E+03</rscale>
<asrwt>0</asrwt>
<pdfrwt beam="1">  1       21 0.36600175E-01 0.17808723E+03</pdfrwt>
<pdfrwt beam="2">  1       21 0.60839778E-01 0.17808723E+03</pdfrwt>
<totfact> 0.18268342E+04</totfact>
</mgrwt>
</event>
<event>
 4    1  0.1119790E+000  0.2122611E+03  0.7546771E-02  0.1139788E+00
         21   -1    0    0  503  502  0.00000000000E+00  0.00000000000E+00  0.18466888835E+03  0.18466888835E+03  0.00000000000E+00 0.  1.
         21   -1    0    0  501  503 -0.00000000000E+00 -0.00000000000E+00 -0.49303279273E+03  0.49303279273E+03  0.00000000000E+00 0.  1.
          6    1    1    2  501    0 -0.12414642648E+03 -0.76453368626E+01 -0.39501706967E+03  0.44843424458E+03  0.17200000000E+03 0.  1.
         -6    1    1    2    0  502  0.12414642648E+03  0.76453368626E+01  0.86653165289E+02  0.22926743649E+03  0.17200000000E+03 0.  1.
<mgrwt>
<rscale>  2 0.21226113E+03</rscale>
<asrwt>0</asrwt>
<pdfrwt beam="1">  1       21 0.46167222E-01 0.21226113E+03</pdfrwt>
<pdfrwt beam="2">  1       21 0.12325820E+00 0.21226113E+03</pdfrwt>
<totfact> 0.21823852E+03</totfact>
</mgrwt>
</event>
<event>
 4    1  0.1119790E+000  0.2463858E+03  0.7546771E-02  0.1115610E+00
         21   -1    0    0  503  502  0.00000000000E+00  0.00000000000E+00  0.50009248592E+02  0.50009248592E+02  0.00000000000E+00 0. -1.
         21   -1    0    0  501  503 -0.00000000000E+00 -0.00000000000E+00 -0.12446437293E+04  0.12446437293E+04  0.00000000000E+00 0. -1.
          6    1    1    2  501    0  0.12315644047E+03 -0.12631096706E+03 -0.49557167023E+03  0.55344127924E+03  0.17200000000E+03 0. -1.
         -6    1    1    2    0  502 -0.12315644047E+03  0.12631096706E+03 -0.69906281050E+03  0.74121169868E+03  0.17200000000E+03 0. -1.
<mgrwt>
<rscale>  2 0.24638581E+03</rscale>
<asrwt>0</asrwt>
<pdfrwt beam="1">  1       21 0.12502312E-01 0.24638581E+03</pdfrwt>
<pdfrwt beam="2">  1       21 0.31116094E+00 0.24638581E+03</pdfrwt>
<totfact> 0.15067211E+03</totfact>
</mgrwt>
</event>
<event>
 4    1  0.1119790E+000  0.1767315E+03  0.7546771E-02  0.1171004E+00
         21   -1    0    0  503  502  0.00000000000E+00  0.00000000000E+00  0.16134733396E+03  0.16134733396E+03  0.00000000000E+00 0. -1.
         21   -1    0    0  501  503 -0.00000000000E+00 -0.00000000000E+00 -0.25696123299E+03  0.25696123299E+03  0.00000000000E+00 0. -1.
          6    1    1    2  501    0  0.97043780706E+01  0.39444032650E+02  0.56066612606E+02  0.18541162778E+03  0.17200000000E+03 0. -1.
         -6    1    1    2    0  502 -0.97043780706E+01 -0.39444032650E+02 -0.15168051164E+03  0.23289693917E+03  0.17200000000E+03 0. -1.
<mgrwt>
<rscale>  2 0.17673145E+03</rscale>
<asrwt>0</asrwt>
<pdfrwt beam="1">  1       21 0.40336834E-01 0.17673145E+03</pdfrwt>
<pdfrwt beam="2">  1       21 0.64240308E-01 0.17673145E+03</pdfrwt>
<totfact> 0.13381312E+04</totfact>
</mgrwt>
</event>
<event>
 4    1  0.1119790E+000  0.2100464E+03  0.7546771E-02  0.1141529E+00
         21   -1    0    0  501  502  0.00000000000E+00  0.00000000000E+00  0.15071069661E+03  0.15071069661E+03  0.00000000000E+00 0. -1.
         21   -1    0    0  502  503 -0.00000000000E+00 -0.00000000000E+00 -0.45561481725E+03  0.45561481725E+03  0.00000000000E+00 0. -1.
          6    1    1    2  501    0  0.31946194877E+02 -0.11625365076E+03  0.28807186637E+02  0.21201255785E+03  0.17200000000E+03 0. -1.
         -6    1    1    2    0  503 -0.31946194877E+02  0.11625365076E+03 -0.33371130728E+03  0.39431295602E+03  0.17200000000E+03 0. -1.
<mgrwt>
<rscale>  2 0.21004635E+03</rscale>
<asrwt>0</asrwt>
<pdfrwt beam="1">  1       21 0.37677674E-01 0.21004635E+03</pdfrwt>
<pdfrwt beam="2">  1       21 0.11390370E+00 0.21004635E+03</pdfrwt>
<totfact> 0.40194002E+03</totfact>
</mgrwt>
</event>
<event>
 4    1  0.1119790E+000  0.2375785E+03  0.7546771E-02  0.1121417E+00
         21   -1    0    0  501  502  0.00000000000E+00  0.00000000000E+00  0.42654639214E+03  0.42654639214E+03  0.00000000000E+00 0.  1.
         21   -1    0    0  502  503 -0.00000000000E+00 -0.00000000000E+00 -0.58261006122E+03  0.58261006122E+03  0.00000000000E+00 0. -1.
          6    1    1    2  501    0  0.12952885749E+02  0.16337619554E+03  0.36555880458E+03  0.43597797894E+03  0.17200000000E+03 0.  1.
         -6    1    1    2    0  503 -0.12952885749E+02 -0.16337619554E+03 -0.52162247365E+03  0.57317847442E+03  0.17200000000E+03 0. -1.
<mgrwt>
<rscale>  2 0.23757853E+03</rscale>
<asrwt>0</asrwt>
<pdfrwt beam="1">  1       21 0.10663660E+00 0.23757853E+03</pdfrwt>
<pdfrwt beam="2">  1       21 0.14565251E+00 0.23757853E+03</pdfrwt>
<totfact> 0.21580910E+02</totfact>
</mgrwt>
</event>
<event>
 4    1  0.1119790E+000  0.2441467E+03  0.7546771E-02  0.1117061E+00
         21   -1    0    0  501  502  0.00000000000E+00  0.00000000000E+00  0.96108016692E+02  0.96108016692E+02  0.00000000000E+00 0. -1.
         21   -1    0    0  502  503 -0.00000000000E+00 -0.00000000000E+00 -0.68382457698E+03  0.68382457698E+03  0.00000000000E+00 0. -1.
          6    1    1    2  501    0 -0.13370204025E+03 -0.11021512430E+03 -0.17492131809E+03  0.30034160004E+03  0.17200000000E+03 0. -1.
         -6    1    1    2    0  503  0.13370204025E+03  0.11021512430E+03 -0.41279524220E+03  0.47959099364E+03  0.17200000000E+03 0. -1.
<mgrwt>
<rscale>  2 0.24414670E+03</rscale>
<asrwt>0</asrwt>
<pdfrwt beam="1">  1       21 0.24027005E-01 0.24414670E+03</pdfrwt>
<pdfrwt beam="2">  1       21 0.17095614E+00 0.24414670E+03</pdfrwt>
<totfact> 0.32871659E+03</totfact>
</mgrwt>
</event>
<event>
 4    1  0.1119790E+000  0.1793937E+03  0.7546771E-02  0.1168391E+00
         21   -1    0    0  501  502  0.00000000000E+00  0.00000000000E+00  0.22868777890E+03  0.22868777890E+03  0.00000000000E+00 0. -1.
         21   -1    0    0  502  503 -0.00000000000E+00 -0.00000000000E+00 -0.14399924413E+03  0.14399924413E+03  0.00000000000E+00 0.  1.
          6    1    1    2  501    0 -0.18720171653E+02  0.47409524902E+02  0.70442813015E+02  0.19272855985E+03  0.17200000000E+03 0. -1.
         -6    1    1    2    0  503  0.18720171653E+02 -0.47409524902E+02  0.14245721758E+02  0.17995846317E+03  0.17200000000E+03 0.  1.
<mgrwt>
<rscale>  2 0.17939372E+03</rscale>
<asrwt>0</asrwt>
<pdfrwt beam="1">  1       21 0.57171944E-01 0.17939372E+03</pdfrwt>
<pdfrwt beam="2">  1       21 0.35999811E-01 0.17939372E+03</pdfrwt>
<totfact> 0.21545171E+04</totfact>
</mgrwt>
</event>
<event>
 4    1  0.1119790E+000  0.2080262E+03  0.7546771E-02  0.1143139E+00
         21   -1    0    0  501  502  0.00000000000E+00  0.00000000000E+00  0.14279364800E+03  0.14279364800E+03  0.00000000000E+00 0. -1.
         21   -1    0    0  502  503 -0.00000000000E+00 -0.00000000000E+00 -0.40946344141E+03  0.40946344141E+03  0.00000000000E+00 0.  1.
          6    1    1    2  501    0 -0.17847660195E+02  0.11563899873E+03  0.74264377601E+01  0.20815875907E+03  0.17200000000E+03 0. -1.
         -6    1    1    2    0  503  0.17847660195E+02 -0.11563899873E+03 -0.27409623117E+03  0.34409833034E+03  0.17200000000E+03 0.  1.
<mgrwt>
<rscale>  2 0.20802624E+03</rscale>
<asrwt>0</asrwt>
<pdfrwt beam="1">  1       21 0.35698412E-01 0.20802624E+03</pdfrwt>
<pdfrwt beam="2">  1       21 0.10236586E+00 0.20802624E+03</pdfrwt>
<totfact> 0.58061746E+03</totfact>
</mgrwt>
</event>
<event>
 4    1  0.1119790E+000  0.2473199E+03  0.7546771E-02  0.1115010E+00
         21   -1    0    0  501  502  0.00000000000E+00  0.00000000000E+00  0.83604769345E+03  0.83604769345E+03  0.00000000000E+00 0. -1.
         21   -1    0    0  502  503 -0.00000000000E+00 -0.00000000000E+00 -0.11301410621E+03  0.11301410621E+03  0.00000000000E+00 0. -1.
          6    1    1    2  501    0 -0.17130194460E+03  0.47315939681E+02  0.79728925770E+02  0.25985352792E+03  0.17200000000E+03 0. -1.
         -6    1    1    2    0  503  0.17130194460E+03 -0.47315939681E+02  0.64330466147E+03  0.68920827174E+03  0.17200000000E+03 0. -1.
<mgrwt>
<rscale>  2 0.24731994E+03</rscale>
<asrwt>0</asrwt>
<pdfrwt beam="1">  1       21 0.20901191E+00 0.24731994E+03</pdfrwt>
<pdfrwt beam="2">  1       21 0.28253529E-01 0.24731994E+03</pdfrwt>
<totfact> 0.13350187E+03</totfact>
</mgrwt>
</event>
<event>
 4    1  0.1119790E+000  0.2185622E+03  0.7546771E-02  0.1134960E+00
         21   -1    0    0  503  502  0.00000000000E+00  0.00000000000E+00  0.17936070534E+03  0.17936070534E+03  0.00000000000E+00 0.  1.
         21   -1    0    0  501  503 -0.00000000000E+00 -0.00000000000E+00 -0.29582187726E+03  0.29582187726E+03  0.00000000000E+00 0.  1.
          6    1    1    2  501    0  0.13194497640E+03 -0.27856075626E+02  0.16785469115E+02  0.21920581589E+03  0.17200000000E+03 0.  1.
         -6    1    1    2    0  502 -0.13194497640E+03  0.27856075626E+02 -0.13324664103E+03  0.25597676671E+03  0.17200000000E+03 0.  1.
<mgrwt>
<rscale>  2 0.21856221E+03</rscale>
<asrwt>0</asrwt>
<pdfrwt beam="1">  1       21 0.44840177E-01 0.21856221E+03</pdfrwt>
<pdfrwt beam="2">  1       21 0.73955469E-01 0.21856221E+03</pdfrwt>
<totfact> 0.76890965E+03</totfact>
</mgrwt>
</event>
<event>
 4    1  0.1119790E+000  0.2068704E+03  0.7546771E-02  0.1144069E+00
         21   -1    0    0  501  502  0.00000000000E+00  0.00000000000E+00  0.94107995905E+03  0.94107995905E+03  0.00000000000E+00 0.  1.
         21   -1    0    0  502  503 -0.00000000000E+00 -0.00000000000E+00 -0.63783458424E+02  0.63783458424E+02  0.00000000000E+00 0. -1.
          6    1    1    2  501    0 -0.11345358729E+03 -0.18429786729E+02  0.70783389281E+03  0.73744436625E+03  0.17200000000E+03 0.  1.
         -6    1    1    2    0  503  0.11345358729E+03  0.18429786729E+02  0.16946260781E+03  0.26741905122E+03  0.17200000000E+03 0. -1.
<mgrwt>
<rscale>  2 0.20687043E+03</rscale>
<asrwt>0</asrwt>
<pdfrwt beam="1">  1       21 0.23526995E+00 0.20687043E+03</pdfrwt>
<pdfrwt beam="2">  1       21 0.15945868E-01 0.20687043E+03</pdfrwt>
<totfact> 0.28103076E+03</totfact>
</mgrwt>
</event>
<event>
 4    1  0.1119790E+000  0.1732849E+03  0.7546771E-02  0.1174465E+00
         21   -1    0    0  503  502  0.00000000000E+00  0.00000000000E+00  0.11218324696E+03  0.11218324696E+03  0.00000000000E+00 0. -1.
         21   -1    0    0  501  503 -0.00000000000E+00 -0.00000000000E+00 -0.27896074347E+03  0.27896074347E+03  0.00000000000E+00 0. -1.
          6    1    1    2  501    0 -0.20981711747E+02 -0.18535659879E+01 -0.12274091838E+03  0.21235112663E+03  0.17200000000E+03 0. -1.
         -6    1    1    2    0  502  0.20981711747E+02  0.18535659879E+01 -0.44036578129E+02  0.17879286381E+03  0.17200000000E+03 0. -1.
<mgrwt>
<rscale>  2 0.17328493E+03</rscale>
<asrwt>0</asrwt>
<pdfrwt beam="1">  1       21 0.28045812E-01 0.17328493E+03</pdfrwt>
<pdfrwt beam="2">  1       21 0.69740186E-01 0.17328493E+03</pdfrwt>
<totfact> 0.22950245E+04</totfact>
</mgrwt>
</event>
<event>
 4    1  0.1119790E+000  0.1855977E+03  0.7546771E-02  0.1162493E+00
         21   -1    0    0  501  502  0.00000000000E+00  0.00000000000E+00  0.68573768751E+03  0.68573768751E+03  0.00000000000E+00 0.  1.
         21   -1    0    0  502  503 -0.00000000000E+00 -0.00000000000E+00 -0.53941529574E+02  0.53941529574E+02  0.00000000000E+00 0.  1.
          6    1    1    2  501    0  0.35650424521E+02  0.59929478707E+02  0.21892150316E+03  0.28700717715E+03  0.17200000000E+03 0.  1.
         -6    1    1    2    0  503 -0.35650424521E+02 -0.59929478707E+02  0.41287465478E+03  0.45267203994E+03  0.17200000000E+03 0.  1.
<mgrwt>
<rscale>  2 0.18559767E+03</rscale>
<asrwt>0</asrwt>
<pdfrwt beam="1">  1       21 0.17143439E+00 0.18559767E+03</pdfrwt>
<pdfrwt beam="2">  1       21 0.13485385E-01 0.18559767E+03</pdfrwt>
<totfact> 0.99760633E+03</totfact>
</mgrwt>
</event>
<event>
 4    1  0.1119790E+000  0.2173323E+03  0.7546771E-02  0.1135888E+00
         21   -1    0    0  503  502  0.00000000000E+00  0.00000000000E+00  0.73681823908E+03  0.73681823908E+03  0.00000000000E+00 0. -1.
         21   -1    0    0  501  503 -0.00000000000E+00 -0.00000000000E+00 -0.15062478495E+03  0.15062478495E+03  0.00000000000E+00 0. -1.
          6    1    1    2  501    0 -0.12350280796E+03 -0.48952987880E+02  0.62939243467E+03  0.66585897562E+03  0.17200000000E+03 0. -1.
         -6    1    1    2    0  502  0.12350280796E+03  0.48952987880E+02 -0.43198980535E+02  0.22158404842E+03  0.17200000000E+03 0. -1.
<mgrwt>
<rscale>  2 0.21733232E+03</rscale>
<asrwt>0</asrwt>
<pdfrwt beam="1">  1       21 0.18420455E+00 0.21733232E+03</pdfrwt>
<pdfrwt beam="2">  1       21 0.37656198E-01 0.21733232E+03</pdfrwt>
<totfact> 0.11298741E+03</totfact>
</mgrwt>
</event>
<event>
 4    1  0.1119790E+000  0.1918831E+03  0.7546771E-02  0.1156774E+00
         21   -1    0    0  503  502  0.00000000000E+00  0.00000000000E+00  0.52532268274E+02  0.52532268274E+02  0.00000000000E+00 0. -1.
         21   -1    0    0  501  503 -0.00000000000E+00 -0.00000000000E+00 -0.73422627230E+03  0.73422627230E+03  0.00000000000E+00 0. -1.
          6    1    1    2  501    0  0.49540351159E+02  0.69143803890E+02 -0.42467391694E+03  0.46601185365E+03  0.17200000000E+03 0. -1.
         -6    1    1    2    0  502 -0.49540351159E+02 -0.69143803890E+02 -0.25702008708E+03  0.32074668692E+03  0.17200000000E+03 0. -1.
<mgrwt>
<rscale>  2 0.19188307E+03</rscale>
<asrwt>0</asrwt>
<pdfrwt beam="1">  1       21 0.13133067E-01 0.19188307E+03</pdfrwt>
<pdfrwt beam="2">  1       21 0.18355656E+00 0.19188307E+03</pdfrwt>
<totfact> 0.85974541E+03</totfact>
</mgrwt>
</event>
<event>
 4    1  0.1119790E+000  0.1731387E+03  0.7546771E-02  0.1174614E+00
         21   -1    0    0  503  502  0.00000000000E+00  0.00000000000E+00  0.40359731122E+03  0.40359731122E+03  0.00000000000E+00 0. -1.
         21   -1    0    0  501  503 -0.00000000000E+00 -0.00000000000E+00 -0.76909498044E+02  0.76909498044E+02  0.00000000000E+00 0. -1.
          6    1    1    2  501    0 -0.15745614387E+02  0.12045655089E+02  0.20781346659E+03  0.27048744717E+03  0.17200000000E+03 0.  1.
         -6    1    1    2    0  502  0.15745614387E+02 -0.12045655089E+02  0.11887434658E+03  0.21001936209E+03  0.17200000000E+03 0.  1.
<mgrwt>
<rscale>  2 0.17313874E+03</rscale>
<asrwt>0</asrwt>
<pdfrwt beam="1">  1       21 0.10089932E+00 0.17313874E+03</pdfrwt>
<pdfrwt beam="2">  1       21 0.19227376E-01 0.17313874E+03</pdfrwt>
<totfact> 0.20211210E+04</totfact>
</mgrwt>
</event>
<event>
 4    1  0.1119790E+000  0.2415304E+03  0.7546771E-02  0.1118777E+00
         21   -1    0    0  501  502  0.00000000000E+00  0.00000000000E+00  0.97714281904E+02  0.97714281904E+02  0.00000000000E+00 0. -1.
         21   -1    0    0  502  503 -0.00000000000E+00 -0.00000000000E+00 -0.11789340780E+04  0.11789340780E+04  0.00000000000E+00 0. -1.
          6    1    1    2  501    0  0.14666123212E+03  0.85108406877E+02 -0.92145903133E+02  0.25851078390E+03  0.17200000000E+03 0. -1.
         -6    1    1    2    0  503 -0.14666123212E+03 -0.85108406877E+02 -0.98907389297E+03  0.10181375760E+04  0.17200000000E+03 0. -1.
<mgrwt>
<rscale>  2 0.24153045E+03</rscale>
<asrwt>0</asrwt>
<pdfrwt beam="1">  1       21 0.24428571E-01 0.24153045E+03</pdfrwt>
<pdfrwt beam="2">  1       21 0.29473351E+00 0.24153045E+03</pdfrwt>
<totfact> 0.54454080E+02</totfact>
</mgrwt>
</event>
<event>
 4    1  0.1119790E+000  0.1778230E+03  0.7546771E-02  0.1169927E+00
         21   -1    0    0  503  502  0.00000000000E+00  0.00000000000E+00  0.40356568826E+02  0.40356568826E+02  0.00000000000E+00 0. -1.
         21   -1    0    0  501  503 -0.00000000000E+00 -0.00000000000E+00 -0.80021726702E+03  0.80021726702E+03  0.00000000000E+00 0. -1.
          6    1    1    2  501    0  0.62591530698E+01 -0.44697247901E+02 -0.44060301138E+03  0.47513370182E+03  0.17200000000E+03 0. -1.
         -6    1    1    2    0  502 -0.62591530698E+01  0.44697247901E+02 -0.31925768681E+03  0.36544013402E+03  0.17200000000E+03 0. -1.
<mgrwt>
<rscale>  2 0.17782300E+03</rscale>
<asrwt>0</asrwt>
<pdfrwt beam="1">  1       21 0.10089143E-01 0.17782300E+03</pdfrwt>
<pdfrwt beam="2">  1       21 0.20005431E+00 0.17782300E+03</pdfrwt>
<totfact> 0.10853653E+04</totfact>
</mgrwt>
</event>
<event>
 4    1  0.1119790E+000  0.1839618E+03  0.7546771E-02  0.1164023E+00
         21   -1    0    0  501  502  0.00000000000E+00  0.00000000000E+00  0.62491226245E+03  0.62491226245E+03  0.00000000000E+00 0. -1.
         21   -1    0    0  502  503 -0.00000000000E+00 -0.00000000000E+00 -0.57844650313E+02  0.57844650313E+02  0.00000000000E+00 0. -1.
          6    1    1    2  501    0 -0.19300705647E+01 -0.65224315200E+02  0.36975513948E+03  0.41299007208E+03  0.17200000000E+03 0. -1.
         -6    1    1    2    0  503  0.19300705647E+01  0.65224315200E+02  0.19731247266E+03  0.26976684068E+03  0.17200000000E+03 0. -1.
<mgrwt>
<rscale>  2 0.18396178E+03</rscale>
<asrwt>0</asrwt>
<pdfrwt beam="1">  1       21 0.15622804E+00 0.18396178E+03</pdfrwt>
<pdfrwt beam="2">  1       21 0.14461165E-01 0.18396178E+03</pdfrwt>
<totfact> 0.11325407E+04</totfact>
</mgrwt>
</event>
<event>
 4    1  0.1119790E+000  0.2194515E+03  0.7546771E-02  0.1134293E+00
         21   -1    0    0  501  502  0.00000000000E+00  0.00000000000E+00  0.55585946923E+03  0.55585946923E+03  0.00000000000E+00 0. -1.
         21   -1    0    0  502  503 -0.00000000000E+00 -0.00000000000E+00 -0.93111895047E+02  0.93111895047E+02  0.00000000000E+00 0. -1.
          6    1    1    2  501    0  0.56915209803E+02  0.12383702926E+03  0.31693003917E+03  0.38549137559E+03  0.17200000000E+03 0. -1.
         -6    1    1    2    0  503 -0.56915209803E+02 -0.12383702926E+03  0.14581753501E+03  0.26347998869E+03  0.17200000000E+03 0. -1.
<mgrwt>
<rscale>  2 0.21945148E+03</rscale>
<asrwt>0</asrwt>
<pdfrwt beam="1">  1       21 0.13896486E+00 0.21945148E+03</pdfrwt>
<pdfrwt beam="2">  1       21 0.23277975E-01 0.21945148E+03</pdfrwt>
<totfact> 0.61983581E+03</totfact>
</mgrwt>
</event>
<event>
 4    1  0.1119790E+000  0.3318468E+03  0.7546771E-02  0.1070323E+00
         21   -1    0    0  503  502  0.00000000000E+00  0.00000000000E+00  0.75369761655E+03  0.75369761655E+03  0.00000000000E+00 0. -1.
         21   -1    0    0  501  503 -0.00000000000E+00 -0.00000000000E+00 -0.19738534601E+03  0.19738534601E+03  0.00000000000E+00 0.  1.
          6    1    1    2  501    0 -0.14246943261E+03  0.24543986723E+03  0.35781029352E+02  0.33377020495E+03  0.17200000000E+03 0.  1.
         -6    1    1    2    0  502  0.14246943261E+03 -0.24543986723E+03  0.52053124119E+03  0.61731275761E+03  0.17200000000E+03 0. -1.
<mgrwt>
<rscale>  2 0.33184675E+03</rscale>
<asrwt>0</asrwt>
<pdfrwt beam="1">  1       21 0.18842440E+00 0.33184675E+03</pdfrwt>
<pdfrwt beam="2">  1       21 0.49346338E-01 0.33184675E+03</pdfrwt>
<totfact> 0.55286504E+02</totfact>
</mgrwt>
</event>
<event>
 4    1  0.1119790E+000  0.1941454E+03  0.7546771E-02  0.1154775E+00
         21   -1    0    0  503  502  0.00000000000E+00  0.00000000000E+00  0.17369646297E+03  0.17369646297E+03  0.00000000000E+00 0.  1.
         21   -1    0    0  501  503 -0.00000000000E+00 -0.00000000000E+00 -0.33906355413E+03  0.33906355413E+03  0.00000000000E+00 0.  1.
          6    1    1    2  501    0 -0.28311395430E+02  0.85480397500E+02 -0.23651088386E+03  0.30598992084E+03  0.17200000000E+03 0.  1.
         -6    1    1    2    0  502  0.28311395430E+02 -0.85480397500E+02  0.71143792701E+02  0.20677009626E+03  0.17200000000E+03 0.  1.
<mgrwt>
<rscale>  2 0.19414539E+03</rscale>
<asrwt>0</asrwt>
<pdfrwt beam="1">  1       21 0.43424116E-01 0.19414539E+03</pdfrwt>
<pdfrwt beam="2">  1       21 0.84765888E-01 0.19414539E+03</pdfrwt>
<totfact> 0.61402579E+03</totfact>
</mgrwt>
</event>
<event>
 4    1  0.1119790E+000  0.1977929E+03  0.7546771E-02  0.1151615E+00
         21   -1    0    0  501  502  0.00000000000E+00  0.00000000000E+00  0.66154686428E+02  0.66154686428E+02  0.00000000000E+00 0. -1.
         21   -1    0    0  502  503 -0.00000000000E+00 -0.00000000000E+00 -0.59151479322E+03  0.59151479322E+03  0.00000000000E+00 0. -1.
          6    1    1    2  501    0  0.38957723815E+02 -0.89556356409E+02 -0.25757523057E+03  0.32475690081E+03  0.17200000000E+03 0. -1.
         -6    1    1    2    0  503 -0.38957723815E+02  0.89556356409E+02 -0.26778487622E+03  0.33291257884E+03  0.17200000000E+03 0. -1.
<mgrwt>
<rscale>  2 0.19779294E+03</rscale>
<asrwt>0</asrwt>
<pdfrwt beam="1">  1       21 0.16538672E-01 0.19779294E+03</pdfrwt>
<pdfrwt beam="2">  1       21 0.14787870E+00 0.19779294E+03</pdfrwt>
<totfact> 0.10142980E+04</totfact>
</mgrwt>
</event>
<event>
 4    1  0.1119790E+000  0.2575726E+03  0.7546771E-02  0.1108611E+00
         21   -1    0    0  501  502  0.00000000000E+00  0.00000000000E+00  0.24131540495E+03  0.24131540495E+03  0.00000000000E+00 0. -1.
         21   -1    0    0  502  503 -0.00000000000E+00 -0.00000000000E+00 -0.41663429187E+03  0.41663429187E+03  0.00000000000E+00 0. -1.
          6    1    1    2  501    0 -0.17383925985E+02  0.19093828687E+03  0.10420053895E+03  0.27785136781E+03  0.17200000000E+03 0. -1.
         -6    1    1    2    0  503  0.17383925985E+02 -0.19093828687E+03 -0.27951942587E+03  0.38009832901E+03  0.17200000000E+03 0. -1.
<mgrwt>
<rscale>  2 0.25757257E+03</rscale>
<asrwt>0</asrwt>
<pdfrwt beam="1">  1       21 0.60328852E-01 0.25757257E+03</pdfrwt>
<pdfrwt beam="2">  1       21 0.10415857E+00 0.25757257E+03</pdfrwt>
<totfact> 0.18091525E+03</totfact>
</mgrwt>
</event>
<event>
 4    1  0.1119790E+000  0.1769031E+03  0.7546771E-02  0.1170834E+00
         21   -1    0    0  501  502  0.00000000000E+00  0.00000000000E+00  0.16639262784E+03  0.16639262784E+03  0.00000000000E+00 0. -1.
         21   -1    0    0  502  503 -0.00000000000E+00 -0.00000000000E+00 -0.24483594404E+03  0.24483594404E+03  0.00000000000E+00 0. -1.
          6    1    1    2  501    0 -0.31794576210E+02 -0.26453799271E+02  0.59777428739E+02  0.18672985717E+03  0.17200000000E+03 0. -1.
         -6    1    1    2    0  503  0.31794576210E+02  0.26453799271E+02 -0.13822074494E+03  0.22449871470E+03  0.17200000000E+03 0. -1.
<mgrwt>
<rscale>  2 0.17690308E+03</rscale>
<asrwt>0</asrwt>
<pdfrwt beam="1">  1       21 0.41598157E-01 0.17690308E+03</pdfrwt>
<pdfrwt beam="2">  1       21 0.61208986E-01 0.17690308E+03</pdfrwt>
<totfact> 0.13954222E+04</totfact>
</mgrwt>
</event>
<event>
 4    1  0.1119790E+000  0.1798466E+03  0.7546771E-02  0.1167952E+00
         21   -1    0    0  503  502  0.00000000000E+00  0.00000000000E+00  0.70979362035E+02  0.70979362035E+02  0.00000000000E+00 0.  1.
         21   -1    0    0  501  503 -0.00000000000E+00 -0.00000000000E+00 -0.46558953407E+03  0.46558953407E+03  0.00000000000E+00 0.  1.
          6    1    1    2  501    0 -0.44074699732E+02  0.28604338316E+02 -0.23641968533E+03  0.29705059323E+03  0.17200000000E+03 0. -1.
         -6    1    1    2    0  502  0.44074699732E+02 -0.28604338316E+02 -0.15819048670E+03  0.23951830287E+03  0.17200000000E+03 0. -1.
<mgrwt>
<rscale>  2 0.17984657E+03</rscale>
<asrwt>0</asrwt>
<pdfrwt beam="1">  1       21 0.17744841E-01 0.17984657E+03</pdfrwt>
<pdfrwt beam="2">  1       21 0.11639738E+00 0.17984657E+03</pdfrwt>
<totfact> 0.16547890E+04</totfact>
</mgrwt>
</event>
<event>
 4    1  0.1119790E+000  0.1875337E+03  0.7546771E-02  0.1160705E+00
         21   -1    0    0  503  502  0.00000000000E+00  0.00000000000E+00  0.13596677946E+03  0.13596677946E+03  0.00000000000E+00 0. -1.
         21   -1    0    0  501  503 -0.00000000000E+00 -0.00000000000E+00 -0.26981783685E+03  0.26981783685E+03  0.00000000000E+00 0. -1.
          6    1    1    2  501    0  0.12786141472E+02  0.73630051541E+02 -0.10818871907E+03  0.21650327674E+03  0.17200000000E+03 0. -1.
         -6    1    1    2    0  502 -0.12786141472E+02 -0.73630051541E+02 -0.25662338320E+02  0.18928133958E+03  0.17200000000E+03 0. -1.
<mgrwt>
<rscale>  2 0.18753365E+03</rscale>
<asrwt>0</asrwt>
<pdfrwt beam="1">  1       21 0.33991695E-01 0.18753365E+03</pdfrwt>
<pdfrwt beam="2">  1       21 0.67454459E-01 0.18753365E+03</pdfrwt>
<totfact> 0.16814302E+04</totfact>
</mgrwt>
</event>
<event>
 4    1  0.1119790E+000  0.1749928E+03  0.7546771E-02  0.1172739E+00
         21   -1    0    0  501  502  0.00000000000E+00  0.00000000000E+00  0.44283537208E+03  0.44283537208E+03  0.00000000000E+00 0. -1.
         21   -1    0    0  502  503 -0.00000000000E+00 -0.00000000000E+00 -0.72994231324E+02  0.72994231324E+02  0.00000000000E+00 0. -1.
          6    1    1    2  501    0 -0.29312235937E+02 -0.13389063313E+02  0.24410189444E+03  0.30034681463E+03  0.17200000000E+03 0. -1.
         -6    1    1    2    0  503  0.29312235937E+02  0.13389063313E+02  0.12573924632E+03  0.21548278877E+03  0.17200000000E+03 0. -1.
<mgrwt>
<rscale>  2 0.17499278E+03</rscale>
<asrwt>0</asrwt>
<pdfrwt beam="1">  1       21 0.11070884E+00 0.17499278E+03</pdfrwt>
<pdfrwt beam="2">  1       21 0.18248559E-01 0.17499278E+03</pdfrwt>
<totfact> 0.17804753E+04</totfact>
</mgrwt>
</event>
<event>
 4    1  0.1119790E+000  0.2660398E+03  0.7546771E-02  0.1103568E+00
         21   -1    0    0  503  502  0.00000000000E+00  0.00000000000E+00  0.83429376132E+02  0.83429376132E+02  0.00000000000E+00 0.  1.
         21   -1    0    0  501  503 -0.00000000000E+00 -0.00000000000E+00 -0.10329012997E+04  0.10329012997E+04  0.00000000000E+00 0. -1.
          6    1    1    2  501    0  0.50795960073E+02 -0.19650174761E+03 -0.71067187280E+03  0.75883573793E+03  0.17200000000E+03 0. -1.
         -6    1    1    2    0  502 -0.50795960073E+02  0.19650174761E+03 -0.23880005077E+03  0.35749493790E+03  0.17200000000E+03 0.  1.
<mgrwt>
<rscale>  2 0.26603978E+03</rscale>
<asrwt>0</asrwt>
<pdfrwt beam="1">  1       21 0.20857344E-01 0.26603978E+03</pdfrwt>
<pdfrwt beam="2">  1       21 0.25822532E+00 0.26603978E+03</pdfrwt>
<totfact> 0.11755968E+03</totfact>
</mgrwt>
</event>
<event>
 4    1  0.1119790E+000  0.2504173E+03  0.7546771E-02  0.1113041E+00
         21   -1    0    0  501  502  0.00000000000E+00  0.00000000000E+00  0.54273147540E+03  0.54273147540E+03  0.00000000000E+00 0.  1.
         21   -1    0    0  502  503 -0.00000000000E+00 -0.00000000000E+00 -0.12413145651E+03  0.12413145651E+03  0.00000000000E+00 0. -1.
          6    1    1    2  501    0 -0.17308396768E+03 -0.56273908144E+02  0.29700487649E+03  0.38848514678E+03  0.17200000000E+03 0. -1.
         -6    1    1    2    0  503  0.17308396768E+03  0.56273908144E+02  0.12159514239E+03  0.27837778513E+03  0.17200000000E+03 0. -1.
<mgrwt>
<rscale>  2 0.25041728E+03</rscale>
<asrwt>0</asrwt>
<pdfrwt beam="1">  1       21 0.13568286E+00 0.25041728E+03</pdfrwt>
<pdfrwt beam="2">  1       21 0.31032866E-01 0.25041728E+03</pdfrwt>
<totfact> 0.36994411E+03</totfact>
</mgrwt>
</event>
<event>
 4    1  0.1119790E+000  0.1930296E+03  0.7546771E-02  0.1155757E+00
         21   -1    0    0  503  502  0.00000000000E+00  0.00000000000E+00  0.30371542492E+03  0.30371542492E+03  0.00000000000E+00 0. -1.
         21   -1    0    0  501  503 -0.00000000000E+00 -0.00000000000E+00 -0.12625132640E+03  0.12625132640E+03  0.00000000000E+00 0. -1.
          6    1    1    2  501    0  0.38357466639E+02  0.78772578493E+02  0.12487971966E+03  0.22990293333E+03  0.17200000000E+03 0.  1.
         -6    1    1    2    0  502 -0.38357466639E+02 -0.78772578493E+02  0.52584378864E+02  0.20006381799E+03  0.17200000000E+03 0.  1.
<mgrwt>
<rscale>  2 0.19302957E+03</rscale>
<asrwt>0</asrwt>
<pdfrwt beam="1">  1       21 0.75928855E-01 0.19302957E+03</pdfrwt>
<pdfrwt beam="2">  1       21 0.31562832E-01 0.19302957E+03</pdfrwt>
<totfact> 0.14922659E+04</totfact>
</mgrwt>
</event>
<event>
 4    1  0.1119790E+000  0.2323840E+03  0.7546771E-02  0.1124973E+00
         21   -1    0    0  503  502  0.00000000000E+00  0.00000000000E+00  0.94528715697E+03  0.94528715697E+03  0.00000000000E+00 0. -1.
         21   -1    0    0  501  503 -0.00000000000E+00 -0.00000000000E+00 -0.71202547075E+02  0.71202547075E+02  0.00000000000E+00 0. -1.
          6    1    1    2  501    0  0.12630518260E+03 -0.92007105315E+02  0.21107615492E+03  0.31393542290E+03  0.17200000000E+03 0. -1.
         -6    1    1    2    0  502 -0.12630518260E+03  0.92007105315E+02  0.66300845498E+03  0.70255428114E+03  0.17200000000E+03 0. -1.
<mgrwt>
<rscale>  2 0.23238396E+03</rscale>
<asrwt>0</asrwt>
<pdfrwt beam="1">  1       21 0.23632175E+00 0.23238396E+03</pdfrwt>
<pdfrwt beam="2">  1       21 0.17800640E-01 0.23238396E+03</pdfrwt>
<totfact> 0.22048500E+03</totfact>
</mgrwt>
</event>
<event>
 4    1  0.1119790E+000  0.1759772E+03  0.7546771E-02  0.1171754E+00
         21   -1    0    0  503  502  0.00000000000E+00  0.00000000000E+00  0.10599561254E+03  0.10599561254E+03  0.00000000000E+00 0.  1.
         21   -1    0    0  501  503 -0.00000000000E+00 -0.00000000000E+00 -0.59377354823E+03  0.59377354823E+03  0.00000000000E+00 0.  1.
          6    1    1    2  501    0  0.30399019417E+02 -0.21444844593E+02 -0.49325525606E+03  0.52370672076E+03  0.17200000000E+03 0.  1.
         -6    1    1    2    0  502 -0.30399019417E+02  0.21444844593E+02  0.54773203696E+01  0.17606244000E+03  0.17200000000E+03 0.  1.
<mgrwt>
<rscale>  2 0.17597722E+03</rscale>
<asrwt>0</asrwt>
<pdfrwt beam="1">  1       21 0.26498904E-01 0.17597722E+03</pdfrwt>
<pdfrwt beam="2">  1       21 0.14844338E+00 0.17597722E+03</pdfrwt>
<totfact> 0.42243965E+03</totfact>
</mgrwt>
</event>
<event>
 4    1  0.1119790E+000  0.1837176E+03  0.7546771E-02  0.1164253E+00
         21   -1    0    0  503  502  0.00000000000E+00  0.00000000000E+00  0.24600844328E+03  0.24600844328E+03  0.00000000000E+00 0. -1.
         21   -1    0    0  501  503 -0.00000000000E+00 -0.00000000000E+00 -0.13739791663E+03  0.13739791663E+03  0.00000000000E+00 0. -1.
          6    1    1    2  501    0  0.50227975987E+02  0.40562266401E+02  0.61596834509E+02  0.19376872051E+03  0.17200000000E+03 0. -1.
         -6    1    1    2    0  502 -0.50227975987E+02 -0.40562266401E+02  0.47013692146E+02  0.18963763940E+03  0.17200000000E+03 0. -1.
<mgrwt>
<rscale>  2 0.18371757E+03</rscale>
<asrwt>0</asrwt>
<pdfrwt beam="1">  1       21 0.61502110E-01 0.18371757E+03</pdfrwt>
<pdfrwt beam="2">  1       21 0.34349479E-01 0.18371757E+03</pdfrwt>
<totfact> 0.20174003E+04</totfact>
</mgrwt>
</event>
<event>
 4    1  0.1119790E+000  0.1790360E+03  0.7546771E-02  0.1168739E+00
         21   -1    0    0  501  502  0.00000000000E+00  0.00000000000E+00  0.40662549701E+03  0.40662549701E+03  0.00000000000E+00 0.  1.
         21   -1    0    0  502  503 -0.00000000000E+00 -0.00000000000E+00 -0.13377253819E+03  0.13377253819E+03  0.00000000000E+00 0.  1.
          6    1    1    2  501    0  0.44411120498E+02  0.22305442712E+02  0.30959087538E+03  0.35763164082E+03  0.17200000000E+03 0.  1.
         -6    1    1    2    0  503 -0.44411120498E+02 -0.22305442712E+02 -0.36737916564E+02  0.18276639437E+03  0.17200000000E+03 0.  1.
<mgrwt>
<rscale>  2 0.17903598E+03</rscale>
<asrwt>0</asrwt>
<pdfrwt beam="1">  1       21 0.10165637E+00 0.17903598E+03</pdfrwt>
<pdfrwt beam="2">  1       21 0.33443135E-01 0.17903598E+03</pdfrwt>
<totfact> 0.68693400E+03</totfact>
</mgrwt>
</event>
<event>
 4    1  0.1119790E+000  0.1795340E+03  0.7546771E-02  0.1168255E+00
         21   -1    0    0  501  502  0.00000000000E+00  0.00000000000E+00  0.63821732295E+02  0.63821732295E+02  0.00000000000E+00 0.  1.
         21   -1    0    0  502  503 -0.00000000000E+00 -0.00000000000E+00 -0.54082322899E+03  0.54082322899E+03  0.00000000000E+00 0.  1.
          6    1    1    2  501    0  0.34753281262E+02 -0.37956176858E+02 -0.16073492216E+03  0.24097339505E+03  0.17200000000E+03 0.  1.
         -6    1    1    2    0  503 -0.34753281262E+02  0.37956176858E+02 -0.31626657454E+03  0.36367156624E+03  0.17200000000E+03 0.  1.
<mgrwt>
<rscale>  2 0.17953401E+03</rscale>
<asrwt>0</asrwt>
<pdfrwt beam="1">  1       21 0.15955433E-01 0.17953401E+03</pdfrwt>
<pdfrwt beam="2">  1       21 0.13520581E+00 0.17953401E+03</pdfrwt>
<totfact> 0.13841785E+04</totfact>
</mgrwt>
</event>
<event>
 4    1  0.1119790E+000  0.1899203E+03  0.7546771E-02  0.1158533E+00
         21   -1    0    0  501  502  0.00000000000E+00  0.00000000000E+00  0.10790462161E+03  0.10790462161E+03  0.00000000000E+00 0. -1.
         21   -1    0    0  502  503 -0.00000000000E+00 -0.00000000000E+00 -0.55241280474E+03  0.55241280474E+03  0.00000000000E+00 0. -1.
          6    1    1    2  501    0 -0.41976977673E+02 -0.68728895205E+02 -0.14783191331E+02  0.19049480422E+03  0.17200000000E+03 0. -1.
         -6    1    1    2    0  503  0.41976977673E+02  0.68728895205E+02 -0.42972499180E+03  0.46982262213E+03  0.17200000000E+03 0. -1.
<mgrwt>
<rscale>  2 0.18992032E+03</rscale>
<asrwt>0</asrwt>
<pdfrwt beam="1">  1       21 0.26976156E-01 0.18992032E+03</pdfrwt>
<pdfrwt beam="2">  1       21 0.13810320E+00 0.18992032E+03</pdfrwt>
<totfact> 0.48634978E+03</totfact>
</mgrwt>
</event>
<event>
 4    1  0.1119790E+000  0.1899027E+03  0.7546771E-02  0.1158549E+00
         21   -1    0    0  503  502  0.00000000000E+00  0.00000000000E+00  0.11077533910E+03  0.11077533910E+03  0.00000000000E+00 0. -1.
         21   -1    0    0  501  503 -0.00000000000E+00 -0.00000000000E+00 -0.32629615837E+03  0.32629615837E+03  0.00000000000E+00 0. -1.
          6    1    1    2  501    0  0.20121357647E+02 -0.77936932402E+02 -0.97317798324E+02  0.21338647646E+03  0.17200000000E+03 0.  1.
         -6    1    1    2    0  502 -0.20121357647E+02  0.77936932402E+02 -0.11820302094E+03  0.22368502101E+03  0.17200000000E+03 0.  1.
<mgrwt>
<rscale>  2 0.18990270E+03</rscale>
<asrwt>0</asrwt>
<pdfrwt beam="1">  1       21 0.27693835E-01 0.18990270E+03</pdfrwt>
<pdfrwt beam="2">  1       21 0.81574039E-01 0.18990270E+03</pdfrwt>
<totfact> 0.16406372E+04</totfact>
</mgrwt>
</event>
<event>
 4    1  0.1119790E+000  0.1835545E+03  0.7546771E-02  0.1164407E+00
         21   -1    0    0  501  502  0.00000000000E+00  0.00000000000E+00  0.10124240168E+04  0.10124240168E+04  0.00000000000E+00 0. -1.
         21   -1    0    0  502  503 -0.00000000000E+00 -0.00000000000E+00 -0.57529606932E+02  0.57529606932E+02  0.00000000000E+00 0. -1.
          6    1    1    2  501    0 -0.49688697898E+02  0.40487997685E+02  0.82478532994E+03  0.84496336320E+03  0.17200000000E+03 0. -1.
         -6    1    1    2    0  503  0.49688697898E+02 -0.40487997685E+02  0.13010907992E+03  0.22499026053E+03  0.17200000000E+03 0. -1.
<mgrwt>
<rscale>  2 0.18355447E+03</rscale>
<asrwt>0</asrwt>
<pdfrwt beam="1">  1       21 0.25310595E+00 0.18355447E+03</pdfrwt>
<pdfrwt beam="2">  1       21 0.14382405E-01 0.18355447E+03</pdfrwt>
<totfact> 0.27280677E+03</totfact>
</mgrwt>
</event>
<event>
 4    1  0.1119790E+000  0.2074286E+03  0.7546771E-02  0.1143619E+00
         21   -1    0    0  503  502  0.00000000000E+00  0.00000000000E+00  0.28300114344E+03  0.28300114344E+03  0.00000000000E+00 0.  1.
         21   -1    0    0  501  503 -0.00000000000E+00 -0.00000000000E+00 -0.46940979557E+03  0.46940979557E+03  0.00000000000E+00 0.  1.
          6    1    1    2  501    0  0.94121095547E+02 -0.67704211457E+02 -0.40254276496E+03  0.45284359164E+03  0.17200000000E+03 0.  1.
         -6    1    1    2    0  502 -0.94121095547E+02  0.67704211457E+02  0.21613411283E+03  0.29956734736E+03  0.17200000000E+03 0.  1.
<mgrwt>
<rscale>  2 0.20742864E+03</rscale>
<asrwt>0</asrwt>
<pdfrwt beam="1">  1       21 0.70750286E-01 0.20742864E+03</pdfrwt>
<pdfrwt beam="2">  1       21 0.11735245E+00 0.20742864E+03</pdfrwt>
<totfact> 0.99504204E+02</totfact>
</mgrwt>
</event>
<event>
 4    1  0.1119790E+000  0.2101448E+03  0.7546771E-02  0.1141451E+00
         21   -1    0    0  501  502  0.00000000000E+00  0.00000000000E+00  0.74347421309E+03  0.74347421309E+03  0.00000000000E+00 0.  1.
         21   -1    0    0  502  503 -0.00000000000E+00 -0.00000000000E+00 -0.14167401942E+03  0.14167401942E+03  0.00000000000E+00 0.  1.
          6    1    1    2  501    0  0.99253392062E+02 -0.68742916078E+02  0.63817011914E+03  0.67187939789E+03  0.17200000000E+03 0.  1.
         -6    1    1    2    0  503 -0.99253392062E+02  0.68742916078E+02 -0.36369925464E+02  0.21326883463E+03  0.17200000000E+03 0.  1.
<mgrwt>
<rscale>  2 0.21014477E+03</rscale>
<asrwt>0</asrwt>
<pdfrwt beam="1">  1       21 0.18586854E+00 0.21014477E+03</pdfrwt>
<pdfrwt beam="2">  1       21 0.35418507E-01 0.21014477E+03</pdfrwt>
<totfact> 0.12536747E+03</totfact>
</mgrwt>
</event>
<event>
 4    1  0.1119790E+000  0.2199220E+03  0.7546771E-02  0.1133941E+00
         21   -1    0    0  501  502  0.00000000000E+00  0.00000000000E+00  0.56580063500E+03  0.56580063500E+03  0.00000000000E+00 0. -1.
         21   -1    0    0  502  503 -0.00000000000E+00 -0.00000000000E+00 -0.24228320680E+03  0.24228320680E+03  0.00000000000E+00 0. -1.
          6    1    1    2  501    0  0.82036436437E+02 -0.10978028756E+03  0.48680085537E+03  0.53417296939E+03  0.17200000000E+03 0. -1.
         -6    1    1    2    0  503 -0.82036436437E+02  0.10978028756E+03 -0.16328342717E+03  0.27391087242E+03  0.17200000000E+03 0. -1.
<mgrwt>
<rscale>  2 0.21992201E+03</rscale>
<asrwt>0</asrwt>
<pdfrwt beam="1">  1       21 0.14145016E+00 0.21992201E+03</pdfrwt>
<pdfrwt beam="2">  1       21 0.60570803E-01 0.21992201E+03</pdfrwt>
<totfact> 0.86059114E+02</totfact>
</mgrwt>
</event>
<event>
 4    1  0.1119790E+000  0.1816055E+03  0.7546771E-02  0.1166258E+00
         21   -1    0    0  503  502  0.00000000000E+00  0.00000000000E+00  0.15338145759E+03  0.15338145759E+03  0.00000000000E+00 0. -1.
         21   -1    0    0  501  503 -0.00000000000E+00 -0.00000000000E+00 -0.25341807415E+03  0.25341807415E+03  0.00000000000E+00 0. -1.
          6    1    1    2  501    0  0.46544281611E+02  0.35074136535E+02 -0.12918974464E+03  0.22286891960E+03  0.17200000000E+03 0. -1.
         -6    1    1    2    0  502 -0.46544281611E+02 -0.35074136535E+02  0.29153128089E+02  0.18393061214E+03  0.17200000000E+03 0. -1.
<mgrwt>
<rscale>  2 0.18160552E+03</rscale>
<asrwt>0</asrwt>
<pdfrwt beam="1">  1       21 0.38345365E-01 0.18160552E+03</pdfrwt>
<pdfrwt beam="2">  1       21 0.63354518E-01 0.18160552E+03</pdfrwt>
<totfact> 0.15218823E+04</totfact>
</mgrwt>
</event>
<event>
 4    1  0.1119790E+000  0.1995942E+03  0.7546771E-02  0.1150082E+00
         21   -1    0    0  501  502  0.00000000000E+00  0.00000000000E+00  0.74921080163E+02  0.74921080163E+02  0.00000000000E+00 0. -1.
         21   -1    0    0  502  503 -0.00000000000E+00 -0.00000000000E+00 -0.53967564035E+03  0.53967564035E+03  0.00000000000E+00 0. -1.
          6    1    1    2  501    0 -0.17870192853E+02  0.99671997157E+02 -0.19509223881E+03  0.27910362315E+03  0.17200000000E+03 0. -1.
         -6    1    1    2    0  503  0.17870192853E+02 -0.99671997157E+02 -0.26966232137E+03  0.33549309736E+03  0.17200000000E+03 0. -1.
<mgrwt>
<rscale>  2 0.19959422E+03</rscale>
<asrwt>0</asrwt>
<pdfrwt beam="1">  1       21 0.18730270E-01 0.19959422E+03</pdfrwt>
<pdfrwt beam="2">  1       21 0.13491891E+00 0.19959422E+03</pdfrwt>
<totfact> 0.10209325E+04</totfact>
</mgrwt>
</event>
<event>
 4    1  0.1119790E+000  0.1989851E+03  0.7546771E-02  0.1150598E+00
         21   -1    0    0  503  502  0.00000000000E+00  0.00000000000E+00  0.36654101013E+03  0.36654101013E+03  0.00000000000E+00 0. -1.
         21   -1    0    0  501  503 -0.00000000000E+00 -0.00000000000E+00 -0.15728532393E+03  0.15728532393E+03  0.00000000000E+00 0. -1.
          6    1    1    2  501    0 -0.95020613927E+02  0.31339254136E+02 -0.41949956327E+02  0.20335895544E+03  0.17200000000E+03 0. -1.
         -6    1    1    2    0  502  0.95020613927E+02 -0.31339254136E+02  0.25120564253E+03  0.32046737862E+03  0.17200000000E+03 0. -1.
<mgrwt>
<rscale>  2 0.19898509E+03</rscale>
<asrwt>0</asrwt>
<pdfrwt beam="1">  1       21 0.91635251E-01 0.19898509E+03</pdfrwt>
<pdfrwt beam="2">  1       21 0.39321332E-01 0.19898509E+03</pdfrwt>
<totfact> 0.62525383E+03</totfact>
</mgrwt>
</event>
<event>
 4    1  0.1119790E+000  0.1974483E+03  0.7546771E-02  0.1151910E+00
         21   -1    0    0  503  502  0.00000000000E+00  0.00000000000E+00  0.14690096284E+03  0.14690096284E+03  0.00000000000E+00 0. -1.
         21   -1    0    0  501  503 -0.00000000000E+00 -0.00000000000E+00 -0.33473261052E+03  0.33473261052E+03  0.00000000000E+00 0. -1.
          6    1    1    2  501    0 -0.40317240488E+02  0.88183677575E+02 -0.20352381608E+03  0.28356266429E+03  0.17200000000E+03 0. -1.
         -6    1    1    2    0  502  0.40317240488E+02 -0.88183677575E+02  0.15692168396E+02  0.19807090907E+03  0.17200000000E+03 0. -1.
<mgrwt>
<rscale>  2 0.19744832E+03</rscale>
<asrwt>0</asrwt>
<pdfrwt beam="1">  1       21 0.36725241E-01 0.19744832E+03</pdfrwt>
<pdfrwt beam="2">  1       21 0.83683152E-01 0.19744832E+03</pdfrwt>
<totfact> 0.88490500E+03</totfact>
</mgrwt>
</event>
<event>
 4    1  0.1119790E+000  0.1771081E+03  0.7546771E-02  0.1170632E+00
         21   -1    0    0  503  502  0.00000000000E+00  0.00000000000E+00  0.19157004278E+03  0.19157004278E+03  0.00000000000E+00 0.  1.
         21   -1    0    0  501  503 -0.00000000000E+00 -0.00000000000E+00 -0.23948435726E+03  0.23948435726E+03  0.00000000000E+00 0.  1.
          6    1    1    2  501    0 -0.38726362800E+02 -0.16838826033E+02 -0.14516889093E+03  0.22900062038E+03  0.17200000000E+03 0.  1.
         -6    1    1    2    0  502  0.38726362800E+02  0.16838826033E+02  0.97254576451E+02  0.20205377967E+03  0.17200000000E+03 0.  1.
<mgrwt>
<rscale>  2 0.17710809E+03</rscale>
<asrwt>0</asrwt>
<pdfrwt beam="1">  1       21 0.47892511E-01 0.17710809E+03</pdfrwt>
<pdfrwt beam="2">  1       21 0.59871089E-01 0.17710809E+03</pdfrwt>
<totfact> 0.10964243E+04</totfact>
</mgrwt>
</event>
<event>
 4    1  0.1119790E+000  0.1865868E+03  0.7546771E-02  0.1161576E+00
         21   -1    0    0  503  502  0.00000000000E+00  0.00000000000E+00  0.48788456870E+03  0.48788456870E+03  0.00000000000E+00 0. -1.
         21   -1    0    0  501  503 -0.00000000000E+00 -0.00000000000E+00 -0.11101580396E+03  0.11101580396E+03  0.00000000000E+00 0. -1.
          6    1    1    2  501    0  0.45711355975E+02  0.56045681636E+02  0.94585048784E+01  0.18682641625E+03  0.17200000000E+03 0. -1.
         -6    1    1    2    0  502 -0.45711355975E+02 -0.56045681636E+02  0.36741025986E+03  0.41207395640E+03  0.17200000000E+03 0. -1.
<mgrwt>
<rscale>  2 0.18658683E+03</rscale>
<asrwt>0</asrwt>
<pdfrwt beam="1">  1       21 0.12197114E+00 0.18658683E+03</pdfrwt>
<pdfrwt beam="2">  1       21 0.27753952E-01 0.18658683E+03</pdfrwt>
<totfact> 0.63151268E+03</totfact>
</mgrwt>
</event>
<event>
 4    1  0.1119790E+000  0.1752895E+03  0.7546771E-02  0.1172441E+00
         21   -1    0    0  503  502  0.00000000000E+00  0.00000000000E+00  0.27216954718E+03  0.27216954718E+03  0.00000000000E+00 0. -1.
         21   -1    0    0  501  503 -0.00000000000E+00 -0.00000000000E+00 -0.12218574117E+03  0.12218574117E+03  0.00000000000E+00 0. -1.
          6    1    1    2  501    0  0.58941190390E+01 -0.33281533338E+02  0.20618308893E+02  0.17649791999E+03  0.17200000000E+03 0. -1.
         -6    1    1    2    0  502 -0.58941190390E+01  0.33281533338E+02  0.12936549712E+03  0.21785736835E+03  0.17200000000E+03 0. -1.
<mgrwt>
<rscale>  2 0.17528948E+03</rscale>
<asrwt>0</asrwt>
<pdfrwt beam="1">  1       21 0.68042386E-01 0.17528948E+03</pdfrwt>
<pdfrwt beam="2">  1       21 0.30546436E-01 0.17528948E+03</pdfrwt>
<totfact> 0.20502350E+04</totfact>
</mgrwt>
</event>
<event>
 4    1  0.1119790E+000  0.1980931E+03  0.7546771E-02  0.1151358E+00
         21   -1    0    0  501  502  0.00000000000E+00  0.00000000000E+00  0.21563100360E+03  0.21563100360E+03  0.00000000000E+00 0.  1.
         21   -1    0    0  502  503 -0.00000000000E+00 -0.00000000000E+00 -0.41582975267E+03  0.41582975267E+03  0.00000000000E+00 0. -1.
          6    1    1    2  501    0  0.93270535763E+02  0.30943226981E+02  0.13667001630E+03  0.24066484889E+03  0.17200000000E+03 0.  1.
         -6    1    1    2    0  503 -0.93270535763E+02 -0.30943226981E+02 -0.33686876537E+03  0.39079590737E+03  0.17200000000E+03 0. -1.
<mgrwt>
<rscale>  2 0.19809310E+03</rscale>
<asrwt>0</asrwt>
<pdfrwt beam="1">  1       21 0.53907751E-01 0.19809310E+03</pdfrwt>
<pdfrwt beam="2">  1       21 0.10395744E+00 0.19809310E+03</pdfrwt>
<totfact> 0.24234219E+03</totfact>
</mgrwt>
</event>
<event>
 4    1  0.1119790E+000  0.1732419E+03  0.7546771E-02  0.1174509E+00
         21   -1    0    0  503  502  0.00000000000E+00  0.00000000000E+00  0.26849473424E+03  0.26849473424E+03  0.00000000000E+00 0. -1.
         21   -1    0    0  501  503 -0.00000000000E+00 -0.00000000000E+00 -0.11201666323E+03  0.11201666323E+03  0.00000000000E+00 0. -1.
          6    1    1    2  501    0 -0.13191176614E+02  0.15960689199E+02  0.69522210106E+02  0.18667107017E+03  0.17200000000E+03 0.  1.
         -6    1    1    2    0  502  0.13191176614E+02 -0.15960689199E+02  0.86955860904E+02  0.19384032729E+03  0.17200000000E+03 0.  1.
<mgrwt>
<rscale>  2 0.17324189E+03</rscale>
<asrwt>0</asrwt>
<pdfrwt beam="1">  1       21 0.67123682E-01 0.17324189E+03</pdfrwt>
<pdfrwt beam="2">  1       21 0.28004166E-01 0.17324189E+03</pdfrwt>
<totfact> 0.25026907E+04</totfact>
</mgrwt>
</event>
<event>
 4    1  0.1119790E+000  0.2031814E+03  0.7546771E-02  0.1147082E+00
         21   -1    0    0  503  502  0.00000000000E+00  0.00000000000E+00  0.16943304486E+03  0.16943304486E+03  0.00000000000E+00 0.  1.
         21   -1    0    0  501  503 -0.00000000000E+00 -0.00000000000E+00 -0.24976433966E+03  0.24976433966E+03  0.00000000000E+00 0.  1.
          6    1    1    2  501    0 -0.10733849981E+03  0.13309547048E+02 -0.72954608086E+02  0.21588207991E+03  0.17200000000E+03 0.  1.
         -6    1    1    2    0  502  0.10733849981E+03 -0.13309547048E+02 -0.73766867079E+01  0.20331530462E+03  0.17200000000E+03 0.  1.
<mgrwt>
<rscale>  2 0.20318144E+03</rscale>
<asrwt>0</asrwt>
<pdfrwt beam="1">  1       21 0.42358261E-01 0.20318144E+03</pdfrwt>
<pdfrwt beam="2">  1       21 0.62441085E-01 0.20318144E+03</pdfrwt>
<totfact> 0.12663658E+04</totfact>
</mgrwt>
</event>
<event>
 4    1  0.1119790E+000  0.1767242E+03  0.7546771E-02  0.1171012E+00
         21   -1    0    0  503  502  0.00000000000E+00  0.00000000000E+00  0.41281823415E+03  0.41281823415E+03  0.00000000000E+00 0. -1.
         21   -1    0    0  501  503 -0.00000000000E+00 -0.00000000000E+00 -0.10108817846E+03  0.10108817846E+03  0.00000000000E+00 0. -1.
          6    1    1    2  501    0  0.29725746304E+02  0.27637315946E+02  0.26977515802E+02  0.17877143951E+03  0.17200000000E+03 0.  1.
         -6    1    1    2    0  502 -0.29725746304E+02 -0.27637315946E+02  0.28475253988E+03  0.33513497310E+03  0.17200000000E+03 0.  1.
<mgrwt>
<rscale>  2 0.17672420E+03</rscale>
<asrwt>0</asrwt>
<pdfrwt beam="1">  1       21 0.10320455E+00 0.17672420E+03</pdfrwt>
<pdfrwt beam="2">  1       21 0.25272046E-01 0.17672420E+03</pdfrwt>
<totfact> 0.11424534E+04</totfact>
</mgrwt>
</event>
<event>
 4    1  0.1119790E+000  0.1928871E+03  0.7546771E-02  0.1155883E+00
         21   -1    0    0  501  502  0.00000000000E+00  0.00000000000E+00  0.10967305100E+03  0.10967305100E+03  0.00000000000E+00 0.  1.
         21   -1    0    0  502  503 -0.00000000000E+00 -0.00000000000E+00 -0.68184783441E+03  0.68184783441E+03  0.00000000000E+00 0.  1.
          6    1    1    2  501    0 -0.27906172003E+02 -0.82720523489E+02 -0.55520615667E+01  0.19296700451E+03  0.17200000000E+03 0.  1.
         -6    1    1    2    0  503  0.27906172003E+02  0.82720523489E+02 -0.56662272184E+03  0.59855388091E+03  0.17200000000E+03 0.  1.
<mgrwt>
<rscale>  2 0.19288712E+03</rscale>
<asrwt>0</asrwt>
<pdfrwt beam="1">  1       21 0.27418263E-01 0.19288712E+03</pdfrwt>
<pdfrwt beam="2">  1       21 0.17046196E+00 0.19288712E+03</pdfrwt>
<totfact> 0.26867006E+03</totfact>
</mgrwt>
</event>
<event>
 4    1  0.1119790E+000  0.2750043E+03  0.7546771E-02  0.1098449E+00
         21   -1    0    0  501  502  0.00000000000E+00  0.00000000000E+00  0.78062409801E+02  0.78062409801E+02  0.00000000000E+00 0.  1.
         21   -1    0    0  502  503 -0.00000000000E+00 -0.00000000000E+00 -0.98167531352E+03  0.98167531352E+03  0.00000000000E+00 0.  1.
          6    1    1    2  501    0  0.18307715414E+03 -0.11192003594E+03 -0.39113834219E+03  0.47813862168E+03  0.17200000000E+03 0.  1.
         -6    1    1    2    0  503 -0.18307715414E+03  0.11192003594E+03 -0.51247456153E+03  0.58159910164E+03  0.17200000000E+03 0.  1.
<mgrwt>
<rscale>  2 0.27500425E+03</rscale>
<asrwt>0</asrwt>
<pdfrwt beam="1">  1       21 0.19515602E-01 0.27500425E+03</pdfrwt>
<pdfrwt beam="2">  1       21 0.24541883E+00 0.27500425E+03</pdfrwt>
<totfact> 0.15772787E+03</totfact>
</mgrwt>
</event>
<event>
 4    1  0.1119790E+000  0.2005968E+03  0.7546771E-02  0.1149236E+00
         21   -1    0    0  503  502  0.00000000000E+00  0.00000000000E+00  0.46113124364E+03  0.46113124364E+03  0.00000000000E+00 0. -1.
         21   -1    0    0  501  503 -0.00000000000E+00 -0.00000000000E+00 -0.14877780491E+03  0.14877780491E+03  0.00000000000E+00 0. -1.
          6    1    1    2  501    0  0.36897646580E+02 -0.96403613279E+02 -0.39915538422E+02  0.20452956555E+03  0.17200000000E+03 0. -1.
         -6    1    1    2    0  502 -0.36897646580E+02  0.96403613279E+02  0.35226897715E+03  0.40537948300E+03  0.17200000000E+03 0. -1.
<mgrwt>
<rscale>  2 0.20059684E+03</rscale>
<asrwt>0</asrwt>
<pdfrwt beam="1">  1       21 0.11528281E+00 0.20059684E+03</pdfrwt>
<pdfrwt beam="2">  1       21 0.37194452E-01 0.20059684E+03</pdfrwt>
<totfact> 0.40359717E+03</totfact>
</mgrwt>
</event>
<event>
 4    1  0.1119790E+000  0.1906043E+03  0.7546771E-02  0.1157917E+00
         21   -1    0    0  503  502  0.00000000000E+00  0.00000000000E+00  0.28924107387E+03  0.28924107387E+03  0.00000000000E+00 0.  1.
         21   -1    0    0  501  503 -0.00000000000E+00 -0.00000000000E+00 -0.22004505845E+03  0.22004505845E+03  0.00000000000E+00 0.  1.
          6    1    1    2  501    0  0.61391920357E+02 -0.54562012638E+02 -0.13222475650E+03  0.23197708365E+03  0.17200000000E+03 0.  1.
         -6    1    1    2    0  502 -0.61391920357E+02  0.54562012638E+02  0.20142077193E+03  0.27730904867E+03  0.17200000000E+03 0.  1.
<mgrwt>
<rscale>  2 0.19060425E+03</rscale>
<asrwt>0</asrwt>
<pdfrwt beam="1">  1       21 0.72310268E-01 0.19060425E+03</pdfrwt>
<pdfrwt beam="2">  1       21 0.55011265E-01 0.19060425E+03</pdfrwt>
<totfact> 0.53854738E+03</totfact>
</mgrwt>
</event>
<event>
 4    1  0.1119790E+000  0.1722980E+03  0.7546771E-02  0.1175472E+00
         21   -1    0    0  501  502  0.00000000000E+00  0.00000000000E+00  0.34357648970E+02  0.34357648970E+02  0.00000000000E+00 0. -1.
         21   -1    0    0  502  503 -0.00000000000E+00 -0.00000000000E+00 -0.10133106780E+04  0.10133106780E+04  0.00000000000E+00 0. -1.
          6    1    1    2  501    0  0.10061233555E+02 -0.11727483656E+01 -0.28842820978E+03  0.33597237380E+03  0.17200000000E+03 0. -1.
         -6    1    1    2    0  503 -0.10061233555E+02  0.11727483656E+01 -0.69052481922E+03  0.71169595314E+03  0.17200000000E+03 0. -1.
<mgrwt>
<rscale>  2 0.17229801E+03</rscale>
<asrwt>0</asrwt>
<pdfrwt beam="1">  1       21 0.85894122E-02 0.17229801E+03</pdfrwt>
<pdfrwt beam="2">  1       21 0.25332767E+00 0.17229801E+03</pdfrwt>
<totfact> 0.68846635E+03</totfact>
</mgrwt>
</event>
<event>
 4    1  0.1119790E+000  0.2063225E+03  0.7546771E-02  0.1144512E+00
         21   -1    0    0  503  502  0.00000000000E+00  0.00000000000E+00  0.73523093887E+03  0.73523093887E+03  0.00000000000E+00 0.  1.
         21   -1    0    0  501  503 -0.00000000000E+00 -0.00000000000E+00 -0.59297747112E+02  0.59297747112E+02  0.00000000000E+00 0.  1.
          6    1    1    2  501    0 -0.10541054477E+03 -0.43284911319E+02  0.27694748072E+03  0.34535325911E+03  0.17200000000E+03 0.  1.
         -6    1    1    2    0  502  0.10541054477E+03  0.43284911319E+02  0.39898571104E+03  0.44917542688E+03  0.17200000000E+03 0.  1.
<mgrwt>
<rscale>  2 0.20632248E+03</rscale>
<asrwt>0</asrwt>
<pdfrwt beam="1">  1       21 0.18380771E+00 0.20632248E+03</pdfrwt>
<pdfrwt beam="2">  1       21 0.14824439E-01 0.20632248E+03</pdfrwt>
<totfact> 0.67936786E+03</totfact>
</mgrwt>
</event>
<event>
 4    1  0.1119790E+000  0.2089226E+03  0.7546771E-02  0.1142422E+00
         21   -1    0    0  501  502  0.00000000000E+00  0.00000000000E+00  0.63767206066E+03  0.63767206066E+03  0.00000000000E+00 0.  1.
         21   -1    0    0  502  503 -0.00000000000E+00 -0.00000000000E+00 -0.18952631041E+03  0.18952631041E+03  0.00000000000E+00 0.  1.
          6    1    1    2  501    0 -0.66914083521E+02  0.97914056047E+02  0.55465129352E+03  0.59269445278E+03  0.17200000000E+03 0.  1.
         -6    1    1    2    0  503  0.66914083521E+02 -0.97914056047E+02 -0.10650554327E+03  0.23450391829E+03  0.17200000000E+03 0.  1.
<mgrwt>
<rscale>  2 0.20892261E+03</rscale>
<asrwt>0</asrwt>
<pdfrwt beam="1">  1       21 0.15941801E+00 0.20892261E+03</pdfrwt>
<pdfrwt beam="2">  1       21 0.47381579E-01 0.20892261E+03</pdfrwt>
<totfact> 0.10650427E+03</totfact>
</mgrwt>
</event>
<event>
 4    1  0.1119790E+000  0.1891120E+03  0.7546771E-02  0.1159265E+00
         21   -1    0    0  501  502  0.00000000000E+00  0.00000000000E+00  0.30840683452E+03  0.30840683452E+03  0.00000000000E+00 0.  1.
         21   -1    0    0  502  503 -0.00000000000E+00 -0.00000000000E+00 -0.20236607147E+03  0.20236607147E+03  0.00000000000E+00 0.  1.
          6    1    1    2  501    0  0.28757328681E+01 -0.78556181581E+02  0.21989764435E+03  0.29003158017E+03  0.17200000000E+03 0.  1.
         -6    1    1    2    0  503 -0.28757328681E+01  0.78556181581E+02 -0.11385688130E+03  0.22074132582E+03  0.17200000000E+03 0.  1.
<mgrwt>
<rscale>  2 0.18911199E+03</rscale>
<asrwt>0</asrwt>
<pdfrwt beam="1">  1       21 0.77101708E-01 0.18911199E+03</pdfrwt>
<pdfrwt beam="2">  1       21 0.50591518E-01 0.18911199E+03</pdfrwt>
<totfact> 0.55720114E+03</totfact>
</mgrwt>
</event>
<event>
 4    1  0.1119790E+000  0.2151247E+03  0.7546771E-02  0.1137571E+00
         21   -1    0    0  503  502  0.00000000000E+00  0.00000000000E+00  0.14064220883E+03  0.14064220883E+03  0.00000000000E+00 0. -1.
         21   -1    0    0  501  503 -0.00000000000E+00 -0.00000000000E+00 -0.41157473387E+03  0.41157473387E+03  0.00000000000E+00 0. -1.
          6    1    1    2  501    0  0.11342666389E+03 -0.61879032756E+02 -0.25910135494E+03  0.33676718205E+03  0.17200000000E+03 0. -1.
         -6    1    1    2    0  502 -0.11342666389E+03  0.61879032756E+02 -0.11831170102E+02  0.21544976065E+03  0.17200000000E+03 0. -1.
<mgrwt>
<rscale>  2 0.21512467E+03</rscale>
<asrwt>0</asrwt>
<pdfrwt beam="1">  1       21 0.35160553E-01 0.21512467E+03</pdfrwt>
<pdfrwt beam="2">  1       21 0.10289368E+00 0.21512467E+03</pdfrwt>
<totfact> 0.58804606E+03</totfact>
</mgrwt>
</event>
<event>
 4    1  0.1119790E+000  0.1922072E+03  0.7546771E-02  0.1156485E+00
         21   -1    0    0  503  502  0.00000000000E+00  0.00000000000E+00  0.86225608904E+02  0.86225608904E+02  0.00000000000E+00 0.  1.
         21   -1    0    0  501  503 -0.00000000000E+00 -0.00000000000E+00 -0.42858726677E+03  0.42858726677E+03  0.00000000000E+00 0. -1.
          6    1    1    2  501    0  0.79170442985E+02 -0.33040373320E+02 -0.16662571092E+03  0.25437718618E+03  0.17200000000E+03 0. -1.
         -6    1    1    2    0  502 -0.79170442985E+02  0.33040373320E+02 -0.17573594695E+03  0.26043568950E+03  0.17200000000E+03 0. -1.
<mgrwt>
<rscale>  2 0.19220725E+03</rscale>
<asrwt>0</asrwt>
<pdfrwt beam="1">  1       21 0.21556402E-01 0.19220725E+03</pdfrwt>
<pdfrwt beam="2">  1       21 0.10714682E+00 0.19220725E+03</pdfrwt>
<totfact> 0.13963072E+04</totfact>
</mgrwt>
</event>
<event>
 4    1  0.1119790E+000  0.2097561E+03  0.7546771E-02  0.1141759E+00
         21   -1    0    0  501  502  0.00000000000E+00  0.00000000000E+00  0.42745705911E+03  0.42745705911E+03  0.00000000000E+00 0. -1.
         21   -1    0    0  502  503 -0.00000000000E+00 -0.00000000000E+00 -0.11252971807E+03  0.11252971807E+03  0.00000000000E+00 0. -1.
          6    1    1    2  501    0 -0.11759108566E+03 -0.24206314669E+02  0.78599880440E+02  0.22399899621E+03  0.17200000000E+03 0. -1.
         -6    1    1    2    0  503  0.11759108566E+03  0.24206314669E+02  0.23632746059E+03  0.31598778098E+03  0.17200000000E+03 0. -1.
<mgrwt>
<rscale>  2 0.20975607E+03</rscale>
<asrwt>0</asrwt>
<pdfrwt beam="1">  1       21 0.10686426E+00 0.20975607E+03</pdfrwt>
<pdfrwt beam="2">  1       21 0.28132431E-01 0.20975607E+03</pdfrwt>
<totfact> 0.83510845E+03</totfact>
</mgrwt>
</event>
<event>
 4    1  0.1119790E+000  0.2018322E+03  0.7546771E-02  0.1148202E+00
         21   -1    0    0  503  502  0.00000000000E+00  0.00000000000E+00  0.62897138058E+03  0.62897138058E+03  0.00000000000E+00 0.  1.
         21   -1    0    0  501  503 -0.00000000000E+00 -0.00000000000E+00 -0.13874997618E+03  0.13874997618E+03  0.00000000000E+00 0. -1.
          6    1    1    2  501    0  0.74402309332E+02  0.74943414224E+02 -0.35190393572E+02  0.20487699424E+03  0.17200000000E+03 0. -1.
         -6    1    1    2    0  502 -0.74402309332E+02 -0.74943414224E+02  0.52541179798E+03  0.56284436252E+03  0.17200000000E+03 0.  1.
<mgrwt>
<rscale>  2 0.20183216E+03</rscale>
<asrwt>0</asrwt>
<pdfrwt beam="1">  1       21 0.15724284E+00 0.20183216E+03</pdfrwt>
<pdfrwt beam="2">  1       21 0.34687496E-01 0.20183216E+03</pdfrwt>
<totfact> 0.20943043E+03</totfact>
</mgrwt>
</event>
<event>
 4    1  0.1119790E+000  0.1998095E+03  0.7546771E-02  0.1149900E+00
         21   -1    0    0  501  502  0.00000000000E+00  0.00000000000E+00  0.22538522233E+03  0.22538522233E+03  0.00000000000E+00 0. -1.
         21   -1    0    0  502  503 -0.00000000000E+00 -0.00000000000E+00 -0.39217415819E+03  0.39217415819E+03  0.00000000000E+00 0.  1.
          6    1    1    2  501    0 -0.33352537077E+02 -0.96059579183E+02  0.14525332661E+03  0.24702704988E+03  0.17200000000E+03 0. -1.
         -6    1    1    2    0  503  0.33352537077E+02  0.96059579183E+02 -0.31204226247E+03  0.37053233064E+03  0.17200000000E+03 0.  1.
<mgrwt>
<rscale>  2 0.19980950E+03</rscale>
<asrwt>0</asrwt>
<pdfrwt beam="1">  1       21 0.56346306E-01 0.19980950E+03</pdfrwt>
<pdfrwt beam="2">  1       21 0.98043539E-01 0.19980950E+03</pdfrwt>
<totfact> 0.25330998E+03</totfact>
</mgrwt>
</event>
<event>
 4    1  0.1119790E+000  0.1910602E+03  0.7546771E-02  0.1157509E+00
         21   -1    0    0  501  502  0.00000000000E+00  0.00000000000E+00  0.17305361918E+03  0.17305361918E+03  0.00000000000E+00 0.  1.
         21   -1    0    0  502  503 -0.00000000000E+00 -0.00000000000E+00 -0.21199908017E+03  0.21199908017E+03  0.00000000000E+00 0.  1.
          6    1    1    2  501    0  0.83162687912E+02  0.19900511430E+01 -0.58672619880E+01  0.19115024909E+03  0.17200000000E+03 0.  1.
         -6    1    1    2    0  503 -0.83162687912E+02 -0.19900511430E+01 -0.33078199002E+02  0.19390245025E+03  0.17200000000E+03 0.  1.
<mgrwt>
<rscale>  2 0.19106018E+03</rscale>
<asrwt>0</asrwt>
<pdfrwt beam="1">  1       21 0.43263405E-01 0.19106018E+03</pdfrwt>
<pdfrwt beam="2">  1       21 0.52999770E-01 0.19106018E+03</pdfrwt>
<totfact> 0.17341125E+04</totfact>
</mgrwt>
</event>
<event>
 4    1  0.1119790E+000  0.1849525E+03  0.7546771E-02  0.1163094E+00
         21   -1    0    0  501  502  0.00000000000E+00  0.00000000000E+00  0.16327741124E+03  0.16327741124E+03  0.00000000000E+00 0. -1.
         21   -1    0    0  502  503 -0.00000000000E+00 -0.00000000000E+00 -0.24288176148E+03  0.24288176148E+03  0.00000000000E+00 0. -1.
          6    1    1    2  501    0 -0.39253826495E+02 -0.55520742617E+02  0.35479910870E+02  0.18832482532E+03  0.17200000000E+03 0. -1.
         -6    1    1    2    0  503  0.39253826495E+02  0.55520742617E+02 -0.11508426110E+03  0.21783434740E+03  0.17200000000E+03 0. -1.
<mgrwt>
<rscale>  2 0.18495247E+03</rscale>
<asrwt>0</asrwt>
<pdfrwt beam="1">  1       21 0.40819353E-01 0.18495247E+03</pdfrwt>
<pdfrwt beam="2">  1       21 0.60720440E-01 0.18495247E+03</pdfrwt>
<totfact> 0.14672909E+04</totfact>
</mgrwt>
</event>
<event>
 4    1  0.1119790E+000  0.2139181E+03  0.7546771E-02  0.1138500E+00
         21   -1    0    0  501  502  0.00000000000E+00  0.00000000000E+00  0.79329989343E+03  0.79329989343E+03  0.00000000000E+00 0.  1.
         21   -1    0    0  502  503 -0.00000000000E+00 -0.00000000000E+00 -0.61416535055E+02  0.61416535055E+02  0.00000000000E+00 0.  1.
          6    1    1    2  501    0  0.12034302147E+03  0.41164386385E+02  0.47129151399E+03  0.51756800585E+03  0.17200000000E+03 0.  1.
         -6    1    1    2    0  503 -0.12034302147E+03 -0.41164386385E+02  0.26059184439E+03  0.33714842263E+03  0.17200000000E+03 0.  1.
<mgrwt>
<rscale>  2 0.21391809E+03</rscale>
<asrwt>0</asrwt>
<pdfrwt beam="1">  1       21 0.19832494E+00 0.21391809E+03</pdfrwt>
<pdfrwt beam="2">  1       21 0.15354136E-01 0.21391809E+03</pdfrwt>
<totfact> 0.50772782E+03</totfact>
</mgrwt>
</event>
<event>
 4    1  0.1119790E+000  0.3772564E+03  0.7546771E-02  0.1051952E+00
         21   -1    0    0  501  502  0.00000000000E+00  0.00000000000E+00  0.53720414841E+03  0.53720414841E+03  0.00000000000E+00 0.  1.
         21   -1    0    0  502  503 -0.00000000000E+00 -0.00000000000E+00 -0.36889571098E+03  0.36889571098E+03  0.00000000000E+00 0. -1.
          6    1    1    2  501    0 -0.22084377158E+03  0.25291579059E+03 -0.15635732843E+03  0.40837480668E+03  0.17200000000E+03 0. -1.
         -6    1    1    2    0  503  0.22084377158E+03 -0.25291579059E+03  0.32466576585E+03  0.49772505271E+03  0.17200000000E+03 0. -1.
<mgrwt>
<rscale>  2 0.37725637E+03</rscale>
<asrwt>0</asrwt>
<pdfrwt beam="1">  1       21 0.13430104E+00 0.37725637E+03</pdfrwt>
<pdfrwt beam="2">  1       21 0.92223928E-01 0.37725637E+03</pdfrwt>
<totfact> 0.33966893E+02</totfact>
</mgrwt>
</event>
<event>
 4    1  0.1119790E+000  0.3030734E+03  0.7546771E-02  0.1083714E+00
         21   -1    0    0  501  502  0.00000000000E+00  0.00000000000E+00  0.44597941517E+03  0.44597941517E+03  0.00000000000E+00 0. -1.
         21   -1    0    0  502  503 -0.00000000000E+00 -0.00000000000E+00 -0.20601351445E+03  0.20601351445E+03  0.00000000000E+00 0. -1.
          6    1    1    2  501    0  0.24937616076E+03  0.90002308474E+01  0.11467988832E+03  0.32404467361E+03  0.17200000000E+03 0. -1.
         -6    1    1    2    0  503 -0.24937616076E+03 -0.90002308474E+01  0.12528601240E+03  0.32794825600E+03  0.17200000000E+03 0. -1.
<mgrwt>
<rscale>  2 0.30307338E+03</rscale>
<asrwt>0</asrwt>
<pdfrwt beam="1">  1       21 0.11149485E+00 0.30307338E+03</pdfrwt>
<pdfrwt beam="2">  1       21 0.51503379E-01 0.30307338E+03</pdfrwt>
<totfact> 0.20882103E+03</totfact>
</mgrwt>
</event>
<event>
 4    1  0.1119790E+000  0.1903215E+03  0.7546771E-02  0.1158172E+00
         21   -1    0    0  501  502  0.00000000000E+00  0.00000000000E+00  0.11080607484E+04  0.11080607484E+04  0.00000000000E+00 0.  1.
         21   -1    0    0  502  503 -0.00000000000E+00 -0.00000000000E+00 -0.32846705927E+02  0.32846705927E+02  0.00000000000E+00 0.  1.
          6    1    1    2  501    0 -0.39549113161E+02  0.71232903399E+02  0.49817710325E+03  0.53329418249E+03  0.17200000000E+03 0.  1.
         -6    1    1    2    0  503  0.39549113161E+02 -0.71232903399E+02  0.57703693918E+03  0.60761327179E+03  0.17200000000E+03 0.  1.
<mgrwt>
<rscale>  2 0.19032146E+03</rscale>
<asrwt>0</asrwt>
<pdfrwt beam="1">  1       21 0.27701506E+00 0.19032146E+03</pdfrwt>
<pdfrwt beam="2">  1       21 0.82116802E-02 0.19032146E+03</pdfrwt>
<totfact> 0.53227804E+03</totfact>
</mgrwt>
</event>
<event>
 4    1  0.1119790E+000  0.1910471E+03  0.7546771E-02  0.1157520E+00
         21   -1    0    0  503  502  0.00000000000E+00  0.00000000000E+00  0.14649416452E+03  0.14649416452E+03  0.00000000000E+00 0.  1.
         21   -1    0    0  501  503 -0.00000000000E+00 -0.00000000000E+00 -0.25756236485E+03  0.25756236485E+03  0.00000000000E+00 0. -1.
          6    1    1    2  501    0  0.50621129031E+02  0.65973555364E+02 -0.92045809261E+02  0.21206470643E+03  0.17200000000E+03 0.  1.
         -6    1    1    2    0  502 -0.50621129031E+02 -0.65973555364E+02 -0.19022391067E+02  0.19199182293E+03  0.17200000000E+03 0. -1.
<mgrwt>
<rscale>  2 0.19104714E+03</rscale>
<asrwt>0</asrwt>
<pdfrwt beam="1">  1       21 0.36623541E-01 0.19104714E+03</pdfrwt>
<pdfrwt beam="2">  1       21 0.64390591E-01 0.19104714E+03</pdfrwt>
<totfact> 0.16012061E+04</totfact>
</mgrwt>
</event>
<event>
 4    1  0.1119790E+000  0.2546221E+03  0.7546771E-02  0.1110418E+00
         21   -1    0    0  501  502  0.00000000000E+00  0.00000000000E+00  0.27020638846E+03  0.27020638846E+03  0.00000000000E+00 0. -1.
         21   -1    0    0  502  503 -0.00000000000E+00 -0.00000000000E+00 -0.27593025251E+03  0.27593025251E+03  0.00000000000E+00 0.  1.
          6    1    1    2  501    0  0.15183566609E+03  0.11042806369E+03  0.95762399028E+02  0.27203467392E+03  0.17200000000E+03 0. -1.
         -6    1    1    2    0  503 -0.15183566609E+03 -0.11042806369E+03 -0.10148626308E+03  0.27410196705E+03  0.17200000000E+03 0. -1.
<mgrwt>
<rscale>  2 0.25462213E+03</rscale>
<asrwt>0</asrwt>
<pdfrwt beam="1">  1       21 0.67551597E-01 0.25462213E+03</pdfrwt>
<pdfrwt beam="2">  1       21 0.68982563E-01 0.25462213E+03</pdfrwt>
<totfact> 0.36646639E+03</totfact>
</mgrwt>
</event>
<event>
 4    1  0.1119790E+000  0.2217085E+03  0.7546771E-02  0.1132616E+00
         21   -1    0    0  501  502  0.00000000000E+00  0.00000000000E+00  0.12251393973E+04  0.12251393973E+04  0.00000000000E+00 0. -1.
         21   -1    0    0  502  503 -0.00000000000E+00 -0.00000000000E+00 -0.50623693504E+02  0.50623693504E+02  0.00000000000E+00 0. -1.
          6    1    1    2  501    0 -0.85832215733E+02 -0.11046938053E+03  0.29672224277E+03  0.37040348628E+03  0.17200000000E+03 0. -1.
         -6    1    1    2    0  503  0.85832215733E+02  0.11046938053E+03  0.87779346106E+03  0.90535960456E+03  0.17200000000E+03 0. -1.
<mgrwt>
<rscale>  2 0.22170849E+03</rscale>
<asrwt>0</asrwt>
<pdfrwt beam="1">  1       21 0.30628475E+00 0.22170849E+03</pdfrwt>
<pdfrwt beam="2">  1       21 0.12655927E-01 0.22170849E+03</pdfrwt>
<totfact> 0.16164802E+03</totfact>
</mgrwt>
</event>
<event>
 4    1  0.1119790E+000  0.3298142E+03  0.7546771E-02  0.1071219E+00
         21   -1    0    0  503  502  0.00000000000E+00  0.00000000000E+00  0.63798096992E+02  0.63798096992E+02  0.00000000000E+00 0.  1.
         21   -1    0    0  501  503 -0.00000000000E+00 -0.00000000000E+00 -0.21756772213E+04  0.21756772213E+04  0.00000000000E+00 0. -1.
          6    1    1    2  501    0  0.19188477523E+03  0.20584852060E+03 -0.15767370626E+04  0.16108622365E+04  0.17200000000E+03 0. -1.
         -6    1    1    2    0  502 -0.19188477523E+03 -0.20584852060E+03 -0.53514206174E+03  0.62861308183E+03  0.17200000000E+03 0.  1.
<mgrwt>
<rscale>  2 0.32981416E+03</rscale>
<asrwt>0</asrwt>
<pdfrwt beam="1">  1       21 0.15949524E-01 0.32981416E+03</pdfrwt>
<pdfrwt beam="2">  1       21 0.54391933E+00 0.32981416E+03</pdfrwt>
<totfact> 0.26186138E+01</totfact>
</mgrwt>
</event>
<event>
 4    1  0.1119790E+000  0.2359047E+03  0.7546771E-02  0.1122551E+00
         21   -1    0    0  501  502  0.00000000000E+00  0.00000000000E+00  0.38691027220E+03  0.38691027220E+03  0.00000000000E+00 0.  1.
         21   -1    0    0  502  503 -0.00000000000E+00 -0.00000000000E+00 -0.33285830841E+03  0.33285830841E+03  0.00000000000E+00 0.  1.
          6    1    1    2  501    0  0.85550356745E+02  0.13692389035E+03  0.29822713557E+03  0.38025049596E+03  0.17200000000E+03 0.  1.
         -6    1    1    2    0  503 -0.85550356745E+02 -0.13692389035E+03 -0.24417517179E+03  0.33951808465E+03  0.17200000000E+03 0.  1.
<mgrwt>
<rscale>  2 0.23590467E+03</rscale>
<asrwt>0</asrwt>
<pdfrwt beam="1">  1       21 0.96727568E-01 0.23590467E+03</pdfrwt>
<pdfrwt beam="2">  1       21 0.83214577E-01 0.23590467E+03</pdfrwt>
<totfact> 0.10732955E+03</totfact>
</mgrwt>
</event>
<event>
 4    1  0.1119790E+000  0.1749967E+03  0.7546771E-02  0.1172735E+00
         21   -1    0    0  503  502  0.00000000000E+00  0.00000000000E+00  0.68346914993E+02  0.68346914993E+02  0.00000000000E+00 0. -1.
         21   -1    0    0  501  503 -0.00000000000E+00 -0.00000000000E+00 -0.53436446319E+03  0.53436446319E+03  0.00000000000E+00 0. -1.
          6    1    1    2  501    0  0.20137978072E+02  0.25185257526E+02 -0.35411475228E+03  0.39499505458E+03  0.17200000000E+03 0. -1.
         -6    1    1    2    0  502 -0.20137978072E+02 -0.25185257526E+02 -0.11190279591E+03  0.20771632360E+03  0.17200000000E+03 0. -1.
<mgrwt>
<rscale>  2 0.17499667E+03</rscale>
<asrwt>0</asrwt>
<pdfrwt beam="1">  1       21 0.17086729E-01 0.17499667E+03</pdfrwt>
<pdfrwt beam="2">  1       21 0.13359111E+00 0.17499667E+03</pdfrwt>
<totfact> 0.12629218E+04</totfact>
</mgrwt>
</event>
<event>
 4    1  0.1119790E+000  0.1872019E+03  0.7546771E-02  0.1161010E+00
         21   -1    0    0  503  502  0.00000000000E+00  0.00000000000E+00  0.26715989127E+03  0.26715989127E+03  0.00000000000E+00 0. -1.
         21   -1    0    0  501  503 -0.00000000000E+00 -0.00000000000E+00 -0.21859395988E+03  0.21859395988E+03  0.00000000000E+00 0. -1.
          6    1    1    2  501    0  0.73065824018E+02 -0.11042677850E+02 -0.12931000080E+03  0.22752061815E+03  0.17200000000E+03 0. -1.
         -6    1    1    2    0  502 -0.73065824018E+02  0.11042677850E+02  0.17787593219E+03  0.25823323300E+03  0.17200000000E+03 0. -1.
<mgrwt>
<rscale>  2 0.18720191E+03</rscale>
<asrwt>0</asrwt>
<pdfrwt beam="1">  1       21 0.66789973E-01 0.18720191E+03</pdfrwt>
<pdfrwt beam="2">  1       21 0.54648490E-01 0.18720191E+03</pdfrwt>
<totfact> 0.65210191E+03</totfact>
</mgrwt>
</event>
<event>
 4    1  0.1119790E+000  0.2750325E+03  0.7546771E-02  0.1098433E+00
         21   -1    0    0  501  502  0.00000000000E+00  0.00000000000E+00  0.56917184680E+03  0.56917184680E+03  0.00000000000E+00 0.  1.
         21   -1    0    0  502  503 -0.00000000000E+00 -0.00000000000E+00 -0.15904056503E+03  0.15904056503E+03  0.00000000000E+00 0.  1.
          6    1    1    2  501    0 -0.21446412811E+03 -0.80020521375E+01  0.35268123687E+03  0.44724372542E+03  0.17200000000E+03 0.  1.
         -6    1    1    2    0  503  0.21446412811E+03  0.80020521375E+01  0.57450044902E+02  0.28096868641E+03  0.17200000000E+03 0.  1.
<mgrwt>
<rscale>  2 0.27503253E+03</rscale>
<asrwt>0</asrwt>
<pdfrwt beam="1">  1       21 0.14229296E+00 0.27503253E+03</pdfrwt>
<pdfrwt beam="2">  1       21 0.39760143E-01 0.27503253E+03</pdfrwt>
<totfact> 0.19574589E+03</totfact>
</mgrwt>
</event>
<event>
 4    1  0.1119790E+000  0.1812191E+03  0.7546771E-02  0.1166628E+00
         21   -1    0    0  503  502  0.00000000000E+00  0.00000000000E+00  0.39179469187E+03  0.39179469187E+03  0.00000000000E+00 0. -1.
         21   -1    0    0  501  503 -0.00000000000E+00 -0.00000000000E+00 -0.87425263386E+02  0.87425263386E+02  0.00000000000E+00 0. -1.
          6    1    1    2  501    0  0.39136343752E+02  0.41529651219E+02  0.10352895183E+03  0.20870699365E+03  0.17200000000E+03 0. -1.
         -6    1    1    2    0  502 -0.39136343752E+02 -0.41529651219E+02  0.20084047665E+03  0.27051296160E+03  0.17200000000E+03 0. -1.
<mgrwt>
<rscale>  2 0.18121911E+03</rscale>
<asrwt>0</asrwt>
<pdfrwt beam="1">  1       21 0.97948668E-01 0.18121911E+03</pdfrwt>
<pdfrwt beam="2">  1       21 0.21856317E-01 0.18121911E+03</pdfrwt>
<totfact> 0.16972644E+04</totfact>
</mgrwt>
</event>
<event>
 4    1  0.1119790E+000  0.1883135E+03  0.7546771E-02  0.1159991E+00
         21   -1    0    0  503  502  0.00000000000E+00  0.00000000000E+00  0.12858600655E+03  0.12858600655E+03  0.00000000000E+00 0.  1.
         21   -1    0    0  501  503 -0.00000000000E+00 -0.00000000000E+00 -0.27691291622E+03  0.27691291622E+03  0.00000000000E+00 0.  1.
          6    1    1    2  501    0  0.18714580429E+02  0.74348835796E+02 -0.87107992219E+02  0.20748442644E+03  0.17200000000E+03 0. -1.
         -6    1    1    2    0  502 -0.18714580429E+02 -0.74348835796E+02 -0.61218917455E+02  0.19801449634E+03  0.17200000000E+03 0. -1.
<mgrwt>
<rscale>  2 0.18831353E+03</rscale>
<asrwt>0</asrwt>
<pdfrwt beam="1">  1       21 0.32146502E-01 0.18831353E+03</pdfrwt>
<pdfrwt beam="2">  1       21 0.69228229E-01 0.18831353E+03</pdfrwt>
<totfact> 0.17721104E+04</totfact>
</mgrwt>
</event>
<event>
 4    1  0.1119790E+000  0.1754647E+03  0.7546771E-02  0.1172266E+00
         21   -1    0    0  501  502  0.00000000000E+00  0.00000000000E+00  0.35356342437E+03  0.35356342437E+03  0.00000000000E+00 0. -1.
         21   -1    0    0  502  503 -0.00000000000E+00 -0.00000000000E+00 -0.17340866443E+03  0.17340866443E+03  0.00000000000E+00 0. -1.
          6    1    1    2  501    0  0.34628750166E+02 -0.21667514897E+01  0.27598748200E+03  0.32704271185E+03  0.17200000000E+03 0. -1.
         -6    1    1    2    0  503 -0.34628750166E+02  0.21667514897E+01 -0.95832722064E+02  0.19992937695E+03  0.17200000000E+03 0. -1.
<mgrwt>
<rscale>  2 0.17546465E+03</rscale>
<asrwt>0</asrwt>
<pdfrwt beam="1">  1       21 0.88390855E-01 0.17546465E+03</pdfrwt>
<pdfrwt beam="2">  1       21 0.43352167E-01 0.17546465E+03</pdfrwt>
<totfact> 0.56789312E+03</totfact>
</mgrwt>
</event>
<event>
 4    1  0.1119790E+000  0.2843941E+03  0.7546771E-02  0.1093313E+00
         21   -1    0    0  501  502  0.00000000000E+00  0.00000000000E+00  0.35048488402E+03  0.35048488402E+03  0.00000000000E+00 0.  1.
         21   -1    0    0  502  503 -0.00000000000E+00 -0.00000000000E+00 -0.33292816878E+03  0.33292816878E+03  0.00000000000E+00 0. -1.
          6    1    1    2  501    0  0.14090270944E+03 -0.17732018117E+03  0.19806627822E+03  0.34656928707E+03  0.17200000000E+03 0. -1.
         -6    1    1    2    0  503 -0.14090270944E+03  0.17732018117E+03 -0.18050956298E+03  0.33684376572E+03  0.17200000000E+03 0. -1.
<mgrwt>
<rscale>  2 0.28439413E+03</rscale>
<asrwt>0</asrwt>
<pdfrwt beam="1">  1       21 0.87621221E-01 0.28439413E+03</pdfrwt>
<pdfrwt beam="2">  1       21 0.83232042E-01 0.28439413E+03</pdfrwt>
<totfact> 0.13052612E+03</totfact>
</mgrwt>
</event>
<event>
 4    1  0.1119790E+000  0.1759155E+03  0.7546771E-02  0.1171816E+00
         21   -1    0    0  503  502  0.00000000000E+00  0.00000000000E+00  0.77800328250E+02  0.77800328250E+02  0.00000000000E+00 0. -1.
         21   -1    0    0  501  503 -0.00000000000E+00 -0.00000000000E+00 -0.47610669129E+03  0.47610669129E+03  0.00000000000E+00 0. -1.
          6    1    1    2  501    0 -0.32372281607E+02 -0.17728540841E+02 -0.31149735499E+03  0.35773854691E+03  0.17200000000E+03 0. -1.
         -6    1    1    2    0  502  0.32372281607E+02  0.17728540841E+02 -0.86809008049E+02  0.19616847263E+03  0.17200000000E+03 0. -1.
<mgrwt>
<rscale>  2 0.17591551E+03</rscale>
<asrwt>0</asrwt>
<pdfrwt beam="1">  1       21 0.19450082E-01 0.17591551E+03</pdfrwt>
<pdfrwt beam="2">  1       21 0.11902667E+00 0.17591551E+03</pdfrwt>
<totfact> 0.13256599E+04</totfact>
</mgrwt>
</event>
<event>
 4    1  0.1119790E+000  0.1978216E+03  0.7546771E-02  0.1151590E+00
         21   -1    0    0  503  502  0.00000000000E+00  0.00000000000E+00  0.23445900111E+03  0.23445900111E+03  0.00000000000E+00 0.  1.
         21   -1    0    0  501  503 -0.00000000000E+00 -0.00000000000E+00 -0.24415876709E+03  0.24415876709E+03  0.00000000000E+00 0.  1.
          6    1    1    2  501    0  0.48517156563E+02 -0.84826151506E+02 -0.13945772866E+03  0.24203687435E+03  0.17200000000E+03 0.  1.
         -6    1    1    2    0  502 -0.48517156563E+02  0.84826151506E+02  0.12975796268E+03  0.23658089386E+03  0.17200000000E+03 0.  1.
<mgrwt>
<rscale>  2 0.19782161E+03</rscale>
<asrwt>0</asrwt>
<pdfrwt beam="1">  1       21 0.58614750E-01 0.19782161E+03</pdfrwt>
<pdfrwt beam="2">  1       21 0.61039692E-01 0.19782161E+03</pdfrwt>
<totfact> 0.67770248E+03</totfact>
</mgrwt>
</event>
<event>
 4    1  0.1119790E+000  0.1930708E+03  0.7546771E-02  0.1155720E+00
         21   -1    0    0  503  502  0.00000000000E+00  0.00000000000E+00  0.21527659159E+03  0.21527659159E+03  0.00000000000E+00 0.  1.
         21   -1    0    0  501  503 -0.00000000000E+00 -0.00000000000E+00 -0.28329699665E+03  0.28329699665E+03  0.00000000000E+00 0. -1.
          6    1    1    2  501    0 -0.86507090437E+02 -0.14452333156E+02 -0.18944690841E+03  0.27049302715E+03  0.17200000000E+03 0. -1.
         -6    1    1    2    0  502  0.86507090437E+02  0.14452333156E+02  0.12142650335E+03  0.22808056109E+03  0.17200000000E+03 0.  1.
<mgrwt>
<rscale>  2 0.19307083E+03</rscale>
<asrwt>0</asrwt>
<pdfrwt beam="1">  1       21 0.53819148E-01 0.19307083E+03</pdfrwt>
<pdfrwt beam="2">  1       21 0.70824249E-01 0.19307083E+03</pdfrwt>
<totfact> 0.58948837E+03</totfact>
</mgrwt>
</event>
<event>
 4    1  0.1119790E+000  0.1818222E+03  0.7546771E-02  0.1166051E+00
         21   -1    0    0  501  502  0.00000000000E+00  0.00000000000E+00  0.54517952975E+03  0.54517952975E+03  0.00000000000E+00 0. -1.
         21   -1    0    0  502  503 -0.00000000000E+00 -0.00000000000E+00 -0.29955043974E+03  0.29955043974E+03  0.00000000000E+00 0. -1.
          6    1    1    2  501    0 -0.15002170506E+01 -0.58932566254E+02  0.50001407059E+03  0.53204639723E+03  0.17200000000E+03 0. -1.
         -6    1    1    2    0  503  0.15002170506E+01  0.58932566254E+02 -0.25438498058E+03  0.31268357226E+03  0.17200000000E+03 0. -1.
<mgrwt>
<rscale>  2 0.18182216E+03</rscale>
<asrwt>0</asrwt>
<pdfrwt beam="1">  1       21 0.13629488E+00 0.18182216E+03</pdfrwt>
<pdfrwt beam="2">  1       21 0.74887611E-01 0.18182216E+03</pdfrwt>
<totfact> 0.61914556E+02</totfact>
</mgrwt>
</event>
<event>
 4    1  0.1119790E+000  0.1891476E+03  0.7546771E-02  0.1159232E+00
         21   -1    0    0  503  502  0.00000000000E+00  0.00000000000E+00  0.35192804678E+03  0.35192804678E+03  0.00000000000E+00 0.  1.
         21   -1    0    0  501  503 -0.00000000000E+00 -0.00000000000E+00 -0.11442178770E+03  0.11442178770E+03  0.00000000000E+00 0.  1.
          6    1    1    2  501    0  0.29104353045E+02  0.73114579743E+02  0.19662720418E+03  0.27283522969E+03  0.17200000000E+03 0.  1.
         -6    1    1    2    0  502 -0.29104353045E+02 -0.73114579743E+02  0.40879054895E+02  0.19351460479E+03  0.17200000000E+03 0.  1.
<mgrwt>
<rscale>  2 0.18914758E+03</rscale>
<asrwt>0</asrwt>
<pdfrwt beam="1">  1       21 0.87982009E-01 0.18914758E+03</pdfrwt>
<pdfrwt beam="2">  1       21 0.28605448E-01 0.18914758E+03</pdfrwt>
<totfact> 0.12970876E+04</totfact>
</mgrwt>
</event>
<event>
 4    1  0.1119790E+000  0.2065540E+03  0.7546771E-02  0.1144324E+00
         21   -1    0    0  501  502  0.00000000000E+00  0.00000000000E+00  0.89539738232E+03  0.89539738232E+03  0.00000000000E+00 0. -1.
         21   -1    0    0  502  503 -0.00000000000E+00 -0.00000000000E+00 -0.61286428643E+02  0.61286428643E+02  0.00000000000E+00 0. -1.
          6    1    1    2  501    0  0.83453618681E+02 -0.78205214938E+02  0.64270092015E+03  0.67507705847E+03  0.17200000000E+03 0. -1.
         -6    1    1    2    0  503 -0.83453618681E+02  0.78205214938E+02  0.19141003353E+03  0.28160675250E+03  0.17200000000E+03 0. -1.
<mgrwt>
<rscale>  2 0.20655402E+03</rscale>
<asrwt>0</asrwt>
<pdfrwt beam="1">  1       21 0.22384930E+00 0.20655402E+03</pdfrwt>
<pdfrwt beam="2">  1       21 0.15321610E-01 0.20655402E+03</pdfrwt>
<totfact> 0.35468120E+03</totfact>
</mgrwt>
</event>
<event>
 4    1  0.1119790E+000  0.2120441E+03  0.7546771E-02  0.1139957E+00
         21   -1    0    0  501  502  0.00000000000E+00  0.00000000000E+00  0.14977985066E+03  0.14977985066E+03  0.00000000000E+00 0. -1.
         21   -1    0    0  502  503 -0.00000000000E+00 -0.00000000000E+00 -0.34186135981E+03  0.34186135981E+03  0.00000000000E+00 0. -1.
          6    1    1    2  501    0 -0.23313423952E+02  0.12179978666E+03 -0.10218087147E+02  0.21229016245E+03  0.17200000000E+03 0. -1.
         -6    1    1    2    0  503  0.23313423952E+02 -0.12179978666E+03 -0.18186342201E+03  0.27935104802E+03  0.17200000000E+03 0. -1.
<mgrwt>
<rscale>  2 0.21204411E+03</rscale>
<asrwt>0</asrwt>
<pdfrwt beam="1">  1       21 0.37444963E-01 0.21204411E+03</pdfrwt>
<pdfrwt beam="2">  1       21 0.85465339E-01 0.21204411E+03</pdfrwt>
<totfact> 0.80282074E+03</totfact>
</mgrwt>
</event>
<event>
 4    1  0.1119790E+000  0.1745663E+03  0.7546771E-02  0.1173168E+00
         21   -1    0    0  501  502  0.00000000000E+00  0.00000000000E+00  0.17402057981E+03  0.17402057981E+03  0.00000000000E+00 0.  1.
         21   -1    0    0  502  503 -0.00000000000E+00 -0.00000000000E+00 -0.19451855584E+03  0.19451855584E+03  0.00000000000E+00 0.  1.
          6    1    1    2  501    0 -0.86541932266E+01 -0.28539551184E+02  0.47951609773E+02  0.18103247753E+03  0.17200000000E+03 0.  1.
         -6    1    1    2    0  503  0.86541932266E+01  0.28539551184E+02 -0.68449585804E+02  0.18750665812E+03  0.17200000000E+03 0.  1.
<mgrwt>
<rscale>  2 0.17456632E+03</rscale>
<asrwt>0</asrwt>
<pdfrwt beam="1">  1       21 0.43505145E-01 0.17456632E+03</pdfrwt>
<pdfrwt beam="2">  1       21 0.48629639E-01 0.17456632E+03</pdfrwt>
<totfact> 0.20725380E+04</totfact>
</mgrwt>
</event>
<event>
 4    1  0.1119790E+000  0.1890156E+03  0.7546771E-02  0.1159352E+00
         21   -1    0    0  501  502  0.00000000000E+00  0.00000000000E+00  0.13341548649E+03  0.13341548649E+03  0.00000000000E+00 0. -1.
         21   -1    0    0  502  503 -0.00000000000E+00 -0.00000000000E+00 -0.37020548213E+03  0.37020548213E+03  0.00000000000E+00 0. -1.
          6    1    1    2  501    0  0.15299372497E+02  0.76868795042E+02  0.14052071947E+02  0.18953718151E+03  0.17200000000E+03 0. -1.
         -6    1    1    2    0  503 -0.15299372497E+02 -0.76868795042E+02 -0.25084206759E+03  0.31408378710E+03  0.17200000000E+03 0. -1.
<mgrwt>
<rscale>  2 0.18901556E+03</rscale>
<asrwt>0</asrwt>
<pdfrwt beam="1">  1       21 0.33353872E-01 0.18901556E+03</pdfrwt>
<pdfrwt beam="2">  1       21 0.92551370E-01 0.18901556E+03</pdfrwt>
<totfact> 0.85455266E+03</totfact>
</mgrwt>
</event>
<event>
 4    1  0.1119790E+000  0.2224703E+03  0.7546771E-02  0.1132055E+00
         21   -1    0    0  503  502  0.00000000000E+00  0.00000000000E+00  0.32732417618E+03  0.32732417618E+03  0.00000000000E+00 0.  1.
         21   -1    0    0  501  503 -0.00000000000E+00 -0.00000000000E+00 -0.16103021252E+03  0.16103021252E+03  0.00000000000E+00 0. -1.
          6    1    1    2  501    0 -0.57098208978E+02  0.12903037771E+03  0.14346165067E+03  0.26471548699E+03  0.17200000000E+03 0.  1.
         -6    1    1    2    0  502  0.57098208978E+02 -0.12903037771E+03  0.22832312992E+02  0.22363890171E+03  0.17200000000E+03 0. -1.
<mgrwt>
<rscale>  2 0.22247032E+03</rscale>
<asrwt>0</asrwt>
<pdfrwt beam="1">  1       21 0.81831043E-01 0.22247032E+03</pdfrwt>
<pdfrwt beam="2">  1       21 0.40257554E-01 0.22247032E+03</pdfrwt>
<totfact> 0.76083792E+03</totfact>
</mgrwt>
</event>
<event>
 4    1  0.1119790E+000  0.2255847E+03  0.7546771E-02  0.1129787E+00
         21   -1    0    0  503  502  0.00000000000E+00  0.00000000000E+00  0.39199542749E+03  0.39199542749E+03  0.00000000000E+00 0. -1.
         21   -1    0    0  501  503 -0.00000000000E+00 -0.00000000000E+00 -0.13071006713E+03  0.13071006713E+03  0.00000000000E+00 0. -1.
          6    1    1    2  501    0 -0.11114901282E+03 -0.94606230018E+02  0.15222189265E+03  0.27213957156E+03  0.17200000000E+03 0. -1.
         -6    1    1    2    0  502  0.11114901282E+03  0.94606230018E+02  0.10906346770E+03  0.25056592305E+03  0.17200000000E+03 0. -1.
<mgrwt>
<rscale>  2 0.22558467E+03</rscale>
<asrwt>0</asrwt>
<pdfrwt beam="1">  1       21 0.97998854E-01 0.22558467E+03</pdfrwt>
<pdfrwt beam="2">  1       21 0.32677518E-01 0.22558467E+03</pdfrwt>
<totfact> 0.75833903E+03</totfact>
</mgrwt>
</event>
<event>
 4    1  0.1119790E+000  0.2106151E+03  0.7546771E-02  0.1141080E+00
         21   -1    0    0  503  502  0.00000000000E+00  0.00000000000E+00  0.12921312633E+04  0.12921312633E+04  0.00000000000E+00 0.  1.
         21   -1    0    0  501  503 -0.00000000000E+00 -0.00000000000E+00 -0.34382854917E+02  0.34382854917E+02  0.00000000000E+00 0. -1.
          6    1    1    2  501    0  0.76376387632E+02  0.94558785716E+02  0.60284090845E+03  0.63857331407E+03  0.17200000000E+03 0.  1.
         -6    1    1    2    0  502 -0.76376387632E+02 -0.94558785716E+02  0.65490749998E+03  0.68794080420E+03  0.17200000000E+03 0. -1.
<mgrwt>
<rscale>  2 0.21061509E+03</rscale>
<asrwt>0</asrwt>
<pdfrwt beam="1">  1       21 0.32303265E+00 0.21061509E+03</pdfrwt>
<pdfrwt beam="2">  1       21 0.85957180E-02 0.21061509E+03</pdfrwt>
<totfact> 0.26025932E+03</totfact>
</mgrwt>
</event>
<event>
 4    1  0.1119790E+000  0.2285300E+03  0.7546771E-02  0.1127679E+00
         21   -1    0    0  501  502  0.00000000000E+00  0.00000000000E+00  0.14072051409E+03  0.14072051409E+03  0.00000000000E+00 0.  1.
         21   -1    0    0  502  503 -0.00000000000E+00 -0.00000000000E+00 -0.38821919922E+03  0.38821919922E+03  0.00000000000E+00 0.  1.
          6    1    1    2  501    0  0.14535047118E+03  0.38925306456E+02 -0.68265271457E+02  0.23850804230E+03  0.17200000000E+03 0.  1.
         -6    1    1    2    0  503 -0.14535047118E+03 -0.38925306456E+02 -0.17923341367E+03  0.29043167102E+03  0.17200000000E+03 0.  1.
<mgrwt>
<rscale>  2 0.22852995E+03</rscale>
<asrwt>0</asrwt>
<pdfrwt beam="1">  1       21 0.35180129E-01 0.22852995E+03</pdfrwt>
<pdfrwt beam="2">  1       21 0.97054799E-01 0.22852995E+03</pdfrwt>
<totfact> 0.66887236E+03</totfact>
</mgrwt>
</event>
<event>
 4    1  0.1119790E+000  0.1731983E+03  0.7546771E-02  0.1174553E+00
         21   -1    0    0  501  502  0.00000000000E+00  0.00000000000E+00  0.71920594716E+02  0.71920594716E+02  0.00000000000E+00 0.  1.
         21   -1    0    0  502  503 -0.00000000000E+00 -0.00000000000E+00 -0.61596643196E+03  0.61596643196E+03  0.00000000000E+00 0.  1.
          6    1    1    2  501    0  0.13668698491E+02  0.15060839356E+02 -0.76590914621E+02  0.18937748125E+03  0.17200000000E+03 0.  1.
         -6    1    1    2    0  503 -0.13668698491E+02 -0.15060839356E+02 -0.46745492262E+03  0.49850954543E+03  0.17200000000E+03 0.  1.
<mgrwt>
<rscale>  2 0.17319833E+03</rscale>
<asrwt>0</asrwt>
<pdfrwt beam="1">  1       21 0.17980149E-01 0.17319833E+03</pdfrwt>
<pdfrwt beam="2">  1       21 0.15399161E+00 0.17319833E+03</pdfrwt>
<totfact> 0.79709992E+03</totfact>
</mgrwt>
</event>
<event>
 4    1  0.1119790E+000  0.1848862E+03  0.7546771E-02  0.1163156E+00
         21   -1    0    0  503  502  0.00000000000E+00  0.00000000000E+00  0.88426219592E+03  0.88426219592E+03  0.00000000000E+00 0. -1.
         21   -1    0    0  501  503 -0.00000000000E+00 -0.00000000000E+00 -0.95588992553E+02  0.95588992553E+02  0.00000000000E+00 0. -1.
          6    1    1    2  501    0  0.66992118750E+02 -0.10533795883E+02  0.16238532831E+02  0.18559793851E+03  0.17200000000E+03 0. -1.
         -6    1    1    2    0  502 -0.66992118750E+02  0.10533795883E+02  0.77243467054E+03  0.79425324996E+03  0.17200000000E+03 0. -1.
<mgrwt>
<rscale>  2 0.18488619E+03</rscale>
<asrwt>0</asrwt>
<pdfrwt beam="1">  1       21 0.22106552E+00 0.18488619E+03</pdfrwt>
<pdfrwt beam="2">  1       21 0.23897251E-01 0.18488619E+03</pdfrwt>
<totfact> 0.16500863E+03</totfact>
</mgrwt>
</event>
<event>
 4    1  0.1119790E+000  0.1995414E+03  0.7546771E-02  0.1150126E+00
         21   -1    0    0  503  502  0.00000000000E+00  0.00000000000E+00  0.19433886273E+03  0.19433886273E+03  0.00000000000E+00 0.  1.
         21   -1    0    0  501  503 -0.00000000000E+00 -0.00000000000E+00 -0.32347276373E+03  0.32347276373E+03  0.00000000000E+00 0.  1.
          6    1    1    2  501    0  0.59794878336E+02 -0.81592623573E+02 -0.22133084016E+03  0.29800020890E+03  0.17200000000E+03 0.  1.
         -6    1    1    2    0  502 -0.59794878336E+02  0.81592623573E+02  0.92196939167E+02  0.21981141756E+03  0.17200000000E+03 0.  1.
<mgrwt>
<rscale>  2 0.19954143E+03</rscale>
<asrwt>0</asrwt>
<pdfrwt beam="1">  1       21 0.48584716E-01 0.19954143E+03</pdfrwt>
<pdfrwt beam="2">  1       21 0.80868190E-01 0.19954143E+03</pdfrwt>
<totfact> 0.54002712E+03</totfact>
</mgrwt>
</event>
<event>
 4    1  0.1119790E+000  0.2045529E+03  0.7546771E-02  0.1145954E+00
         21   -1    0    0  503  502  0.00000000000E+00  0.00000000000E+00  0.68131664129E+03  0.68131664129E+03  0.00000000000E+00 0.  1.
         21   -1    0    0  501  503 -0.00000000000E+00 -0.00000000000E+00 -0.94088360363E+02  0.94088360363E+02  0.00000000000E+00 0.  1.
          6    1    1    2  501    0 -0.49698184144E+02 -0.98934262370E+02  0.65139025136E+02  0.21467414929E+03  0.17200000000E+03 0.  1.
         -6    1    1    2    0  502  0.49698184144E+02  0.98934262370E+02  0.52208925579E+03  0.56073085236E+03  0.17200000000E+03 0.  1.
<mgrwt>
<rscale>  2 0.20455292E+03</rscale>
<asrwt>0</asrwt>
<pdfrwt beam="1">  1       21 0.17032915E+00 0.20455292E+03</pdfrwt>
<pdfrwt beam="2">  1       21 0.23522092E-01 0.20455292E+03</pdfrwt>
<totfact> 0.35715058E+03</totfact>
</mgrwt>
</event>
<event>
 4    1  0.1119790E+000  0.2364381E+03  0.7546771E-02  0.1122189E+00
         21   -1    0    0  501  502  0.00000000000E+00  0.00000000000E+00  0.15747469763E+03  0.15747469763E+03  0.00000000000E+00 0.  1.
         21   -1    0    0  502  503 -0.00000000000E+00 -0.00000000000E+00 -0.35970541671E+03  0.35970541671E+03  0.00000000000E+00 0.  1.
          6    1    1    2  501    0 -0.14583740002E+03  0.71066221223E+02 -0.71528273676E+02  0.24702074605E+03  0.17200000000E+03 0.  1.
         -6    1    1    2    0  503  0.14583740002E+03 -0.71066221223E+02 -0.13070244540E+03  0.27015936829E+03  0.17200000000E+03 0.  1.
<mgrwt>
<rscale>  2 0.23643806E+03</rscale>
<asrwt>0</asrwt>
<pdfrwt beam="1">  1       21 0.39368675E-01 0.23643806E+03</pdfrwt>
<pdfrwt beam="2">  1       21 0.89926353E-01 0.23643806E+03</pdfrwt>
<totfact> 0.63483776E+03</totfact>
</mgrwt>
</event>
<event>
 4    1  0.1119790E+000  0.1730112E+03  0.7546771E-02  0.1174743E+00
         21   -1    0    0  501  502  0.00000000000E+00  0.00000000000E+00  0.23364916046E+03  0.23364916046E+03  0.00000000000E+00 0. -1.
         21   -1    0    0  502  503 -0.00000000000E+00 -0.00000000000E+00 -0.21361790138E+03  0.21361790138E+03  0.00000000000E+00 0. -1.
          6    1    1    2  501    0 -0.14610358039E+01 -0.18621436349E+02  0.15150380664E+03  0.22997020664E+03  0.17200000000E+03 0. -1.
         -6    1    1    2    0  503  0.14610358039E+01  0.18621436349E+02 -0.13147254756E+03  0.21729685520E+03  0.17200000000E+03 0. -1.
<mgrwt>
<rscale>  2 0.17301125E+03</rscale>
<asrwt>0</asrwt>
<pdfrwt beam="1">  1       21 0.58412290E-01 0.17301125E+03</pdfrwt>
<pdfrwt beam="2">  1       21 0.53404475E-01 0.17301125E+03</pdfrwt>
<totfact> 0.92383064E+03</totfact>
</mgrwt>
</event>
<event>
 4    1  0.1119790E+000  0.1914624E+03  0.7546771E-02  0.1157149E+00
         21   -1    0    0  503  502  0.00000000000E+00  0.00000000000E+00  0.95282529315E+02  0.95282529315E+02  0.00000000000E+00 0. -1.
         21   -1    0    0  501  503 -0.00000000000E+00 -0.00000000000E+00 -0.47995158154E+03  0.47995158154E+03  0.00000000000E+00 0. -1.
          6    1    1    2  501    0 -0.38360644281E+02  0.74848569513E+02 -0.32044611184E+03  0.37328750044E+03  0.17200000000E+03 0. -1.
         -6    1    1    2    0  502  0.38360644281E+02 -0.74848569513E+02 -0.64222940383E+02  0.20194661042E+03  0.17200000000E+03 0. -1.
<mgrwt>
<rscale>  2 0.19146239E+03</rscale>
<asrwt>0</asrwt>
<pdfrwt beam="1">  1       21 0.23820633E-01 0.19146239E+03</pdfrwt>
<pdfrwt beam="2">  1       21 0.11998789E+00 0.19146239E+03</pdfrwt>
<totfact> 0.87802924E+03</totfact>
</mgrwt>
</event>
<event>
 4    1  0.1119790E+000  0.2055232E+03  0.7546771E-02  0.1145161E+00
         21   -1    0    0  501  502  0.00000000000E+00  0.00000000000E+00  0.24372485078E+03  0.24372485078E+03  0.00000000000E+00 0.  1.
         21   -1    0    0  502  503 -0.00000000000E+00 -0.00000000000E+00 -0.11463162821E+04  0.11463162821E+04  0.00000000000E+00 0. -1.
          6    1    1    2  501    0  0.75559233307E+01  0.11224388366E+03  0.18903362999E+03  0.27923734468E+03  0.17200000000E+03 0.  1.
         -6    1    1    2    0  503 -0.75559233307E+01 -0.11224388366E+03 -0.10916250613E+04  0.11108037882E+04  0.17200000000E+03 0. -1.
<mgrwt>
<rscale>  2 0.20552319E+03</rscale>
<asrwt>0</asrwt>
<pdfrwt beam="1">  1       21 0.60931214E-01 0.20552319E+03</pdfrwt>
<pdfrwt beam="2">  1       21 0.28657906E+00 0.20552319E+03</pdfrwt>
<totfact> 0.10019159E+02</totfact>
</mgrwt>
</event>
<event>
 4    1  0.1119790E+000  0.1952511E+03  0.7546771E-02  0.1153809E+00
         21   -1    0    0  503  502  0.00000000000E+00  0.00000000000E+00  0.11589008823E+03  0.11589008823E+03  0.00000000000E+00 0. -1.
         21   -1    0    0  501  503 -0.00000000000E+00 -0.00000000000E+00 -0.48456198100E+03  0.48456198100E+03  0.00000000000E+00 0. -1.
          6    1    1    2  501    0 -0.91131803705E+02  0.15296677957E+02 -0.35446706784E+03  0.40468493447E+03  0.17200000000E+03 0. -1.
         -6    1    1    2    0  502  0.91131803705E+02 -0.15296677957E+02 -0.14204824930E+02  0.19576713477E+03  0.17200000000E+03 0. -1.
<mgrwt>
<rscale>  2 0.19525110E+03</rscale>
<asrwt>0</asrwt>
<pdfrwt beam="1">  1       21 0.28972522E-01 0.19525110E+03</pdfrwt>
<pdfrwt beam="2">  1       21 0.12114049E+00 0.19525110E+03</pdfrwt>
<totfact> 0.58705218E+03</totfact>
</mgrwt>
</event>
<event>
 4    1  0.1119790E+000  0.1901749E+03  0.7546771E-02  0.1158304E+00
         21   -1    0    0  503  502  0.00000000000E+00  0.00000000000E+00  0.55619823505E+03  0.55619823505E+03  0.00000000000E+00 0.  1.
         21   -1    0    0  501  503 -0.00000000000E+00 -0.00000000000E+00 -0.65077431090E+02  0.65077431090E+02  0.00000000000E+00 0.  1.
          6    1    1    2  501    0  0.90181969958E+01  0.80629684941E+02  0.23669546036E+03  0.30363006262E+03  0.17200000000E+03 0.  1.
         -6    1    1    2    0  502 -0.90181969958E+01 -0.80629684941E+02  0.25442534360E+03  0.31764560352E+03  0.17200000000E+03 0.  1.
<mgrwt>
<rscale>  2 0.19017485E+03</rscale>
<asrwt>0</asrwt>
<pdfrwt beam="1">  1       21 0.13904954E+00 0.19017485E+03</pdfrwt>
<pdfrwt beam="2">  1       21 0.16269359E-01 0.19017485E+03</pdfrwt>
<totfact> 0.12337928E+04</totfact>
</mgrwt>
</event>
<event>
 4    1  0.1119790E+000  0.2683553E+03  0.7546771E-02  0.1102225E+00
         21   -1    0    0  503  502  0.00000000000E+00  0.00000000000E+00  0.15353124879E+04  0.15353124879E+04  0.00000000000E+00 0.  1.
         21   -1    0    0  501  503 -0.00000000000E+00 -0.00000000000E+00 -0.10576161143E+03  0.10576161143E+03  0.00000000000E+00 0. -1.
          6    1    1    2  501    0  0.19553233670E+03  0.64789393652E+02  0.10266463593E+03  0.28732314160E+03  0.17200000000E+03 0. -1.
         -6    1    1    2    0  502 -0.19553233670E+03 -0.64789393652E+02  0.13268862405E+04  0.13537509577E+04  0.17200000000E+03 0.  1.
<mgrwt>
<rscale>  2 0.26835529E+03</rscale>
<asrwt>0</asrwt>
<pdfrwt beam="1">  1       21 0.38382805E+00 0.26835529E+03</pdfrwt>
<pdfrwt beam="2">  1       21 0.26440408E-01 0.26835529E+03</pdfrwt>
<totfact> 0.13331716E+02</totfact>
</mgrwt>
</event>
<event>
 4    1  0.1119790E+000  0.1985625E+03  0.7546771E-02  0.1150957E+00
         21   -1    0    0  501  502  0.00000000000E+00  0.00000000000E+00  0.16404421449E+03  0.16404421449E+03  0.00000000000E+00 0.  1.
         21   -1    0    0  502  503 -0.00000000000E+00 -0.00000000000E+00 -0.43756468202E+03  0.43756468202E+03  0.00000000000E+00 0.  1.
          6    1    1    2  501    0  0.35804873550E+02 -0.92526181775E+02  0.65187544474E+02  0.20898923235E+03  0.17200000000E+03 0.  1.
         -6    1    1    2    0  503 -0.35804873550E+02  0.92526181775E+02 -0.33870801201E+03  0.39261966416E+03  0.17200000000E+03 0.  1.
<mgrwt>
<rscale>  2 0.19856254E+03</rscale>
<asrwt>0</asrwt>
<pdfrwt beam="1">  1       21 0.41011054E-01 0.19856254E+03</pdfrwt>
<pdfrwt beam="2">  1       21 0.10939117E+00 0.19856254E+03</pdfrwt>
<totfact> 0.37720656E+03</totfact>
</mgrwt>
</event>
<event>
 4    1  0.1119790E+000  0.2438237E+03  0.7546771E-02  0.1117272E+00
         21   -1    0    0  501  502  0.00000000000E+00  0.00000000000E+00  0.45420533056E+03  0.45420533056E+03  0.00000000000E+00 0. -1.
         21   -1    0    0  502  503 -0.00000000000E+00 -0.00000000000E+00 -0.17295415333E+03  0.17295415333E+03  0.00000000000E+00 0.  1.
          6    1    1    2  501    0 -0.90825898381E+02  0.14702596284E+03  0.29527542543E+03  0.38293283279E+03  0.17200000000E+03 0. -1.
         -6    1    1    2    0  503  0.90825898381E+02 -0.14702596284E+03 -0.14024248199E+02  0.24422665109E+03  0.17200000000E+03 0.  1.
<mgrwt>
<rscale>  2 0.24382366E+03</rscale>
<asrwt>0</asrwt>
<pdfrwt beam="1">  1       21 0.11355133E+00 0.24382366E+03</pdfrwt>
<pdfrwt beam="2">  1       21 0.43238539E-01 0.24382366E+03</pdfrwt>
<totfact> 0.29861239E+03</totfact>
</mgrwt>
</event>
<event>
 4    1  0.1119790E+000  0.1955541E+03  0.7546771E-02  0.1153545E+00
         21   -1    0    0  503  502  0.00000000000E+00  0.00000000000E+00  0.21782258567E+03  0.21782258567E+03  0.00000000000E+00 0.  1.
         21   -1    0    0  501  503 -0.00000000000E+00 -0.00000000000E+00 -0.35114516070E+03  0.35114516070E+03  0.00000000000E+00 0.  1.
          6    1    1    2  501    0  0.59163406193E+02 -0.71812818542E+02 -0.26782776987E+03  0.33162192909E+03  0.17200000000E+03 0.  1.
         -6    1    1    2    0  502 -0.59163406193E+02  0.71812818542E+02  0.13450519484E+03  0.23734581728E+03  0.17200000000E+03 0.  1.
<mgrwt>
<rscale>  2 0.19555406E+03</rscale>
<asrwt>0</asrwt>
<pdfrwt beam="1">  1       21 0.54455647E-01 0.19555406E+03</pdfrwt>
<pdfrwt beam="2">  1       21 0.87786290E-01 0.19555406E+03</pdfrwt>
<totfact> 0.35361910E+03</totfact>
</mgrwt>
</event>
<event>
 4    1  0.1119790E+000  0.1967644E+03  0.7546771E-02  0.1152498E+00
         21   -1    0    0  503  502  0.00000000000E+00  0.00000000000E+00  0.85233551948E+02  0.85233551948E+02  0.00000000000E+00 0. -1.
         21   -1    0    0  501  503 -0.00000000000E+00 -0.00000000000E+00 -0.62000605790E+03  0.62000605790E+03  0.00000000000E+00 0.  1.
          6    1    1    2  501    0  0.59004727770E+02  0.75171012982E+02 -0.44971719444E+03  0.49087859402E+03  0.17200000000E+03 0.  1.
         -6    1    1    2    0  502 -0.59004727770E+02 -0.75171012982E+02 -0.85055311518E+02  0.21436101583E+03  0.17200000000E+03 0. -1.
<mgrwt>
<rscale>  2 0.19676443E+03</rscale>
<asrwt>0</asrwt>
<pdfrwt beam="1">  1       21 0.21308388E-01 0.19676443E+03</pdfrwt>
<pdfrwt beam="2">  1       21 0.15500151E+00 0.19676443E+03</pdfrwt>
<totfact> 0.55989372E+03</totfact>
</mgrwt>
</event>
<event>
 4    1  0.1119790E+000  0.2124894E+03  0.7546771E-02  0.1139610E+00
         21   -1    0    0  501  502  0.00000000000E+00  0.00000000000E+00  0.19702293631E+03  0.19702293631E+03  0.00000000000E+00 0.  1.
         21   -1    0    0  502  503 -0.00000000000E+00 -0.00000000000E+00 -0.26776715633E+03  0.26776715633E+03  0.00000000000E+00 0. -1.
          6    1    1    2  501    0  0.20720833355E+02  0.12303812579E+03  0.52859913280E+02  0.21896553100E+03  0.17200000000E+03 0.  1.
         -6    1    1    2    0  503 -0.20720833355E+02 -0.12303812579E+03 -0.12360413330E+03  0.24582456163E+03  0.17200000000E+03 0. -1.
<mgrwt>
<rscale>  2 0.21248937E+03</rscale>
<asrwt>0</asrwt>
<pdfrwt beam="1">  1       21 0.49255734E-01 0.21248937E+03</pdfrwt>
<pdfrwt beam="2">  1       21 0.66941789E-01 0.21248937E+03</pdfrwt>
<totfact> 0.79234194E+03</totfact>
</mgrwt>
</event>
<event>
 4    1  0.1119790E+000  0.1850089E+03  0.7546771E-02  0.1163042E+00
         21   -1    0    0  503  502  0.00000000000E+00  0.00000000000E+00  0.34874026565E+03  0.34874026565E+03  0.00000000000E+00 0. -1.
         21   -1    0    0  501  503 -0.00000000000E+00 -0.00000000000E+00 -0.18811294233E+03  0.18811294233E+03  0.00000000000E+00 0. -1.
          6    1    1    2  501    0 -0.50401215638E+02  0.45869568701E+02 -0.10531793527E+03  0.21288533853E+03  0.17200000000E+03 0. -1.
         -6    1    1    2    0  502  0.50401215638E+02 -0.45869568701E+02  0.26594525859E+03  0.32396786945E+03  0.17200000000E+03 0. -1.
<mgrwt>
<rscale>  2 0.18500892E+03</rscale>
<asrwt>0</asrwt>
<pdfrwt beam="1">  1       21 0.87185065E-01 0.18500892E+03</pdfrwt>
<pdfrwt beam="2">  1       21 0.47028236E-01 0.18500892E+03</pdfrwt>
<totfact> 0.49216870E+03</totfact>
</mgrwt>
</event>
<event>
 4    1  0.1119790E+000  0.3338575E+03  0.7546771E-02  0.1069443E+00
         21   -1    0    0  503  502  0.00000000000E+00  0.00000000000E+00  0.19079824159E+03  0.19079824159E+03  0.00000000000E+00 0.  1.
         21   -1    0    0  501  503 -0.00000000000E+00 -0.00000000000E+00 -0.63875288160E+03  0.63875288160E+03  0.00000000000E+00 0. -1.
          6    1    1    2  501    0  0.28612892299E+03 -0.26580040983E+01 -0.34521251835E+03  0.48024213516E+03  0.17200000000E+03 0. -1.
         -6    1    1    2    0  502 -0.28612892299E+03  0.26580040983E+01 -0.10274212166E+03  0.34930898803E+03  0.17200000000E+03 0.  1.
<mgrwt>
<rscale>  2 0.33385749E+03</rscale>
<asrwt>0</asrwt>
<pdfrwt beam="1">  1       21 0.47699561E-01 0.33385749E+03</pdfrwt>
<pdfrwt beam="2">  1       21 0.15968822E+00 0.33385749E+03</pdfrwt>
<totfact> 0.94931513E+02</totfact>
</mgrwt>
</event>
<event>
 4    1  0.1119790E+000  0.2816408E+03  0.7546771E-02  0.1094796E+00
         21   -1    0    0  503  502  0.00000000000E+00  0.00000000000E+00  0.35679527238E+03  0.35679527238E+03  0.00000000000E+00 0. -1.
         21   -1    0    0  501  503 -0.00000000000E+00 -0.00000000000E+00 -0.22755902128E+03  0.22755902128E+03  0.00000000000E+00 0.  1.
          6    1    1    2  501    0  0.14365844923E+03 -0.17058665392E+03  0.10896469065E+03  0.30198486773E+03  0.17200000000E+03 0. -1.
         -6    1    1    2    0  502 -0.14365844923E+03  0.17058665392E+03  0.20271560453E+02  0.28236942592E+03  0.17200000000E+03 0.  1.
<mgrwt>
<rscale>  2 0.28164083E+03</rscale>
<asrwt>0</asrwt>
<pdfrwt beam="1">  1       21 0.89198817E-01 0.28164083E+03</pdfrwt>
<pdfrwt beam="2">  1       21 0.56889756E-01 0.28164083E+03</pdfrwt>
<totfact> 0.29210963E+03</totfact>
</mgrwt>
</event>
<event>
 4    1  0.1119790E+000  0.2315476E+03  0.7546771E-02  0.1125555E+00
         21   -1    0    0  503  502  0.00000000000E+00  0.00000000000E+00  0.30755799277E+03  0.30755799277E+03  0.00000000000E+00 0. -1.
         21   -1    0    0  501  503 -0.00000000000E+00 -0.00000000000E+00 -0.17644129636E+03  0.17644129636E+03  0.00000000000E+00 0. -1.
          6    1    1    2  501    0  0.11329629737E+03  0.10580275865E+03  0.39039151178E+02  0.23481552346E+03  0.17200000000E+03 0. -1.
         -6    1    1    2    0  502 -0.11329629737E+03 -0.10580275865E+03  0.92077545239E+02  0.24918376567E+03  0.17200000000E+03 0. -1.
<mgrwt>
<rscale>  2 0.23154756E+03</rscale>
<asrwt>0</asrwt>
<pdfrwt beam="1">  1       21 0.76889497E-01 0.23154756E+03</pdfrwt>
<pdfrwt beam="2">  1       21 0.44110325E-01 0.23154756E+03</pdfrwt>
<totfact> 0.72267629E+03</totfact>
</mgrwt>
</event>
<event>
 4    1  0.1119790E+000  0.1989428E+03  0.7546771E-02  0.1150634E+00
         21   -1    0    0  501  502  0.00000000000E+00  0.00000000000E+00  0.10980632383E+03  0.10980632383E+03  0.00000000000E+00 0.  1.
         21   -1    0    0  502  503 -0.00000000000E+00 -0.00000000000E+00 -0.41547368305E+03  0.41547368305E+03  0.00000000000E+00 0.  1.
          6    1    1    2  501    0  0.85942594427E+02 -0.51069537911E+02 -0.57242793309E+02  0.20701440681E+03  0.17200000000E+03 0.  1.
         -6    1    1    2    0  503 -0.85942594427E+02  0.51069537911E+02 -0.24842456591E+03  0.31826560007E+03  0.17200000000E+03 0.  1.
<mgrwt>
<rscale>  2 0.19894277E+03</rscale>
<asrwt>0</asrwt>
<pdfrwt beam="1">  1       21 0.27451581E-01 0.19894277E+03</pdfrwt>
<pdfrwt beam="2">  1       21 0.10386842E+00 0.19894277E+03</pdfrwt>
<totfact> 0.94489682E+03</totfact>
</mgrwt>
</event>
<event>
 4    1  0.1119790E+000  0.1842664E+03  0.7546771E-02  0.1163737E+00
         21   -1    0    0  501  502  0.00000000000E+00  0.00000000000E+00  0.12006940909E+03  0.12006940909E+03  0.00000000000E+00 0.  1.
         21   -1    0    0  502  503 -0.00000000000E+00 -0.00000000000E+00 -0.44799403010E+03  0.44799403010E+03  0.00000000000E+00 0.  1.
          6    1    1    2  501    0 -0.98861030969E+01 -0.65363373563E+02  0.85200073329E+01  0.18446326508E+03  0.17200000000E+03 0.  1.
         -6    1    1    2    0  503  0.98861030969E+01  0.65363373563E+02 -0.33644462834E+03  0.38360017411E+03  0.17200000000E+03 0.  1.
<mgrwt>
<rscale>  2 0.18426640E+03</rscale>
<asrwt>0</asrwt>
<pdfrwt beam="1">  1       21 0.30017353E-01 0.18426640E+03</pdfrwt>
<pdfrwt beam="2">  1       21 0.11199851E+00 0.18426640E+03</pdfrwt>
<totfact> 0.66980392E+03</totfact>
</mgrwt>
</event>
<event>
 4    1  0.1119790E+000  0.2471113E+03  0.7546771E-02  0.1115144E+00
         21   -1    0    0  503  502  0.00000000000E+00  0.00000000000E+00  0.25021124046E+03  0.25021124046E+03  0.00000000000E+00 0. -1.
         21   -1    0    0  501  503 -0.00000000000E+00 -0.00000000000E+00 -0.37341630345E+03  0.37341630345E+03  0.00000000000E+00 0.  1.
          6    1    1    2  501    0 -0.17658829086E+03  0.17221253615E+02 -0.24513361272E+03  0.34807252711E+03  0.17200000000E+03 0.  1.
         -6    1    1    2    0  502  0.17658829086E+03 -0.17221253615E+02  0.12192854973E+03  0.27555501680E+03  0.17200000000E+03 0. -1.
<mgrwt>
<rscale>  2 0.24711130E+03</rscale>
<asrwt>0</asrwt>
<pdfrwt beam="1">  1       21 0.62552810E-01 0.24711130E+03</pdfrwt>
<pdfrwt beam="2">  1       21 0.93354075E-01 0.24711130E+03</pdfrwt>
<totfact> 0.21872628E+03</totfact>
</mgrwt>
</event>
<event>
 4    1  0.1119790E+000  0.1882264E+03  0.7546771E-02  0.1160071E+00
         21   -1    0    0  501  502  0.00000000000E+00  0.00000000000E+00  0.69974328349E+02  0.69974328349E+02  0.00000000000E+00 0.  1.
         21   -1    0    0  502  503 -0.00000000000E+00 -0.00000000000E+00 -0.91959741765E+03  0.91959741765E+03  0.00000000000E+00 0.  1.
          6    1    1    2  501    0 -0.62079740928E+02 -0.44623632216E+02 -0.93114919339E+02  0.20999893092E+03  0.17200000000E+03 0.  1.
         -6    1    1    2    0  503  0.62079740928E+02  0.44623632216E+02 -0.75650816996E+03  0.77957281507E+03  0.17200000000E+03 0.  1.
<mgrwt>
<rscale>  2 0.18822636E+03</rscale>
<asrwt>0</asrwt>
<pdfrwt beam="1">  1       21 0.17493583E-01 0.18822636E+03</pdfrwt>
<pdfrwt beam="2">  1       21 0.22989935E+00 0.18822636E+03</pdfrwt>
<totfact> 0.26043101E+03</totfact>
</mgrwt>
</event>
<event>
 4    1  0.1119790E+000  0.1944929E+03  0.7546771E-02  0.1154470E+00
         21   -1    0    0  503  502  0.00000000000E+00  0.00000000000E+00  0.50809237213E+03  0.50809237213E+03  0.00000000000E+00 0. -1.
         21   -1    0    0  501  503 -0.00000000000E+00 -0.00000000000E+00 -0.20614847144E+03  0.20614847144E+03  0.00000000000E+00 0. -1.
          6    1    1    2  501    0 -0.62241280679E+01  0.90580046128E+02 -0.13446813956E+03  0.23645118964E+03  0.17200000000E+03 0. -1.
         -6    1    1    2    0  502  0.62241280679E+01 -0.90580046128E+02  0.43641204025E+03  0.47778965393E+03  0.17200000000E+03 0. -1.
<mgrwt>
<rscale>  2 0.19449289E+03</rscale>
<asrwt>0</asrwt>
<pdfrwt beam="1">  1       21 0.12702309E+00 0.19449289E+03</pdfrwt>
<pdfrwt beam="2">  1       21 0.51537119E-01 0.19449289E+03</pdfrwt>
<totfact> 0.16360745E+03</totfact>
</mgrwt>
</event>
<event>
 4    1  0.1119790E+000  0.4959535E+03  0.7546771E-02  0.1014841E+00
         21   -1    0    0  501  502  0.00000000000E+00  0.00000000000E+00  0.41859750218E+03  0.41859750218E+03  0.00000000000E+00 0. -1.
         21   -1    0    0  502  503 -0.00000000000E+00 -0.00000000000E+00 -0.66861060627E+03  0.66861060627E+03  0.00000000000E+00 0.  1.
          6    1    1    2  501    0  0.31231998096E+03 -0.34473479070E+03  0.64207978139E+02  0.50009250233E+03  0.17200000000E+03 0. -1.
         -6    1    1    2    0  503 -0.31231998096E+03  0.34473479070E+03 -0.31422108223E+03  0.58711560612E+03  0.17200000000E+03 0.  1.
<mgrwt>
<rscale>  2 0.49595347E+03</rscale>
<asrwt>0</asrwt>
<pdfrwt beam="1">  1       21 0.10464938E+00 0.49595347E+03</pdfrwt>
<pdfrwt beam="2">  1       21 0.16715265E+00 0.49595347E+03</pdfrwt>
<totfact> 0.12959230E+02</totfact>
</mgrwt>
</event>
<event>
 4    1  0.1119790E+000  0.1843746E+03  0.7546771E-02  0.1163635E+00
         21   -1    0    0  503  502  0.00000000000E+00  0.00000000000E+00  0.83615757587E+03  0.83615757587E+03  0.00000000000E+00 0. -1.
         21   -1    0    0  501  503 -0.00000000000E+00 -0.00000000000E+00 -0.46951948896E+02  0.46951948896E+02  0.00000000000E+00 0. -1.
          6    1    1    2  501    0  0.57200674400E+02  0.33735514965E+02  0.23289828180E+03  0.29704479761E+03  0.17200000000E+03 0. -1.
         -6    1    1    2    0  502 -0.57200674400E+02 -0.33735514965E+02  0.55630734517E+03  0.58606472715E+03  0.17200000000E+03 0. -1.
<mgrwt>
<rscale>  2 0.18437462E+03</rscale>
<asrwt>0</asrwt>
<pdfrwt beam="1">  1       21 0.20903935E+00 0.18437462E+03</pdfrwt>
<pdfrwt beam="2">  1       21 0.11737990E-01 0.18437462E+03</pdfrwt>
<totfact> 0.72369824E+03</totfact>
</mgrwt>
</event>
<event>
 4    1  0.1119790E+000  0.2315539E+03  0.7546771E-02  0.1125551E+00
         21   -1    0    0  503  502  0.00000000000E+00  0.00000000000E+00  0.27528040227E+03  0.27528040227E+03  0.00000000000E+00 0. -1.
         21   -1    0    0  501  503 -0.00000000000E+00 -0.00000000000E+00 -0.19714723037E+03  0.19714723037E+03  0.00000000000E+00 0. -1.
          6    1    1    2  501    0 -0.12734915700E+03  0.88404720382E+02  0.13144663690E+02  0.23192667927E+03  0.17200000000E+03 0.  1.
         -6    1    1    2    0  502  0.12734915700E+03 -0.88404720382E+02  0.64988508215E+02  0.24050095337E+03  0.17200000000E+03 0.  1.
<mgrwt>
<rscale>  2 0.23155389E+03</rscale>
<asrwt>0</asrwt>
<pdfrwt beam="1">  1       21 0.68820100E-01 0.23155389E+03</pdfrwt>
<pdfrwt beam="2">  1       21 0.49286808E-01 0.23155389E+03</pdfrwt>
<totfact> 0.73528109E+03</totfact>
</mgrwt>
</event>
<event>
 4    1  0.1119790E+000  0.2686471E+03  0.7546771E-02  0.1102056E+00
         21   -1    0    0  503  502  0.00000000000E+00  0.00000000000E+00  0.11661352611E+03  0.11661352611E+03  0.00000000000E+00 0.  1.
         21   -1    0    0  501  503 -0.00000000000E+00 -0.00000000000E+00 -0.84472738703E+03  0.84472738703E+03  0.00000000000E+00 0.  1.
          6    1    1    2  501    0 -0.64637599790E+02  0.19598275060E+03 -0.11552368867E+03  0.29243286492E+03  0.17200000000E+03 0.  1.
         -6    1    1    2    0  502  0.64637599790E+02 -0.19598275060E+03 -0.61259017226E+03  0.66890804823E+03  0.17200000000E+03 0.  1.
<mgrwt>
<rscale>  2 0.26864709E+03</rscale>
<asrwt>0</asrwt>
<pdfrwt beam="1">  1       21 0.29153382E-01 0.26864709E+03</pdfrwt>
<pdfrwt beam="2">  1       21 0.21118184E+00 0.26864709E+03</pdfrwt>
<totfact> 0.11948641E+03</totfact>
</mgrwt>
</event>
<event>
 4    1  0.1119790E+000  0.1772878E+03  0.7546771E-02  0.1170454E+00
         21   -1    0    0  503  502  0.00000000000E+00  0.00000000000E+00  0.61740623129E+02  0.61740623129E+02  0.00000000000E+00 0. -1.
         21   -1    0    0  501  503 -0.00000000000E+00 -0.00000000000E+00 -0.54536880453E+03  0.54536880453E+03  0.00000000000E+00 0. -1.
          6    1    1    2  501    0  0.38550936330E+02  0.18994350509E+02 -0.32011628598E+03  0.36593086313E+03  0.17200000000E+03 0.  1.
         -6    1    1    2    0  502 -0.38550936330E+02 -0.18994350509E+02 -0.16351189542E+03  0.24117856453E+03  0.17200000000E+03 0.  1.
<mgrwt>
<rscale>  2 0.17728779E+03</rscale>
<asrwt>0</asrwt>
<pdfrwt beam="1">  1       21 0.15435156E-01 0.17728779E+03</pdfrwt>
<pdfrwt beam="2">  1       21 0.13634220E+00 0.17728779E+03</pdfrwt>
<totfact> 0.14418771E+04</totfact>
</mgrwt>
</event>
<event>
 4    1  0.1119790E+000  0.1850292E+03  0.7546771E-02  0.1163023E+00
         21   -1    0    0  503  502  0.00000000000E+00  0.00000000000E+00  0.18440121786E+03  0.18440121786E+03  0.00000000000E+00 0. -1.
         21   -1    0    0  501  503 -0.00000000000E+00 -0.00000000000E+00 -0.20461527864E+03  0.20461527864E+03  0.00000000000E+00 0. -1.
          6    1    1    2  501    0 -0.67848220257E+02 -0.69586030190E+01 -0.69309792119E+02  0.19758453996E+03  0.17200000000E+03 0. -1.
         -6    1    1    2    0  502  0.67848220257E+02  0.69586030190E+01  0.49095731345E+02  0.19143195654E+03  0.17200000000E+03 0. -1.
<mgrwt>
<rscale>  2 0.18502920E+03</rscale>
<asrwt>0</asrwt>
<pdfrwt beam="1">  1       21 0.46100305E-01 0.18502920E+03</pdfrwt>
<pdfrwt beam="2">  1       21 0.51153820E-01 0.18502920E+03</pdfrwt>
<totfact> 0.16458824E+04</totfact>
</mgrwt>
</event>
<event>
 4    1  0.1119790E+000  0.1722822E+03  0.7546771E-02  0.1175489E+00
         21   -1    0    0  501  502  0.00000000000E+00  0.00000000000E+00  0.15938516017E+03  0.15938516017E+03  0.00000000000E+00 0.  1.
         21   -1    0    0  502  503 -0.00000000000E+00 -0.00000000000E+00 -0.22261579308E+03  0.22261579308E+03  0.00000000000E+00 0.  1.
          6    1    1    2  501    0  0.62152136273E+01 -0.76501589214E+01  0.45610985752E+02  0.17821760809E+03  0.17200000000E+03 0.  1.
         -6    1    1    2    0  503 -0.62152136273E+01  0.76501589214E+01 -0.10884161866E+03  0.20378334516E+03  0.17200000000E+03 0.  1.
<mgrwt>
<rscale>  2 0.17228219E+03</rscale>
<asrwt>0</asrwt>
<pdfrwt beam="1">  1       21 0.39846290E-01 0.17228219E+03</pdfrwt>
<pdfrwt beam="2">  1       21 0.55653948E-01 0.17228219E+03</pdfrwt>
<totfact> 0.18700714E+04</totfact>
</mgrwt>
</event>
<event>
 4    1  0.1119790E+000  0.4014851E+03  0.7546771E-02  0.1043267E+00
         21   -1    0    0  501  502  0.00000000000E+00  0.00000000000E+00  0.10491845576E+04  0.10491845576E+04  0.00000000000E+00 0. -1.
         21   -1    0    0  502  503 -0.00000000000E+00 -0.00000000000E+00 -0.25293286545E+03  0.25293286545E+03  0.00000000000E+00 0. -1.
          6    1    1    2  501    0  0.36068388260E+03 -0.38902424455E+02  0.80605993251E+03  0.90051256326E+03  0.17200000000E+03 0. -1.
         -6    1    1    2    0  503 -0.36068388260E+03  0.38902424455E+02 -0.98082403903E+01  0.40160485975E+03  0.17200000000E+03 0. -1.
<mgrwt>
<rscale>  2 0.40148507E+03</rscale>
<asrwt>0</asrwt>
<pdfrwt beam="1">  1       21 0.26229613E+00 0.40148507E+03</pdfrwt>
<pdfrwt beam="2">  1       21 0.63233219E-01 0.40148507E+03</pdfrwt>
<totfact> 0.10530790E+02</totfact>
</mgrwt>
</event>
<event>
 4    1  0.1119790E+000  0.2144504E+03  0.7546771E-02  0.1138089E+00
         21   -1    0    0  503  502  0.00000000000E+00  0.00000000000E+00  0.40072146324E+02  0.40072146324E+02  0.00000000000E+00 0. -1.
         21   -1    0    0  501  503 -0.00000000000E+00 -0.00000000000E+00 -0.11787285316E+04  0.11787285316E+04  0.00000000000E+00 0.  1.
          6    1    1    2  501    0 -0.12183022638E+03  0.39527057362E+02 -0.66827283452E+03  0.70183870917E+03  0.17200000000E+03 0.  1.
         -6    1    1    2    0  502  0.12183022638E+03 -0.39527057362E+02 -0.47038355077E+03  0.51696196877E+03  0.17200000000E+03 0. -1.
<mgrwt>
<rscale>  2 0.21445044E+03</rscale>
<asrwt>0</asrwt>
<pdfrwt beam="1">  1       21 0.10018036E-01 0.21445044E+03</pdfrwt>
<pdfrwt beam="2">  1       21 0.29468215E+00 0.21445044E+03</pdfrwt>
<totfact> 0.28889335E+03</totfact>
</mgrwt>
</event>
<event>
 4    1  0.1119790E+000  0.2362719E+03  0.7546771E-02  0.1122302E+00
         21   -1    0    0  503  502  0.00000000000E+00  0.00000000000E+00  0.78517233389E+02  0.78517233389E+02  0.00000000000E+00 0. -1.
         21   -1    0    0  501  503 -0.00000000000E+00 -0.00000000000E+00 -0.10470279538E+04  0.10470279538E+04  0.00000000000E+00 0.  1.
          6    1    1    2  501    0  0.74727596090E+02  0.14372267894E+03 -0.80308042611E+03  0.83711563888E+03  0.17200000000E+03 0. -1.
         -6    1    1    2    0  502 -0.74727596090E+02 -0.14372267894E+03 -0.16543029428E+03  0.28842954829E+03  0.17200000000E+03 0.  1.
<mgrwt>
<rscale>  2 0.23627192E+03</rscale>
<asrwt>0</asrwt>
<pdfrwt beam="1">  1       21 0.19629309E-01 0.23627192E+03</pdfrwt>
<pdfrwt beam="2">  1       21 0.26175699E+00 0.23627192E+03</pdfrwt>
<totfact> 0.12916559E+03</totfact>
</mgrwt>
</event>
<event>
 4    1  0.1119790E+000  0.1793470E+03  0.7546771E-02  0.1168437E+00
         21   -1    0    0  501  502  0.00000000000E+00  0.00000000000E+00  0.73326532858E+03  0.73326532858E+03  0.00000000000E+00 0. -1.
         21   -1    0    0  502  503 -0.00000000000E+00 -0.00000000000E+00 -0.44060121914E+02  0.44060121914E+02  0.00000000000E+00 0. -1.
          6    1    1    2  501    0  0.34101315964E+02 -0.37662279742E+02  0.31879819891E+03  0.36578359544E+03  0.17200000000E+03 0.  1.
         -6    1    1    2    0  503 -0.34101315964E+02  0.37662279742E+02  0.37040700775E+03  0.41154185505E+03  0.17200000000E+03 0.  1.
<mgrwt>
<rscale>  2 0.17934700E+03</rscale>
<asrwt>0</asrwt>
<pdfrwt beam="1">  1       21 0.18331629E+00 0.17934700E+03</pdfrwt>
<pdfrwt beam="2">  1       21 0.11015033E-01 0.17934700E+03</pdfrwt>
<totfact> 0.11940667E+04</totfact>
</mgrwt>
</event>
<event>
 4    1  0.1119790E+000  0.2181657E+03  0.7546771E-02  0.1135258E+00
         21   -1    0    0  503  502  0.00000000000E+00  0.00000000000E+00  0.36128932390E+03  0.36128932390E+03  0.00000000000E+00 0. -1.
         21   -1    0    0  501  503 -0.00000000000E+00 -0.00000000000E+00 -0.15558887776E+03  0.15558887776E+03  0.00000000000E+00 0. -1.
          6    1    1    2  501    0 -0.93081079369E+02  0.96685993327E+02  0.16683789283E+01  0.21817207001E+03  0.17200000000E+03 0. -1.
         -6    1    1    2    0  502  0.93081079369E+02 -0.96685993327E+02  0.20403206721E+03  0.29870613166E+03  0.17200000000E+03 0. -1.
<mgrwt>
<rscale>  2 0.21816569E+03</rscale>
<asrwt>0</asrwt>
<pdfrwt beam="1">  1       21 0.90322329E-01 0.21816569E+03</pdfrwt>
<pdfrwt beam="2">  1       21 0.38897220E-01 0.21816569E+03</pdfrwt>
<totfact> 0.65174742E+03</totfact>
</mgrwt>
</event>
<event>
 4    1  0.1119790E+000  0.1775910E+03  0.7546771E-02  0.1170155E+00
         21   -1    0    0  501  502  0.00000000000E+00  0.00000000000E+00  0.80045009034E+03  0.80045009034E+03  0.00000000000E+00 0. -1.
         21   -1    0    0  502  503 -0.00000000000E+00 -0.00000000000E+00 -0.40829210450E+02  0.40829210450E+02  0.00000000000E+00 0. -1.
          6    1    1    2  501    0  0.36311163766E+02  0.25220169385E+02  0.30113913622E+03  0.34960454362E+03  0.17200000000E+03 0. -1.
         -6    1    1    2    0  503 -0.36311163766E+02 -0.25220169385E+02  0.45848174367E+03  0.49167475716E+03  0.17200000000E+03 0. -1.
<mgrwt>
<rscale>  2 0.17759098E+03</rscale>
<asrwt>0</asrwt>
<pdfrwt beam="1">  1       21 0.20011247E+00 0.17759098E+03</pdfrwt>
<pdfrwt beam="2">  1       21 0.10207305E-01 0.17759098E+03</pdfrwt>
<totfact> 0.10625955E+04</totfact>
</mgrwt>
</event>
<event>
 4    1  0.1119790E+000  0.1950011E+03  0.7546771E-02  0.1154026E+00
         21   -1    0    0  501  502  0.00000000000E+00  0.00000000000E+00  0.21756113784E+03  0.21756113784E+03  0.00000000000E+00 0. -1.
         21   -1    0    0  502  503 -0.00000000000E+00 -0.00000000000E+00 -0.17799932992E+03  0.17799932992E+03  0.00000000000E+00 0.  1.
          6    1    1    2  501    0 -0.30709766433E+02 -0.86592934225E+02  0.46377645603E+02  0.20044029541E+03  0.17200000000E+03 0. -1.
         -6    1    1    2    0  503  0.30709766433E+02  0.86592934225E+02 -0.68158376834E+01  0.19512017234E+03  0.17200000000E+03 0.  1.
<mgrwt>
<rscale>  2 0.19500109E+03</rscale>
<asrwt>0</asrwt>
<pdfrwt beam="1">  1       21 0.54390284E-01 0.19500109E+03</pdfrwt>
<pdfrwt beam="2">  1       21 0.44499833E-01 0.19500109E+03</pdfrwt>
<totfact> 0.15461778E+04</totfact>
</mgrwt>
</event>
<event>
 4    1  0.1119790E+000  0.1730764E+03  0.7546771E-02  0.1174677E+00
         21   -1    0    0  501  502  0.00000000000E+00  0.00000000000E+00  0.33367352840E+03  0.33367352840E+03  0.00000000000E+00 0. -1.
         21   -1    0    0  502  503 -0.00000000000E+00 -0.00000000000E+00 -0.11437278520E+03  0.11437278520E+03  0.00000000000E+00 0. -1.
          6    1    1    2  501    0  0.17475113577E+02 -0.81276764850E+01  0.57583318779E+01  0.17317216031E+03  0.17200000000E+03 0. -1.
         -6    1    1    2    0  503 -0.17475113577E+02  0.81276764850E+01  0.21354241132E+03  0.27487415330E+03  0.17200000000E+03 0. -1.
<mgrwt>
<rscale>  2 0.17307640E+03</rscale>
<asrwt>0</asrwt>
<pdfrwt beam="1">  1       21 0.83418380E-01 0.17307640E+03</pdfrwt>
<pdfrwt beam="2">  1       21 0.28593197E-01 0.17307640E+03</pdfrwt>
<totfact> 0.14822280E+04</totfact>
</mgrwt>
</event>
<event>
 4    1  0.1119790E+000  0.1823876E+03  0.7546771E-02  0.1165512E+00
         21   -1    0    0  501  502  0.00000000000E+00  0.00000000000E+00  0.26384447875E+02  0.26384447875E+02  0.00000000000E+00 0. -1.
         21   -1    0    0  502  503 -0.00000000000E+00 -0.00000000000E+00 -0.12876145229E+04  0.12876145229E+04  0.00000000000E+00 0. -1.
          6    1    1    2  501    0 -0.32762902230E+02 -0.51067026842E+02 -0.53578677224E+03  0.56597942922E+03  0.17200000000E+03 0. -1.
         -6    1    1    2    0  503  0.32762902230E+02  0.51067026842E+02 -0.72544330282E+03  0.74801954159E+03  0.17200000000E+03 0. -1.
<mgrwt>
<rscale>  2 0.18238763E+03</rscale>
<asrwt>0</asrwt>
<pdfrwt beam="1">  1       21 0.65961122E-02 0.18238763E+03</pdfrwt>
<pdfrwt beam="2">  1       21 0.32190362E+00 0.18238763E+03</pdfrwt>
<totfact> 0.43322882E+03</totfact>
</mgrwt>
</event>
<event>
 4    1  0.1119790E+000  0.1975572E+03  0.7546771E-02  0.1151817E+00
         21   -1    0    0  503  502  0.00000000000E+00  0.00000000000E+00  0.44613485005E+03  0.44613485005E+03  0.00000000000E+00 0.  1.
         21   -1    0    0  501  503 -0.00000000000E+00 -0.00000000000E+00 -0.89484209805E+02  0.89484209805E+02  0.00000000000E+00 0. -1.
          6    1    1    2  501    0  0.90771227583E+02 -0.34719272127E+02  0.21838333880E+03  0.29448281152E+03  0.17200000000E+03 0. -1.
         -6    1    1    2    0  502 -0.90771227583E+02  0.34719272127E+02  0.13826730145E+03  0.24113624834E+03  0.17200000000E+03 0.  1.
<mgrwt>
<rscale>  2 0.19755719E+03</rscale>
<asrwt>0</asrwt>
<pdfrwt beam="1">  1       21 0.11153371E+00 0.19755719E+03</pdfrwt>
<pdfrwt beam="2">  1       21 0.22371054E-01 0.19755719E+03</pdfrwt>
<totfact> 0.11772203E+04</totfact>
</mgrwt>
</event>
<event>
 4    1  0.1119790E+000  0.1819625E+03  0.7546771E-02  0.1165917E+00
         21   -1    0    0  503  502  0.00000000000E+00  0.00000000000E+00  0.67017165690E+03  0.67017165690E+03  0.00000000000E+00 0. -1.
         21   -1    0    0  501  503 -0.00000000000E+00 -0.00000000000E+00 -0.52739461339E+02  0.52739461339E+02  0.00000000000E+00 0. -1.
          6    1    1    2  501    0  0.10592227683E+02  0.58430757091E+02  0.21784002088E+03  0.28383908004E+03  0.17200000000E+03 0. -1.
         -6    1    1    2    0  502 -0.10592227683E+02 -0.58430757091E+02  0.39959217468E+03  0.43907203820E+03  0.17200000000E+03 0. -1.
<mgrwt>
<rscale>  2 0.18196249E+03</rscale>
<asrwt>0</asrwt>
<pdfrwt beam="1">  1       21 0.16754289E+00 0.18196249E+03</pdfrwt>
<pdfrwt beam="2">  1       21 0.13184867E-01 0.18196249E+03</pdfrwt>
<totfact> 0.11097134E+04</totfact>
</mgrwt>
</event>
<event>
 4    1  0.1119790E+000  0.1947370E+03  0.7546771E-02  0.1154257E+00
         21   -1    0    0  503  502  0.00000000000E+00  0.00000000000E+00  0.24881444637E+02  0.24881444637E+02  0.00000000000E+00 0. -1.
         21   -1    0    0  501  503 -0.00000000000E+00 -0.00000000000E+00 -0.15659907747E+04  0.15659907747E+04  0.00000000000E+00 0. -1.
          6    1    1    2  501    0  0.71569395221E+02  0.56712742199E+02 -0.90060852516E+03  0.92142185184E+03  0.17200000000E+03 0. -1.
         -6    1    1    2    0  502 -0.71569395221E+02 -0.56712742199E+02 -0.64050080493E+03  0.66945036752E+03  0.17200000000E+03 0. -1.
<mgrwt>
<rscale>  2 0.19473704E+03</rscale>
<asrwt>0</asrwt>
<pdfrwt beam="1">  1       21 0.62203612E-02 0.19473704E+03</pdfrwt>
<pdfrwt beam="2">  1       21 0.39149769E+00 0.19473704E+03</pdfrwt>
<totfact> 0.18173041E+03</totfact>
</mgrwt>
</event>
<event>
 4    1  0.1119790E+000  0.3892698E+03  0.7546771E-02  0.1047560E+00
         21   -1    0    0  503  502  0.00000000000E+00  0.00000000000E+00  0.56868479079E+03  0.56868479079E+03  0.00000000000E+00 0.  1.
         21   -1    0    0  501  503 -0.00000000000E+00 -0.00000000000E+00 -0.29081553481E+03  0.29081553481E+03  0.00000000000E+00 0. -1.
          6    1    1    2  501    0  0.16685507328E+03 -0.30676762102E+03  0.14563948307E+02  0.38954216380E+03  0.17200000000E+03 0. -1.
         -6    1    1    2    0  502 -0.16685507328E+03  0.30676762102E+03  0.26330530767E+03  0.46995816179E+03  0.17200000000E+03 0. -1.
<mgrwt>
<rscale>  2 0.38926981E+03</rscale>
<asrwt>0</asrwt>
<pdfrwt beam="1">  1       21 0.14217120E+00 0.38926981E+03</pdfrwt>
<pdfrwt beam="2">  1       21 0.72703884E-01 0.38926981E+03</pdfrwt>
<totfact> 0.50340635E+02</totfact>
</mgrwt>
</event>
<event>
 4    1  0.1119790E+000  0.1750759E+03  0.7546771E-02  0.1172655E+00
         21   -1    0    0  503  502  0.00000000000E+00  0.00000000000E+00  0.61995161664E+03  0.61995161664E+03  0.00000000000E+00 0. -1.
         21   -1    0    0  501  503 -0.00000000000E+00 -0.00000000000E+00 -0.19288588430E+03  0.19288588430E+03  0.00000000000E+00 0. -1.
          6    1    1    2  501    0 -0.16039233092E+02  0.28466189792E+02 -0.13694830774E+03  0.22227554960E+03  0.17200000000E+03 0. -1.
         -6    1    1    2    0  502  0.16039233092E+02 -0.28466189792E+02  0.56401404008E+03  0.59056195134E+03  0.17200000000E+03 0. -1.
<mgrwt>
<rscale>  2 0.17507593E+03</rscale>
<asrwt>0</asrwt>
<pdfrwt beam="1">  1       21 0.15498790E+00 0.17507593E+03</pdfrwt>
<pdfrwt beam="2">  1       21 0.48221472E-01 0.17507593E+03</pdfrwt>
<totfact> 0.11478709E+03</totfact>
</mgrwt>
</event>
<event>
 4    1  0.1119790E+000  0.1977948E+03  0.7546771E-02  0.1151613E+00
         21   -1    0    0  501  502  0.00000000000E+00  0.00000000000E+00  0.59305443049E+03  0.59305443049E+03  0.00000000000E+00 0.  1.
         21   -1    0    0  502  503 -0.00000000000E+00 -0.00000000000E+00 -0.10891188544E+03  0.10891188544E+03  0.00000000000E+00 0. -1.
          6    1    1    2  501    0 -0.98831295198E+00 -0.97661761612E+02  0.46246425241E+03  0.50298705868E+03  0.17200000000E+03 0.  1.
         -6    1    1    2    0  503  0.98831295198E+00  0.97661761612E+02  0.21678292638E+02  0.19897925725E+03  0.17200000000E+03 0. -1.
<mgrwt>
<rscale>  2 0.19779483E+03</rscale>
<asrwt>0</asrwt>
<pdfrwt beam="1">  1       21 0.14826360E+00 0.19779483E+03</pdfrwt>
<pdfrwt beam="2">  1       21 0.27227973E-01 0.19779483E+03</pdfrwt>
<totfact> 0.39454481E+03</totfact>
</mgrwt>
</event>
<event>
 4    1  0.1119790E+000  0.2115382E+03  0.7546771E-02  0.1140354E+00
         21   -1    0    0  503  502  0.00000000000E+00  0.00000000000E+00  0.26696378020E+03  0.26696378020E+03  0.00000000000E+00 0. -1.
         21   -1    0    0  501  503 -0.00000000000E+00 -0.00000000000E+00 -0.16811499034E+03  0.16811499034E+03  0.00000000000E+00 0. -1.
          6    1    1    2  501    0 -0.99007647814E+02 -0.73224871108E+02  0.61231748635E+02  0.22022198599E+03  0.17200000000E+03 0. -1.
         -6    1    1    2    0  502  0.99007647814E+02  0.73224871108E+02  0.37617041222E+02  0.21485678454E+03  0.17200000000E+03 0. -1.
<mgrwt>
<rscale>  2 0.21153817E+03</rscale>
<asrwt>0</asrwt>
<pdfrwt beam="1">  1       21 0.66740944E-01 0.21153817E+03</pdfrwt>
<pdfrwt beam="2">  1       21 0.42028748E-01 0.21153817E+03</pdfrwt>
<totfact> 0.11069631E+04</totfact>
</mgrwt>
</event>
<event>
 4    1  0.1119790E+000  0.1945754E+03  0.7546771E-02  0.1154398E+00
         21   -1    0    0  503  502  0.00000000000E+00  0.00000000000E+00  0.54686834230E+03  0.54686834230E+03  0.00000000000E+00 0.  1.
         21   -1    0    0  501  503 -0.00000000000E+00 -0.00000000000E+00 -0.25282721075E+03  0.25282721075E+03  0.00000000000E+00 0.  1.
          6    1    1    2  501    0 -0.39347939594E+02 -0.82020179732E+02 -0.19371391835E+03  0.27456265660E+03  0.17200000000E+03 0.  1.
         -6    1    1    2    0  502  0.39347939594E+02  0.82020179732E+02  0.48775504990E+03  0.52513289646E+03  0.17200000000E+03 0.  1.
<mgrwt>
<rscale>  2 0.19457536E+03</rscale>
<asrwt>0</asrwt>
<pdfrwt beam="1">  1       21 0.13671708E+00 0.19457536E+03</pdfrwt>
<pdfrwt beam="2">  1       21 0.63206804E-01 0.19457536E+03</pdfrwt>
<totfact> 0.87922154E+02</totfact>
</mgrwt>
</event>
<event>
 4    1  0.1119790E+000  0.1911798E+03  0.7546771E-02  0.1157402E+00
         21   -1    0    0  501  502  0.00000000000E+00  0.00000000000E+00  0.76766635134E+03  0.76766635134E+03  0.00000000000E+00 0.  1.
         21   -1    0    0  502  503 -0.00000000000E+00 -0.00000000000E+00 -0.53601115242E+02  0.53601115242E+02  0.00000000000E+00 0.  1.
          6    1    1    2  501    0  0.78863558556E+02 -0.27317751498E+02  0.49430033309E+03  0.52998352777E+03  0.17200000000E+03 0.  1.
         -6    1    1    2    0  503 -0.78863558556E+02  0.27317751498E+02  0.21976490301E+03  0.29128393881E+03  0.17200000000E+03 0.  1.
<mgrwt>
<rscale>  2 0.19117981E+03</rscale>
<asrwt>0</asrwt>
<pdfrwt beam="1">  1       21 0.19191655E+00 0.19117981E+03</pdfrwt>
<pdfrwt beam="2">  1       21 0.13400281E-01 0.19117981E+03</pdfrwt>
<totfact> 0.73012968E+03</totfact>
</mgrwt>
</event>
<event>
 4    1  0.1119790E+000  0.2103931E+03  0.7546771E-02  0.1141255E+00
         21   -1    0    0  503  502  0.00000000000E+00  0.00000000000E+00  0.26122630879E+03  0.26122630879E+03  0.00000000000E+00 0. -1.
         21   -1    0    0  501  503 -0.00000000000E+00 -0.00000000000E+00 -0.22063485668E+03  0.22063485668E+03  0.00000000000E+00 0.  1.
          6    1    1    2  501    0  0.29323150854E+01  0.12113067739E+03 -0.95747139558E+02  0.23115525997E+03  0.17200000000E+03 0. -1.
         -6    1    1    2    0  502 -0.29323150854E+01 -0.12113067739E+03  0.13633859167E+03  0.25070590551E+03  0.17200000000E+03 0. -1.
<mgrwt>
<rscale>  2 0.21039306E+03</rscale>
<asrwt>0</asrwt>
<pdfrwt beam="1">  1       21 0.65306577E-01 0.21039306E+03</pdfrwt>
<pdfrwt beam="2">  1       21 0.55158714E-01 0.21039306E+03</pdfrwt>
<totfact> 0.66017394E+03</totfact>
</mgrwt>
</event>
<event>
 4    1  0.1119790E+000  0.1727153E+03  0.7546771E-02  0.1175045E+00
         21   -1    0    0  501  502  0.00000000000E+00  0.00000000000E+00  0.77463546235E+02  0.77463546235E+02  0.00000000000E+00 0.  1.
         21   -1    0    0  502  503 -0.00000000000E+00 -0.00000000000E+00 -0.39418932331E+03  0.39418932331E+03  0.00000000000E+00 0. -1.
          6    1    1    2  501    0 -0.13057888959E+02 -0.87223946543E+01 -0.12253692391E+03  0.21176847347E+03  0.17200000000E+03 0.  1.
         -6    1    1    2    0  503  0.13057888959E+02  0.87223946543E+01 -0.19418885316E+03  0.25988439608E+03  0.17200000000E+03 0. -1.
<mgrwt>
<rscale>  2 0.17271534E+03</rscale>
<asrwt>0</asrwt>
<pdfrwt beam="1">  1       21 0.19365887E-01 0.17271534E+03</pdfrwt>
<pdfrwt beam="2">  1       21 0.98547331E-01 0.17271534E+03</pdfrwt>
<totfact> 0.21092176E+04</totfact>
</mgrwt>
</event>
<event>
 4    1  0.1119790E+000  0.1979968E+03  0.7546771E-02  0.1151440E+00
         21   -1    0    0  503  502  0.00000000000E+00  0.00000000000E+00  0.26401800581E+03  0.26401800581E+03  0.00000000000E+00 0. -1.
         21   -1    0    0  501  503 -0.00000000000E+00 -0.00000000000E+00 -0.20458480099E+03  0.20458480099E+03  0.00000000000E+00 0.  1.
          6    1    1    2  501    0  0.17279697395E+02 -0.96540882425E+02 -0.92976070492E+02  0.21874021031E+03  0.17200000000E+03 0.  1.
         -6    1    1    2    0  502 -0.17279697395E+02  0.96540882425E+02  0.15240927532E+03  0.24986259649E+03  0.17200000000E+03 0. -1.
<mgrwt>
<rscale>  2 0.19799679E+03</rscale>
<asrwt>0</asrwt>
<pdfrwt beam="1">  1       21 0.66004501E-01 0.19799679E+03</pdfrwt>
<pdfrwt beam="2">  1       21 0.51146200E-01 0.19799679E+03</pdfrwt>
<totfact> 0.76308371E+03</totfact>
</mgrwt>
</event>
<event>
 4    1  0.1119790E+000  0.2186309E+03  0.7546771E-02  0.1134908E+00
         21   -1    0    0  501  502  0.00000000000E+00  0.00000000000E+00  0.67520862738E+03  0.67520862738E+03  0.00000000000E+00 0. -1.
         21   -1    0    0  502  503 -0.00000000000E+00 -0.00000000000E+00 -0.97713937096E+02  0.97713937096E+02  0.00000000000E+00 0.  1.
          6    1    1    2  501    0 -0.13312140262E+03  0.22230117647E+02  0.49159943741E+03  0.53802369169E+03  0.17200000000E+03 0. -1.
         -6    1    1    2    0  503  0.13312140262E+03 -0.22230117647E+02  0.85895252879E+02  0.23489887278E+03  0.17200000000E+03 0.  1.
<mgrwt>
<rscale>  2 0.21863094E+03</rscale>
<asrwt>0</asrwt>
<pdfrwt beam="1">  1       21 0.16880214E+00 0.21863094E+03</pdfrwt>
<pdfrwt beam="2">  1       21 0.24428486E-01 0.21863094E+03</pdfrwt>
<totfact> 0.33657875E+03</totfact>
</mgrwt>
</event>
<event>
 4    1  0.1119790E+000  0.2091819E+03  0.7546771E-02  0.1142215E+00
         21   -1    0    0  501  502  0.00000000000E+00  0.00000000000E+00  0.15322243036E+03  0.15322243036E+03  0.00000000000E+00 0. -1.
         21   -1    0    0  502  503 -0.00000000000E+00 -0.00000000000E+00 -0.43003580788E+03  0.43003580788E+03  0.00000000000E+00 0.  1.
          6    1    1    2  501    0  0.10303065341E+02 -0.11860409262E+03  0.30617096538E+02  0.21141071529E+03  0.17200000000E+03 0. -1.
         -6    1    1    2    0  503 -0.10303065341E+02  0.11860409262E+03 -0.30743047406E+03  0.37184752295E+03  0.17200000000E+03 0.  1.
<mgrwt>
<rscale>  2 0.20918194E+03</rscale>
<asrwt>0</asrwt>
<pdfrwt beam="1">  1       21 0.38305608E-01 0.20918194E+03</pdfrwt>
<pdfrwt beam="2">  1       21 0.10750895E+00 0.20918194E+03</pdfrwt>
<totfact> 0.44768951E+03</totfact>
</mgrwt>
</event>
<event>
 4    1  0.1119790E+000  0.2684425E+03  0.7546771E-02  0.1102174E+00
         21   -1    0    0  503  502  0.00000000000E+00  0.00000000000E+00  0.98128939437E+03  0.98128939437E+03  0.00000000000E+00 0. -1.
         21   -1    0    0  501  503 -0.00000000000E+00 -0.00000000000E+00 -0.14866868421E+03  0.14866868421E+03  0.00000000000E+00 0. -1.
          6    1    1    2  501    0 -0.18139805679E+03  0.97837148170E+02  0.14401434005E+02  0.26882850271E+03  0.17200000000E+03 0. -1.
         -6    1    1    2    0  502  0.18139805679E+03 -0.97837148170E+02  0.81821927615E+03  0.86112957587E+03  0.17200000000E+03 0. -1.
<mgrwt>
<rscale>  2 0.26844248E+03</rscale>
<asrwt>0</asrwt>
<pdfrwt beam="1">  1       21 0.24532233E+00 0.26844248E+03</pdfrwt>
<pdfrwt beam="2">  1       21 0.37167174E-01 0.26844248E+03</pdfrwt>
<totfact> 0.45438599E+02</totfact>
</mgrwt>
</event>
<event>
 4    1  0.1119790E+000  0.2186950E+03  0.7546771E-02  0.1134860E+00
         21   -1    0    0  503  502  0.00000000000E+00  0.00000000000E+00  0.17543456851E+03  0.17543456851E+03  0.00000000000E+00 0. -1.
         21   -1    0    0  501  503 -0.00000000000E+00 -0.00000000000E+00 -0.32659299065E+03  0.32659299065E+03  0.00000000000E+00 0.  1.
          6    1    1    2  501    0 -0.12025223012E+03 -0.61505324366E+02 -0.17761914782E+03  0.28173758259E+03  0.17200000000E+03 0.  1.
         -6    1    1    2    0  502  0.12025223012E+03  0.61505324366E+02  0.26460725676E+02  0.22028997657E+03  0.17200000000E+03 0.  1.
<mgrwt>
<rscale>  2 0.21869500E+03</rscale>
<asrwt>0</asrwt>
<pdfrwt beam="1">  1       21 0.43858643E-01 0.21869500E+03</pdfrwt>
<pdfrwt beam="2">  1       21 0.81648247E-01 0.21869500E+03</pdfrwt>
<totfact> 0.64367494E+03</totfact>
</mgrwt>
</event>
<event>
 4    1  0.1119790E+000  0.2252891E+03  0.7546771E-02  0.1130000E+00
         21   -1    0    0  503  502  0.00000000000E+00  0.00000000000E+00  0.28436502584E+03  0.28436502584E+03  0.00000000000E+00 0.  1.
         21   -1    0    0  501  503 -0.00000000000E+00 -0.00000000000E+00 -0.19969449819E+03  0.19969449819E+03  0.00000000000E+00 0.  1.
          6    1    1    2  501    0  0.85981608426E+02 -0.11738109586E+03  0.12121061517E+03  0.25582644876E+03  0.17200000000E+03 0.  1.
         -6    1    1    2    0  502 -0.85981608426E+02  0.11738109586E+03 -0.36540087525E+02  0.22823307527E+03  0.17200000000E+03 0.  1.
<mgrwt>
<rscale>  2 0.22528906E+03</rscale>
<asrwt>0</asrwt>
<pdfrwt beam="1">  1       21 0.71091256E-01 0.22528906E+03</pdfrwt>
<pdfrwt beam="2">  1       21 0.49923625E-01 0.22528906E+03</pdfrwt>
<totfact> 0.66885256E+03</totfact>
</mgrwt>
</event>
<event>
 4    1  0.1119790E+000  0.1838497E+03  0.7546771E-02  0.1164128E+00
         21   -1    0    0  501  502  0.00000000000E+00  0.00000000000E+00  0.77950634088E+02  0.77950634088E+02  0.00000000000E+00 0. -1.
         21   -1    0    0  502  503 -0.00000000000E+00 -0.00000000000E+00 -0.43489868211E+03  0.43489868211E+03  0.00000000000E+00 0. -1.
          6    1    1    2  501    0  0.60963357802E+02 -0.22364635189E+02 -0.16455263995E+03  0.24673524113E+03  0.17200000000E+03 0.  1.
         -6    1    1    2    0  503 -0.60963357802E+02  0.22364635189E+02 -0.19239540807E+03  0.26611407507E+03  0.17200000000E+03 0.  1.
<mgrwt>
<rscale>  2 0.18384969E+03</rscale>
<asrwt>0</asrwt>
<pdfrwt beam="1">  1       21 0.19487659E-01 0.18384969E+03</pdfrwt>
<pdfrwt beam="2">  1       21 0.10872467E+00 0.18384969E+03</pdfrwt>
<totfact> 0.16369275E+04</totfact>
</mgrwt>
</event>
<event>
 4    1  0.1119790E+000  0.1739404E+03  0.7546771E-02  0.1173800E+00
         21   -1    0    0  501  502  0.00000000000E+00  0.00000000000E+00  0.69472960974E+03  0.69472960974E+03  0.00000000000E+00 0.  1.
         21   -1    0    0  502  503 -0.00000000000E+00 -0.00000000000E+00 -0.99431344908E+02  0.99431344908E+02  0.00000000000E+00 0.  1.
          6    1    1    2  501    0 -0.17922544636E+02 -0.18709062648E+02  0.59533044905E+03  0.62022059801E+03  0.17200000000E+03 0.  1.
         -6    1    1    2    0  503  0.17922544636E+02  0.18709062648E+02 -0.32184217705E-01  0.17394035664E+03  0.17200000000E+03 0.  1.
<mgrwt>
<rscale>  2 0.17394035E+03</rscale>
<asrwt>0</asrwt>
<pdfrwt beam="1">  1       21 0.17368239E+00 0.17394035E+03</pdfrwt>
<pdfrwt beam="2">  1       21 0.24857838E-01 0.17394035E+03</pdfrwt>
<totfact> 0.31362367E+03</totfact>
</mgrwt>
</event>
<event>
 4    1  0.1119790E+000  0.1928701E+03  0.7546771E-02  0.1155898E+00
         21   -1    0    0  501  502  0.00000000000E+00  0.00000000000E+00  0.11388916872E+04  0.11388916872E+04  0.00000000000E+00 0. -1.
         21   -1    0    0  502  503 -0.00000000000E+00 -0.00000000000E+00 -0.14750327585E+03  0.14750327585E+03  0.00000000000E+00 0. -1.
          6    1    1    2  501    0 -0.51774692684E+02 -0.70244172605E+02  0.10632281896E+04  0.10805799580E+04  0.17200000000E+03 0. -1.
         -6    1    1    2    0  503  0.51774692684E+02  0.70244172605E+02 -0.71839778171E+02  0.20581500508E+03  0.17200000000E+03 0. -1.
<mgrwt>
<rscale>  2 0.19287007E+03</rscale>
<asrwt>0</asrwt>
<pdfrwt beam="1">  1       21 0.28472290E+00 0.19287007E+03</pdfrwt>
<pdfrwt beam="2">  1       21 0.36875822E-01 0.19287007E+03</pdfrwt>
<totfact> 0.29634939E+02</totfact>
</mgrwt>
</event>
<event>
 4    1  0.1119790E+000  0.3107851E+03  0.7546771E-02  0.1079970E+00
         21   -1    0    0  503  502  0.00000000000E+00  0.00000000000E+00  0.33539794099E+03  0.33539794099E+03  0.00000000000E+00 0.  1.
         21   -1    0    0  501  503 -0.00000000000E+00 -0.00000000000E+00 -0.42818044722E+03  0.42818044722E+03  0.00000000000E+00 0.  1.
          6    1    1    2  501    0  0.17367712997E+03  0.19193656749E+03 -0.26485896505E+03  0.40833523333E+03  0.17200000000E+03 0.  1.
         -6    1    1    2    0  502 -0.17367712997E+03 -0.19193656749E+03  0.17207645882E+03  0.35524315488E+03  0.17200000000E+03 0.  1.
<mgrwt>
<rscale>  2 0.31078512E+03</rscale>
<asrwt>0</asrwt>
<pdfrwt beam="1">  1       21 0.83849485E-01 0.31078512E+03</pdfrwt>
<pdfrwt beam="2">  1       21 0.10704511E+00 0.31078512E+03</pdfrwt>
<totfact> 0.78263404E+02</totfact>
</mgrwt>
</event>
<event>
 4    1  0.1119790E+000  0.1788758E+03  0.7546771E-02  0.1168895E+00
         21   -1    0    0  503  502  0.00000000000E+00  0.00000000000E+00  0.26215179973E+03  0.26215179973E+03  0.00000000000E+00 0. -1.
         21   -1    0    0  501  503 -0.00000000000E+00 -0.00000000000E+00 -0.20002260381E+03  0.20002260381E+03  0.00000000000E+00 0. -1.
          6    1    1    2  501    0  0.40251946390E+02  0.28148453796E+02 -0.11321254080E+03  0.21169230981E+03  0.17200000000E+03 0. -1.
         -6    1    1    2    0  502 -0.40251946390E+02 -0.28148453796E+02  0.17534173673E+03  0.25048209373E+03  0.17200000000E+03 0. -1.
<mgrwt>
<rscale>  2 0.17887581E+03</rscale>
<asrwt>0</asrwt>
<pdfrwt beam="1">  1       21 0.65537950E-01 0.17887581E+03</pdfrwt>
<pdfrwt beam="2">  1       21 0.50005651E-01 0.17887581E+03</pdfrwt>
<totfact> 0.82368095E+03</totfact>
</mgrwt>
</event>
<event>
 4    1  0.1119790E+000  0.1938632E+03  0.7546771E-02  0.1155022E+00
         21   -1    0    0  503  502  0.00000000000E+00  0.00000000000E+00  0.76109448889E+03  0.76109448889E+03  0.00000000000E+00 0. -1.
         21   -1    0    0  501  503 -0.00000000000E+00 -0.00000000000E+00 -0.51626797054E+02  0.51626797054E+02  0.00000000000E+00 0.  1.
          6    1    1    2  501    0 -0.89250052496E+02  0.57762108179E+01  0.43950429090E+03  0.48036127883E+03  0.17200000000E+03 0. -1.
         -6    1    1    2    0  502  0.89250052496E+02 -0.57762108179E+01  0.26996340094E+03  0.33236000711E+03  0.17200000000E+03 0.  1.
<mgrwt>
<rscale>  2 0.19386319E+03</rscale>
<asrwt>0</asrwt>
<pdfrwt beam="1">  1       21 0.19027359E+00 0.19386319E+03</pdfrwt>
<pdfrwt beam="2">  1       21 0.12906702E-01 0.19386319E+03</pdfrwt>
<totfact> 0.79902996E+03</totfact>
</mgrwt>
</event>
<event>
 4    1  0.1119790E+000  0.1815959E+03  0.7546771E-02  0.1166267E+00
         21   -1    0    0  501  502  0.00000000000E+00  0.00000000000E+00  0.23273619664E+03  0.23273619664E+03  0.00000000000E+00 0.  1.
         21   -1    0    0  502  503 -0.00000000000E+00 -0.00000000000E+00 -0.17811665491E+03  0.17811665491E+03  0.00000000000E+00 0.  1.
          6    1    1    2  501    0 -0.56087047180E+02  0.15726216411E+02  0.12020561748E+03  0.21777617229E+03  0.17200000000E+03 0.  1.
         -6    1    1    2    0  503  0.56087047180E+02 -0.15726216411E+02 -0.65586075748E+02  0.19307667927E+03  0.17200000000E+03 0.  1.
<mgrwt>
<rscale>  2 0.18159590E+03</rscale>
<asrwt>0</asrwt>
<pdfrwt beam="1">  1       21 0.58184049E-01 0.18159590E+03</pdfrwt>
<pdfrwt beam="2">  1       21 0.44529164E-01 0.18159590E+03</pdfrwt>
<totfact> 0.13496968E+04</totfact>
</mgrwt>
</event>
<event>
 4    1  0.1119790E+000  0.1756865E+03  0.7546771E-02  0.1172044E+00
         21   -1    0    0  501  502  0.00000000000E+00  0.00000000000E+00  0.41007687412E+03  0.41007687412E+03  0.00000000000E+00 0. -1.
         21   -1    0    0  502  503 -0.00000000000E+00 -0.00000000000E+00 -0.79802852470E+02  0.79802852470E+02  0.00000000000E+00 0. -1.
          6    1    1    2  501    0  0.34753452159E+02 -0.85982197605E+01  0.22352508862E+03  0.28430476089E+03  0.17200000000E+03 0. -1.
         -6    1    1    2    0  503 -0.34753452159E+02  0.85982197605E+01  0.10674893302E+03  0.20557496570E+03  0.17200000000E+03 0. -1.
<mgrwt>
<rscale>  2 0.17568646E+03</rscale>
<asrwt>0</asrwt>
<pdfrwt beam="1">  1       21 0.10251921E+00 0.17568646E+03</pdfrwt>
<pdfrwt beam="2">  1       21 0.19950714E-01 0.17568646E+03</pdfrwt>
<totfact> 0.18137546E+04</totfact>
</mgrwt>
</event>
<event>
 4    1  0.1119790E+000  0.2528475E+03  0.7546771E-02  0.1111518E+00
         21   -1    0    0  501  502  0.00000000000E+00  0.00000000000E+00  0.43437627182E+03  0.43437627182E+03  0.00000000000E+00 0.  1.
         21   -1    0    0  502  503 -0.00000000000E+00 -0.00000000000E+00 -0.15221909122E+03  0.15221909122E+03  0.00000000000E+00 0. -1.
          6    1    1    2  501    0 -0.11767022780E+03  0.14318376161E+03  0.19443827188E+03  0.31896412599E+03  0.17200000000E+03 0.  1.
         -6    1    1    2    0  503  0.11767022780E+03 -0.14318376161E+03  0.87718908717E+02  0.26763123705E+03  0.17200000000E+03 0.  1.
<mgrwt>
<rscale>  2 0.25284753E+03</rscale>
<asrwt>0</asrwt>
<pdfrwt beam="1">  1       21 0.10859407E+00 0.25284753E+03</pdfrwt>
<pdfrwt beam="2">  1       21 0.38054774E-01 0.25284753E+03</pdfrwt>
<totfact> 0.42935301E+03</totfact>
</mgrwt>
</event>
<event>
 4    1  0.1119790E+000  0.2213368E+03  0.7546771E-02  0.1132890E+00
         21   -1    0    0  503  502  0.00000000000E+00  0.00000000000E+00  0.95591559189E+03  0.95591559189E+03  0.00000000000E+00 0. -1.
         21   -1    0    0  501  503 -0.00000000000E+00 -0.00000000000E+00 -0.52898341374E+02  0.52898341374E+02  0.00000000000E+00 0. -1.
          6    1    1    2  501    0  0.11254903230E+03 -0.82089535725E+02  0.36244923113E+03  0.42468744000E+03  0.17200000000E+03 0. -1.
         -6    1    1    2    0  502 -0.11254903230E+03  0.82089535725E+02  0.54056801939E+03  0.58412649327E+03  0.17200000000E+03 0. -1.
<mgrwt>
<rscale>  2 0.22133679E+03</rscale>
<asrwt>0</asrwt>
<pdfrwt beam="1">  1       21 0.23897884E+00 0.22133679E+03</pdfrwt>
<pdfrwt beam="2">  1       21 0.13224588E-01 0.22133679E+03</pdfrwt>
<totfact> 0.37007582E+03</totfact>
</mgrwt>
</event>
<event>
 4    1  0.1119790E+000  0.2496425E+03  0.7546771E-02  0.1113531E+00
         21   -1    0    0  503  502  0.00000000000E+00  0.00000000000E+00  0.10485271237E+03  0.10485271237E+03  0.00000000000E+00 0.  1.
         21   -1    0    0  501  503 -0.00000000000E+00 -0.00000000000E+00 -0.85668049580E+03  0.85668049580E+03  0.00000000000E+00 0.  1.
          6    1    1    2  501    0 -0.14487826129E+03 -0.10838662322E+03 -0.64194485141E+03  0.68877758597E+03  0.17200000000E+03 0.  1.
         -6    1    1    2    0  502  0.14487826129E+03  0.10838662322E+03 -0.10988293203E+03  0.27275562219E+03  0.17200000000E+03 0.  1.
<mgrwt>
<rscale>  2 0.24964249E+03</rscale>
<asrwt>0</asrwt>
<pdfrwt beam="1">  1       21 0.26213179E-01 0.24964249E+03</pdfrwt>
<pdfrwt beam="2">  1       21 0.21417012E+00 0.24964249E+03</pdfrwt>
<totfact> 0.14292268E+03</totfact>
</mgrwt>
</event>
<event>
 4    1  0.1119790E+000  0.2297997E+03  0.7546771E-02  0.1126781E+00
         21   -1    0    0  501  502  0.00000000000E+00  0.00000000000E+00  0.11462185191E+03  0.11462185191E+03  0.00000000000E+00 0. -1.
         21   -1    0    0  502  503 -0.00000000000E+00 -0.00000000000E+00 -0.54006579903E+03  0.54006579903E+03  0.00000000000E+00 0.  1.
          6    1    1    2  501    0  0.15046650004E+03  0.24160322085E+02 -0.33819757268E+03  0.40888321923E+03  0.17200000000E+03 0.  1.
         -6    1    1    2    0  503 -0.15046650004E+03 -0.24160322085E+02 -0.87246374439E+02  0.24580443171E+03  0.17200000000E+03 0. -1.
<mgrwt>
<rscale>  2 0.22979967E+03</rscale>
<asrwt>0</asrwt>
<pdfrwt beam="1">  1       21 0.28655463E-01 0.22979967E+03</pdfrwt>
<pdfrwt beam="2">  1       21 0.13501645E+00 0.22979967E+03</pdfrwt>
<totfact> 0.44426011E+03</totfact>
</mgrwt>
</event>
<event>
 4    1  0.1119790E+000  0.1837359E+03  0.7546771E-02  0.1164236E+00
         21   -1    0    0  501  502  0.00000000000E+00  0.00000000000E+00  0.54301040563E+03  0.54301040563E+03  0.00000000000E+00 0.  1.
         21   -1    0    0  502  503 -0.00000000000E+00 -0.00000000000E+00 -0.13034955302E+03  0.13034955302E+03  0.00000000000E+00 0.  1.
          6    1    1    2  501    0  0.20505587819E+02  0.61273248228E+02  0.44982539146E+03  0.48590304885E+03  0.17200000000E+03 0.  1.
         -6    1    1    2    0  503 -0.20505587819E+02 -0.61273248228E+02 -0.37164538856E+02  0.18745690979E+03  0.17200000000E+03 0.  1.
<mgrwt>
<rscale>  2 0.18373592E+03</rscale>
<asrwt>0</asrwt>
<pdfrwt beam="1">  1       21 0.13575260E+00 0.18373592E+03</pdfrwt>
<pdfrwt beam="2">  1       21 0.32587390E-01 0.18373592E+03</pdfrwt>
<totfact> 0.35376739E+03</totfact>
</mgrwt>
</event>
<event>
 4    1  0.1119790E+000  0.2385710E+03  0.7546771E-02  0.1120748E+00
         21   -1    0    0  503  502  0.00000000000E+00  0.00000000000E+00  0.21095800719E+03  0.21095800719E+03  0.00000000000E+00 0.  1.
         21   -1    0    0  501  503 -0.00000000000E+00 -0.00000000000E+00 -0.27008010479E+03  0.27008010479E+03  0.00000000000E+00 0.  1.
          6    1    1    2  501    0 -0.36269551668E+01 -0.16528447965E+03 -0.37330117492E+02  0.24147391513E+03  0.17200000000E+03 0.  1.
         -6    1    1    2    0  502  0.36269551668E+01  0.16528447965E+03 -0.21791980110E+02  0.23956419685E+03  0.17200000000E+03 0.  1.
<mgrwt>
<rscale>  2 0.23857098E+03</rscale>
<asrwt>0</asrwt>
<pdfrwt beam="1">  1       21 0.52739502E-01 0.23857098E+03</pdfrwt>
<pdfrwt beam="2">  1       21 0.67520026E-01 0.23857098E+03</pdfrwt>
<totfact> 0.66226834E+03</totfact>
</mgrwt>
</event>
<event>
 4    1  0.1119790E+000  0.2562288E+03  0.7546771E-02  0.1109430E+00
         21   -1    0    0  501  502  0.00000000000E+00  0.00000000000E+00  0.11495630934E+04  0.11495630934E+04  0.00000000000E+00 0.  1.
         21   -1    0    0  502  503 -0.00000000000E+00 -0.00000000000E+00 -0.57587275720E+02  0.57587275720E+02  0.00000000000E+00 0.  1.
          6    1    1    2  501    0  0.16048059052E+03 -0.10156368872E+03  0.60085310804E+03  0.65320567989E+03  0.17200000000E+03 0.  1.
         -6    1    1    2    0  503 -0.16048059052E+03  0.10156368872E+03  0.49112270962E+03  0.55394468921E+03  0.17200000000E+03 0.  1.
<mgrwt>
<rscale>  2 0.25622881E+03</rscale>
<asrwt>0</asrwt>
<pdfrwt beam="1">  1       21 0.28739070E+00 0.25622881E+03</pdfrwt>
<pdfrwt beam="2">  1       21 0.14396823E-01 0.25622881E+03</pdfrwt>
<totfact> 0.15902013E+03</totfact>
</mgrwt>
</event>
<event>
 4    1  0.1119790E+000  0.2681823E+03  0.7546771E-02  0.1102324E+00
         21   -1    0    0  501  502  0.00000000000E+00  0.00000000000E+00  0.12639739074E+03  0.12639739074E+03  0.00000000000E+00 0.  1.
         21   -1    0    0  502  503 -0.00000000000E+00 -0.00000000000E+00 -0.57111613466E+03  0.57111613466E+03  0.00000000000E+00 0. -1.
          6    1    1    2  501    0  0.16946419448E+03 -0.11670309354E+03 -0.24352451060E+03  0.36225117324E+03  0.17200000000E+03 0.  1.
         -6    1    1    2    0  503 -0.16946419448E+03  0.11670309354E+03 -0.20119423332E+03  0.33526235216E+03  0.17200000000E+03 0. -1.
<mgrwt>
<rscale>  2 0.26818226E+03</rscale>
<asrwt>0</asrwt>
<pdfrwt beam="1">  1       21 0.31599348E-01 0.26818226E+03</pdfrwt>
<pdfrwt beam="2">  1       21 0.14277903E+00 0.26818226E+03</pdfrwt>
<totfact> 0.30889168E+03</totfact>
</mgrwt>
</event>
<event>
 4    1  0.1119790E+000  0.1862684E+03  0.7546771E-02  0.1161871E+00
         21   -1    0    0  501  502  0.00000000000E+00  0.00000000000E+00  0.13964663606E+04  0.13964663606E+04  0.00000000000E+00 0. -1.
         21   -1    0    0  502  503 -0.00000000000E+00 -0.00000000000E+00 -0.24845568087E+02  0.24845568087E+02  0.00000000000E+00 0. -1.
          6    1    1    2  501    0  0.15738542823E+02  0.69743798946E+02  0.68702182241E+03  0.71182503727E+03  0.17200000000E+03 0. -1.
         -6    1    1    2    0  503 -0.15738542823E+02 -0.69743798946E+02  0.68459897010E+03  0.70948689141E+03  0.17200000000E+03 0. -1.
<mgrwt>
<rscale>  2 0.18626835E+03</rscale>
<asrwt>0</asrwt>
<pdfrwt beam="1">  1       21 0.34911633E+00 0.18626835E+03</pdfrwt>
<pdfrwt beam="2">  1       21 0.62113967E-02 0.18626835E+03</pdfrwt>
<totfact> 0.33171102E+03</totfact>
</mgrwt>
</event>
<event>
 4    1  0.1119790E+000  0.1986725E+03  0.7546771E-02  0.1150864E+00
         21   -1    0    0  503  502  0.00000000000E+00  0.00000000000E+00  0.72818067503E+03  0.72818067503E+03  0.00000000000E+00 0.  1.
         21   -1    0    0  501  503 -0.00000000000E+00 -0.00000000000E+00 -0.61434829456E+02  0.61434829456E+02  0.00000000000E+00 0.  1.
          6    1    1    2  501    0  0.84218063000E+02 -0.52859073188E+02  0.19793088011E+03  0.28044143248E+03  0.17200000000E+03 0.  1.
         -6    1    1    2    0  502 -0.84218063000E+02  0.52859073188E+02  0.46881496546E+03  0.50917407200E+03  0.17200000000E+03 0.  1.
<mgrwt>
<rscale>  2 0.19867250E+03</rscale>
<asrwt>0</asrwt>
<pdfrwt beam="1">  1       21 0.18204514E+00 0.19867250E+03</pdfrwt>
<pdfrwt beam="2">  1       21 0.15358710E-01 0.19867250E+03</pdfrwt>
<totfact> 0.65880546E+03</totfact>
</mgrwt>
</event>
<event>
 4    1  0.1119790E+000  0.3128119E+03  0.7546771E-02  0.1079006E+00
         21   -1    0    0  501  502  0.00000000000E+00  0.00000000000E+00  0.71603061432E+03  0.71603061432E+03  0.00000000000E+00 0. -1.
         21   -1    0    0  502  503 -0.00000000000E+00 -0.00000000000E+00 -0.15498065862E+03  0.15498065862E+03  0.00000000000E+00 0. -1.
          6    1    1    2  501    0  0.11021885897E+03 -0.23689470611E+03  0.13078095714E+03  0.33905008097E+03  0.17200000000E+03 0. -1.
         -6    1    1    2    0  503 -0.11021885897E+03  0.23689470611E+03  0.43026899855E+03  0.53196119197E+03  0.17200000000E+03 0. -1.
<mgrwt>
<rscale>  2 0.31281192E+03</rscale>
<asrwt>0</asrwt>
<pdfrwt beam="1">  1       21 0.17900764E+00 0.31281192E+03</pdfrwt>
<pdfrwt beam="2">  1       21 0.38745167E-01 0.31281192E+03</pdfrwt>
<totfact> 0.10726360E+03</totfact>
</mgrwt>
</event>
<event>
 4    1  0.1119790E+000  0.1860733E+03  0.7546771E-02  0.1162051E+00
         21   -1    0    0  501  502  0.00000000000E+00  0.00000000000E+00  0.35185349370E+03  0.35185349370E+03  0.00000000000E+00 0. -1.
         21   -1    0    0  502  503 -0.00000000000E+00 -0.00000000000E+00 -0.13065696771E+03  0.13065696771E+03  0.00000000000E+00 0. -1.
          6    1    1    2  501    0 -0.66131502743E+02  0.25804998725E+02 -0.92702713440E+01  0.18630408354E+03  0.17200000000E+03 0.  1.
         -6    1    1    2    0  503  0.66131502743E+02 -0.25804998725E+02  0.23046679733E+03  0.29620637786E+03  0.17200000000E+03 0.  1.
<mgrwt>
<rscale>  2 0.18607330E+03</rscale>
<asrwt>0</asrwt>
<pdfrwt beam="1">  1       21 0.87963372E-01 0.18607330E+03</pdfrwt>
<pdfrwt beam="2">  1       21 0.32664243E-01 0.18607330E+03</pdfrwt>
<totfact> 0.10036997E+04</totfact>
</mgrwt>
</event>
<event>
 4    1  0.1119790E+000  0.2619622E+03  0.7546771E-02  0.1105970E+00
         21   -1    0    0  503  502  0.00000000000E+00  0.00000000000E+00  0.42192794352E+03  0.42192794352E+03  0.00000000000E+00 0. -1.
         21   -1    0    0  501  503 -0.00000000000E+00 -0.00000000000E+00 -0.16962417009E+03  0.16962417009E+03  0.00000000000E+00 0. -1.
          6    1    1    2  501    0 -0.19393717785E+03 -0.37796367453E+02  0.18615052473E+03  0.32136616531E+03  0.17200000000E+03 0. -1.
         -6    1    1    2    0  502  0.19393717785E+03  0.37796367453E+02  0.66153248693E+02  0.27018594830E+03  0.17200000000E+03 0. -1.
<mgrwt>
<rscale>  2 0.26196220E+03</rscale>
<asrwt>0</asrwt>
<pdfrwt beam="1">  1       21 0.10548198E+00 0.26196220E+03</pdfrwt>
<pdfrwt beam="2">  1       21 0.42406043E-01 0.26196220E+03</pdfrwt>
<totfact> 0.36752487E+03</totfact>
</mgrwt>
</event>
<event>
 4    1  0.1119790E+000  0.2140920E+03  0.7546771E-02  0.1138366E+00
         21   -1    0    0  503  502  0.00000000000E+00  0.00000000000E+00  0.21259186128E+03  0.21259186128E+03  0.00000000000E+00 0.  1.
         21   -1    0    0  501  503 -0.00000000000E+00 -0.00000000000E+00 -0.45356707888E+03  0.45356707888E+03  0.00000000000E+00 0.  1.
          6    1    1    2  501    0  0.12637391446E+03  0.16764194337E+02 -0.36174630170E+03  0.42035198496E+03  0.17200000000E+03 0.  1.
         -6    1    1    2    0  502 -0.12637391446E+03 -0.16764194337E+02  0.12077108410E+03  0.24580695520E+03  0.17200000000E+03 0.  1.
<mgrwt>
<rscale>  2 0.21409205E+03</rscale>
<asrwt>0</asrwt>
<pdfrwt beam="1">  1       21 0.53147965E-01 0.21409205E+03</pdfrwt>
<pdfrwt beam="2">  1       21 0.11339177E+00 0.21409205E+03</pdfrwt>
<totfact> 0.19956693E+03</totfact>
</mgrwt>
</event>
<event>
 4    1  0.1119790E+000  0.2582417E+03  0.7546771E-02  0.1108204E+00
         21   -1    0    0  503  502  0.00000000000E+00  0.00000000000E+00  0.57405611619E+03  0.57405611619E+03  0.00000000000E+00 0. -1.
         21   -1    0    0  501  503 -0.00000000000E+00 -0.00000000000E+00 -0.13282333288E+03  0.13282333288E+03  0.00000000000E+00 0.  1.
          6    1    1    2  501    0  0.14584584038E+02 -0.19207308819E+03  0.95471462525E+02  0.27532450210E+03  0.17200000000E+03 0.  1.
         -6    1    1    2    0  502 -0.14584584038E+02  0.19207308819E+03  0.34576132079E+03  0.43155494697E+03  0.17200000000E+03 0. -1.
<mgrwt>
<rscale>  2 0.25824171E+03</rscale>
<asrwt>0</asrwt>
<pdfrwt beam="1">  1       21 0.14351402E+00 0.25824171E+03</pdfrwt>
<pdfrwt beam="2">  1       21 0.33205835E-01 0.25824171E+03</pdfrwt>
<totfact> 0.27808664E+03</totfact>
</mgrwt>
</event>
<event>
 4    1  0.1119790E+000  0.2331081E+03  0.7546771E-02  0.1124471E+00
         21   -1    0    0  501  502  0.00000000000E+00  0.00000000000E+00  0.27493064868E+03  0.27493064868E+03  0.00000000000E+00 0. -1.
         21   -1    0    0  502  503 -0.00000000000E+00 -0.00000000000E+00 -0.35241001974E+03  0.35241001974E+03  0.00000000000E+00 0. -1.
          6    1    1    2  501    0 -0.24577703617E+02 -0.15540699894E+03  0.16912561475E+03  0.28799804235E+03  0.17200000000E+03 0. -1.
         -6    1    1    2    0  503  0.24577703617E+02  0.15540699894E+03 -0.24660498581E+03  0.33934262606E+03  0.17200000000E+03 0. -1.
<mgrwt>
<rscale>  2 0.23310813E+03</rscale>
<asrwt>0</asrwt>
<pdfrwt beam="1">  1       21 0.68732663E-01 0.23310813E+03</pdfrwt>
<pdfrwt beam="2">  1       21 0.88102505E-01 0.23310813E+03</pdfrwt>
<totfact> 0.20573614E+03</totfact>
</mgrwt>
</event>
<event>
 4    1  0.1119790E+000  0.1959195E+03  0.7546771E-02  0.1153228E+00
         21   -1    0    0  503  502  0.00000000000E+00  0.00000000000E+00  0.16333273126E+03  0.16333273126E+03  0.00000000000E+00 0. -1.
         21   -1    0    0  501  503 -0.00000000000E+00 -0.00000000000E+00 -0.23633655709E+03  0.23633655709E+03  0.00000000000E+00 0. -1.
          6    1    1    2  501    0  0.52495259985E+02  0.77747555888E+02 -0.21516827766E+02  0.19709745976E+03  0.17200000000E+03 0. -1.
         -6    1    1    2    0  502 -0.52495259985E+02 -0.77747555888E+02 -0.51486998067E+02  0.20257182859E+03  0.17200000000E+03 0. -1.
<mgrwt>
<rscale>  2 0.19591946E+03</rscale>
<asrwt>0</asrwt>
<pdfrwt beam="1">  1       21 0.40833183E-01 0.19591946E+03</pdfrwt>
<pdfrwt beam="2">  1       21 0.59084139E-01 0.19591946E+03</pdfrwt>
<totfact> 0.15440850E+04</totfact>
</mgrwt>
</event>
<event>
 4    1  0.1119790E+000  0.1840189E+03  0.7546771E-02  0.1163969E+00
         21   -1    0    0  501  502  0.00000000000E+00  0.00000000000E+00  0.15935776908E+03  0.15935776908E+03  0.00000000000E+00 0. -1.
         21   -1    0    0  502  503 -0.00000000000E+00 -0.00000000000E+00 -0.37977060269E+03  0.37977060269E+03  0.00000000000E+00 0. -1.
          6    1    1    2  501    0 -0.48582466184E+02  0.43802881824E+02  0.68695928792E+02  0.19642321428E+03  0.17200000000E+03 0. -1.
         -6    1    1    2    0  503  0.48582466184E+02 -0.43802881824E+02 -0.28910876240E+03  0.34270515749E+03  0.17200000000E+03 0. -1.
<mgrwt>
<rscale>  2 0.18401888E+03</rscale>
<asrwt>0</asrwt>
<pdfrwt beam="1">  1       21 0.39839443E-01 0.18401888E+03</pdfrwt>
<pdfrwt beam="2">  1       21 0.94942649E-01 0.18401888E+03</pdfrwt>
<totfact> 0.56713960E+03</totfact>
</mgrwt>
</event>
<event>
 4    1  0.1119790E+000  0.2377866E+03  0.7546771E-02  0.1121276E+00
         21   -1    0    0  503  502  0.00000000000E+00  0.00000000000E+00  0.10743800777E+03  0.10743800777E+03  0.00000000000E+00 0. -1.
         21   -1    0    0  501  503 -0.00000000000E+00 -0.00000000000E+00 -0.61686699847E+03  0.61686699847E+03  0.00000000000E+00 0.  1.
          6    1    1    2  501    0 -0.10291044962E+02 -0.16386754706E+03 -0.39349503498E+03  0.45976170038E+03  0.17200000000E+03 0.  1.
         -6    1    1    2    0  502  0.10291044962E+02  0.16386754706E+03 -0.11593395573E+03  0.26454330586E+03  0.17200000000E+03 0. -1.
<mgrwt>
<rscale>  2 0.23778662E+03</rscale>
<asrwt>0</asrwt>
<pdfrwt beam="1">  1       21 0.26859502E-01 0.23778662E+03</pdfrwt>
<pdfrwt beam="2">  1       21 0.15421675E+00 0.23778662E+03</pdfrwt>
<totfact> 0.35333740E+03</totfact>
</mgrwt>
</event>
<event>
 4    1  0.1119790E+000  0.1944813E+03  0.7546771E-02  0.1154480E+00
         21   -1    0    0  501  502  0.00000000000E+00  0.00000000000E+00  0.26829199622E+03  0.26829199622E+03  0.00000000000E+00 0.  1.
         21   -1    0    0  502  503 -0.00000000000E+00 -0.00000000000E+00 -0.17609289835E+03  0.17609289835E+03  0.00000000000E+00 0.  1.
          6    1    1    2  501    0 -0.34931556410E+02 -0.83777995136E+02  0.14532225377E+03  0.24277875431E+03  0.17200000000E+03 0.  1.
         -6    1    1    2    0  503  0.34931556410E+02  0.83777995136E+02 -0.53123155898E+02  0.20160614027E+03  0.17200000000E+03 0.  1.
<mgrwt>
<rscale>  2 0.19448127E+03</rscale>
<asrwt>0</asrwt>
<pdfrwt beam="1">  1       21 0.67072999E-01 0.19448127E+03</pdfrwt>
<pdfrwt beam="2">  1       21 0.44023225E-01 0.19448127E+03</pdfrwt>
<totfact> 0.10075564E+04</totfact>
</mgrwt>
</event>
<event>
 4    1  0.1119790E+000  0.1844228E+03  0.7546771E-02  0.1163590E+00
         21   -1    0    0  501  502  0.00000000000E+00  0.00000000000E+00  0.82577642741E+02  0.82577642741E+02  0.00000000000E+00 0.  1.
         21   -1    0    0  502  503 -0.00000000000E+00 -0.00000000000E+00 -0.47287655925E+03  0.47287655925E+03  0.00000000000E+00 0.  1.
          6    1    1    2  501    0 -0.50239565093E+02 -0.43631882796E+02 -0.95399890828E+02  0.20763644735E+03  0.17200000000E+03 0. -1.
         -6    1    1    2    0  503  0.50239565093E+02  0.43631882796E+02 -0.29489902568E+03  0.34781775464E+03  0.17200000000E+03 0. -1.
<mgrwt>
<rscale>  2 0.18442276E+03</rscale>
<asrwt>0</asrwt>
<pdfrwt beam="1">  1       21 0.20644411E-01 0.18442276E+03</pdfrwt>
<pdfrwt beam="2">  1       21 0.11821914E+00 0.18442276E+03</pdfrwt>
<totfact> 0.11989705E+04</totfact>
</mgrwt>
</event>
<event>
 4    1  0.1119790E+000  0.1917567E+03  0.7546771E-02  0.1156886E+00
         21   -1    0    0  501  502  0.00000000000E+00  0.00000000000E+00  0.30636136798E+03  0.30636136798E+03  0.00000000000E+00 0. -1.
         21   -1    0    0  502  503 -0.00000000000E+00 -0.00000000000E+00 -0.14414163482E+03  0.14414163482E+03  0.00000000000E+00 0. -1.
          6    1    1    2  501    0  0.96502573130E+01  0.84223000817E+02 -0.11028932837E+02  0.19207362831E+03  0.17200000000E+03 0. -1.
         -6    1    1    2    0  503 -0.96502573130E+01 -0.84223000817E+02  0.17324866599E+03  0.25842937449E+03  0.17200000000E+03 0. -1.
<mgrwt>
<rscale>  2 0.19175672E+03</rscale>
<asrwt>0</asrwt>
<pdfrwt beam="1">  1       21 0.76590341E-01 0.19175672E+03</pdfrwt>
<pdfrwt beam="2">  1       21 0.36035409E-01 0.19175672E+03</pdfrwt>
<totfact> 0.11272950E+04</totfact>
</mgrwt>
</event>
<event>
 4    1  0.1119790E+000  0.1813531E+03  0.7546771E-02  0.1166500E+00
         21   -1    0    0  501  502  0.00000000000E+00  0.00000000000E+00  0.13504820243E+03  0.13504820243E+03  0.00000000000E+00 0.  1.
         21   -1    0    0  502  503 -0.00000000000E+00 -0.00000000000E+00 -0.40085876773E+03  0.40085876773E+03  0.00000000000E+00 0.  1.
          6    1    1    2  501    0 -0.56886198273E+02  0.83006444071E+01  0.34960093641E+02  0.18469203664E+03  0.17200000000E+03 0.  1.
         -6    1    1    2    0  503  0.56886198273E+02 -0.83006444071E+01 -0.30077065894E+03  0.35121493353E+03  0.17200000000E+03 0.  1.
<mgrwt>
<rscale>  2 0.18135308E+03</rscale>
<asrwt>0</asrwt>
<pdfrwt beam="1">  1       21 0.33762051E-01 0.18135308E+03</pdfrwt>
<pdfrwt beam="2">  1       21 0.10021469E+00 0.18135308E+03</pdfrwt>
<totfact> 0.69622948E+03</totfact>
</mgrwt>
</event>
<event>
 4    1  0.1119790E+000  0.2051486E+03  0.7546771E-02  0.1145466E+00
         21   -1    0    0  501  502  0.00000000000E+00  0.00000000000E+00  0.83020962206E+02  0.83020962206E+02  0.00000000000E+00 0.  1.
         21   -1    0    0  502  503 -0.00000000000E+00 -0.00000000000E+00 -0.58293093562E+03  0.58293093562E+03  0.00000000000E+00 0. -1.
          6    1    1    2  501    0 -0.10788382972E+03  0.29377431218E+02 -0.37018393278E+03  0.42322818700E+03  0.17200000000E+03 0. -1.
         -6    1    1    2    0  503  0.10788382972E+03 -0.29377431218E+02 -0.12972604063E+03  0.24272371083E+03  0.17200000000E+03 0.  1.
<mgrwt>
<rscale>  2 0.20514861E+03</rscale>
<asrwt>0</asrwt>
<pdfrwt beam="1">  1       21 0.20755241E-01 0.20514861E+03</pdfrwt>
<pdfrwt beam="2">  1       21 0.14573273E+00 0.20514861E+03</pdfrwt>
<totfact> 0.68749435E+03</totfact>
</mgrwt>
</event>
<event>
 4    1  0.1119790E+000  0.1720140E+03  0.7546771E-02  0.1175764E+00
         21   -1    0    0  501  502  0.00000000000E+00  0.00000000000E+00  0.82279833965E+03  0.82279833965E+03  0.00000000000E+00 0. -1.
         21   -1    0    0  502  503 -0.00000000000E+00 -0.00000000000E+00 -0.50477454128E+02  0.50477454128E+02  0.00000000000E+00 0. -1.
          6    1    1    2  501    0  0.20723177829E+01 -0.71262608864E+00  0.62031371345E+03  0.64372191623E+03  0.17200000000E+03 0. -1.
         -6    1    1    2    0  503 -0.20723177829E+01  0.71262608864E+00  0.15200717207E+03  0.22955387755E+03  0.17200000000E+03 0. -1.
<mgrwt>
<rscale>  2 0.17201396E+03</rscale>
<asrwt>0</asrwt>
<pdfrwt beam="1">  1       21 0.20569954E+00 0.17201396E+03</pdfrwt>
<pdfrwt beam="2">  1       21 0.12619366E-01 0.17201396E+03</pdfrwt>
<totfact> 0.67518160E+03</totfact>
</mgrwt>
</event>
<event>
 4    1  0.1119790E+000  0.1828972E+03  0.7546771E-02  0.1165028E+00
         21   -1    0    0  501  502  0.00000000000E+00  0.00000000000E+00  0.85453594258E+02  0.85453594258E+02  0.00000000000E+00 0.  1.
         21   -1    0    0  502  503 -0.00000000000E+00 -0.00000000000E+00 -0.39294131367E+03  0.39294131367E+03  0.00000000000E+00 0.  1.
          6    1    1    2  501    0  0.45710674319E+02  0.42165241343E+02 -0.16844714222E+03  0.24864797012E+03  0.17200000000E+03 0.  1.
         -6    1    1    2    0  503 -0.45710674319E+02 -0.42165241343E+02 -0.13904057719E+03  0.22974693780E+03  0.17200000000E+03 0.  1.
<mgrwt>
<rscale>  2 0.18289717E+03</rscale>
<asrwt>0</asrwt>
<pdfrwt beam="1">  1       21 0.21363399E-01 0.18289717E+03</pdfrwt>
<pdfrwt beam="2">  1       21 0.98235327E-01 0.18289717E+03</pdfrwt>
<totfact> 0.17575453E+04</totfact>
</mgrwt>
</event>
<event>
 4    1  0.1119790E+000  0.1770989E+03  0.7546771E-02  0.1170641E+00
         21   -1    0    0  503  502  0.00000000000E+00  0.00000000000E+00  0.35748358970E+02  0.35748358970E+02  0.00000000000E+00 0. -1.
         21   -1    0    0  501  503 -0.00000000000E+00 -0.00000000000E+00 -0.96124960097E+03  0.96124960097E+03  0.00000000000E+00 0. -1.
          6    1    1    2  501    0  0.38793670603E+02  0.16584810323E+02 -0.61002016875E+03  0.63520753387E+03  0.17200000000E+03 0. -1.
         -6    1    1    2    0  502 -0.38793670603E+02 -0.16584810323E+02 -0.31548107325E+03  0.36179042607E+03  0.17200000000E+03 0. -1.
<mgrwt>
<rscale>  2 0.17709886E+03</rscale>
<asrwt>0</asrwt>
<pdfrwt beam="1">  1       21 0.89370903E-02 0.17709886E+03</pdfrwt>
<pdfrwt beam="2">  1       21 0.24031239E+00 0.17709886E+03</pdfrwt>
<totfact> 0.76193525E+03</totfact>
</mgrwt>
</event>
<event>
 4    1  0.1119790E+000  0.1738530E+03  0.7546771E-02  0.1173888E+00
         21   -1    0    0  501  502  0.00000000000E+00  0.00000000000E+00  0.39539347044E+03  0.39539347044E+03  0.00000000000E+00 0. -1.
         21   -1    0    0  502  503 -0.00000000000E+00 -0.00000000000E+00 -0.96482619008E+02  0.96482619008E+02  0.00000000000E+00 0. -1.
          6    1    1    2  501    0  0.62329350130E+01 -0.24536046933E+02  0.26154140103E+03  0.31405217963E+03  0.17200000000E+03 0.  1.
         -6    1    1    2    0  503 -0.62329350130E+01  0.24536046933E+02  0.37369450395E+02  0.17782390981E+03  0.17200000000E+03 0.  1.
<mgrwt>
<rscale>  2 0.17385300E+03</rscale>
<asrwt>0</asrwt>
<pdfrwt beam="1">  1       21 0.98848363E-01 0.17385300E+03</pdfrwt>
<pdfrwt beam="2">  1       21 0.24120656E-01 0.17385300E+03</pdfrwt>
<totfact> 0.13858052E+04</totfact>
</mgrwt>
</event>
<event>
 4    1  0.1119790E+000  0.1846727E+03  0.7546771E-02  0.1163356E+00
         21   -1    0    0  501  502  0.00000000000E+00  0.00000000000E+00  0.11414876753E+03  0.11414876753E+03  0.00000000000E+00 0.  1.
         21   -1    0    0  502  503 -0.00000000000E+00 -0.00000000000E+00 -0.43011516286E+03  0.43011516286E+03  0.00000000000E+00 0.  1.
          6    1    1    2  501    0 -0.64717058186E+02 -0.18212875736E+02 -0.76006558326E+01  0.18482904651E+03  0.17200000000E+03 0.  1.
         -6    1    1    2    0  503  0.64717058186E+02  0.18212875736E+02 -0.30836573950E+03  0.35943488389E+03  0.17200000000E+03 0.  1.
<mgrwt>
<rscale>  2 0.18467270E+03</rscale>
<asrwt>0</asrwt>
<pdfrwt beam="1">  1       21 0.28537192E-01 0.18467270E+03</pdfrwt>
<pdfrwt beam="2">  1       21 0.10752879E+00 0.18467270E+03</pdfrwt>
<totfact> 0.81503663E+03</totfact>
</mgrwt>
</event>
<event>
 4    1  0.1119790E+000  0.1768938E+03  0.7546771E-02  0.1170844E+00
         21   -1    0    0  503  502  0.00000000000E+00  0.00000000000E+00  0.13772928716E+04  0.13772928716E+04  0.00000000000E+00 0.  1.
         21   -1    0    0  501  503 -0.00000000000E+00 -0.00000000000E+00 -0.50408102858E+02  0.50408102858E+02  0.00000000000E+00 0.  1.
          6    1    1    2  501    0 -0.12884205649E+02 -0.39260717164E+02  0.13437913158E+03  0.22214670304E+03  0.17200000000E+03 0.  1.
         -6    1    1    2    0  502  0.12884205649E+02  0.39260717164E+02  0.11925056371E+04  0.12055542714E+04  0.17200000000E+03 0.  1.
<mgrwt>
<rscale>  2 0.17689377E+03</rscale>
<asrwt>0</asrwt>
<pdfrwt beam="1">  1       21 0.34432309E+00 0.17689377E+03</pdfrwt>
<pdfrwt beam="2">  1       21 0.12602030E-01 0.17689377E+03</pdfrwt>
<totfact> 0.10397544E+03</totfact>
</mgrwt>
</event>
<event>
 4    1  0.1119790E+000  0.2456234E+03  0.7546771E-02  0.1116102E+00
         21   -1    0    0  503  502  0.00000000000E+00  0.00000000000E+00  0.12028940974E+03  0.12028940974E+03  0.00000000000E+00 0.  1.
         21   -1    0    0  501  503 -0.00000000000E+00 -0.00000000000E+00 -0.65583992666E+03  0.65583992666E+03  0.00000000000E+00 0.  1.
          6    1    1    2  501    0  0.17321161467E+03 -0.27287035395E+02 -0.45600037029E+03  0.51794515488E+03  0.17200000000E+03 0.  1.
         -6    1    1    2    0  502 -0.17321161467E+03  0.27287035395E+02 -0.79550146641E+02  0.25818418152E+03  0.17200000000E+03 0.  1.
<mgrwt>
<rscale>  2 0.24562338E+03</rscale>
<asrwt>0</asrwt>
<pdfrwt beam="1">  1       21 0.30072353E-01 0.24562338E+03</pdfrwt>
<pdfrwt beam="2">  1       21 0.16395998E+00 0.24562338E+03</pdfrwt>
<totfact> 0.23869277E+03</totfact>
</mgrwt>
</event>
<event>
 4    1  0.1119790E+000  0.1842354E+03  0.7546771E-02  0.1163766E+00
         21   -1    0    0  501  502  0.00000000000E+00  0.00000000000E+00  0.83849157884E+03  0.83849157884E+03  0.00000000000E+00 0.  1.
         21   -1    0    0  502  503 -0.00000000000E+00 -0.00000000000E+00 -0.67564838737E+02  0.67564838737E+02  0.00000000000E+00 0.  1.
          6    1    1    2  501    0 -0.62555051264E+02  0.21108179685E+02  0.67229215654E+03  0.69707921603E+03  0.17200000000E+03 0.  1.
         -6    1    1    2    0  503  0.62555051264E+02 -0.21108179685E+02  0.98634583566E+02  0.20897720154E+03  0.17200000000E+03 0.  1.
<mgrwt>
<rscale>  2 0.18423542E+03</rscale>
<asrwt>0</asrwt>
<pdfrwt beam="1">  1       21 0.20962286E+00 0.18423542E+03</pdfrwt>
<pdfrwt beam="2">  1       21 0.16891212E-01 0.18423542E+03</pdfrwt>
<totfact> 0.37142562E+03</totfact>
</mgrwt>
</event>
<event>
 4    1  0.1119790E+000  0.2262840E+03  0.7546771E-02  0.1129283E+00
         21   -1    0    0  503  502  0.00000000000E+00  0.00000000000E+00  0.22767452088E+03  0.22767452088E+03  0.00000000000E+00 0. -1.
         21   -1    0    0  501  503 -0.00000000000E+00 -0.00000000000E+00 -0.34702342425E+03  0.34702342425E+03  0.00000000000E+00 0.  1.
          6    1    1    2  501    0 -0.32225862342E+02  0.14346404210E+03 -0.23013595739E+03  0.32274912310E+03  0.17200000000E+03 0.  1.
         -6    1    1    2    0  502  0.32225862342E+02 -0.14346404210E+03  0.11078705402E+03  0.25194882202E+03  0.17200000000E+03 0. -1.
<mgrwt>
<rscale>  2 0.22628398E+03</rscale>
<asrwt>0</asrwt>
<pdfrwt beam="1">  1       21 0.56918630E-01 0.22628398E+03</pdfrwt>
<pdfrwt beam="2">  1       21 0.86755856E-01 0.22628398E+03</pdfrwt>
<totfact> 0.32282590E+03</totfact>
</mgrwt>
</event>
<event>
 4    1  0.1119790E+000  0.1944837E+03  0.7546771E-02  0.1154478E+00
         21   -1    0    0  501  502  0.00000000000E+00  0.00000000000E+00  0.14484439336E+03  0.14484439336E+03  0.00000000000E+00 0. -1.
         21   -1    0    0  502  503 -0.00000000000E+00 -0.00000000000E+00 -0.49787719896E+03  0.49787719896E+03  0.00000000000E+00 0. -1.
          6    1    1    2  501    0 -0.84062478641E+02 -0.34255323826E+02  0.45083567400E+02  0.19964081641E+03  0.17200000000E+03 0. -1.
         -6    1    1    2    0  503  0.84062478641E+02  0.34255323826E+02 -0.39811637300E+03  0.44308077591E+03  0.17200000000E+03 0. -1.
<mgrwt>
<rscale>  2 0.19448375E+03</rscale>
<asrwt>0</asrwt>
<pdfrwt beam="1">  1       21 0.36211099E-01 0.19448375E+03</pdfrwt>
<pdfrwt beam="2">  1       21 0.12446930E+00 0.19448375E+03</pdfrwt>
<totfact> 0.35404106E+03</totfact>
</mgrwt>
</event>
<event>
 4    1  0.1119790E+000  0.1939938E+03  0.7546771E-02  0.1154908E+00
         21   -1    0    0  503  502  0.00000000000E+00  0.00000000000E+00  0.61677552779E+02  0.61677552779E+02  0.00000000000E+00 0. -1.
         21   -1    0    0  501  503 -0.00000000000E+00 -0.00000000000E+00 -0.16620295097E+04  0.16620295097E+04  0.00000000000E+00 0.  1.
          6    1    1    2  501    0 -0.87210287256E+02 -0.21070454541E+02 -0.14858119882E+04  0.14984227916E+04  0.17200000000E+03 0.  1.
         -6    1    1    2    0  502  0.87210287256E+02  0.21070454541E+02 -0.11453996876E+03  0.22528427087E+03  0.17200000000E+03 0. -1.
<mgrwt>
<rscale>  2 0.19399381E+03</rscale>
<asrwt>0</asrwt>
<pdfrwt beam="1">  1       21 0.15419389E-01 0.19399381E+03</pdfrwt>
<pdfrwt beam="2">  1       21 0.41550736E+00 0.19399381E+03</pdfrwt>
<totfact> 0.25910103E+02</totfact>
</mgrwt>
</event>
<event>
 4    1  0.1119790E+000  0.2025197E+03  0.7546771E-02  0.1147630E+00
         21   -1    0    0  503  502  0.00000000000E+00  0.00000000000E+00  0.44151269410E+02  0.44151269410E+02  0.00000000000E+00 0. -1.
         21   -1    0    0  501  503 -0.00000000000E+00 -0.00000000000E+00 -0.95863474899E+03  0.95863474899E+03  0.00000000000E+00 0.  1.
          6    1    1    2  501    0 -0.10330006660E+03 -0.27555528461E+02 -0.54547589660E+03  0.58185751235E+03  0.17200000000E+03 0. -1.
         -6    1    1    2    0  502  0.10330006660E+03  0.27555528461E+02 -0.36900758298E+03  0.42092850605E+03  0.17200000000E+03 0. -1.
<mgrwt>
<rscale>  2 0.20251966E+03</rscale>
<asrwt>0</asrwt>
<pdfrwt beam="1">  1       21 0.11037818E-01 0.20251966E+03</pdfrwt>
<pdfrwt beam="2">  1       21 0.23965868E+00 0.20251966E+03</pdfrwt>
<totfact> 0.51629857E+03</totfact>
</mgrwt>
</event>
<event>
 4    1  0.1119790E+000  0.3409278E+03  0.7546771E-02  0.1066401E+00
         21   -1    0    0  501  502  0.00000000000E+00  0.00000000000E+00  0.33917086877E+03  0.33917086877E+03  0.00000000000E+00 0. -1.
         21   -1    0    0  502  503 -0.00000000000E+00 -0.00000000000E+00 -0.78112396153E+03  0.78112396153E+03  0.00000000000E+00 0.  1.
          6    1    1    2  501    0  0.19493045555E+01 -0.29435348850E+03  0.19867858276E+03  0.39459467207E+03  0.17200000000E+03 0. -1.
         -6    1    1    2    0  503 -0.19493045555E+01  0.29435348850E+03 -0.64063167552E+03  0.72570015823E+03  0.17200000000E+03 0.  1.
<mgrwt>
<rscale>  2 0.34092782E+03</rscale>
<asrwt>0</asrwt>
<pdfrwt beam="1">  1       21 0.84792718E-01 0.34092782E+03</pdfrwt>
<pdfrwt beam="2">  1       21 0.19528099E+00 0.34092782E+03</pdfrwt>
<totfact> 0.14944487E+02</totfact>
</mgrwt>
</event>
<event>
 4    1  0.1119790E+000  0.1759397E+03  0.7546771E-02  0.1171791E+00
         21   -1    0    0  503  502  0.00000000000E+00  0.00000000000E+00  0.13222587537E+03  0.13222587537E+03  0.00000000000E+00 0. -1.
         21   -1    0    0  501  503 -0.00000000000E+00 -0.00000000000E+00 -0.25959102455E+03  0.25959102455E+03  0.00000000000E+00 0. -1.
          6    1    1    2  501    0  0.49298664279E+01 -0.36694389402E+02 -0.12506677375E+03  0.21586217754E+03  0.17200000000E+03 0. -1.
         -6    1    1    2    0  502 -0.49298664279E+01  0.36694389402E+02 -0.22983754255E+01  0.17595472238E+03  0.17200000000E+03 0. -1.
<mgrwt>
<rscale>  2 0.17593971E+03</rscale>
<asrwt>0</asrwt>
<pdfrwt beam="1">  1       21 0.33056469E-01 0.17593971E+03</pdfrwt>
<pdfrwt beam="2">  1       21 0.64897756E-01 0.17593971E+03</pdfrwt>
<totfact> 0.19466024E+04</totfact>
</mgrwt>
</event>
<event>
 4    1  0.1119790E+000  0.1798971E+03  0.7546771E-02  0.1167903E+00
         21   -1    0    0  503  502  0.00000000000E+00  0.00000000000E+00  0.89725787699E+02  0.89725787699E+02  0.00000000000E+00 0.  1.
         21   -1    0    0  501  503 -0.00000000000E+00 -0.00000000000E+00 -0.60795655463E+03  0.60795655463E+03  0.00000000000E+00 0.  1.
          6    1    1    2  501    0 -0.50399046330E+02  0.15456030038E+02 -0.48158797662E+03  0.51409136538E+03  0.17200000000E+03 0.  1.
         -6    1    1    2    0  502  0.50399046330E+02 -0.15456030038E+02 -0.36642790316E+02  0.18359097695E+03  0.17200000000E+03 0.  1.
<mgrwt>
<rscale>  2 0.17989706E+03</rscale>
<asrwt>0</asrwt>
<pdfrwt beam="1">  1       21 0.22431447E-01 0.17989706E+03</pdfrwt>
<pdfrwt beam="2">  1       21 0.15198914E+00 0.17989706E+03</pdfrwt>
<totfact> 0.54309571E+03</totfact>
</mgrwt>
</event>
<event>
 4    1  0.1119790E+000  0.1924883E+03  0.7546771E-02  0.1156236E+00
         21   -1    0    0  501  502  0.00000000000E+00  0.00000000000E+00  0.47587823186E+03  0.47587823186E+03  0.00000000000E+00 0. -1.
         21   -1    0    0  502  503 -0.00000000000E+00 -0.00000000000E+00 -0.86293576610E+02  0.86293576610E+02  0.00000000000E+00 0.  1.
          6    1    1    2  501    0 -0.84501751138E+02 -0.18088599181E+02  0.28266686982E+03  0.34198289820E+03  0.17200000000E+03 0. -1.
         -6    1    1    2    0  503  0.84501751138E+02  0.18088599181E+02  0.10691778543E+03  0.22018891027E+03  0.17200000000E+03 0.  1.
<mgrwt>
<rscale>  2 0.19248829E+03</rscale>
<asrwt>0</asrwt>
<pdfrwt beam="1">  1       21 0.11896955E+00 0.19248829E+03</pdfrwt>
<pdfrwt beam="2">  1       21 0.21573395E-01 0.19248829E+03</pdfrwt>
<totfact> 0.10807195E+04</totfact>
</mgrwt>
</event>
<event>
 4    1  0.1119790E+000  0.2003467E+03  0.7546771E-02  0.1149447E+00
         21   -1    0    0  501  502  0.00000000000E+00  0.00000000000E+00  0.87618903593E+02  0.87618903593E+02  0.00000000000E+00 0.  1.
         21   -1    0    0  502  503 -0.00000000000E+00 -0.00000000000E+00 -0.53137412723E+03  0.53137412723E+03  0.00000000000E+00 0. -1.
          6    1    1    2  501    0 -0.16914898198E+02 -0.10133443965E+03 -0.10695331488E+03  0.22710745035E+03  0.17200000000E+03 0.  1.
         -6    1    1    2    0  503  0.16914898198E+02  0.10133443965E+03 -0.33680190876E+03  0.39188558047E+03  0.17200000000E+03 0. -1.
<mgrwt>
<rscale>  2 0.20034666E+03</rscale>
<asrwt>0</asrwt>
<pdfrwt beam="1">  1       21 0.21904726E-01 0.20034666E+03</pdfrwt>
<pdfrwt beam="2">  1       21 0.13284353E+00 0.20034666E+03</pdfrwt>
<totfact> 0.79176677E+03</totfact>
</mgrwt>
</event>
<event>
 4    1  0.1119790E+000  0.2478568E+03  0.7546771E-02  0.1114667E+00
         21   -1    0    0  503  502  0.00000000000E+00  0.00000000000E+00  0.66150236082E+02  0.66150236082E+02  0.00000000000E+00 0.  1.
         21   -1    0    0  501  503 -0.00000000000E+00 -0.00000000000E+00 -0.10684042665E+04  0.10684042665E+04  0.00000000000E+00 0. -1.
          6    1    1    2  501    0  0.48822319352E+02  0.17165480774E+03 -0.70626666211E+03  0.74849555102E+03  0.17200000000E+03 0. -1.
         -6    1    1    2    0  502 -0.48822319352E+02 -0.17165480774E+03 -0.29598736832E+03  0.38605895158E+03  0.17200000000E+03 0.  1.
<mgrwt>
<rscale>  2 0.24785680E+03</rscale>
<asrwt>0</asrwt>
<pdfrwt beam="1">  1       21 0.16537560E-01 0.24785680E+03</pdfrwt>
<pdfrwt beam="2">  1       21 0.26710106E+00 0.24785680E+03</pdfrwt>
<totfact> 0.16340333E+03</totfact>
</mgrwt>
</event>
<event>
 4    1  0.1119790E+000  0.1838565E+03  0.7546771E-02  0.1164122E+00
         21   -1    0    0  501  502  0.00000000000E+00  0.00000000000E+00  0.20147473955E+03  0.20147473955E+03  0.00000000000E+00 0. -1.
         21   -1    0    0  502  503 -0.00000000000E+00 -0.00000000000E+00 -0.71828430702E+03  0.71828430702E+03  0.00000000000E+00 0. -1.
          6    1    1    2  501    0 -0.28555210931E+02  0.58342119893E+02  0.14419792443E+03  0.23365839260E+03  0.17200000000E+03 0. -1.
         -6    1    1    2    0  503  0.28555210931E+02 -0.58342119893E+02 -0.66100749190E+03  0.68610065396E+03  0.17200000000E+03 0. -1.
<mgrwt>
<rscale>  2 0.18385647E+03</rscale>
<asrwt>0</asrwt>
<pdfrwt beam="1">  1       21 0.50368685E-01 0.18385647E+03</pdfrwt>
<pdfrwt beam="2">  1       21 0.17957108E+00 0.18385647E+03</pdfrwt>
<totfact> 0.69450260E+02</totfact>
</mgrwt>
</event>
<event>
 4    1  0.1119790E+000  0.1946351E+03  0.7546771E-02  0.1154346E+00
         21   -1    0    0  501  502  0.00000000000E+00  0.00000000000E+00  0.27443534335E+03  0.27443534335E+03  0.00000000000E+00 0. -1.
         21   -1    0    0  502  503 -0.00000000000E+00 -0.00000000000E+00 -0.20783103607E+03  0.20783103607E+03  0.00000000000E+00 0. -1.
          6    1    1    2  501    0 -0.62006117289E+02 -0.66738804792E+02  0.17303683185E+03  0.26043151081E+03  0.17200000000E+03 0. -1.
         -6    1    1    2    0  503  0.62006117289E+02  0.66738804792E+02 -0.10643252456E+03  0.22183486861E+03  0.17200000000E+03 0. -1.
<mgrwt>
<rscale>  2 0.19463511E+03</rscale>
<asrwt>0</asrwt>
<pdfrwt beam="1">  1       21 0.68608836E-01 0.19463511E+03</pdfrwt>
<pdfrwt beam="2">  1       21 0.51957759E-01 0.19463511E+03</pdfrwt>
<totfact> 0.68000897E+03</totfact>
</mgrwt>
</event>
<event>
 4    1  0.1119790E+000  0.2136673E+03  0.7546771E-02  0.1138694E+00
         21   -1    0    0  501  502  0.00000000000E+00  0.00000000000E+00  0.15411430079E+04  0.15411430079E+04  0.00000000000E+00 0. -1.
         21   -1    0    0  502  503 -0.00000000000E+00 -0.00000000000E+00 -0.52763295478E+02  0.52763295478E+02  0.00000000000E+00 0.  1.
          6    1    1    2  501    0 -0.10990157547E+03  0.63177072712E+02  0.12719647559E+04  0.12897860439E+04  0.17200000000E+03 0. -1.
         -6    1    1    2    0  503  0.10990157547E+03 -0.63177072712E+02  0.21641495648E+03  0.30412025943E+03  0.17200000000E+03 0.  1.
<mgrwt>
<rscale>  2 0.21366726E+03</rscale>
<asrwt>0</asrwt>
<pdfrwt beam="1">  1       21 0.38528560E+00 0.21366726E+03</pdfrwt>
<pdfrwt beam="2">  1       21 0.13190829E-01 0.21366726E+03</pdfrwt>
<totfact> 0.51488058E+02</totfact>
</mgrwt>
</event>
<event>
 4    1  0.1119790E+000  0.2112858E+03  0.7546771E-02  0.1140552E+00
         21   -1    0    0  501  502  0.00000000000E+00  0.00000000000E+00  0.52170041833E+02  0.52170041833E+02  0.00000000000E+00 0.  1.
         21   -1    0    0  502  503 -0.00000000000E+00 -0.00000000000E+00 -0.87598759814E+03  0.87598759814E+03  0.00000000000E+00 0.  1.
          6    1    1    2  501    0  0.59337127863E+02  0.10740949421E+03 -0.48254074351E+03  0.52677059840E+03  0.17200000000E+03 0.  1.
         -6    1    1    2    0  503 -0.59337127863E+02 -0.10740949421E+03 -0.34127681280E+03  0.40138704157E+03  0.17200000000E+03 0.  1.
<mgrwt>
<rscale>  2 0.21128581E+03</rscale>
<asrwt>0</asrwt>
<pdfrwt beam="1">  1       21 0.13042510E-01 0.21128581E+03</pdfrwt>
<pdfrwt beam="2">  1       21 0.21899690E+00 0.21128581E+03</pdfrwt>
<totfact> 0.50668430E+03</totfact>
</mgrwt>
</event>
<event>
 4    1  0.1119790E+000  0.1727894E+03  0.7546771E-02  0.1174970E+00
         21   -1    0    0  503  502  0.00000000000E+00  0.00000000000E+00  0.54918920744E+03  0.54918920744E+03  0.00000000000E+00 0. -1.
         21   -1    0    0  501  503 -0.00000000000E+00 -0.00000000000E+00 -0.54521895883E+02  0.54521895883E+02  0.00000000000E+00 0. -1.
          6    1    1    2  501    0  0.11216026251E+02  0.12098485187E+02  0.26357315228E+03  0.31516183016E+03  0.17200000000E+03 0.  1.
         -6    1    1    2    0  502 -0.11216026251E+02 -0.12098485187E+02  0.23109415927E+03  0.28854927315E+03  0.17200000000E+03 0.  1.
<mgrwt>
<rscale>  2 0.17278939E+03</rscale>
<asrwt>0</asrwt>
<pdfrwt beam="1">  1       21 0.13729729E+00 0.17278939E+03</pdfrwt>
<pdfrwt beam="2">  1       21 0.13630476E-01 0.17278939E+03</pdfrwt>
<totfact> 0.17800763E+04</totfact>
</mgrwt>
</event>
<event>
 4    1  0.1119790E+000  0.2046870E+03  0.7546771E-02  0.1145844E+00
         21   -1    0    0  501  502  0.00000000000E+00  0.00000000000E+00  0.98713698065E+02  0.98713698065E+02  0.00000000000E+00 0.  1.
         21   -1    0    0  502  503 -0.00000000000E+00 -0.00000000000E+00 -0.52978217144E+03  0.52978217144E+03  0.00000000000E+00 0.  1.
          6    1    1    2  501    0  0.67301505490E+02  0.88222956121E+02 -0.75397760502E+02  0.21813208136E+03  0.17200000000E+03 0.  1.
         -6    1    1    2    0  503 -0.67301505490E+02 -0.88222956121E+02 -0.35567071287E+03  0.41036378815E+03  0.17200000000E+03 0.  1.
<mgrwt>
<rscale>  2 0.20468704E+03</rscale>
<asrwt>0</asrwt>
<pdfrwt beam="1">  1       21 0.24678425E-01 0.20468704E+03</pdfrwt>
<pdfrwt beam="2">  1       21 0.13244554E+00 0.20468704E+03</pdfrwt>
<totfact> 0.63417915E+03</totfact>
</mgrwt>
</event>
<event>
 4    1  0.1119790E+000  0.1847979E+03  0.7546771E-02  0.1163239E+00
         21   -1    0    0  501  502  0.00000000000E+00  0.00000000000E+00  0.18130832878E+03  0.18130832878E+03  0.00000000000E+00 0. -1.
         21   -1    0    0  502  503 -0.00000000000E+00 -0.00000000000E+00 -0.19814588143E+03  0.19814588143E+03  0.00000000000E+00 0.  1.
          6    1    1    2  501    0  0.28178298567E+02  0.61418722719E+02 -0.50593708008E+02  0.19159853679E+03  0.17200000000E+03 0.  1.
         -6    1    1    2    0  503 -0.28178298567E+02 -0.61418722719E+02  0.33756155357E+02  0.18785567342E+03  0.17200000000E+03 0. -1.
<mgrwt>
<rscale>  2 0.18479793E+03</rscale>
<asrwt>0</asrwt>
<pdfrwt beam="1">  1       21 0.45327082E-01 0.18479793E+03</pdfrwt>
<pdfrwt beam="2">  1       21 0.49536470E-01 0.18479793E+03</pdfrwt>
<totfact> 0.18224516E+04</totfact>
</mgrwt>
</event>
<event>
 4    1  0.1119790E+000  0.2175410E+03  0.7546771E-02  0.1135730E+00
         21   -1    0    0  501  502  0.00000000000E+00  0.00000000000E+00  0.48648769240E+03  0.48648769240E+03  0.00000000000E+00 0. -1.
         21   -1    0    0  502  503 -0.00000000000E+00 -0.00000000000E+00 -0.11471453283E+03  0.11471453283E+03  0.00000000000E+00 0.  1.
          6    1    1    2  501    0  0.35219765118E+02  0.12845100396E+03  0.30308537293E+03  0.37307483908E+03  0.17200000000E+03 0. -1.
         -6    1    1    2    0  503 -0.35219765118E+02 -0.12845100396E+03  0.68687786643E+02  0.22812738614E+03  0.17200000000E+03 0.  1.
<mgrwt>
<rscale>  2 0.21754101E+03</rscale>
<asrwt>0</asrwt>
<pdfrwt beam="1">  1       21 0.12162192E+00 0.21754101E+03</pdfrwt>
<pdfrwt beam="2">  1       21 0.28678634E-01 0.21754101E+03</pdfrwt>
<totfact> 0.58288916E+03</totfact>
</mgrwt>
</event>
<event>
 4    1  0.1119790E+000  0.1732815E+03  0.7546771E-02  0.1174468E+00
         21   -1    0    0  501  502  0.00000000000E+00  0.00000000000E+00  0.72028907893E+03  0.72028907893E+03  0.00000000000E+00 0. -1.
         21   -1    0    0  502  503 -0.00000000000E+00 -0.00000000000E+00 -0.47491559451E+02  0.47491559451E+02  0.00000000000E+00 0. -1.
          6    1    1    2  501    0  0.18958542700E+01 -0.20949219467E+02  0.47061199787E+03  0.50149986700E+03  0.17200000000E+03 0.  1.
         -6    1    1    2    0  503 -0.18958542700E+01  0.20949219467E+02  0.20218552161E+03  0.26628077138E+03  0.17200000000E+03 0.  1.
<mgrwt>
<rscale>  2 0.17328146E+03</rscale>
<asrwt>0</asrwt>
<pdfrwt beam="1">  1       21 0.18007223E+00 0.17328146E+03</pdfrwt>
<pdfrwt beam="2">  1       21 0.11872892E-01 0.17328146E+03</pdfrwt>
<totfact> 0.11044633E+04</totfact>
</mgrwt>
</event>
<event>
 4    1  0.1119790E+000  0.2142196E+03  0.7546771E-02  0.1138267E+00
         21   -1    0    0  501  502  0.00000000000E+00  0.00000000000E+00  0.19348635057E+03  0.19348635057E+03  0.00000000000E+00 0. -1.
         21   -1    0    0  502  503 -0.00000000000E+00 -0.00000000000E+00 -0.44626150647E+03  0.44626150647E+03  0.00000000000E+00 0. -1.
          6    1    1    2  501    0 -0.12525794510E+03 -0.24829154875E+02 -0.34533891034E+03  0.40638528854E+03  0.17200000000E+03 0. -1.
         -6    1    1    2    0  503  0.12525794510E+03  0.24829154875E+02  0.92563754439E+02  0.23336256850E+03  0.17200000000E+03 0. -1.
<mgrwt>
<rscale>  2 0.21421961E+03</rscale>
<asrwt>0</asrwt>
<pdfrwt beam="1">  1       21 0.48371588E-01 0.21421961E+03</pdfrwt>
<pdfrwt beam="2">  1       21 0.11156538E+00 0.21421961E+03</pdfrwt>
<totfact> 0.25287670E+03</totfact>
</mgrwt>
</event>
<event>
 4    1  0.1119790E+000  0.2307375E+03  0.7546771E-02  0.1126122E+00
         21   -1    0    0  501  502  0.00000000000E+00  0.00000000000E+00  0.21956583813E+03  0.21956583813E+03  0.00000000000E+00 0. -1.
         21   -1    0    0  502  503 -0.00000000000E+00 -0.00000000000E+00 -0.32241561084E+03  0.32241561084E+03  0.00000000000E+00 0.  1.
          6    1    1    2  501    0 -0.71657948029E+02  0.13609158061E+03  0.83509700035E+02  0.24538469762E+03  0.17200000000E+03 0. -1.
         -6    1    1    2    0  503  0.71657948029E+02 -0.13609158061E+03 -0.18635947275E+03  0.29659675135E+03  0.17200000000E+03 0.  1.
<mgrwt>
<rscale>  2 0.23073747E+03</rscale>
<asrwt>0</asrwt>
<pdfrwt beam="1">  1       21 0.54891460E-01 0.23073747E+03</pdfrwt>
<pdfrwt beam="2">  1       21 0.80603902E-01 0.23073747E+03</pdfrwt>
<totfact> 0.41143226E+03</totfact>
</mgrwt>
</event>
<event>
 4    1  0.1119790E+000  0.1736908E+03  0.7546771E-02  0.1174053E+00
         21   -1    0    0  501  502  0.00000000000E+00  0.00000000000E+00  0.28365893718E+03  0.28365893718E+03  0.00000000000E+00 0.  1.
         21   -1    0    0  502  503 -0.00000000000E+00 -0.00000000000E+00 -0.17235567657E+03  0.17235567657E+03  0.00000000000E+00 0.  1.
          6    1    1    2  501    0 -0.22459555213E+02 -0.89487000948E+01 -0.85443028478E+02  0.19356916585E+03  0.17200000000E+03 0.  1.
         -6    1    1    2    0  503  0.22459555213E+02  0.89487000948E+01  0.19674628908E+03  0.26244544789E+03  0.17200000000E+03 0.  1.
<mgrwt>
<rscale>  2 0.17369085E+03</rscale>
<asrwt>0</asrwt>
<pdfrwt beam="1">  1       21 0.70914734E-01 0.17369085E+03</pdfrwt>
<pdfrwt beam="2">  1       21 0.43088920E-01 0.17369085E+03</pdfrwt>
<totfact> 0.94521804E+03</totfact>
</mgrwt>
</event>
<event>
 4    1  0.1119790E+000  0.3564532E+03  0.7546771E-02  0.1059997E+00
         21   -1    0    0  503  502  0.00000000000E+00  0.00000000000E+00  0.22150584461E+03  0.22150584461E+03  0.00000000000E+00 0. -1.
         21   -1    0    0  501  503 -0.00000000000E+00 -0.00000000000E+00 -0.70722343004E+03  0.70722343004E+03  0.00000000000E+00 0.  1.
          6    1    1    2  501    0  0.13177119001E+03 -0.28303929593E+03 -0.41022569541E+02  0.35880599322E+03  0.17200000000E+03 0.  1.
         -6    1    1    2    0  502 -0.13177119001E+03  0.28303929593E+03 -0.44469501589E+03  0.56992328143E+03  0.17200000000E+03 0. -1.
<mgrwt>
<rscale>  2 0.35645321E+03</rscale>
<asrwt>0</asrwt>
<pdfrwt beam="1">  1       21 0.55376462E-01 0.35645321E+03</pdfrwt>
<pdfrwt beam="2">  1       21 0.17680586E+00 0.35645321E+03</pdfrwt>
<totfact> 0.51235028E+02</totfact>
</mgrwt>
</event>
<event>
 4    1  0.1119790E+000  0.1854950E+03  0.7546771E-02  0.1162588E+00
         21   -1    0    0  501  502  0.00000000000E+00  0.00000000000E+00  0.81504551592E+02  0.81504551592E+02  0.00000000000E+00 0. -1.
         21   -1    0    0  502  503 -0.00000000000E+00 -0.00000000000E+00 -0.46728478043E+03  0.46728478043E+03  0.00000000000E+00 0. -1.
          6    1    1    2  501    0  0.13358986570E+02 -0.68161057503E+02 -0.10762586721E+03  0.21445680118E+03  0.17200000000E+03 0. -1.
         -6    1    1    2    0  503 -0.13358986570E+02  0.68161057503E+02 -0.27815436163E+03  0.33433253084E+03  0.17200000000E+03 0. -1.
<mgrwt>
<rscale>  2 0.18549499E+03</rscale>
<asrwt>0</asrwt>
<pdfrwt beam="1">  1       21 0.20376138E-01 0.18549499E+03</pdfrwt>
<pdfrwt beam="2">  1       21 0.11682119E+00 0.18549499E+03</pdfrwt>
<totfact> 0.12639719E+04</totfact>
</mgrwt>
</event>
<event>
 4    1  0.1119790E+000  0.1960122E+03  0.7546771E-02  0.1153148E+00
         21   -1    0    0  503  502  0.00000000000E+00  0.00000000000E+00  0.12743148746E+03  0.12743148746E+03  0.00000000000E+00 0. -1.
         21   -1    0    0  501  503 -0.00000000000E+00 -0.00000000000E+00 -0.36243953008E+03  0.36243953008E+03  0.00000000000E+00 0.  1.
          6    1    1    2  501    0  0.85258668807E+02 -0.39594524451E+02 -0.21793753796E+03  0.29311693473E+03  0.17200000000E+03 0.  1.
         -6    1    1    2    0  502 -0.85258668807E+02  0.39594524451E+02 -0.17070504666E+02  0.19675408281E+03  0.17200000000E+03 0. -1.
<mgrwt>
<rscale>  2 0.19601216E+03</rscale>
<asrwt>0</asrwt>
<pdfrwt beam="1">  1       21 0.31857872E-01 0.19601216E+03</pdfrwt>
<pdfrwt beam="2">  1       21 0.90609882E-01 0.19601216E+03</pdfrwt>
<totfact> 0.97765545E+03</totfact>
</mgrwt>
</event>
<event>
 4    1  0.1119790E+000  0.1952955E+03  0.7546771E-02  0.1153770E+00
         21   -1    0    0  501  502  0.00000000000E+00  0.00000000000E+00  0.24649973884E+03  0.24649973884E+03  0.00000000000E+00 0.  1.
         21   -1    0    0  502  503 -0.00000000000E+00 -0.00000000000E+00 -0.36087251815E+03  0.36087251815E+03  0.00000000000E+00 0. -1.
          6    1    1    2  501    0  0.78975810282E+02 -0.48157620707E+02  0.17234087037E+03  0.26046441339E+03  0.17200000000E+03 0.  1.
         -6    1    1    2    0  503 -0.78975810282E+02  0.48157620707E+02 -0.28671364968E+03  0.34690784361E+03  0.17200000000E+03 0. -1.
<mgrwt>
<rscale>  2 0.19529551E+03</rscale>
<asrwt>0</asrwt>
<pdfrwt beam="1">  1       21 0.61624935E-01 0.19529551E+03</pdfrwt>
<pdfrwt beam="2">  1       21 0.90218129E-01 0.19529551E+03</pdfrwt>
<totfact> 0.25499485E+03</totfact>
</mgrwt>
</event>
<event>
 4    1  0.1119790E+000  0.1860341E+03  0.7546771E-02  0.1162088E+00
         21   -1    0    0  501  502  0.00000000000E+00  0.00000000000E+00  0.18098672950E+03  0.18098672950E+03  0.00000000000E+00 0.  1.
         21   -1    0    0  502  503 -0.00000000000E+00 -0.00000000000E+00 -0.44137989818E+03  0.44137989818E+03  0.00000000000E+00 0.  1.
          6    1    1    2  501    0 -0.53554887235E+02 -0.46438802580E+02  0.10407354924E+03  0.21316658271E+03  0.17200000000E+03 0.  1.
         -6    1    1    2    0  503  0.53554887235E+02  0.46438802580E+02 -0.36446671792E+03  0.40920004497E+03  0.17200000000E+03 0.  1.
<mgrwt>
<rscale>  2 0.18603411E+03</rscale>
<asrwt>0</asrwt>
<pdfrwt beam="1">  1       21 0.45246683E-01 0.18603411E+03</pdfrwt>
<pdfrwt beam="2">  1       21 0.11034497E+00 0.18603411E+03</pdfrwt>
<totfact> 0.30547590E+03</totfact>
</mgrwt>
</event>
<event>
 4    1  0.1119790E+000  0.4451744E+03  0.7546771E-02  0.1029171E+00
         21   -1    0    0  503  502  0.00000000000E+00  0.00000000000E+00  0.72562837606E+03  0.72562837606E+03  0.00000000000E+00 0.  1.
         21   -1    0    0  501  503 -0.00000000000E+00 -0.00000000000E+00 -0.42471436821E+03  0.42471436821E+03  0.00000000000E+00 0. -1.
          6    1    1    2  501    0 -0.25852732486E+03 -0.31899827811E+03 -0.19317762144E+03  0.48528123038E+03  0.17200000000E+03 0. -1.
         -6    1    1    2    0  502  0.25852732486E+03  0.31899827811E+03  0.49409162928E+03  0.66506151389E+03  0.17200000000E+03 0.  1.
<mgrwt>
<rscale>  2 0.44517444E+03</rscale>
<asrwt>0</asrwt>
<pdfrwt beam="1">  1       21 0.18140709E+00 0.44517444E+03</pdfrwt>
<pdfrwt beam="2">  1       21 0.10617859E+00 0.44517444E+03</pdfrwt>
<totfact> 0.10146256E+02</totfact>
</mgrwt>
</event>
<event>
 4    1  0.1119790E+000  0.1750033E+03  0.7546771E-02  0.1172728E+00
         21   -1    0    0  503  502  0.00000000000E+00  0.00000000000E+00  0.83018823163E+02  0.83018823163E+02  0.00000000000E+00 0.  1.
         21   -1    0    0  501  503 -0.00000000000E+00 -0.00000000000E+00 -0.61551598916E+03  0.61551598916E+03  0.00000000000E+00 0.  1.
          6    1    1    2  501    0  0.64021132585E+01 -0.31641055088E+02 -0.45171509926E+02  0.18073906255E+03  0.17200000000E+03 0.  1.
         -6    1    1    2    0  502 -0.64021132585E+01  0.31641055088E+02 -0.48732565607E+03  0.51779574978E+03  0.17200000000E+03 0.  1.
<mgrwt>
<rscale>  2 0.17500327E+03</rscale>
<asrwt>0</asrwt>
<pdfrwt beam="1">  1       21 0.20754706E-01 0.17500327E+03</pdfrwt>
<pdfrwt beam="2">  1       21 0.15387900E+00 0.17500327E+03</pdfrwt>
<totfact> 0.61085389E+03</totfact>
</mgrwt>
</event>
<event>
 4    1  0.1119790E+000  0.1988779E+03  0.7546771E-02  0.1150689E+00
         21   -1    0    0  501  502  0.00000000000E+00  0.00000000000E+00  0.34808771970E+03  0.34808771970E+03  0.00000000000E+00 0.  1.
         21   -1    0    0  502  503 -0.00000000000E+00 -0.00000000000E+00 -0.11363226570E+03  0.11363226570E+03  0.00000000000E+00 0.  1.
          6    1    1    2  501    0 -0.47292353771E+02 -0.87930885062E+02  0.11869095717E+03  0.23160300211E+03  0.17200000000E+03 0.  1.
         -6    1    1    2    0  503  0.47292353771E+02  0.87930885062E+02  0.11576449683E+03  0.23011698329E+03  0.17200000000E+03 0.  1.
<mgrwt>
<rscale>  2 0.19887787E+03</rscale>
<asrwt>0</asrwt>
<pdfrwt beam="1">  1       21 0.87021928E-01 0.19887787E+03</pdfrwt>
<pdfrwt beam="2">  1       21 0.28408067E-01 0.19887787E+03</pdfrwt>
<totfact> 0.13395411E+04</totfact>
</mgrwt>
</event>
<event>
 4    1  0.1119790E+000  0.2007436E+03  0.7546771E-02  0.1149113E+00
         21   -1    0    0  503  502  0.00000000000E+00  0.00000000000E+00  0.19538134138E+04  0.19538134138E+04  0.00000000000E+00 0.  1.
         21   -1    0    0  501  503 -0.00000000000E+00 -0.00000000000E+00 -0.26733213932E+02  0.26733213932E+02  0.00000000000E+00 0.  1.
          6    1    1    2  501    0  0.98110622134E+02  0.32989573197E+02  0.49019748033E+03  0.52970895389E+03  0.17200000000E+03 0.  1.
         -6    1    1    2    0  502 -0.98110622134E+02 -0.32989573197E+02  0.14368827195E+04  0.14508376738E+04  0.17200000000E+03 0.  1.
<mgrwt>
<rscale>  2 0.20074363E+03</rscale>
<asrwt>0</asrwt>
<pdfrwt beam="1">  1       21 0.48845287E+00 0.20074363E+03</pdfrwt>
<pdfrwt beam="2">  1       21 0.66833101E-02 0.20074363E+03</pdfrwt>
<totfact> 0.36863266E+02</totfact>
</mgrwt>
</event>
<event>
 4    1  0.1119790E+000  0.2046635E+03  0.7546771E-02  0.1145863E+00
         21   -1    0    0  503  502  0.00000000000E+00  0.00000000000E+00  0.44524994639E+03  0.44524994639E+03  0.00000000000E+00 0.  1.
         21   -1    0    0  501  503 -0.00000000000E+00 -0.00000000000E+00 -0.14556853486E+03  0.14556853486E+03  0.00000000000E+00 0.  1.
          6    1    1    2  501    0  0.16292419280E+02 -0.10971651452E+03 -0.25856209878E+02  0.20629032957E+03  0.17200000000E+03 0.  1.
         -6    1    1    2    0  502 -0.16292419280E+02  0.10971651452E+03  0.32553762141E+03  0.38452815168E+03  0.17200000000E+03 0.  1.
<mgrwt>
<rscale>  2 0.20466352E+03</rscale>
<asrwt>0</asrwt>
<pdfrwt beam="1">  1       21 0.11131248E+00 0.20466352E+03</pdfrwt>
<pdfrwt beam="2">  1       21 0.36392135E-01 0.20466352E+03</pdfrwt>
<totfact> 0.45765037E+03</totfact>
</mgrwt>
</event>
<event>
 4    1  0.1119790E+000  0.1880859E+03  0.7546771E-02  0.1160199E+00
         21   -1    0    0  503  502  0.00000000000E+00  0.00000000000E+00  0.19181419634E+03  0.19181419634E+03  0.00000000000E+00 0. -1.
         21   -1    0    0  501  503 -0.00000000000E+00 -0.00000000000E+00 -0.18443954407E+03  0.18443954407E+03  0.00000000000E+00 0.  1.
          6    1    1    2  501    0 -0.50210758640E+02 -0.57194424828E+02  0.23452773012E+01  0.18810056576E+03  0.17200000000E+03 0.  1.
         -6    1    1    2    0  502  0.50210758640E+02  0.57194424828E+02  0.50293749676E+01  0.18815317464E+03  0.17200000000E+03 0.  1.
<mgrwt>
<rscale>  2 0.18808594E+03</rscale>
<asrwt>0</asrwt>
<pdfrwt beam="1">  1       21 0.47953549E-01 0.18808594E+03</pdfrwt>
<pdfrwt beam="2">  1       21 0.46109886E-01 0.18808594E+03</pdfrwt>
<totfact> 0.18783633E+04</totfact>
</mgrwt>
</event>
<event>
 4    1  0.1119790E+000  0.2512055E+03  0.7546771E-02  0.1112545E+00
         21   -1    0    0  501  502  0.00000000000E+00  0.00000000000E+00  0.58711610511E+02  0.58711610511E+02  0.00000000000E+00 0.  1.
         21   -1    0    0  502  503 -0.00000000000E+00 -0.00000000000E+00 -0.11551621944E+04  0.11551621944E+04  0.00000000000E+00 0. -1.
          6    1    1    2  501    0  0.18191685549E+03 -0.20651153673E+02 -0.38815779767E+03  0.46235342363E+03  0.17200000000E+03 0. -1.
         -6    1    1    2    0  503 -0.18191685549E+03  0.20651153673E+02 -0.70829278625E+03  0.75152038130E+03  0.17200000000E+03 0. -1.
<mgrwt>
<rscale>  2 0.25120552E+03</rscale>
<asrwt>0</asrwt>
<pdfrwt beam="1">  1       21 0.14677903E-01 0.25120552E+03</pdfrwt>
<pdfrwt beam="2">  1       21 0.28879055E+00 0.25120552E+03</pdfrwt>
<totfact> 0.15135931E+03</totfact>
</mgrwt>
</event>
<event>
 4    1  0.1119790E+000  0.1764034E+03  0.7546771E-02  0.1171330E+00
         21   -1    0    0  503  502  0.00000000000E+00  0.00000000000E+00  0.36069188143E+03  0.36069188143E+03  0.00000000000E+00 0. -1.
         21   -1    0    0  501  503 -0.00000000000E+00 -0.00000000000E+00 -0.96417646329E+02  0.96417646329E+02  0.00000000000E+00 0. -1.
          6    1    1    2  501    0  0.27073963874E+02 -0.28304880669E+02  0.20627136648E+03  0.27141488983E+03  0.17200000000E+03 0. -1.
         -6    1    1    2    0  502 -0.27073963874E+02  0.28304880669E+02  0.58002868622E+02  0.18569463794E+03  0.17200000000E+03 0. -1.
<mgrwt>
<rscale>  2 0.17640342E+03</rscale>
<asrwt>0</asrwt>
<pdfrwt beam="1">  1       21 0.90172967E-01 0.17640342E+03</pdfrwt>
<pdfrwt beam="2">  1       21 0.24104412E-01 0.17640342E+03</pdfrwt>
<totfact> 0.17159640E+04</totfact>
</mgrwt>
</event>
<event>
 4    1  0.1119790E+000  0.1763401E+03  0.7546771E-02  0.1171393E+00
         21   -1    0    0  503  502  0.00000000000E+00  0.00000000000E+00  0.19129651526E+03  0.19129651526E+03  0.00000000000E+00 0. -1.
         21   -1    0    0  501  503 -0.00000000000E+00 -0.00000000000E+00 -0.19269573430E+03  0.19269573430E+03  0.00000000000E+00 0. -1.
          6    1    1    2  501    0 -0.29229863281E+02 -0.25640371948E+02 -0.76635671172E+02  0.19227282615E+03  0.17200000000E+03 0. -1.
         -6    1    1    2    0  502  0.29229863281E+02  0.25640371948E+02  0.75236452133E+02  0.19171942340E+03  0.17200000000E+03 0. -1.
<mgrwt>
<rscale>  2 0.17634005E+03</rscale>
<asrwt>0</asrwt>
<pdfrwt beam="1">  1       21 0.47824129E-01 0.17634005E+03</pdfrwt>
<pdfrwt beam="2">  1       21 0.48173934E-01 0.17634005E+03</pdfrwt>
<totfact> 0.17382095E+04</totfact>
</mgrwt>
</event>
<event>
 4    1  0.1119790E+000  0.1934823E+03  0.7546771E-02  0.1155358E+00
         21   -1    0    0  501  502  0.00000000000E+00  0.00000000000E+00  0.49689861899E+02  0.49689861899E+02  0.00000000000E+00 0.  1.
         21   -1    0    0  502  503 -0.00000000000E+00 -0.00000000000E+00 -0.92715928838E+03  0.92715928838E+03  0.00000000000E+00 0.  1.
          6    1    1    2  501    0 -0.83632326386E+02  0.29275070902E+02 -0.22727962501E+03  0.29848186501E+03  0.17200000000E+03 0.  1.
         -6    1    1    2    0  503  0.83632326386E+02 -0.29275070902E+02 -0.65018980147E+03  0.67836728527E+03  0.17200000000E+03 0.  1.
<mgrwt>
<rscale>  2 0.19348229E+03</rscale>
<asrwt>0</asrwt>
<pdfrwt beam="1">  1       21 0.12422466E-01 0.19348229E+03</pdfrwt>
<pdfrwt beam="2">  1       21 0.23178981E+00 0.19348229E+03</pdfrwt>
<totfact> 0.47013951E+03</totfact>
</mgrwt>
</event>
<event>
 4    1  0.1119790E+000  0.2020230E+03  0.7546771E-02  0.1148043E+00
         21   -1    0    0  501  502  0.00000000000E+00  0.00000000000E+00  0.87931688291E+03  0.87931688291E+03  0.00000000000E+00 0.  1.
         21   -1    0    0  502  503 -0.00000000000E+00 -0.00000000000E+00 -0.58831396660E+02  0.58831396660E+02  0.00000000000E+00 0.  1.
          6    1    1    2  501    0 -0.63869418466E+02  0.84557730407E+02  0.62573828759E+03  0.65754217883E+03  0.17200000000E+03 0.  1.
         -6    1    1    2    0  503  0.63869418466E+02 -0.84557730407E+02  0.19474719866E+03  0.28060610074E+03  0.17200000000E+03 0.  1.
<mgrwt>
<rscale>  2 0.20202305E+03</rscale>
<asrwt>0</asrwt>
<pdfrwt beam="1">  1       21 0.21982918E+00 0.20202305E+03</pdfrwt>
<pdfrwt beam="2">  1       21 0.14707852E-01 0.20202305E+03</pdfrwt>
<totfact> 0.40623686E+03</totfact>
</mgrwt>
</event>
<event>
 4    1  0.1119790E+000  0.1762259E+03  0.7546771E-02  0.1171506E+00
         21   -1    0    0  503  502  0.00000000000E+00  0.00000000000E+00  0.46245527057E+03  0.46245527057E+03  0.00000000000E+00 0. -1.
         21   -1    0    0  501  503 -0.00000000000E+00 -0.00000000000E+00 -0.10873774312E+03  0.10873774312E+03  0.00000000000E+00 0. -1.
          6    1    1    2  501    0 -0.38335289454E+02  0.14089261365E+01  0.24435810587E+00  0.17622610250E+03  0.17200000000E+03 0. -1.
         -6    1    1    2    0  502  0.38335289454E+02 -0.14089261365E+01  0.35347316935E+03  0.39496691119E+03  0.17200000000E+03 0. -1.
<mgrwt>
<rscale>  2 0.17622593E+03</rscale>
<asrwt>0</asrwt>
<pdfrwt beam="1">  1       21 0.11561381E+00 0.17622593E+03</pdfrwt>
<pdfrwt beam="2">  1       21 0.27184437E-01 0.17622593E+03</pdfrwt>
<totfact> 0.75595944E+03</totfact>
</mgrwt>
</event>
<event>
 4    1  0.1119790E+000  0.1872455E+03  0.7546771E-02  0.1160969E+00
         21   -1    0    0  503  502  0.00000000000E+00  0.00000000000E+00  0.40149397415E+02  0.40149397415E+02  0.00000000000E+00 0.  1.
         21   -1    0    0  501  503 -0.00000000000E+00 -0.00000000000E+00 -0.88364311859E+03  0.88364311859E+03  0.00000000000E+00 0.  1.
          6    1    1    2  501    0 -0.47632392997E+00  0.74004512845E+02 -0.47181405110E+03  0.50761145931E+03  0.17200000000E+03 0.  1.
         -6    1    1    2    0  502  0.47632392997E+00 -0.74004512845E+02 -0.37167967007E+03  0.41618105670E+03  0.17200000000E+03 0.  1.
<mgrwt>
<rscale>  2 0.18724555E+03</rscale>
<asrwt>0</asrwt>
<pdfrwt beam="1">  1       21 0.10037350E-01 0.18724555E+03</pdfrwt>
<pdfrwt beam="2">  1       21 0.22091077E+00 0.18724555E+03</pdfrwt>
<totfact> 0.80458077E+03</totfact>
</mgrwt>
</event>
<event>
 4    1  0.1119790E+000  0.2984682E+03  0.7546771E-02  0.1086009E+00
         21   -1    0    0  503  502  0.00000000000E+00  0.00000000000E+00  0.77778929383E+03  0.77778929383E+03  0.00000000000E+00 0.  1.
         21   -1    0    0  501  503 -0.00000000000E+00 -0.00000000000E+00 -0.27794435095E+03  0.27794435095E+03  0.00000000000E+00 0. -1.
          6    1    1    2  501    0  0.23904730779E+03  0.48535328065E+02 -0.15482604507E+03  0.33623562819E+03  0.17200000000E+03 0. -1.
         -6    1    1    2    0  502 -0.23904730779E+03 -0.48535328065E+02  0.65467098794E+03  0.71949801660E+03  0.17200000000E+03 0.  1.
<mgrwt>
<rscale>  2 0.29846825E+03</rscale>
<asrwt>0</asrwt>
<pdfrwt beam="1">  1       21 0.19444732E+00 0.29846825E+03</pdfrwt>
<pdfrwt beam="2">  1       21 0.69486089E-01 0.29846825E+03</pdfrwt>
<totfact> 0.24612053E+02</totfact>
</mgrwt>
</event>
<event>
 4    1  0.1119790E+000  0.3182771E+03  0.7546771E-02  0.1076445E+00
         21   -1    0    0  503  502  0.00000000000E+00  0.00000000000E+00  0.13364497115E+03  0.13364497115E+03  0.00000000000E+00 0. -1.
         21   -1    0    0  501  503 -0.00000000000E+00 -0.00000000000E+00 -0.91696443414E+03  0.91696443414E+03  0.00000000000E+00 0.  1.
          6    1    1    2  501    0 -0.35982578184E+01 -0.26777479563E+03 -0.61039136466E+03  0.68838790423E+03  0.17200000000E+03 0.  1.
         -6    1    1    2    0  502  0.35982578184E+01  0.26777479563E+03 -0.17292809833E+03  0.36222150106E+03  0.17200000000E+03 0. -1.
<mgrwt>
<rscale>  2 0.31827706E+03</rscale>
<asrwt>0</asrwt>
<pdfrwt beam="1">  1       21 0.33411244E-01 0.31827706E+03</pdfrwt>
<pdfrwt beam="2">  1       21 0.22924110E+00 0.31827706E+03</pdfrwt>
<totfact> 0.67678779E+02</totfact>
</mgrwt>
</event>
<event>
 4    1  0.1119790E+000  0.1770230E+03  0.7546771E-02  0.1170716E+00
         21   -1    0    0  503  502  0.00000000000E+00  0.00000000000E+00  0.36097315958E+02  0.36097315958E+02  0.00000000000E+00 0.  1.
         21   -1    0    0  501  503 -0.00000000000E+00 -0.00000000000E+00 -0.86814311350E+03  0.86814311350E+03  0.00000000000E+00 0.  1.
          6    1    1    2  501    0  0.10588574464E+02 -0.40509748641E+02 -0.41425598119E+03  0.45049436800E+03  0.17200000000E+03 0.  1.
         -6    1    1    2    0  502 -0.10588574464E+02  0.40509748641E+02 -0.41778981635E+03  0.45374606146E+03  0.17200000000E+03 0.  1.
<mgrwt>
<rscale>  2 0.17702304E+03</rscale>
<asrwt>0</asrwt>
<pdfrwt beam="1">  1       21 0.90243292E-02 0.17702304E+03</pdfrwt>
<pdfrwt beam="2">  1       21 0.21703577E+00 0.17702304E+03</pdfrwt>
<totfact> 0.10344333E+04</totfact>
</mgrwt>
</event>
<event>
 4    1  0.1119790E+000  0.2294155E+03  0.7546771E-02  0.1127052E+00
         21   -1    0    0  501  502  0.00000000000E+00  0.00000000000E+00  0.43350681788E+03  0.43350681788E+03  0.00000000000E+00 0. -1.
         21   -1    0    0  502  503 -0.00000000000E+00 -0.00000000000E+00 -0.12142525694E+03  0.12142525694E+03  0.00000000000E+00 0. -1.
          6    1    1    2  501    0  0.15149259429E+03  0.98734055621E+01  0.15279876111E+03  0.27564279722E+03  0.17200000000E+03 0. -1.
         -6    1    1    2    0  503 -0.15149259429E+03 -0.98734055621E+01  0.15928279982E+03  0.27928927760E+03  0.17200000000E+03 0. -1.
<mgrwt>
<rscale>  2 0.22941554E+03</rscale>
<asrwt>0</asrwt>
<pdfrwt beam="1">  1       21 0.10837670E+00 0.22941554E+03</pdfrwt>
<pdfrwt beam="2">  1       21 0.30356315E-01 0.22941554E+03</pdfrwt>
<totfact> 0.68663465E+03</totfact>
</mgrwt>
</event>
<event>
 4    1  0.1119790E+000  0.1958739E+03  0.7546771E-02  0.1153268E+00
         21   -1    0    0  503  502  0.00000000000E+00  0.00000000000E+00  0.10144539074E+04  0.10144539074E+04  0.00000000000E+00 0.  1.
         21   -1    0    0  501  503 -0.00000000000E+00 -0.00000000000E+00 -0.88761545803E+02  0.88761545803E+02  0.00000000000E+00 0.  1.
          6    1    1    2  501    0 -0.10421995394E+02  0.93134197542E+02  0.44963682617E+02  0.20096847886E+03  0.17200000000E+03 0.  1.
         -6    1    1    2    0  502  0.10421995394E+02 -0.93134197542E+02  0.88072867902E+03  0.90224697438E+03  0.17200000000E+03 0.  1.
<mgrwt>
<rscale>  2 0.19587393E+03</rscale>
<asrwt>0</asrwt>
<pdfrwt beam="1">  1       21 0.25361344E+00 0.19587393E+03</pdfrwt>
<pdfrwt beam="2">  1       21 0.22190390E-01 0.19587393E+03</pdfrwt>
<totfact> 0.11979357E+03</totfact>
</mgrwt>
</event>
<event>
 4    1  0.1119790E+000  0.1954534E+03  0.7546771E-02  0.1153633E+00
         21   -1    0    0  503  502  0.00000000000E+00  0.00000000000E+00  0.73462293558E+02  0.73462293558E+02  0.00000000000E+00 0. -1.
         21   -1    0    0  501  503 -0.00000000000E+00 -0.00000000000E+00 -0.70387436404E+03  0.70387436404E+03  0.00000000000E+00 0. -1.
          6    1    1    2  501    0 -0.30919524360E+02 -0.87532825157E+02 -0.51384577138E+03  0.54976312102E+03  0.17200000000E+03 0. -1.
         -6    1    1    2    0  502  0.30919524360E+02  0.87532825157E+02 -0.11656629911E+03  0.22757353659E+03  0.17200000000E+03 0. -1.
<mgrwt>
<rscale>  2 0.19545335E+03</rscale>
<asrwt>0</asrwt>
<pdfrwt beam="1">  1       21 0.18365573E-01 0.19545335E+03</pdfrwt>
<pdfrwt beam="2">  1       21 0.17596859E+00 0.19545335E+03</pdfrwt>
<totfact> 0.52325678E+03</totfact>
</mgrwt>
</event>
<event>
 4    1  0.1119790E+000  0.1956695E+03  0.7546771E-02  0.1153445E+00
         21   -1    0    0  501  502  0.00000000000E+00  0.00000000000E+00  0.15448221855E+03  0.15448221855E+03  0.00000000000E+00 0. -1.
         21   -1    0    0  502  503 -0.00000000000E+00 -0.00000000000E+00 -0.30084246450E+03  0.30084246450E+03  0.00000000000E+00 0.  1.
          6    1    1    2  501    0  0.61343403398E+02 -0.70281982276E+02 -0.16874046455E+03  0.25837940040E+03  0.17200000000E+03 0.  1.
         -6    1    1    2    0  503 -0.61343403398E+02  0.70281982276E+02  0.22380218597E+02  0.19694528265E+03  0.17200000000E+03 0. -1.
<mgrwt>
<rscale>  2 0.19566954E+03</rscale>
<asrwt>0</asrwt>
<pdfrwt beam="1">  1       21 0.38620555E-01 0.19566954E+03</pdfrwt>
<pdfrwt beam="2">  1       21 0.75210616E-01 0.19566954E+03</pdfrwt>
<totfact> 0.10193517E+04</totfact>
</mgrwt>
</event>
<event>
 4    1  0.1119790E+000  0.2126891E+03  0.7546771E-02  0.1139454E+00
         21   -1    0    0  503  502  0.00000000000E+00  0.00000000000E+00  0.27253514436E+03  0.27253514436E+03  0.00000000000E+00 0.  1.
         21   -1    0    0  501  503 -0.00000000000E+00 -0.00000000000E+00 -0.20098860887E+03  0.20098860887E+03  0.00000000000E+00 0.  1.
          6    1    1    2  501    0  0.55648402729E+02 -0.11205316549E+03 -0.63033000205E+02  0.22183285541E+03  0.17200000000E+03 0.  1.
         -6    1    1    2    0  502 -0.55648402729E+02  0.11205316549E+03  0.13457953570E+03  0.25169089783E+03  0.17200000000E+03 0.  1.
<mgrwt>
<rscale>  2 0.21268911E+03</rscale>
<asrwt>0</asrwt>
<pdfrwt beam="1">  1       21 0.68133786E-01 0.21268911E+03</pdfrwt>
<pdfrwt beam="2">  1       21 0.50247152E-01 0.21268911E+03</pdfrwt>
<totfact> 0.73103686E+03</totfact>
</mgrwt>
</event>
<event>
 4    1  0.1119790E+000  0.2431088E+03  0.7546771E-02  0.1117739E+00
         21   -1    0    0  503  502  0.00000000000E+00  0.00000000000E+00  0.12006659306E+04  0.12006659306E+04  0.00000000000E+00 0. -1.
         21   -1    0    0  501  503 -0.00000000000E+00 -0.00000000000E+00 -0.10731008021E+03  0.10731008021E+03  0.00000000000E+00 0. -1.
          6    1    1    2  501    0 -0.88756296123E+02 -0.14710605339E+03  0.65523314735E+02  0.25178398642E+03  0.17200000000E+03 0. -1.
         -6    1    1    2    0  502  0.88756296123E+02  0.14710605339E+03  0.10278325357E+04  0.10561920244E+04  0.17200000000E+03 0. -1.
<mgrwt>
<rscale>  2 0.24310876E+03</rscale>
<asrwt>0</asrwt>
<pdfrwt beam="1">  1       21 0.30016644E+00 0.24310876E+03</pdfrwt>
<pdfrwt beam="2">  1       21 0.26827524E-01 0.24310876E+03</pdfrwt>
<totfact> 0.42199921E+02</totfact>
</mgrwt>
</event>
<event>
 4    1  0.1119790E+000  0.1877332E+03  0.7546771E-02  0.1160522E+00
         21   -1    0    0  503  502  0.00000000000E+00  0.00000000000E+00  0.29640272751E+03  0.29640272751E+03  0.00000000000E+00 0.  1.
         21   -1    0    0  501  503 -0.00000000000E+00 -0.00000000000E+00 -0.12036716967E+03  0.12036716967E+03  0.00000000000E+00 0. -1.
          6    1    1    2  501    0 -0.62852803900E+02 -0.41343444219E+02  0.65050121177E+02  0.19868385340E+03  0.17200000000E+03 0.  1.
         -6    1    1    2    0  502  0.62852803900E+02  0.41343444219E+02  0.11098543667E+03  0.21808604378E+03  0.17200000000E+03 0.  1.
<mgrwt>
<rscale>  2 0.18773320E+03</rscale>
<asrwt>0</asrwt>
<pdfrwt beam="1">  1       21 0.74100680E-01 0.18773320E+03</pdfrwt>
<pdfrwt beam="2">  1       21 0.30091793E-01 0.18773320E+03</pdfrwt>
<totfact> 0.17353826E+04</totfact>
</mgrwt>
</event>
<event>
 4    1  0.1119790E+000  0.3594381E+03  0.7546771E-02  0.1058807E+00
         21   -1    0    0  501  502  0.00000000000E+00  0.00000000000E+00  0.66405008569E+03  0.66405008569E+03  0.00000000000E+00 0.  1.
         21   -1    0    0  502  503 -0.00000000000E+00 -0.00000000000E+00 -0.19803955495E+03  0.19803955495E+03  0.00000000000E+00 0. -1.
          6    1    1    2  501    0 -0.29156211582E+03 -0.12084388605E+03  0.29016421157E+03  0.46194261749E+03  0.17200000000E+03 0. -1.
         -6    1    1    2    0  503  0.29156211582E+03  0.12084388605E+03  0.17584631916E+03  0.40014702315E+03  0.17200000000E+03 0.  1.
<mgrwt>
<rscale>  2 0.35943805E+03</rscale>
<asrwt>0</asrwt>
<pdfrwt beam="1">  1       21 0.16601252E+00 0.35943805E+03</pdfrwt>
<pdfrwt beam="2">  1       21 0.49509890E-01 0.35943805E+03</pdfrwt>
<totfact> 0.77620770E+02</totfact>
</mgrwt>
</event>
<event>
 4    1  0.1119790E+000  0.1848722E+03  0.7546771E-02  0.1163169E+00
         21   -1    0    0  501  502  0.00000000000E+00  0.00000000000E+00  0.15504052198E+04  0.15504052198E+04  0.00000000000E+00 0. -1.
         21   -1    0    0  502  503 -0.00000000000E+00 -0.00000000000E+00 -0.30409260471E+02  0.30409260471E+02  0.00000000000E+00 0. -1.
          6    1    1    2  501    0 -0.18529414004E+02 -0.65195053403E+02  0.11745486707E+04  0.11890089630E+04  0.17200000000E+03 0. -1.
         -6    1    1    2    0  503  0.18529414004E+02  0.65195053403E+02  0.34544728865E+03  0.39180551732E+03  0.17200000000E+03 0. -1.
<mgrwt>
<rscale>  2 0.18487221E+03</rscale>
<asrwt>0</asrwt>
<pdfrwt beam="1">  1       21 0.38760104E+00 0.18487221E+03</pdfrwt>
<pdfrwt beam="2">  1       21 0.76023203E-02 0.18487221E+03</pdfrwt>
<totfact> 0.13790680E+03</totfact>
</mgrwt>
</event>
<event>
 4    1  0.1119790E+000  0.2179879E+03  0.7546771E-02  0.1135392E+00
         21   -1    0    0  503  502  0.00000000000E+00  0.00000000000E+00  0.41124824922E+03  0.41124824922E+03  0.00000000000E+00 0.  1.
         21   -1    0    0  501  503 -0.00000000000E+00 -0.00000000000E+00 -0.11951132304E+03  0.11951132304E+03  0.00000000000E+00 0.  1.
          6    1    1    2  501    0  0.10319842903E+03  0.85351058397E+02  0.19419869324E+03  0.29194494580E+03  0.17200000000E+03 0.  1.
         -6    1    1    2    0  502 -0.10319842903E+03 -0.85351058397E+02  0.97538232933E+02  0.23881462645E+03  0.17200000000E+03 0.  1.
<mgrwt>
<rscale>  2 0.21798789E+03</rscale>
<asrwt>0</asrwt>
<pdfrwt beam="1">  1       21 0.10281206E+00 0.21798789E+03</pdfrwt>
<pdfrwt beam="2">  1       21 0.29877832E-01 0.21798789E+03</pdfrwt>
<totfact> 0.81063492E+03</totfact>
</mgrwt>
</event>
<event>
 4    1  0.1119790E+000  0.2300378E+03  0.7546771E-02  0.1126613E+00
         21   -1    0    0  503  502  0.00000000000E+00  0.00000000000E+00  0.29921554491E+03  0.29921554491E+03  0.00000000000E+00 0.  1.
         21   -1    0    0  501  503 -0.00000000000E+00 -0.00000000000E+00 -0.20613592647E+03  0.20613592647E+03  0.00000000000E+00 0.  1.
          6    1    1    2  501    0 -0.12551679274E+03  0.87056941081E+02 -0.48693470414E+02  0.23513491938E+03  0.17200000000E+03 0.  1.
         -6    1    1    2    0  502  0.12551679274E+03 -0.87056941081E+02  0.14177308886E+03  0.27021655200E+03  0.17200000000E+03 0.  1.
<mgrwt>
<rscale>  2 0.23003777E+03</rscale>
<asrwt>0</asrwt>
<pdfrwt beam="1">  1       21 0.74803886E-01 0.23003777E+03</pdfrwt>
<pdfrwt beam="2">  1       21 0.51533982E-01 0.23003777E+03</pdfrwt>
<totfact> 0.55679982E+03</totfact>
</mgrwt>
</event>
<event>
 4    1  0.1119790E+000  0.3292047E+03  0.7546771E-02  0.1071489E+00
         21   -1    0    0  501  502  0.00000000000E+00  0.00000000000E+00  0.10329715076E+04  0.10329715076E+04  0.00000000000E+00 0. -1.
         21   -1    0    0  502  503 -0.00000000000E+00 -0.00000000000E+00 -0.11048337443E+03  0.11048337443E+03  0.00000000000E+00 0.  1.
          6    1    1    2  501    0  0.25858987854E+01  0.28068673017E+03  0.58957972263E+03  0.67526289451E+03  0.17200000000E+03 0. -1.
         -6    1    1    2    0  503 -0.25858987854E+01 -0.28068673017E+03  0.33290841052E+03  0.46819198750E+03  0.17200000000E+03 0.  1.
<mgrwt>
<rscale>  2 0.32920469E+03</rscale>
<asrwt>0</asrwt>
<pdfrwt beam="1">  1       21 0.25824285E+00 0.32920469E+03</pdfrwt>
<pdfrwt beam="2">  1       21 0.27620847E-01 0.32920469E+03</pdfrwt>
<totfact> 0.65097661E+02</totfact>
</mgrwt>
</event>
<event>
 4    1  0.1119790E+000  0.1725621E+03  0.7546771E-02  0.1175202E+00
         21   -1    0    0  501  502  0.00000000000E+00  0.00000000000E+00  0.52880959602E+03  0.52880959602E+03  0.00000000000E+00 0.  1.
         21   -1    0    0  502  503 -0.00000000000E+00 -0.00000000000E+00 -0.10628743867E+03  0.10628743867E+03  0.00000000000E+00 0.  1.
          6    1    1    2  501    0  0.53763848988E+01  0.12835751020E+02  0.42900843026E+03  0.46241312185E+03  0.17200000000E+03 0.  1.
         -6    1    1    2    0  503 -0.53763848988E+01 -0.12835751020E+02 -0.64862729148E+01  0.17268391284E+03  0.17200000000E+03 0.  1.
<mgrwt>
<rscale>  2 0.17256205E+03</rscale>
<asrwt>0</asrwt>
<pdfrwt beam="1">  1       21 0.13220239E+00 0.17256205E+03</pdfrwt>
<pdfrwt beam="2">  1       21 0.26571861E-01 0.17256205E+03</pdfrwt>
<totfact> 0.56776620E+03</totfact>
</mgrwt>
</event>
<event>
 4    1  0.1119790E+000  0.1802884E+03  0.7546771E-02  0.1167524E+00
         21   -1    0    0  501  502  0.00000000000E+00  0.00000000000E+00  0.18183825076E+03  0.18183825076E+03  0.00000000000E+00 0.  1.
         21   -1    0    0  502  503 -0.00000000000E+00 -0.00000000000E+00 -0.39232638604E+03  0.39232638604E+03  0.00000000000E+00 0.  1.
          6    1    1    2  501    0  0.30925810537E+01 -0.53947511996E+02  0.10657134833E+03  0.20943101583E+03  0.17200000000E+03 0.  1.
         -6    1    1    2    0  503 -0.30925810537E+01  0.53947511996E+02 -0.31705948361E+03  0.36473362096E+03  0.17200000000E+03 0.  1.
<mgrwt>
<rscale>  2 0.18028837E+03</rscale>
<asrwt>0</asrwt>
<pdfrwt beam="1">  1       21 0.45459563E-01 0.18028837E+03</pdfrwt>
<pdfrwt beam="2">  1       21 0.98081596E-01 0.18028837E+03</pdfrwt>
<totfact> 0.40296732E+03</totfact>
</mgrwt>
</event>
<event>
 4    1  0.1119790E+000  0.1911179E+03  0.7546771E-02  0.1157457E+00
         21   -1    0    0  501  502  0.00000000000E+00  0.00000000000E+00  0.55514895949E+03  0.55514895949E+03  0.00000000000E+00 0.  1.
         21   -1    0    0  502  503 -0.00000000000E+00 -0.00000000000E+00 -0.88591179072E+02  0.88591179072E+02  0.00000000000E+00 0.  1.
          6    1    1    2  501    0 -0.59488716525E+02  0.58336631904E+02  0.39655236053E+03  0.44020432149E+03  0.17200000000E+03 0.  1.
         -6    1    1    2    0  503  0.59488716525E+02 -0.58336631904E+02  0.70005419880E+02  0.20353581706E+03  0.17200000000E+03 0.  1.
<mgrwt>
<rscale>  2 0.19111795E+03</rscale>
<asrwt>0</asrwt>
<pdfrwt beam="1">  1       21 0.13878723E+00 0.19111795E+03</pdfrwt>
<pdfrwt beam="2">  1       21 0.22147796E-01 0.19111795E+03</pdfrwt>
<totfact> 0.69841626E+03</totfact>
</mgrwt>
</event>
<event>
 4    1  0.1119790E+000  0.1818721E+03  0.7546771E-02  0.1166003E+00
         21   -1    0    0  501  502  0.00000000000E+00  0.00000000000E+00  0.56494106640E+02  0.56494106640E+02  0.00000000000E+00 0. -1.
         21   -1    0    0  502  503 -0.00000000000E+00 -0.00000000000E+00 -0.59230005751E+03  0.59230005751E+03  0.00000000000E+00 0. -1.
          6    1    1    2  501    0 -0.25548211679E+02  0.53298682612E+02 -0.23315166556E+03  0.29569775082E+03  0.17200000000E+03 0. -1.
         -6    1    1    2    0  503  0.25548211679E+02 -0.53298682612E+02 -0.30265428531E+03  0.35309641333E+03  0.17200000000E+03 0. -1.
<mgrwt>
<rscale>  2 0.18187210E+03</rscale>
<asrwt>0</asrwt>
<pdfrwt beam="1">  1       21 0.14123527E-01 0.18187210E+03</pdfrwt>
<pdfrwt beam="2">  1       21 0.14807501E+00 0.18187210E+03</pdfrwt>
<totfact> 0.13637836E+04</totfact>
</mgrwt>
</event>
<event>
 4    1  0.1119790E+000  0.2526068E+03  0.7546771E-02  0.1111668E+00
         21   -1    0    0  503  502  0.00000000000E+00  0.00000000000E+00  0.26284874888E+03  0.26284874888E+03  0.00000000000E+00 0. -1.
         21   -1    0    0  501  503 -0.00000000000E+00 -0.00000000000E+00 -0.34405893977E+03  0.34405893977E+03  0.00000000000E+00 0. -1.
          6    1    1    2  501    0 -0.18387065533E+03 -0.20439322906E+02 -0.20525835748E+03  0.32548606288E+03  0.17200000000E+03 0. -1.
         -6    1    1    2    0  502  0.18387065533E+03  0.20439322906E+02  0.12404816660E+03  0.28142162577E+03  0.17200000000E+03 0. -1.
<mgrwt>
<rscale>  2 0.25260678E+03</rscale>
<asrwt>0</asrwt>
<pdfrwt beam="1">  1       21 0.65712188E-01 0.25260678E+03</pdfrwt>
<pdfrwt beam="2">  1       21 0.86014735E-01 0.25260678E+03</pdfrwt>
<totfact> 0.23675775E+03</totfact>
</mgrwt>
</event>
<event>
 4    1  0.1119790E+000  0.2692685E+03  0.7546771E-02  0.1101699E+00
         21   -1    0    0  503  502  0.00000000000E+00  0.00000000000E+00  0.39404078532E+03  0.39404078532E+03  0.00000000000E+00 0.  1.
         21   -1    0    0  501  503 -0.00000000000E+00 -0.00000000000E+00 -0.33696759500E+03  0.33696759500E+03  0.00000000000E+00 0. -1.
          6    1    1    2  501    0 -0.20487996088E+03 -0.30752804231E+02 -0.21772160505E+03  0.34627767853E+03  0.17200000000E+03 0. -1.
         -6    1    1    2    0  502  0.20487996088E+03  0.30752804231E+02  0.27479479537E+03  0.38473070179E+03  0.17200000000E+03 0.  1.
<mgrwt>
<rscale>  2 0.26926852E+03</rscale>
<asrwt>0</asrwt>
<pdfrwt beam="1">  1       21 0.98510196E-01 0.26926852E+03</pdfrwt>
<pdfrwt beam="2">  1       21 0.84241899E-01 0.26926852E+03</pdfrwt>
<totfact> 0.97370086E+02</totfact>
</mgrwt>
</event>
<event>
 4    1  0.1119790E+000  0.1760132E+03  0.7546771E-02  0.1171718E+00
         21   -1    0    0  503  502  0.00000000000E+00  0.00000000000E+00  0.56174152231E+03  0.56174152231E+03  0.00000000000E+00 0.  1.
         21   -1    0    0  501  503 -0.00000000000E+00 -0.00000000000E+00 -0.55151155492E+02  0.55151155492E+02  0.00000000000E+00 0.  1.
          6    1    1    2  501    0  0.27230165142E+02  0.25596406221E+02  0.25296204867E+03  0.30817276968E+03  0.17200000000E+03 0.  1.
         -6    1    1    2    0  502 -0.27230165142E+02 -0.25596406221E+02  0.25362831816E+03  0.30871990813E+03  0.17200000000E+03 0.  1.
<mgrwt>
<rscale>  2 0.17601323E+03</rscale>
<asrwt>0</asrwt>
<pdfrwt beam="1">  1       21 0.14043536E+00 0.17601323E+03</pdfrwt>
<pdfrwt beam="2">  1       21 0.13787791E-01 0.17601323E+03</pdfrwt>
<totfact> 0.16414590E+04</totfact>
</mgrwt>
</event>
<event>
 4    1  0.1119790E+000  0.1972684E+03  0.7546771E-02  0.1152064E+00
         21   -1    0    0  503  502  0.00000000000E+00  0.00000000000E+00  0.11337585767E+04  0.11337585767E+04  0.00000000000E+00 0.  1.
         21   -1    0    0  501  503 -0.00000000000E+00 -0.00000000000E+00 -0.20288405597E+03  0.20288405597E+03  0.00000000000E+00 0.  1.
          6    1    1    2  501    0  0.17162361644E+01  0.96580830410E+02 -0.14373351364E+03  0.24407811293E+03  0.17200000000E+03 0.  1.
         -6    1    1    2    0  502 -0.17162361644E+01 -0.96580830410E+02  0.10746080344E+04  0.10925645198E+04  0.17200000000E+03 0.  1.
<mgrwt>
<rscale>  2 0.19726835E+03</rscale>
<asrwt>0</asrwt>
<pdfrwt beam="1">  1       21 0.28343963E+00 0.19726835E+03</pdfrwt>
<pdfrwt beam="2">  1       21 0.50721017E-01 0.19726835E+03</pdfrwt>
<totfact> 0.15612610E+02</totfact>
</mgrwt>
</event>
<event>
 4    1  0.1119790E+000  0.2853842E+03  0.7546771E-02  0.1092784E+00
         21   -1    0    0  501  502  0.00000000000E+00  0.00000000000E+00  0.32192807119E+03  0.32192807119E+03  0.00000000000E+00 0.  1.
         21   -1    0    0  502  503 -0.00000000000E+00 -0.00000000000E+00 -0.31250258411E+03  0.31250258411E+03  0.00000000000E+00 0. -1.
          6    1    1    2  501    0 -0.10926555948E+03  0.19980284082E+03  0.14314484310E+03  0.31927195898E+03  0.17200000000E+03 0. -1.
         -6    1    1    2    0  503  0.10926555948E+03 -0.19980284082E+03 -0.13371935602E+03  0.31515869631E+03  0.17200000000E+03 0.  1.
<mgrwt>
<rscale>  2 0.28538419E+03</rscale>
<asrwt>0</asrwt>
<pdfrwt beam="1">  1       21 0.80482018E-01 0.28538419E+03</pdfrwt>
<pdfrwt beam="2">  1       21 0.78125646E-01 0.28538419E+03</pdfrwt>
<totfact> 0.18343069E+03</totfact>
</mgrwt>
</event>
<event>
 4    1  0.1119790E+000  0.1952551E+03  0.7546771E-02  0.1153805E+00
         21   -1    0    0  501  502  0.00000000000E+00  0.00000000000E+00  0.19386015568E+03  0.19386015568E+03  0.00000000000E+00 0. -1.
         21   -1    0    0  502  503 -0.00000000000E+00 -0.00000000000E+00 -0.24772306322E+03  0.24772306322E+03  0.00000000000E+00 0. -1.
          6    1    1    2  501    0  0.95461517397E+01 -0.91920848033E+02  0.73311083440E+02  0.20856434564E+03  0.17200000000E+03 0. -1.
         -6    1    1    2    0  503 -0.95461517397E+01  0.91920848033E+02 -0.12717399098E+03  0.23301887327E+03  0.17200000000E+03 0. -1.
<mgrwt>
<rscale>  2 0.19525514E+03</rscale>
<asrwt>0</asrwt>
<pdfrwt beam="1">  1       21 0.48465039E-01 0.19525514E+03</pdfrwt>
<pdfrwt beam="2">  1       21 0.61930766E-01 0.19525514E+03</pdfrwt>
<totfact> 0.98234203E+03</totfact>
</mgrwt>
</event>
<event>
 4    1  0.1119790E+000  0.2108067E+03  0.7546771E-02  0.1140929E+00
         21   -1    0    0  501  502  0.00000000000E+00  0.00000000000E+00  0.91595346926E+02  0.91595346926E+02  0.00000000000E+00 0. -1.
         21   -1    0    0  502  503 -0.00000000000E+00 -0.00000000000E+00 -0.50617344690E+03  0.50617344690E+03  0.00000000000E+00 0.  1.
          6    1    1    2  501    0 -0.11628606509E+03 -0.36510650175E+02 -0.26816987928E+03  0.34110784316E+03  0.17200000000E+03 0.  1.
         -6    1    1    2    0  503  0.11628606509E+03  0.36510650175E+02 -0.14640822069E+03  0.25666095067E+03  0.17200000000E+03 0.  1.
<mgrwt>
<rscale>  2 0.21080673E+03</rscale>
<asrwt>0</asrwt>
<pdfrwt beam="1">  1       21 0.22898837E-01 0.21080673E+03</pdfrwt>
<pdfrwt beam="2">  1       21 0.12654336E+00 0.21080673E+03</pdfrwt>
<totfact> 0.81681958E+03</totfact>
</mgrwt>
</event>
<event>
 4    1  0.1119790E+000  0.1934645E+03  0.7546771E-02  0.1155373E+00
         21   -1    0    0  501  502  0.00000000000E+00  0.00000000000E+00  0.11709339508E+04  0.11709339508E+04  0.00000000000E+00 0.  1.
         21   -1    0    0  502  503 -0.00000000000E+00 -0.00000000000E+00 -0.35622764128E+02  0.35622764128E+02  0.00000000000E+00 0. -1.
          6    1    1    2  501    0 -0.32515644198E+02  0.82384821147E+02  0.76097744348E+03  0.78518481605E+03  0.17200000000E+03 0.  1.
         -6    1    1    2    0  503  0.32515644198E+02 -0.82384821147E+02  0.37433374322E+03  0.42137189890E+03  0.17200000000E+03 0. -1.
<mgrwt>
<rscale>  2 0.19346453E+03</rscale>
<asrwt>0</asrwt>
<pdfrwt beam="1">  1       21 0.29273336E+00 0.19346453E+03</pdfrwt>
<pdfrwt beam="2">  1       21 0.89056949E-02 0.19346453E+03</pdfrwt>
<totfact> 0.37362983E+03</totfact>
</mgrwt>
</event>
<event>
 4    1  0.1119790E+000  0.1811262E+03  0.7546771E-02  0.1166718E+00
         21   -1    0    0  501  502  0.00000000000E+00  0.00000000000E+00  0.12799920516E+03  0.12799920516E+03  0.00000000000E+00 0. -1.
         21   -1    0    0  502  503 -0.00000000000E+00 -0.00000000000E+00 -0.25709261114E+03  0.25709261114E+03  0.00000000000E+00 0. -1.
          6    1    1    2  501    0 -0.44347191903E+02 -0.35440555181E+02 -0.53882582766E+02  0.18897100070E+03  0.17200000000E+03 0. -1.
         -6    1    1    2    0  503  0.44347191903E+02  0.35440555181E+02 -0.75210823215E+02  0.19612081560E+03  0.17200000000E+03 0. -1.
<mgrwt>
<rscale>  2 0.18112622E+03</rscale>
<asrwt>0</asrwt>
<pdfrwt beam="1">  1       21 0.31999802E-01 0.18112622E+03</pdfrwt>
<pdfrwt beam="2">  1       21 0.64273152E-01 0.18112622E+03</pdfrwt>
<totfact> 0.21120588E+04</totfact>
</mgrwt>
</event>
<event>
 4    1  0.1119790E+000  0.3718558E+03  0.7546771E-02  0.1053986E+00
         21   -1    0    0  503  502  0.00000000000E+00  0.00000000000E+00  0.27601804004E+03  0.27601804004E+03  0.00000000000E+00 0. -1.
         21   -1    0    0  501  503 -0.00000000000E+00 -0.00000000000E+00 -0.54717743559E+03  0.54717743559E+03  0.00000000000E+00 0.  1.
          6    1    1    2  501    0 -0.28360821397E+03 -0.16810453499E+03 -0.25518898090E+03  0.45099686217E+03  0.17200000000E+03 0.  1.
         -6    1    1    2    0  502  0.28360821397E+03  0.16810453499E+03 -0.15970414648E+02  0.37219861346E+03  0.17200000000E+03 0. -1.
<mgrwt>
<rscale>  2 0.37185582E+03</rscale>
<asrwt>0</asrwt>
<pdfrwt beam="1">  1       21 0.69004511E-01 0.37185582E+03</pdfrwt>
<pdfrwt beam="2">  1       21 0.13679436E+00 0.37185582E+03</pdfrwt>
<totfact> 0.63288089E+02</totfact>
</mgrwt>
</event>
<event>
 4    1  0.1119790E+000  0.1986514E+03  0.7546771E-02  0.1150882E+00
         21   -1    0    0  501  502  0.00000000000E+00  0.00000000000E+00  0.57338249569E+03  0.57338249569E+03  0.00000000000E+00 0.  1.
         21   -1    0    0  502  503 -0.00000000000E+00 -0.00000000000E+00 -0.26709298879E+03  0.26709298879E+03  0.00000000000E+00 0. -1.
          6    1    1    2  501    0  0.77204866153E+02 -0.62592180732E+02  0.51521380625E+03  0.55218442444E+03  0.17200000000E+03 0.  1.
         -6    1    1    2    0  503 -0.77204866153E+02  0.62592180732E+02 -0.20892429935E+03  0.28829106005E+03  0.17200000000E+03 0. -1.
<mgrwt>
<rscale>  2 0.19865138E+03</rscale>
<asrwt>0</asrwt>
<pdfrwt beam="1">  1       21 0.14334562E+00 0.19865138E+03</pdfrwt>
<pdfrwt beam="2">  1       21 0.66773248E-01 0.19865138E+03</pdfrwt>
<totfact> 0.68725534E+02</totfact>
</mgrwt>
</event>
<event>
 4    1  0.1119790E+000  0.2181887E+03  0.7546771E-02  0.1135241E+00
         21   -1    0    0  503  502  0.00000000000E+00  0.00000000000E+00  0.11091938683E+03  0.11091938683E+03  0.00000000000E+00 0.  1.
         21   -1    0    0  501  503 -0.00000000000E+00 -0.00000000000E+00 -0.47615813161E+03  0.47615813161E+03  0.00000000000E+00 0. -1.
          6    1    1    2  501    0  0.12855501394E+03  0.38676986902E+02 -0.27480384139E+03  0.35088951562E+03  0.17200000000E+03 0.  1.
         -6    1    1    2    0  502 -0.12855501394E+03 -0.38676986902E+02 -0.90434903393E+02  0.23618800282E+03  0.17200000000E+03 0.  1.
<mgrwt>
<rscale>  2 0.21818868E+03</rscale>
<asrwt>0</asrwt>
<pdfrwt beam="1">  1       21 0.27729847E-01 0.21818868E+03</pdfrwt>
<pdfrwt beam="2">  1       21 0.11903953E+00 0.21818868E+03</pdfrwt>
<totfact> 0.65610596E+03</totfact>
</mgrwt>
</event>
<event>
 4    1  0.1119790E+000  0.2139282E+03  0.7546771E-02  0.1138492E+00
         21   -1    0    0  503  502  0.00000000000E+00  0.00000000000E+00  0.68355353473E+03  0.68355353473E+03  0.00000000000E+00 0. -1.
         21   -1    0    0  501  503 -0.00000000000E+00 -0.00000000000E+00 -0.91440803978E+02  0.91440803978E+02  0.00000000000E+00 0. -1.
          6    1    1    2  501    0 -0.12596861537E+03 -0.17697178784E+02  0.95525038789E+02  0.23428682257E+03  0.17200000000E+03 0. -1.
         -6    1    1    2    0  502  0.12596861537E+03  0.17697178784E+02  0.49658769196E+03  0.54070751613E+03  0.17200000000E+03 0. -1.
<mgrwt>
<rscale>  2 0.21392822E+03</rscale>
<asrwt>0</asrwt>
<pdfrwt beam="1">  1       21 0.17088837E+00 0.21392822E+03</pdfrwt>
<pdfrwt beam="2">  1       21 0.22860203E-01 0.21392822E+03</pdfrwt>
<totfact> 0.37060964E+03</totfact>
</mgrwt>
</event>
<event>
 4    1  0.1119790E+000  0.1783039E+03  0.7546771E-02  0.1169455E+00
         21   -1    0    0  501  502  0.00000000000E+00  0.00000000000E+00  0.16904754555E+04  0.16904754555E+04  0.00000000000E+00 0.  1.
         21   -1    0    0  502  503 -0.00000000000E+00 -0.00000000000E+00 -0.18901565782E+02  0.18901565782E+02  0.00000000000E+00 0.  1.
          6    1    1    2  501    0  0.44202545001E+02 -0.15950614773E+02  0.89633267348E+03  0.91389526131E+03  0.17200000000E+03 0. -1.
         -6    1    1    2    0  503 -0.44202545001E+02  0.15950614773E+02  0.77524121627E+03  0.79548176000E+03  0.17200000000E+03 0. -1.
<mgrwt>
<rscale>  2 0.17830392E+03</rscale>
<asrwt>0</asrwt>
<pdfrwt beam="1">  1       21 0.42261835E+00 0.17830392E+03</pdfrwt>
<pdfrwt beam="2">  1       21 0.47253972E-02 0.17830392E+03</pdfrwt>
<totfact> 0.18991761E+03</totfact>
</mgrwt>
</event>
<event>
 4    1  0.1119790E+000  0.1972182E+03  0.7546771E-02  0.1152107E+00
         21   -1    0    0  503  502  0.00000000000E+00  0.00000000000E+00  0.40829523597E+03  0.40829523597E+03  0.00000000000E+00 0.  1.
         21   -1    0    0  501  503 -0.00000000000E+00 -0.00000000000E+00 -0.38659773808E+03  0.38659773808E+03  0.00000000000E+00 0.  1.
          6    1    1    2  501    0  0.65636506868E+02 -0.70730938756E+02 -0.33417254296E+03  0.38802874275E+03  0.17200000000E+03 0.  1.
         -6    1    1    2    0  502 -0.65636506868E+02  0.70730938756E+02  0.35587004086E+03  0.40686423130E+03  0.17200000000E+03 0.  1.
<mgrwt>
<rscale>  2 0.19721820E+03</rscale>
<asrwt>0</asrwt>
<pdfrwt beam="1">  1       21 0.10207381E+00 0.19721820E+03</pdfrwt>
<pdfrwt beam="2">  1       21 0.96649434E-01 0.19721820E+03</pdfrwt>
<totfact> 0.69218915E+02</totfact>
</mgrwt>
</event>
<event>
 4    1  0.1119790E+000  0.2178456E+03  0.7546771E-02  0.1135499E+00
         21   -1    0    0  503  502  0.00000000000E+00  0.00000000000E+00  0.11013119435E+04  0.11013119435E+04  0.00000000000E+00 0. -1.
         21   -1    0    0  501  503 -0.00000000000E+00 -0.00000000000E+00 -0.43646641271E+02  0.43646641271E+02  0.00000000000E+00 0.  1.
          6    1    1    2  501    0 -0.55378466995E+02 -0.12167965209E+03  0.59342089028E+03  0.63214323168E+03  0.17200000000E+03 0. -1.
         -6    1    1    2    0  502  0.55378466995E+02  0.12167965209E+03  0.46424441194E+03  0.51281535308E+03  0.17200000000E+03 0.  1.
<mgrwt>
<rscale>  2 0.21784562E+03</rscale>
<asrwt>0</asrwt>
<pdfrwt beam="1">  1       21 0.27532789E+00 0.21784562E+03</pdfrwt>
<pdfrwt beam="2">  1       21 0.10911664E-01 0.21784562E+03</pdfrwt>
<totfact> 0.32023542E+03</totfact>
</mgrwt>
</event>
<event>
 4    1  0.1119790E+000  0.1964627E+03  0.7546771E-02  0.1152758E+00
         21   -1    0    0  501  502  0.00000000000E+00  0.00000000000E+00  0.29925346466E+03  0.29925346466E+03  0.00000000000E+00 0. -1.
         21   -1    0    0  502  503 -0.00000000000E+00 -0.00000000000E+00 -0.69909172436E+03  0.69909172436E+03  0.00000000000E+00 0. -1.
          6    1    1    2  501    0 -0.76883298219E+02  0.55700483912E+02  0.25085999938E+03  0.31863509653E+03  0.17200000000E+03 0. -1.
         -6    1    1    2    0  503  0.76883298219E+02 -0.55700483912E+02 -0.65069825908E+03  0.67971009248E+03  0.17200000000E+03 0. -1.
<mgrwt>
<rscale>  2 0.19646268E+03</rscale>
<asrwt>0</asrwt>
<pdfrwt beam="1">  1       21 0.74813367E-01 0.19646268E+03</pdfrwt>
<pdfrwt beam="2">  1       21 0.17477293E+00 0.19646268E+03</pdfrwt>
<totfact> 0.31450641E+02</totfact>
</mgrwt>
</event>
<event>
 4    1  0.1119790E+000  0.1948892E+03  0.7546771E-02  0.1154124E+00
         21   -1    0    0  503  502  0.00000000000E+00  0.00000000000E+00  0.82971963112E+03  0.82971963112E+03  0.00000000000E+00 0. -1.
         21   -1    0    0  501  503 -0.00000000000E+00 -0.00000000000E+00 -0.57124004565E+02  0.57124004565E+02  0.00000000000E+00 0. -1.
          6    1    1    2  501    0  0.86448958626E+02 -0.30403439639E+02  0.18866688997E+03  0.27125078242E+03  0.17200000000E+03 0. -1.
         -6    1    1    2    0  502 -0.86448958626E+02  0.30403439639E+02  0.58392873658E+03  0.61559285327E+03  0.17200000000E+03 0. -1.
<mgrwt>
<rscale>  2 0.19488918E+03</rscale>
<asrwt>0</asrwt>
<pdfrwt beam="1">  1       21 0.20742987E+00 0.19488918E+03</pdfrwt>
<pdfrwt beam="2">  1       21 0.14281004E-01 0.19488918E+03</pdfrwt>
<totfact> 0.51547637E+03</totfact>
</mgrwt>
</event>
<event>
 4    1  0.1119790E+000  0.2002286E+03  0.7546771E-02  0.1149546E+00
         21   -1    0    0  503  502  0.00000000000E+00  0.00000000000E+00  0.84016823567E+02  0.84016823567E+02  0.00000000000E+00 0.  1.
         21   -1    0    0  501  503 -0.00000000000E+00 -0.00000000000E+00 -0.48307870405E+03  0.48307870405E+03  0.00000000000E+00 0.  1.
          6    1    1    2  501    0 -0.89581223544E+02 -0.49826557023E+02 -0.23085293389E+03  0.30558887166E+03  0.17200000000E+03 0.  1.
         -6    1    1    2    0  502  0.89581223544E+02  0.49826557023E+02 -0.16820894659E+03  0.26150665596E+03  0.17200000000E+03 0.  1.
<mgrwt>
<rscale>  2 0.20022857E+03</rscale>
<asrwt>0</asrwt>
<pdfrwt beam="1">  1       21 0.21004206E-01 0.20022857E+03</pdfrwt>
<pdfrwt beam="2">  1       21 0.12076968E+00 0.20022857E+03</pdfrwt>
<totfact> 0.10887699E+04</totfact>
</mgrwt>
</event>
<event>
 4    1  0.1119790E+000  0.2222513E+03  0.7546771E-02  0.1132216E+00
         21   -1    0    0  501  502  0.00000000000E+00  0.00000000000E+00  0.42391190225E+03  0.42391190225E+03  0.00000000000E+00 0.  1.
         21   -1    0    0  502  503 -0.00000000000E+00 -0.00000000000E+00 -0.11873858397E+03  0.11873858397E+03  0.00000000000E+00 0. -1.
          6    1    1    2  501    0 -0.76293984216E+02 -0.11828295897E+03  0.11552668426E+03  0.25048362259E+03  0.17200000000E+03 0. -1.
         -6    1    1    2    0  503  0.76293984216E+02  0.11828295897E+03  0.18964663403E+03  0.29216686364E+03  0.17200000000E+03 0.  1.
<mgrwt>
<rscale>  2 0.22225128E+03</rscale>
<asrwt>0</asrwt>
<pdfrwt beam="1">  1       21 0.10597797E+00 0.22225128E+03</pdfrwt>
<pdfrwt beam="2">  1       21 0.29684647E-01 0.22225128E+03</pdfrwt>
<totfact> 0.76095644E+03</totfact>
</mgrwt>
</event>
<event>
 4    1  0.1119790E+000  0.2057793E+03  0.7546771E-02  0.1144953E+00
         21   -1    0    0  503  502  0.00000000000E+00  0.00000000000E+00  0.77364356981E+03  0.77364356981E+03  0.00000000000E+00 0. -1.
         21   -1    0    0  501  503 -0.00000000000E+00 -0.00000000000E+00 -0.67081139297E+02  0.67081139297E+02  0.00000000000E+00 0.  1.
          6    1    1    2  501    0  0.10355707100E+03 -0.45133770471E+02  0.17293998796E+03  0.26879985794E+03  0.17200000000E+03 0.  1.
         -6    1    1    2    0  502 -0.10355707100E+03  0.45133770471E+02  0.53362244255E+03  0.57192485117E+03  0.17200000000E+03 0. -1.
<mgrwt>
<rscale>  2 0.20577931E+03</rscale>
<asrwt>0</asrwt>
<pdfrwt beam="1">  1       21 0.19341086E+00 0.20577931E+03</pdfrwt>
<pdfrwt beam="2">  1       21 0.16770287E-01 0.20577931E+03</pdfrwt>
<totfact> 0.46822804E+03</totfact>
</mgrwt>
</event>
<event>
 4    1  0.1119790E+000  0.1811369E+03  0.7546771E-02  0.1166707E+00
         21   -1    0    0  501  502  0.00000000000E+00  0.00000000000E+00  0.61399974198E+03  0.61399974198E+03  0.00000000000E+00 0. -1.
         21   -1    0    0  502  503 -0.00000000000E+00 -0.00000000000E+00 -0.21547985127E+03  0.21547985127E+03  0.00000000000E+00 0. -1.
          6    1    1    2  501    0  0.43298523090E+02  0.36767104278E+02  0.55891544741E+03  0.58753473039E+03  0.17200000000E+03 0. -1.
         -6    1    1    2    0  503 -0.43298523090E+02 -0.36767104278E+02 -0.16039555670E+03  0.24194486287E+03  0.17200000000E+03 0. -1.
<mgrwt>
<rscale>  2 0.18113692E+03</rscale>
<asrwt>0</asrwt>
<pdfrwt beam="1">  1       21 0.15349993E+00 0.18113692E+03</pdfrwt>
<pdfrwt beam="2">  1       21 0.53869964E-01 0.18113692E+03</pdfrwt>
<totfact> 0.92816856E+02</totfact>
</mgrwt>
</event>
<event>
 4    1  0.1119790E+000  0.2170853E+03  0.7546771E-02  0.1136075E+00
         21   -1    0    0  501  502  0.00000000000E+00  0.00000000000E+00  0.24971357238E+03  0.24971357238E+03  0.00000000000E+00 0. -1.
         21   -1    0    0  502  503 -0.00000000000E+00 -0.00000000000E+00 -0.23071488284E+03  0.23071488284E+03  0.00000000000E+00 0. -1.
          6    1    1    2  501    0  0.10626579424E+03  0.79054422693E+02  0.11198369384E+03  0.24426700239E+03  0.17200000000E+03 0. -1.
         -6    1    1    2    0  503 -0.10626579424E+03 -0.79054422693E+02 -0.92985004295E+02  0.23616145282E+03  0.17200000000E+03 0. -1.
<mgrwt>
<rscale>  2 0.21708528E+03</rscale>
<asrwt>0</asrwt>
<pdfrwt beam="1">  1       21 0.62428393E-01 0.21708528E+03</pdfrwt>
<pdfrwt beam="2">  1       21 0.57678721E-01 0.21708528E+03</pdfrwt>
<totfact> 0.65901632E+03</totfact>
</mgrwt>
</event>
<event>
 4    1  0.1119790E+000  0.1746670E+03  0.7546771E-02  0.1173066E+00
         21   -1    0    0  503  502  0.00000000000E+00  0.00000000000E+00  0.54127497474E+03  0.54127497474E+03  0.00000000000E+00 0.  1.
         21   -1    0    0  501  503 -0.00000000000E+00 -0.00000000000E+00 -0.44069741934E+03  0.44069741934E+03  0.00000000000E+00 0.  1.
          6    1    1    2  501    0 -0.23908162212E+02  0.18787570341E+02 -0.40822558829E+03  0.44402331465E+03  0.17200000000E+03 0.  1.
         -6    1    1    2    0  502  0.23908162212E+02 -0.18787570341E+02  0.50880314369E+03  0.53794907942E+03  0.17200000000E+03 0.  1.
<mgrwt>
<rscale>  2 0.17466703E+03</rscale>
<asrwt>0</asrwt>
<pdfrwt beam="1">  1       21 0.13531874E+00 0.17466703E+03</pdfrwt>
<pdfrwt beam="2">  1       21 0.11017436E+00 0.17466703E+03</pdfrwt>
<totfact> 0.26001495E+02</totfact>
</mgrwt>
</event>
<event>
 4    1  0.1119790E+000  0.3065355E+03  0.7546771E-02  0.1082018E+00
         21   -1    0    0  501  502  0.00000000000E+00  0.00000000000E+00  0.13716753352E+03  0.13716753352E+03  0.00000000000E+00 0. -1.
         21   -1    0    0  502  503 -0.00000000000E+00 -0.00000000000E+00 -0.18025513327E+04  0.18025513327E+04  0.00000000000E+00 0.  1.
          6    1    1    2  501    0 -0.16306550950E+03  0.19439563984E+03 -0.69044859714E+02  0.31421524124E+03  0.17200000000E+03 0. -1.
         -6    1    1    2    0  503  0.16306550950E+03 -0.19439563984E+03 -0.15963389394E+04  0.16255036249E+04  0.17200000000E+03 0.  1.
<mgrwt>
<rscale>  2 0.30653552E+03</rscale>
<asrwt>0</asrwt>
<pdfrwt beam="1">  1       21 0.34291883E-01 0.30653552E+03</pdfrwt>
<pdfrwt beam="2">  1       21 0.45063783E+00 0.30653552E+03</pdfrwt>
<totfact> 0.28288976E+01</totfact>
</mgrwt>
</event>
<event>
 4    1  0.1119790E+000  0.1753094E+03  0.7546771E-02  0.1172421E+00
         21   -1    0    0  501  502  0.00000000000E+00  0.00000000000E+00  0.15414950067E+03  0.15414950067E+03  0.00000000000E+00 0.  1.
         21   -1    0    0  502  503 -0.00000000000E+00 -0.00000000000E+00 -0.21803193896E+03  0.21803193896E+03  0.00000000000E+00 0.  1.
          6    1    1    2  501    0  0.33872827937E+02  0.14203293215E+01 -0.86378666837E+02  0.19543454120E+03  0.17200000000E+03 0.  1.
         -6    1    1    2    0  503 -0.33872827937E+02 -0.14203293215E+01  0.22496228554E+02  0.17674689844E+03  0.17200000000E+03 0.  1.
<mgrwt>
<rscale>  2 0.17530940E+03</rscale>
<asrwt>0</asrwt>
<pdfrwt beam="1">  1       21 0.38537376E-01 0.17530940E+03</pdfrwt>
<pdfrwt beam="2">  1       21 0.54507984E-01 0.17530940E+03</pdfrwt>
<totfact> 0.20856061E+04</totfact>
</mgrwt>
</event>
<event>
 4    1  0.1119790E+000  0.1796865E+03  0.7546771E-02  0.1168107E+00
         21   -1    0    0  503  502  0.00000000000E+00  0.00000000000E+00  0.25094703139E+03  0.25094703139E+03  0.00000000000E+00 0. -1.
         21   -1    0    0  501  503 -0.00000000000E+00 -0.00000000000E+00 -0.47853327470E+03  0.47853327470E+03  0.00000000000E+00 0. -1.
          6    1    1    2  501    0 -0.28824879653E+02  0.43270745168E+02 -0.42566910721E+03  0.46204049596E+03  0.17200000000E+03 0. -1.
         -6    1    1    2    0  502  0.28824879653E+02 -0.43270745168E+02  0.19808286390E+03  0.26743981014E+03  0.17200000000E+03 0. -1.
<mgrwt>
<rscale>  2 0.17968648E+03</rscale>
<asrwt>0</asrwt>
<pdfrwt beam="1">  1       21 0.62736758E-01 0.17968648E+03</pdfrwt>
<pdfrwt beam="2">  1       21 0.11963332E+00 0.17968648E+03</pdfrwt>
<totfact> 0.12690384E+03</totfact>
</mgrwt>
</event>
<event>
 4    1  0.1119790E+000  0.1744240E+03  0.7546771E-02  0.1173311E+00
         21   -1    0    0  503  502  0.00000000000E+00  0.00000000000E+00  0.81547350947E+02  0.81547350947E+02  0.00000000000E+00 0. -1.
         21   -1    0    0  501  503 -0.00000000000E+00 -0.00000000000E+00 -0.38716562274E+03  0.38716562274E+03  0.00000000000E+00 0. -1.
          6    1    1    2  501    0 -0.25361223044E+02 -0.14019300657E+02 -0.19750916191E+03  0.26350256444E+03  0.17200000000E+03 0. -1.
         -6    1    1    2    0  502  0.25361223044E+02  0.14019300657E+02 -0.10810910988E+03  0.20521040925E+03  0.17200000000E+03 0. -1.
<mgrwt>
<rscale>  2 0.17442400E+03</rscale>
<asrwt>0</asrwt>
<pdfrwt beam="1">  1       21 0.20386838E-01 0.17442400E+03</pdfrwt>
<pdfrwt beam="2">  1       21 0.96791403E-01 0.17442400E+03</pdfrwt>
<totfact> 0.19972177E+04</totfact>
</mgrwt>
</event>
<event>
 4    1  0.1119790E+000  0.1725699E+03  0.7546771E-02  0.1175194E+00
         21   -1    0    0  503  502  0.00000000000E+00  0.00000000000E+00  0.51678342956E+03  0.51678342956E+03  0.00000000000E+00 0. -1.
         21   -1    0    0  501  503 -0.00000000000E+00 -0.00000000000E+00 -0.10321359080E+03  0.10321359080E+03  0.00000000000E+00 0. -1.
          6    1    1    2  501    0 -0.11740283741E+02 -0.76519448902E+01  0.76348177153E+00  0.17257163564E+03  0.17200000000E+03 0. -1.
         -6    1    1    2    0  502  0.11740283741E+02  0.76519448902E+01  0.41280635699E+03  0.44742538472E+03  0.17200000000E+03 0. -1.
<mgrwt>
<rscale>  2 0.17256995E+03</rscale>
<asrwt>0</asrwt>
<pdfrwt beam="1">  1       21 0.12919585E+00 0.17256995E+03</pdfrwt>
<pdfrwt beam="2">  1       21 0.25803399E-01 0.17256995E+03</pdfrwt>
<totfact> 0.63633660E+03</totfact>
</mgrwt>
</event>
<event>
 4    1  0.1119790E+000  0.1765858E+03  0.7546771E-02  0.1171149E+00
         21   -1    0    0  503  502  0.00000000000E+00  0.00000000000E+00  0.21555554942E+03  0.21555554942E+03  0.00000000000E+00 0.  1.
         21   -1    0    0  501  503 -0.00000000000E+00 -0.00000000000E+00 -0.24842896486E+03  0.24842896486E+03  0.00000000000E+00 0.  1.
          6    1    1    2  501    0  0.23185554153E+02  0.32572498043E+02 -0.16637186492E+03  0.24261519941E+03  0.17200000000E+03 0.  1.
         -6    1    1    2    0  502 -0.23185554153E+02 -0.32572498043E+02  0.13349844948E+03  0.22136931487E+03  0.17200000000E+03 0.  1.
<mgrwt>
<rscale>  2 0.17658578E+03</rscale>
<asrwt>0</asrwt>
<pdfrwt beam="1">  1       21 0.53888888E-01 0.17658578E+03</pdfrwt>
<pdfrwt beam="2">  1       21 0.62107241E-01 0.17658578E+03</pdfrwt>
<totfact> 0.79266675E+03</totfact>
</mgrwt>
</event>
<event>
 4    1  0.1119790E+000  0.1885905E+03  0.7546771E-02  0.1159739E+00
         21   -1    0    0  501  502  0.00000000000E+00  0.00000000000E+00  0.27731835598E+03  0.27731835598E+03  0.00000000000E+00 0. -1.
         21   -1    0    0  502  503 -0.00000000000E+00 -0.00000000000E+00 -0.23614113788E+03  0.23614113788E+03  0.00000000000E+00 0. -1.
          6    1    1    2  501    0  0.97105158575E+01 -0.76733915961E+02  0.19412118449E+03  0.27064630470E+03  0.17200000000E+03 0. -1.
         -6    1    1    2    0  503 -0.97105158575E+01  0.76733915961E+02 -0.15294396639E+03  0.24281318917E+03  0.17200000000E+03 0. -1.
<mgrwt>
<rscale>  2 0.18859053E+03</rscale>
<asrwt>0</asrwt>
<pdfrwt beam="1">  1       21 0.69329589E-01 0.18859053E+03</pdfrwt>
<pdfrwt beam="2">  1       21 0.59035285E-01 0.18859053E+03</pdfrwt>
<totfact> 0.50937799E+03</totfact>
</mgrwt>
</event>
<event>
 4    1  0.1119790E+000  0.2317337E+03  0.7546771E-02  0.1125425E+00
         21   -1    0    0  501  502  0.00000000000E+00  0.00000000000E+00  0.12057819526E+03  0.12057819526E+03  0.00000000000E+00 0. -1.
         21   -1    0    0  502  503 -0.00000000000E+00 -0.00000000000E+00 -0.68690680098E+03  0.68690680098E+03  0.00000000000E+00 0.  1.
          6    1    1    2  501    0 -0.22118248906E+02 -0.15371168285E+03 -0.43745781907E+02  0.23582661388E+03  0.17200000000E+03 0. -1.
         -6    1    1    2    0  503  0.22118248906E+02  0.15371168285E+03 -0.52258282381E+03  0.57165838236E+03  0.17200000000E+03 0.  1.
<mgrwt>
<rscale>  2 0.23173368E+03</rscale>
<asrwt>0</asrwt>
<pdfrwt beam="1">  1       21 0.30144549E-01 0.23173368E+03</pdfrwt>
<pdfrwt beam="2">  1       21 0.17172670E+00 0.23173368E+03</pdfrwt>
<totfact> 0.21135170E+03</totfact>
</mgrwt>
</event>
<event>
 4    1  0.1119790E+000  0.2676756E+03  0.7546771E-02  0.1102617E+00
         21   -1    0    0  501  502  0.00000000000E+00  0.00000000000E+00  0.25725714992E+03  0.25725714992E+03  0.00000000000E+00 0. -1.
         21   -1    0    0  502  503 -0.00000000000E+00 -0.00000000000E+00 -0.28055005382E+03  0.28055005382E+03  0.00000000000E+00 0.  1.
          6    1    1    2  501    0 -0.15731790751E+03 -0.13159532143E+03  0.11249792139E+02  0.26791194536E+03  0.17200000000E+03 0.  1.
         -6    1    1    2    0  503  0.15731790751E+03  0.13159532143E+03 -0.34542696038E+02  0.26989525838E+03  0.17200000000E+03 0.  1.
<mgrwt>
<rscale>  2 0.26767565E+03</rscale>
<asrwt>0</asrwt>
<pdfrwt beam="1">  1       21 0.64314288E-01 0.26767565E+03</pdfrwt>
<pdfrwt beam="2">  1       21 0.70137513E-01 0.26767565E+03</pdfrwt>
<totfact> 0.39032469E+03</totfact>
</mgrwt>
</event>
<event>
 4    1  0.1119790E+000  0.1806892E+03  0.7546771E-02  0.1167138E+00
         21   -1    0    0  503  502  0.00000000000E+00  0.00000000000E+00  0.25880745601E+03  0.25880745601E+03  0.00000000000E+00 0.  1.
         21   -1    0    0  501  503 -0.00000000000E+00 -0.00000000000E+00 -0.16012490233E+03  0.16012490233E+03  0.00000000000E+00 0. -1.
          6    1    1    2  501    0 -0.49619508672E+02  0.24545835442E+02 -0.47144381159E+02  0.18673828304E+03  0.17200000000E+03 0. -1.
         -6    1    1    2    0  502  0.49619508672E+02 -0.24545835442E+02  0.14582693484E+03  0.23219407530E+03  0.17200000000E+03 0. -1.
<mgrwt>
<rscale>  2 0.18068922E+03</rscale>
<asrwt>0</asrwt>
<pdfrwt beam="1">  1       21 0.64701864E-01 0.18068922E+03</pdfrwt>
<pdfrwt beam="2">  1       21 0.40031226E-01 0.18068922E+03</pdfrwt>
<totfact> 0.13343213E+04</totfact>
</mgrwt>
</event>
<event>
 4    1  0.1119790E+000  0.2888593E+03  0.7546771E-02  0.1090946E+00
         21   -1    0    0  501  502  0.00000000000E+00  0.00000000000E+00  0.98641005184E+02  0.98641005184E+02  0.00000000000E+00 0.  1.
         21   -1    0    0  502  503 -0.00000000000E+00 -0.00000000000E+00 -0.10491252731E+04  0.10491252731E+04  0.00000000000E+00 0. -1.
          6    1    1    2  501    0 -0.22979576847E+03 -0.32397397182E+02 -0.22265765424E+03  0.36471374740E+03  0.17200000000E+03 0.  1.
         -6    1    1    2    0  503  0.22979576847E+03  0.32397397182E+02 -0.72782661372E+03  0.78305253093E+03  0.17200000000E+03 0. -1.
<mgrwt>
<rscale>  2 0.28885929E+03</rscale>
<asrwt>0</asrwt>
<pdfrwt beam="1">  1       21 0.24660251E-01 0.28885929E+03</pdfrwt>
<pdfrwt beam="2">  1       21 0.26228132E+00 0.28885929E+03</pdfrwt>
<totfact> 0.79213623E+02</totfact>
</mgrwt>
</event>
<event>
 4    1  0.1119790E+000  0.1760819E+03  0.7546771E-02  0.1171650E+00
         21   -1    0    0  503  502  0.00000000000E+00  0.00000000000E+00  0.41546523850E+03  0.41546523850E+03  0.00000000000E+00 0. -1.
         21   -1    0    0  501  503 -0.00000000000E+00 -0.00000000000E+00 -0.88525677280E+02  0.88525677280E+02  0.00000000000E+00 0. -1.
          6    1    1    2  501    0 -0.64825280109E+01 -0.37132261479E+02  0.63619694853E+02  0.18722257766E+03  0.17200000000E+03 0. -1.
         -6    1    1    2    0  502  0.64825280109E+01  0.37132261479E+02  0.26331986637E+03  0.31676833812E+03  0.17200000000E+03 0. -1.
<mgrwt>
<rscale>  2 0.17608188E+03</rscale>
<asrwt>0</asrwt>
<pdfrwt beam="1">  1       21 0.10386630E+00 0.17608188E+03</pdfrwt>
<pdfrwt beam="2">  1       21 0.22131420E-01 0.17608188E+03</pdfrwt>
<totfact> 0.14473657E+04</totfact>
</mgrwt>
</event>
<event>
 4    1  0.1119790E+000  0.2667302E+03  0.7546771E-02  0.1103166E+00
         21   -1    0    0  503  502  0.00000000000E+00  0.00000000000E+00  0.78425630542E+03  0.78425630542E+03  0.00000000000E+00 0. -1.
         21   -1    0    0  501  503 -0.00000000000E+00 -0.00000000000E+00 -0.98521777120E+02  0.98521777120E+02  0.00000000000E+00 0.  1.
          6    1    1    2  501    0  0.42374733232E+02 -0.19941255558E+03  0.21863063629E+03  0.34488308231E+03  0.17200000000E+03 0.  1.
         -6    1    1    2    0  502 -0.42374733232E+02  0.19941255558E+03  0.46710389201E+03  0.53789500022E+03  0.17200000000E+03 0. -1.
<mgrwt>
<rscale>  2 0.26673017E+03</rscale>
<asrwt>0</asrwt>
<pdfrwt beam="1">  1       21 0.19606406E+00 0.26673017E+03</pdfrwt>
<pdfrwt beam="2">  1       21 0.24630447E-01 0.26673017E+03</pdfrwt>
<totfact> 0.20779859E+03</totfact>
</mgrwt>
</event>
