<event>
 4    1  0.3761914E-001  0.1805915E+03  0.7546771E-02  0.1167232E+00
         -1   -1    0    0    0  501 -0.00000000000E+00  0.00000000000E+00  0.16140609681E+03  0.16140609681E+03  0.00000000000E+00 0. -1.
          1   -1    0    0  502    0  0.00000000000E+00 -0.00000000000E+00 -0.29936011378E+03  0.29936011378E+03  0.00000000000E+00 0.  1.
          6    1    1    2  502    0  0.19930852841E+01 -0.55002870510E+02  0.62368809275E+02  0.19105799257E+03  0.17200000000E+03 0. -1.
         -6    1    1    2    0  501 -0.19930852841E+01  0.55002870510E+02 -0.20032282625E+03  0.26970821802E+03  0.17200000000E+03 0.  1.
<mgrwt>
<rscale>  2 0.18059150E+03</rscale>
<asrwt>0</asrwt>
<pdfrwt beam="1">  1        1 0.74840028E-01 0.18059150E+03</pdfrwt>
<pdfrwt beam="2">  1       -1 0.40351525E-01 0.18059150E+03</pdfrwt>
<totfact> 0.28987401E+02</totfact>
</mgrwt>
</event>
<event>
 4    1  0.3761914E-001  0.2010501E+03  0.7546771E-02  0.1148856E+00
         -1   -1    0    0    0  501 -0.00000000000E+00  0.00000000000E+00  0.31600774622E+03  0.31600774622E+03  0.00000000000E+00 0. -1.
          1   -1    0    0  502    0  0.00000000000E+00 -0.00000000000E+00 -0.20567927432E+03  0.20567927432E+03  0.00000000000E+00 0.  1.
          6    1    1    2  502    0  0.98038189645E+02 -0.35009339249E+02  0.21555656121E+03  0.29476392511E+03  0.17200000000E+03 0. -1.
         -6    1    1    2    0  501 -0.98038189645E+02  0.35009339249E+02 -0.10522808931E+03  0.22692309544E+03  0.17200000000E+03 0.  1.
<mgrwt>
<rscale>  2 0.20105009E+03</rscale>
<asrwt>0</asrwt>
<pdfrwt beam="1">  1        1 0.51419819E-01 0.20105009E+03</pdfrwt>
<pdfrwt beam="2">  1       -1 0.79001936E-01 0.20105009E+03</pdfrwt>
<totfact> 0.13060181E+02</totfact>
</mgrwt>
</event>
<event>
 4    1  0.3761914E-001  0.1980503E+03  0.7546771E-02  0.1151395E+00
          2   -1    0    0  502    0  0.00000000000E+00  0.00000000000E+00  0.62634136732E+03  0.62634136732E+03  0.00000000000E+00 0. -1.
         -2   -1    0    0    0  501 -0.00000000000E+00 -0.00000000000E+00 -0.62943007719E+02  0.62943007719E+02  0.00000000000E+00 0.  1.
          6    1    1    2  502    0 -0.44510570261E+02 -0.87514071290E+02  0.25715762710E+03  0.32458273015E+03  0.17200000000E+03 0. -1.
         -6    1    1    2    0  501  0.44510570261E+02  0.87514071290E+02  0.30624073251E+03  0.36470164489E+03  0.17200000000E+03 0. -1.
<mgrwt>
<rscale>  2 0.19805026E+03</rscale>
<asrwt>0</asrwt>
<pdfrwt beam="1">  1        2 0.15658532E+00 0.19805026E+03</pdfrwt>
<pdfrwt beam="2">  1       -2 0.15735754E-01 0.19805026E+03</pdfrwt>
<totfact> 0.81458352E+02</totfact>
</mgrwt>
</event>
<event>
 4    1  0.3761914E-001  0.2012826E+03  0.7546771E-02  0.1148661E+00
         -1   -1    0    0    0  501 -0.00000000000E+00  0.00000000000E+00  0.21961216380E+03  0.21961216380E+03  0.00000000000E+00 0.  1.
          1   -1    0    0  502    0  0.00000000000E+00 -0.00000000000E+00 -0.46649061209E+03  0.46649061209E+03  0.00000000000E+00 0. -1.
          6    1    1    2  502    0  0.23938511677E+02 -0.10177252996E+03 -0.39016696065E+03  0.43902728546E+03  0.17200000000E+03 0. -1.
         -6    1    1    2    0  501 -0.23938511677E+02  0.10177252996E+03  0.14328851236E+03  0.24707549043E+03  0.17200000000E+03 0.  1.
<mgrwt>
<rscale>  2 0.20128264E+03</rscale>
<asrwt>0</asrwt>
<pdfrwt beam="1">  1        1 0.11662265E+00 0.20128264E+03</pdfrwt>
<pdfrwt beam="2">  1       -1 0.54903041E-01 0.20128264E+03</pdfrwt>
<totfact> 0.88962702E+01</totfact>
</mgrwt>
</event>
<event>
 4    1  0.3761914E-001  0.1974290E+03  0.7546771E-02  0.1151927E+00
          2   -1    0    0  502    0  0.00000000000E+00  0.00000000000E+00  0.84284273757E+03  0.84284273757E+03  0.00000000000E+00 0.  1.
         -2   -1    0    0    0  501 -0.00000000000E+00 -0.00000000000E+00 -0.49971903180E+02  0.49971903180E+02  0.00000000000E+00 0. -1.
          6    1    1    2  502    0  0.79373380588E+02  0.55624267421E+02  0.51832823024E+03  0.55465516038E+03  0.17200000000E+03 0.  1.
         -6    1    1    2    0  501 -0.79373380588E+02 -0.55624267421E+02  0.27454260416E+03  0.33815948038E+03  0.17200000000E+03 0.  1.
<mgrwt>
<rscale>  2 0.19742896E+03</rscale>
<asrwt>0</asrwt>
<pdfrwt beam="1">  1        2 0.21071064E+00 0.19742896E+03</pdfrwt>
<pdfrwt beam="2">  1       -2 0.12492979E-01 0.19742896E+03</pdfrwt>
<totfact> 0.75124549E+02</totfact>
</mgrwt>
</event>
<event>
 4    1  0.3761914E-001  0.2089512E+03  0.7546771E-02  0.1142399E+00
          2   -1    0    0  502    0  0.00000000000E+00  0.00000000000E+00  0.20327543669E+04  0.20327543669E+04  0.00000000000E+00 0.  1.
         -2   -1    0    0    0  501 -0.00000000000E+00 -0.00000000000E+00 -0.31691788651E+02  0.31691788651E+02  0.00000000000E+00 0. -1.
          6    1    1    2  502    0  0.90367177674E+02  0.76879035961E+02  0.41455240829E+03  0.46423519060E+03  0.17200000000E+03 0. -1.
         -6    1    1    2    0  501 -0.90367177674E+02 -0.76879035961E+02  0.15865101700E+04  0.16002109650E+04  0.17200000000E+03 0.  1.
<mgrwt>
<rscale>  2 0.20895122E+03</rscale>
<asrwt>0</asrwt>
<pdfrwt beam="1">  1        2 0.50818815E+00 0.20895122E+03</pdfrwt>
<pdfrwt beam="2">  1       -2 0.79229540E-02 0.20895122E+03</pdfrwt>
<totfact> 0.13414998E+02</totfact>
</mgrwt>
</event>
<event>
 4    1  0.3761914E-001  0.2807652E+03  0.7546771E-02  0.1095272E+00
          1   -1    0    0  502    0  0.00000000000E+00  0.00000000000E+00  0.62103095840E+03  0.62103095840E+03  0.00000000000E+00 0.  1.
         -1   -1    0    0    0  501 -0.00000000000E+00 -0.00000000000E+00 -0.12739814346E+03  0.12739814346E+03  0.00000000000E+00 0. -1.
          6    1    1    2  502    0  0.18408797802E+03  0.12392223675E+03  0.22419620091E+03  0.35929520024E+03  0.17200000000E+03 0.  1.
         -6    1    1    2    0  501 -0.18408797802E+03 -0.12392223675E+03  0.26943661404E+03  0.38913390163E+03  0.17200000000E+03 0.  1.
<mgrwt>
<rscale>  2 0.28076521E+03</rscale>
<asrwt>0</asrwt>
<pdfrwt beam="1">  1        1 0.15525773E+00 0.28076521E+03</pdfrwt>
<pdfrwt beam="2">  1       -1 0.31849538E-01 0.28076521E+03</pdfrwt>
<totfact> 0.14642528E+02</totfact>
</mgrwt>
</event>
<event>
 4    1  0.3761914E-001  0.1828899E+03  0.7546771E-02  0.1165035E+00
          1   -1    0    0  502    0  0.00000000000E+00  0.00000000000E+00  0.34643864007E+03  0.34643864007E+03  0.00000000000E+00 0.  1.
         -1   -1    0    0    0  501 -0.00000000000E+00 -0.00000000000E+00 -0.98183441930E+02  0.98183441930E+02  0.00000000000E+00 0. -1.
          6    1    1    2  502    0 -0.11450861302E+00  0.62166708290E+02  0.95454809285E+02  0.20630155925E+03  0.17200000000E+03 0.  1.
         -6    1    1    2    0  501  0.11450861302E+00 -0.62166708290E+02  0.15280038886E+03  0.23832052276E+03  0.17200000000E+03 0. -1.
<mgrwt>
<rscale>  2 0.18288989E+03</rscale>
<asrwt>0</asrwt>
<pdfrwt beam="1">  1        1 0.86609657E-01 0.18288989E+03</pdfrwt>
<pdfrwt beam="2">  1       -1 0.24545861E-01 0.18288989E+03</pdfrwt>
<totfact> 0.55690016E+02</totfact>
</mgrwt>
</event>
<event>
 4    1  0.3761914E-001  0.2379251E+03  0.7546771E-02  0.1121183E+00
         -2   -1    0    0    0  501 -0.00000000000E+00  0.00000000000E+00  0.48095160992E+02  0.48095160992E+02  0.00000000000E+00 0.  1.
          2   -1    0    0  502    0  0.00000000000E+00 -0.00000000000E+00 -0.11931983762E+04  0.11931983762E+04  0.00000000000E+00 0. -1.
          6    1    1    2  502    0 -0.16039224301E+03  0.36037326104E+02 -0.50025387775E+03  0.55395153461E+03  0.17200000000E+03 0.  1.
         -6    1    1    2    0  501  0.16039224301E+03 -0.36037326104E+02 -0.64484933741E+03  0.68734200253E+03  0.17200000000E+03 0. -1.
<mgrwt>
<rscale>  2 0.23792512E+03</rscale>
<asrwt>0</asrwt>
<pdfrwt beam="1">  1        2 0.29829960E+00 0.23792512E+03</pdfrwt>
<pdfrwt beam="2">  1       -2 0.12023790E-01 0.23792512E+03</pdfrwt>
<totfact> 0.39802725E+02</totfact>
</mgrwt>
</event>
<event>
 4    1  0.3761914E-001  0.2721612E+03  0.7546771E-02  0.1100049E+00
         -2   -1    0    0    0  501 -0.00000000000E+00  0.00000000000E+00  0.84908677786E+02  0.84908677786E+02  0.00000000000E+00 0. -1.
          2   -1    0    0  502    0  0.00000000000E+00 -0.00000000000E+00 -0.10217931767E+04  0.10217931767E+04  0.00000000000E+00 0.  1.
          6    1    1    2  502    0 -0.10026571021E+03 -0.18556537867E+03 -0.25683567017E+03  0.37421422190E+03  0.17200000000E+03 0.  1.
         -6    1    1    2    0  501  0.10026571021E+03  0.18556537867E+03 -0.68004882873E+03  0.73248763257E+03  0.17200000000E+03 0.  1.
<mgrwt>
<rscale>  2 0.27216121E+03</rscale>
<asrwt>0</asrwt>
<pdfrwt beam="1">  1        2 0.25544829E+00 0.27216121E+03</pdfrwt>
<pdfrwt beam="2">  1       -2 0.21227170E-01 0.27216121E+03</pdfrwt>
<totfact> 0.21407016E+02</totfact>
</mgrwt>
</event>
<event>
 4    1  0.3761914E-001  0.2377405E+03  0.7546771E-02  0.1121307E+00
          2   -1    0    0  502    0  0.00000000000E+00  0.00000000000E+00  0.18893749817E+03  0.18893749817E+03  0.00000000000E+00 0. -1.
         -2   -1    0    0    0  501 -0.00000000000E+00 -0.00000000000E+00 -0.36997122717E+03  0.36997122717E+03  0.00000000000E+00 0.  1.
          6    1    1    2  502    0  0.16395490936E+03 -0.74373166850E+01 -0.21278427017E+03  0.31905747384E+03  0.17200000000E+03 0. -1.
         -6    1    1    2    0  501 -0.16395490936E+03  0.74373166850E+01  0.31750541173E+02  0.23985125150E+03  0.17200000000E+03 0. -1.
<mgrwt>
<rscale>  2 0.23774046E+03</rscale>
<asrwt>0</asrwt>
<pdfrwt beam="1">  1        2 0.47234375E-01 0.23774046E+03</pdfrwt>
<pdfrwt beam="2">  1       -2 0.92492806E-01 0.23774046E+03</pdfrwt>
<totfact> 0.11085059E+02</totfact>
</mgrwt>
</event>
<event>
 4    1  0.3761914E-001  0.2303915E+03  0.7546771E-02  0.1126365E+00
          2   -1    0    0  502    0  0.00000000000E+00  0.00000000000E+00  0.10735623086E+04  0.10735623086E+04  0.00000000000E+00 0. -1.
         -2   -1    0    0    0  501 -0.00000000000E+00 -0.00000000000E+00 -0.53776268131E+02  0.53776268131E+02  0.00000000000E+00 0.  1.
          6    1    1    2  502    0 -0.23273097940E+02 -0.15150778706E+03  0.34988862817E+03  0.41892994492E+03  0.17200000000E+03 0. -1.
         -6    1    1    2    0  501  0.23273097940E+02  0.15150778706E+03  0.66989741235E+03  0.70840863186E+03  0.17200000000E+03 0. -1.
<mgrwt>
<rscale>  2 0.23039151E+03</rscale>
<asrwt>0</asrwt>
<pdfrwt beam="1">  1        2 0.26839051E+00 0.23039151E+03</pdfrwt>
<pdfrwt beam="2">  1       -2 0.13444071E-01 0.23039151E+03</pdfrwt>
<totfact> 0.42008893E+02</totfact>
</mgrwt>
</event>
<event>
 4    1  0.3761914E-001  0.2310051E+03  0.7546771E-02  0.1125934E+00
         -2   -1    0    0    0  501 -0.00000000000E+00  0.00000000000E+00  0.87281861762E+02  0.87281861762E+02  0.00000000000E+00 0. -1.
          2   -1    0    0  502    0  0.00000000000E+00 -0.00000000000E+00 -0.64084736777E+03  0.64084736777E+03  0.00000000000E+00 0.  1.
          6    1    1    2  502    0  0.12619212014E+03  0.88627903708E+02 -0.35483578376E+03  0.42340499518E+03  0.17200000000E+03 0.  1.
         -6    1    1    2    0  501 -0.12619212014E+03 -0.88627903708E+02 -0.19872972225E+03  0.30472423436E+03  0.17200000000E+03 0. -1.
<mgrwt>
<rscale>  2 0.23100510E+03</rscale>
<asrwt>0</asrwt>
<pdfrwt beam="1">  1        2 0.16021184E+00 0.23100510E+03</pdfrwt>
<pdfrwt beam="2">  1       -2 0.21820466E-01 0.23100510E+03</pdfrwt>
<totfact> 0.45202768E+02</totfact>
</mgrwt>
</event>
<event>
 4    1  0.3761914E-001  0.1814521E+03  0.7546771E-02  0.1166405E+00
         -1   -1    0    0    0  501 -0.00000000000E+00  0.00000000000E+00  0.17795921185E+02  0.17795921185E+02  0.00000000000E+00 0. -1.
          1   -1    0    0  502    0  0.00000000000E+00 -0.00000000000E+00 -0.27883421791E+04  0.27883421791E+04  0.00000000000E+00 0.  1.
          6    1    1    2  502    0 -0.21888422367E+02  0.53495572002E+02 -0.21991432265E+04  0.22066163713E+04  0.17200000000E+03 0.  1.
         -6    1    1    2    0  501  0.21888422367E+02 -0.53495572002E+02 -0.57140303134E+03  0.59952172895E+03  0.17200000000E+03 0. -1.
<mgrwt>
<rscale>  2 0.18145214E+03</rscale>
<asrwt>0</asrwt>
<pdfrwt beam="1">  1        1 0.69708541E+00 0.18145214E+03</pdfrwt>
<pdfrwt beam="2">  1       -1 0.44489812E-02 0.18145214E+03</pdfrwt>
<totfact> 0.91513650E+00</totfact>
</mgrwt>
</event>
<event>
 4    1  0.3761914E-001  0.2517184E+03  0.7546771E-02  0.1112224E+00
          2   -1    0    0  502    0  0.00000000000E+00  0.00000000000E+00  0.41582056443E+03  0.41582056443E+03  0.00000000000E+00 0. -1.
         -2   -1    0    0    0  501 -0.00000000000E+00 -0.00000000000E+00 -0.15238241535E+03  0.15238241535E+03  0.00000000000E+00 0.  1.
          6    1    1    2  502    0 -0.11919661423E+03  0.13989398680E+03  0.13313845155E+03  0.28475956116E+03  0.17200000000E+03 0. -1.
         -6    1    1    2    0  501  0.11919661423E+03 -0.13989398680E+03  0.13029969752E+03  0.28344341862E+03  0.17200000000E+03 0.  1.
<mgrwt>
<rscale>  2 0.25171841E+03</rscale>
<asrwt>0</asrwt>
<pdfrwt beam="1">  1        2 0.10395514E+00 0.25171841E+03</pdfrwt>
<pdfrwt beam="2">  1       -2 0.38095605E-01 0.25171841E+03</pdfrwt>
<totfact> 0.28936176E+02</totfact>
</mgrwt>
</event>
<event>
 4    1  0.3761914E-001  0.2871402E+03  0.7546771E-02  0.1091852E+00
          2   -1    0    0  502    0  0.00000000000E+00  0.00000000000E+00  0.13638835501E+04  0.13638835501E+04  0.00000000000E+00 0. -1.
         -2   -1    0    0    0  501 -0.00000000000E+00 -0.00000000000E+00 -0.98382995689E+02  0.98382995689E+02  0.00000000000E+00 0.  1.
          6    1    1    2  502    0 -0.15182791149E+03  0.17266669457E+03  0.10867270060E+04  0.11240218359E+04  0.17200000000E+03 0. -1.
         -6    1    1    2    0  501  0.15182791149E+03 -0.17266669457E+03  0.17877354842E+03  0.33824470984E+03  0.17200000000E+03 0.  1.
<mgrwt>
<rscale>  2 0.28714021E+03</rscale>
<asrwt>0</asrwt>
<pdfrwt beam="1">  1        2 0.34097083E+00 0.28714021E+03</pdfrwt>
<pdfrwt beam="2">  1       -2 0.24595753E-01 0.28714021E+03</pdfrwt>
<totfact> 0.83828860E+01</totfact>
</mgrwt>
</event>
<event>
 4    1  0.3761914E-001  0.2102024E+03  0.7546771E-02  0.1141406E+00
          2   -1    0    0  502    0  0.00000000000E+00  0.00000000000E+00  0.16841811064E+03  0.16841811064E+03  0.00000000000E+00 0. -1.
         -2   -1    0    0    0  501 -0.00000000000E+00 -0.00000000000E+00 -0.34841065453E+03  0.34841065453E+03  0.00000000000E+00 0.  1.
          6    1    1    2  502    0 -0.70502146877E+02 -0.98135063523E+02  0.38433295249E+02  0.21368706463E+03  0.17200000000E+03 0. -1.
         -6    1    1    2    0  501  0.70502146877E+02  0.98135063523E+02 -0.21842583914E+03  0.30314170054E+03  0.17200000000E+03 0.  1.
<mgrwt>
<rscale>  2 0.21020239E+03</rscale>
<asrwt>0</asrwt>
<pdfrwt beam="1">  1        2 0.42104528E-01 0.21020239E+03</pdfrwt>
<pdfrwt beam="2">  1       -2 0.87102663E-01 0.21020239E+03</pdfrwt>
<totfact> 0.14410115E+02</totfact>
</mgrwt>
</event>
<event>
 4    1  0.3761914E-001  0.2031126E+03  0.7546771E-02  0.1147139E+00
          1   -1    0    0  502    0  0.00000000000E+00  0.00000000000E+00  0.22828444233E+03  0.22828444233E+03  0.00000000000E+00 0. -1.
         -1   -1    0    0    0  501 -0.00000000000E+00 -0.00000000000E+00 -0.18310448884E+03  0.18310448884E+03  0.00000000000E+00 0.  1.
          6    1    1    2  502    0 -0.94722687332E+02 -0.51945472899E+02 -0.90134692848E+00  0.20311457869E+03  0.17200000000E+03 0.  1.
         -6    1    1    2    0  501  0.94722687332E+02  0.51945472899E+02  0.46081300418E+02  0.20827435247E+03  0.17200000000E+03 0. -1.
<mgrwt>
<rscale>  2 0.20311258E+03</rscale>
<asrwt>0</asrwt>
<pdfrwt beam="1">  1        1 0.57071110E-01 0.20311258E+03</pdfrwt>
<pdfrwt beam="2">  1       -1 0.45776122E-01 0.20311258E+03</pdfrwt>
<totfact> 0.32700678E+02</totfact>
</mgrwt>
</event>
<event>
 4    1  0.3761914E-001  0.2494883E+03  0.7546771E-02  0.1113629E+00
          2   -1    0    0  502    0  0.00000000000E+00  0.00000000000E+00  0.14011068335E+04  0.14011068335E+04  0.00000000000E+00 0.  1.
         -2   -1    0    0    0  501 -0.00000000000E+00 -0.00000000000E+00 -0.45658878449E+02  0.45658878449E+02  0.00000000000E+00 0. -1.
          6    1    1    2  502    0 -0.15419799543E+03  0.94251660361E+02  0.79663260555E+03  0.83478614358E+03  0.17200000000E+03 0.  1.
         -6    1    1    2    0  501  0.15419799543E+03 -0.94251660361E+02  0.55881534951E+03  0.61197956839E+03  0.17200000000E+03 0. -1.
<mgrwt>
<rscale>  2 0.24948827E+03</rscale>
<asrwt>0</asrwt>
<pdfrwt beam="1">  1        2 0.35027657E+00 0.24948827E+03</pdfrwt>
<pdfrwt beam="2">  1       -2 0.11414724E-01 0.24948827E+03</pdfrwt>
<totfact> 0.28641327E+02</totfact>
</mgrwt>
</event>
<event>
 4    1  0.3761914E-001  0.2518392E+03  0.7546771E-02  0.1112148E+00
          2   -1    0    0  502    0  0.00000000000E+00  0.00000000000E+00  0.10921532157E+04  0.10921532157E+04  0.00000000000E+00 0.  1.
         -2   -1    0    0    0  501 -0.00000000000E+00 -0.00000000000E+00 -0.58074326934E+02  0.58074326934E+02  0.00000000000E+00 0. -1.
          6    1    1    2  502    0 -0.78074964924E+02  0.16656317808E+03  0.51303794920E+03  0.57151634251E+03  0.17200000000E+03 0.  1.
         -6    1    1    2    0  501  0.78074964924E+02 -0.16656317808E+03  0.52104093956E+03  0.57871120011E+03  0.17200000000E+03 0. -1.
<mgrwt>
<rscale>  2 0.25183922E+03</rscale>
<asrwt>0</asrwt>
<pdfrwt beam="1">  1        2 0.27303824E+00 0.25183922E+03</pdfrwt>
<pdfrwt beam="2">  1       -2 0.14518585E-01 0.25183922E+03</pdfrwt>
<totfact> 0.35549375E+02</totfact>
</mgrwt>
</event>
<event>
 4    1  0.3761914E-001  0.1760208E+03  0.7546771E-02  0.1171711E+00
         -1   -1    0    0    0  501 -0.00000000000E+00  0.00000000000E+00  0.18069313446E+02  0.18069313446E+02  0.00000000000E+00 0. -1.
          1   -1    0    0  502    0  0.00000000000E+00 -0.00000000000E+00 -0.19141679863E+04  0.19141679863E+04  0.00000000000E+00 0.  1.
          6    1    1    2  502    0 -0.37402141228E+02 -0.64083076956E+00 -0.63617163194E+03  0.66007399291E+03  0.17200000000E+03 0.  1.
         -6    1    1    2    0  501  0.37402141228E+02  0.64083076956E+00 -0.12599270409E+04  0.12721633068E+04  0.17200000000E+03 0.  1.
<mgrwt>
<rscale>  2 0.17602082E+03</rscale>
<asrwt>0</asrwt>
<pdfrwt beam="1">  1        1 0.47854200E+00 0.17602082E+03</pdfrwt>
<pdfrwt beam="2">  1       -1 0.45173283E-02 0.17602082E+03</pdfrwt>
<totfact> 0.12829411E+02</totfact>
</mgrwt>
</event>
<event>
 4    1  0.3761914E-001  0.2257463E+03  0.7546771E-02  0.1129670E+00
          2   -1    0    0  502    0  0.00000000000E+00  0.00000000000E+00  0.14452688096E+03  0.14452688096E+03  0.00000000000E+00 0.  1.
         -2   -1    0    0    0  501 -0.00000000000E+00 -0.00000000000E+00 -0.35567094090E+03  0.35567094090E+03  0.00000000000E+00 0. -1.
          6    1    1    2  502    0 -0.14607521356E+03 -0.62787902179E+01 -0.82364492434E+02  0.24030251942E+03  0.17200000000E+03 0. -1.
         -6    1    1    2    0  501  0.14607521356E+03  0.62787902179E+01 -0.12877956750E+03  0.25989530244E+03  0.17200000000E+03 0.  1.
<mgrwt>
<rscale>  2 0.22574630E+03</rscale>
<asrwt>0</asrwt>
<pdfrwt beam="1">  1        2 0.36131721E-01 0.22574630E+03</pdfrwt>
<pdfrwt beam="2">  1       -2 0.88917734E-01 0.22574630E+03</pdfrwt>
<totfact> 0.16208514E+02</totfact>
</mgrwt>
</event>
<event>
 4    1  0.3761914E-001  0.1913635E+03  0.7546771E-02  0.1157237E+00
          1   -1    0    0  502    0  0.00000000000E+00  0.00000000000E+00  0.61537140816E+03  0.61537140816E+03  0.00000000000E+00 0.  1.
         -1   -1    0    0    0  501 -0.00000000000E+00 -0.00000000000E+00 -0.91825952025E+02  0.91825952025E+02  0.00000000000E+00 0. -1.
          6    1    1    2  502    0 -0.83848486120E+02 -0.23301775456E+01  0.47154333147E+03  0.50889400842E+03  0.17200000000E+03 0.  1.
         -6    1    1    2    0  501  0.83848486120E+02  0.23301775456E+01  0.52002124667E+02  0.19830335177E+03  0.17200000000E+03 0. -1.
<mgrwt>
<rscale>  2 0.19136352E+03</rscale>
<asrwt>0</asrwt>
<pdfrwt beam="1">  1        1 0.15384284E+00 0.19136352E+03</pdfrwt>
<pdfrwt beam="2">  1       -1 0.22956490E-01 0.19136352E+03</pdfrwt>
<totfact> 0.26240298E+02</totfact>
</mgrwt>
</event>
<event>
 4    1  0.3761914E-001  0.2628330E+03  0.7546771E-02  0.1105453E+00
         -1   -1    0    0    0  501 -0.00000000000E+00  0.00000000000E+00  0.34750583463E+02  0.34750583463E+02  0.00000000000E+00 0. -1.
          1   -1    0    0  502    0  0.00000000000E+00 -0.00000000000E+00 -0.20668969553E+04  0.20668969553E+04  0.00000000000E+00 0.  1.
          6    1    1    2  502    0 -0.19427027733E+03  0.41907588368E+02 -0.12214899858E+04  0.12494474667E+04  0.17200000000E+03 0.  1.
         -6    1    1    2    0  501  0.19427027733E+03 -0.41907588368E+02 -0.81065638610E+03  0.85220007214E+03  0.17200000000E+03 0. -1.
<mgrwt>
<rscale>  2 0.26283300E+03</rscale>
<asrwt>0</asrwt>
<pdfrwt beam="1">  1        1 0.51672416E+00 0.26283300E+03</pdfrwt>
<pdfrwt beam="2">  1       -1 0.86876472E-02 0.26283300E+03</pdfrwt>
<totfact> 0.30478793E+01</totfact>
</mgrwt>
</event>
<event>
 4    1  0.3761914E-001  0.2088137E+03  0.7546771E-02  0.1142509E+00
          2   -1    0    0  502    0  0.00000000000E+00  0.00000000000E+00  0.11565834760E+04  0.11565834760E+04  0.00000000000E+00 0. -1.
         -2   -1    0    0    0  501 -0.00000000000E+00 -0.00000000000E+00 -0.37705656794E+02  0.37705656794E+02  0.00000000000E+00 0.  1.
          6    1    1    2  502    0 -0.55921772769E+02  0.10436431715E+03  0.55210154076E+03  0.59027050297E+03  0.17200000000E+03 0.  1.
         -6    1    1    2    0  501  0.55921772769E+02 -0.10436431715E+03  0.56677627840E+03  0.60401862978E+03  0.17200000000E+03 0. -1.
<mgrwt>
<rscale>  2 0.20881369E+03</rscale>
<asrwt>0</asrwt>
<pdfrwt beam="1">  1        2 0.28914575E+00 0.20881369E+03</pdfrwt>
<pdfrwt beam="2">  1       -2 0.94264180E-02 0.20881369E+03</pdfrwt>
<totfact> 0.63444857E+02</totfact>
</mgrwt>
</event>
<event>
 4    1  0.3761914E-001  0.1774473E+03  0.7546771E-02  0.1170297E+00
          1   -1    0    0  502    0  0.00000000000E+00  0.00000000000E+00  0.88629510296E+03  0.88629510296E+03  0.00000000000E+00 0.  1.
         -1   -1    0    0    0  501 -0.00000000000E+00 -0.00000000000E+00 -0.36053430799E+02  0.36053430799E+02  0.00000000000E+00 0. -1.
          6    1    1    2  502    0 -0.43404875157E+02  0.44236192950E+01  0.36940294149E+03  0.40981225553E+03  0.17200000000E+03 0. -1.
         -6    1    1    2    0  501  0.43404875157E+02 -0.44236192950E+01  0.48083873067E+03  0.51253627823E+03  0.17200000000E+03 0.  1.
<mgrwt>
<rscale>  2 0.17744732E+03</rscale>
<asrwt>0</asrwt>
<pdfrwt beam="1">  1        1 0.22157370E+00 0.17744732E+03</pdfrwt>
<pdfrwt beam="2">  1       -1 0.90133606E-02 0.17744732E+03</pdfrwt>
<totfact> 0.56990500E+02</totfact>
</mgrwt>
</event>
<event>
 4    1  0.3761914E-001  0.2285928E+03  0.7546771E-02  0.1127634E+00
         -2   -1    0    0    0  501 -0.00000000000E+00  0.00000000000E+00  0.81827820628E+02  0.81827820628E+02  0.00000000000E+00 0.  1.
          2   -1    0    0  502    0  0.00000000000E+00 -0.00000000000E+00 -0.65896641553E+03  0.65896641553E+03  0.00000000000E+00 0. -1.
          6    1    1    2  502    0 -0.71338622145E+02 -0.13259508534E+03 -0.35369766572E+03  0.42113738186E+03  0.17200000000E+03 0.  1.
         -6    1    1    2    0  501  0.71338622145E+02  0.13259508534E+03 -0.22344092918E+03  0.31965685430E+03  0.17200000000E+03 0. -1.
<mgrwt>
<rscale>  2 0.22859277E+03</rscale>
<asrwt>0</asrwt>
<pdfrwt beam="1">  1        2 0.16474160E+00 0.22859277E+03</pdfrwt>
<pdfrwt beam="2">  1       -2 0.20456955E-01 0.22859277E+03</pdfrwt>
<totfact> 0.48535409E+02</totfact>
</mgrwt>
</event>
<event>
 4    1  0.3761914E-001  0.1989366E+03  0.7546771E-02  0.1150639E+00
         -1   -1    0    0    0  501 -0.00000000000E+00  0.00000000000E+00  0.49082172666E+02  0.49082172666E+02  0.00000000000E+00 0.  1.
          1   -1    0    0  502    0  0.00000000000E+00 -0.00000000000E+00 -0.80910554386E+03  0.80910554386E+03  0.00000000000E+00 0. -1.
          6    1    1    2  502    0 -0.55149949991E+02  0.83368301664E+02 -0.40520223702E+03  0.45140297251E+03  0.17200000000E+03 0. -1.
         -6    1    1    2    0  501  0.55149949991E+02 -0.83368301664E+02 -0.35482113417E+03  0.40678474401E+03  0.17200000000E+03 0.  1.
<mgrwt>
<rscale>  2 0.19893665E+03</rscale>
<asrwt>0</asrwt>
<pdfrwt beam="1">  1        1 0.20227638E+00 0.19893665E+03</pdfrwt>
<pdfrwt beam="2">  1       -1 0.12270543E-01 0.19893665E+03</pdfrwt>
<totfact> 0.42778953E+02</totfact>
</mgrwt>
</event>
<event>
 4    1  0.3761914E-001  0.1726603E+03  0.7546771E-02  0.1175102E+00
          2   -1    0    0  502    0  0.00000000000E+00  0.00000000000E+00  0.68338296035E+03  0.68338296035E+03  0.00000000000E+00 0.  1.
         -2   -1    0    0    0  501 -0.00000000000E+00 -0.00000000000E+00 -0.46075600097E+02  0.46075600097E+02  0.00000000000E+00 0. -1.
          6    1    1    2  502    0 -0.72234105228E+01 -0.13244154872E+02  0.23451406829E+03  0.29121887563E+03  0.17200000000E+03 0.  1.
         -6    1    1    2    0  501  0.72234105228E+01  0.13244154872E+02  0.40279329196E+03  0.43823968482E+03  0.17200000000E+03 0.  1.
<mgrwt>
<rscale>  2 0.17266032E+03</rscale>
<asrwt>0</asrwt>
<pdfrwt beam="1">  1        2 0.17084571E+00 0.17266032E+03</pdfrwt>
<pdfrwt beam="2">  1       -2 0.11518902E-01 0.17266032E+03</pdfrwt>
<totfact> 0.11947677E+03</totfact>
</mgrwt>
</event>
<event>
 4    1  0.3761914E-001  0.2017317E+03  0.7546771E-02  0.1148286E+00
          1   -1    0    0  502    0  0.00000000000E+00  0.00000000000E+00  0.91562094971E+03  0.91562094971E+03  0.00000000000E+00 0. -1.
         -1   -1    0    0    0  501 -0.00000000000E+00 -0.00000000000E+00 -0.86872319005E+02  0.86872319005E+02  0.00000000000E+00 0.  1.
          6    1    1    2  502    0 -0.10412882337E+03  0.16396746104E+02  0.64083644945E+02  0.21166572393E+03  0.17200000000E+03 0.  1.
         -6    1    1    2    0  501  0.10412882337E+03 -0.16396746104E+02  0.76466498576E+03  0.79082754479E+03  0.17200000000E+03 0. -1.
<mgrwt>
<rscale>  2 0.20173167E+03</rscale>
<asrwt>0</asrwt>
<pdfrwt beam="1">  1        1 0.22890521E+00 0.20173167E+03</pdfrwt>
<pdfrwt beam="2">  1       -1 0.21718083E-01 0.20173167E+03</pdfrwt>
<totfact> 0.13193125E+02</totfact>
</mgrwt>
</event>
<event>
 4    1  0.3761914E-001  0.1998803E+03  0.7546771E-02  0.1149840E+00
          3   -1    0    0  502    0  0.00000000000E+00  0.00000000000E+00  0.11556328873E+03  0.11556328873E+03  0.00000000000E+00 0.  1.
         -3   -1    0    0    0  501 -0.00000000000E+00 -0.00000000000E+00 -0.41302460549E+03  0.41302460549E+03  0.00000000000E+00 0. -1.
          6    1    1    2  502    0  0.10045978024E+03 -0.16611894636E+02 -0.25542301474E+03  0.32433476370E+03  0.17200000000E+03 0.  1.
         -6    1    1    2    0  501 -0.10045978024E+03  0.16611894636E+02 -0.42038302019E+02  0.20425313052E+03  0.17200000000E+03 0.  1.
<mgrwt>
<rscale>  2 0.19988027E+03</rscale>
<asrwt>0</asrwt>
<pdfrwt beam="1">  1        3 0.28890823E-01 0.19988027E+03</pdfrwt>
<pdfrwt beam="2">  1       -3 0.10325615E+00 0.19988027E+03</pdfrwt>
<totfact> 0.23645803E+01</totfact>
</mgrwt>
</event>
<event>
 4    1  0.3761914E-001  0.3009620E+03  0.7546771E-02  0.1084761E+00
          1   -1    0    0  502    0  0.00000000000E+00  0.00000000000E+00  0.48274839043E+03  0.48274839043E+03  0.00000000000E+00 0. -1.
         -1   -1    0    0    0  501 -0.00000000000E+00 -0.00000000000E+00 -0.20877121661E+03  0.20877121661E+03  0.00000000000E+00 0.  1.
          6    1    1    2  502    0  0.22429916271E+03  0.10336350933E+03  0.26960607357E+02  0.30216717856E+03  0.17200000000E+03 0. -1.
         -6    1    1    2    0  501 -0.22429916271E+03 -0.10336350933E+03  0.24701656646E+03  0.38935242847E+03  0.17200000000E+03 0. -1.
<mgrwt>
<rscale>  2 0.30096201E+03</rscale>
<asrwt>0</asrwt>
<pdfrwt beam="1">  1        1 0.12068710E+00 0.30096201E+03</pdfrwt>
<pdfrwt beam="2">  1       -1 0.52192805E-01 0.30096201E+03</pdfrwt>
<totfact> 0.90734724E+01</totfact>
</mgrwt>
</event>
<event>
 4    1  0.3761914E-001  0.2715889E+03  0.7546771E-02  0.1100374E+00
         -2   -1    0    0    0  501 -0.00000000000E+00  0.00000000000E+00  0.22436180114E+03  0.22436180114E+03  0.00000000000E+00 0. -1.
          2   -1    0    0  502    0  0.00000000000E+00 -0.00000000000E+00 -0.45882261852E+03  0.45882261852E+03  0.00000000000E+00 0.  1.
          6    1    1    2  502    0 -0.14168152900E+03  0.15525106538E+03 -0.29910269796E+03  0.40400862972E+03  0.17200000000E+03 0.  1.
         -6    1    1    2    0  501  0.14168152900E+03 -0.15525106538E+03  0.64641880584E+02  0.27917578994E+03  0.17200000000E+03 0. -1.
<mgrwt>
<rscale>  2 0.27158893E+03</rscale>
<asrwt>0</asrwt>
<pdfrwt beam="1">  1        2 0.11470565E+00 0.27158893E+03</pdfrwt>
<pdfrwt beam="2">  1       -2 0.56090451E-01 0.27158893E+03</pdfrwt>
<totfact> 0.11934285E+02</totfact>
</mgrwt>
</event>
<event>
 4    1  0.3761914E-001  0.1777182E+03  0.7546771E-02  0.1170030E+00
         -2   -1    0    0    0  501 -0.00000000000E+00  0.00000000000E+00  0.94976029753E+02  0.94976029753E+02  0.00000000000E+00 0.  1.
          2   -1    0    0  502    0  0.00000000000E+00 -0.00000000000E+00 -0.33255755642E+03  0.33255755642E+03  0.00000000000E+00 0. -1.
          6    1    1    2  502    0 -0.24965389984E+02 -0.37101154327E+02 -0.12012476562E+03  0.21450810163E+03  0.17200000000E+03 0.  1.
         -6    1    1    2    0  501  0.24965389984E+02  0.37101154327E+02 -0.11745676105E+03  0.21302548454E+03  0.17200000000E+03 0. -1.
<mgrwt>
<rscale>  2 0.17771822E+03</rscale>
<asrwt>0</asrwt>
<pdfrwt beam="1">  1        2 0.83139388E-01 0.17771822E+03</pdfrwt>
<pdfrwt beam="2">  1       -2 0.23744008E-01 0.17771822E+03</pdfrwt>
<totfact> 0.88827429E+02</totfact>
</mgrwt>
</event>
<event>
 4    1  0.3761914E-001  0.1952444E+03  0.7546771E-02  0.1153814E+00
         -2   -1    0    0    0  501 -0.00000000000E+00  0.00000000000E+00  0.67786536841E+02  0.67786536841E+02  0.00000000000E+00 0. -1.
          2   -1    0    0  502    0  0.00000000000E+00 -0.00000000000E+00 -0.58612718007E+03  0.58612718007E+03  0.00000000000E+00 0.  1.
          6    1    1    2  502    0  0.75606388678E+01 -0.92082648625E+02 -0.19333008875E+03  0.27476699339E+03  0.17200000000E+03 0. -1.
         -6    1    1    2    0  501 -0.75606388678E+01  0.92082648625E+02 -0.32501055447E+03  0.37914672352E+03  0.17200000000E+03 0.  1.
<mgrwt>
<rscale>  2 0.19524440E+03</rscale>
<asrwt>0</asrwt>
<pdfrwt beam="1">  1        2 0.14653179E+00 0.19524440E+03</pdfrwt>
<pdfrwt beam="2">  1       -2 0.16946634E-01 0.19524440E+03</pdfrwt>
<totfact> 0.78960641E+02</totfact>
</mgrwt>
</event>
<event>
 4    1  0.3761914E-001  0.2023697E+03  0.7546771E-02  0.1147755E+00
          2   -1    0    0  502    0  0.00000000000E+00  0.00000000000E+00  0.11396235099E+04  0.11396235099E+04  0.00000000000E+00 0.  1.
         -2   -1    0    0    0  501 -0.00000000000E+00 -0.00000000000E+00 -0.36989736435E+02  0.36989736435E+02  0.00000000000E+00 0. -1.
          6    1    1    2  502    0  0.60168913632E+02  0.88029460245E+02  0.65061337601E+03  0.68135985285E+03  0.17200000000E+03 0.  1.
         -6    1    1    2    0  501 -0.60168913632E+02 -0.88029460245E+02  0.45202039746E+03  0.49525339348E+03  0.17200000000E+03 0.  1.
<mgrwt>
<rscale>  2 0.20236967E+03</rscale>
<asrwt>0</asrwt>
<pdfrwt beam="1">  1        2 0.28490576E+00 0.20236967E+03</pdfrwt>
<pdfrwt beam="2">  1       -2 0.92474379E-02 0.20236967E+03</pdfrwt>
<totfact> 0.67664443E+02</totfact>
</mgrwt>
</event>
<event>
 4    1  0.3761914E-001  0.1938090E+03  0.7546771E-02  0.1155070E+00
          2   -1    0    0  502    0  0.00000000000E+00  0.00000000000E+00  0.32303255739E+03  0.32303255739E+03  0.00000000000E+00 0. -1.
         -2   -1    0    0    0  501 -0.00000000000E+00 -0.00000000000E+00 -0.11660104948E+03  0.11660104948E+03  0.00000000000E+00 0.  1.
          6    1    1    2  502    0  0.23093991880E+02 -0.86282035160E+02  0.11476704818E+03  0.22524075430E+03  0.17200000000E+03 0.  1.
         -6    1    1    2    0  501 -0.23093991880E+02  0.86282035160E+02  0.91664459730E+02  0.21439285256E+03  0.17200000000E+03 0.  1.
<mgrwt>
<rscale>  2 0.19380898E+03</rscale>
<asrwt>0</asrwt>
<pdfrwt beam="1">  1        2 0.80758137E-01 0.19380898E+03</pdfrwt>
<pdfrwt beam="2">  1       -2 0.29150263E-01 0.19380898E+03</pdfrwt>
<totfact> 0.63817092E+02</totfact>
</mgrwt>
</event>
<event>
 4    1  0.3761914E-001  0.2471630E+03  0.7546771E-02  0.1115111E+00
         -1   -1    0    0    0  501 -0.00000000000E+00  0.00000000000E+00  0.51381236892E+03  0.51381236892E+03  0.00000000000E+00 0.  1.
          1   -1    0    0  502    0  0.00000000000E+00 -0.00000000000E+00 -0.21841414524E+03  0.21841414524E+03  0.00000000000E+00 0. -1.
          6    1    1    2  502    0 -0.17427305398E+03  0.33681735092E+02  0.39483117433E+03  0.46581242238E+03  0.17200000000E+03 0.  1.
         -6    1    1    2    0  501  0.17427305398E+03 -0.33681735092E+02 -0.99432950648E+02  0.26641409178E+03  0.17200000000E+03 0. -1.
<mgrwt>
<rscale>  2 0.24716302E+03</rscale>
<asrwt>0</asrwt>
<pdfrwt beam="1">  1        1 0.54603537E-01 0.24716302E+03</pdfrwt>
<pdfrwt beam="2">  1       -1 0.12845309E+00 0.24716302E+03</pdfrwt>
<totfact> 0.40371746E+01</totfact>
</mgrwt>
</event>
<event>
 4    1  0.3761914E-001  0.2259893E+03  0.7546771E-02  0.1129495E+00
         -2   -1    0    0    0  501 -0.00000000000E+00  0.00000000000E+00  0.52795395240E+02  0.52795395240E+02  0.00000000000E+00 0. -1.
          2   -1    0    0  502    0  0.00000000000E+00 -0.00000000000E+00 -0.16112963252E+04  0.16112963252E+04  0.00000000000E+00 0.  1.
          6    1    1    2  502    0 -0.12426478862E+03 -0.77752389393E+02 -0.13052523362E+04  0.13246715943E+04  0.17200000000E+03 0.  1.
         -6    1    1    2    0  501  0.12426478862E+03  0.77752389393E+02 -0.25324859377E+03  0.33942012609E+03  0.17200000000E+03 0. -1.
<mgrwt>
<rscale>  2 0.22598932E+03</rscale>
<asrwt>0</asrwt>
<pdfrwt beam="1">  1        2 0.40282411E+00 0.22598932E+03</pdfrwt>
<pdfrwt beam="2">  1       -2 0.13198848E-01 0.22598932E+03</pdfrwt>
<totfact> 0.14882155E+02</totfact>
</mgrwt>
</event>
<event>
 4    1  0.3761914E-001  0.2642415E+03  0.7546771E-02  0.1104621E+00
          2   -1    0    0  502    0  0.00000000000E+00  0.00000000000E+00  0.28264964219E+03  0.28264964219E+03  0.00000000000E+00 0.  1.
         -2   -1    0    0    0  501 -0.00000000000E+00 -0.00000000000E+00 -0.26019516922E+03  0.26019516922E+03  0.00000000000E+00 0. -1.
          6    1    1    2  502    0  0.20013947032E+03  0.13555304015E+02  0.72275532242E+02  0.27394763442E+03  0.17200000000E+03 0.  1.
         -6    1    1    2    0  501 -0.20013947032E+03 -0.13555304015E+02 -0.49821059267E+02  0.26889717699E+03  0.17200000000E+03 0. -1.
<mgrwt>
<rscale>  2 0.26424147E+03</rscale>
<asrwt>0</asrwt>
<pdfrwt beam="1">  1        2 0.70662411E-01 0.26424147E+03</pdfrwt>
<pdfrwt beam="2">  1       -2 0.65048792E-01 0.26424147E+03</pdfrwt>
<totfact> 0.15440508E+02</totfact>
</mgrwt>
</event>
<event>
 4    1  0.3761914E-001  0.1783641E+03  0.7546771E-02  0.1169396E+00
          1   -1    0    0  502    0  0.00000000000E+00  0.00000000000E+00  0.17390450759E+04  0.17390450759E+04  0.00000000000E+00 0. -1.
         -1   -1    0    0    0  501 -0.00000000000E+00 -0.00000000000E+00 -0.18384193820E+02  0.18384193820E+02  0.00000000000E+00 0.  1.
          6    1    1    2  502    0 -0.47218948490E+02  0.36479359733E+00  0.92194284974E+03  0.93903800794E+03  0.17200000000E+03 0. -1.
         -6    1    1    2    0  501  0.47218948490E+02 -0.36479359733E+00  0.79871803234E+03  0.81839126178E+03  0.17200000000E+03 0.  1.
<mgrwt>
<rscale>  2 0.17836413E+03</rscale>
<asrwt>0</asrwt>
<pdfrwt beam="1">  1        1 0.43476071E+00 0.17836413E+03</pdfrwt>
<pdfrwt beam="2">  1       -1 0.45960544E-02 0.17836413E+03</pdfrwt>
<totfact> 0.19632954E+02</totfact>
</mgrwt>
</event>
<event>
 4    1  0.3761914E-001  0.1994072E+03  0.7546771E-02  0.1150240E+00
          2   -1    0    0  502    0  0.00000000000E+00  0.00000000000E+00  0.47861220651E+03  0.47861220651E+03  0.00000000000E+00 0. -1.
         -2   -1    0    0    0  501 -0.00000000000E+00 -0.00000000000E+00 -0.83080842743E+02  0.83080842743E+02  0.00000000000E+00 0.  1.
          6    1    1    2  502    0 -0.31390494804E+02  0.95884565529E+02  0.19852725320E+03  0.28138280569E+03  0.17200000000E+03 0. -1.
         -6    1    1    2    0  501  0.31390494804E+02 -0.95884565529E+02  0.19700411057E+03  0.28031024357E+03  0.17200000000E+03 0. -1.
<mgrwt>
<rscale>  2 0.19940715E+03</rscale>
<asrwt>0</asrwt>
<pdfrwt beam="1">  1        2 0.11965304E+00 0.19940715E+03</pdfrwt>
<pdfrwt beam="2">  1       -2 0.20770212E-01 0.19940715E+03</pdfrwt>
<totfact> 0.72861933E+02</totfact>
</mgrwt>
</event>
<event>
 4    1  0.3761914E-001  0.1862796E+03  0.7546771E-02  0.1161860E+00
         -1   -1    0    0    0  501 -0.00000000000E+00  0.00000000000E+00  0.17056431859E+03  0.17056431859E+03  0.00000000000E+00 0. -1.
          1   -1    0    0  502    0  0.00000000000E+00 -0.00000000000E+00 -0.23457407932E+03  0.23457407932E+03  0.00000000000E+00 0.  1.
          6    1    1    2  502    0  0.68426195327E+02  0.20831756956E+02  0.41790795273E+02  0.19090986584E+03  0.17200000000E+03 0.  1.
         -6    1    1    2    0  501 -0.68426195327E+02 -0.20831756956E+02 -0.10580055600E+03  0.21422853208E+03  0.17200000000E+03 0.  1.
<mgrwt>
<rscale>  2 0.18627965E+03</rscale>
<asrwt>0</asrwt>
<pdfrwt beam="1">  1        1 0.58643519E-01 0.18627965E+03</pdfrwt>
<pdfrwt beam="2">  1       -1 0.42641080E-01 0.18627965E+03</pdfrwt>
<totfact> 0.35944342E+02</totfact>
</mgrwt>
</event>
<event>
 4    1  0.3761914E-001  0.2632727E+03  0.7546771E-02  0.1105193E+00
          1   -1    0    0  502    0  0.00000000000E+00  0.00000000000E+00  0.72328216431E+03  0.72328216431E+03  0.00000000000E+00 0.  1.
         -1   -1    0    0    0  501 -0.00000000000E+00 -0.00000000000E+00 -0.12425794765E+03  0.12425794765E+03  0.00000000000E+00 0. -1.
          6    1    1    2  502    0  0.39612723226E+02  0.19534416352E+03  0.96819964900E+02  0.28051134677E+03  0.17200000000E+03 0. -1.
         -6    1    1    2    0  501 -0.39612723226E+02 -0.19534416352E+03  0.50220425176E+03  0.56702876519E+03  0.17200000000E+03 0.  1.
<mgrwt>
<rscale>  2 0.26327269E+03</rscale>
<asrwt>0</asrwt>
<pdfrwt beam="1">  1        1 0.18082053E+00 0.26327269E+03</pdfrwt>
<pdfrwt beam="2">  1       -1 0.31064489E-01 0.26327269E+03</pdfrwt>
<totfact> 0.11622676E+02</totfact>
</mgrwt>
</event>
<event>
 4    1  0.3761914E-001  0.2454227E+03  0.7546771E-02  0.1116232E+00
          2   -1    0    0  502    0  0.00000000000E+00  0.00000000000E+00  0.21004560447E+03  0.21004560447E+03  0.00000000000E+00 0. -1.
         -2   -1    0    0    0  501 -0.00000000000E+00 -0.00000000000E+00 -0.28750798560E+03  0.28750798560E+03  0.00000000000E+00 0.  1.
          6    1    1    2  502    0 -0.50321078652E+02  0.16767848259E+03 -0.26026206988E+02  0.24679880050E+03  0.17200000000E+03 0. -1.
         -6    1    1    2    0  501  0.50321078652E+02 -0.16767848259E+03 -0.51436174147E+02  0.25075478956E+03  0.17200000000E+03 0. -1.
<mgrwt>
<rscale>  2 0.24542266E+03</rscale>
<asrwt>0</asrwt>
<pdfrwt beam="1">  1        2 0.52511401E-01 0.24542266E+03</pdfrwt>
<pdfrwt beam="2">  1       -2 0.71876996E-01 0.24542266E+03</pdfrwt>
<totfact> 0.17287191E+02</totfact>
</mgrwt>
</event>
<event>
 4    1  0.3761914E-001  0.2560798E+03  0.7546771E-02  0.1109522E+00
         -3   -1    0    0    0  501 -0.00000000000E+00  0.00000000000E+00  0.29830146515E+03  0.29830146515E+03  0.00000000000E+00 0.  1.
          3   -1    0    0  502    0  0.00000000000E+00 -0.00000000000E+00 -0.25386749705E+03  0.25386749705E+03  0.00000000000E+00 0. -1.
          6    1    1    2  502    0 -0.96165449226E+02 -0.16353913223E+03 -0.78868999094E+02  0.26794992147E+03  0.17200000000E+03 0. -1.
         -6    1    1    2    0  501  0.96165449226E+02  0.16353913223E+03  0.12330296720E+03  0.28421904074E+03  0.17200000000E+03 0.  1.
<mgrwt>
<rscale>  2 0.25607976E+03</rscale>
<asrwt>0</asrwt>
<pdfrwt beam="1">  1        3 0.63466874E-01 0.25607976E+03</pdfrwt>
<pdfrwt beam="2">  1       -3 0.74575366E-01 0.25607976E+03</pdfrwt>
<totfact> 0.10497725E+01</totfact>
</mgrwt>
</event>
<event>
 4    1  0.3761914E-001  0.1789511E+03  0.7546771E-02  0.1168822E+00
         -1   -1    0    0    0  501 -0.00000000000E+00  0.00000000000E+00  0.55517856470E+02  0.55517856470E+02  0.00000000000E+00 0.  1.
          1   -1    0    0  502    0  0.00000000000E+00 -0.00000000000E+00 -0.66031683494E+03  0.66031683494E+03  0.00000000000E+00 0. -1.
          6    1    1    2  502    0 -0.62406138159E+01  0.48995547044E+02 -0.42967817166E+03  0.46545337049E+03  0.17200000000E+03 0. -1.
         -6    1    1    2    0  501  0.62406138159E+01 -0.48995547044E+02 -0.17512080680E+03  0.25038132092E+03  0.17200000000E+03 0.  1.
<mgrwt>
<rscale>  2 0.17895114E+03</rscale>
<asrwt>0</asrwt>
<pdfrwt beam="1">  1        1 0.16507921E+00 0.17895114E+03</pdfrwt>
<pdfrwt beam="2">  1       -1 0.13879464E-01 0.17895114E+03</pdfrwt>
<totfact> 0.52093678E+02</totfact>
</mgrwt>
</event>
<event>
 4    1  0.3761914E-001  0.2150818E+03  0.7546771E-02  0.1137604E+00
         -1   -1    0    0    0  501 -0.00000000000E+00  0.00000000000E+00  0.81217329020E+02  0.81217329020E+02  0.00000000000E+00 0.  1.
          1   -1    0    0  502    0  0.00000000000E+00 -0.00000000000E+00 -0.57782194844E+03  0.57782194844E+03  0.00000000000E+00 0. -1.
          6    1    1    2  502    0 -0.11185255506E+03 -0.64538420260E+02 -0.28764444361E+03  0.35916504243E+03  0.17200000000E+03 0.  1.
         -6    1    1    2    0  501  0.11185255506E+03  0.64538420260E+02 -0.20896017581E+03  0.29987423504E+03  0.17200000000E+03 0. -1.
<mgrwt>
<rscale>  2 0.21508185E+03</rscale>
<asrwt>0</asrwt>
<pdfrwt beam="1">  1        1 0.14445549E+00 0.21508185E+03</pdfrwt>
<pdfrwt beam="2">  1       -1 0.20304332E-01 0.21508185E+03</pdfrwt>
<totfact> 0.35507051E+02</totfact>
</mgrwt>
</event>
<event>
 4    1  0.3761914E-001  0.1906753E+03  0.7546771E-02  0.1157854E+00
         -1   -1    0    0    0  501 -0.00000000000E+00  0.00000000000E+00  0.19382524833E+03  0.19382524833E+03  0.00000000000E+00 0.  1.
          1   -1    0    0  502    0  0.00000000000E+00 -0.00000000000E+00 -0.21803783627E+03  0.21803783627E+03  0.00000000000E+00 0. -1.
          6    1    1    2  502    0  0.63333983333E+01 -0.82054648028E+02  0.64865364751E+02  0.20140653600E+03  0.17200000000E+03 0. -1.
         -6    1    1    2    0  501 -0.63333983333E+01  0.82054648028E+02 -0.89077952689E+02  0.21045654861E+03  0.17200000000E+03 0. -1.
<mgrwt>
<rscale>  2 0.19067532E+03</rscale>
<asrwt>0</asrwt>
<pdfrwt beam="1">  1        1 0.54509459E-01 0.19067532E+03</pdfrwt>
<pdfrwt beam="2">  1       -1 0.48456312E-01 0.19067532E+03</pdfrwt>
<totfact> 0.31281936E+02</totfact>
</mgrwt>
</event>
<event>
 4    1  0.3761914E-001  0.2393717E+03  0.7546771E-02  0.1120212E+00
         -2   -1    0    0    0  501 -0.00000000000E+00  0.00000000000E+00  0.64193546334E+02  0.64193546334E+02  0.00000000000E+00 0.  1.
          2   -1    0    0  502    0  0.00000000000E+00 -0.00000000000E+00 -0.94792717858E+03  0.94792717858E+03  0.00000000000E+00 0. -1.
          6    1    1    2  502    0  0.14882685388E+03  0.74601424818E+02 -0.56413283341E+03  0.61281698635E+03  0.17200000000E+03 0. -1.
         -6    1    1    2    0  501 -0.14882685388E+03 -0.74601424818E+02 -0.31960079884E+03  0.39930373857E+03  0.17200000000E+03 0.  1.
<mgrwt>
<rscale>  2 0.23937169E+03</rscale>
<asrwt>0</asrwt>
<pdfrwt beam="1">  1        2 0.23698179E+00 0.23937169E+03</pdfrwt>
<pdfrwt beam="2">  1       -2 0.16048387E-01 0.23937169E+03</pdfrwt>
<totfact> 0.40102435E+02</totfact>
</mgrwt>
</event>
<event>
 4    1  0.3761914E-001  0.2535278E+03  0.7546771E-02  0.1111095E+00
         -2   -1    0    0    0  501 -0.00000000000E+00  0.00000000000E+00  0.51514359465E+03  0.51514359465E+03  0.00000000000E+00 0. -1.
          2   -1    0    0  502    0  0.00000000000E+00 -0.00000000000E+00 -0.14744261031E+03  0.14744261031E+03  0.00000000000E+00 0.  1.
          6    1    1    2  502    0  0.12338972543E+03 -0.13952533207E+03  0.31375276895E+03  0.40338212981E+03  0.17200000000E+03 0.  1.
         -6    1    1    2    0  501 -0.12338972543E+03  0.13952533207E+03  0.53948215389E+02  0.25920407515E+03  0.17200000000E+03 0. -1.
<mgrwt>
<rscale>  2 0.25352779E+03</rscale>
<asrwt>0</asrwt>
<pdfrwt beam="1">  1        2 0.36860654E-01 0.25352779E+03</pdfrwt>
<pdfrwt beam="2">  1       -2 0.12878589E+00 0.25352779E+03</pdfrwt>
<totfact> 0.65884260E+01</totfact>
</mgrwt>
</event>
<event>
 4    1  0.3761914E-001  0.2894125E+03  0.7546771E-02  0.1090656E+00
          4   -1    0    0  502    0  0.00000000000E+00  0.00000000000E+00  0.62036540115E+03  0.62036540115E+03  0.00000000000E+00 0. -1.
         -4   -1    0    0    0  501 -0.00000000000E+00 -0.00000000000E+00 -0.13798040718E+03  0.13798040718E+03  0.00000000000E+00 0.  1.
          6    1    1    2  502    0  0.14814356034E+03 -0.17952461328E+03  0.29676457346E+03  0.41452239180E+03  0.17200000000E+03 0. -1.
         -6    1    1    2    0  501 -0.14814356034E+03  0.17952461328E+03  0.18562042051E+03  0.34382341653E+03  0.17200000000E+03 0.  1.
<mgrwt>
<rscale>  2 0.28941251E+03</rscale>
<asrwt>0</asrwt>
<pdfrwt beam="1">  1        4 0.15509134E+00 0.28941251E+03</pdfrwt>
<pdfrwt beam="2">  1       -4 0.34495103E-01 0.28941251E+03</pdfrwt>
<totfact> 0.42864233E+00</totfact>
</mgrwt>
</event>
<event>
 4    1  0.3761914E-001  0.2144471E+03  0.7546771E-02  0.1138092E+00
          2   -1    0    0  502    0  0.00000000000E+00  0.00000000000E+00  0.21735443425E+03  0.21735443425E+03  0.00000000000E+00 0. -1.
         -2   -1    0    0    0  501 -0.00000000000E+00 -0.00000000000E+00 -0.48945786065E+03  0.48945786065E+03  0.00000000000E+00 0.  1.
          6    1    1    2  502    0 -0.11986283324E+03 -0.45127198459E+02 -0.40233533543E+03  0.45591806826E+03  0.17200000000E+03 0.  1.
         -6    1    1    2    0  501  0.11986283324E+03  0.45127198459E+02  0.13023190903E+03  0.25089422664E+03  0.17200000000E+03 0. -1.
<mgrwt>
<rscale>  2 0.21444711E+03</rscale>
<asrwt>0</asrwt>
<pdfrwt beam="1">  1        2 0.54338609E-01 0.21444711E+03</pdfrwt>
<pdfrwt beam="2">  1       -2 0.12236446E+00 0.21444711E+03</pdfrwt>
<totfact> 0.49441433E+01</totfact>
</mgrwt>
</event>
<event>
 4    1  0.3761914E-001  0.3906662E+03  0.7546771E-02  0.1047060E+00
          2   -1    0    0  502    0  0.00000000000E+00  0.00000000000E+00  0.31449951880E+03  0.31449951880E+03  0.00000000000E+00 0. -1.
         -2   -1    0    0    0  501 -0.00000000000E+00 -0.00000000000E+00 -0.52091191703E+03  0.52091191703E+03  0.00000000000E+00 0.  1.
          6    1    1    2  502    0  0.30121328049E+03  0.17974048332E+03 -0.21245397683E+03  0.44469852030E+03  0.17200000000E+03 0.  1.
         -6    1    1    2    0  501 -0.30121328049E+03 -0.17974048332E+03  0.60415786052E+01  0.39071291553E+03  0.17200000000E+03 0. -1.
<mgrwt>
<rscale>  2 0.39066620E+03</rscale>
<asrwt>0</asrwt>
<pdfrwt beam="1">  1        2 0.78624881E-01 0.39066620E+03</pdfrwt>
<pdfrwt beam="2">  1       -2 0.13022798E+00 0.39066620E+03</pdfrwt>
<totfact> 0.27333838E+01</totfact>
</mgrwt>
</event>
<event>
 4    1  0.3761914E-001  0.1968266E+03  0.7546771E-02  0.1152444E+00
         -1   -1    0    0    0  501 -0.00000000000E+00  0.00000000000E+00  0.16547717620E+03  0.16547717620E+03  0.00000000000E+00 0.  1.
          1   -1    0    0  502    0  0.00000000000E+00 -0.00000000000E+00 -0.27427699871E+03  0.27427699871E+03  0.00000000000E+00 0. -1.
          6    1    1    2  502    0 -0.93546653151E+02 -0.20142568109E+02 -0.13853799274E+03  0.24069373652E+03  0.17200000000E+03 0. -1.
         -6    1    1    2    0  501  0.93546653151E+02  0.20142568109E+02  0.29738170223E+02  0.19906043839E+03  0.17200000000E+03 0.  1.
<mgrwt>
<rscale>  2 0.19682657E+03</rscale>
<asrwt>0</asrwt>
<pdfrwt beam="1">  1        1 0.68569249E-01 0.19682657E+03</pdfrwt>
<pdfrwt beam="2">  1       -1 0.41369294E-01 0.19682657E+03</pdfrwt>
<totfact> 0.31025232E+02</totfact>
</mgrwt>
</event>
<event>
 4    1  0.3761914E-001  0.2060330E+03  0.7546771E-02  0.1144747E+00
          1   -1    0    0  502    0  0.00000000000E+00  0.00000000000E+00  0.48911083367E+03  0.48911083367E+03  0.00000000000E+00 0.  1.
         -1   -1    0    0    0  501 -0.00000000000E+00 -0.00000000000E+00 -0.11630541445E+03  0.11630541445E+03  0.00000000000E+00 0. -1.
          6    1    1    2  502    0 -0.45210414652E+02 -0.10402691990E+03  0.33908349674E+02  0.20880459247E+03  0.17200000000E+03 0. -1.
         -6    1    1    2    0  501  0.45210414652E+02  0.10402691990E+03  0.33889706954E+03  0.39661165565E+03  0.17200000000E+03 0.  1.
<mgrwt>
<rscale>  2 0.20603296E+03</rscale>
<asrwt>0</asrwt>
<pdfrwt beam="1">  1        1 0.12227770E+00 0.20603296E+03</pdfrwt>
<pdfrwt beam="2">  1       -1 0.29076355E-01 0.20603296E+03</pdfrwt>
<totfact> 0.25560814E+02</totfact>
</mgrwt>
</event>
<event>
 4    1  0.3761914E-001  0.1995323E+03  0.7546771E-02  0.1150134E+00
         -1   -1    0    0    0  501 -0.00000000000E+00  0.00000000000E+00  0.65322264094E+02  0.65322264094E+02  0.00000000000E+00 0.  1.
          1   -1    0    0  502    0  0.00000000000E+00 -0.00000000000E+00 -0.78694851936E+03  0.78694851936E+03  0.00000000000E+00 0. -1.
          6    1    1    2  502    0 -0.27529424131E+02 -0.97320494879E+02 -0.56317332601E+03  0.59747580959E+03  0.17200000000E+03 0. -1.
         -6    1    1    2    0  501  0.27529424131E+02  0.97320494879E+02 -0.15845292926E+03  0.25479497386E+03  0.17200000000E+03 0.  1.
<mgrwt>
<rscale>  2 0.19953232E+03</rscale>
<asrwt>0</asrwt>
<pdfrwt beam="1">  1        1 0.19673713E+00 0.19953232E+03</pdfrwt>
<pdfrwt beam="2">  1       -1 0.16330566E-01 0.19953232E+03</pdfrwt>
<totfact> 0.28841942E+02</totfact>
</mgrwt>
</event>
<event>
 4    1  0.3761914E-001  0.1768807E+03  0.7546771E-02  0.1170856E+00
         -2   -1    0    0    0  501 -0.00000000000E+00  0.00000000000E+00  0.57869482576E+03  0.57869482576E+03  0.00000000000E+00 0.  1.
          2   -1    0    0  502    0  0.00000000000E+00 -0.00000000000E+00 -0.54636352706E+02  0.54636352706E+02  0.00000000000E+00 0. -1.
          6    1    1    2  502    0 -0.53188593243E+01  0.40920749397E+02  0.22963006705E+03  0.28985645705E+03  0.17200000000E+03 0.  1.
         -6    1    1    2    0  501  0.53188593243E+01 -0.40920749397E+02  0.29442840600E+03  0.34347472142E+03  0.17200000000E+03 0.  1.
<mgrwt>
<rscale>  2 0.17688075E+03</rscale>
<asrwt>0</asrwt>
<pdfrwt beam="1">  1        2 0.13659090E-01 0.17688075E+03</pdfrwt>
<pdfrwt beam="2">  1       -2 0.14467369E+00 0.17688075E+03</pdfrwt>
<totfact> 0.15261178E+02</totfact>
</mgrwt>
</event>
<event>
 4    1  0.3761914E-001  0.2052641E+03  0.7546771E-02  0.1145372E+00
          2   -1    0    0  502    0  0.00000000000E+00  0.00000000000E+00  0.95753095304E+02  0.95753095304E+02  0.00000000000E+00 0.  1.
         -2   -1    0    0    0  501 -0.00000000000E+00 -0.00000000000E+00 -0.53910629425E+03  0.53910629425E+03  0.00000000000E+00 0. -1.
          6    1    1    2  502    0  0.81727225442E+02  0.76615968885E+02 -0.35776326181E+03  0.41246563198E+03  0.17200000000E+03 0. -1.
         -6    1    1    2    0  501 -0.81727225442E+02 -0.76615968885E+02 -0.85589937133E+02  0.22239375757E+03  0.17200000000E+03 0.  1.
<mgrwt>
<rscale>  2 0.20526409E+03</rscale>
<asrwt>0</asrwt>
<pdfrwt beam="1">  1        2 0.23938274E-01 0.20526409E+03</pdfrwt>
<pdfrwt beam="2">  1       -2 0.13477657E+00 0.20526409E+03</pdfrwt>
<totfact> 0.95220364E+01</totfact>
</mgrwt>
</event>
<event>
 4    1  0.3761914E-001  0.1947482E+03  0.7546771E-02  0.1154247E+00
         -2   -1    0    0    0  501 -0.00000000000E+00  0.00000000000E+00  0.85668958175E+02  0.85668958175E+02  0.00000000000E+00 0. -1.
          2   -1    0    0  502    0  0.00000000000E+00 -0.00000000000E+00 -0.53879167647E+03  0.53879167647E+03  0.00000000000E+00 0.  1.
          6    1    1    2  502    0  0.91022038183E+02 -0.76046817611E+01 -0.94712615221E+02  0.21655789550E+03  0.17200000000E+03 0. -1.
         -6    1    1    2    0  501 -0.91022038183E+02  0.76046817611E+01 -0.35841010308E+03  0.40790273915E+03  0.17200000000E+03 0.  1.
<mgrwt>
<rscale>  2 0.19474815E+03</rscale>
<asrwt>0</asrwt>
<pdfrwt beam="1">  1        2 0.13469792E+00 0.19474815E+03</pdfrwt>
<pdfrwt beam="2">  1       -2 0.21417240E-01 0.19474815E+03</pdfrwt>
<totfact> 0.59418004E+02</totfact>
</mgrwt>
</event>
<event>
 4    1  0.3761914E-001  0.1827212E+03  0.7546771E-02  0.1165195E+00
          2   -1    0    0  502    0  0.00000000000E+00  0.00000000000E+00  0.17558673564E+03  0.17558673564E+03  0.00000000000E+00 0.  1.
         -2   -1    0    0    0  501 -0.00000000000E+00 -0.00000000000E+00 -0.34023393540E+03  0.34023393540E+03  0.00000000000E+00 0. -1.
          6    1    1    2  502    0  0.97230889043E+01  0.60897496449E+02  0.88974843466E+02  0.20323278845E+03  0.17200000000E+03 0. -1.
         -6    1    1    2    0  501 -0.97230889043E+01 -0.60897496449E+02 -0.25362204323E+03  0.31258788259E+03  0.17200000000E+03 0. -1.
<mgrwt>
<rscale>  2 0.18272122E+03</rscale>
<asrwt>0</asrwt>
<pdfrwt beam="1">  1        2 0.43896684E-01 0.18272122E+03</pdfrwt>
<pdfrwt beam="2">  1       -2 0.85058484E-01 0.18272122E+03</pdfrwt>
<totfact> 0.14569080E+02</totfact>
</mgrwt>
</event>
<event>
 4    1  0.3761914E-001  0.2200479E+03  0.7546771E-02  0.1133847E+00
          2   -1    0    0  502    0  0.00000000000E+00  0.00000000000E+00  0.13246350431E+04  0.13246350431E+04  0.00000000000E+00 0. -1.
         -2   -1    0    0    0  501 -0.00000000000E+00 -0.00000000000E+00 -0.36557289201E+02  0.36557289201E+02  0.00000000000E+00 0.  1.
          6    1    1    2  502    0  0.11294923460E+03 -0.77971394974E+02  0.63785453681E+03  0.67474400936E+03  0.17200000000E+03 0.  1.
         -6    1    1    2    0  501 -0.11294923460E+03  0.77971394974E+02  0.65022321705E+03  0.68644832290E+03  0.17200000000E+03 0. -1.
<mgrwt>
<rscale>  2 0.22004788E+03</rscale>
<asrwt>0</asrwt>
<pdfrwt beam="1">  1        2 0.33115860E+00 0.22004788E+03</pdfrwt>
<pdfrwt beam="2">  1       -2 0.91393267E-02 0.22004788E+03</pdfrwt>
<totfact> 0.47855694E+02</totfact>
</mgrwt>
</event>
<event>
 4    1  0.3761914E-001  0.3959496E+03  0.7546771E-02  0.1045191E+00
          2   -1    0    0  502    0  0.00000000000E+00  0.00000000000E+00  0.15631059727E+03  0.15631059727E+03  0.00000000000E+00 0. -1.
         -2   -1    0    0    0  501 -0.00000000000E+00 -0.00000000000E+00 -0.10046041172E+04  0.10046041172E+04  0.00000000000E+00 0.  1.
          6    1    1    2  502    0 -0.23210784314E+03  0.27077300936E+03 -0.44750085857E+03  0.59752246139E+03  0.17200000000E+03 0. -1.
         -6    1    1    2    0  501  0.23210784314E+03 -0.27077300936E+03 -0.40079266138E+03  0.56339225311E+03  0.17200000000E+03 0.  1.
<mgrwt>
<rscale>  2 0.39594958E+03</rscale>
<asrwt>0</asrwt>
<pdfrwt beam="1">  1        2 0.39077651E-01 0.39594958E+03</pdfrwt>
<pdfrwt beam="2">  1       -2 0.25115102E+00 0.39594958E+03</pdfrwt>
<totfact> 0.90402462E+00</totfact>
</mgrwt>
</event>
<event>
 4    1  0.3761914E-001  0.1761030E+03  0.7546771E-02  0.1171629E+00
          4   -1    0    0  502    0  0.00000000000E+00  0.00000000000E+00  0.17327213517E+03  0.17327213517E+03  0.00000000000E+00 0. -1.
         -4   -1    0    0    0  501 -0.00000000000E+00 -0.00000000000E+00 -0.17898149505E+03  0.17898149505E+03  0.00000000000E+00 0.  1.
          6    1    1    2  502    0 -0.37435671312E+02 -0.51788758441E+01 -0.23490821684E+01  0.17611862033E+03  0.17200000000E+03 0. -1.
         -6    1    1    2    0  501  0.37435671312E+02  0.51788758441E+01 -0.33602777139E+01  0.17613500989E+03  0.17200000000E+03 0. -1.
<mgrwt>
<rscale>  2 0.17610295E+03</rscale>
<asrwt>0</asrwt>
<pdfrwt beam="1">  1        4 0.43318034E-01 0.17610295E+03</pdfrwt>
<pdfrwt beam="2">  1       -4 0.44745374E-01 0.17610295E+03</pdfrwt>
<totfact> 0.44093431E+01</totfact>
</mgrwt>
</event>
<event>
 4    1  0.3761914E-001  0.2073253E+03  0.7546771E-02  0.1143702E+00
         -3   -1    0    0    0  501 -0.00000000000E+00  0.00000000000E+00  0.51474272202E+03  0.51474272202E+03  0.00000000000E+00 0. -1.
          3   -1    0    0  502    0  0.00000000000E+00 -0.00000000000E+00 -0.94245149620E+02  0.94245149620E+02  0.00000000000E+00 0.  1.
          6    1    1    2  502    0  0.95323021315E+02  0.65675692798E+02  0.31303789048E+03  0.37546836870E+03  0.17200000000E+03 0. -1.
         -6    1    1    2    0  501 -0.95323021315E+02 -0.65675692798E+02  0.10745968193E+03  0.23351950295E+03  0.17200000000E+03 0.  1.
<mgrwt>
<rscale>  2 0.20732529E+03</rscale>
<asrwt>0</asrwt>
<pdfrwt beam="1">  1        3 0.23561289E-01 0.20732529E+03</pdfrwt>
<pdfrwt beam="2">  1       -3 0.12868567E+00 0.20732529E+03</pdfrwt>
<totfact> 0.20467477E+01</totfact>
</mgrwt>
</event>
<event>
 4    1  0.3761914E-001  0.2602108E+03  0.7546771E-02  0.1107017E+00
          1   -1    0    0  502    0  0.00000000000E+00  0.00000000000E+00  0.24213272808E+03  0.24213272808E+03  0.00000000000E+00 0. -1.
         -1   -1    0    0    0  501 -0.00000000000E+00 -0.00000000000E+00 -0.28907830318E+03  0.28907830318E+03  0.00000000000E+00 0.  1.
          6    1    1    2  502    0 -0.48936170138E+02 -0.18902625762E+03 -0.71468984504E+02  0.26984716149E+03  0.17200000000E+03 0.  1.
         -6    1    1    2    0  501  0.48936170138E+02  0.18902625762E+03  0.24523409406E+02  0.26136386978E+03  0.17200000000E+03 0. -1.
<mgrwt>
<rscale>  2 0.26021083E+03</rscale>
<asrwt>0</asrwt>
<pdfrwt beam="1">  1        1 0.60533182E-01 0.26021083E+03</pdfrwt>
<pdfrwt beam="2">  1       -1 0.72269575E-01 0.26021083E+03</pdfrwt>
<totfact> 0.12597948E+02</totfact>
</mgrwt>
</event>
<event>
 4    1  0.3761914E-001  0.2080288E+03  0.7546771E-02  0.1143137E+00
          2   -1    0    0  502    0  0.00000000000E+00  0.00000000000E+00  0.77687606459E+03  0.77687606459E+03  0.00000000000E+00 0.  1.
         -2   -1    0    0    0  501 -0.00000000000E+00 -0.00000000000E+00 -0.55840065935E+02  0.55840065935E+02  0.00000000000E+00 0. -1.
          6    1    1    2  502    0 -0.98618782774E+02 -0.62978676858E+02  0.38098557296E+03  0.43408062023E+03  0.17200000000E+03 0.  1.
         -6    1    1    2    0  501  0.98618782774E+02  0.62978676858E+02  0.34005042570E+03  0.39863551030E+03  0.17200000000E+03 0.  1.
<mgrwt>
<rscale>  2 0.20802879E+03</rscale>
<asrwt>0</asrwt>
<pdfrwt beam="1">  1        2 0.19421898E+00 0.20802879E+03</pdfrwt>
<pdfrwt beam="2">  1       -2 0.13960019E-01 0.20802879E+03</pdfrwt>
<totfact> 0.71688967E+02</totfact>
</mgrwt>
</event>
<event>
 4    1  0.3761914E-001  0.1752852E+03  0.7546771E-02  0.1172446E+00
          2   -1    0    0  502    0  0.00000000000E+00  0.00000000000E+00  0.36723343890E+03  0.36723343890E+03  0.00000000000E+00 0. -1.
         -2   -1    0    0    0  501 -0.00000000000E+00 -0.00000000000E+00 -0.10563152443E+03  0.10563152443E+03  0.00000000000E+00 0.  1.
          6    1    1    2  502    0 -0.35002444920E+01 -0.33595602637E+02  0.22985223594E+02  0.17678584992E+03  0.17200000000E+03 0.  1.
         -6    1    1    2    0  501  0.35002444920E+01  0.33595602637E+02  0.23861669088E+03  0.29607911340E+03  0.17200000000E+03 0. -1.
<mgrwt>
<rscale>  2 0.17528524E+03</rscale>
<asrwt>0</asrwt>
<pdfrwt beam="1">  1        2 0.91808357E-01 0.17528524E+03</pdfrwt>
<pdfrwt beam="2">  1       -2 0.26407882E-01 0.17528524E+03</pdfrwt>
<totfact> 0.65842808E+02</totfact>
</mgrwt>
</event>
<event>
 4    1  0.3761914E-001  0.1787819E+03  0.7546771E-02  0.1168987E+00
          2   -1    0    0  502    0  0.00000000000E+00  0.00000000000E+00  0.85096214310E+03  0.85096214310E+03  0.00000000000E+00 0.  1.
         -2   -1    0    0    0  501 -0.00000000000E+00 -0.00000000000E+00 -0.43039241335E+02  0.43039241335E+02  0.00000000000E+00 0. -1.
          6    1    1    2  502    0  0.37903245752E+02  0.30697331340E+02  0.56343798630E+03  0.59112210802E+03  0.17200000000E+03 0.  1.
         -6    1    1    2    0  501 -0.37903245752E+02 -0.30697331340E+02  0.24448491547E+03  0.30287927642E+03  0.17200000000E+03 0. -1.
<mgrwt>
<rscale>  2 0.17878194E+03</rscale>
<asrwt>0</asrwt>
<pdfrwt beam="1">  1        2 0.21274048E+00 0.17878194E+03</pdfrwt>
<pdfrwt beam="2">  1       -2 0.10759813E-01 0.17878194E+03</pdfrwt>
<totfact> 0.94091585E+02</totfact>
</mgrwt>
</event>
<event>
 4    1  0.3761914E-001  0.2161561E+03  0.7546771E-02  0.1136782E+00
          2   -1    0    0  502    0  0.00000000000E+00  0.00000000000E+00  0.12982601954E+04  0.12982601954E+04  0.00000000000E+00 0.  1.
         -2   -1    0    0    0  501 -0.00000000000E+00 -0.00000000000E+00 -0.36006677329E+02  0.36006677329E+02  0.00000000000E+00 0. -1.
          6    1    1    2  502    0  0.82438077236E+02  0.10170255951E+03  0.64579190738E+03  0.68100707399E+03  0.17200000000E+03 0. -1.
         -6    1    1    2    0  501 -0.82438077236E+02 -0.10170255951E+03  0.61646161064E+03  0.65325979869E+03  0.17200000000E+03 0.  1.
<mgrwt>
<rscale>  2 0.21615607E+03</rscale>
<asrwt>0</asrwt>
<pdfrwt beam="1">  1        2 0.32456489E+00 0.21615607E+03</pdfrwt>
<pdfrwt beam="2">  1       -2 0.90016737E-02 0.21615607E+03</pdfrwt>
<totfact> 0.51668530E+02</totfact>
</mgrwt>
</event>
<event>
 4    1  0.3761914E-001  0.2806331E+03  0.7546771E-02  0.1095344E+00
          3   -1    0    0  502    0  0.00000000000E+00  0.00000000000E+00  0.13552924768E+03  0.13552924768E+03  0.00000000000E+00 0.  1.
         -3   -1    0    0    0  501 -0.00000000000E+00 -0.00000000000E+00 -0.11167070624E+04  0.11167070624E+04  0.00000000000E+00 0. -1.
          6    1    1    2  502    0 -0.85535580320E+02 -0.20458402888E+03 -0.56965158366E+02  0.28635640318E+03  0.17200000000E+03 0. -1.
         -6    1    1    2    0  501  0.85535580320E+02  0.20458402888E+03 -0.92421265631E+03  0.96587990685E+03  0.17200000000E+03 0. -1.
<mgrwt>
<rscale>  2 0.28063314E+03</rscale>
<asrwt>0</asrwt>
<pdfrwt beam="1">  1        3 0.33882313E-01 0.28063314E+03</pdfrwt>
<pdfrwt beam="2">  1       -3 0.27917676E+00 0.28063314E+03</pdfrwt>
<totfact> 0.11853418E+00</totfact>
</mgrwt>
</event>
<event>
 4    1  0.3761914E-001  0.1868883E+03  0.7546771E-02  0.1161298E+00
          1   -1    0    0  502    0  0.00000000000E+00  0.00000000000E+00  0.13844058882E+04  0.13844058882E+04  0.00000000000E+00 0.  1.
         -1   -1    0    0    0  501 -0.00000000000E+00 -0.00000000000E+00 -0.25866849557E+02  0.25866849557E+02  0.00000000000E+00 0. -1.
          6    1    1    2  502    0  0.49690318219E+02 -0.53610880286E+02  0.78999339530E+03  0.81179850876E+03  0.17200000000E+03 0.  1.
         -6    1    1    2    0  501 -0.49690318219E+02  0.53610880286E+02  0.56854564338E+03  0.59847422904E+03  0.17200000000E+03 0. -1.
<mgrwt>
<rscale>  2 0.18688835E+03</rscale>
<asrwt>0</asrwt>
<pdfrwt beam="1">  1        1 0.34610122E+00 0.18688835E+03</pdfrwt>
<pdfrwt beam="2">  1       -1 0.64667170E-02 0.18688835E+03</pdfrwt>
<totfact> 0.28242599E+02</totfact>
</mgrwt>
</event>
<event>
 4    1  0.3761914E-001  0.2265543E+03  0.7546771E-02  0.1129089E+00
         -1   -1    0    0    0  501 -0.00000000000E+00  0.00000000000E+00  0.24143883881E+02  0.24143883881E+02  0.00000000000E+00 0. -1.
          1   -1    0    0  502    0  0.00000000000E+00 -0.00000000000E+00 -0.24458543044E+04  0.24458543044E+04  0.00000000000E+00 0.  1.
          6    1    1    2  502    0  0.14704592316E+03 -0.10969703546E+02 -0.76415778282E+03  0.79703447539E+03  0.17200000000E+03 0.  1.
         -6    1    1    2    0  501 -0.14704592316E+03  0.10969703546E+02 -0.16575526377E+04  0.16729637129E+04  0.17200000000E+03 0. -1.
<mgrwt>
<rscale>  2 0.22655427E+03</rscale>
<asrwt>0</asrwt>
<pdfrwt beam="1">  1        1 0.61146364E+00 0.22655427E+03</pdfrwt>
<pdfrwt beam="2">  1       -1 0.60359703E-02 0.22655427E+03</pdfrwt>
<totfact> 0.17853018E+01</totfact>
</mgrwt>
</event>
<event>
 4    1  0.3761914E-001  0.2248254E+03  0.7546771E-02  0.1130336E+00
         -2   -1    0    0    0  501 -0.00000000000E+00  0.00000000000E+00  0.12132540498E+03  0.12132540498E+03  0.00000000000E+00 0.  1.
          2   -1    0    0  502    0  0.00000000000E+00 -0.00000000000E+00 -0.60146525990E+03  0.60146525990E+03  0.00000000000E+00 0. -1.
          6    1    1    2  502    0  0.39956424179E+02 -0.13916151838E+03 -0.39722929241E+02  0.22830758887E+03  0.17200000000E+03 0.  1.
         -6    1    1    2    0  501 -0.39956424179E+02  0.13916151838E+03 -0.44041692568E+03  0.49448307600E+03  0.17200000000E+03 0.  1.
<mgrwt>
<rscale>  2 0.22482536E+03</rscale>
<asrwt>0</asrwt>
<pdfrwt beam="1">  1        2 0.15036631E+00 0.22482536E+03</pdfrwt>
<pdfrwt beam="2">  1       -2 0.30331351E-01 0.22482536E+03</pdfrwt>
<totfact> 0.27584988E+02</totfact>
</mgrwt>
</event>
<event>
 4    1  0.3761914E-001  0.2888237E+03  0.7546771E-02  0.1090965E+00
          2   -1    0    0  502    0  0.00000000000E+00  0.00000000000E+00  0.91297093821E+03  0.91297093821E+03  0.00000000000E+00 0.  1.
         -2   -1    0    0    0  501 -0.00000000000E+00 -0.00000000000E+00 -0.92012763156E+02  0.92012763156E+02  0.00000000000E+00 0. -1.
          6    1    1    2  502    0 -0.13273927377E+03  0.19030348029E+03  0.45244237118E+03  0.53677111384E+03  0.17200000000E+03 0.  1.
         -6    1    1    2    0  501  0.13273927377E+03 -0.19030348029E+03  0.36851580387E+03  0.46821258752E+03  0.17200000000E+03 0. -1.
<mgrwt>
<rscale>  2 0.28882370E+03</rscale>
<asrwt>0</asrwt>
<pdfrwt beam="1">  1        2 0.22824271E+00 0.28882370E+03</pdfrwt>
<pdfrwt beam="2">  1       -2 0.23003194E-01 0.28882370E+03</pdfrwt>
<totfact> 0.23048425E+02</totfact>
</mgrwt>
</event>
<event>
 4    1  0.3761914E-001  0.2787538E+03  0.7546771E-02  0.1096372E+00
         -2   -1    0    0    0  501 -0.00000000000E+00  0.00000000000E+00  0.67931239027E+03  0.67931239027E+03  0.00000000000E+00 0. -1.
          2   -1    0    0  502    0  0.00000000000E+00 -0.00000000000E+00 -0.11441396420E+03  0.11441396420E+03  0.00000000000E+00 0.  1.
          6    1    1    2  502    0  0.21652072641E+03  0.35191428340E+02  0.28868061704E+03  0.40129809400E+03  0.17200000000E+03 0.  1.
         -6    1    1    2    0  501 -0.21652072641E+03 -0.35191428340E+02  0.27621780903E+03  0.39242826048E+03  0.17200000000E+03 0. -1.
<mgrwt>
<rscale>  2 0.27875377E+03</rscale>
<asrwt>0</asrwt>
<pdfrwt beam="1">  1        2 0.28603493E-01 0.27875377E+03</pdfrwt>
<pdfrwt beam="2">  1       -2 0.16982809E+00 0.27875377E+03</pdfrwt>
<totfact> 0.42426306E+01</totfact>
</mgrwt>
</event>
<event>
 4    1  0.3761914E-001  0.1883191E+03  0.7546771E-02  0.1159986E+00
         -1   -1    0    0    0  501 -0.00000000000E+00  0.00000000000E+00  0.42564976266E+03  0.42564976266E+03  0.00000000000E+00 0.  1.
          1   -1    0    0  502    0  0.00000000000E+00 -0.00000000000E+00 -0.96074252210E+02  0.96074252210E+02  0.00000000000E+00 0. -1.
          6    1    1    2  502    0 -0.23880523357E+02  0.72868377610E+02  0.25984323441E+03  0.32090900006E+03  0.17200000000E+03 0.  1.
         -6    1    1    2    0  501  0.23880523357E+02 -0.72868377610E+02  0.69732276040E+02  0.20081501481E+03  0.17200000000E+03 0. -1.
<mgrwt>
<rscale>  2 0.18831909E+03</rscale>
<asrwt>0</asrwt>
<pdfrwt beam="1">  1        1 0.24018564E-01 0.18831909E+03</pdfrwt>
<pdfrwt beam="2">  1       -1 0.10641244E+00 0.18831909E+03</pdfrwt>
<totfact> 0.17905422E+02</totfact>
</mgrwt>
</event>
<event>
 4    1  0.3761914E-001  0.2804246E+03  0.7546771E-02  0.1095457E+00
         -2   -1    0    0    0  501 -0.00000000000E+00  0.00000000000E+00  0.52982647587E+02  0.52982647587E+02  0.00000000000E+00 0. -1.
          2   -1    0    0  502    0  0.00000000000E+00 -0.00000000000E+00 -0.14857674044E+04  0.14857674044E+04  0.00000000000E+00 0.  1.
          6    1    1    2  502    0 -0.21330242411E+03  0.59632291951E+02 -0.74121726719E+03  0.79249036055E+03  0.17200000000E+03 0. -1.
         -6    1    1    2    0  501  0.21330242411E+03 -0.59632291951E+02 -0.69156748964E+03  0.74625969146E+03  0.17200000000E+03 0. -1.
<mgrwt>
<rscale>  2 0.28042456E+03</rscale>
<asrwt>0</asrwt>
<pdfrwt beam="1">  1        2 0.37144187E+00 0.28042456E+03</pdfrwt>
<pdfrwt beam="2">  1       -2 0.13245661E-01 0.28042456E+03</pdfrwt>
<totfact> 0.18806686E+02</totfact>
</mgrwt>
</event>
<event>
 4    1  0.3761914E-001  0.2055239E+03  0.7546771E-02  0.1145160E+00
          2   -1    0    0  502    0  0.00000000000E+00  0.00000000000E+00  0.29518688235E+04  0.29518688235E+04  0.00000000000E+00 0. -1.
         -2   -1    0    0    0  501 -0.00000000000E+00 -0.00000000000E+00 -0.16598779760E+02  0.16598779760E+02  0.00000000000E+00 0.  1.
          6    1    1    2  502    0 -0.46429609291E+02 -0.10247133618E+03  0.20188277798E+04  0.20292623506E+04  0.17200000000E+03 0. -1.
         -6    1    1    2    0  501  0.46429609291E+02  0.10247133618E+03  0.91644226396E+03  0.93920525261E+03  0.17200000000E+03 0.  1.
<mgrwt>
<rscale>  2 0.20552392E+03</rscale>
<asrwt>0</asrwt>
<pdfrwt beam="1">  1        2 0.73796541E+00 0.20552392E+03</pdfrwt>
<pdfrwt beam="2">  1       -2 0.41497050E-02 0.20552392E+03</pdfrwt>
<totfact> 0.23396972E+01</totfact>
</mgrwt>
</event>
<event>
 4    1  0.3761914E-001  0.1856186E+03  0.7546771E-02  0.1162474E+00
          2   -1    0    0  502    0  0.00000000000E+00  0.00000000000E+00  0.15547380970E+04  0.15547380970E+04  0.00000000000E+00 0.  1.
         -2   -1    0    0    0  501 -0.00000000000E+00 -0.00000000000E+00 -0.22708325119E+02  0.22708325119E+02  0.00000000000E+00 0. -1.
          6    1    1    2  502    0 -0.26204960513E+02  0.64680413400E+02  0.88848498259E+03  0.90766724085E+03  0.17200000000E+03 0.  1.
         -6    1    1    2    0  501  0.26204960513E+02 -0.64680413400E+02  0.64354478934E+03  0.66977918132E+03  0.17200000000E+03 0. -1.
<mgrwt>
<rscale>  2 0.18561858E+03</rscale>
<asrwt>0</asrwt>
<pdfrwt beam="1">  1        2 0.38868416E+00 0.18561858E+03</pdfrwt>
<pdfrwt beam="2">  1       -2 0.56770865E-02 0.18561858E+03</pdfrwt>
<totfact> 0.63764671E+02</totfact>
</mgrwt>
</event>
<event>
 4    1  0.3761914E-001  0.1798870E+03  0.7546771E-02  0.1167912E+00
          1   -1    0    0  502    0  0.00000000000E+00  0.00000000000E+00  0.14668205234E+03  0.14668205234E+03  0.00000000000E+00 0. -1.
         -1   -1    0    0    0  501 -0.00000000000E+00 -0.00000000000E+00 -0.22464592525E+03  0.22464592525E+03  0.00000000000E+00 0.  1.
          6    1    1    2  502    0 -0.25449339594E+02 -0.46126577194E+02 -0.14092078772E+02  0.18043812428E+03  0.17200000000E+03 0. -1.
         -6    1    1    2    0  501  0.25449339594E+02  0.46126577194E+02 -0.63871794148E+02  0.19088985331E+03  0.17200000000E+03 0.  1.
<mgrwt>
<rscale>  2 0.17988699E+03</rscale>
<asrwt>0</asrwt>
<pdfrwt beam="1">  1        1 0.36670513E-01 0.17988699E+03</pdfrwt>
<pdfrwt beam="2">  1       -1 0.56161481E-01 0.17988699E+03</pdfrwt>
<totfact> 0.39089737E+02</totfact>
</mgrwt>
</event>
<event>
 4    1  0.3761914E-001  0.3038498E+03  0.7546771E-02  0.1083332E+00
         -1   -1    0    0    0  501 -0.00000000000E+00  0.00000000000E+00  0.33719690023E+03  0.33719690023E+03  0.00000000000E+00 0. -1.
          1   -1    0    0  502    0  0.00000000000E+00 -0.00000000000E+00 -0.28336201661E+03  0.28336201661E+03  0.00000000000E+00 0.  1.
          6    1    1    2  502    0  0.24478753623E+03  0.53101245110E+02 -0.30078716361E+02  0.30533491334E+03  0.17200000000E+03 0.  1.
         -6    1    1    2    0  501 -0.24478753623E+03 -0.53101245110E+02  0.83913599984E+02  0.31522400351E+03  0.17200000000E+03 0. -1.
<mgrwt>
<rscale>  2 0.30384977E+03</rscale>
<asrwt>0</asrwt>
<pdfrwt beam="1">  1        1 0.70840504E-01 0.30384977E+03</pdfrwt>
<pdfrwt beam="2">  1       -1 0.84299225E-01 0.30384977E+03</pdfrwt>
<totfact> 0.74130947E+01</totfact>
</mgrwt>
</event>
<event>
 4    1  0.3761914E-001  0.2229897E+03  0.7546771E-02  0.1131674E+00
         -2   -1    0    0    0  501 -0.00000000000E+00  0.00000000000E+00  0.24144453800E+02  0.24144453800E+02  0.00000000000E+00 0.  1.
          2   -1    0    0  502    0  0.00000000000E+00 -0.00000000000E+00 -0.22375021275E+04  0.22375021275E+04  0.00000000000E+00 0. -1.
          6    1    1    2  502    0 -0.13805159284E+03 -0.32896351223E+02 -0.14256715030E+04  0.14430050751E+04  0.17200000000E+03 0. -1.
         -6    1    1    2    0  501  0.13805159284E+03  0.32896351223E+02 -0.78768617071E+03  0.81864150624E+03  0.17200000000E+03 0.  1.
<mgrwt>
<rscale>  2 0.22298971E+03</rscale>
<asrwt>0</asrwt>
<pdfrwt beam="1">  1        2 0.55937546E+00 0.22298971E+03</pdfrwt>
<pdfrwt beam="2">  1       -2 0.60361143E-02 0.22298971E+03</pdfrwt>
<totfact> 0.12305162E+02</totfact>
</mgrwt>
</event>
<event>
 4    1  0.3761914E-001  0.2303194E+03  0.7546771E-02  0.1126415E+00
          2   -1    0    0  502    0  0.00000000000E+00  0.00000000000E+00  0.11575633377E+03  0.11575633377E+03  0.00000000000E+00 0. -1.
         -2   -1    0    0    0  501 -0.00000000000E+00 -0.00000000000E+00 -0.45902922376E+03  0.45902922376E+03  0.00000000000E+00 0.  1.
          6    1    1    2  502    0  0.11598821659E+03  0.10004874939E+03 -0.18336669929E+03  0.29439831020E+03  0.17200000000E+03 0. -1.
         -6    1    1    2    0  501 -0.11598821659E+03 -0.10004874939E+03 -0.15990619070E+03  0.28038724733E+03  0.17200000000E+03 0.  1.
<mgrwt>
<rscale>  2 0.23031938E+03</rscale>
<asrwt>0</asrwt>
<pdfrwt beam="1">  1        2 0.28939084E-01 0.23031938E+03</pdfrwt>
<pdfrwt beam="2">  1       -2 0.11475731E+00 0.23031938E+03</pdfrwt>
<totfact> 0.11402750E+02</totfact>
</mgrwt>
</event>
<event>
 4    1  0.3761914E-001  0.1835458E+03  0.7546771E-02  0.1164415E+00
         -1   -1    0    0    0  501 -0.00000000000E+00  0.00000000000E+00  0.62242303453E+02  0.62242303453E+02  0.00000000000E+00 0. -1.
          1   -1    0    0  502    0  0.00000000000E+00 -0.00000000000E+00 -0.68560960271E+03  0.68560960271E+03  0.00000000000E+00 0.  1.
          6    1    1    2  502    0  0.10464302448E+02 -0.63210562029E+02 -0.14010643643E+03  0.23090883549E+03  0.17200000000E+03 0. -1.
         -6    1    1    2    0  501 -0.10464302448E+02  0.63210562029E+02 -0.48326086282E+03  0.51694307067E+03  0.17200000000E+03 0.  1.
<mgrwt>
<rscale>  2 0.18354584E+03</rscale>
<asrwt>0</asrwt>
<pdfrwt beam="1">  1        1 0.17140240E+00 0.18354584E+03</pdfrwt>
<pdfrwt beam="2">  1       -1 0.15560576E-01 0.18354584E+03</pdfrwt>
<totfact> 0.40635216E+02</totfact>
</mgrwt>
</event>
<event>
 4    1  0.3761914E-001  0.2219235E+03  0.7546771E-02  0.1132457E+00
         -1   -1    0    0    0  501 -0.00000000000E+00  0.00000000000E+00  0.80273956725E+02  0.80273956725E+02  0.00000000000E+00 0.  1.
          1   -1    0    0  502    0  0.00000000000E+00 -0.00000000000E+00 -0.62566510355E+03  0.62566510355E+03  0.00000000000E+00 0. -1.
          6    1    1    2  502    0  0.57841139888E+01 -0.14011627368E+03 -0.22352680907E+03  0.31498295271E+03  0.17200000000E+03 0.  1.
         -6    1    1    2    0  501 -0.57841139888E+01  0.14011627368E+03 -0.32186433775E+03  0.39095610756E+03  0.17200000000E+03 0. -1.
<mgrwt>
<rscale>  2 0.22192347E+03</rscale>
<asrwt>0</asrwt>
<pdfrwt beam="1">  1        1 0.15641627E+00 0.22192347E+03</pdfrwt>
<pdfrwt beam="2">  1       -1 0.20068489E-01 0.22192347E+03</pdfrwt>
<totfact> 0.31594926E+02</totfact>
</mgrwt>
</event>
<event>
 4    1  0.3761914E-001  0.1771258E+03  0.7546771E-02  0.1170614E+00
          1   -1    0    0  502    0  0.00000000000E+00  0.00000000000E+00  0.12241639513E+04  0.12241639513E+04  0.00000000000E+00 0. -1.
         -1   -1    0    0    0  501 -0.00000000000E+00 -0.00000000000E+00 -0.34333412196E+02  0.34333412196E+02  0.00000000000E+00 0.  1.
          6    1    1    2  502    0 -0.11432048345E+02  0.40729128605E+02  0.27807188339E+03  0.32969307845E+03  0.17200000000E+03 0.  1.
         -6    1    1    2    0  501  0.11432048345E+02 -0.40729128605E+02  0.91175865568E+03  0.92880428501E+03  0.17200000000E+03 0. -1.
<mgrwt>
<rscale>  2 0.17712581E+03</rscale>
<asrwt>0</asrwt>
<pdfrwt beam="1">  1        1 0.30604084E+00 0.17712581E+03</pdfrwt>
<pdfrwt beam="2">  1       -1 0.85833571E-02 0.17712581E+03</pdfrwt>
<totfact> 0.27138438E+02</totfact>
</mgrwt>
</event>
<event>
 4    1  0.3761914E-001  0.1724579E+03  0.7546771E-02  0.1175309E+00
         -2   -1    0    0    0  501 -0.00000000000E+00  0.00000000000E+00  0.15385255792E+03  0.15385255792E+03  0.00000000000E+00 0.  1.
          2   -1    0    0  502    0  0.00000000000E+00 -0.00000000000E+00 -0.31951869567E+03  0.31951869567E+03  0.00000000000E+00 0. -1.
          6    1    1    2  502    0 -0.12511444536E+02  0.10968964764E+01 -0.23158505715E+03  0.28874448587E+03  0.17200000000E+03 0. -1.
         -6    1    1    2    0  501  0.12511444536E+02 -0.10968964764E+01  0.65918919393E+02  0.18462676772E+03  0.17200000000E+03 0.  1.
<mgrwt>
<rscale>  2 0.17245794E+03</rscale>
<asrwt>0</asrwt>
<pdfrwt beam="1">  1        2 0.79879673E-01 0.17245794E+03</pdfrwt>
<pdfrwt beam="2">  1       -2 0.38463140E-01 0.17245794E+03</pdfrwt>
<totfact> 0.38771749E+02</totfact>
</mgrwt>
</event>
<event>
 4    1  0.3761914E-001  0.1757473E+03  0.7546771E-02  0.1171983E+00
         -2   -1    0    0    0  501 -0.00000000000E+00  0.00000000000E+00  0.50179437836E+02  0.50179437836E+02  0.00000000000E+00 0. -1.
          2   -1    0    0  502    0  0.00000000000E+00 -0.00000000000E+00 -0.69904957820E+03  0.69904957820E+03  0.00000000000E+00 0.  1.
          6    1    1    2  502    0  0.32675942546E+02 -0.15342253757E+02 -0.19495085078E+03  0.26247463914E+03  0.17200000000E+03 0. -1.
         -6    1    1    2    0  501 -0.32675942546E+02  0.15342253757E+02 -0.45391928958E+03  0.48675437690E+03  0.17200000000E+03 0.  1.
<mgrwt>
<rscale>  2 0.17574727E+03</rscale>
<asrwt>0</asrwt>
<pdfrwt beam="1">  1        2 0.17476239E+00 0.17574727E+03</pdfrwt>
<pdfrwt beam="2">  1       -2 0.12544860E-01 0.17574727E+03</pdfrwt>
<totfact> 0.10071741E+03</totfact>
</mgrwt>
</event>
<event>
 4    1  0.3761914E-001  0.2112743E+03  0.7546771E-02  0.1140561E+00
         -1   -1    0    0    0  501 -0.00000000000E+00  0.00000000000E+00  0.41033499902E+02  0.41033499902E+02  0.00000000000E+00 0.  1.
          1   -1    0    0  502    0  0.00000000000E+00 -0.00000000000E+00 -0.11279490847E+04  0.11279490847E+04  0.00000000000E+00 0. -1.
          6    1    1    2  502    0 -0.38490622639E+02  0.11649598780E+03 -0.43320445166E+03  0.48197815318E+03  0.17200000000E+03 0. -1.
         -6    1    1    2    0  501  0.38490622639E+02 -0.11649598780E+03 -0.65371113315E+03  0.68700443143E+03  0.17200000000E+03 0. -1.
<mgrwt>
<rscale>  2 0.21127433E+03</rscale>
<asrwt>0</asrwt>
<pdfrwt beam="1">  1        1 0.28198726E+00 0.21127433E+03</pdfrwt>
<pdfrwt beam="2">  1       -1 0.10258375E-01 0.21127433E+03</pdfrwt>
<totfact> 0.25777333E+02</totfact>
</mgrwt>
</event>
<event>
 4    1  0.3761914E-001  0.2128776E+03  0.7546771E-02  0.1139307E+00
          2   -1    0    0  502    0  0.00000000000E+00  0.00000000000E+00  0.52360870259E+03  0.52360870259E+03  0.00000000000E+00 0.  1.
         -2   -1    0    0    0  501 -0.00000000000E+00 -0.00000000000E+00 -0.87754213944E+02  0.87754213944E+02  0.00000000000E+00 0. -1.
          6    1    1    2  502    0  0.11076384233E+03  0.58857993577E+02  0.25377670577E+03  0.33123935238E+03  0.17200000000E+03 0. -1.
         -6    1    1    2    0  501 -0.11076384233E+03 -0.58857993577E+02  0.18207778288E+03  0.28012356415E+03  0.17200000000E+03 0.  1.
<mgrwt>
<rscale>  2 0.21287765E+03</rscale>
<asrwt>0</asrwt>
<pdfrwt beam="1">  1        2 0.13090217E+00 0.21287765E+03</pdfrwt>
<pdfrwt beam="2">  1       -2 0.21938555E-01 0.21287765E+03</pdfrwt>
<totfact> 0.59092204E+02</totfact>
</mgrwt>
</event>
<event>
 4    1  0.3761914E-001  0.1871384E+03  0.7546771E-02  0.1161068E+00
         -1   -1    0    0    0  501 -0.00000000000E+00  0.00000000000E+00  0.88391265492E+02  0.88391265492E+02  0.00000000000E+00 0. -1.
          1   -1    0    0  502    0  0.00000000000E+00 -0.00000000000E+00 -0.49428923349E+03  0.49428923349E+03  0.00000000000E+00 0.  1.
          6    1    1    2  502    0 -0.33435502127E+02 -0.65717899718E+02 -0.73166320823E+02  0.20093303772E+03  0.17200000000E+03 0.  1.
         -6    1    1    2    0  501  0.33435502127E+02  0.65717899718E+02 -0.33273164718E+03  0.38174746126E+03  0.17200000000E+03 0.  1.
<mgrwt>
<rscale>  2 0.18713839E+03</rscale>
<asrwt>0</asrwt>
<pdfrwt beam="1">  1        1 0.12357231E+00 0.18713839E+03</pdfrwt>
<pdfrwt beam="2">  1       -1 0.22097817E-01 0.18713839E+03</pdfrwt>
<totfact> 0.39788617E+02</totfact>
</mgrwt>
</event>
<event>
 4    1  0.3761914E-001  0.1809756E+03  0.7546771E-02  0.1166862E+00
          2   -1    0    0  502    0  0.00000000000E+00  0.00000000000E+00  0.10374690901E+03  0.10374690901E+03  0.00000000000E+00 0. -1.
         -2   -1    0    0    0  501 -0.00000000000E+00 -0.00000000000E+00 -0.37368839055E+03  0.37368839055E+03  0.00000000000E+00 0.  1.
          6    1    1    2  502    0 -0.47529689839E+02 -0.30151027780E+02 -0.40927609426E+02  0.18554574936E+03  0.17200000000E+03 0. -1.
         -6    1    1    2    0  501  0.47529689839E+02  0.30151027780E+02 -0.22901387212E+03  0.29188955020E+03  0.17200000000E+03 0.  1.
<mgrwt>
<rscale>  2 0.18097557E+03</rscale>
<asrwt>0</asrwt>
<pdfrwt beam="1">  1        2 0.25936727E-01 0.18097557E+03</pdfrwt>
<pdfrwt beam="2">  1       -2 0.93422097E-01 0.18097557E+03</pdfrwt>
<totfact> 0.20878640E+02</totfact>
</mgrwt>
</event>
<event>
 4    1  0.3761914E-001  0.2199191E+03  0.7546771E-02  0.1133943E+00
         -2   -1    0    0    0  501 -0.00000000000E+00  0.00000000000E+00  0.45692649893E+02  0.45692649893E+02  0.00000000000E+00 0. -1.
          2   -1    0    0  502    0  0.00000000000E+00 -0.00000000000E+00 -0.16849440260E+04  0.16849440260E+04  0.00000000000E+00 0.  1.
          6    1    1    2  502    0  0.12383408017E+03 -0.58698754786E+02 -0.13472608893E+04  0.13650920580E+04  0.17200000000E+03 0. -1.
         -6    1    1    2    0  501 -0.12383408017E+03  0.58698754786E+02 -0.29199048686E+03  0.36554461785E+03  0.17200000000E+03 0.  1.
<mgrwt>
<rscale>  2 0.21991913E+03</rscale>
<asrwt>0</asrwt>
<pdfrwt beam="1">  1        2 0.42123601E+00 0.21991913E+03</pdfrwt>
<pdfrwt beam="2">  1       -2 0.11423162E-01 0.21991913E+03</pdfrwt>
<totfact> 0.16163098E+02</totfact>
</mgrwt>
</event>
<event>
 4    1  0.3761914E-001  0.1922280E+03  0.7546771E-02  0.1156467E+00
         -2   -1    0    0    0  501 -0.00000000000E+00  0.00000000000E+00  0.59745953756E+02  0.59745953756E+02  0.00000000000E+00 0. -1.
          2   -1    0    0  502    0  0.00000000000E+00 -0.00000000000E+00 -0.71350344910E+03  0.71350344910E+03  0.00000000000E+00 0.  1.
          6    1    1    2  502    0 -0.85830796861E+02 -0.81219535257E+00 -0.46797337538E+03  0.50591567026E+03  0.17200000000E+03 0.  1.
         -6    1    1    2    0  501  0.85830796861E+02  0.81219535257E+00 -0.18578411996E+03  0.26733373259E+03  0.17200000000E+03 0. -1.
<mgrwt>
<rscale>  2 0.19222795E+03</rscale>
<asrwt>0</asrwt>
<pdfrwt beam="1">  1        2 0.17837586E+00 0.19222795E+03</pdfrwt>
<pdfrwt beam="2">  1       -2 0.14936488E-01 0.19222795E+03</pdfrwt>
<totfact> 0.73403692E+02</totfact>
</mgrwt>
</event>
<event>
 4    1  0.3761914E-001  0.2072954E+03  0.7546771E-02  0.1143726E+00
         -2   -1    0    0    0  501 -0.00000000000E+00  0.00000000000E+00  0.11124371509E+03  0.11124371509E+03  0.00000000000E+00 0. -1.
          2   -1    0    0  502    0  0.00000000000E+00 -0.00000000000E+00 -0.45660737830E+03  0.45660737830E+03  0.00000000000E+00 0.  1.
          6    1    1    2  502    0 -0.10361672558E+03  0.51487599607E+02 -0.28410880238E+03  0.35169476869E+03  0.17200000000E+03 0.  1.
         -6    1    1    2    0  501  0.10361672558E+03 -0.51487599607E+02 -0.61254860832E+02  0.21615632470E+03  0.17200000000E+03 0.  1.
<mgrwt>
<rscale>  2 0.20729544E+03</rscale>
<asrwt>0</asrwt>
<pdfrwt beam="1">  1        2 0.11415184E+00 0.20729544E+03</pdfrwt>
<pdfrwt beam="2">  1       -2 0.27810929E-01 0.20729544E+03</pdfrwt>
<totfact> 0.46298017E+02</totfact>
</mgrwt>
</event>
<event>
 4    1  0.3761914E-001  0.2406214E+03  0.7546771E-02  0.1119380E+00
         -2   -1    0    0    0  501 -0.00000000000E+00  0.00000000000E+00  0.26785988695E+03  0.26785988695E+03  0.00000000000E+00 0. -1.
          2   -1    0    0  502    0  0.00000000000E+00 -0.00000000000E+00 -0.26017920812E+03  0.26017920812E+03  0.00000000000E+00 0.  1.
          6    1    1    2  502    0 -0.16142770479E+03  0.47494851712E+02 -0.10476630905E+03  0.26243979181E+03  0.17200000000E+03 0.  1.
         -6    1    1    2    0  501  0.16142770479E+03 -0.47494851712E+02  0.11244698788E+03  0.26559930327E+03  0.17200000000E+03 0. -1.
<mgrwt>
<rscale>  2 0.24062141E+03</rscale>
<asrwt>0</asrwt>
<pdfrwt beam="1">  1        2 0.65044802E-01 0.24062141E+03</pdfrwt>
<pdfrwt beam="2">  1       -2 0.66964972E-01 0.24062141E+03</pdfrwt>
<totfact> 0.15946969E+02</totfact>
</mgrwt>
</event>
<event>
 4    1  0.3761914E-001  0.1822623E+03  0.7546771E-02  0.1165631E+00
         -2   -1    0    0    0  501 -0.00000000000E+00  0.00000000000E+00  0.49019386053E+02  0.49019386053E+02  0.00000000000E+00 0.  1.
          2   -1    0    0  502    0  0.00000000000E+00 -0.00000000000E+00 -0.73428679335E+03  0.73428679335E+03  0.00000000000E+00 0. -1.
          6    1    1    2  502    0 -0.57784064688E+02  0.17220699880E+02 -0.45137529639E+03  0.48678456100E+03  0.17200000000E+03 0. -1.
         -6    1    1    2    0  501  0.57784064688E+02 -0.17220699880E+02 -0.23389211091E+03  0.29652161841E+03  0.17200000000E+03 0. -1.
<mgrwt>
<rscale>  2 0.18226231E+03</rscale>
<asrwt>0</asrwt>
<pdfrwt beam="1">  1        2 0.18357169E+00 0.18226231E+03</pdfrwt>
<pdfrwt beam="2">  1       -2 0.12254847E-01 0.18226231E+03</pdfrwt>
<totfact> 0.97025498E+02</totfact>
</mgrwt>
</event>
<event>
 4    1  0.3761914E-001  0.1901572E+03  0.7546771E-02  0.1158320E+00
         -2   -1    0    0    0  501 -0.00000000000E+00  0.00000000000E+00  0.67018435134E+03  0.67018435134E+03  0.00000000000E+00 0. -1.
          2   -1    0    0  502    0  0.00000000000E+00 -0.00000000000E+00 -0.54001891768E+02  0.54001891768E+02  0.00000000000E+00 0.  1.
          6    1    1    2  502    0  0.64020717362E+01 -0.80838046727E+02  0.29741778282E+03  0.35301149253E+03  0.17200000000E+03 0.  1.
         -6    1    1    2    0  501 -0.64020717362E+01  0.80838046727E+02  0.31876467675E+03  0.37117475058E+03  0.17200000000E+03 0. -1.
<mgrwt>
<rscale>  2 0.19015724E+03</rscale>
<asrwt>0</asrwt>
<pdfrwt beam="1">  1        2 0.13500475E-01 0.19015724E+03</pdfrwt>
<pdfrwt beam="2">  1       -2 0.16754606E+00 0.19015724E+03</pdfrwt>
<totfact> 0.10551615E+02</totfact>
</mgrwt>
</event>
<event>
 4    1  0.3761914E-001  0.3041448E+03  0.7546771E-02  0.1083187E+00
         -2   -1    0    0    0  501 -0.00000000000E+00  0.00000000000E+00  0.19284539197E+03  0.19284539197E+03  0.00000000000E+00 0. -1.
          2   -1    0    0  502    0  0.00000000000E+00 -0.00000000000E+00 -0.65040155829E+03  0.65040155829E+03  0.00000000000E+00 0.  1.
          6    1    1    2  502    0 -0.15311174005E+03  0.19868786887E+03 -0.12765921595E+02  0.30441261953E+03  0.17200000000E+03 0. -1.
         -6    1    1    2    0  501  0.15311174005E+03 -0.19868786887E+03 -0.44479024472E+03  0.53883433074E+03  0.17200000000E+03 0.  1.
<mgrwt>
<rscale>  2 0.30414482E+03</rscale>
<asrwt>0</asrwt>
<pdfrwt beam="1">  1        2 0.16260039E+00 0.30414482E+03</pdfrwt>
<pdfrwt beam="2">  1       -2 0.48211348E-01 0.30414482E+03</pdfrwt>
<totfact> 0.10080629E+02</totfact>
</mgrwt>
</event>
<event>
 4    1  0.3761914E-001  0.1973982E+03  0.7546771E-02  0.1151953E+00
          1   -1    0    0  502    0  0.00000000000E+00  0.00000000000E+00  0.60163792879E+02  0.60163792879E+02  0.00000000000E+00 0.  1.
         -1   -1    0    0    0  501 -0.00000000000E+00 -0.00000000000E+00 -0.79718694032E+03  0.79718694032E+03  0.00000000000E+00 0. -1.
          6    1    1    2  502    0  0.95043482935E+02  0.18675981576E+02 -0.18285978426E+03  0.26907946156E+03  0.17200000000E+03 0. -1.
         -6    1    1    2    0  501 -0.95043482935E+02 -0.18675981576E+02 -0.55416336318E+03  0.58827127163E+03  0.17200000000E+03 0. -1.
<mgrwt>
<rscale>  2 0.19739822E+03</rscale>
<asrwt>0</asrwt>
<pdfrwt beam="1">  1        1 0.15040948E-01 0.19739822E+03</pdfrwt>
<pdfrwt beam="2">  1       -1 0.19929673E+00 0.19739822E+03</pdfrwt>
<totfact> 0.63856593E+01</totfact>
</mgrwt>
</event>
<event>
 4    1  0.3761914E-001  0.2065716E+03  0.7546771E-02  0.1144310E+00
         -1   -1    0    0    0  501 -0.00000000000E+00  0.00000000000E+00  0.18126217310E+03  0.18126217310E+03  0.00000000000E+00 0. -1.
          1   -1    0    0  502    0  0.00000000000E+00 -0.00000000000E+00 -0.23567480807E+03  0.23567480807E+03  0.00000000000E+00 0.  1.
          6    1    1    2  502    0  0.49099233576E+01  0.11429662641E+03 -0.20284047230E+02  0.20756509516E+03  0.17200000000E+03 0. -1.
         -6    1    1    2    0  501 -0.49099233576E+01 -0.11429662641E+03 -0.34128587739E+02  0.20937188602E+03  0.17200000000E+03 0.  1.
<mgrwt>
<rscale>  2 0.20657160E+03</rscale>
<asrwt>0</asrwt>
<pdfrwt beam="1">  1        1 0.58918702E-01 0.20657160E+03</pdfrwt>
<pdfrwt beam="2">  1       -1 0.45315543E-01 0.20657160E+03</pdfrwt>
<totfact> 0.31974253E+02</totfact>
</mgrwt>
</event>
<event>
 4    1  0.3761914E-001  0.2268968E+03  0.7546771E-02  0.1128843E+00
          1   -1    0    0  502    0  0.00000000000E+00  0.00000000000E+00  0.36485957101E+03  0.36485957101E+03  0.00000000000E+00 0.  1.
         -1   -1    0    0    0  501 -0.00000000000E+00 -0.00000000000E+00 -0.15213706142E+03  0.15213706142E+03  0.00000000000E+00 0. -1.
          6    1    1    2  502    0 -0.14314823006E+03 -0.37506673469E+02  0.17598237482E+03  0.28714449772E+03  0.17200000000E+03 0.  1.
         -6    1    1    2    0  501  0.14314823006E+03  0.37506673469E+02  0.36740134769E+02  0.22985213470E+03  0.17200000000E+03 0. -1.
<mgrwt>
<rscale>  2 0.22689682E+03</rscale>
<asrwt>0</asrwt>
<pdfrwt beam="1">  1        1 0.91214891E-01 0.22689682E+03</pdfrwt>
<pdfrwt beam="2">  1       -1 0.38034266E-01 0.22689682E+03</pdfrwt>
<totfact> 0.24513683E+02</totfact>
</mgrwt>
</event>
<event>
 4    1  0.3761914E-001  0.2478851E+03  0.7546771E-02  0.1114649E+00
         -1   -1    0    0    0  501 -0.00000000000E+00  0.00000000000E+00  0.16648381300E+03  0.16648381300E+03  0.00000000000E+00 0. -1.
          1   -1    0    0  502    0  0.00000000000E+00 -0.00000000000E+00 -0.39578372030E+03  0.39578372030E+03  0.00000000000E+00 0.  1.
          6    1    1    2  502    0  0.72380714527E+02  0.16316876862E+03 -0.41634831171E+02  0.25135726378E+03  0.17200000000E+03 0. -1.
         -6    1    1    2    0  501 -0.72380714527E+02 -0.16316876862E+03 -0.18766507613E+03  0.31091026952E+03  0.17200000000E+03 0. -1.
<mgrwt>
<rscale>  2 0.24788508E+03</rscale>
<asrwt>0</asrwt>
<pdfrwt beam="1">  1        1 0.98945929E-01 0.24788508E+03</pdfrwt>
<pdfrwt beam="2">  1       -1 0.41620954E-01 0.24788508E+03</pdfrwt>
<totfact> 0.18584012E+02</totfact>
</mgrwt>
</event>
<event>
 4    1  0.3761914E-001  0.1970574E+03  0.7546771E-02  0.1152246E+00
          2   -1    0    0  502    0  0.00000000000E+00  0.00000000000E+00  0.10461785058E+04  0.10461785058E+04  0.00000000000E+00 0. -1.
         -2   -1    0    0    0  501 -0.00000000000E+00 -0.00000000000E+00 -0.39359962858E+02  0.39359962858E+02  0.00000000000E+00 0.  1.
          6    1    1    2  502    0 -0.69335418238E+01 -0.95914314157E+02  0.63296044475E+03  0.66292575322E+03  0.17200000000E+03 0. -1.
         -6    1    1    2    0  501  0.69335418238E+01  0.95914314157E+02  0.37385809815E+03  0.42261271539E+03  0.17200000000E+03 0.  1.
<mgrwt>
<rscale>  2 0.19705743E+03</rscale>
<asrwt>0</asrwt>
<pdfrwt beam="1">  1        2 0.26154453E+00 0.19705743E+03</pdfrwt>
<pdfrwt beam="2">  1       -2 0.98399942E-02 0.19705743E+03</pdfrwt>
<totfact> 0.73628432E+02</totfact>
</mgrwt>
</event>
<event>
 4    1  0.3761914E-001  0.1990181E+03  0.7546771E-02  0.1150570E+00
         -2   -1    0    0    0  501 -0.00000000000E+00  0.00000000000E+00  0.65828935990E+02  0.65828935990E+02  0.00000000000E+00 0. -1.
          2   -1    0    0  502    0  0.00000000000E+00 -0.00000000000E+00 -0.66202350801E+03  0.66202350801E+03  0.00000000000E+00 0.  1.
          6    1    1    2  502    0 -0.71902650932E+02 -0.69672152307E+02 -0.40796712362E+03  0.45392221137E+03  0.17200000000E+03 0. -1.
         -6    1    1    2    0  501  0.71902650932E+02  0.69672152307E+02 -0.18822744840E+03  0.27393023263E+03  0.17200000000E+03 0. -1.
<mgrwt>
<rscale>  2 0.19901809E+03</rscale>
<asrwt>0</asrwt>
<pdfrwt beam="1">  1        2 0.16550587E+00 0.19901809E+03</pdfrwt>
<pdfrwt beam="2">  1       -2 0.16457234E-01 0.19901809E+03</pdfrwt>
<totfact> 0.69837611E+02</totfact>
</mgrwt>
</event>
<event>
 4    1  0.3761914E-001  0.2388670E+03  0.7546771E-02  0.1120550E+00
          4   -1    0    0  502    0  0.00000000000E+00  0.00000000000E+00  0.63501495440E+02  0.63501495440E+02  0.00000000000E+00 0. -1.
         -4   -1    0    0    0  501 -0.00000000000E+00 -0.00000000000E+00 -0.90516656835E+03  0.90516656835E+03  0.00000000000E+00 0.  1.
          6    1    1    2  502    0 -0.46041874402E+02 -0.15922812243E+03 -0.46233133126E+03  0.52039188026E+03  0.17200000000E+03 0. -1.
         -6    1    1    2    0  501  0.46041874402E+02  0.15922812243E+03 -0.37933374164E+03  0.44827618353E+03  0.17200000000E+03 0. -1.
<mgrwt>
<rscale>  2 0.23886701E+03</rscale>
<asrwt>0</asrwt>
<pdfrwt beam="1">  1        4 0.15875374E-01 0.23886701E+03</pdfrwt>
<pdfrwt beam="2">  1       -4 0.22629164E+00 0.23886701E+03</pdfrwt>
<totfact> 0.61140079E+00</totfact>
</mgrwt>
</event>
<event>
 4    1  0.3761914E-001  0.2838747E+03  0.7546771E-02  0.1093591E+00
          2   -1    0    0  502    0  0.00000000000E+00  0.00000000000E+00  0.18665826200E+03  0.18665826200E+03  0.00000000000E+00 0. -1.
         -2   -1    0    0    0  501 -0.00000000000E+00 -0.00000000000E+00 -0.50510985636E+03  0.50510985636E+03  0.00000000000E+00 0.  1.
          6    1    1    2  502    0  0.22077748320E+02 -0.22475191594E+03 -0.29106477335E+03  0.40657539642E+03  0.17200000000E+03 0.  1.
         -6    1    1    2    0  501 -0.22077748320E+02  0.22475191594E+03 -0.27386821016E+02  0.28519272195E+03  0.17200000000E+03 0. -1.
<mgrwt>
<rscale>  2 0.28387471E+03</rscale>
<asrwt>0</asrwt>
<pdfrwt beam="1">  1        2 0.46664566E-01 0.28387471E+03</pdfrwt>
<pdfrwt beam="2">  1       -2 0.12627746E+00 0.28387471E+03</pdfrwt>
<totfact> 0.53344254E+01</totfact>
</mgrwt>
</event>
<event>
 4    1  0.3761914E-001  0.1757894E+03  0.7546771E-02  0.1171941E+00
         -2   -1    0    0    0  501 -0.00000000000E+00  0.00000000000E+00  0.84670947623E+02  0.84670947623E+02  0.00000000000E+00 0. -1.
          2   -1    0    0  502    0  0.00000000000E+00 -0.00000000000E+00 -0.38738727821E+03  0.38738727821E+03  0.00000000000E+00 0.  1.
          6    1    1    2  502    0  0.14626978807E+02 -0.33226177727E+02 -0.94573203519E+02  0.19961467436E+03  0.17200000000E+03 0. -1.
         -6    1    1    2    0  501 -0.14626978807E+02  0.33226177727E+02 -0.20814312707E+03  0.27244355148E+03  0.17200000000E+03 0. -1.
<mgrwt>
<rscale>  2 0.17578944E+03</rscale>
<asrwt>0</asrwt>
<pdfrwt beam="1">  1        2 0.96846818E-01 0.17578944E+03</pdfrwt>
<pdfrwt beam="2">  1       -2 0.21167737E-01 0.17578944E+03</pdfrwt>
<totfact> 0.90998033E+02</totfact>
</mgrwt>
</event>
<event>
 4    1  0.3761914E-001  0.1822350E+03  0.7546771E-02  0.1165657E+00
         -2   -1    0    0    0  501 -0.00000000000E+00  0.00000000000E+00  0.55384806047E+02  0.55384806047E+02  0.00000000000E+00 0.  1.
          2   -1    0    0  502    0  0.00000000000E+00 -0.00000000000E+00 -0.87314567159E+03  0.87314567159E+03  0.00000000000E+00 0. -1.
          6    1    1    2  502    0 -0.45689940932E+02  0.39217441645E+02 -0.14902872610E+03  0.23541270067E+03  0.17200000000E+03 0.  1.
         -6    1    1    2    0  501  0.45689940932E+02 -0.39217441645E+02 -0.66873213944E+03  0.69311777697E+03  0.17200000000E+03 0. -1.
<mgrwt>
<rscale>  2 0.18223495E+03</rscale>
<asrwt>0</asrwt>
<pdfrwt beam="1">  1        2 0.21828642E+00 0.18223495E+03</pdfrwt>
<pdfrwt beam="2">  1       -2 0.13846201E-01 0.18223495E+03</pdfrwt>
<totfact> 0.59936045E+02</totfact>
</mgrwt>
</event>
<event>
 4    1  0.3761914E-001  0.2819932E+03  0.7546771E-02  0.1094605E+00
          1   -1    0    0  502    0  0.00000000000E+00  0.00000000000E+00  0.96727686625E+03  0.96727686625E+03  0.00000000000E+00 0.  1.
         -1   -1    0    0    0  501 -0.00000000000E+00 -0.00000000000E+00 -0.10291801122E+03  0.10291801122E+03  0.00000000000E+00 0. -1.
          6    1    1    2  502    0  0.91143215639E+02 -0.20403211652E+03  0.67220221868E+03  0.72895542602E+03  0.17200000000E+03 0.  1.
         -6    1    1    2    0  501 -0.91143215639E+02  0.20403211652E+03  0.19215663635E+03  0.34123945144E+03  0.17200000000E+03 0. -1.
<mgrwt>
<rscale>  2 0.28199325E+03</rscale>
<asrwt>0</asrwt>
<pdfrwt beam="1">  1        1 0.24181919E+00 0.28199325E+03</pdfrwt>
<pdfrwt beam="2">  1       -1 0.25729506E-01 0.28199325E+03</pdfrwt>
<totfact> 0.85722569E+01</totfact>
</mgrwt>
</event>
<event>
 4    1  0.3761914E-001  0.2023078E+03  0.7546771E-02  0.1147806E+00
          3   -1    0    0  502    0  0.00000000000E+00  0.00000000000E+00  0.18038258533E+03  0.18038258533E+03  0.00000000000E+00 0. -1.
         -3   -1    0    0    0  501 -0.00000000000E+00 -0.00000000000E+00 -0.27523505150E+03  0.27523505150E+03  0.00000000000E+00 0.  1.
          6    1    1    2  502    0  0.65850324636E+02 -0.83714914692E+02 -0.14289441025E+03  0.24768379979E+03  0.17200000000E+03 0. -1.
         -6    1    1    2    0  501 -0.65850324636E+02  0.83714914692E+02  0.48041944079E+02  0.20793383704E+03  0.17200000000E+03 0. -1.
<mgrwt>
<rscale>  2 0.20230782E+03</rscale>
<asrwt>0</asrwt>
<pdfrwt beam="1">  1        3 0.45095647E-01 0.20230782E+03</pdfrwt>
<pdfrwt beam="2">  1       -3 0.68808762E-01 0.20230782E+03</pdfrwt>
<totfact> 0.24778729E+01</totfact>
</mgrwt>
</event>
<event>
 4    1  0.3761914E-001  0.2128350E+03  0.7546771E-02  0.1139340E+00
         -1   -1    0    0    0  501 -0.00000000000E+00  0.00000000000E+00  0.18571178190E+03  0.18571178190E+03  0.00000000000E+00 0.  1.
          1   -1    0    0  502    0  0.00000000000E+00 -0.00000000000E+00 -0.25114934377E+03  0.25114934377E+03  0.00000000000E+00 0. -1.
          6    1    1    2  502    0 -0.47817492699E+02  0.11588014261E+03 -0.69779396969E+02  0.22398188387E+03  0.17200000000E+03 0.  1.
         -6    1    1    2    0  501  0.47817492699E+02 -0.11588014261E+03  0.43418351039E+01  0.21287924181E+03  0.17200000000E+03 0. -1.
<mgrwt>
<rscale>  2 0.21283496E+03</rscale>
<asrwt>0</asrwt>
<pdfrwt beam="1">  1        1 0.62787336E-01 0.21283496E+03</pdfrwt>
<pdfrwt beam="2">  1       -1 0.46427946E-01 0.21283496E+03</pdfrwt>
<totfact> 0.28193281E+02</totfact>
</mgrwt>
</event>
<event>
 4    1  0.3761914E-001  0.2174820E+03  0.7546771E-02  0.1135774E+00
          2   -1    0    0  502    0  0.00000000000E+00  0.00000000000E+00  0.48974225926E+03  0.48974225926E+03  0.00000000000E+00 0.  1.
         -2   -1    0    0    0  501 -0.00000000000E+00 -0.00000000000E+00 -0.98807138993E+02  0.98807138993E+02  0.00000000000E+00 0. -1.
          6    1    1    2  502    0  0.77868031814E+02  0.10793982405E+03  0.15126923244E+03  0.26491662212E+03  0.17200000000E+03 0. -1.
         -6    1    1    2    0  501 -0.77868031814E+02 -0.10793982405E+03  0.23966588783E+03  0.32363277613E+03  0.17200000000E+03 0.  1.
<mgrwt>
<rscale>  2 0.21748204E+03</rscale>
<asrwt>0</asrwt>
<pdfrwt beam="1">  1        2 0.12243556E+00 0.21748204E+03</pdfrwt>
<pdfrwt beam="2">  1       -2 0.24701786E-01 0.21748204E+03</pdfrwt>
<totfact> 0.52324198E+02</totfact>
</mgrwt>
</event>
<event>
 4    1  0.3761914E-001  0.1838859E+03  0.7546771E-02  0.1164094E+00
          2   -1    0    0  502    0  0.00000000000E+00  0.00000000000E+00  0.14497970022E+03  0.14497970022E+03  0.00000000000E+00 0.  1.
         -2   -1    0    0    0  501 -0.00000000000E+00 -0.00000000000E+00 -0.49929843585E+03  0.49929843585E+03  0.00000000000E+00 0. -1.
          6    1    1    2  502    0  0.91308843072E+01  0.64394497265E+02 -0.41231623831E+03  0.45146284974E+03  0.17200000000E+03 0. -1.
         -6    1    1    2    0  501 -0.91308843072E+01 -0.64394497265E+02  0.57997502671E+02  0.19281528633E+03  0.17200000000E+03 0.  1.
<mgrwt>
<rscale>  2 0.18388590E+03</rscale>
<asrwt>0</asrwt>
<pdfrwt beam="1">  1        2 0.36244925E-01 0.18388590E+03</pdfrwt>
<pdfrwt beam="2">  1       -2 0.12482461E+00 0.18388590E+03</pdfrwt>
<totfact> 0.73161967E+01</totfact>
</mgrwt>
</event>
<event>
 4    1  0.3761914E-001  0.2113205E+03  0.7546771E-02  0.1140525E+00
         -1   -1    0    0    0  501 -0.00000000000E+00  0.00000000000E+00  0.13024018082E+03  0.13024018082E+03  0.00000000000E+00 0. -1.
          1   -1    0    0  502    0  0.00000000000E+00 -0.00000000000E+00 -0.35830943537E+03  0.35830943537E+03  0.00000000000E+00 0.  1.
          6    1    1    2  502    0 -0.97657377630E+02  0.74400142576E+02 -0.16473004679E+03  0.26794091314E+03  0.17200000000E+03 0.  1.
         -6    1    1    2    0  501  0.97657377630E+02 -0.74400142576E+02 -0.63339207755E+02  0.22060870305E+03  0.17200000000E+03 0.  1.
<mgrwt>
<rscale>  2 0.21132048E+03</rscale>
<asrwt>0</asrwt>
<pdfrwt beam="1">  1        1 0.89577358E-01 0.21132048E+03</pdfrwt>
<pdfrwt beam="2">  1       -1 0.32560046E-01 0.21132048E+03</pdfrwt>
<totfact> 0.32986348E+02</totfact>
</mgrwt>
</event>
<event>
 4    1  0.3761914E-001  0.1913537E+03  0.7546771E-02  0.1157246E+00
         -1   -1    0    0    0  501 -0.00000000000E+00  0.00000000000E+00  0.22978920693E+03  0.22978920693E+03  0.00000000000E+00 0.  1.
          1   -1    0    0  502    0  0.00000000000E+00 -0.00000000000E+00 -0.18348343453E+03  0.18348343453E+03  0.00000000000E+00 0. -1.
          6    1    1    2  502    0 -0.54135801111E+02 -0.64043232521E+02  0.98098253835E+02  0.21503369038E+03  0.17200000000E+03 0.  1.
         -6    1    1    2    0  501  0.54135801111E+02  0.64043232521E+02 -0.51792481434E+02  0.19823895108E+03  0.17200000000E+03 0. -1.
<mgrwt>
<rscale>  2 0.19135365E+03</rscale>
<asrwt>0</asrwt>
<pdfrwt beam="1">  1        1 0.45870859E-01 0.19135365E+03</pdfrwt>
<pdfrwt beam="2">  1       -1 0.57447302E-01 0.19135365E+03</pdfrwt>
<totfact> 0.28300590E+02</totfact>
</mgrwt>
</event>
<event>
 4    1  0.3761914E-001  0.1833145E+03  0.7546771E-02  0.1164633E+00
         -2   -1    0    0    0  501 -0.00000000000E+00  0.00000000000E+00  0.10747914801E+03  0.10747914801E+03  0.00000000000E+00 0.  1.
          2   -1    0    0  502    0  0.00000000000E+00 -0.00000000000E+00 -0.32222855222E+03  0.32222855222E+03  0.00000000000E+00 0. -1.
          6    1    1    2  502    0 -0.62853253527E+02  0.83464554123E+01 -0.70346383626E+02  0.19634869107E+03  0.17200000000E+03 0.  1.
         -6    1    1    2    0  501  0.62853253527E+02 -0.83464554123E+01 -0.14440302058E+03  0.23335900915E+03  0.17200000000E+03 0. -1.
<mgrwt>
<rscale>  2 0.18331447E+03</rscale>
<asrwt>0</asrwt>
<pdfrwt beam="1">  1        2 0.80557138E-01 0.18331447E+03</pdfrwt>
<pdfrwt beam="2">  1       -2 0.26869787E-01 0.18331447E+03</pdfrwt>
<totfact> 0.74038902E+02</totfact>
</mgrwt>
</event>
<event>
 4    1  0.3761914E-001  0.1749265E+03  0.7546771E-02  0.1172806E+00
         -2   -1    0    0    0  501 -0.00000000000E+00  0.00000000000E+00  0.21682304864E+03  0.21682304864E+03  0.00000000000E+00 0.  1.
          2   -1    0    0  502    0  0.00000000000E+00 -0.00000000000E+00 -0.14978227374E+03  0.14978227374E+03  0.00000000000E+00 0. -1.
          6    1    1    2  502    0  0.12953489658E+02 -0.29111517554E+02  0.77587559666E+02  0.19136118406E+03  0.17200000000E+03 0.  1.
         -6    1    1    2    0  501 -0.12953489658E+02  0.29111517554E+02 -0.10546784763E+02  0.17524413833E+03  0.17200000000E+03 0. -1.
<mgrwt>
<rscale>  2 0.17492648E+03</rscale>
<asrwt>0</asrwt>
<pdfrwt beam="1">  1        2 0.37445569E-01 0.17492648E+03</pdfrwt>
<pdfrwt beam="2">  1       -2 0.54205762E-01 0.17492648E+03</pdfrwt>
<totfact> 0.44944563E+02</totfact>
</mgrwt>
</event>
<event>
 4    1  0.3761914E-001  0.1721150E+03  0.7546771E-02  0.1175660E+00
         -2   -1    0    0    0  501 -0.00000000000E+00  0.00000000000E+00  0.87927392173E+02  0.87927392173E+02  0.00000000000E+00 0.  1.
          2   -1    0    0  502    0  0.00000000000E+00 -0.00000000000E+00 -0.36793347356E+03  0.36793347356E+03  0.00000000000E+00 0. -1.
          6    1    1    2  502    0 -0.30645043187E+01  0.54946995295E+01 -0.20618896608E+03  0.26858420028E+03  0.17200000000E+03 0. -1.
         -6    1    1    2    0  501  0.30645043187E+01 -0.54946995295E+01 -0.73817115311E+02  0.18727666545E+03  0.17200000000E+03 0.  1.
<mgrwt>
<rscale>  2 0.17211503E+03</rscale>
<asrwt>0</asrwt>
<pdfrwt beam="1">  1        2 0.91983368E-01 0.17211503E+03</pdfrwt>
<pdfrwt beam="2">  1       -2 0.21981848E-01 0.17211503E+03</pdfrwt>
<totfact> 0.90505232E+02</totfact>
</mgrwt>
</event>
<event>
 4    1  0.3761914E-001  0.2536435E+03  0.7546771E-02  0.1111024E+00
          2   -1    0    0  502    0  0.00000000000E+00  0.00000000000E+00  0.76011438455E+03  0.76011438455E+03  0.00000000000E+00 0. -1.
         -2   -1    0    0    0  501 -0.00000000000E+00 -0.00000000000E+00 -0.87193786777E+02  0.87193786777E+02  0.00000000000E+00 0.  1.
          6    1    1    2  502    0 -0.54882052186E+02 -0.17815433103E+03  0.40898422393E+03  0.48125159817E+03  0.17200000000E+03 0. -1.
         -6    1    1    2    0  501  0.54882052186E+02  0.17815433103E+03  0.26393637385E+03  0.36605657316E+03  0.17200000000E+03 0.  1.
<mgrwt>
<rscale>  2 0.25364346E+03</rscale>
<asrwt>0</asrwt>
<pdfrwt beam="1">  1        2 0.19002858E+00 0.25364346E+03</pdfrwt>
<pdfrwt beam="2">  1       -2 0.21798449E-01 0.25364346E+03</pdfrwt>
<totfact> 0.34859515E+02</totfact>
</mgrwt>
</event>
<event>
 4    1  0.3761914E-001  0.3340207E+03  0.7546771E-02  0.1069372E+00
          1   -1    0    0  502    0  0.00000000000E+00  0.00000000000E+00  0.70999751350E+03  0.70999751350E+03  0.00000000000E+00 0.  1.
         -1   -1    0    0    0  501 -0.00000000000E+00 -0.00000000000E+00 -0.15762967999E+03  0.15762967999E+03  0.00000000000E+00 0. -1.
          6    1    1    2  502    0  0.28348919900E+03  0.40245805451E+02  0.30033374817E+03  0.44918839154E+03  0.17200000000E+03 0. -1.
         -6    1    1    2    0  501 -0.28348919900E+03 -0.40245805451E+02  0.25203408534E+03  0.41843880195E+03  0.17200000000E+03 0.  1.
<mgrwt>
<rscale>  2 0.33402073E+03</rscale>
<asrwt>0</asrwt>
<pdfrwt beam="1">  1        1 0.17749937E+00 0.33402073E+03</pdfrwt>
<pdfrwt beam="2">  1       -1 0.39407422E-01 0.33402073E+03</pdfrwt>
<totfact> 0.78210695E+01</totfact>
</mgrwt>
</event>
<event>
 4    1  0.3761914E-001  0.1799756E+03  0.7546771E-02  0.1167827E+00
          2   -1    0    0  502    0  0.00000000000E+00  0.00000000000E+00  0.57386550517E+03  0.57386550517E+03  0.00000000000E+00 0. -1.
         -2   -1    0    0    0  501 -0.00000000000E+00 -0.00000000000E+00 -0.62716575141E+02  0.62716575141E+02  0.00000000000E+00 0.  1.
          6    1    1    2  502    0  0.30488185268E+02  0.43332380693E+02  0.15491407921E+03  0.23746493761E+03  0.17200000000E+03 0. -1.
         -6    1    1    2    0  501 -0.30488185268E+02 -0.43332380693E+02  0.35623485082E+03  0.39911714270E+03  0.17200000000E+03 0. -1.
<mgrwt>
<rscale>  2 0.17997562E+03</rscale>
<asrwt>0</asrwt>
<pdfrwt beam="1">  1        2 0.14346636E+00 0.17997562E+03</pdfrwt>
<pdfrwt beam="2">  1       -2 0.15679146E-01 0.17997562E+03</pdfrwt>
<totfact> 0.92511519E+02</totfact>
</mgrwt>
</event>
<event>
 4    1  0.3761914E-001  0.1818974E+03  0.7546771E-02  0.1165979E+00
         -1   -1    0    0    0  501 -0.00000000000E+00  0.00000000000E+00  0.28063866382E+03  0.28063866382E+03  0.00000000000E+00 0.  1.
          1   -1    0    0  502    0  0.00000000000E+00 -0.00000000000E+00 -0.17387750132E+03  0.17387750132E+03  0.00000000000E+00 0. -1.
          6    1    1    2  502    0  0.27532863073E+02  0.52389066615E+02 -0.75566953848E+02  0.19696963564E+03  0.17200000000E+03 0. -1.
         -6    1    1    2    0  501 -0.27532863073E+02 -0.52389066615E+02  0.18232811635E+03  0.25754652951E+03  0.17200000000E+03 0.  1.
<mgrwt>
<rscale>  2 0.18189742E+03</rscale>
<asrwt>0</asrwt>
<pdfrwt beam="1">  1        1 0.43469376E-01 0.18189742E+03</pdfrwt>
<pdfrwt beam="2">  1       -1 0.70159665E-01 0.18189742E+03</pdfrwt>
<totfact> 0.20555791E+02</totfact>
</mgrwt>
</event>
<event>
 4    1  0.3761914E-001  0.1954225E+03  0.7546771E-02  0.1153660E+00
          1   -1    0    0  502    0  0.00000000000E+00  0.00000000000E+00  0.37576301178E+03  0.37576301178E+03  0.00000000000E+00 0.  1.
         -1   -1    0    0    0  501 -0.00000000000E+00 -0.00000000000E+00 -0.16144028632E+03  0.16144028632E+03  0.00000000000E+00 0. -1.
          6    1    1    2  502    0  0.60158976896E+02 -0.70617648639E+02  0.27064694127E+03  0.33382588518E+03  0.17200000000E+03 0.  1.
         -6    1    1    2    0  501 -0.60158976896E+02  0.70617648639E+02 -0.56324215807E+02  0.20337741292E+03  0.17200000000E+03 0. -1.
<mgrwt>
<rscale>  2 0.19542250E+03</rscale>
<asrwt>0</asrwt>
<pdfrwt beam="1">  1        1 0.93940751E-01 0.19542250E+03</pdfrwt>
<pdfrwt beam="2">  1       -1 0.40360072E-01 0.19542250E+03</pdfrwt>
<totfact> 0.21295599E+02</totfact>
</mgrwt>
</event>
<event>
 4    1  0.3761914E-001  0.1900330E+03  0.7546771E-02  0.1158432E+00
         -2   -1    0    0    0  501 -0.00000000000E+00  0.00000000000E+00  0.19067595760E+03  0.19067595760E+03  0.00000000000E+00 0.  1.
          2   -1    0    0  502    0  0.00000000000E+00 -0.00000000000E+00 -0.22296528622E+03  0.22296528622E+03  0.00000000000E+00 0. -1.
          6    1    1    2  502    0  0.34335062603E+02 -0.73141223844E+02 -0.96399457577E+02  0.21308540675E+03  0.17200000000E+03 0. -1.
         -6    1    1    2    0  501 -0.34335062603E+02  0.73141223844E+02  0.64110128953E+02  0.20055583707E+03  0.17200000000E+03 0.  1.
<mgrwt>
<rscale>  2 0.19003298E+03</rscale>
<asrwt>0</asrwt>
<pdfrwt beam="1">  1        2 0.55741321E-01 0.19003298E+03</pdfrwt>
<pdfrwt beam="2">  1       -2 0.47668990E-01 0.19003298E+03</pdfrwt>
<totfact> 0.37922775E+02</totfact>
</mgrwt>
</event>
<event>
 4    1  0.3761914E-001  0.1728835E+03  0.7546771E-02  0.1174874E+00
          2   -1    0    0  502    0  0.00000000000E+00  0.00000000000E+00  0.68335846140E+03  0.68335846140E+03  0.00000000000E+00 0. -1.
         -2   -1    0    0    0  501 -0.00000000000E+00 -0.00000000000E+00 -0.45282541230E+02  0.45282541230E+02  0.00000000000E+00 0.  1.
          6    1    1    2  502    0  0.11459831014E+02 -0.13167259954E+02  0.25175211476E+03  0.30539782538E+03  0.17200000000E+03 0.  1.
         -6    1    1    2    0  501 -0.11459831014E+02  0.13167259954E+02  0.38632380541E+03  0.42324317725E+03  0.17200000000E+03 0. -1.
<mgrwt>
<rscale>  2 0.17288350E+03</rscale>
<asrwt>0</asrwt>
<pdfrwt beam="1">  1        2 0.17083958E+00 0.17288350E+03</pdfrwt>
<pdfrwt beam="2">  1       -2 0.11320637E-01 0.17288350E+03</pdfrwt>
<totfact> 0.12284491E+03</totfact>
</mgrwt>
</event>
<event>
 4    1  0.3761914E-001  0.1836718E+03  0.7546771E-02  0.1164296E+00
         -2   -1    0    0    0  501 -0.00000000000E+00  0.00000000000E+00  0.41297969473E+02  0.41297969473E+02  0.00000000000E+00 0. -1.
          2   -1    0    0  502    0  0.00000000000E+00 -0.00000000000E+00 -0.81781099418E+03  0.81781099418E+03  0.00000000000E+00 0.  1.
          6    1    1    2  502    0 -0.54861839127E+02 -0.33786451338E+02 -0.37373698885E+03  0.41643088565E+03  0.17200000000E+03 0. -1.
         -6    1    1    2    0  501  0.54861839127E+02  0.33786451338E+02 -0.40277603586E+03  0.44267807801E+03  0.17200000000E+03 0.  1.
<mgrwt>
<rscale>  2 0.18367184E+03</rscale>
<asrwt>0</asrwt>
<pdfrwt beam="1">  1        2 0.20445274E+00 0.18367184E+03</pdfrwt>
<pdfrwt beam="2">  1       -2 0.10324493E-01 0.18367184E+03</pdfrwt>
<totfact> 0.10738764E+03</totfact>
</mgrwt>
</event>
<event>
 4    1  0.3761914E-001  0.1721865E+03  0.7546771E-02  0.1175587E+00
         -1   -1    0    0    0  501 -0.00000000000E+00  0.00000000000E+00  0.27432407289E+03  0.27432407289E+03  0.00000000000E+00 0. -1.
          1   -1    0    0  502    0  0.00000000000E+00 -0.00000000000E+00 -0.10862324343E+03  0.10862324343E+03  0.00000000000E+00 0.  1.
          6    1    1    2  502    0 -0.66131313738E+01 -0.45219088328E+01  0.69274903055E+02  0.18559955108E+03  0.17200000000E+03 0.  1.
         -6    1    1    2    0  501  0.66131313738E+01  0.45219088328E+01  0.96425926401E+02  0.19734776525E+03  0.17200000000E+03 0. -1.
<mgrwt>
<rscale>  2 0.17218647E+03</rscale>
<asrwt>0</asrwt>
<pdfrwt beam="1">  1        1 0.27155811E-01 0.17218647E+03</pdfrwt>
<pdfrwt beam="2">  1       -1 0.68581017E-01 0.17218647E+03</pdfrwt>
<totfact> 0.38749009E+02</totfact>
</mgrwt>
</event>
<event>
 4    1  0.3761914E-001  0.1743373E+03  0.7546771E-02  0.1173399E+00
          2   -1    0    0  502    0  0.00000000000E+00  0.00000000000E+00  0.55859672514E+03  0.55859672514E+03  0.00000000000E+00 0. -1.
         -2   -1    0    0    0  501 -0.00000000000E+00 -0.00000000000E+00 -0.54840241351E+02  0.54840241351E+02  0.00000000000E+00 0.  1.
          6    1    1    2  502    0  0.68163796851E+01  0.27623001155E+02  0.22472482459E+03  0.28442000635E+03  0.17200000000E+03 0. -1.
         -6    1    1    2    0  501 -0.68163796851E+01 -0.27623001155E+02  0.27903165919E+03  0.32901696013E+03  0.17200000000E+03 0.  1.
<mgrwt>
<rscale>  2 0.17433730E+03</rscale>
<asrwt>0</asrwt>
<pdfrwt beam="1">  1        2 0.13964916E+00 0.17433730E+03</pdfrwt>
<pdfrwt beam="2">  1       -2 0.13710062E-01 0.17433730E+03</pdfrwt>
<totfact> 0.11952084E+03</totfact>
</mgrwt>
</event>
<event>
 4    1  0.3761914E-001  0.2718966E+03  0.7546771E-02  0.1100199E+00
          2   -1    0    0  502    0  0.00000000000E+00  0.00000000000E+00  0.92944666262E+03  0.92944666262E+03  0.00000000000E+00 0. -1.
         -2   -1    0    0    0  501 -0.00000000000E+00 -0.00000000000E+00 -0.14161626844E+03  0.14161626844E+03  0.00000000000E+00 0.  1.
          6    1    1    2  502    0  0.15129057332E+03 -0.14647500874E+03  0.74847770333E+03  0.79633324566E+03  0.17200000000E+03 0. -1.
         -6    1    1    2    0  501 -0.15129057332E+03  0.14647500874E+03  0.39352690857E+02  0.27472968540E+03  0.17200000000E+03 0.  1.
<mgrwt>
<rscale>  2 0.27189661E+03</rscale>
<asrwt>0</asrwt>
<pdfrwt beam="1">  1        2 0.23236165E+00 0.27189661E+03</pdfrwt>
<pdfrwt beam="2">  1       -2 0.35404070E-01 0.27189661E+03</pdfrwt>
<totfact> 0.10248985E+02</totfact>
</mgrwt>
</event>
<event>
 4    1  0.3761914E-001  0.1721393E+03  0.7546771E-02  0.1175635E+00
          1   -1    0    0  502    0  0.00000000000E+00  0.00000000000E+00  0.17050450733E+03  0.17050450733E+03  0.00000000000E+00 0.  1.
         -1   -1    0    0    0  501 -0.00000000000E+00 -0.00000000000E+00 -0.18483572451E+03  0.18483572451E+03  0.00000000000E+00 0. -1.
          6    1    1    2  502    0  0.13854670385E+01  0.67829990943E+01 -0.50599052476E+02  0.17942182896E+03  0.17200000000E+03 0. -1.
         -6    1    1    2    0  501 -0.13854670385E+01 -0.67829990943E+01  0.36267835292E+02  0.17591840288E+03  0.17200000000E+03 0.  1.
<mgrwt>
<rscale>  2 0.17213927E+03</rscale>
<asrwt>0</asrwt>
<pdfrwt beam="1">  1        1 0.42626127E-01 0.17213927E+03</pdfrwt>
<pdfrwt beam="2">  1       -1 0.46208931E-01 0.17213927E+03</pdfrwt>
<totfact> 0.46451561E+02</totfact>
</mgrwt>
</event>
<event>
 4    1  0.3761914E-001  0.3128710E+03  0.7546771E-02  0.1078978E+00
          2   -1    0    0  502    0  0.00000000000E+00  0.00000000000E+00  0.97309140720E+03  0.97309140720E+03  0.00000000000E+00 0.  1.
         -2   -1    0    0    0  501 -0.00000000000E+00 -0.00000000000E+00 -0.10375800779E+03  0.10375800779E+03  0.00000000000E+00 0. -1.
          6    1    1    2  502    0  0.12758683378E+02 -0.26103919351E+03  0.52867284074E+03  0.61431524243E+03  0.17200000000E+03 0.  1.
         -6    1    1    2    0  501 -0.12758683378E+02  0.26103919351E+03  0.34066055867E+03  0.46253417256E+03  0.17200000000E+03 0. -1.
<mgrwt>
<rscale>  2 0.31287097E+03</rscale>
<asrwt>0</asrwt>
<pdfrwt beam="1">  1        2 0.24327282E+00 0.31287097E+03</pdfrwt>
<pdfrwt beam="2">  1       -2 0.25939505E-01 0.31287097E+03</pdfrwt>
<totfact> 0.16441548E+02</totfact>
</mgrwt>
</event>
<event>
 4    1  0.3761914E-001  0.1985657E+03  0.7546771E-02  0.1150955E+00
          1   -1    0    0  502    0  0.00000000000E+00  0.00000000000E+00  0.65940253952E+02  0.65940253952E+02  0.00000000000E+00 0. -1.
         -1   -1    0    0    0  501 -0.00000000000E+00 -0.00000000000E+00 -0.63382770064E+03  0.63382770064E+03  0.00000000000E+00 0.  1.
          6    1    1    2  502    0 -0.99175428683E+02 -0.29273206933E+01 -0.36719856178E+03  0.41744834247E+03  0.17200000000E+03 0.  1.
         -6    1    1    2    0  501  0.99175428683E+02  0.29273206933E+01 -0.20068888491E+03  0.28231961212E+03  0.17200000000E+03 0.  1.
<mgrwt>
<rscale>  2 0.19856569E+03</rscale>
<asrwt>0</asrwt>
<pdfrwt beam="1">  1        1 0.16485064E-01 0.19856569E+03</pdfrwt>
<pdfrwt beam="2">  1       -1 0.15845692E+00 0.19856569E+03</pdfrwt>
<totfact> 0.10906469E+02</totfact>
</mgrwt>
</event>
<event>
 4    1  0.3761914E-001  0.1794150E+03  0.7546771E-02  0.1168370E+00
          2   -1    0    0  502    0  0.00000000000E+00  0.00000000000E+00  0.57659869617E+03  0.57659869617E+03  0.00000000000E+00 0. -1.
         -2   -1    0    0    0  501 -0.00000000000E+00 -0.00000000000E+00 -0.83812509377E+02  0.83812509377E+02  0.00000000000E+00 0.  1.
          6    1    1    2  502    0  0.50608012495E+02 -0.66771242289E+01  0.43720123419E+03  0.47258298117E+03  0.17200000000E+03 0. -1.
         -6    1    1    2    0  501 -0.50608012495E+02  0.66771242289E+01  0.55584952604E+02  0.18782822438E+03  0.17200000000E+03 0.  1.
<mgrwt>
<rscale>  2 0.17941504E+03</rscale>
<asrwt>0</asrwt>
<pdfrwt beam="1">  1        2 0.14414966E+00 0.17941504E+03</pdfrwt>
<pdfrwt beam="2">  1       -2 0.20953129E-01 0.17941504E+03</pdfrwt>
<totfact> 0.56448971E+02</totfact>
</mgrwt>
</event>
<event>
 4    1  0.3761914E-001  0.1756717E+03  0.7546771E-02  0.1172059E+00
         -1   -1    0    0    0  501 -0.00000000000E+00  0.00000000000E+00  0.67736686729E+03  0.67736686729E+03  0.00000000000E+00 0.  1.
          1   -1    0    0  502    0  0.00000000000E+00 -0.00000000000E+00 -0.59362427302E+02  0.59362427302E+02  0.00000000000E+00 0. -1.
          6    1    1    2  502    0  0.13565518144E+02 -0.33053356891E+02  0.48662821066E+03  0.51736598563E+03  0.17200000000E+03 0. -1.
         -6    1    1    2    0  501 -0.13565518144E+02  0.33053356891E+02  0.13137622934E+03  0.21936330896E+03  0.17200000000E+03 0.  1.
<mgrwt>
<rscale>  2 0.17567170E+03</rscale>
<asrwt>0</asrwt>
<pdfrwt beam="1">  1        1 0.14840609E-01 0.17567170E+03</pdfrwt>
<pdfrwt beam="2">  1       -1 0.16934169E+00 0.17567170E+03</pdfrwt>
<totfact> 0.10477451E+02</totfact>
</mgrwt>
</event>
<event>
 4    1  0.3761914E-001  0.2112287E+03  0.7546771E-02  0.1140597E+00
         -2   -1    0    0    0  501 -0.00000000000E+00  0.00000000000E+00  0.73697884903E+02  0.73697884903E+02  0.00000000000E+00 0. -1.
          2   -1    0    0  502    0  0.00000000000E+00 -0.00000000000E+00 -0.78639085773E+03  0.78639085773E+03  0.00000000000E+00 0.  1.
          6    1    1    2  502    0  0.66240162539E+02 -0.10317848873E+03 -0.15004215055E+03  0.25909497605E+03  0.17200000000E+03 0. -1.
         -6    1    1    2    0  501 -0.66240162539E+02  0.10317848873E+03 -0.56265082228E+03  0.60099376659E+03  0.17200000000E+03 0.  1.
<mgrwt>
<rscale>  2 0.21122869E+03</rscale>
<asrwt>0</asrwt>
<pdfrwt beam="1">  1        2 0.19659771E+00 0.21122869E+03</pdfrwt>
<pdfrwt beam="2">  1       -2 0.18424471E-01 0.21122869E+03</pdfrwt>
<totfact> 0.44293108E+02</totfact>
</mgrwt>
</event>
<event>
 4    1  0.3761914E-001  0.1804292E+03  0.7546771E-02  0.1167388E+00
          2   -1    0    0  502    0  0.00000000000E+00  0.00000000000E+00  0.97368262079E+02  0.97368262079E+02  0.00000000000E+00 0. -1.
         -2   -1    0    0    0  501 -0.00000000000E+00 -0.00000000000E+00 -0.40439915314E+03  0.40439915314E+03  0.00000000000E+00 0.  1.
          6    1    1    2  502    0 -0.51211182440E+01  0.54262990971E+02 -0.49096117260E+02  0.18698964349E+03  0.17200000000E+03 0. -1.
         -6    1    1    2    0  501  0.51211182440E+01 -0.54262990971E+02 -0.25793477380E+03  0.31477777174E+03  0.17200000000E+03 0.  1.
<mgrwt>
<rscale>  2 0.18042921E+03</rscale>
<asrwt>0</asrwt>
<pdfrwt beam="1">  1        2 0.24342066E-01 0.18042921E+03</pdfrwt>
<pdfrwt beam="2">  1       -2 0.10109979E+00 0.18042921E+03</pdfrwt>
<totfact> 0.18686666E+02</totfact>
</mgrwt>
</event>
<event>
 4    1  0.3761914E-001  0.3489849E+03  0.7546771E-02  0.1063032E+00
          2   -1    0    0  502    0  0.00000000000E+00  0.00000000000E+00  0.19974799604E+03  0.19974799604E+03  0.00000000000E+00 0. -1.
         -2   -1    0    0    0  501 -0.00000000000E+00 -0.00000000000E+00 -0.61982225057E+03  0.61982225057E+03  0.00000000000E+00 0.  1.
          6    1    1    2  502    0 -0.87461928181E+02 -0.29078663316E+03 -0.15772285526E+03  0.38297121821E+03  0.17200000000E+03 0. -1.
         -6    1    1    2    0  501  0.87461928181E+02  0.29078663316E+03 -0.26235139927E+03  0.43659902841E+03  0.17200000000E+03 0.  1.
<mgrwt>
<rscale>  2 0.34898489E+03</rscale>
<asrwt>0</asrwt>
<pdfrwt beam="1">  1        2 0.49937000E-01 0.34898489E+03</pdfrwt>
<pdfrwt beam="2">  1       -2 0.15495556E+00 0.34898489E+03</pdfrwt>
<totfact> 0.29145504E+01</totfact>
</mgrwt>
</event>
<event>
 4    1  0.3761914E-001  0.1942406E+03  0.7546771E-02  0.1154691E+00
          2   -1    0    0  502    0  0.00000000000E+00  0.00000000000E+00  0.47364767185E+03  0.47364767185E+03  0.00000000000E+00 0.  1.
         -2   -1    0    0    0  501 -0.00000000000E+00 -0.00000000000E+00 -0.84922146614E+02  0.84922146614E+02  0.00000000000E+00 0. -1.
          6    1    1    2  502    0  0.15831404515E+02  0.88852481275E+02  0.26390335306E+03  0.32768029626E+03  0.17200000000E+03 0.  1.
         -6    1    1    2    0  501 -0.15831404515E+02 -0.88852481275E+02  0.12482217217E+03  0.23088952220E+03  0.17200000000E+03 0. -1.
<mgrwt>
<rscale>  2 0.19424056E+03</rscale>
<asrwt>0</asrwt>
<pdfrwt beam="1">  1        2 0.11841191E+00 0.19424056E+03</pdfrwt>
<pdfrwt beam="2">  1       -2 0.21230538E-01 0.19424056E+03</pdfrwt>
<totfact> 0.71102882E+02</totfact>
</mgrwt>
</event>
<event>
 4    1  0.3761914E-001  0.1901242E+03  0.7546771E-02  0.1158349E+00
          2   -1    0    0  502    0  0.00000000000E+00  0.00000000000E+00  0.17440433376E+04  0.17440433376E+04  0.00000000000E+00 0. -1.
         -2   -1    0    0    0  501 -0.00000000000E+00 -0.00000000000E+00 -0.21135556513E+02  0.21135556513E+02  0.00000000000E+00 0.  1.
          6    1    1    2  502    0 -0.45259530118E+02  0.67192205469E+02  0.73860945250E+03  0.76268679080E+03  0.17200000000E+03 0.  1.
         -6    1    1    2    0  501  0.45259530118E+02 -0.67192205469E+02  0.98429832864E+03  0.10024921034E+04  0.17200000000E+03 0. -1.
<mgrwt>
<rscale>  2 0.19012422E+03</rscale>
<asrwt>0</asrwt>
<pdfrwt beam="1">  1        2 0.43601035E+00 0.19012422E+03</pdfrwt>
<pdfrwt beam="2">  1       -2 0.52838950E-02 0.19012422E+03</pdfrwt>
<totfact> 0.47946341E+02</totfact>
</mgrwt>
</event>
<event>
 4    1  0.3761914E-001  0.1738386E+03  0.7546771E-02  0.1173903E+00
         -2   -1    0    0    0  501 -0.00000000000E+00  0.00000000000E+00  0.58608564253E+02  0.58608564253E+02  0.00000000000E+00 0.  1.
          2   -1    0    0  502    0  0.00000000000E+00 -0.00000000000E+00 -0.55771008516E+03  0.55771008516E+03  0.00000000000E+00 0. -1.
          6    1    1    2  502    0 -0.14865639084E+02 -0.20368534379E+02 -0.33420538932E+03  0.37671356050E+03  0.17200000000E+03 0. -1.
         -6    1    1    2    0  501  0.14865639084E+02  0.20368534379E+02 -0.16489613159E+03  0.23960508891E+03  0.17200000000E+03 0.  1.
<mgrwt>
<rscale>  2 0.17383862E+03</rscale>
<asrwt>0</asrwt>
<pdfrwt beam="1">  1        2 0.13942752E+00 0.17383862E+03</pdfrwt>
<pdfrwt beam="2">  1       -2 0.14652141E-01 0.17383862E+03</pdfrwt>
<totfact> 0.10745179E+03</totfact>
</mgrwt>
</event>
<event>
 4    1  0.3761914E-001  0.1863001E+03  0.7546771E-02  0.1161841E+00
          2   -1    0    0  502    0  0.00000000000E+00  0.00000000000E+00  0.10983686815E+04  0.10983686815E+04  0.00000000000E+00 0.  1.
         -2   -1    0    0    0  501 -0.00000000000E+00 -0.00000000000E+00 -0.18789627529E+03  0.18789627529E+03  0.00000000000E+00 0. -1.
          6    1    1    2  502    0  0.69740060211E+02 -0.16126306385E+02  0.10418017865E+04  0.10583282554E+04  0.17200000000E+03 0.  1.
         -6    1    1    2    0  501 -0.69740060211E+02  0.16126306385E+02 -0.13132938025E+03  0.22793670146E+03  0.17200000000E+03 0. -1.
<mgrwt>
<rscale>  2 0.18630012E+03</rscale>
<asrwt>0</asrwt>
<pdfrwt beam="1">  1        2 0.27459215E+00 0.18630012E+03</pdfrwt>
<pdfrwt beam="2">  1       -2 0.46974072E-01 0.18630012E+03</pdfrwt>
<totfact> 0.44044901E+01</totfact>
</mgrwt>
</event>
<event>
 4    1  0.3761914E-001  0.2039342E+03  0.7546771E-02  0.1146462E+00
          2   -1    0    0  502    0  0.00000000000E+00  0.00000000000E+00  0.93472785231E+03  0.93472785231E+03  0.00000000000E+00 0.  1.
         -2   -1    0    0    0  501 -0.00000000000E+00 -0.00000000000E+00 -0.46413261443E+02  0.46413261443E+02  0.00000000000E+00 0. -1.
          6    1    1    2  502    0  0.67899853811E+02  0.85992805022E+02  0.34438187791E+03  0.40023496911E+03  0.17200000000E+03 0.  1.
         -6    1    1    2    0  501 -0.67899853811E+02 -0.85992805022E+02  0.54393271296E+03  0.58090614465E+03  0.17200000000E+03 0. -1.
<mgrwt>
<rscale>  2 0.20393419E+03</rscale>
<asrwt>0</asrwt>
<pdfrwt beam="1">  1        2 0.23368190E+00 0.20393419E+03</pdfrwt>
<pdfrwt beam="2">  1       -2 0.11603318E-01 0.20393419E+03</pdfrwt>
<totfact> 0.70370677E+02</totfact>
</mgrwt>
</event>
<event>
 4    1  0.3761914E-001  0.1937220E+03  0.7546771E-02  0.1155146E+00
         -1   -1    0    0    0  501 -0.00000000000E+00  0.00000000000E+00  0.39276553933E+03  0.39276553933E+03  0.00000000000E+00 0.  1.
          1   -1    0    0  502    0  0.00000000000E+00 -0.00000000000E+00 -0.17030062259E+03  0.17030062259E+03  0.00000000000E+00 0. -1.
          6    1    1    2  502    0  0.78504220575E+02  0.42205677297E+02 -0.75290602876E+02  0.20783865551E+03  0.17200000000E+03 0.  1.
         -6    1    1    2    0  501 -0.78504220575E+02 -0.42205677297E+02  0.29775551962E+03  0.35522750640E+03  0.17200000000E+03 0.  1.
<mgrwt>
<rscale>  2 0.19372205E+03</rscale>
<asrwt>0</asrwt>
<pdfrwt beam="1">  1        1 0.42575156E-01 0.19372205E+03</pdfrwt>
<pdfrwt beam="2">  1       -1 0.98191383E-01 0.19372205E+03</pdfrwt>
<totfact> 0.10434279E+02</totfact>
</mgrwt>
</event>
<event>
 4    1  0.3761914E-001  0.2328013E+03  0.7546771E-02  0.1124683E+00
          1   -1    0    0  502    0  0.00000000000E+00  0.00000000000E+00  0.83142806308E+03  0.83142806308E+03  0.00000000000E+00 0. -1.
         -1   -1    0    0    0  501 -0.00000000000E+00 -0.00000000000E+00 -0.70526037072E+02  0.70526037072E+02  0.00000000000E+00 0.  1.
          6    1    1    2  502    0  0.57160689664E+02 -0.14609969316E+03  0.25634266883E+03  0.34627738686E+03  0.17200000000E+03 0. -1.
         -6    1    1    2    0  501 -0.57160689664E+02  0.14609969316E+03  0.50455935718E+03  0.55567671329E+03  0.17200000000E+03 0.  1.
<mgrwt>
<rscale>  2 0.23280134E+03</rscale>
<asrwt>0</asrwt>
<pdfrwt beam="1">  1        1 0.20785699E+00 0.23280134E+03</pdfrwt>
<pdfrwt beam="2">  1       -1 0.17631512E-01 0.23280134E+03</pdfrwt>
<totfact> 0.22632395E+02</totfact>
</mgrwt>
</event>
<event>
 4    1  0.3761914E-001  0.1931108E+03  0.7546771E-02  0.1155685E+00
         -1   -1    0    0    0  501 -0.00000000000E+00  0.00000000000E+00  0.26469307960E+03  0.26469307960E+03  0.00000000000E+00 0.  1.
          1   -1    0    0  502    0  0.00000000000E+00 -0.00000000000E+00 -0.17478444296E+03  0.17478444296E+03  0.00000000000E+00 0. -1.
          6    1    1    2  502    0  0.69544288316E+02  0.53585343408E+02  0.14172396635E+03  0.23953596745E+03  0.17200000000E+03 0.  1.
         -6    1    1    2    0  501 -0.69544288316E+02 -0.53585343408E+02 -0.51815329704E+02  0.19994155511E+03  0.17200000000E+03 0. -1.
<mgrwt>
<rscale>  2 0.19311084E+03</rscale>
<asrwt>0</asrwt>
<pdfrwt beam="1">  1        1 0.43696111E-01 0.19311084E+03</pdfrwt>
<pdfrwt beam="2">  1       -1 0.66173270E-01 0.19311084E+03</pdfrwt>
<totfact> 0.22891022E+02</totfact>
</mgrwt>
</event>
<event>
 4    1  0.3761914E-001  0.2587449E+03  0.7546771E-02  0.1107900E+00
         -2   -1    0    0    0  501 -0.00000000000E+00  0.00000000000E+00  0.22626102638E+03  0.22626102638E+03  0.00000000000E+00 0. -1.
          2   -1    0    0  502    0  0.00000000000E+00 -0.00000000000E+00 -0.31054365710E+03  0.31054365710E+03  0.00000000000E+00 0.  1.
          6    1    1    2  502    0 -0.98788220060E+01 -0.19304742351E+03  0.16158029756E+02  0.25924887805E+03  0.17200000000E+03 0. -1.
         -6    1    1    2    0  501  0.98788220060E+01  0.19304742351E+03 -0.10044066047E+03  0.27755580542E+03  0.17200000000E+03 0.  1.
<mgrwt>
<rscale>  2 0.25874485E+03</rscale>
<asrwt>0</asrwt>
<pdfrwt beam="1">  1        2 0.77635914E-01 0.25874485E+03</pdfrwt>
<pdfrwt beam="2">  1       -2 0.56565257E-01 0.25874485E+03</pdfrwt>
<totfact> 0.18604413E+02</totfact>
</mgrwt>
</event>
<event>
 4    1  0.3761914E-001  0.2209170E+03  0.7546771E-02  0.1133201E+00
          2   -1    0    0  502    0  0.00000000000E+00  0.00000000000E+00  0.11244083443E+04  0.11244083443E+04  0.00000000000E+00 0.  1.
         -2   -1    0    0    0  501 -0.00000000000E+00 -0.00000000000E+00 -0.44550429855E+02  0.44550429855E+02  0.00000000000E+00 0. -1.
          6    1    1    2  502    0 -0.12519012142E+03  0.59562967564E+02  0.63367086537E+03  0.67107606068E+03  0.17200000000E+03 0.  1.
         -6    1    1    2    0  501  0.12519012142E+03 -0.59562967564E+02  0.44618704905E+03  0.49788271345E+03  0.17200000000E+03 0.  1.
<mgrwt>
<rscale>  2 0.22091698E+03</rscale>
<asrwt>0</asrwt>
<pdfrwt beam="1">  1        2 0.28110199E+00 0.22091698E+03</pdfrwt>
<pdfrwt beam="2">  1       -2 0.11137611E-01 0.22091698E+03</pdfrwt>
<totfact> 0.51679816E+02</totfact>
</mgrwt>
</event>
<event>
 4    1  0.3761914E-001  0.2493686E+03  0.7546771E-02  0.1113705E+00
         -1   -1    0    0    0  501 -0.00000000000E+00  0.00000000000E+00  0.13031060999E+03  0.13031060999E+03  0.00000000000E+00 0.  1.
          1   -1    0    0  502    0  0.00000000000E+00 -0.00000000000E+00 -0.50237021635E+03  0.50237021635E+03  0.00000000000E+00 0. -1.
          6    1    1    2  502    0  0.13086750233E+03  0.12439610252E+03 -0.25683335834E+03  0.35797774714E+03  0.17200000000E+03 0. -1.
         -6    1    1    2    0  501 -0.13086750233E+03 -0.12439610252E+03 -0.11522624802E+03  0.27470307920E+03  0.17200000000E+03 0.  1.
<mgrwt>
<rscale>  2 0.24936859E+03</rscale>
<asrwt>0</asrwt>
<pdfrwt beam="1">  1        1 0.12559255E+00 0.24936859E+03</pdfrwt>
<pdfrwt beam="2">  1       -1 0.32577653E-01 0.24936859E+03</pdfrwt>
<totfact> 0.20057999E+02</totfact>
</mgrwt>
</event>
<event>
 4    1  0.3761914E-001  0.1864238E+03  0.7546771E-02  0.1161727E+00
          2   -1    0    0  502    0  0.00000000000E+00  0.00000000000E+00  0.16856466812E+03  0.16856466812E+03  0.00000000000E+00 0. -1.
         -2   -1    0    0    0  501 -0.00000000000E+00 -0.00000000000E+00 -0.30530489579E+03  0.30530489579E+03  0.00000000000E+00 0.  1.
          6    1    1    2  502    0 -0.71670656805E+02  0.57561910130E+01 -0.20337960730E+03  0.27589324285E+03  0.17200000000E+03 0.  1.
         -6    1    1    2    0  501  0.71670656805E+02 -0.57561910130E+01  0.66639379634E+02  0.19797632106E+03  0.17200000000E+03 0. -1.
<mgrwt>
<rscale>  2 0.18642376E+03</rscale>
<asrwt>0</asrwt>
<pdfrwt beam="1">  1        2 0.42141167E-01 0.18642376E+03</pdfrwt>
<pdfrwt beam="2">  1       -2 0.76326223E-01 0.18642376E+03</pdfrwt>
<totfact> 0.19315540E+02</totfact>
</mgrwt>
</event>
<event>
 4    1  0.3761914E-001  0.1729076E+03  0.7546771E-02  0.1174849E+00
         -2   -1    0    0    0  501 -0.00000000000E+00  0.00000000000E+00  0.11519457989E+03  0.11519457989E+03  0.00000000000E+00 0. -1.
          2   -1    0    0  502    0  0.00000000000E+00 -0.00000000000E+00 -0.55617688401E+03  0.55617688401E+03  0.00000000000E+00 0.  1.
          6    1    1    2  502    0 -0.52423838895E+01 -0.16898816869E+02 -0.46564712388E+03  0.49671349547E+03  0.17200000000E+03 0.  1.
         -6    1    1    2    0  501  0.52423838895E+01  0.16898816869E+02  0.24664819761E+02  0.17465796842E+03  0.17200000000E+03 0. -1.
<mgrwt>
<rscale>  2 0.17290764E+03</rscale>
<asrwt>0</asrwt>
<pdfrwt beam="1">  1        2 0.13904422E+00 0.17290764E+03</pdfrwt>
<pdfrwt beam="2">  1       -2 0.28798645E-01 0.17290764E+03</pdfrwt>
<totfact> 0.33950387E+02</totfact>
</mgrwt>
</event>
<event>
 4    1  0.3761914E-001  0.2678871E+03  0.7546771E-02  0.1102495E+00
          2   -1    0    0  502    0  0.00000000000E+00  0.00000000000E+00  0.18286971411E+04  0.18286971411E+04  0.00000000000E+00 0. -1.
         -2   -1    0    0    0  501 -0.00000000000E+00 -0.00000000000E+00 -0.42424036099E+02  0.42424036099E+02  0.00000000000E+00 0.  1.
          6    1    1    2  502    0 -0.32385100763E+02 -0.20280703572E+03  0.11493211210E+04  0.11801281827E+04  0.17200000000E+03 0. -1.
         -6    1    1    2    0  501  0.32385100763E+02  0.20280703572E+03  0.63695198406E+03  0.69099299453E+03  0.17200000000E+03 0.  1.
<mgrwt>
<rscale>  2 0.26788708E+03</rscale>
<asrwt>0</asrwt>
<pdfrwt beam="1">  1        2 0.45717402E+00 0.26788708E+03</pdfrwt>
<pdfrwt beam="2">  1       -2 0.10606015E-01 0.26788708E+03</pdfrwt>
<totfact> 0.13125283E+02</totfact>
</mgrwt>
</event>
<event>
 4    1  0.3761914E-001  0.1951027E+03  0.7546771E-02  0.1153938E+00
         -2   -1    0    0    0  501 -0.00000000000E+00  0.00000000000E+00  0.13093735479E+03  0.13093735479E+03  0.00000000000E+00 0. -1.
          2   -1    0    0  502    0  0.00000000000E+00 -0.00000000000E+00 -0.29073878681E+03  0.29073878681E+03  0.00000000000E+00 0.  1.
          6    1    1    2  502    0 -0.91948165111E+02  0.51589903805E+01 -0.81918704191E+02  0.21160282216E+03  0.17200000000E+03 0. -1.
         -6    1    1    2    0  501  0.91948165111E+02 -0.51589903805E+01 -0.77882727825E+02  0.21007331944E+03  0.17200000000E+03 0. -1.
<mgrwt>
<rscale>  2 0.19510274E+03</rscale>
<asrwt>0</asrwt>
<pdfrwt beam="1">  1        2 0.72684696E-01 0.19510274E+03</pdfrwt>
<pdfrwt beam="2">  1       -2 0.32734339E-01 0.19510274E+03</pdfrwt>
<totfact> 0.58092489E+02</totfact>
</mgrwt>
</event>
<event>
 4    1  0.3761914E-001  0.1984207E+03  0.7546771E-02  0.1151078E+00
         -2   -1    0    0    0  501 -0.00000000000E+00  0.00000000000E+00  0.81093564379E+02  0.81093564379E+02  0.00000000000E+00 0. -1.
          2   -1    0    0  502    0  0.00000000000E+00 -0.00000000000E+00 -0.85049031532E+03  0.85049031532E+03  0.00000000000E+00 0.  1.
          6    1    1    2  502    0  0.93942679099E+02 -0.31008796567E+02 -0.79558421446E+02  0.21377631965E+03  0.17200000000E+03 0. -1.
         -6    1    1    2    0  501 -0.93942679099E+02  0.31008796567E+02 -0.68983832950E+03  0.71780756005E+03  0.17200000000E+03 0.  1.
<mgrwt>
<rscale>  2 0.19842070E+03</rscale>
<asrwt>0</asrwt>
<pdfrwt beam="1">  1        2 0.21262258E+00 0.19842070E+03</pdfrwt>
<pdfrwt beam="2">  1       -2 0.20273391E-01 0.19842070E+03</pdfrwt>
<totfact> 0.33105784E+02</totfact>
</mgrwt>
</event>
<event>
 4    1  0.3761914E-001  0.1855259E+03  0.7546771E-02  0.1162560E+00
          1   -1    0    0  502    0  0.00000000000E+00  0.00000000000E+00  0.14506811224E+04  0.14506811224E+04  0.00000000000E+00 0. -1.
         -1   -1    0    0    0  501 -0.00000000000E+00 -0.00000000000E+00 -0.39635825101E+02  0.39635825101E+02  0.00000000000E+00 0.  1.
          6    1    1    2  502    0  0.31258036410E+02  0.62119095004E+02  0.11776162498E+04  0.11921408804E+04  0.17200000000E+03 0. -1.
         -6    1    1    2    0  501 -0.31258036410E+02 -0.62119095004E+02  0.23342904748E+03  0.29817606714E+03  0.17200000000E+03 0.  1.
<mgrwt>
<rscale>  2 0.18552587E+03</rscale>
<asrwt>0</asrwt>
<pdfrwt beam="1">  1        1 0.36267010E+00 0.18552587E+03</pdfrwt>
<pdfrwt beam="2">  1       -1 0.99089611E-02 0.18552587E+03</pdfrwt>
<totfact> 0.12567586E+02</totfact>
</mgrwt>
</event>
<event>
 4    1  0.3761914E-001  0.1742752E+03  0.7546771E-02  0.1173461E+00
          2   -1    0    0  502    0  0.00000000000E+00  0.00000000000E+00  0.28085492436E+03  0.28085492436E+03  0.00000000000E+00 0.  1.
         -2   -1    0    0    0  501 -0.00000000000E+00 -0.00000000000E+00 -0.35214357220E+03  0.35214357220E+03  0.00000000000E+00 0. -1.
          6    1    1    2  502    0 -0.15740099192E+02  0.23240115637E+02  0.22781298517E+03  0.28682853748E+03  0.17200000000E+03 0.  1.
         -6    1    1    2    0  501  0.15740099192E+02 -0.23240115637E+02 -0.29910163302E+03  0.34616995908E+03  0.17200000000E+03 0. -1.
<mgrwt>
<rscale>  2 0.17427522E+03</rscale>
<asrwt>0</asrwt>
<pdfrwt beam="1">  1        2 0.70213731E-01 0.17427522E+03</pdfrwt>
<pdfrwt beam="2">  1       -2 0.88035893E-01 0.17427522E+03</pdfrwt>
<totfact> 0.81494423E+01</totfact>
</mgrwt>
</event>
<event>
 4    1  0.3761914E-001  0.1803742E+03  0.7546771E-02  0.1167441E+00
         -1   -1    0    0    0  501 -0.00000000000E+00  0.00000000000E+00  0.56437166202E+02  0.56437166202E+02  0.00000000000E+00 0. -1.
          1   -1    0    0  502    0  0.00000000000E+00 -0.00000000000E+00 -0.96682259826E+03  0.96682259826E+03  0.00000000000E+00 0.  1.
          6    1    1    2  502    0 -0.13232771792E+02 -0.52685357695E+02 -0.78028444293E+03  0.80086120211E+03  0.17200000000E+03 0.  1.
         -6    1    1    2    0  501  0.13232771792E+02  0.52685357695E+02 -0.13010098913E+03  0.22239856235E+03  0.17200000000E+03 0. -1.
<mgrwt>
<rscale>  2 0.18037420E+03</rscale>
<asrwt>0</asrwt>
<pdfrwt beam="1">  1        1 0.24170564E+00 0.18037420E+03</pdfrwt>
<pdfrwt beam="2">  1       -1 0.14109292E-01 0.18037420E+03</pdfrwt>
<totfact> 0.23365250E+02</totfact>
</mgrwt>
</event>
<event>
 4    1  0.3761914E-001  0.2086633E+03  0.7546771E-02  0.1142629E+00
         -3   -1    0    0    0  501 -0.00000000000E+00  0.00000000000E+00  0.46814508050E+03  0.46814508050E+03  0.00000000000E+00 0.  1.
          3   -1    0    0  502    0  0.00000000000E+00 -0.00000000000E+00 -0.10299729493E+03  0.10299729493E+03  0.00000000000E+00 0. -1.
          6    1    1    2  502    0 -0.10050509357E+03 -0.62089302449E+02  0.27151650145E+03  0.34243476149E+03  0.17200000000E+03 0.  1.
         -6    1    1    2    0  501  0.10050509357E+03  0.62089302449E+02  0.93631284115E+02  0.22870761395E+03  0.17200000000E+03 0. -1.
<mgrwt>
<rscale>  2 0.20866326E+03</rscale>
<asrwt>0</asrwt>
<pdfrwt beam="1">  1        3 0.25749325E-01 0.20866326E+03</pdfrwt>
<pdfrwt beam="2">  1       -3 0.11703626E+00 0.20866326E+03</pdfrwt>
<totfact> 0.21869346E+01</totfact>
</mgrwt>
</event>
<event>
 4    1  0.3761914E-001  0.1798596E+03  0.7546771E-02  0.1167939E+00
          2   -1    0    0  502    0  0.00000000000E+00  0.00000000000E+00  0.23999967173E+03  0.23999967173E+03  0.00000000000E+00 0. -1.
         -2   -1    0    0    0  501 -0.00000000000E+00 -0.00000000000E+00 -0.15464882755E+03  0.15464882755E+03  0.00000000000E+00 0.  1.
          6    1    1    2  502    0  0.15949652522E+02  0.50110577636E+02  0.11338662816E+03  0.21261700039E+03  0.17200000000E+03 0. -1.
         -6    1    1    2    0  501 -0.15949652522E+02 -0.50110577636E+02 -0.28035783984E+02  0.18203149890E+03  0.17200000000E+03 0.  1.
<mgrwt>
<rscale>  2 0.17985956E+03</rscale>
<asrwt>0</asrwt>
<pdfrwt beam="1">  1        2 0.59999918E-01 0.17985956E+03</pdfrwt>
<pdfrwt beam="2">  1       -2 0.38662207E-01 0.17985956E+03</pdfrwt>
<totfact> 0.52490155E+02</totfact>
</mgrwt>
</event>
<event>
 4    1  0.3761914E-001  0.1863737E+03  0.7546771E-02  0.1161773E+00
         -3   -1    0    0    0  501 -0.00000000000E+00  0.00000000000E+00  0.21034318105E+03  0.21034318105E+03  0.00000000000E+00 0.  1.
          3   -1    0    0  502    0  0.00000000000E+00 -0.00000000000E+00 -0.22063912837E+03  0.22063912837E+03  0.00000000000E+00 0. -1.
          6    1    1    2  502    0 -0.71771024761E+02 -0.25666733160E+00 -0.11322876266E+03  0.21807314958E+03  0.17200000000E+03 0. -1.
         -6    1    1    2    0  501  0.71771024761E+02  0.25666733160E+00  0.10293281534E+03  0.21290915985E+03  0.17200000000E+03 0.  1.
<mgrwt>
<rscale>  2 0.18637367E+03</rscale>
<asrwt>0</asrwt>
<pdfrwt beam="1">  1        3 0.55159782E-01 0.18637367E+03</pdfrwt>
<pdfrwt beam="2">  1       -3 0.52585795E-01 0.18637367E+03</pdfrwt>
<totfact> 0.28740412E+01</totfact>
</mgrwt>
</event>
<event>
 4    1  0.3761914E-001  0.2172677E+03  0.7546771E-02  0.1135937E+00
          2   -1    0    0  502    0  0.00000000000E+00  0.00000000000E+00  0.68585181971E+02  0.68585181971E+02  0.00000000000E+00 0.  1.
         -2   -1    0    0    0  501 -0.00000000000E+00 -0.00000000000E+00 -0.75373771837E+03  0.75373771837E+03  0.00000000000E+00 0. -1.
          6    1    1    2  502    0 -0.35304754470E+02 -0.12796421029E+03 -0.46375014954E+03  0.51212251074E+03  0.17200000000E+03 0.  1.
         -6    1    1    2    0  501  0.35304754470E+02  0.12796421029E+03 -0.22140238686E+03  0.31020038960E+03  0.17200000000E+03 0.  1.
<mgrwt>
<rscale>  2 0.21726773E+03</rscale>
<asrwt>0</asrwt>
<pdfrwt beam="1">  1        2 0.17146296E-01 0.21726773E+03</pdfrwt>
<pdfrwt beam="2">  1       -2 0.18843442E+00 0.21726773E+03</pdfrwt>
<totfact> 0.57453736E+01</totfact>
</mgrwt>
</event>
<event>
 4    1  0.3761914E-001  0.1907775E+03  0.7546771E-02  0.1157762E+00
          3   -1    0    0  502    0  0.00000000000E+00  0.00000000000E+00  0.11885102558E+04  0.11885102558E+04  0.00000000000E+00 0. -1.
         -3   -1    0    0    0  501 -0.00000000000E+00 -0.00000000000E+00 -0.58848498672E+02  0.58848498672E+02  0.00000000000E+00 0.  1.
          6    1    1    2  502    0  0.38801065397E+01  0.82443949551E+02  0.13290175119E+03  0.23250577523E+03  0.17200000000E+03 0.  1.
         -6    1    1    2    0  501 -0.38801065397E+01 -0.82443949551E+02  0.99676000591E+03  0.10148529792E+04  0.17200000000E+03 0. -1.
<mgrwt>
<rscale>  2 0.19077751E+03</rscale>
<asrwt>0</asrwt>
<pdfrwt beam="1">  1        3 0.29712749E+00 0.19077751E+03</pdfrwt>
<pdfrwt beam="2">  1       -3 0.14712129E-01 0.19077751E+03</pdfrwt>
<totfact> 0.43845022E+00</totfact>
</mgrwt>
</event>
<event>
 4    1  0.3761914E-001  0.2077301E+03  0.7546771E-02  0.1143376E+00
          2   -1    0    0  502    0  0.00000000000E+00  0.00000000000E+00  0.20837336306E+03  0.20837336306E+03  0.00000000000E+00 0. -1.
         -2   -1    0    0    0  501 -0.00000000000E+00 -0.00000000000E+00 -0.31524549099E+03  0.31524549099E+03  0.00000000000E+00 0.  1.
          6    1    1    2  502    0  0.87336118996E+02 -0.77072571256E+02  0.99915298291E+02  0.23050996888E+03  0.17200000000E+03 0. -1.
         -6    1    1    2    0  501 -0.87336118996E+02  0.77072571256E+02 -0.20678742623E+03  0.29310888517E+03  0.17200000000E+03 0.  1.
<mgrwt>
<rscale>  2 0.20773006E+03</rscale>
<asrwt>0</asrwt>
<pdfrwt beam="1">  1        2 0.52093341E-01 0.20773006E+03</pdfrwt>
<pdfrwt beam="2">  1       -2 0.78811372E-01 0.20773006E+03</pdfrwt>
<totfact> 0.14318309E+02</totfact>
</mgrwt>
</event>
<event>
 4    1  0.3761914E-001  0.2461871E+03  0.7546771E-02  0.1115738E+00
         -2   -1    0    0    0  501 -0.00000000000E+00  0.00000000000E+00  0.13937953969E+03  0.13937953969E+03  0.00000000000E+00 0. -1.
          2   -1    0    0  502    0  0.00000000000E+00 -0.00000000000E+00 -0.21864341248E+04  0.21864341248E+04  0.00000000000E+00 0.  1.
          6    1    1    2  502    0 -0.22942544618E+02 -0.17463596002E+03 -0.20643894389E+04  0.20790170356E+04  0.17200000000E+03 0.  1.
         -6    1    1    2    0  501  0.22942544618E+02  0.17463596002E+03  0.17334853772E+02  0.24679662891E+03  0.17200000000E+03 0. -1.
<mgrwt>
<rscale>  2 0.24618708E+03</rscale>
<asrwt>0</asrwt>
<pdfrwt beam="1">  1        2 0.54660852E+00 0.24618708E+03</pdfrwt>
<pdfrwt beam="2">  1       -2 0.34844885E-01 0.24618708E+03</pdfrwt>
<totfact> 0.74510838E+00</totfact>
</mgrwt>
</event>
<event>
 4    1  0.3761914E-001  0.2277984E+03  0.7546771E-02  0.1128199E+00
         -1   -1    0    0    0  501 -0.00000000000E+00  0.00000000000E+00  0.34651408376E+03  0.34651408376E+03  0.00000000000E+00 0.  1.
          1   -1    0    0  502    0  0.00000000000E+00 -0.00000000000E+00 -0.15420242984E+03  0.15420242984E+03  0.00000000000E+00 0. -1.
          6    1    1    2  502    0  0.14925200915E+03 -0.56532769574E+01  0.13867494287E+03  0.26668869784E+03  0.17200000000E+03 0. -1.
         -6    1    1    2    0  501 -0.14925200915E+03  0.56532769574E+01  0.53636711049E+02  0.23402781576E+03  0.17200000000E+03 0.  1.
<mgrwt>
<rscale>  2 0.22779842E+03</rscale>
<asrwt>0</asrwt>
<pdfrwt beam="1">  1        1 0.38550608E-01 0.22779842E+03</pdfrwt>
<pdfrwt beam="2">  1       -1 0.86628520E-01 0.22779842E+03</pdfrwt>
<totfact> 0.15398010E+02</totfact>
</mgrwt>
</event>
<event>
 4    1  0.3761914E-001  0.1802029E+03  0.7546771E-02  0.1167607E+00
          2   -1    0    0  502    0  0.00000000000E+00  0.00000000000E+00  0.27901419510E+03  0.27901419510E+03  0.00000000000E+00 0. -1.
         -2   -1    0    0    0  501 -0.00000000000E+00 -0.00000000000E+00 -0.12840836332E+03  0.12840836332E+03  0.00000000000E+00 0.  1.
          6    1    1    2  502    0 -0.31564835004E+01 -0.53657362227E+02  0.13763775395E+03  0.22675367080E+03  0.17200000000E+03 0. -1.
         -6    1    1    2    0  501  0.31564835004E+01  0.53657362227E+02  0.12968077835E+02  0.18066888761E+03  0.17200000000E+03 0.  1.
<mgrwt>
<rscale>  2 0.18020287E+03</rscale>
<asrwt>0</asrwt>
<pdfrwt beam="1">  1        2 0.69753548E-01 0.18020287E+03</pdfrwt>
<pdfrwt beam="2">  1       -2 0.32102091E-01 0.18020287E+03</pdfrwt>
<totfact> 0.62990565E+02</totfact>
</mgrwt>
</event>
<event>
 4    1  0.3761914E-001  0.2352223E+03  0.7546771E-02  0.1123017E+00
         -1   -1    0    0    0  501 -0.00000000000E+00  0.00000000000E+00  0.35345967852E+03  0.35345967852E+03  0.00000000000E+00 0.  1.
          1   -1    0    0  502    0  0.00000000000E+00 -0.00000000000E+00 -0.56836532989E+03  0.56836532989E+03  0.00000000000E+00 0. -1.
          6    1    1    2  502    0 -0.88833230583E+02 -0.13361955531E+03 -0.49979301254E+03  0.55237902187E+03  0.17200000000E+03 0. -1.
         -6    1    1    2    0  501  0.88833230583E+02  0.13361955531E+03  0.28488736117E+03  0.36944598654E+03  0.17200000000E+03 0.  1.
<mgrwt>
<rscale>  2 0.23522230E+03</rscale>
<asrwt>0</asrwt>
<pdfrwt beam="1">  1        1 0.14209133E+00 0.23522230E+03</pdfrwt>
<pdfrwt beam="2">  1       -1 0.88364920E-01 0.23522230E+03</pdfrwt>
<totfact> 0.24942581E+01</totfact>
</mgrwt>
</event>
<event>
 4    1  0.3761914E-001  0.2074316E+03  0.7546771E-02  0.1143616E+00
          1   -1    0    0  502    0  0.00000000000E+00  0.00000000000E+00  0.23249591628E+03  0.23249591628E+03  0.00000000000E+00 0. -1.
         -1   -1    0    0    0  501 -0.00000000000E+00 -0.00000000000E+00 -0.20009605959E+03  0.20009605959E+03  0.00000000000E+00 0.  1.
          6    1    1    2  502    0 -0.40782800437E+02  0.10853869834E+03 -0.43073498883E+02  0.21185658393E+03  0.17200000000E+03 0.  1.
         -6    1    1    2    0  501  0.40782800437E+02 -0.10853869834E+03  0.75473355572E+02  0.22073539193E+03  0.17200000000E+03 0. -1.
<mgrwt>
<rscale>  2 0.20743164E+03</rscale>
<asrwt>0</asrwt>
<pdfrwt beam="1">  1        1 0.58123979E-01 0.20743164E+03</pdfrwt>
<pdfrwt beam="2">  1       -1 0.50024015E-01 0.20743164E+03</pdfrwt>
<totfact> 0.27154167E+02</totfact>
</mgrwt>
</event>
<event>
 4    1  0.3761914E-001  0.1853278E+03  0.7546771E-02  0.1162744E+00
          1   -1    0    0  502    0  0.00000000000E+00  0.00000000000E+00  0.21879822981E+03  0.21879822981E+03  0.00000000000E+00 0.  1.
         -1   -1    0    0    0  501 -0.00000000000E+00 -0.00000000000E+00 -0.16198505624E+03  0.16198505624E+03  0.00000000000E+00 0. -1.
          6    1    1    2  502    0  0.18305085209E+02  0.66537987202E+02 -0.50689181230E+01  0.18539707068E+03  0.17200000000E+03 0.  1.
         -6    1    1    2    0  501 -0.18305085209E+02 -0.66537987202E+02  0.61882091689E+02  0.19538621537E+03  0.17200000000E+03 0.  1.
<mgrwt>
<rscale>  2 0.18532776E+03</rscale>
<asrwt>0</asrwt>
<pdfrwt beam="1">  1        1 0.54699557E-01 0.18532776E+03</pdfrwt>
<pdfrwt beam="2">  1       -1 0.40496264E-01 0.18532776E+03</pdfrwt>
<totfact> 0.43027703E+02</totfact>
</mgrwt>
</event>
<event>
 4    1  0.3761914E-001  0.1760575E+03  0.7546771E-02  0.1171674E+00
         -2   -1    0    0    0  501 -0.00000000000E+00  0.00000000000E+00  0.27760643148E+02  0.27760643148E+02  0.00000000000E+00 0.  1.
          2   -1    0    0  502    0  0.00000000000E+00 -0.00000000000E+00 -0.12602257343E+04  0.12602257343E+04  0.00000000000E+00 0. -1.
          6    1    1    2  502    0 -0.32666991647E+01  0.37437343501E+02 -0.83367506155E+03  0.85206240045E+03  0.17200000000E+03 0. -1.
         -6    1    1    2    0  501  0.32666991647E+01 -0.37437343501E+02 -0.39879002961E+03  0.43592397700E+03  0.17200000000E+03 0.  1.
<mgrwt>
<rscale>  2 0.17605745E+03</rscale>
<asrwt>0</asrwt>
<pdfrwt beam="1">  1        2 0.31505643E+00 0.17605745E+03</pdfrwt>
<pdfrwt beam="2">  1       -2 0.69401609E-02 0.17605745E+03</pdfrwt>
<totfact> 0.84135512E+02</totfact>
</mgrwt>
</event>
<event>
 4    1  0.3761914E-001  0.3091136E+03  0.7546771E-02  0.1080772E+00
          2   -1    0    0  502    0  0.00000000000E+00  0.00000000000E+00  0.91945192504E+03  0.91945192504E+03  0.00000000000E+00 0.  1.
         -2   -1    0    0    0  501 -0.00000000000E+00 -0.00000000000E+00 -0.10419565768E+03  0.10419565768E+03  0.00000000000E+00 0. -1.
          6    1    1    2  502    0 -0.13331272264E+03  0.21953342345E+03  0.43386221457E+03  0.53271721134E+03  0.17200000000E+03 0.  1.
         -6    1    1    2    0  501  0.13331272264E+03 -0.21953342345E+03  0.38139405279E+03  0.49093037137E+03  0.17200000000E+03 0.  1.
<mgrwt>
<rscale>  2 0.30911358E+03</rscale>
<asrwt>0</asrwt>
<pdfrwt beam="1">  1        2 0.22986296E+00 0.30911358E+03</pdfrwt>
<pdfrwt beam="2">  1       -2 0.26048917E-01 0.30911358E+03</pdfrwt>
<totfact> 0.18188508E+02</totfact>
</mgrwt>
</event>
<event>
 4    1  0.3761914E-001  0.1857088E+03  0.7546771E-02  0.1162390E+00
         -3   -1    0    0    0  501 -0.00000000000E+00  0.00000000000E+00  0.67839944136E+03  0.67839944136E+03  0.00000000000E+00 0. -1.
          3   -1    0    0  502    0  0.00000000000E+00 -0.00000000000E+00 -0.61876164344E+02  0.61876164344E+02  0.00000000000E+00 0.  1.
          6    1    1    2  502    0  0.28531145963E+02  0.63951129398E+02  0.46460174573E+03  0.50034243811E+03  0.17200000000E+03 0. -1.
         -6    1    1    2    0  501 -0.28531145963E+02 -0.63951129398E+02  0.15192153128E+03  0.23993316759E+03  0.17200000000E+03 0.  1.
<mgrwt>
<rscale>  2 0.18570884E+03</rscale>
<asrwt>0</asrwt>
<pdfrwt beam="1">  1        3 0.15469043E-01 0.18570884E+03</pdfrwt>
<pdfrwt beam="2">  1       -3 0.16959984E+00 0.18570884E+03</pdfrwt>
<totfact> 0.21398669E+01</totfact>
</mgrwt>
</event>
<event>
 4    1  0.3761914E-001  0.1905004E+03  0.7546771E-02  0.1158011E+00
         -1   -1    0    0    0  501 -0.00000000000E+00  0.00000000000E+00  0.99781838670E+02  0.99781838670E+02  0.00000000000E+00 0. -1.
          1   -1    0    0  502    0  0.00000000000E+00 -0.00000000000E+00 -0.37970971936E+03  0.37970971936E+03  0.00000000000E+00 0.  1.
          6    1    1    2  502    0  0.74812793337E+02  0.33308356718E+02 -0.18919639651E+03  0.26848775973E+03  0.17200000000E+03 0.  1.
         -6    1    1    2    0  501 -0.74812793337E+02 -0.33308356718E+02 -0.90731484181E+02  0.21100379830E+03  0.17200000000E+03 0.  1.
<mgrwt>
<rscale>  2 0.19050040E+03</rscale>
<asrwt>0</asrwt>
<pdfrwt beam="1">  1        1 0.94927429E-01 0.19050040E+03</pdfrwt>
<pdfrwt beam="2">  1       -1 0.24945460E-01 0.19050040E+03</pdfrwt>
<totfact> 0.47796464E+02</totfact>
</mgrwt>
</event>
<event>
 4    1  0.3761914E-001  0.1909167E+03  0.7546771E-02  0.1157637E+00
         -2   -1    0    0    0  501 -0.00000000000E+00  0.00000000000E+00  0.88573828176E+02  0.88573828176E+02  0.00000000000E+00 0. -1.
          2   -1    0    0  502    0  0.00000000000E+00 -0.00000000000E+00 -0.50673921764E+03  0.50673921764E+03  0.00000000000E+00 0.  1.
          6    1    1    2  502    0  0.68918100447E+02  0.45994533493E+02 -0.33811649100E+03  0.38829365584E+03  0.17200000000E+03 0.  1.
         -6    1    1    2    0  501 -0.68918100447E+02 -0.45994533493E+02 -0.80048898464E+02  0.20701938998E+03  0.17200000000E+03 0. -1.
<mgrwt>
<rscale>  2 0.19091674E+03</rscale>
<asrwt>0</asrwt>
<pdfrwt beam="1">  1        2 0.12668480E+00 0.19091674E+03</pdfrwt>
<pdfrwt beam="2">  1       -2 0.22143458E-01 0.19091674E+03</pdfrwt>
<totfact> 0.60741634E+02</totfact>
</mgrwt>
</event>
<event>
 4    1  0.3761914E-001  0.1725868E+03  0.7546771E-02  0.1175177E+00
          2   -1    0    0  502    0  0.00000000000E+00  0.00000000000E+00  0.21898639552E+04  0.21898639552E+04  0.00000000000E+00 0.  1.
         -2   -1    0    0    0  501 -0.00000000000E+00 -0.00000000000E+00 -0.24107498825E+02  0.24107498825E+02  0.00000000000E+00 0. -1.
          6    1    1    2  502    0  0.11956754996E+02  0.76975483645E+01  0.18136423899E+04  0.18218355948E+04  0.17200000000E+03 0.  1.
         -6    1    1    2    0  501 -0.11956754996E+02 -0.76975483645E+01  0.35211406653E+03  0.39213585923E+03  0.17200000000E+03 0. -1.
<mgrwt>
<rscale>  2 0.17258684E+03</rscale>
<asrwt>0</asrwt>
<pdfrwt beam="1">  1        2 0.54746531E+00 0.17258684E+03</pdfrwt>
<pdfrwt beam="2">  1       -2 0.60268821E-02 0.17258684E+03</pdfrwt>
<totfact> 0.14283379E+02</totfact>
</mgrwt>
</event>
<event>
 4    1  0.3761914E-001  0.1999514E+03  0.7546771E-02  0.1149780E+00
          1   -1    0    0  502    0  0.00000000000E+00  0.00000000000E+00  0.72729312142E+02  0.72729312142E+02  0.00000000000E+00 0.  1.
         -1   -1    0    0    0  501 -0.00000000000E+00 -0.00000000000E+00 -0.55211847020E+03  0.55211847020E+03  0.00000000000E+00 0. -1.
          6    1    1    2  502    0  0.16400232276E+02 -0.10063599601E+03 -0.26029740891E+03  0.32823057810E+03  0.17200000000E+03 0. -1.
         -6    1    1    2    0  501 -0.16400232276E+02  0.10063599601E+03 -0.21909174914E+03  0.29661720424E+03  0.17200000000E+03 0. -1.
<mgrwt>
<rscale>  2 0.19995142E+03</rscale>
<asrwt>0</asrwt>
<pdfrwt beam="1">  1        1 0.18182328E-01 0.19995142E+03</pdfrwt>
<pdfrwt beam="2">  1       -1 0.13802962E+00 0.19995142E+03</pdfrwt>
<totfact> 0.13741557E+02</totfact>
</mgrwt>
</event>
<event>
 4    1  0.3761914E-001  0.2342574E+03  0.7546771E-02  0.1123679E+00
          1   -1    0    0  502    0  0.00000000000E+00  0.00000000000E+00  0.14005405103E+04  0.14005405103E+04  0.00000000000E+00 0. -1.
         -1   -1    0    0    0  501 -0.00000000000E+00 -0.00000000000E+00 -0.78174889528E+02  0.78174889528E+02  0.00000000000E+00 0.  1.
          6    1    1    2  502    0  0.15106977912E+03 -0.49703825066E+02  0.11833521946E+04  0.12063162790E+04  0.17200000000E+03 0. -1.
         -6    1    1    2    0  501 -0.15106977912E+03  0.49703825066E+02  0.13901342614E+03  0.27239912084E+03  0.17200000000E+03 0.  1.
<mgrwt>
<rscale>  2 0.23425744E+03</rscale>
<asrwt>0</asrwt>
<pdfrwt beam="1">  1        1 0.35013505E+00 0.23425744E+03</pdfrwt>
<pdfrwt beam="2">  1       -1 0.19543727E-01 0.23425744E+03</pdfrwt>
<totfact> 0.47701146E+01</totfact>
</mgrwt>
</event>
<event>
 4    1  0.3761914E-001  0.2464361E+03  0.7546771E-02  0.1115578E+00
         -1   -1    0    0    0  501 -0.00000000000E+00  0.00000000000E+00  0.23544296456E+03  0.23544296456E+03  0.00000000000E+00 0. -1.
          1   -1    0    0  502    0  0.00000000000E+00 -0.00000000000E+00 -0.32874711883E+03  0.32874711883E+03  0.00000000000E+00 0.  1.
          6    1    1    2  502    0 -0.59696907154E+02  0.16608136166E+03  0.84264718557E+02  0.26044439369E+03  0.17200000000E+03 0. -1.
         -6    1    1    2    0  501  0.59696907154E+02 -0.16608136166E+03 -0.17756887283E+03  0.30374568970E+03  0.17200000000E+03 0.  1.
<mgrwt>
<rscale>  2 0.24643608E+03</rscale>
<asrwt>0</asrwt>
<pdfrwt beam="1">  1        1 0.82186779E-01 0.24643608E+03</pdfrwt>
<pdfrwt beam="2">  1       -1 0.58860741E-01 0.24643608E+03</pdfrwt>
<totfact> 0.12654697E+02</totfact>
</mgrwt>
</event>
<event>
 4    1  0.3761914E-001  0.1798101E+03  0.7546771E-02  0.1167987E+00
         -2   -1    0    0    0  501 -0.00000000000E+00  0.00000000000E+00  0.31533074319E+02  0.31533074319E+02  0.00000000000E+00 0.  1.
          2   -1    0    0  502    0  0.00000000000E+00 -0.00000000000E+00 -0.10256801224E+04  0.10256801224E+04  0.00000000000E+00 0. -1.
          6    1    1    2  502    0 -0.21531810526E+02 -0.47791846649E+02 -0.48725079304E+03  0.51936982468E+03  0.17200000000E+03 0.  1.
         -6    1    1    2    0  501  0.21531810526E+02  0.47791846649E+02 -0.50689625503E+03  0.53784337203E+03  0.17200000000E+03 0.  1.
<mgrwt>
<rscale>  2 0.17981012E+03</rscale>
<asrwt>0</asrwt>
<pdfrwt beam="1">  1        2 0.25642004E+00 0.17981012E+03</pdfrwt>
<pdfrwt beam="2">  1       -2 0.78832683E-02 0.17981012E+03</pdfrwt>
<totfact> 0.10872775E+03</totfact>
</mgrwt>
</event>
<event>
 4    1  0.3761914E-001  0.1819919E+03  0.7546771E-02  0.1165889E+00
         -2   -1    0    0    0  501 -0.00000000000E+00  0.00000000000E+00  0.59363267531E+02  0.59363267531E+02  0.00000000000E+00 0. -1.
          2   -1    0    0  502    0  0.00000000000E+00 -0.00000000000E+00 -0.88937752113E+03  0.88937752113E+03  0.00000000000E+00 0.  1.
          6    1    1    2  502    0 -0.13220996690E+02  0.57985030727E+02 -0.12542199910E+03  0.22102428916E+03  0.17200000000E+03 0. -1.
         -6    1    1    2    0  501  0.13220996690E+02 -0.57985030727E+02 -0.70459225450E+03  0.72771649950E+03  0.17200000000E+03 0.  1.
<mgrwt>
<rscale>  2 0.18199192E+03</rscale>
<asrwt>0</asrwt>
<pdfrwt beam="1">  1        2 0.22234438E+00 0.18199192E+03</pdfrwt>
<pdfrwt beam="2">  1       -2 0.14840817E-01 0.18199192E+03</pdfrwt>
<totfact> 0.51800819E+02</totfact>
</mgrwt>
</event>
<event>
 4    1  0.3761914E-001  0.1754982E+03  0.7546771E-02  0.1172232E+00
         -1   -1    0    0    0  501 -0.00000000000E+00  0.00000000000E+00  0.45632953985E+02  0.45632953985E+02  0.00000000000E+00 0.  1.
          1   -1    0    0  502    0  0.00000000000E+00 -0.00000000000E+00 -0.68542180905E+03  0.68542180905E+03  0.00000000000E+00 0. -1.
          6    1    1    2  502    0  0.34225915604E+02 -0.66493419663E+01 -0.36509085426E+03  0.40508142257E+03  0.17200000000E+03 0.  1.
         -6    1    1    2    0  501 -0.34225915604E+02  0.66493419663E+01 -0.27469800080E+03  0.32597334046E+03  0.17200000000E+03 0.  1.
<mgrwt>
<rscale>  2 0.17549823E+03</rscale>
<asrwt>0</asrwt>
<pdfrwt beam="1">  1        1 0.17135545E+00 0.17549823E+03</pdfrwt>
<pdfrwt beam="2">  1       -1 0.11408238E-01 0.17549823E+03</pdfrwt>
<totfact> 0.66150566E+02</totfact>
</mgrwt>
</event>
<event>
 4    1  0.3761914E-001  0.1828882E+03  0.7546771E-02  0.1165037E+00
          1   -1    0    0  502    0  0.00000000000E+00  0.00000000000E+00  0.70238228301E+03  0.70238228301E+03  0.00000000000E+00 0.  1.
         -1   -1    0    0    0  501 -0.00000000000E+00 -0.00000000000E+00 -0.48883449418E+02  0.48883449418E+02  0.00000000000E+00 0. -1.
          6    1    1    2  502    0 -0.50764521951E+02 -0.35875701239E+02  0.26638229810E+03  0.32312169746E+03  0.17200000000E+03 0. -1.
         -6    1    1    2    0  501  0.50764521951E+02  0.35875701239E+02  0.38711653549E+03  0.42814403497E+03  0.17200000000E+03 0. -1.
<mgrwt>
<rscale>  2 0.18288822E+03</rscale>
<asrwt>0</asrwt>
<pdfrwt beam="1">  1        1 0.17559554E+00 0.18288822E+03</pdfrwt>
<pdfrwt beam="2">  1       -1 0.12220865E-01 0.18288822E+03</pdfrwt>
<totfact> 0.56800848E+02</totfact>
</mgrwt>
</event>
<event>
 4    1  0.3761914E-001  0.1761063E+03  0.7546771E-02  0.1171626E+00
          1   -1    0    0  502    0  0.00000000000E+00  0.00000000000E+00  0.39505856141E+03  0.39505856141E+03  0.00000000000E+00 0.  1.
         -1   -1    0    0    0  501 -0.00000000000E+00 -0.00000000000E+00 -0.80579202982E+02  0.80579202982E+02  0.00000000000E+00 0. -1.
          6    1    1    2  502    0  0.70846238078E+01 -0.37137865138E+02  0.11906853689E+03  0.21258111251E+03  0.17200000000E+03 0. -1.
         -6    1    1    2    0  501 -0.70846238078E+01  0.37137865138E+02  0.19541082154E+03  0.26305665188E+03  0.17200000000E+03 0.  1.
<mgrwt>
<rscale>  2 0.17610625E+03</rscale>
<asrwt>0</asrwt>
<pdfrwt beam="1">  1        1 0.98764635E-01 0.17610625E+03</pdfrwt>
<pdfrwt beam="2">  1       -1 0.20144802E-01 0.17610625E+03</pdfrwt>
<totfact> 0.64211071E+02</totfact>
</mgrwt>
</event>
<event>
 4    1  0.3761914E-001  0.1867162E+03  0.7546771E-02  0.1161457E+00
         -1   -1    0    0    0  501 -0.00000000000E+00  0.00000000000E+00  0.32844821825E+02  0.32844821825E+02  0.00000000000E+00 0. -1.
          1   -1    0    0  502    0  0.00000000000E+00 -0.00000000000E+00 -0.14112138010E+04  0.14112138010E+04  0.00000000000E+00 0.  1.
          6    1    1    2  502    0  0.14641694093E+02  0.71165668257E+02 -0.10486437844E+04  0.10651369481E+04  0.17200000000E+03 0.  1.
         -6    1    1    2    0  501 -0.14641694093E+02 -0.71165668257E+02 -0.32972519478E+03  0.37892167478E+03  0.17200000000E+03 0. -1.
<mgrwt>
<rscale>  2 0.18671618E+03</rscale>
<asrwt>0</asrwt>
<pdfrwt beam="1">  1        1 0.35280343E+00 0.18671618E+03</pdfrwt>
<pdfrwt beam="2">  1       -1 0.82112060E-02 0.18671618E+03</pdfrwt>
<totfact> 0.18434301E+02</totfact>
</mgrwt>
</event>
<event>
 4    1  0.3761914E-001  0.1856582E+03  0.7546771E-02  0.1162437E+00
          1   -1    0    0  502    0  0.00000000000E+00  0.00000000000E+00  0.16354452144E+03  0.16354452144E+03  0.00000000000E+00 0.  1.
         -1   -1    0    0    0  501 -0.00000000000E+00 -0.00000000000E+00 -0.33523940383E+03  0.33523940383E+03  0.00000000000E+00 0. -1.
          6    1    1    2  502    0  0.36448180205E+01 -0.69797402246E+02 -0.23781478526E+03  0.30170322197E+03  0.17200000000E+03 0. -1.
         -6    1    1    2    0  501 -0.36448180205E+01  0.69797402246E+02  0.66119902868E+02  0.19708070330E+03  0.17200000000E+03 0. -1.
<mgrwt>
<rscale>  2 0.18565819E+03</rscale>
<asrwt>0</asrwt>
<pdfrwt beam="1">  1        1 0.40886131E-01 0.18565819E+03</pdfrwt>
<pdfrwt beam="2">  1       -1 0.83809850E-01 0.18565819E+03</pdfrwt>
<totfact> 0.15436915E+02</totfact>
</mgrwt>
</event>
<event>
 4    1  0.3761914E-001  0.2273580E+03  0.7546771E-02  0.1128513E+00
          2   -1    0    0  502    0  0.00000000000E+00  0.00000000000E+00  0.18019497231E+04  0.18019497231E+04  0.00000000000E+00 0.  1.
         -2   -1    0    0    0  501 -0.00000000000E+00 -0.00000000000E+00 -0.49366820453E+02  0.49366820453E+02  0.00000000000E+00 0. -1.
          6    1    1    2  502    0 -0.14354299267E+03  0.38769496794E+02  0.14754083129E+04  0.14928232831E+04  0.17200000000E+03 0.  1.
         -6    1    1    2    0  501  0.14354299267E+03 -0.38769496794E+02  0.27717458973E+03  0.35849326050E+03  0.17200000000E+03 0. -1.
<mgrwt>
<rscale>  2 0.22735801E+03</rscale>
<asrwt>0</asrwt>
<pdfrwt beam="1">  1        2 0.45048721E+00 0.22735801E+03</pdfrwt>
<pdfrwt beam="2">  1       -2 0.12341711E-01 0.22735801E+03</pdfrwt>
<totfact> 0.11073597E+02</totfact>
</mgrwt>
</event>
<event>
 4    1  0.3761914E-001  0.1858110E+03  0.7546771E-02  0.1162295E+00
         -2   -1    0    0    0  501 -0.00000000000E+00  0.00000000000E+00  0.25424998555E+03  0.25424998555E+03  0.00000000000E+00 0. -1.
          2   -1    0    0  502    0  0.00000000000E+00 -0.00000000000E+00 -0.13619455081E+03  0.13619455081E+03  0.00000000000E+00 0.  1.
          6    1    1    2  502    0  0.43005904958E+02 -0.55607605170E+02  0.69610113497E+02  0.19842197841E+03  0.17200000000E+03 0.  1.
         -6    1    1    2    0  501 -0.43005904958E+02  0.55607605170E+02  0.48445321241E+02  0.19202255796E+03  0.17200000000E+03 0.  1.
<mgrwt>
<rscale>  2 0.18581096E+03</rscale>
<asrwt>0</asrwt>
<pdfrwt beam="1">  1        2 0.34048638E-01 0.18581096E+03</pdfrwt>
<pdfrwt beam="2">  1       -2 0.63562496E-01 0.18581096E+03</pdfrwt>
<totfact> 0.35909107E+02</totfact>
</mgrwt>
</event>
<event>
 4    1  0.3761914E-001  0.1761875E+03  0.7546771E-02  0.1171545E+00
         -2   -1    0    0    0  501 -0.00000000000E+00  0.00000000000E+00  0.55865423000E+03  0.55865423000E+03  0.00000000000E+00 0. -1.
          2   -1    0    0  502    0  0.00000000000E+00 -0.00000000000E+00 -0.11703543463E+03  0.11703543463E+03  0.00000000000E+00 0.  1.
          6    1    1    2  502    0 -0.11729600516E+01  0.38166341113E+02  0.46565316908E+03  0.49787038404E+03  0.17200000000E+03 0. -1.
         -6    1    1    2    0  501  0.11729600516E+01 -0.38166341113E+02 -0.24034373718E+02  0.17781928059E+03  0.17200000000E+03 0.  1.
<mgrwt>
<rscale>  2 0.17618753E+03</rscale>
<asrwt>0</asrwt>
<pdfrwt beam="1">  1        2 0.29258860E-01 0.17618753E+03</pdfrwt>
<pdfrwt beam="2">  1       -2 0.13966355E+00 0.17618753E+03</pdfrwt>
<totfact> 0.69976586E+01</totfact>
</mgrwt>
</event>
<event>
 4    1  0.3761914E-001  0.2261316E+03  0.7546771E-02  0.1129393E+00
          1   -1    0    0  502    0  0.00000000000E+00  0.00000000000E+00  0.36679700940E+03  0.36679700940E+03  0.00000000000E+00 0.  1.
         -1   -1    0    0    0  501 -0.00000000000E+00 -0.00000000000E+00 -0.14362716857E+03  0.14362716857E+03  0.00000000000E+00 0. -1.
          6    1    1    2  502    0 -0.13728411345E+03  0.52005419424E+02  0.67858045080E+02  0.23609363764E+03  0.17200000000E+03 0. -1.
         -6    1    1    2    0  501  0.13728411345E+03 -0.52005419424E+02  0.15531179575E+03  0.27433054032E+03  0.17200000000E+03 0.  1.
<mgrwt>
<rscale>  2 0.22613158E+03</rscale>
<asrwt>0</asrwt>
<pdfrwt beam="1">  1        1 0.91699250E-01 0.22613158E+03</pdfrwt>
<pdfrwt beam="2">  1       -1 0.35906793E-01 0.22613158E+03</pdfrwt>
<totfact> 0.26918930E+02</totfact>
</mgrwt>
</event>
<event>
 4    1  0.3761914E-001  0.2694352E+03  0.7546771E-02  0.1101603E+00
         -3   -1    0    0    0  501 -0.00000000000E+00  0.00000000000E+00  0.16040948816E+03  0.16040948816E+03  0.00000000000E+00 0.  1.
          3   -1    0    0  502    0  0.00000000000E+00 -0.00000000000E+00 -0.45857978007E+03  0.45857978007E+03  0.00000000000E+00 0. -1.
          6    1    1    2  502    0  0.44102275149E+02  0.20264824374E+03 -0.11363277774E+03  0.29241704728E+03  0.17200000000E+03 0.  1.
         -6    1    1    2    0  501 -0.44102275149E+02 -0.20264824374E+03 -0.18453751417E+03  0.32657222096E+03  0.17200000000E+03 0. -1.
<mgrwt>
<rscale>  2 0.26943519E+03</rscale>
<asrwt>0</asrwt>
<pdfrwt beam="1">  1        3 0.11464494E+00 0.26943519E+03</pdfrwt>
<pdfrwt beam="2">  1       -3 0.40102372E-01 0.26943519E+03</pdfrwt>
<totfact> 0.10078459E+01</totfact>
</mgrwt>
</event>
<event>
 4    1  0.3761914E-001  0.2184672E+03  0.7546771E-02  0.1135031E+00
          1   -1    0    0  502    0  0.00000000000E+00  0.00000000000E+00  0.59978439441E+03  0.59978439441E+03  0.00000000000E+00 0.  1.
         -1   -1    0    0    0  501 -0.00000000000E+00 -0.00000000000E+00 -0.10036066850E+03  0.10036066850E+03  0.00000000000E+00 0. -1.
          6    1    1    2  502    0 -0.13170171610E+03  0.28258921795E+02  0.90396697173E+02  0.23643069078E+03  0.17200000000E+03 0. -1.
         -6    1    1    2    0  501  0.13170171610E+03 -0.28258921795E+02  0.40902702874E+03  0.46371437213E+03  0.17200000000E+03 0.  1.
<mgrwt>
<rscale>  2 0.21846718E+03</rscale>
<asrwt>0</asrwt>
<pdfrwt beam="1">  1        1 0.14994609E+00 0.21846718E+03</pdfrwt>
<pdfrwt beam="2">  1       -1 0.25090169E-01 0.21846718E+03</pdfrwt>
<totfact> 0.23544295E+02</totfact>
</mgrwt>
</event>
<event>
 4    1  0.3761914E-001  0.2207023E+03  0.7546771E-02  0.1133361E+00
          1   -1    0    0  502    0  0.00000000000E+00  0.00000000000E+00  0.23734779723E+03  0.23734779723E+03  0.00000000000E+00 0.  1.
         -1   -1    0    0    0  501 -0.00000000000E+00 -0.00000000000E+00 -0.20602998507E+03  0.20602998507E+03  0.00000000000E+00 0. -1.
          6    1    1    2  502    0 -0.12217920720E+03 -0.64790027435E+02  0.29523097539E+02  0.22266818276E+03  0.17200000000E+03 0.  1.
         -6    1    1    2    0  501  0.12217920720E+03  0.64790027435E+02  0.17947146132E+01  0.22070959954E+03  0.17200000000E+03 0. -1.
<mgrwt>
<rscale>  2 0.22070230E+03</rscale>
<asrwt>0</asrwt>
<pdfrwt beam="1">  1        1 0.59336949E-01 0.22070230E+03</pdfrwt>
<pdfrwt beam="2">  1       -1 0.51507496E-01 0.22070230E+03</pdfrwt>
<totfact> 0.25020399E+02</totfact>
</mgrwt>
</event>
<event>
 4    1  0.3761914E-001  0.2228801E+03  0.7546771E-02  0.1131754E+00
          2   -1    0    0  502    0  0.00000000000E+00  0.00000000000E+00  0.26336354337E+03  0.26336354337E+03  0.00000000000E+00 0. -1.
         -2   -1    0    0    0  501 -0.00000000000E+00 -0.00000000000E+00 -0.19590150452E+03  0.19590150452E+03  0.00000000000E+00 0.  1.
          6    1    1    2  502    0  0.12840584561E+03 -0.60029076613E+02 -0.10541493201E+02  0.22312927711E+03  0.17200000000E+03 0.  1.
         -6    1    1    2    0  501 -0.12840584561E+03  0.60029076613E+02  0.78003532051E+02  0.23613577077E+03  0.17200000000E+03 0. -1.
<mgrwt>
<rscale>  2 0.22288013E+03</rscale>
<asrwt>0</asrwt>
<pdfrwt beam="1">  1        2 0.65840886E-01 0.22288013E+03</pdfrwt>
<pdfrwt beam="2">  1       -2 0.48975376E-01 0.22288013E+03</pdfrwt>
<totfact> 0.29966453E+02</totfact>
</mgrwt>
</event>
<event>
 4    1  0.3761914E-001  0.2058691E+03  0.7546771E-02  0.1144880E+00
         -2   -1    0    0    0  501 -0.00000000000E+00  0.00000000000E+00  0.17168862261E+03  0.17168862261E+03  0.00000000000E+00 0. -1.
          2   -1    0    0  502    0  0.00000000000E+00 -0.00000000000E+00 -0.62239624517E+03  0.62239624517E+03  0.00000000000E+00 0.  1.
          6    1    1    2  502    0  0.36941227565E+02 -0.10692715072E+03 -0.53376681756E+03  0.57209185048E+03  0.17200000000E+03 0.  1.
         -6    1    1    2    0  501 -0.36941227565E+02  0.10692715072E+03  0.83059195001E+02  0.22199301730E+03  0.17200000000E+03 0. -1.
<mgrwt>
<rscale>  2 0.20586906E+03</rscale>
<asrwt>0</asrwt>
<pdfrwt beam="1">  1        2 0.15559906E+00 0.20586906E+03</pdfrwt>
<pdfrwt beam="2">  1       -2 0.42922156E-01 0.20586906E+03</pdfrwt>
<totfact> 0.13764816E+02</totfact>
</mgrwt>
</event>
<event>
 4    1  0.3761914E-001  0.2164627E+03  0.7546771E-02  0.1136548E+00
          1   -1    0    0  502    0  0.00000000000E+00  0.00000000000E+00  0.10818577226E+04  0.10818577226E+04  0.00000000000E+00 0. -1.
         -1   -1    0    0    0  501 -0.00000000000E+00 -0.00000000000E+00 -0.58901476421E+02  0.58901476421E+02  0.00000000000E+00 0.  1.
          6    1    1    2  502    0  0.10315424466E+03  0.81432801870E+02  0.80492783125E+03  0.83352559225E+03  0.17200000000E+03 0. -1.
         -6    1    1    2    0  501 -0.10315424466E+03 -0.81432801870E+02  0.21802841492E+03  0.30723360676E+03  0.17200000000E+03 0.  1.
<mgrwt>
<rscale>  2 0.21646270E+03</rscale>
<asrwt>0</asrwt>
<pdfrwt beam="1">  1        1 0.27046437E+00 0.21646270E+03</pdfrwt>
<pdfrwt beam="2">  1       -1 0.14725373E-01 0.21646270E+03</pdfrwt>
<totfact> 0.16354132E+02</totfact>
</mgrwt>
</event>
<event>
 4    1  0.3761914E-001  0.2947817E+03  0.7546771E-02  0.1087879E+00
         -2   -1    0    0    0  501 -0.00000000000E+00  0.00000000000E+00  0.15072151594E+03  0.15072151594E+03  0.00000000000E+00 0.  1.
          2   -1    0    0  502    0  0.00000000000E+00 -0.00000000000E+00 -0.60105446094E+03  0.60105446094E+03  0.00000000000E+00 0. -1.
          6    1    1    2  502    0  0.12375447462E+02  0.23907965651E+03 -0.30108656357E+03  0.42136605537E+03  0.17200000000E+03 0. -1.
         -6    1    1    2    0  501 -0.12375447462E+02 -0.23907965651E+03 -0.14924638143E+03  0.33040992150E+03  0.17200000000E+03 0.  1.
<mgrwt>
<rscale>  2 0.29478167E+03</rscale>
<asrwt>0</asrwt>
<pdfrwt beam="1">  1        2 0.15026361E+00 0.29478167E+03</pdfrwt>
<pdfrwt beam="2">  1       -2 0.37680379E-01 0.29478167E+03</pdfrwt>
<totfact> 0.18256676E+02</totfact>
</mgrwt>
</event>
<event>
 4    1  0.3761914E-001  0.1781623E+03  0.7546771E-02  0.1169594E+00
          2   -1    0    0  502    0  0.00000000000E+00  0.00000000000E+00  0.24300338735E+03  0.24300338735E+03  0.00000000000E+00 0.  1.
         -2   -1    0    0    0  501 -0.00000000000E+00 -0.00000000000E+00 -0.13062604300E+03  0.13062604300E+03  0.00000000000E+00 0. -1.
          6    1    1    2  502    0 -0.13641107633E+02  0.44404100288E+02  0.57106969697E+02  0.18709091354E+03  0.17200000000E+03 0.  1.
         -6    1    1    2    0  501  0.13641107633E+02 -0.44404100288E+02  0.55270374662E+02  0.18653851681E+03  0.17200000000E+03 0. -1.
<mgrwt>
<rscale>  2 0.17816230E+03</rscale>
<asrwt>0</asrwt>
<pdfrwt beam="1">  1        2 0.60750846E-01 0.17816230E+03</pdfrwt>
<pdfrwt beam="2">  1       -2 0.32656511E-01 0.17816230E+03</pdfrwt>
<totfact> 0.70918445E+02</totfact>
</mgrwt>
</event>
<event>
 4    1  0.3761914E-001  0.1773568E+03  0.7546771E-02  0.1170386E+00
         -3   -1    0    0    0  501 -0.00000000000E+00  0.00000000000E+00  0.21333733651E+03  0.21333733651E+03  0.00000000000E+00 0. -1.
          3   -1    0    0  502    0  0.00000000000E+00 -0.00000000000E+00 -0.25929987236E+03  0.25929987236E+03  0.00000000000E+00 0.  1.
          6    1    1    2  502    0 -0.72794193441E+01 -0.42643077275E+02 -0.17819321234E+03  0.25141249553E+03  0.17200000000E+03 0.  1.
         -6    1    1    2    0  501  0.72794193441E+01  0.42643077275E+02  0.13223067649E+03  0.22122471334E+03  0.17200000000E+03 0. -1.
<mgrwt>
<rscale>  2 0.17735676E+03</rscale>
<asrwt>0</asrwt>
<pdfrwt beam="1">  1        3 0.64824968E-01 0.17735676E+03</pdfrwt>
<pdfrwt beam="2">  1       -3 0.53334334E-01 0.17735676E+03</pdfrwt>
<totfact> 0.19932683E+01</totfact>
</mgrwt>
</event>
<event>
 4    1  0.3761914E-001  0.2277172E+03  0.7546771E-02  0.1128257E+00
          1   -1    0    0  502    0  0.00000000000E+00  0.00000000000E+00  0.62774051366E+02  0.62774051366E+02  0.00000000000E+00 0.  1.
         -1   -1    0    0    0  501 -0.00000000000E+00 -0.00000000000E+00 -0.86924128368E+03  0.86924128368E+03  0.00000000000E+00 0. -1.
          6    1    1    2  502    0  0.13885582606E+03  0.54682443504E+02 -0.29936783491E+03  0.37613323522E+03  0.17200000000E+03 0.  1.
         -6    1    1    2    0  501 -0.13885582606E+03 -0.54682443504E+02 -0.50709939740E+03  0.55588209983E+03  0.17200000000E+03 0. -1.
<mgrwt>
<rscale>  2 0.22771717E+03</rscale>
<asrwt>0</asrwt>
<pdfrwt beam="1">  1        1 0.15693513E-01 0.22771717E+03</pdfrwt>
<pdfrwt beam="2">  1       -1 0.21731032E+00 0.22771717E+03</pdfrwt>
<totfact> 0.45684568E+01</totfact>
</mgrwt>
</event>
<event>
 4    1  0.3761914E-001  0.2363177E+03  0.7546771E-02  0.1122270E+00
          2   -1    0    0  502    0  0.00000000000E+00  0.00000000000E+00  0.10584357260E+04  0.10584357260E+04  0.00000000000E+00 0.  1.
         -2   -1    0    0    0  501 -0.00000000000E+00 -0.00000000000E+00 -0.56993876478E+02  0.56993876478E+02  0.00000000000E+00 0. -1.
          6    1    1    2  502    0  0.15755199441E+03 -0.37939617477E+02  0.65267868351E+03  0.69414372389E+03  0.17200000000E+03 0.  1.
         -6    1    1    2    0  501 -0.15755199441E+03  0.37939617477E+02  0.34876316598E+03  0.42128587854E+03  0.17200000000E+03 0. -1.
<mgrwt>
<rscale>  2 0.23631768E+03</rscale>
<asrwt>0</asrwt>
<pdfrwt beam="1">  1        2 0.26460887E+00 0.23631768E+03</pdfrwt>
<pdfrwt beam="2">  1       -2 0.14248473E-01 0.23631768E+03</pdfrwt>
<totfact> 0.39293090E+02</totfact>
</mgrwt>
</event>
<event>
 4    1  0.3761914E-001  0.1801939E+03  0.7546771E-02  0.1167616E+00
          1   -1    0    0  502    0  0.00000000000E+00  0.00000000000E+00  0.62638238022E+02  0.62638238022E+02  0.00000000000E+00 0. -1.
         -1   -1    0    0    0  501 -0.00000000000E+00 -0.00000000000E+00 -0.62012951914E+03  0.62012951914E+03  0.00000000000E+00 0.  1.
          6    1    1    2  502    0  0.12969266726E+02 -0.52130931736E+02 -0.41703461025E+03  0.45429913281E+03  0.17200000000E+03 0.  1.
         -6    1    1    2    0  501 -0.12969266726E+02  0.52130931736E+02 -0.14045667087E+03  0.22846862435E+03  0.17200000000E+03 0. -1.
<mgrwt>
<rscale>  2 0.18019388E+03</rscale>
<asrwt>0</asrwt>
<pdfrwt beam="1">  1        1 0.15659559E-01 0.18019388E+03</pdfrwt>
<pdfrwt beam="2">  1       -1 0.15503238E+00 0.18019388E+03</pdfrwt>
<totfact> 0.12398289E+02</totfact>
</mgrwt>
</event>
<event>
 4    1  0.3761914E-001  0.1844394E+03  0.7546771E-02  0.1163574E+00
         -4   -1    0    0    0  501 -0.00000000000E+00  0.00000000000E+00  0.97889137089E+02  0.97889137089E+02  0.00000000000E+00 0. -1.
          4   -1    0    0  502    0  0.00000000000E+00 -0.00000000000E+00 -0.41646727193E+03  0.41646727193E+03  0.00000000000E+00 0.  1.
          6    1    1    2  502    0  0.50046838556E+02 -0.43922684833E+02 -0.26393438166E+03  0.32199261810E+03  0.17200000000E+03 0.  1.
         -6    1    1    2    0  501 -0.50046838556E+02  0.43922684833E+02 -0.54643753181E+02  0.19236379091E+03  0.17200000000E+03 0. -1.
<mgrwt>
<rscale>  2 0.18443939E+03</rscale>
<asrwt>0</asrwt>
<pdfrwt beam="1">  1        4 0.10411682E+00 0.18443939E+03</pdfrwt>
<pdfrwt beam="2">  1       -4 0.24472284E-01 0.18443939E+03</pdfrwt>
<totfact> 0.21335228E+01</totfact>
</mgrwt>
</event>
<event>
 4    1  0.3761914E-001  0.1847975E+03  0.7546771E-02  0.1163239E+00
         -1   -1    0    0    0  501 -0.00000000000E+00  0.00000000000E+00  0.69635292253E+02  0.69635292253E+02  0.00000000000E+00 0. -1.
          1   -1    0    0  502    0  0.00000000000E+00 -0.00000000000E+00 -0.56217027127E+03  0.56217027127E+03  0.00000000000E+00 0.  1.
          6    1    1    2  502    0 -0.15912593116E+02 -0.65672767952E+02 -0.35912992215E+03  0.40388664753E+03  0.17200000000E+03 0.  1.
         -6    1    1    2    0  501  0.15912593116E+02  0.65672767952E+02 -0.13340505687E+03  0.22791891599E+03  0.17200000000E+03 0. -1.
<mgrwt>
<rscale>  2 0.18479752E+03</rscale>
<asrwt>0</asrwt>
<pdfrwt beam="1">  1        1 0.14054257E+00 0.18479752E+03</pdfrwt>
<pdfrwt beam="2">  1       -1 0.17408823E-01 0.18479752E+03</pdfrwt>
<totfact> 0.47781271E+02</totfact>
</mgrwt>
</event>
<event>
 4    1  0.3761914E-001  0.2328098E+03  0.7546771E-02  0.1124678E+00
         -1   -1    0    0    0  501 -0.00000000000E+00  0.00000000000E+00  0.13931738371E+03  0.13931738371E+03  0.00000000000E+00 0. -1.
          1   -1    0    0  502    0  0.00000000000E+00 -0.00000000000E+00 -0.38980119118E+03  0.38980119118E+03  0.00000000000E+00 0.  1.
          6    1    1    2  502    0 -0.14861384992E+03 -0.50302417690E+02 -0.13691214368E+03  0.27008395862E+03  0.17200000000E+03 0. -1.
         -6    1    1    2    0  501  0.14861384992E+03  0.50302417690E+02 -0.11357166379E+03  0.25903461628E+03  0.17200000000E+03 0. -1.
<mgrwt>
<rscale>  2 0.23280981E+03</rscale>
<asrwt>0</asrwt>
<pdfrwt beam="1">  1        1 0.97450297E-01 0.23280981E+03</pdfrwt>
<pdfrwt beam="2">  1       -1 0.34829346E-01 0.23280981E+03</pdfrwt>
<totfact> 0.26051174E+02</totfact>
</mgrwt>
</event>
<event>
 4    1  0.3761914E-001  0.2313949E+03  0.7546771E-02  0.1125662E+00
          2   -1    0    0  502    0  0.00000000000E+00  0.00000000000E+00  0.12563658200E+04  0.12563658200E+04  0.00000000000E+00 0. -1.
         -2   -1    0    0    0  501 -0.00000000000E+00 -0.00000000000E+00 -0.44247788186E+02  0.44247788186E+02  0.00000000000E+00 0.  1.
          6    1    1    2  502    0  0.13281559436E+03 -0.79496162693E+02  0.48124687938E+03  0.53398706061E+03  0.17200000000E+03 0.  1.
         -6    1    1    2    0  501 -0.13281559436E+03  0.79496162693E+02  0.73087115246E+03  0.76662654760E+03  0.17200000000E+03 0.  1.
<mgrwt>
<rscale>  2 0.23139495E+03</rscale>
<asrwt>0</asrwt>
<pdfrwt beam="1">  1        2 0.31409134E+00 0.23139495E+03</pdfrwt>
<pdfrwt beam="2">  1       -2 0.11061951E-01 0.23139495E+03</pdfrwt>
<totfact> 0.40284019E+02</totfact>
</mgrwt>
</event>
<event>
 4    1  0.3761914E-001  0.2068455E+03  0.7546771E-02  0.1144089E+00
         -1   -1    0    0    0  501 -0.00000000000E+00  0.00000000000E+00  0.16608645286E+04  0.16608645286E+04  0.00000000000E+00 0.  1.
          1   -1    0    0  502    0  0.00000000000E+00 -0.00000000000E+00 -0.37318629565E+02  0.37318629565E+02  0.00000000000E+00 0. -1.
          6    1    1    2  502    0  0.10024699744E+03  0.56139212150E+02  0.33924089617E+03  0.39732789642E+03  0.17200000000E+03 0.  1.
         -6    1    1    2    0  501 -0.10024699744E+03 -0.56139212150E+02  0.12843050029E+04  0.13008552618E+04  0.17200000000E+03 0.  1.
<mgrwt>
<rscale>  2 0.20684553E+03</rscale>
<asrwt>0</asrwt>
<pdfrwt beam="1">  1        1 0.93296630E-02 0.20684553E+03</pdfrwt>
<pdfrwt beam="2">  1       -1 0.41521588E+00 0.20684553E+03</pdfrwt>
<totfact> 0.50360843E+00</totfact>
</mgrwt>
</event>
<event>
 4    1  0.3761914E-001  0.2327577E+03  0.7546771E-02  0.1124714E+00
          1   -1    0    0  502    0  0.00000000000E+00  0.00000000000E+00  0.79873407729E+03  0.79873407729E+03  0.00000000000E+00 0. -1.
         -1   -1    0    0    0  501 -0.00000000000E+00 -0.00000000000E+00 -0.68193303185E+02  0.68193303185E+02  0.00000000000E+00 0.  1.
          6    1    1    2  502    0  0.13773302106E+03  0.74978400730E+02  0.33352371980E+03  0.40671146694E+03  0.17200000000E+03 0. -1.
         -6    1    1    2    0  501 -0.13773302106E+03 -0.74978400730E+02  0.39701705430E+03  0.46021591354E+03  0.17200000000E+03 0.  1.
<mgrwt>
<rscale>  2 0.23275770E+03</rscale>
<asrwt>0</asrwt>
<pdfrwt beam="1">  1        1 0.19968349E+00 0.23275770E+03</pdfrwt>
<pdfrwt beam="2">  1       -1 0.17048328E-01 0.23275770E+03</pdfrwt>
<totfact> 0.25955766E+02</totfact>
</mgrwt>
</event>
<event>
 4    1  0.3761914E-001  0.1818152E+03  0.7546771E-02  0.1166058E+00
          1   -1    0    0  502    0  0.00000000000E+00  0.00000000000E+00  0.17314438691E+03  0.17314438691E+03  0.00000000000E+00 0. -1.
         -1   -1    0    0    0  501 -0.00000000000E+00 -0.00000000000E+00 -0.20719025103E+03  0.20719025103E+03  0.00000000000E+00 0.  1.
          6    1    1    2  502    0  0.58373973914E+02  0.80767614291E+01  0.36267120796E+02  0.18539703060E+03  0.17200000000E+03 0. -1.
         -6    1    1    2    0  501 -0.58373973914E+02 -0.80767614291E+01 -0.70312984910E+02  0.19493760733E+03  0.17200000000E+03 0.  1.
<mgrwt>
<rscale>  2 0.18181517E+03</rscale>
<asrwt>0</asrwt>
<pdfrwt beam="1">  1        1 0.43286097E-01 0.18181517E+03</pdfrwt>
<pdfrwt beam="2">  1       -1 0.51797563E-01 0.18181517E+03</pdfrwt>
<totfact> 0.36963834E+02</totfact>
</mgrwt>
</event>
<event>
 4    1  0.3761914E-001  0.1756431E+03  0.7546771E-02  0.1172088E+00
          4   -1    0    0  502    0  0.00000000000E+00  0.00000000000E+00  0.23005040458E+03  0.23005040458E+03  0.00000000000E+00 0.  1.
         -4   -1    0    0    0  501 -0.00000000000E+00 -0.00000000000E+00 -0.13545387690E+03  0.13545387690E+03  0.00000000000E+00 0. -1.
          6    1    1    2  502    0 -0.35027060168E+02 -0.62925735102E+01  0.29049003024E+02  0.17802903135E+03  0.17200000000E+03 0. -1.
         -6    1    1    2    0  501  0.35027060168E+02  0.62925735102E+01  0.65547524660E+02  0.18747525014E+03  0.17200000000E+03 0.  1.
<mgrwt>
<rscale>  2 0.17564308E+03</rscale>
<asrwt>0</asrwt>
<pdfrwt beam="1">  1        4 0.57512601E-01 0.17564308E+03</pdfrwt>
<pdfrwt beam="2">  1       -4 0.33863470E-01 0.17564308E+03</pdfrwt>
<totfact> 0.42720180E+01</totfact>
</mgrwt>
</event>
<event>
 4    1  0.3761914E-001  0.1721694E+03  0.7546771E-02  0.1175604E+00
          1   -1    0    0  502    0  0.00000000000E+00  0.00000000000E+00  0.49863893061E+03  0.49863893061E+03  0.00000000000E+00 0.  1.
         -1   -1    0    0    0  501 -0.00000000000E+00 -0.00000000000E+00 -0.62750296397E+02  0.62750296397E+02  0.00000000000E+00 0. -1.
          6    1    1    2  502    0  0.63621847127E+01 -0.42228982691E+01  0.15353678805E+03  0.23068562060E+03  0.17200000000E+03 0. -1.
         -6    1    1    2    0  501 -0.63621847127E+01  0.42228982691E+01  0.28235184616E+03  0.33070360641E+03  0.17200000000E+03 0.  1.
<mgrwt>
<rscale>  2 0.17216942E+03</rscale>
<asrwt>0</asrwt>
<pdfrwt beam="1">  1        1 0.12465972E+00 0.17216942E+03</pdfrwt>
<pdfrwt beam="2">  1       -1 0.15687576E-01 0.17216942E+03</pdfrwt>
<totfact> 0.68172377E+02</totfact>
</mgrwt>
</event>
<event>
 4    1  0.3761914E-001  0.1990018E+03  0.7546771E-02  0.1150584E+00
         -2   -1    0    0    0  501 -0.00000000000E+00  0.00000000000E+00  0.18212290596E+03  0.18212290596E+03  0.00000000000E+00 0.  1.
          2   -1    0    0  502    0  0.00000000000E+00 -0.00000000000E+00 -0.26545609240E+03  0.26545609240E+03  0.00000000000E+00 0. -1.
          6    1    1    2  502    0  0.94006858148E+02  0.34357326967E+02 -0.13683967874E+03  0.24150944696E+03  0.17200000000E+03 0.  1.
         -6    1    1    2    0  501 -0.94006858148E+02 -0.34357326967E+02  0.53506492291E+02  0.20606955140E+03  0.17200000000E+03 0.  1.
<mgrwt>
<rscale>  2 0.19900180E+03</rscale>
<asrwt>0</asrwt>
<pdfrwt beam="1">  1        2 0.66364023E-01 0.19900180E+03</pdfrwt>
<pdfrwt beam="2">  1       -2 0.45530727E-01 0.19900180E+03</pdfrwt>
<totfact> 0.34347887E+02</totfact>
</mgrwt>
</event>
<event>
 4    1  0.3761914E-001  0.2249633E+03  0.7546771E-02  0.1130236E+00
          1   -1    0    0  502    0  0.00000000000E+00  0.00000000000E+00  0.24111850701E+03  0.24111850701E+03  0.00000000000E+00 0.  1.
         -1   -1    0    0    0  501 -0.00000000000E+00 -0.00000000000E+00 -0.21580048719E+03  0.21580048719E+03  0.00000000000E+00 0. -1.
          6    1    1    2  502    0 -0.12274895888E+03 -0.77182660732E+02 -0.25148528750E+02  0.22636456994E+03  0.17200000000E+03 0. -1.
         -6    1    1    2    0  501  0.12274895888E+03  0.77182660732E+02  0.50466548568E+02  0.23055442427E+03  0.17200000000E+03 0.  1.
<mgrwt>
<rscale>  2 0.22496326E+03</rscale>
<asrwt>0</asrwt>
<pdfrwt beam="1">  1        1 0.60279627E-01 0.22496326E+03</pdfrwt>
<pdfrwt beam="2">  1       -1 0.53950122E-01 0.22496326E+03</pdfrwt>
<totfact> 0.22478617E+02</totfact>
</mgrwt>
</event>
<event>
 4    1  0.3761914E-001  0.1839220E+03  0.7546771E-02  0.1164060E+00
         -2   -1    0    0    0  501 -0.00000000000E+00  0.00000000000E+00  0.96636840705E+02  0.96636840705E+02  0.00000000000E+00 0.  1.
          2   -1    0    0  502    0  0.00000000000E+00 -0.00000000000E+00 -0.43654337178E+03  0.43654337178E+03  0.00000000000E+00 0. -1.
          6    1    1    2  502    0  0.47880995734E+02  0.44166767922E+02 -0.28862109251E+03  0.34224176861E+03  0.17200000000E+03 0. -1.
         -6    1    1    2    0  501 -0.47880995734E+02 -0.44166767922E+02 -0.51285438570E+02  0.19093844388E+03  0.17200000000E+03 0.  1.
<mgrwt>
<rscale>  2 0.18392198E+03</rscale>
<asrwt>0</asrwt>
<pdfrwt beam="1">  1        2 0.10913584E+00 0.18392198E+03</pdfrwt>
<pdfrwt beam="2">  1       -2 0.24159211E-01 0.18392198E+03</pdfrwt>
<totfact> 0.62825687E+02</totfact>
</mgrwt>
</event>
<event>
 4    1  0.3761914E-001  0.2051288E+03  0.7546771E-02  0.1145483E+00
          1   -1    0    0  502    0  0.00000000000E+00  0.00000000000E+00  0.12959124199E+03  0.12959124199E+03  0.00000000000E+00 0.  1.
         -1   -1    0    0    0  501 -0.00000000000E+00 -0.00000000000E+00 -0.32962059190E+03  0.32962059190E+03  0.00000000000E+00 0. -1.
          6    1    1    2  502    0 -0.73582133790E+02  0.84139741965E+02 -0.71951444604E+02  0.21738177700E+03  0.17200000000E+03 0. -1.
         -6    1    1    2    0  501  0.73582133790E+02 -0.84139741965E+02 -0.12807790530E+03  0.24183005689E+03  0.17200000000E+03 0.  1.
<mgrwt>
<rscale>  2 0.20512880E+03</rscale>
<asrwt>0</asrwt>
<pdfrwt beam="1">  1        1 0.32397811E-01 0.20512880E+03</pdfrwt>
<pdfrwt beam="2">  1       -1 0.82405147E-01 0.20512880E+03</pdfrwt>
<totfact> 0.21338412E+02</totfact>
</mgrwt>
</event>
<event>
 4    1  0.3761914E-001  0.2052975E+03  0.7546771E-02  0.1145345E+00
         -1   -1    0    0    0  501 -0.00000000000E+00  0.00000000000E+00  0.16533051916E+03  0.16533051916E+03  0.00000000000E+00 0. -1.
          1   -1    0    0  502    0  0.00000000000E+00 -0.00000000000E+00 -0.35788350352E+03  0.35788350352E+03  0.00000000000E+00 0.  1.
          6    1    1    2  502    0  0.32939656950E+02  0.10713570923E+03  0.44039482242E+02  0.20996799087E+03  0.17200000000E+03 0. -1.
         -6    1    1    2    0  501 -0.32939656950E+02 -0.10713570923E+03 -0.23659246661E+03  0.31324603181E+03  0.17200000000E+03 0.  1.
<mgrwt>
<rscale>  2 0.20529754E+03</rscale>
<asrwt>0</asrwt>
<pdfrwt beam="1">  1        1 0.89470875E-01 0.20529754E+03</pdfrwt>
<pdfrwt beam="2">  1       -1 0.41332630E-01 0.20529754E+03</pdfrwt>
<totfact> 0.21796376E+02</totfact>
</mgrwt>
</event>
<event>
 4    1  0.3761914E-001  0.1860239E+03  0.7546771E-02  0.1162097E+00
         -2   -1    0    0    0  501 -0.00000000000E+00  0.00000000000E+00  0.22602453442E+02  0.22602453442E+02  0.00000000000E+00 0.  1.
          2   -1    0    0  502    0  0.00000000000E+00 -0.00000000000E+00 -0.17377871751E+04  0.17377871751E+04  0.00000000000E+00 0. -1.
          6    1    1    2  502    0  0.56865440625E+02  0.42275659184E+02 -0.55398199435E+03  0.58438083453E+03  0.17200000000E+03 0.  1.
         -6    1    1    2    0  501 -0.56865440625E+02 -0.42275659184E+02 -0.11612027273E+04  0.11760087940E+04  0.17200000000E+03 0. -1.
<mgrwt>
<rscale>  2 0.18602395E+03</rscale>
<asrwt>0</asrwt>
<pdfrwt beam="1">  1        2 0.43444684E+00 0.18602395E+03</pdfrwt>
<pdfrwt beam="2">  1       -2 0.56506128E-02 0.18602395E+03</pdfrwt>
<totfact> 0.43937394E+02</totfact>
</mgrwt>
</event>
<event>
 4    1  0.3761914E-001  0.2065135E+03  0.7546771E-02  0.1144357E+00
          2   -1    0    0  502    0  0.00000000000E+00  0.00000000000E+00  0.74864717327E+03  0.74864717327E+03  0.00000000000E+00 0.  1.
         -2   -1    0    0    0  501 -0.00000000000E+00 -0.00000000000E+00 -0.60520069808E+02  0.60520069808E+02  0.00000000000E+00 0. -1.
          6    1    1    2  502    0  0.86730440043E+02 -0.74442275800E+02  0.24602655557E+03  0.32121159335E+03  0.17200000000E+03 0. -1.
         -6    1    1    2    0  501 -0.86730440043E+02  0.74442275800E+02  0.44210054790E+03  0.48795564973E+03  0.17200000000E+03 0.  1.
<mgrwt>
<rscale>  2 0.20651349E+03</rscale>
<asrwt>0</asrwt>
<pdfrwt beam="1">  1        2 0.18716176E+00 0.20651349E+03</pdfrwt>
<pdfrwt beam="2">  1       -2 0.15130020E-01 0.20651349E+03</pdfrwt>
<totfact> 0.66623449E+02</totfact>
</mgrwt>
</event>
<event>
 4    1  0.3761914E-001  0.1931152E+03  0.7546771E-02  0.1155681E+00
         -1   -1    0    0    0  501 -0.00000000000E+00  0.00000000000E+00  0.39289716828E+03  0.39289716828E+03  0.00000000000E+00 0.  1.
          1   -1    0    0  502    0  0.00000000000E+00 -0.00000000000E+00 -0.10358298055E+03  0.10358298055E+03  0.00000000000E+00 0. -1.
          6    1    1    2  502    0 -0.82056603095E+02 -0.31243800344E+02  0.21645023018E+03  0.29007613366E+03  0.17200000000E+03 0.  1.
         -6    1    1    2    0  501  0.82056603095E+02  0.31243800344E+02  0.72863957541E+02  0.20640401517E+03  0.17200000000E+03 0.  1.
<mgrwt>
<rscale>  2 0.19311515E+03</rscale>
<asrwt>0</asrwt>
<pdfrwt beam="1">  1        1 0.25895746E-01 0.19311515E+03</pdfrwt>
<pdfrwt beam="2">  1       -1 0.98224288E-01 0.19311515E+03</pdfrwt>
<totfact> 0.19455207E+02</totfact>
</mgrwt>
</event>
<event>
 4    1  0.3761914E-001  0.1785539E+03  0.7546771E-02  0.1169210E+00
          2   -1    0    0  502    0  0.00000000000E+00  0.00000000000E+00  0.18190295856E+03  0.18190295856E+03  0.00000000000E+00 0.  1.
         -2   -1    0    0    0  501 -0.00000000000E+00 -0.00000000000E+00 -0.17539152471E+03  0.17539152471E+03  0.00000000000E+00 0. -1.
          6    1    1    2  502    0 -0.33667674407E+02 -0.34117441254E+02 -0.15121656480E+01  0.17856035042E+03  0.17200000000E+03 0. -1.
         -6    1    1    2    0  501  0.33667674407E+02  0.34117441254E+02  0.80235995014E+01  0.17873413285E+03  0.17200000000E+03 0. -1.
<mgrwt>
<rscale>  2 0.17855395E+03</rscale>
<asrwt>0</asrwt>
<pdfrwt beam="1">  1        2 0.45475740E-01 0.17855395E+03</pdfrwt>
<pdfrwt beam="2">  1       -2 0.43847881E-01 0.17855395E+03</pdfrwt>
<totfact> 0.55524892E+02</totfact>
</mgrwt>
</event>
<event>
 4    1  0.3761914E-001  0.2594696E+03  0.7546771E-02  0.1107462E+00
          2   -1    0    0  502    0  0.00000000000E+00  0.00000000000E+00  0.83186594503E+03  0.83186594503E+03  0.00000000000E+00 0.  1.
         -2   -1    0    0    0  501 -0.00000000000E+00 -0.00000000000E+00 -0.11473171692E+03  0.11473171692E+03  0.00000000000E+00 0. -1.
          6    1    1    2  502    0 -0.13223426956E+03 -0.14231852363E+03  0.61545940391E+03  0.66791821511E+03  0.17200000000E+03 0.  1.
         -6    1    1    2    0  501  0.13223426956E+03  0.14231852363E+03  0.10167482420E+03  0.27867944684E+03  0.17200000000E+03 0. -1.
<mgrwt>
<rscale>  2 0.25946958E+03</rscale>
<asrwt>0</asrwt>
<pdfrwt beam="1">  1        2 0.20796647E+00 0.25946958E+03</pdfrwt>
<pdfrwt beam="2">  1       -2 0.28682932E-01 0.25946958E+03</pdfrwt>
<totfact> 0.18455401E+02</totfact>
</mgrwt>
</event>
<event>
 4    1  0.3761914E-001  0.2611790E+03  0.7546771E-02  0.1106437E+00
         -2   -1    0    0    0  501 -0.00000000000E+00  0.00000000000E+00  0.10324619000E+03  0.10324619000E+03  0.00000000000E+00 0.  1.
          2   -1    0    0  502    0  0.00000000000E+00 -0.00000000000E+00 -0.69489836930E+03  0.69489836930E+03  0.00000000000E+00 0. -1.
          6    1    1    2  502    0 -0.19608962907E+03  0.13391367819E+02 -0.20729185737E+03  0.33344322679E+03  0.17200000000E+03 0. -1.
         -6    1    1    2    0  501  0.19608962907E+03 -0.13391367819E+02 -0.38436032193E+03  0.46470133251E+03  0.17200000000E+03 0. -1.
<mgrwt>
<rscale>  2 0.26117900E+03</rscale>
<asrwt>0</asrwt>
<pdfrwt beam="1">  1        2 0.17372459E+00 0.26117900E+03</pdfrwt>
<pdfrwt beam="2">  1       -2 0.25811548E-01 0.26117900E+03</pdfrwt>
<totfact> 0.29755939E+02</totfact>
</mgrwt>
</event>
<event>
 4    1  0.3761914E-001  0.2007459E+03  0.7546771E-02  0.1149111E+00
         -2   -1    0    0    0  501 -0.00000000000E+00  0.00000000000E+00  0.87207868183E+02  0.87207868183E+02  0.00000000000E+00 0.  1.
          2   -1    0    0  502    0  0.00000000000E+00 -0.00000000000E+00 -0.46228209400E+03  0.46228209400E+03  0.00000000000E+00 0. -1.
          6    1    1    2  502    0  0.47773455112E+02 -0.91829273794E+02 -0.19296197188E+03  0.27844791457E+03  0.17200000000E+03 0. -1.
         -6    1    1    2    0  501 -0.47773455112E+02  0.91829273794E+02 -0.18211225394E+03  0.27104204761E+03  0.17200000000E+03 0. -1.
<mgrwt>
<rscale>  2 0.20074591E+03</rscale>
<asrwt>0</asrwt>
<pdfrwt beam="1">  1        2 0.11557052E+00 0.20074591E+03</pdfrwt>
<pdfrwt beam="2">  1       -2 0.21801968E-01 0.20074591E+03</pdfrwt>
<totfact> 0.69979955E+02</totfact>
</mgrwt>
</event>
<event>
 4    1  0.3761914E-001  0.1753820E+03  0.7546771E-02  0.1172349E+00
         -2   -1    0    0    0  501 -0.00000000000E+00  0.00000000000E+00  0.45518368952E+02  0.45518368952E+02  0.00000000000E+00 0.  1.
          2   -1    0    0  502    0  0.00000000000E+00 -0.00000000000E+00 -0.69815268437E+03  0.69815268437E+03  0.00000000000E+00 0. -1.
          6    1    1    2  502    0 -0.95767521949E+01 -0.32910799300E+02 -0.39293167934E+03  0.43029540960E+03  0.17200000000E+03 0. -1.
         -6    1    1    2    0  501  0.95767521949E+01  0.32910799300E+02 -0.25970263608E+03  0.31337564372E+03  0.17200000000E+03 0.  1.
<mgrwt>
<rscale>  2 0.17538197E+03</rscale>
<asrwt>0</asrwt>
<pdfrwt beam="1">  1        2 0.17453817E+00 0.17538197E+03</pdfrwt>
<pdfrwt beam="2">  1       -2 0.11379593E-01 0.17538197E+03</pdfrwt>
<totfact> 0.11801281E+03</totfact>
</mgrwt>
</event>
<event>
 4    1  0.3761914E-001  0.2773553E+03  0.7546771E-02  0.1097142E+00
          2   -1    0    0  502    0  0.00000000000E+00  0.00000000000E+00  0.98922112402E+03  0.98922112402E+03  0.00000000000E+00 0. -1.
         -2   -1    0    0    0  501 -0.00000000000E+00 -0.00000000000E+00 -0.79405104706E+02  0.79405104706E+02  0.00000000000E+00 0.  1.
          6    1    1    2  502    0 -0.20119524648E+03 -0.82839849786E+02  0.53171772709E+03  0.59970801997E+03  0.17200000000E+03 0. -1.
         -6    1    1    2    0  501  0.20119524648E+03  0.82839849786E+02  0.37809829222E+03  0.46891820875E+03  0.17200000000E+03 0.  1.
<mgrwt>
<rscale>  2 0.27735531E+03</rscale>
<asrwt>0</asrwt>
<pdfrwt beam="1">  1        2 0.24730524E+00 0.27735531E+03</pdfrwt>
<pdfrwt beam="2">  1       -2 0.19851279E-01 0.27735531E+03</pdfrwt>
<totfact> 0.25604397E+02</totfact>
</mgrwt>
</event>
<event>
 4    1  0.3761914E-001  0.1733772E+03  0.7546771E-02  0.1174371E+00
         -2   -1    0    0    0  501 -0.00000000000E+00  0.00000000000E+00  0.28816602125E+02  0.28816602125E+02  0.00000000000E+00 0.  1.
          2   -1    0    0  502    0  0.00000000000E+00 -0.00000000000E+00 -0.13100588200E+04  0.13100588200E+04  0.00000000000E+00 0. -1.
          6    1    1    2  502    0  0.19742079453E+02 -0.92675712078E+01 -0.94279543177E+03  0.95860464412E+03  0.17200000000E+03 0. -1.
         -6    1    1    2    0  501 -0.19742079453E+02  0.92675712078E+01 -0.33844678614E+03  0.38027077804E+03  0.17200000000E+03 0.  1.
<mgrwt>
<rscale>  2 0.17337715E+03</rscale>
<asrwt>0</asrwt>
<pdfrwt beam="1">  1        2 0.32751470E+00 0.17337715E+03</pdfrwt>
<pdfrwt beam="2">  1       -2 0.72041507E-02 0.17337715E+03</pdfrwt>
<totfact> 0.72140073E+02</totfact>
</mgrwt>
</event>
<event>
 4    1  0.3761914E-001  0.1877030E+03  0.7546771E-02  0.1160550E+00
         -2   -1    0    0    0  501 -0.00000000000E+00  0.00000000000E+00  0.98180717625E+02  0.98180717625E+02  0.00000000000E+00 0.  1.
          2   -1    0    0  502    0  0.00000000000E+00 -0.00000000000E+00 -0.58835273942E+03  0.58835273942E+03  0.00000000000E+00 0. -1.
          6    1    1    2  502    0  0.59017289292E+01 -0.74923891653E+02 -0.45947583182E+03  0.49633704272E+03  0.17200000000E+03 0.  1.
         -6    1    1    2    0  501 -0.59017289292E+01  0.74923891653E+02 -0.30696189975E+02  0.19019641433E+03  0.17200000000E+03 0.  1.
<mgrwt>
<rscale>  2 0.18770301E+03</rscale>
<asrwt>0</asrwt>
<pdfrwt beam="1">  1        2 0.14708818E+00 0.18770301E+03</pdfrwt>
<pdfrwt beam="2">  1       -2 0.24545180E-01 0.18770301E+03</pdfrwt>
<totfact> 0.41715094E+02</totfact>
</mgrwt>
</event>
<event>
 4    1  0.3761914E-001  0.1880307E+03  0.7546771E-02  0.1160250E+00
          2   -1    0    0  502    0  0.00000000000E+00  0.00000000000E+00  0.65121014309E+03  0.65121014309E+03  0.00000000000E+00 0.  1.
         -2   -1    0    0    0  501 -0.00000000000E+00 -0.00000000000E+00 -0.68936800316E+02  0.68936800316E+02  0.00000000000E+00 0. -1.
          6    1    1    2  502    0  0.55537546673E+02 -0.51837306628E+02  0.12517540594E+03  0.22588582891E+03  0.17200000000E+03 0. -1.
         -6    1    1    2    0  501 -0.55537546673E+02  0.51837306628E+02  0.45709793683E+03  0.49426111449E+03  0.17200000000E+03 0.  1.
<mgrwt>
<rscale>  2 0.18803065E+03</rscale>
<asrwt>0</asrwt>
<pdfrwt beam="1">  1        2 0.16280252E+00 0.18803065E+03</pdfrwt>
<pdfrwt beam="2">  1       -2 0.17234202E-01 0.18803065E+03</pdfrwt>
<totfact> 0.66284532E+02</totfact>
</mgrwt>
</event>
<event>
 4    1  0.3761914E-001  0.1737717E+03  0.7546771E-02  0.1173971E+00
          1   -1    0    0  502    0  0.00000000000E+00  0.00000000000E+00  0.76410381717E+03  0.76410381717E+03  0.00000000000E+00 0. -1.
         -1   -1    0    0    0  501 -0.00000000000E+00 -0.00000000000E+00 -0.44699065953E+02  0.44699065953E+02  0.00000000000E+00 0.  1.
          6    1    1    2  502    0  0.21460461660E+02 -0.12331641270E+02  0.22203500942E+03  0.28195064497E+03  0.17200000000E+03 0.  1.
         -6    1    1    2    0  501 -0.21460461660E+02  0.12331641270E+02  0.49736974179E+03  0.52685223815E+03  0.17200000000E+03 0. -1.
<mgrwt>
<rscale>  2 0.17377175E+03</rscale>
<asrwt>0</asrwt>
<pdfrwt beam="1">  1        1 0.19102591E+00 0.17377175E+03</pdfrwt>
<pdfrwt beam="2">  1       -1 0.11174769E-01 0.17377175E+03</pdfrwt>
<totfact> 0.55674087E+02</totfact>
</mgrwt>
</event>
<event>
 4    1  0.3761914E-001  0.4603781E+03  0.7546771E-02  0.1024672E+00
         -1   -1    0    0    0  501 -0.00000000000E+00  0.00000000000E+00  0.31179986716E+03  0.31179986716E+03  0.00000000000E+00 0. -1.
          1   -1    0    0  502    0  0.00000000000E+00 -0.00000000000E+00 -0.74729675144E+03  0.74729675144E+03  0.00000000000E+00 0.  1.
          6    1    1    2  502    0 -0.36843126188E+03 -0.21592215982E+03 -0.58549380032E+02  0.46408620291E+03  0.17200000000E+03 0. -1.
         -6    1    1    2    0  501  0.36843126188E+03  0.21592215982E+03 -0.37694750424E+03  0.59501041569E+03  0.17200000000E+03 0.  1.
<mgrwt>
<rscale>  2 0.46037808E+03</rscale>
<asrwt>0</asrwt>
<pdfrwt beam="1">  1        1 0.18682419E+00 0.46037808E+03</pdfrwt>
<pdfrwt beam="2">  1       -1 0.77949967E-01 0.46037808E+03</pdfrwt>
<totfact> 0.18609395E+01</totfact>
</mgrwt>
</event>
<event>
 4    1  0.3761914E-001  0.1892105E+03  0.7546771E-02  0.1159175E+00
          2   -1    0    0  502    0  0.00000000000E+00  0.00000000000E+00  0.10834042456E+04  0.10834042456E+04  0.00000000000E+00 0.  1.
         -2   -1    0    0    0  501 -0.00000000000E+00 -0.00000000000E+00 -0.36356990715E+02  0.36356990715E+02  0.00000000000E+00 0. -1.
          6    1    1    2  502    0 -0.33142666028E+02 -0.71541310025E+02  0.69251952256E+03  0.71790241988E+03  0.17200000000E+03 0. -1.
         -6    1    1    2    0  501  0.33142666028E+02  0.71541310025E+02  0.35452773229E+03  0.40185881640E+03  0.17200000000E+03 0. -1.
<mgrwt>
<rscale>  2 0.18921045E+03</rscale>
<asrwt>0</asrwt>
<pdfrwt beam="1">  1        2 0.27085095E+00 0.18921045E+03</pdfrwt>
<pdfrwt beam="2">  1       -2 0.90892513E-02 0.18921045E+03</pdfrwt>
<totfact> 0.77718937E+02</totfact>
</mgrwt>
</event>
<event>
 4    1  0.3761914E-001  0.1846587E+03  0.7546771E-02  0.1163369E+00
          1   -1    0    0  502    0  0.00000000000E+00  0.00000000000E+00  0.11875207317E+03  0.11875207317E+03  0.00000000000E+00 0. -1.
         -1   -1    0    0    0  501 -0.00000000000E+00 -0.00000000000E+00 -0.28716677997E+03  0.28716677997E+03  0.00000000000E+00 0.  1.
          6    1    1    2  502    0  0.37864535147E+02 -0.55507815339E+02 -0.86049675398E+02  0.20372380131E+03  0.17200000000E+03 0.  1.
         -6    1    1    2    0  501 -0.37864535147E+02  0.55507815339E+02 -0.82365031395E+02  0.20219505182E+03  0.17200000000E+03 0.  1.
<mgrwt>
<rscale>  2 0.18465871E+03</rscale>
<asrwt>0</asrwt>
<pdfrwt beam="1">  1        1 0.29688018E-01 0.18465871E+03</pdfrwt>
<pdfrwt beam="2">  1       -1 0.71791695E-01 0.18465871E+03</pdfrwt>
<totfact> 0.31611396E+02</totfact>
</mgrwt>
</event>
<event>
 4    1  0.3761914E-001  0.1740989E+03  0.7546771E-02  0.1173639E+00
          1   -1    0    0  502    0  0.00000000000E+00  0.00000000000E+00  0.60641919591E+03  0.60641919591E+03  0.00000000000E+00 0. -1.
         -1   -1    0    0    0  501 -0.00000000000E+00 -0.00000000000E+00 -0.52315283812E+02  0.52315283812E+02  0.00000000000E+00 0.  1.
          6    1    1    2  502    0  0.17173749113E+02  0.20772598687E+02  0.34660071369E+03  0.38786917027E+03  0.17200000000E+03 0. -1.
         -6    1    1    2    0  501 -0.17173749113E+02 -0.20772598687E+02  0.20750319841E+03  0.27086530945E+03  0.17200000000E+03 0.  1.
<mgrwt>
<rscale>  2 0.17409893E+03</rscale>
<asrwt>0</asrwt>
<pdfrwt beam="1">  1        1 0.15160478E+00 0.17409893E+03</pdfrwt>
<pdfrwt beam="2">  1       -1 0.13078823E-01 0.17409893E+03</pdfrwt>
<totfact> 0.66280452E+02</totfact>
</mgrwt>
</event>
<event>
 4    1  0.3761914E-001  0.1837025E+03  0.7546771E-02  0.1164267E+00
          2   -1    0    0  502    0  0.00000000000E+00  0.00000000000E+00  0.50085740647E+03  0.50085740647E+03  0.00000000000E+00 0.  1.
         -2   -1    0    0    0  501 -0.00000000000E+00 -0.00000000000E+00 -0.77693108532E+02  0.77693108532E+02  0.00000000000E+00 0. -1.
          6    1    1    2  502    0  0.63966961688E+02  0.84174206594E+01  0.31698759308E+03  0.36637106781E+03  0.17200000000E+03 0.  1.
         -6    1    1    2    0  501 -0.63966961688E+02 -0.84174206594E+01  0.10617670486E+03  0.21217944720E+03  0.17200000000E+03 0. -1.
<mgrwt>
<rscale>  2 0.18370255E+03</rscale>
<asrwt>0</asrwt>
<pdfrwt beam="1">  1        2 0.12521434E+00 0.18370255E+03</pdfrwt>
<pdfrwt beam="2">  1       -2 0.19423279E-01 0.18370255E+03</pdfrwt>
<totfact> 0.77191912E+02</totfact>
</mgrwt>
</event>
<event>
 4    1  0.3761914E-001  0.2061983E+03  0.7546771E-02  0.1144612E+00
         -1   -1    0    0    0  501 -0.00000000000E+00  0.00000000000E+00  0.69961242017E+02  0.69961242017E+02  0.00000000000E+00 0.  1.
          1   -1    0    0  502    0  0.00000000000E+00 -0.00000000000E+00 -0.62320233129E+03  0.62320233129E+03  0.00000000000E+00 0. -1.
          6    1    1    2  502    0  0.11275378828E+03  0.14843588111E+02 -0.22201606173E+03  0.30299980288E+03  0.17200000000E+03 0. -1.
         -6    1    1    2    0  501 -0.11275378828E+03 -0.14843588111E+02 -0.33122502754E+03  0.39016377042E+03  0.17200000000E+03 0. -1.
<mgrwt>
<rscale>  2 0.20619832E+03</rscale>
<asrwt>0</asrwt>
<pdfrwt beam="1">  1        1 0.15580058E+00 0.20619832E+03</pdfrwt>
<pdfrwt beam="2">  1       -1 0.17490311E-01 0.20619832E+03</pdfrwt>
<totfact> 0.39807127E+02</totfact>
</mgrwt>
</event>
<event>
 4    1  0.3761914E-001  0.2804501E+03  0.7546771E-02  0.1095443E+00
         -1   -1    0    0    0  501 -0.00000000000E+00  0.00000000000E+00  0.15830045761E+03  0.15830045761E+03  0.00000000000E+00 0.  1.
          1   -1    0    0  502    0  0.00000000000E+00 -0.00000000000E+00 -0.51890484570E+03  0.51890484570E+03  0.00000000000E+00 0. -1.
          6    1    1    2  502    0 -0.74859945990E+02 -0.20848079476E+03 -0.25010241051E+03  0.37577050049E+03  0.17200000000E+03 0.  1.
         -6    1    1    2    0  501  0.74859945990E+02  0.20848079476E+03 -0.11050197759E+03  0.30143480281E+03  0.17200000000E+03 0.  1.
<mgrwt>
<rscale>  2 0.28045009E+03</rscale>
<asrwt>0</asrwt>
<pdfrwt beam="1">  1        1 0.12972621E+00 0.28045009E+03</pdfrwt>
<pdfrwt beam="2">  1       -1 0.39575115E-01 0.28045009E+03</pdfrwt>
<totfact> 0.13488186E+02</totfact>
</mgrwt>
</event>
<event>
 4    1  0.3761914E-001  0.2151767E+03  0.7546771E-02  0.1137531E+00
          2   -1    0    0  502    0  0.00000000000E+00  0.00000000000E+00  0.56555712338E+03  0.56555712338E+03  0.00000000000E+00 0.  1.
         -2   -1    0    0    0  501 -0.00000000000E+00 -0.00000000000E+00 -0.90301374861E+02  0.90301374861E+02  0.00000000000E+00 0. -1.
          6    1    1    2  502    0  0.87090675317E+02 -0.95562781874E+02  0.33784308780E+03  0.40054835286E+03  0.17200000000E+03 0.  1.
         -6    1    1    2    0  501 -0.87090675317E+02  0.95562781874E+02  0.13741266072E+03  0.25531014538E+03  0.17200000000E+03 0. -1.
<mgrwt>
<rscale>  2 0.21517674E+03</rscale>
<asrwt>0</asrwt>
<pdfrwt beam="1">  1        2 0.14138927E+00 0.21517674E+03</pdfrwt>
<pdfrwt beam="2">  1       -2 0.22575345E-01 0.21517674E+03</pdfrwt>
<totfact> 0.50777390E+02</totfact>
</mgrwt>
</event>
<event>
 4    1  0.3761914E-001  0.2258441E+03  0.7546771E-02  0.1129600E+00
         -4   -1    0    0    0  501 -0.00000000000E+00  0.00000000000E+00  0.94082242139E+02  0.94082242139E+02  0.00000000000E+00 0.  1.
          4   -1    0    0  502    0  0.00000000000E+00 -0.00000000000E+00 -0.54227268850E+03  0.54227268850E+03  0.00000000000E+00 0. -1.
          6    1    1    2  502    0 -0.14454177564E+03 -0.23005416974E+02 -0.21908381746E+03  0.31464788762E+03  0.17200000000E+03 0.  1.
         -6    1    1    2    0  501  0.14454177564E+03  0.23005416974E+02 -0.22910662890E+03  0.32170704301E+03  0.17200000000E+03 0. -1.
<mgrwt>
<rscale>  2 0.22584414E+03</rscale>
<asrwt>0</asrwt>
<pdfrwt beam="1">  1        4 0.13556817E+00 0.22584414E+03</pdfrwt>
<pdfrwt beam="2">  1       -4 0.23520561E-01 0.22584414E+03</pdfrwt>
<totfact> 0.12344499E+01</totfact>
</mgrwt>
</event>
<event>
 4    1  0.3761914E-001  0.1798843E+03  0.7546771E-02  0.1167915E+00
         -2   -1    0    0    0  501 -0.00000000000E+00  0.00000000000E+00  0.31395976606E+02  0.31395976606E+02  0.00000000000E+00 0.  1.
          2   -1    0    0  502    0  0.00000000000E+00 -0.00000000000E+00 -0.10750543257E+04  0.10750543257E+04  0.00000000000E+00 0. -1.
          6    1    1    2  502    0  0.48103615803E+02 -0.21456973917E+02 -0.63425972868E+03  0.65927518004E+03  0.17200000000E+03 0.  1.
         -6    1    1    2    0  501 -0.48103615803E+02  0.21456973917E+02 -0.40939862043E+03  0.44717512229E+03  0.17200000000E+03 0.  1.
<mgrwt>
<rscale>  2 0.17988429E+03</rscale>
<asrwt>0</asrwt>
<pdfrwt beam="1">  1        2 0.26876357E+00 0.17988429E+03</pdfrwt>
<pdfrwt beam="2">  1       -2 0.78489944E-02 0.17988429E+03</pdfrwt>
<totfact> 0.99466075E+02</totfact>
</mgrwt>
</event>
<event>
 4    1  0.3761914E-001  0.2729800E+03  0.7546771E-02  0.1099586E+00
         -2   -1    0    0    0  501 -0.00000000000E+00  0.00000000000E+00  0.75239974016E+02  0.75239974016E+02  0.00000000000E+00 0.  1.
          2   -1    0    0  502    0  0.00000000000E+00 -0.00000000000E+00 -0.99707074237E+03  0.99707074237E+03  0.00000000000E+00 0. -1.
          6    1    1    2  502    0 -0.18017422832E+03 -0.11167512756E+03 -0.50475174771E+03  0.57384005914E+03  0.17200000000E+03 0. -1.
         -6    1    1    2    0  501  0.18017422832E+03  0.11167512756E+03 -0.41707902065E+03  0.49847065724E+03  0.17200000000E+03 0.  1.
<mgrwt>
<rscale>  2 0.27298001E+03</rscale>
<asrwt>0</asrwt>
<pdfrwt beam="1">  1        2 0.24926769E+00 0.27298001E+03</pdfrwt>
<pdfrwt beam="2">  1       -2 0.18809993E-01 0.27298001E+03</pdfrwt>
<totfact> 0.27665361E+02</totfact>
</mgrwt>
</event>
<event>
 4    1  0.3761914E-001  0.2231486E+03  0.7546771E-02  0.1131557E+00
          2   -1    0    0  502    0  0.00000000000E+00  0.00000000000E+00  0.63062471017E+03  0.63062471017E+03  0.00000000000E+00 0.  1.
         -2   -1    0    0    0  501 -0.00000000000E+00 -0.00000000000E+00 -0.80214082932E+02  0.80214082932E+02  0.00000000000E+00 0. -1.
          6    1    1    2  502    0 -0.34436275416E+02 -0.13793271378E+03  0.23079751470E+03  0.32103392872E+03  0.17200000000E+03 0.  1.
         -6    1    1    2    0  501  0.34436275416E+02  0.13793271378E+03  0.31961311253E+03  0.38980486438E+03  0.17200000000E+03 0. -1.
<mgrwt>
<rscale>  2 0.22314858E+03</rscale>
<asrwt>0</asrwt>
<pdfrwt beam="1">  1        2 0.15765616E+00 0.22314858E+03</pdfrwt>
<pdfrwt beam="2">  1       -2 0.20053523E-01 0.22314858E+03</pdfrwt>
<totfact> 0.53535926E+02</totfact>
</mgrwt>
</event>
<event>
 4    1  0.3761914E-001  0.2459886E+03  0.7546771E-02  0.1115866E+00
          2   -1    0    0  502    0  0.00000000000E+00  0.00000000000E+00  0.19998206791E+03  0.19998206791E+03  0.00000000000E+00 0.  1.
         -2   -1    0    0    0  501 -0.00000000000E+00 -0.00000000000E+00 -0.41260068849E+03  0.41260068849E+03  0.00000000000E+00 0. -1.
          6    1    1    2  502    0 -0.74470555448E+02  0.15931265913E+03 -0.26447374147E+03  0.36118796618E+03  0.17200000000E+03 0. -1.
         -6    1    1    2    0  501  0.74470555448E+02 -0.15931265913E+03  0.51855120890E+02  0.25139479022E+03  0.17200000000E+03 0.  1.
<mgrwt>
<rscale>  2 0.24598859E+03</rscale>
<asrwt>0</asrwt>
<pdfrwt beam="1">  1        2 0.49995517E-01 0.24598859E+03</pdfrwt>
<pdfrwt beam="2">  1       -2 0.10315017E+00 0.24598859E+03</pdfrwt>
<totfact> 0.80931269E+01</totfact>
</mgrwt>
</event>
<event>
 4    1  0.3761914E-001  0.1795760E+03  0.7546771E-02  0.1168214E+00
         -2   -1    0    0    0  501 -0.00000000000E+00  0.00000000000E+00  0.26703612432E+02  0.26703612432E+02  0.00000000000E+00 0.  1.
          2   -1    0    0  502    0  0.00000000000E+00 -0.00000000000E+00 -0.12320737828E+04  0.12320737828E+04  0.00000000000E+00 0. -1.
          6    1    1    2  502    0  0.46338538030E+02 -0.22721692647E+02 -0.51399664104E+03  0.54446311393E+03  0.17200000000E+03 0. -1.
         -6    1    1    2    0  501 -0.46338538030E+02  0.22721692647E+02 -0.69137352928E+03  0.71431428126E+03  0.17200000000E+03 0.  1.
<mgrwt>
<rscale>  2 0.17957599E+03</rscale>
<asrwt>0</asrwt>
<pdfrwt beam="1">  1        2 0.30801843E+00 0.17957599E+03</pdfrwt>
<pdfrwt beam="2">  1       -2 0.66759035E-02 0.17957599E+03</pdfrwt>
<totfact> 0.94261891E+02</totfact>
</mgrwt>
</event>
<event>
 4    1  0.3761914E-001  0.2328053E+03  0.7546771E-02  0.1124681E+00
          1   -1    0    0  502    0  0.00000000000E+00  0.00000000000E+00  0.91708889592E+02  0.91708889592E+02  0.00000000000E+00 0. -1.
         -1   -1    0    0    0  501 -0.00000000000E+00 -0.00000000000E+00 -0.61465330490E+03  0.61465330490E+03  0.00000000000E+00 0.  1.
          6    1    1    2  502    0 -0.13530730548E+03 -0.79411849339E+02 -0.33078172369E+03  0.40449333425E+03  0.17200000000E+03 0.  1.
         -6    1    1    2    0  501  0.13530730548E+03  0.79411849339E+02 -0.19216269162E+03  0.30186886024E+03  0.17200000000E+03 0.  1.
<mgrwt>
<rscale>  2 0.23280530E+03</rscale>
<asrwt>0</asrwt>
<pdfrwt beam="1">  1        1 0.22927223E-01 0.23280530E+03</pdfrwt>
<pdfrwt beam="2">  1       -1 0.15366332E+00 0.23280530E+03</pdfrwt>
<totfact> 0.76875266E+01</totfact>
</mgrwt>
</event>
<event>
 4    1  0.3761914E-001  0.2030924E+03  0.7546771E-02  0.1147156E+00
          2   -1    0    0  502    0  0.00000000000E+00  0.00000000000E+00  0.62699027972E+03  0.62699027972E+03  0.00000000000E+00 0.  1.
         -2   -1    0    0    0  501 -0.00000000000E+00 -0.00000000000E+00 -0.68491363232E+02  0.68491363232E+02  0.00000000000E+00 0. -1.
          6    1    1    2  502    0  0.78598172787E+02 -0.74059774766E+02  0.34837443175E+03  0.40325087439E+03  0.17200000000E+03 0.  1.
         -6    1    1    2    0  501 -0.78598172787E+02  0.74059774766E+02  0.21012448473E+03  0.29223076855E+03  0.17200000000E+03 0.  1.
<mgrwt>
<rscale>  2 0.20309240E+03</rscale>
<asrwt>0</asrwt>
<pdfrwt beam="1">  1        2 0.15674755E+00 0.20309240E+03</pdfrwt>
<pdfrwt beam="2">  1       -2 0.17122843E-01 0.20309240E+03</pdfrwt>
<totfact> 0.70641545E+02</totfact>
</mgrwt>
</event>
<event>
 4    1  0.3761914E-001  0.2367397E+03  0.7546771E-02  0.1121984E+00
         -1   -1    0    0    0  501 -0.00000000000E+00  0.00000000000E+00  0.48970580607E+02  0.48970580607E+02  0.00000000000E+00 0. -1.
          1   -1    0    0  502    0  0.00000000000E+00 -0.00000000000E+00 -0.11692592938E+04  0.11692592938E+04  0.00000000000E+00 0.  1.
          6    1    1    2  502    0  0.12759078149E+02 -0.16216930079E+03 -0.47146563696E+03  0.52756565755E+03  0.17200000000E+03 0. -1.
         -6    1    1    2    0  501 -0.12759078149E+02  0.16216930079E+03 -0.64882307623E+03  0.69066421685E+03  0.17200000000E+03 0.  1.
<mgrwt>
<rscale>  2 0.23673968E+03</rscale>
<asrwt>0</asrwt>
<pdfrwt beam="1">  1        1 0.29231482E+00 0.23673968E+03</pdfrwt>
<pdfrwt beam="2">  1       -1 0.12242645E-01 0.23673968E+03</pdfrwt>
<totfact> 0.17601551E+02</totfact>
</mgrwt>
</event>
<event>
 4    1  0.3761914E-001  0.2950673E+03  0.7546771E-02  0.1087733E+00
          2   -1    0    0  502    0  0.00000000000E+00  0.00000000000E+00  0.31163896694E+03  0.31163896694E+03  0.00000000000E+00 0.  1.
         -2   -1    0    0    0  501 -0.00000000000E+00 -0.00000000000E+00 -0.40154156878E+03  0.40154156878E+03  0.00000000000E+00 0. -1.
          6    1    1    2  502    0  0.12553303108E+03  0.20426007678E+03  0.15173634614E+03  0.33179608135E+03  0.17200000000E+03 0.  1.
         -6    1    1    2    0  501 -0.12553303108E+03 -0.20426007678E+03 -0.24163894798E+03  0.38138445438E+03  0.17200000000E+03 0. -1.
<mgrwt>
<rscale>  2 0.29506732E+03</rscale>
<asrwt>0</asrwt>
<pdfrwt beam="1">  1        2 0.77909742E-01 0.29506732E+03</pdfrwt>
<pdfrwt beam="2">  1       -2 0.10038539E+00 0.29506732E+03</pdfrwt>
<totfact> 0.52593351E+01</totfact>
</mgrwt>
</event>
<event>
 4    1  0.3761914E-001  0.2033133E+03  0.7546771E-02  0.1146973E+00
          2   -1    0    0  502    0  0.00000000000E+00  0.00000000000E+00  0.96818541028E+03  0.96818541028E+03  0.00000000000E+00 0.  1.
         -2   -1    0    0    0  501 -0.00000000000E+00 -0.00000000000E+00 -0.47280020852E+02  0.47280020852E+02  0.00000000000E+00 0. -1.
          6    1    1    2  502    0 -0.35518132906E+02 -0.10242450025E+03  0.61857188753E+03  0.65112786460E+03  0.17200000000E+03 0.  1.
         -6    1    1    2    0  501  0.35518132906E+02  0.10242450025E+03  0.30233350190E+03  0.36433756653E+03  0.17200000000E+03 0. -1.
<mgrwt>
<rscale>  2 0.20331334E+03</rscale>
<asrwt>0</asrwt>
<pdfrwt beam="1">  1        2 0.24204629E+00 0.20331334E+03</pdfrwt>
<pdfrwt beam="2">  1       -2 0.11820008E-01 0.20331334E+03</pdfrwt>
<totfact> 0.63949304E+02</totfact>
</mgrwt>
</event>
<event>
 4    1  0.3761914E-001  0.3390640E+03  0.7546771E-02  0.1067195E+00
         -2   -1    0    0    0  501 -0.00000000000E+00  0.00000000000E+00  0.32134935550E+03  0.32134935550E+03  0.00000000000E+00 0.  1.
          2   -1    0    0  502    0  0.00000000000E+00 -0.00000000000E+00 -0.39312214188E+03  0.39312214188E+03  0.00000000000E+00 0. -1.
          6    1    1    2  502    0 -0.16851764811E+03  0.23870950303E+03 -0.14303573339E+03  0.36799951846E+03  0.17200000000E+03 0.  1.
         -6    1    1    2    0  501  0.16851764811E+03 -0.23870950303E+03  0.71262947015E+02  0.34647197892E+03  0.17200000000E+03 0. -1.
<mgrwt>
<rscale>  2 0.33906404E+03</rscale>
<asrwt>0</asrwt>
<pdfrwt beam="1">  1        2 0.98280535E-01 0.33906404E+03</pdfrwt>
<pdfrwt beam="2">  1       -2 0.80337339E-01 0.33906404E+03</pdfrwt>
<totfact> 0.66253537E+01</totfact>
</mgrwt>
</event>
<event>
 4    1  0.3761914E-001  0.2261300E+03  0.7546771E-02  0.1129394E+00
         -1   -1    0    0    0  501 -0.00000000000E+00  0.00000000000E+00  0.72268515535E+03  0.72268515535E+03  0.00000000000E+00 0. -1.
          1   -1    0    0  502    0  0.00000000000E+00 -0.00000000000E+00 -0.87253078041E+02  0.87253078041E+02  0.00000000000E+00 0.  1.
          6    1    1    2  502    0 -0.19428672431E+02 -0.14551046705E+03  0.49380279364E+03  0.54311690117E+03  0.17200000000E+03 0. -1.
         -6    1    1    2    0  501  0.19428672431E+02  0.14551046705E+03  0.14162928367E+03  0.26682133222E+03  0.17200000000E+03 0.  1.
<mgrwt>
<rscale>  2 0.22612998E+03</rscale>
<asrwt>0</asrwt>
<pdfrwt beam="1">  1        1 0.21813272E-01 0.22612998E+03</pdfrwt>
<pdfrwt beam="2">  1       -1 0.18067127E+00 0.22612998E+03</pdfrwt>
<totfact> 0.52439068E+01</totfact>
</mgrwt>
</event>
<event>
 4    1  0.3761914E-001  0.2215327E+03  0.7546771E-02  0.1132746E+00
          2   -1    0    0  502    0  0.00000000000E+00  0.00000000000E+00  0.33774945288E+03  0.33774945288E+03  0.00000000000E+00 0. -1.
         -2   -1    0    0    0  501 -0.00000000000E+00 -0.00000000000E+00 -0.21615858169E+03  0.21615858169E+03  0.00000000000E+00 0.  1.
          6    1    1    2  502    0 -0.67343829162E+02 -0.12230096628E+03  0.21935849954E+03  0.31176091641E+03  0.17200000000E+03 0. -1.
         -6    1    1    2    0  501  0.67343829162E+02  0.12230096628E+03 -0.97767628346E+02  0.24214711816E+03  0.17200000000E+03 0.  1.
<mgrwt>
<rscale>  2 0.22153266E+03</rscale>
<asrwt>0</asrwt>
<pdfrwt beam="1">  1        2 0.84437363E-01 0.22153266E+03</pdfrwt>
<pdfrwt beam="2">  1       -2 0.54039646E-01 0.22153266E+03</pdfrwt>
<totfact> 0.18647273E+02</totfact>
</mgrwt>
</event>
<event>
 4    1  0.3761914E-001  0.3229959E+03  0.7546771E-02  0.1074279E+00
          1   -1    0    0  502    0  0.00000000000E+00  0.00000000000E+00  0.10003298919E+04  0.10003298919E+04  0.00000000000E+00 0. -1.
         -1   -1    0    0    0  501 -0.00000000000E+00 -0.00000000000E+00 -0.10433530898E+03  0.10433530898E+03  0.00000000000E+00 0.  1.
          6    1    1    2  502    0 -0.51101233279E+02 -0.26857219127E+03  0.45925655720E+03  0.56146499739E+03  0.17200000000E+03 0.  1.
         -6    1    1    2    0  501  0.51101233279E+02  0.26857219127E+03  0.43673802576E+03  0.54320020353E+03  0.17200000000E+03 0. -1.
<mgrwt>
<rscale>  2 0.32299591E+03</rscale>
<asrwt>0</asrwt>
<pdfrwt beam="1">  1        1 0.25008244E+00 0.32299591E+03</pdfrwt>
<pdfrwt beam="2">  1       -1 0.26083830E-01 0.32299591E+03</pdfrwt>
<totfact> 0.76415842E+01</totfact>
</mgrwt>
</event>
<event>
 4    1  0.3761914E-001  0.2861560E+03  0.7546771E-02  0.1092373E+00
         -2   -1    0    0    0  501 -0.00000000000E+00  0.00000000000E+00  0.33114395548E+03  0.33114395548E+03  0.00000000000E+00 0. -1.
          2   -1    0    0  502    0  0.00000000000E+00 -0.00000000000E+00 -0.28218624073E+03  0.28218624073E+03  0.00000000000E+00 0.  1.
          6    1    1    2  502    0 -0.13344317884E+03 -0.18572600572E+03  0.13233598262E+03  0.31527455253E+03  0.17200000000E+03 0. -1.
         -6    1    1    2    0  501  0.13344317884E+03  0.18572600572E+03 -0.83378267869E+02  0.29805564368E+03  0.17200000000E+03 0.  1.
<mgrwt>
<rscale>  2 0.28615596E+03</rscale>
<asrwt>0</asrwt>
<pdfrwt beam="1">  1        2 0.70546560E-01 0.28615596E+03</pdfrwt>
<pdfrwt beam="2">  1       -2 0.82785989E-01 0.28615596E+03</pdfrwt>
<totfact> 0.91374959E+01</totfact>
</mgrwt>
</event>
<event>
 4    1  0.3761914E-001  0.2307355E+03  0.7546771E-02  0.1126123E+00
          2   -1    0    0  502    0  0.00000000000E+00  0.00000000000E+00  0.11024233202E+04  0.11024233202E+04  0.00000000000E+00 0.  1.
         -2   -1    0    0    0  501 -0.00000000000E+00 -0.00000000000E+00 -0.55549677511E+02  0.55549677511E+02  0.00000000000E+00 0. -1.
          6    1    1    2  502    0  0.12903089090E+03  0.83701332864E+02  0.31416600486E+03  0.38979374358E+03  0.17200000000E+03 0.  1.
         -6    1    1    2    0  501 -0.12903089090E+03 -0.83701332864E+02  0.73270763783E+03  0.76817925413E+03  0.17200000000E+03 0. -1.
<mgrwt>
<rscale>  2 0.23073553E+03</rscale>
<asrwt>0</asrwt>
<pdfrwt beam="1">  1        2 0.27560576E+00 0.23073553E+03</pdfrwt>
<pdfrwt beam="2">  1       -2 0.13887423E-01 0.23073553E+03</pdfrwt>
<totfact> 0.37646451E+02</totfact>
</mgrwt>
</event>
<event>
 4    1  0.3761914E-001  0.1789861E+03  0.7546771E-02  0.1168788E+00
          2   -1    0    0  502    0  0.00000000000E+00  0.00000000000E+00  0.18475074627E+04  0.18475074627E+04  0.00000000000E+00 0.  1.
         -2   -1    0    0    0  501 -0.00000000000E+00 -0.00000000000E+00 -0.20793800352E+02  0.20793800352E+02  0.00000000000E+00 0. -1.
          6    1    1    2  502    0 -0.36929041630E+02  0.32988788508E+02  0.12940635998E+04  0.13063830276E+04  0.17200000000E+03 0. -1.
         -6    1    1    2    0  501  0.36929041630E+02 -0.32988788508E+02  0.53265006254E+03  0.56191823551E+03  0.17200000000E+03 0. -1.
<mgrwt>
<rscale>  2 0.17898607E+03</rscale>
<asrwt>0</asrwt>
<pdfrwt beam="1">  1        2 0.46187631E+00 0.17898607E+03</pdfrwt>
<pdfrwt beam="2">  1       -2 0.51984564E-02 0.17898607E+03</pdfrwt>
<totfact> 0.39480159E+02</totfact>
</mgrwt>
</event>
<event>
 4    1  0.3761914E-001  0.2046572E+03  0.7546771E-02  0.1145868E+00
         -1   -1    0    0    0  501 -0.00000000000E+00  0.00000000000E+00  0.69363346368E+02  0.69363346368E+02  0.00000000000E+00 0. -1.
          1   -1    0    0  502    0  0.00000000000E+00 -0.00000000000E+00 -0.60721253520E+03  0.60721253520E+03  0.00000000000E+00 0.  1.
          6    1    1    2  502    0  0.30574170492E+02 -0.10661037922E+03 -0.29412561642E+03  0.35832168661E+03  0.17200000000E+03 0.  1.
         -6    1    1    2    0  501 -0.30574170492E+02  0.10661037922E+03 -0.24372357241E+03  0.31825419495E+03  0.17200000000E+03 0.  1.
<mgrwt>
<rscale>  2 0.20465716E+03</rscale>
<asrwt>0</asrwt>
<pdfrwt beam="1">  1        1 0.15180313E+00 0.20465716E+03</pdfrwt>
<pdfrwt beam="2">  1       -1 0.17340837E-01 0.20465716E+03</pdfrwt>
<totfact> 0.42202601E+02</totfact>
</mgrwt>
</event>
<event>
 4    1  0.3761914E-001  0.2574684E+03  0.7546771E-02  0.1108674E+00
          1   -1    0    0  502    0  0.00000000000E+00  0.00000000000E+00  0.25519183882E+03  0.25519183882E+03  0.00000000000E+00 0.  1.
         -1   -1    0    0    0  501 -0.00000000000E+00 -0.00000000000E+00 -0.49523305430E+03  0.49523305430E+03  0.00000000000E+00 0. -1.
          6    1    1    2  502    0 -0.18244220497E+03 -0.58487714633E+02  0.13870427255E+03  0.29245315204E+03  0.17200000000E+03 0.  1.
         -6    1    1    2    0  501  0.18244220497E+03  0.58487714633E+02 -0.37874548803E+03  0.45797174107E+03  0.17200000000E+03 0. -1.
<mgrwt>
<rscale>  2 0.25746839E+03</rscale>
<asrwt>0</asrwt>
<pdfrwt beam="1">  1        1 0.63797960E-01 0.25746839E+03</pdfrwt>
<pdfrwt beam="2">  1       -1 0.12380826E+00 0.25746839E+03</pdfrwt>
<totfact> 0.36075120E+01</totfact>
</mgrwt>
</event>
<event>
 4    1  0.3761914E-001  0.1874783E+03  0.7546771E-02  0.1160756E+00
         -2   -1    0    0    0  501 -0.00000000000E+00  0.00000000000E+00  0.99506120050E+02  0.99506120050E+02  0.00000000000E+00 0. -1.
          2   -1    0    0  502    0  0.00000000000E+00 -0.00000000000E+00 -0.70311525184E+03  0.70311525184E+03  0.00000000000E+00 0.  1.
          6    1    1    2  502    0 -0.70671282311E+02 -0.23867881793E+02 -0.58490010943E+03  0.61421188847E+03  0.17200000000E+03 0.  1.
         -6    1    1    2    0  501  0.70671282311E+02  0.23867881793E+02 -0.18709022358E+02  0.18840948342E+03  0.17200000000E+03 0. -1.
<mgrwt>
<rscale>  2 0.18747828E+03</rscale>
<asrwt>0</asrwt>
<pdfrwt beam="1">  1        2 0.17577881E+00 0.18747828E+03</pdfrwt>
<pdfrwt beam="2">  1       -2 0.24876531E-01 0.18747828E+03</pdfrwt>
<totfact> 0.31579920E+02</totfact>
</mgrwt>
</event>
<event>
 4    1  0.3761914E-001  0.1753066E+03  0.7546771E-02  0.1172424E+00
         -2   -1    0    0    0  501 -0.00000000000E+00  0.00000000000E+00  0.80035602896E+02  0.80035602896E+02  0.00000000000E+00 0.  1.
          2   -1    0    0  502    0  0.00000000000E+00 -0.00000000000E+00 -0.55080226529E+03  0.55080226529E+03  0.00000000000E+00 0. -1.
          6    1    1    2  502    0  0.67218087669E+01  0.33214922494E+02 -0.61798676560E+02  0.18588031153E+03  0.17200000000E+03 0.  1.
         -6    1    1    2    0  501 -0.67218087669E+01 -0.33214922494E+02 -0.40896798584E+03  0.44495755666E+03  0.17200000000E+03 0. -1.
<mgrwt>
<rscale>  2 0.17530663E+03</rscale>
<asrwt>0</asrwt>
<pdfrwt beam="1">  1        2 0.13770056E+00 0.17530663E+03</pdfrwt>
<pdfrwt beam="2">  1       -2 0.20008901E-01 0.17530663E+03</pdfrwt>
<totfact> 0.64935132E+02</totfact>
</mgrwt>
</event>
<event>
 4    1  0.3761914E-001  0.2600517E+03  0.7546771E-02  0.1107112E+00
          2   -1    0    0  502    0  0.00000000000E+00  0.00000000000E+00  0.37037220828E+03  0.37037220828E+03  0.00000000000E+00 0. -1.
         -2   -1    0    0    0  501 -0.00000000000E+00 -0.00000000000E+00 -0.18470017696E+03  0.18470017696E+03  0.00000000000E+00 0.  1.
          6    1    1    2  502    0  0.78354615120E+02  0.17861534690E+03  0.63182832967E+02  0.26761718600E+03  0.17200000000E+03 0.  1.
         -6    1    1    2    0  501 -0.78354615120E+02 -0.17861534690E+03  0.12248919835E+03  0.28745519924E+03  0.17200000000E+03 0.  1.
<mgrwt>
<rscale>  2 0.26005170E+03</rscale>
<asrwt>0</asrwt>
<pdfrwt beam="1">  1        2 0.92593051E-01 0.26005170E+03</pdfrwt>
<pdfrwt beam="2">  1       -2 0.46175045E-01 0.26005170E+03</pdfrwt>
<totfact> 0.22864534E+02</totfact>
</mgrwt>
</event>
<event>
 4    1  0.3761914E-001  0.1955486E+03  0.7546771E-02  0.1153550E+00
          4   -1    0    0  502    0  0.00000000000E+00  0.00000000000E+00  0.12154105402E+03  0.12154105402E+03  0.00000000000E+00 0.  1.
         -4   -1    0    0    0  501 -0.00000000000E+00 -0.00000000000E+00 -0.31601390785E+03  0.31601390785E+03  0.00000000000E+00 0. -1.
          6    1    1    2  502    0 -0.59015547845E+02 -0.71919405711E+02 -0.82705940593E+02  0.21231935478E+03  0.17200000000E+03 0.  1.
         -6    1    1    2    0  501  0.59015547845E+02  0.71919405711E+02 -0.11176691324E+03  0.22523560709E+03  0.17200000000E+03 0.  1.
<mgrwt>
<rscale>  2 0.19554855E+03</rscale>
<asrwt>0</asrwt>
<pdfrwt beam="1">  1        4 0.30385264E-01 0.19554855E+03</pdfrwt>
<pdfrwt beam="2">  1       -4 0.79003476E-01 0.19554855E+03</pdfrwt>
<totfact> 0.26852218E+01</totfact>
</mgrwt>
</event>
<event>
 4    1  0.3761914E-001  0.1775024E+03  0.7546771E-02  0.1170242E+00
          2   -1    0    0  502    0  0.00000000000E+00  0.00000000000E+00  0.12354162653E+03  0.12354162653E+03  0.00000000000E+00 0.  1.
         -2   -1    0    0    0  501 -0.00000000000E+00 -0.00000000000E+00 -0.29985673021E+03  0.29985673021E+03  0.00000000000E+00 0. -1.
          6    1    1    2  502    0  0.17427071026E+02  0.40241772695E+02 -0.63073522736E+01  0.17761443006E+03  0.17200000000E+03 0.  1.
         -6    1    1    2    0  501 -0.17427071026E+02 -0.40241772695E+02 -0.17000775141E+03  0.24578392668E+03  0.17200000000E+03 0. -1.
<mgrwt>
<rscale>  2 0.17750240E+03</rscale>
<asrwt>0</asrwt>
<pdfrwt beam="1">  1        2 0.30885407E-01 0.17750240E+03</pdfrwt>
<pdfrwt beam="2">  1       -2 0.74964182E-01 0.17750240E+03</pdfrwt>
<totfact> 0.28098318E+02</totfact>
</mgrwt>
</event>
<event>
 4    1  0.3761914E-001  0.1858727E+03  0.7546771E-02  0.1162237E+00
         -1   -1    0    0    0  501 -0.00000000000E+00  0.00000000000E+00  0.56018977734E+03  0.56018977734E+03  0.00000000000E+00 0.  1.
          1   -1    0    0  502    0  0.00000000000E+00 -0.00000000000E+00 -0.62947058262E+02  0.62947058262E+02  0.00000000000E+00 0. -1.
          6    1    1    2  502    0 -0.60039935587E+02  0.36876282999E+02  0.20429734764E+03  0.27619931276E+03  0.17200000000E+03 0. -1.
         -6    1    1    2    0  501  0.60039935587E+02 -0.36876282999E+02  0.29294537143E+03  0.34693752285E+03  0.17200000000E+03 0.  1.
<mgrwt>
<rscale>  2 0.18587268E+03</rscale>
<asrwt>0</asrwt>
<pdfrwt beam="1">  1        1 0.15736766E-01 0.18587268E+03</pdfrwt>
<pdfrwt beam="2">  1       -1 0.14004743E+00 0.18587268E+03</pdfrwt>
<totfact> 0.16009010E+02</totfact>
</mgrwt>
</event>
<event>
 4    1  0.3761914E-001  0.1759790E+03  0.7546771E-02  0.1171752E+00
         -2   -1    0    0    0  501 -0.00000000000E+00  0.00000000000E+00  0.15348968179E+03  0.15348968179E+03  0.00000000000E+00 0.  1.
          2   -1    0    0  502    0  0.00000000000E+00 -0.00000000000E+00 -0.21221321623E+03  0.21221321623E+03  0.00000000000E+00 0. -1.
          6    1    1    2  502    0  0.11918691344E+02 -0.35250011824E+02  0.11213745640E+02  0.17633594820E+03  0.17200000000E+03 0.  1.
         -6    1    1    2    0  501 -0.11918691344E+02  0.35250011824E+02 -0.69937280084E+02  0.18936694982E+03  0.17200000000E+03 0. -1.
<mgrwt>
<rscale>  2 0.17597903E+03</rscale>
<asrwt>0</asrwt>
<pdfrwt beam="1">  1        2 0.53053304E-01 0.17597903E+03</pdfrwt>
<pdfrwt beam="2">  1       -2 0.38372421E-01 0.17597903E+03</pdfrwt>
<totfact> 0.60759189E+02</totfact>
</mgrwt>
</event>
<event>
 4    1  0.3761914E-001  0.2581619E+03  0.7546771E-02  0.1108253E+00
         -2   -1    0    0    0  501 -0.00000000000E+00  0.00000000000E+00  0.11293549335E+03  0.11293549335E+03  0.00000000000E+00 0.  1.
          2   -1    0    0  502    0  0.00000000000E+00 -0.00000000000E+00 -0.67925249645E+03  0.67925249645E+03  0.00000000000E+00 0. -1.
          6    1    1    2  502    0 -0.10493844210E+03  0.16140468088E+03 -0.13969006944E+03  0.29353170722E+03  0.17200000000E+03 0. -1.
         -6    1    1    2    0  501  0.10493844210E+03 -0.16140468088E+03 -0.42662693366E+03  0.49865628259E+03  0.17200000000E+03 0. -1.
<mgrwt>
<rscale>  2 0.25816186E+03</rscale>
<asrwt>0</asrwt>
<pdfrwt beam="1">  1        2 0.16981312E+00 0.25816186E+03</pdfrwt>
<pdfrwt beam="2">  1       -2 0.28233874E-01 0.25816186E+03</pdfrwt>
<totfact> 0.26233761E+02</totfact>
</mgrwt>
</event>
<event>
 4    1  0.3761914E-001  0.1811380E+03  0.7546771E-02  0.1166706E+00
          2   -1    0    0  502    0  0.00000000000E+00  0.00000000000E+00  0.46447812745E+03  0.46447812745E+03  0.00000000000E+00 0. -1.
         -2   -1    0    0    0  501 -0.00000000000E+00 -0.00000000000E+00 -0.71146131323E+02  0.71146131323E+02  0.00000000000E+00 0.  1.
          6    1    1    2  502    0 -0.37600324281E+02  0.42581506040E+02  0.17408881033E+03  0.25123272662E+03  0.17200000000E+03 0.  1.
         -6    1    1    2    0  501  0.37600324281E+02 -0.42581506040E+02  0.21924318580E+03  0.28439153216E+03  0.17200000000E+03 0. -1.
<mgrwt>
<rscale>  2 0.18113798E+03</rscale>
<asrwt>0</asrwt>
<pdfrwt beam="1">  1        2 0.11611952E+00 0.18113798E+03</pdfrwt>
<pdfrwt beam="2">  1       -2 0.17786534E-01 0.18113798E+03</pdfrwt>
<totfact> 0.98401797E+02</totfact>
</mgrwt>
</event>
<event>
 4    1  0.3761914E-001  0.2327828E+03  0.7546771E-02  0.1124696E+00
         -3   -1    0    0    0  501 -0.00000000000E+00  0.00000000000E+00  0.42490277468E+02  0.42490277468E+02  0.00000000000E+00 0. -1.
          3   -1    0    0  502    0  0.00000000000E+00 -0.00000000000E+00 -0.14182250103E+04  0.14182250103E+04  0.00000000000E+00 0.  1.
          6    1    1    2  502    0 -0.32075695998E+02  0.15354141610E+03 -0.91972336970E+03  0.94872487767E+03  0.17200000000E+03 0.  1.
         -6    1    1    2    0  501  0.32075695998E+02 -0.15354141610E+03 -0.45601136314E+03  0.51199041011E+03  0.17200000000E+03 0.  1.
<mgrwt>
<rscale>  2 0.23278277E+03</rscale>
<asrwt>0</asrwt>
<pdfrwt beam="1">  1        3 0.35455625E+00 0.23278277E+03</pdfrwt>
<pdfrwt beam="2">  1       -3 0.10622569E-01 0.23278277E+03</pdfrwt>
<totfact> 0.38246844E+00</totfact>
</mgrwt>
</event>
<event>
 4    1  0.3761914E-001  0.2052126E+03  0.7546771E-02  0.1145414E+00
         -2   -1    0    0    0  501 -0.00000000000E+00  0.00000000000E+00  0.16836438701E+03  0.16836438701E+03  0.00000000000E+00 0.  1.
          2   -1    0    0  502    0  0.00000000000E+00 -0.00000000000E+00 -0.25567866157E+03  0.25567866157E+03  0.00000000000E+00 0. -1.
          6    1    1    2  502    0 -0.54605627046E+02  0.97705885494E+02 -0.74903943423E+02  0.21845552249E+03  0.17200000000E+03 0. -1.
         -6    1    1    2    0  501  0.54605627046E+02 -0.97705885494E+02 -0.12410331136E+02  0.20558752609E+03  0.17200000000E+03 0. -1.
<mgrwt>
<rscale>  2 0.20521261E+03</rscale>
<asrwt>0</asrwt>
<pdfrwt beam="1">  1        2 0.63919665E-01 0.20521261E+03</pdfrwt>
<pdfrwt beam="2">  1       -2 0.42091097E-01 0.20521261E+03</pdfrwt>
<totfact> 0.41661203E+02</totfact>
</mgrwt>
</event>
<event>
 4    1  0.3761914E-001  0.1796959E+03  0.7546771E-02  0.1168098E+00
         -1   -1    0    0    0  501 -0.00000000000E+00  0.00000000000E+00  0.31399202756E+02  0.31399202756E+02  0.00000000000E+00 0. -1.
          1   -1    0    0  502    0  0.00000000000E+00 -0.00000000000E+00 -0.25671264191E+04  0.25671264191E+04  0.00000000000E+00 0.  1.
          6    1    1    2  502    0 -0.47069873431E+02 -0.22159411160E+02 -0.26196187291E+03  0.31767063973E+03  0.17200000000E+03 0. -1.
         -6    1    1    2    0  501  0.47069873431E+02  0.22159411160E+02 -0.22737653435E+04  0.22808549821E+04  0.17200000000E+03 0.  1.
<mgrwt>
<rscale>  2 0.17969589E+03</rscale>
<asrwt>0</asrwt>
<pdfrwt beam="1">  1        1 0.64178167E+00 0.17969589E+03</pdfrwt>
<pdfrwt beam="2">  1       -1 0.78497999E-02 0.17969589E+03</pdfrwt>
<totfact> 0.84102558E+00</totfact>
</mgrwt>
</event>
<event>
 4    1  0.3761914E-001  0.2561614E+03  0.7546771E-02  0.1109472E+00
         -2   -1    0    0    0  501 -0.00000000000E+00  0.00000000000E+00  0.78768349923E+02  0.78768349923E+02  0.00000000000E+00 0. -1.
          2   -1    0    0  502    0  0.00000000000E+00 -0.00000000000E+00 -0.85297952617E+03  0.85297952617E+03  0.00000000000E+00 0.  1.
          6    1    1    2  502    0 -0.16140440809E+03  0.99916255034E+02 -0.45830154093E+03  0.52503232604E+03  0.17200000000E+03 0. -1.
         -6    1    1    2    0  501  0.16140440809E+03 -0.99916255034E+02 -0.31590963532E+03  0.40671555006E+03  0.17200000000E+03 0.  1.
<mgrwt>
<rscale>  2 0.25616136E+03</rscale>
<asrwt>0</asrwt>
<pdfrwt beam="1">  1        2 0.21324488E+00 0.25616136E+03</pdfrwt>
<pdfrwt beam="2">  1       -2 0.19692088E-01 0.25616136E+03</pdfrwt>
<totfact> 0.34259004E+02</totfact>
</mgrwt>
</event>
<event>
 4    1  0.3761914E-001  0.2213788E+03  0.7546771E-02  0.1132859E+00
          4   -1    0    0  502    0  0.00000000000E+00  0.00000000000E+00  0.52152190336E+03  0.52152190336E+03  0.00000000000E+00 0.  1.
         -4   -1    0    0    0  501 -0.00000000000E+00 -0.00000000000E+00 -0.14088624451E+03  0.14088624451E+03  0.00000000000E+00 0. -1.
          6    1    1    2  502    0 -0.15638661619E+01  0.13936334565E+03 -0.80500183625E+00  0.22138029681E+03  0.17200000000E+03 0.  1.
         -6    1    1    2    0  501  0.15638661619E+01 -0.13936334565E+03  0.38144066069E+03  0.44102785106E+03  0.17200000000E+03 0.  1.
<mgrwt>
<rscale>  2 0.22137883E+03</rscale>
<asrwt>0</asrwt>
<pdfrwt beam="1">  1        4 0.13038047E+00 0.22137883E+03</pdfrwt>
<pdfrwt beam="2">  1       -4 0.35221562E-01 0.22137883E+03</pdfrwt>
<totfact> 0.63088452E+00</totfact>
</mgrwt>
</event>
<event>
 4    1  0.3761914E-001  0.1896776E+03  0.7546771E-02  0.1158752E+00
         -4   -1    0    0    0  501 -0.00000000000E+00  0.00000000000E+00  0.90203984442E+03  0.90203984442E+03  0.00000000000E+00 0. -1.
          4   -1    0    0  502    0  0.00000000000E+00 -0.00000000000E+00 -0.67680093937E+02  0.67680093937E+02  0.00000000000E+00 0.  1.
          6    1    1    2  502    0  0.21164503908E+02 -0.77108128402E+02  0.72790199693E+03  0.75220935705E+03  0.17200000000E+03 0. -1.
         -6    1    1    2    0  501 -0.21164503908E+02  0.77108128402E+02  0.10645775355E+03  0.21751058131E+03  0.17200000000E+03 0.  1.
<mgrwt>
<rscale>  2 0.18967762E+03</rscale>
<asrwt>0</asrwt>
<pdfrwt beam="1">  1        4 0.16920026E-01 0.18967762E+03</pdfrwt>
<pdfrwt beam="2">  1       -4 0.22550992E+00 0.18967762E+03</pdfrwt>
<totfact> 0.54529438E+00</totfact>
</mgrwt>
</event>
<event>
 4    1  0.3761914E-001  0.1800924E+03  0.7546771E-02  0.1167714E+00
          2   -1    0    0  502    0  0.00000000000E+00  0.00000000000E+00  0.34521580939E+03  0.34521580939E+03  0.00000000000E+00 0.  1.
         -2   -1    0    0    0  501 -0.00000000000E+00 -0.00000000000E+00 -0.97744788519E+02  0.97744788519E+02  0.00000000000E+00 0. -1.
          6    1    1    2  502    0  0.36004821701E+02 -0.39407290998E+02  0.80100049607E+02  0.19710225701E+03  0.17200000000E+03 0. -1.
         -6    1    1    2    0  501 -0.36004821701E+02  0.39407290998E+02  0.16737097126E+03  0.24585834090E+03  0.17200000000E+03 0.  1.
<mgrwt>
<rscale>  2 0.18009243E+03</rscale>
<asrwt>0</asrwt>
<pdfrwt beam="1">  1        2 0.86303949E-01 0.18009243E+03</pdfrwt>
<pdfrwt beam="2">  1       -2 0.24436198E-01 0.18009243E+03</pdfrwt>
<totfact> 0.80996350E+02</totfact>
</mgrwt>
</event>
<event>
 4    1  0.3761914E-001  0.2320937E+03  0.7546771E-02  0.1125175E+00
         -2   -1    0    0    0  501 -0.00000000000E+00  0.00000000000E+00  0.75186104105E+02  0.75186104105E+02  0.00000000000E+00 0.  1.
          2   -1    0    0  502    0  0.00000000000E+00 -0.00000000000E+00 -0.73398271792E+03  0.73398271792E+03  0.00000000000E+00 0. -1.
          6    1    1    2  502    0 -0.13563206069E+03 -0.76729700822E+02 -0.26687788702E+03  0.35368249809E+03  0.17200000000E+03 0.  1.
         -6    1    1    2    0  501  0.13563206069E+03  0.76729700822E+02 -0.39191872679E+03  0.45548632393E+03  0.17200000000E+03 0. -1.
<mgrwt>
<rscale>  2 0.23209374E+03</rscale>
<asrwt>0</asrwt>
<pdfrwt beam="1">  1        2 0.18349568E+00 0.23209374E+03</pdfrwt>
<pdfrwt beam="2">  1       -2 0.18796526E-01 0.23209374E+03</pdfrwt>
<totfact> 0.47649417E+02</totfact>
</mgrwt>
</event>
<event>
 4    1  0.3761914E-001  0.1804749E+03  0.7546771E-02  0.1167344E+00
          1   -1    0    0  502    0  0.00000000000E+00  0.00000000000E+00  0.11649906854E+04  0.11649906854E+04  0.00000000000E+00 0.  1.
         -1   -1    0    0    0  501 -0.00000000000E+00 -0.00000000000E+00 -0.32774529932E+02  0.32774529932E+02  0.00000000000E+00 0. -1.
          6    1    1    2  502    0  0.24143080564E+02  0.49033736846E+02  0.33653251665E+03  0.38187082954E+03  0.17200000000E+03 0.  1.
         -6    1    1    2    0  501 -0.24143080564E+02 -0.49033736846E+02  0.79568363878E+03  0.81589438576E+03  0.17200000000E+03 0. -1.
<mgrwt>
<rscale>  2 0.18047492E+03</rscale>
<asrwt>0</asrwt>
<pdfrwt beam="1">  1        1 0.29124753E+00 0.18047492E+03</pdfrwt>
<pdfrwt beam="2">  1       -1 0.81936364E-02 0.18047492E+03</pdfrwt>
<totfact> 0.33539341E+02</totfact>
</mgrwt>
</event>
<event>
 4    1  0.3761914E-001  0.1953227E+03  0.7546771E-02  0.1153746E+00
         -2   -1    0    0    0  501 -0.00000000000E+00  0.00000000000E+00  0.90210690417E+02  0.90210690417E+02  0.00000000000E+00 0.  1.
          2   -1    0    0  502    0  0.00000000000E+00 -0.00000000000E+00 -0.69171594183E+03  0.69171594183E+03  0.00000000000E+00 0. -1.
          6    1    1    2  502    0  0.89177219267E+02  0.24786833424E+02 -0.57032213782E+02  0.20347883663E+03  0.17200000000E+03 0.  1.
         -6    1    1    2    0  501 -0.89177219267E+02 -0.24786833424E+02 -0.54447303763E+03  0.57844779561E+03  0.17200000000E+03 0. -1.
<mgrwt>
<rscale>  2 0.19532272E+03</rscale>
<asrwt>0</asrwt>
<pdfrwt beam="1">  1        2 0.17292898E+00 0.19532272E+03</pdfrwt>
<pdfrwt beam="2">  1       -2 0.22552673E-01 0.19532272E+03</pdfrwt>
<totfact> 0.38353228E+02</totfact>
</mgrwt>
</event>
<event>
 4    1  0.3761914E-001  0.1788340E+03  0.7546771E-02  0.1168936E+00
          1   -1    0    0  502    0  0.00000000000E+00  0.00000000000E+00  0.56161789932E+03  0.56161789932E+03  0.00000000000E+00 0.  1.
         -1   -1    0    0    0  501 -0.00000000000E+00 -0.00000000000E+00 -0.60893800167E+02  0.60893800167E+02  0.00000000000E+00 0. -1.
          6    1    1    2  502    0  0.28055155608E+02 -0.40131018021E+02  0.17110494699E+03  0.24750453177E+03  0.17200000000E+03 0.  1.
         -6    1    1    2    0  501 -0.28055155608E+02  0.40131018021E+02  0.32961915216E+03  0.37500716771E+03  0.17200000000E+03 0. -1.
<mgrwt>
<rscale>  2 0.17883397E+03</rscale>
<asrwt>0</asrwt>
<pdfrwt beam="1">  1        1 0.14040446E+00 0.17883397E+03</pdfrwt>
<pdfrwt beam="2">  1       -1 0.15223452E-01 0.17883397E+03</pdfrwt>
<totfact> 0.59259070E+02</totfact>
</mgrwt>
</event>
<event>
 4    1  0.3761914E-001  0.1754095E+03  0.7546771E-02  0.1172321E+00
          2   -1    0    0  502    0  0.00000000000E+00  0.00000000000E+00  0.20634907418E+03  0.20634907418E+03  0.00000000000E+00 0. -1.
         -2   -1    0    0    0  501 -0.00000000000E+00 -0.00000000000E+00 -0.15134366842E+03  0.15134366842E+03  0.00000000000E+00 0.  1.
          6    1    1    2  502    0  0.64148864670E+01  0.33813212829E+02  0.57699893476E+01  0.17550435011E+03  0.17200000000E+03 0.  1.
         -6    1    1    2    0  501 -0.64148864670E+01 -0.33813212829E+02  0.49235416413E+02  0.18218839249E+03  0.17200000000E+03 0. -1.
<mgrwt>
<rscale>  2 0.17540948E+03</rscale>
<asrwt>0</asrwt>
<pdfrwt beam="1">  1        2 0.51587268E-01 0.17540948E+03</pdfrwt>
<pdfrwt beam="2">  1       -2 0.37835917E-01 0.17540948E+03</pdfrwt>
<totfact> 0.64291973E+02</totfact>
</mgrwt>
</event>
<event>
 4    1  0.3761914E-001  0.1853567E+03  0.7546771E-02  0.1162717E+00
         -2   -1    0    0    0  501 -0.00000000000E+00  0.00000000000E+00  0.26074455772E+02  0.26074455772E+02  0.00000000000E+00 0.  1.
          2   -1    0    0  502    0  0.00000000000E+00 -0.00000000000E+00 -0.14560277008E+04  0.14560277008E+04  0.00000000000E+00 0. -1.
          6    1    1    2  502    0 -0.24556169726E+02 -0.64576272419E+02 -0.48652684693E+03  0.52063948488E+03  0.17200000000E+03 0.  1.
         -6    1    1    2    0  501  0.24556169726E+02  0.64576272419E+02 -0.94342639809E+03  0.96146267169E+03  0.17200000000E+03 0. -1.
<mgrwt>
<rscale>  2 0.18535668E+03</rscale>
<asrwt>0</asrwt>
<pdfrwt beam="1">  1        2 0.36400689E+00 0.18535668E+03</pdfrwt>
<pdfrwt beam="2">  1       -2 0.65186146E-02 0.18535668E+03</pdfrwt>
<totfact> 0.62947483E+02</totfact>
</mgrwt>
</event>
<event>
 4    1  0.3761914E-001  0.2095456E+03  0.7546771E-02  0.1141926E+00
         -1   -1    0    0    0  501 -0.00000000000E+00  0.00000000000E+00  0.62105161936E+03  0.62105161936E+03  0.00000000000E+00 0. -1.
          1   -1    0    0  502    0  0.00000000000E+00 -0.00000000000E+00 -0.73290751837E+02  0.73290751837E+02  0.00000000000E+00 0.  1.
          6    1    1    2  502    0 -0.65940009386E+02  0.99886389938E+02  0.20862849096E+03  0.29569447572E+03  0.17200000000E+03 0.  1.
         -6    1    1    2    0  501  0.65940009386E+02 -0.99886389938E+02  0.33913237656E+03  0.39864789547E+03  0.17200000000E+03 0. -1.
<mgrwt>
<rscale>  2 0.20954564E+03</rscale>
<asrwt>0</asrwt>
<pdfrwt beam="1">  1        1 0.18322690E-01 0.20954564E+03</pdfrwt>
<pdfrwt beam="2">  1       -1 0.15526289E+00 0.20954564E+03</pdfrwt>
<totfact> 0.10022371E+02</totfact>
</mgrwt>
</event>
<event>
 4    1  0.3761914E-001  0.3741929E+03  0.7546771E-02  0.1053101E+00
          2   -1    0    0  502    0  0.00000000000E+00  0.00000000000E+00  0.17358030283E+04  0.17358030283E+04  0.00000000000E+00 0.  1.
         -2   -1    0    0    0  501 -0.00000000000E+00 -0.00000000000E+00 -0.13274127933E+03  0.13274127933E+03  0.00000000000E+00 0. -1.
          6    1    1    2  502    0  0.32882348344E+03  0.48077388289E+02  0.21635537588E+03  0.43223832222E+03  0.17200000000E+03 0. -1.
         -6    1    1    2    0  501 -0.32882348344E+03 -0.48077388289E+02  0.13867063731E+04  0.14363059854E+04  0.17200000000E+03 0.  1.
<mgrwt>
<rscale>  2 0.37419289E+03</rscale>
<asrwt>0</asrwt>
<pdfrwt beam="1">  1        2 0.43395069E+00 0.37419289E+03</pdfrwt>
<pdfrwt beam="2">  1       -2 0.33185325E-01 0.37419289E+03</pdfrwt>
<totfact> 0.21865835E+01</totfact>
</mgrwt>
</event>
<event>
 4    1  0.3761914E-001  0.2245166E+03  0.7546771E-02  0.1130560E+00
         -2   -1    0    0    0  501 -0.00000000000E+00  0.00000000000E+00  0.45323890390E+02  0.45323890390E+02  0.00000000000E+00 0.  1.
          2   -1    0    0  502    0  0.00000000000E+00 -0.00000000000E+00 -0.11434312660E+04  0.11434312660E+04  0.00000000000E+00 0. -1.
          6    1    1    2  502    0 -0.10957046543E+03  0.93904185648E+02 -0.64733920061E+03  0.68516839071E+03  0.17200000000E+03 0. -1.
         -6    1    1    2    0  501  0.10957046543E+03 -0.93904185648E+02 -0.45076817500E+03  0.50358676568E+03  0.17200000000E+03 0. -1.
<mgrwt>
<rscale>  2 0.22451655E+03</rscale>
<asrwt>0</asrwt>
<pdfrwt beam="1">  1        2 0.28585782E+00 0.22451655E+03</pdfrwt>
<pdfrwt beam="2">  1       -2 0.11330972E-01 0.22451655E+03</pdfrwt>
<totfact> 0.48405970E+02</totfact>
</mgrwt>
</event>
<event>
 4    1  0.3761914E-001  0.1822573E+03  0.7546771E-02  0.1165636E+00
         -2   -1    0    0    0  501 -0.00000000000E+00  0.00000000000E+00  0.78826434109E+02  0.78826434109E+02  0.00000000000E+00 0.  1.
          2   -1    0    0  502    0  0.00000000000E+00 -0.00000000000E+00 -0.50522164881E+03  0.50522164881E+03  0.00000000000E+00 0. -1.
          6    1    1    2  502    0  0.59198086049E+02 -0.11372024230E+02 -0.94252487733E+02  0.20518593463E+03  0.17200000000E+03 0. -1.
         -6    1    1    2    0  501 -0.59198086049E+02  0.11372024230E+02 -0.33214272696E+03  0.37886214828E+03  0.17200000000E+03 0.  1.
<mgrwt>
<rscale>  2 0.18225734E+03</rscale>
<asrwt>0</asrwt>
<pdfrwt beam="1">  1        2 0.12630541E+00 0.18225734E+03</pdfrwt>
<pdfrwt beam="2">  1       -2 0.19706609E-01 0.18225734E+03</pdfrwt>
<totfact> 0.74494452E+02</totfact>
</mgrwt>
</event>
<event>
 4    1  0.3761914E-001  0.1730857E+03  0.7546771E-02  0.1174668E+00
          1   -1    0    0  502    0  0.00000000000E+00  0.00000000000E+00  0.21820207991E+04  0.21820207991E+04  0.00000000000E+00 0.  1.
         -1   -1    0    0    0  501 -0.00000000000E+00 -0.00000000000E+00 -0.27335601898E+02  0.27335601898E+02  0.00000000000E+00 0. -1.
          6    1    1    2  502    0  0.18953196415E+02  0.39269086726E+01  0.29798996078E+03  0.34461088345E+03  0.17200000000E+03 0. -1.
         -6    1    1    2    0  501 -0.18953196415E+02 -0.39269086726E+01  0.18566952365E+04  0.18647455176E+04  0.17200000000E+03 0.  1.
<mgrwt>
<rscale>  2 0.17308566E+03</rscale>
<asrwt>0</asrwt>
<pdfrwt beam="1">  1        1 0.54550461E+00 0.17308566E+03</pdfrwt>
<pdfrwt beam="2">  1       -1 0.68339079E-02 0.17308566E+03</pdfrwt>
<totfact> 0.33408989E+01</totfact>
</mgrwt>
</event>
<event>
 4    1  0.3761914E-001  0.2036822E+03  0.7546771E-02  0.1146669E+00
         -1   -1    0    0    0  501 -0.00000000000E+00  0.00000000000E+00  0.10664498608E+03  0.10664498608E+03  0.00000000000E+00 0. -1.
          1   -1    0    0  502    0  0.00000000000E+00 -0.00000000000E+00 -0.87247540768E+03  0.87247540768E+03  0.00000000000E+00 0.  1.
          6    1    1    2  502    0  0.89128264381E+02 -0.62917280062E+02 -0.18488463027E+02  0.20451957096E+03  0.17200000000E+03 0. -1.
         -6    1    1    2    0  501 -0.89128264381E+02  0.62917280062E+02 -0.74734195857E+03  0.77460082279E+03  0.17200000000E+03 0.  1.
<mgrwt>
<rscale>  2 0.20368218E+03</rscale>
<asrwt>0</asrwt>
<pdfrwt beam="1">  1        1 0.21811885E+00 0.20368218E+03</pdfrwt>
<pdfrwt beam="2">  1       -1 0.26661247E-01 0.20368218E+03</pdfrwt>
<totfact> 0.10454439E+02</totfact>
</mgrwt>
</event>
<event>
 4    1  0.3761914E-001  0.2100925E+03  0.7546771E-02  0.1141493E+00
         -1   -1    0    0    0  501 -0.00000000000E+00  0.00000000000E+00  0.59771176677E+02  0.59771176677E+02  0.00000000000E+00 0. -1.
          1   -1    0    0  502    0  0.00000000000E+00 -0.00000000000E+00 -0.79829858265E+03  0.79829858265E+03  0.00000000000E+00 0.  1.
          6    1    1    2  502    0  0.15718574662E+02 -0.11961514688E+03 -0.48672272332E+03  0.53013004664E+03  0.17200000000E+03 0.  1.
         -6    1    1    2    0  501 -0.15718574662E+02  0.11961514688E+03 -0.25180468265E+03  0.32793971268E+03  0.17200000000E+03 0. -1.
<mgrwt>
<rscale>  2 0.21009250E+03</rscale>
<asrwt>0</asrwt>
<pdfrwt beam="1">  1        1 0.19957464E+00 0.21009250E+03</pdfrwt>
<pdfrwt beam="2">  1       -1 0.14942794E-01 0.21009250E+03</pdfrwt>
<totfact> 0.32197249E+02</totfact>
</mgrwt>
</event>
<event>
 4    1  0.3761914E-001  0.2420576E+03  0.7546771E-02  0.1118430E+00
         -2   -1    0    0    0  501 -0.00000000000E+00  0.00000000000E+00  0.34838466112E+02  0.34838466112E+02  0.00000000000E+00 0.  1.
          2   -1    0    0  502    0  0.00000000000E+00 -0.00000000000E+00 -0.22842616437E+04  0.22842616437E+04  0.00000000000E+00 0. -1.
          6    1    1    2  502    0  0.16643667640E+03 -0.36148416751E+02 -0.52921996003E+03  0.58194986157E+03  0.17200000000E+03 0.  1.
         -6    1    1    2    0  501 -0.16643667640E+03  0.36148416751E+02 -0.17202032176E+04  0.17371502483E+04  0.17200000000E+03 0. -1.
<mgrwt>
<rscale>  2 0.24205759E+03</rscale>
<asrwt>0</asrwt>
<pdfrwt beam="1">  1        2 0.57106538E+00 0.24205759E+03</pdfrwt>
<pdfrwt beam="2">  1       -2 0.87096170E-02 0.24205759E+03</pdfrwt>
<totfact> 0.61100735E+01</totfact>
</mgrwt>
</event>
<event>
 4    1  0.3761914E-001  0.1767509E+03  0.7546771E-02  0.1170985E+00
          2   -1    0    0  502    0  0.00000000000E+00  0.00000000000E+00  0.65010250521E+03  0.65010250521E+03  0.00000000000E+00 0.  1.
         -2   -1    0    0    0  501 -0.00000000000E+00 -0.00000000000E+00 -0.61153676463E+02  0.61153676463E+02  0.00000000000E+00 0. -1.
          6    1    1    2  502    0 -0.30584050205E+02  0.26861006539E+02  0.45906038818E+03  0.49191192077E+03  0.17200000000E+03 0.  1.
         -6    1    1    2    0  501  0.30584050205E+02 -0.26861006539E+02  0.12988844057E+03  0.21934426091E+03  0.17200000000E+03 0. -1.
<mgrwt>
<rscale>  2 0.17675095E+03</rscale>
<asrwt>0</asrwt>
<pdfrwt beam="1">  1        2 0.16252560E+00 0.17675095E+03</pdfrwt>
<pdfrwt beam="2">  1       -2 0.15288421E-01 0.17675095E+03</pdfrwt>
<totfact> 0.81132302E+02</totfact>
</mgrwt>
</event>
<event>
 4    1  0.3761914E-001  0.1817675E+03  0.7546771E-02  0.1166103E+00
         -2   -1    0    0    0  501 -0.00000000000E+00  0.00000000000E+00  0.21358098466E+03  0.21358098466E+03  0.00000000000E+00 0. -1.
          2   -1    0    0  502    0  0.00000000000E+00 -0.00000000000E+00 -0.27236030137E+03  0.27236030137E+03  0.00000000000E+00 0.  1.
          6    1    1    2  502    0 -0.56605972987E+02 -0.15848851725E+02  0.13031233009E+03  0.22365313691E+03  0.17200000000E+03 0. -1.
         -6    1    1    2    0  501  0.56605972987E+02  0.15848851725E+02 -0.18909164679E+03  0.26228814911E+03  0.17200000000E+03 0.  1.
<mgrwt>
<rscale>  2 0.18176750E+03</rscale>
<asrwt>0</asrwt>
<pdfrwt beam="1">  1        2 0.68090075E-01 0.18176750E+03</pdfrwt>
<pdfrwt beam="2">  1       -2 0.53395246E-01 0.18176750E+03</pdfrwt>
<totfact> 0.24373377E+02</totfact>
</mgrwt>
</event>
<event>
 4    1  0.3761914E-001  0.2526008E+03  0.7546771E-02  0.1111672E+00
         -2   -1    0    0    0  501 -0.00000000000E+00  0.00000000000E+00  0.11847501186E+03  0.11847501186E+03  0.00000000000E+00 0. -1.
          2   -1    0    0  502    0  0.00000000000E+00 -0.00000000000E+00 -0.73712033033E+03  0.73712033033E+03  0.00000000000E+00 0.  1.
          6    1    1    2  502    0  0.40812580287E+02  0.18043700424E+03 -0.53134857921E+03  0.58833535661E+03  0.17200000000E+03 0.  1.
         -6    1    1    2    0  501 -0.40812580287E+02 -0.18043700424E+03 -0.87296739263E+02  0.26725998559E+03  0.17200000000E+03 0. -1.
<mgrwt>
<rscale>  2 0.25260083E+03</rscale>
<asrwt>0</asrwt>
<pdfrwt beam="1">  1        2 0.18428008E+00 0.25260083E+03</pdfrwt>
<pdfrwt beam="2">  1       -2 0.29618753E-01 0.25260083E+03</pdfrwt>
<totfact> 0.21246552E+02</totfact>
</mgrwt>
</event>
<event>
 4    1  0.3761914E-001  0.1815522E+03  0.7546771E-02  0.1166309E+00
         -2   -1    0    0    0  501 -0.00000000000E+00  0.00000000000E+00  0.51774715425E+02  0.51774715425E+02  0.00000000000E+00 0. -1.
          2   -1    0    0  502    0  0.00000000000E+00 -0.00000000000E+00 -0.68835271184E+03  0.68835271184E+03  0.00000000000E+00 0.  1.
          6    1    1    2  502    0 -0.51696237833E+01  0.57883425709E+02 -0.21684614594E+03  0.28281348445E+03  0.17200000000E+03 0. -1.
         -6    1    1    2    0  501  0.51696237833E+01 -0.57883425709E+02 -0.41973185048E+03  0.45731394281E+03  0.17200000000E+03 0. -1.
<mgrwt>
<rscale>  2 0.18155224E+03</rscale>
<asrwt>0</asrwt>
<pdfrwt beam="1">  1        2 0.17208817E+00 0.18155224E+03</pdfrwt>
<pdfrwt beam="2">  1       -2 0.12943679E-01 0.18155224E+03</pdfrwt>
<totfact> 0.97944804E+02</totfact>
</mgrwt>
</event>
<event>
 4    1  0.3761914E-001  0.1926560E+03  0.7546771E-02  0.1156087E+00
         -2   -1    0    0    0  501 -0.00000000000E+00  0.00000000000E+00  0.56546884090E+02  0.56546884090E+02  0.00000000000E+00 0.  1.
          2   -1    0    0  502    0  0.00000000000E+00 -0.00000000000E+00 -0.65735469717E+03  0.65735469717E+03  0.00000000000E+00 0. -1.
          6    1    1    2  502    0 -0.86106818981E+02 -0.10860774630E+02 -0.31413677079E+03  0.36850814301E+03  0.17200000000E+03 0. -1.
         -6    1    1    2    0  501  0.86106818981E+02  0.10860774630E+02 -0.28667104230E+03  0.34539343826E+03  0.17200000000E+03 0.  1.
<mgrwt>
<rscale>  2 0.19265602E+03</rscale>
<asrwt>0</asrwt>
<pdfrwt beam="1">  1        2 0.16433867E+00 0.19265602E+03</pdfrwt>
<pdfrwt beam="2">  1       -2 0.14136721E-01 0.19265602E+03</pdfrwt>
<totfact> 0.90721169E+02</totfact>
</mgrwt>
</event>
<event>
 4    1  0.3761914E-001  0.2955415E+03  0.7546771E-02  0.1087491E+00
         -1   -1    0    0    0  501 -0.00000000000E+00  0.00000000000E+00  0.54400882833E+03  0.54400882833E+03  0.00000000000E+00 0.  1.
          1   -1    0    0  502    0  0.00000000000E+00 -0.00000000000E+00 -0.16272801381E+03  0.16272801381E+03  0.00000000000E+00 0. -1.
          6    1    1    2  502    0 -0.14681824630E+02  0.23988581080E+03  0.14983039927E+03  0.33135163609E+03  0.17200000000E+03 0. -1.
         -6    1    1    2    0  501  0.14681824630E+02 -0.23988581080E+03  0.23145041526E+03  0.37538520605E+03  0.17200000000E+03 0. -1.
<mgrwt>
<rscale>  2 0.29554147E+03</rscale>
<asrwt>0</asrwt>
<pdfrwt beam="1">  1        1 0.40682005E-01 0.29554147E+03</pdfrwt>
<pdfrwt beam="2">  1       -1 0.13600220E+00 0.29554147E+03</pdfrwt>
<totfact> 0.50305089E+01</totfact>
</mgrwt>
</event>
<event>
 4    1  0.3761914E-001  0.1798023E+03  0.7546771E-02  0.1167994E+00
         -2   -1    0    0    0  501 -0.00000000000E+00  0.00000000000E+00  0.63318525877E+02  0.63318525877E+02  0.00000000000E+00 0.  1.
          2   -1    0    0  502    0  0.00000000000E+00 -0.00000000000E+00 -0.79507307882E+03  0.79507307882E+03  0.00000000000E+00 0. -1.
          6    1    1    2  502    0  0.52382626101E+02  0.96898886457E+00 -0.10913857278E+03  0.21033332243E+03  0.17200000000E+03 0.  1.
         -6    1    1    2    0  501 -0.52382626101E+02 -0.96898886457E+00 -0.62261598017E+03  0.64805828227E+03  0.17200000000E+03 0. -1.
<mgrwt>
<rscale>  2 0.17980233E+03</rscale>
<asrwt>0</asrwt>
<pdfrwt beam="1">  1        2 0.19876827E+00 0.17980233E+03</pdfrwt>
<pdfrwt beam="2">  1       -2 0.15829632E-01 0.17980233E+03</pdfrwt>
<totfact> 0.56343437E+02</totfact>
</mgrwt>
</event>
<event>
 4    1  0.3761914E-001  0.1776978E+03  0.7546771E-02  0.1170050E+00
          1   -1    0    0  502    0  0.00000000000E+00  0.00000000000E+00  0.10296778057E+04  0.10296778057E+04  0.00000000000E+00 0. -1.
         -1   -1    0    0    0  501 -0.00000000000E+00 -0.00000000000E+00 -0.36880181365E+02  0.36880181365E+02  0.00000000000E+00 0.  1.
          6    1    1    2  502    0  0.38867229655E+02  0.21951042233E+02  0.71529388863E+03  0.73703585863E+03  0.17200000000E+03 0. -1.
         -6    1    1    2    0  501 -0.38867229655E+02 -0.21951042233E+02  0.27750373569E+03  0.32952212842E+03  0.17200000000E+03 0.  1.
<mgrwt>
<rscale>  2 0.17769780E+03</rscale>
<asrwt>0</asrwt>
<pdfrwt beam="1">  1        1 0.25741936E+00 0.17769780E+03</pdfrwt>
<pdfrwt beam="2">  1       -1 0.92200487E-02 0.17769780E+03</pdfrwt>
<totfact> 0.38813696E+02</totfact>
</mgrwt>
</event>
<event>
 4    1  0.3761914E-001  0.2419527E+03  0.7546771E-02  0.1118499E+00
         -2   -1    0    0    0  501 -0.00000000000E+00  0.00000000000E+00  0.63080966061E+02  0.63080966061E+02  0.00000000000E+00 0.  1.
          2   -1    0    0  502    0  0.00000000000E+00 -0.00000000000E+00 -0.92935492233E+03  0.92935492233E+03  0.00000000000E+00 0. -1.
          6    1    1    2  502    0 -0.15775590933E+03  0.63798149383E+02 -0.45186155716E+03  0.51256218904E+03  0.17200000000E+03 0.  1.
         -6    1    1    2    0  501  0.15775590933E+03 -0.63798149383E+02 -0.41441239911E+03  0.47987369935E+03  0.17200000000E+03 0. -1.
<mgrwt>
<rscale>  2 0.24195274E+03</rscale>
<asrwt>0</asrwt>
<pdfrwt beam="1">  1        2 0.23233873E+00 0.24195274E+03</pdfrwt>
<pdfrwt beam="2">  1       -2 0.15770242E-01 0.24195274E+03</pdfrwt>
<totfact> 0.42824536E+02</totfact>
</mgrwt>
</event>
<event>
 4    1  0.3761914E-001  0.2509173E+03  0.7546771E-02  0.1112726E+00
          1   -1    0    0  502    0  0.00000000000E+00  0.00000000000E+00  0.82651485552E+03  0.82651485552E+03  0.00000000000E+00 0.  1.
         -1   -1    0    0    0  501 -0.00000000000E+00 -0.00000000000E+00 -0.81342479340E+02  0.81342479340E+02  0.00000000000E+00 0. -1.
          6    1    1    2  502    0  0.18107631448E+03  0.24225291043E+02  0.48700097295E+03  0.54784071046E+03  0.17200000000E+03 0.  1.
         -6    1    1    2    0  501 -0.18107631448E+03 -0.24225291043E+02  0.25817140323E+03  0.36001662439E+03  0.17200000000E+03 0.  1.
<mgrwt>
<rscale>  2 0.25091731E+03</rscale>
<asrwt>0</asrwt>
<pdfrwt beam="1">  1        1 0.20662869E+00 0.25091731E+03</pdfrwt>
<pdfrwt beam="2">  1       -1 0.20335622E-01 0.25091731E+03</pdfrwt>
<totfact> 0.18116394E+02</totfact>
</mgrwt>
</event>
<event>
 4    1  0.3761914E-001  0.1882292E+03  0.7546771E-02  0.1160068E+00
         -1   -1    0    0    0  501 -0.00000000000E+00  0.00000000000E+00  0.14612210976E+03  0.14612210976E+03  0.00000000000E+00 0. -1.
          1   -1    0    0  502    0  0.00000000000E+00 -0.00000000000E+00 -0.24251906931E+03  0.24251906931E+03  0.00000000000E+00 0.  1.
          6    1    1    2  502    0  0.91251618871E+01 -0.75914268620E+02 -0.45437639821E+02  0.19363580214E+03  0.17200000000E+03 0.  1.
         -6    1    1    2    0  501 -0.91251618871E+01  0.75914268620E+02 -0.50959319731E+02  0.19500537692E+03  0.17200000000E+03 0.  1.
<mgrwt>
<rscale>  2 0.18822923E+03</rscale>
<asrwt>0</asrwt>
<pdfrwt beam="1">  1        1 0.60629767E-01 0.18822923E+03</pdfrwt>
<pdfrwt beam="2">  1       -1 0.36530528E-01 0.18822923E+03</pdfrwt>
<totfact> 0.45250547E+02</totfact>
</mgrwt>
</event>
<event>
 4    1  0.3761914E-001  0.2030033E+03  0.7546771E-02  0.1147230E+00
         -2   -1    0    0    0  501 -0.00000000000E+00  0.00000000000E+00  0.34222998347E+03  0.34222998347E+03  0.00000000000E+00 0. -1.
          2   -1    0    0  502    0  0.00000000000E+00 -0.00000000000E+00 -0.12197644018E+03  0.12197644018E+03  0.00000000000E+00 0.  1.
          6    1    1    2  502    0  0.93842341693E+02  0.53103263605E+02  0.13636979025E+03  0.24455482288E+03  0.17200000000E+03 0. -1.
         -6    1    1    2    0  501 -0.93842341693E+02 -0.53103263605E+02  0.83883753034E+02  0.21965160078E+03  0.17200000000E+03 0.  1.
<mgrwt>
<rscale>  2 0.20300330E+03</rscale>
<asrwt>0</asrwt>
<pdfrwt beam="1">  1        2 0.30494111E-01 0.20300330E+03</pdfrwt>
<pdfrwt beam="2">  1       -2 0.85557494E-01 0.20300330E+03</pdfrwt>
<totfact> 0.21287331E+02</totfact>
</mgrwt>
</event>
<event>
 4    1  0.3761914E-001  0.1895106E+03  0.7546771E-02  0.1158904E+00
          1   -1    0    0  502    0  0.00000000000E+00  0.00000000000E+00  0.10939213451E+04  0.10939213451E+04  0.00000000000E+00 0. -1.
         -1   -1    0    0    0  501 -0.00000000000E+00 -0.00000000000E+00 -0.60315222362E+02  0.60315222362E+02  0.00000000000E+00 0.  1.
          6    1    1    2  502    0 -0.30849427569E+02  0.73338694970E+02  0.12722443839E+03  0.22825492127E+03  0.17200000000E+03 0.  1.
         -6    1    1    2    0  501  0.30849427569E+02 -0.73338694970E+02  0.90638168435E+03  0.92598164619E+03  0.17200000000E+03 0. -1.
<mgrwt>
<rscale>  2 0.18951056E+03</rscale>
<asrwt>0</asrwt>
<pdfrwt beam="1">  1        1 0.27348027E+00 0.18951056E+03</pdfrwt>
<pdfrwt beam="2">  1       -1 0.15078809E-01 0.18951056E+03</pdfrwt>
<totfact> 0.15429075E+02</totfact>
</mgrwt>
</event>
<event>
 4    1  0.3761914E-001  0.2062360E+03  0.7546771E-02  0.1144582E+00
         -2   -1    0    0    0  501 -0.00000000000E+00  0.00000000000E+00  0.40361773196E+02  0.40361773196E+02  0.00000000000E+00 0.  1.
          2   -1    0    0  502    0  0.00000000000E+00 -0.00000000000E+00 -0.12172503628E+04  0.12172503628E+04  0.00000000000E+00 0. -1.
          6    1    1    2  502    0  0.10826249493E+03  0.35049989088E+02 -0.35802511437E+03  0.41317702267E+03  0.17200000000E+03 0.  1.
         -6    1    1    2    0  501 -0.10826249493E+03 -0.35049989088E+02 -0.81886347519E+03  0.84443511328E+03  0.17200000000E+03 0. -1.
<mgrwt>
<rscale>  2 0.20623596E+03</rscale>
<asrwt>0</asrwt>
<pdfrwt beam="1">  1        2 0.30431256E+00 0.20623596E+03</pdfrwt>
<pdfrwt beam="2">  1       -2 0.10090444E-01 0.20623596E+03</pdfrwt>
<totfact> 0.50643200E+02</totfact>
</mgrwt>
</event>
<event>
 4    1  0.3761914E-001  0.1971841E+03  0.7546771E-02  0.1152137E+00
          2   -1    0    0  502    0  0.00000000000E+00  0.00000000000E+00  0.13957742642E+04  0.13957742642E+04  0.00000000000E+00 0. -1.
         -2   -1    0    0    0  501 -0.00000000000E+00 -0.00000000000E+00 -0.27878410653E+02  0.27878410653E+02  0.00000000000E+00 0.  1.
          6    1    1    2  502    0 -0.74895986346E+02 -0.60730098969E+02  0.70384880601E+03  0.73094780622E+03  0.17200000000E+03 0. -1.
         -6    1    1    2    0  501  0.74895986346E+02  0.60730098969E+02  0.66404704754E+03  0.69270486864E+03  0.17200000000E+03 0.  1.
<mgrwt>
<rscale>  2 0.19718406E+03</rscale>
<asrwt>0</asrwt>
<pdfrwt beam="1">  1        2 0.34894333E+00 0.19718406E+03</pdfrwt>
<pdfrwt beam="2">  1       -2 0.69696074E-02 0.19718406E+03</pdfrwt>
<totfact> 0.63813272E+02</totfact>
</mgrwt>
</event>
<event>
 4    1  0.3761914E-001  0.1728099E+03  0.7546771E-02  0.1174949E+00
         -2   -1    0    0    0  501 -0.00000000000E+00  0.00000000000E+00  0.20778940055E+02  0.20778940055E+02  0.00000000000E+00 0.  1.
          2   -1    0    0  502    0  0.00000000000E+00 -0.00000000000E+00 -0.19650743388E+04  0.19650743388E+04  0.00000000000E+00 0. -1.
          6    1    1    2  502    0 -0.16705443945E+02 -0.44927997244E+00 -0.45751511562E+03  0.48906375324E+03  0.17200000000E+03 0.  1.
         -6    1    1    2    0  501  0.16705443945E+02  0.44927997244E+00 -0.14867802831E+04  0.14967895256E+04  0.17200000000E+03 0. -1.
<mgrwt>
<rscale>  2 0.17280994E+03</rscale>
<asrwt>0</asrwt>
<pdfrwt beam="1">  1        2 0.49126854E+00 0.17280994E+03</pdfrwt>
<pdfrwt beam="2">  1       -2 0.51947355E-02 0.17280994E+03</pdfrwt>
<totfact> 0.30494287E+02</totfact>
</mgrwt>
</event>
<event>
 4    1  0.3761914E-001  0.1821595E+03  0.7546771E-02  0.1165729E+00
          2   -1    0    0  502    0  0.00000000000E+00  0.00000000000E+00  0.83117204105E+03  0.83117204105E+03  0.00000000000E+00 0. -1.
         -2   -1    0    0    0  501 -0.00000000000E+00 -0.00000000000E+00 -0.40600567405E+02  0.40600567405E+02  0.00000000000E+00 0.  1.
          6    1    1    2  502    0 -0.55198656248E+02  0.23477190401E+02  0.33893546591E+03  0.38478477124E+03  0.17200000000E+03 0.  1.
         -6    1    1    2    0  501  0.55198656248E+02 -0.23477190401E+02  0.45163600773E+03  0.48698783722E+03  0.17200000000E+03 0. -1.
<mgrwt>
<rscale>  2 0.18215946E+03</rscale>
<asrwt>0</asrwt>
<pdfrwt beam="1">  1        2 0.20779295E+00 0.18215946E+03</pdfrwt>
<pdfrwt beam="2">  1       -2 0.10150145E-01 0.18215946E+03</pdfrwt>
<totfact> 0.10739100E+03</totfact>
</mgrwt>
</event>
<event>
 4    1  0.3761914E-001  0.1982279E+03  0.7546771E-02  0.1151243E+00
          2   -1    0    0  502    0  0.00000000000E+00  0.00000000000E+00  0.19223204853E+04  0.19223204853E+04  0.00000000000E+00 0. -1.
         -2   -1    0    0    0  501 -0.00000000000E+00 -0.00000000000E+00 -0.28462554349E+02  0.28462554349E+02  0.00000000000E+00 0.  1.
          6    1    1    2  502    0 -0.50875485370E+02 -0.84391805365E+02  0.14647376736E+04  0.14780902355E+04  0.17200000000E+03 0. -1.
         -6    1    1    2    0  501  0.50875485370E+02  0.84391805365E+02  0.42912025736E+03  0.47269280416E+03  0.17200000000E+03 0.  1.
<mgrwt>
<rscale>  2 0.19822788E+03</rscale>
<asrwt>0</asrwt>
<pdfrwt beam="1">  1        2 0.48057968E+00 0.19822788E+03</pdfrwt>
<pdfrwt beam="2">  1       -2 0.71156451E-02 0.19822788E+03</pdfrwt>
<totfact> 0.20522481E+02</totfact>
</mgrwt>
</event>
<event>
 4    1  0.3761914E-001  0.2312401E+03  0.7546771E-02  0.1125770E+00
          1   -1    0    0  502    0  0.00000000000E+00  0.00000000000E+00  0.31440485816E+03  0.31440485816E+03  0.00000000000E+00 0.  1.
         -1   -1    0    0    0  501 -0.00000000000E+00 -0.00000000000E+00 -0.17360099129E+03  0.17360099129E+03  0.00000000000E+00 0. -1.
          6    1    1    2  502    0  0.78446391264E+02 -0.13316957805E+03  0.35620743806E+02  0.23396754093E+03  0.17200000000E+03 0. -1.
         -6    1    1    2    0  501 -0.78446391264E+02  0.13316957805E+03  0.10518312306E+03  0.25403830852E+03  0.17200000000E+03 0. -1.
<mgrwt>
<rscale>  2 0.23124008E+03</rscale>
<asrwt>0</asrwt>
<pdfrwt beam="1">  1        1 0.78601214E-01 0.23124008E+03</pdfrwt>
<pdfrwt beam="2">  1       -1 0.43400248E-01 0.23124008E+03</pdfrwt>
<totfact> 0.23704885E+02</totfact>
</mgrwt>
</event>
<event>
 4    1  0.3761914E-001  0.1852093E+03  0.7546771E-02  0.1162855E+00
          3   -1    0    0  502    0  0.00000000000E+00  0.00000000000E+00  0.69463864467E+03  0.69463864467E+03  0.00000000000E+00 0.  1.
         -3   -1    0    0    0  501 -0.00000000000E+00 -0.00000000000E+00 -0.52753588331E+02  0.52753588331E+02  0.00000000000E+00 0. -1.
          6    1    1    2  502    0 -0.66607890912E+02 -0.16789182291E+02  0.41541917718E+03  0.45483577316E+03  0.17200000000E+03 0.  1.
         -6    1    1    2    0  501  0.66607890912E+02  0.16789182291E+02  0.22646587916E+03  0.29255645985E+03  0.17200000000E+03 0. -1.
<mgrwt>
<rscale>  2 0.18520931E+03</rscale>
<asrwt>0</asrwt>
<pdfrwt beam="1">  1        3 0.17365963E+00 0.18520931E+03</pdfrwt>
<pdfrwt beam="2">  1       -3 0.13188399E-01 0.18520931E+03</pdfrwt>
<totfact> 0.26567721E+01</totfact>
</mgrwt>
</event>
<event>
 4    1  0.3761914E-001  0.1825478E+03  0.7546771E-02  0.1165360E+00
         -3   -1    0    0    0  501 -0.00000000000E+00  0.00000000000E+00  0.57015858938E+02  0.57015858938E+02  0.00000000000E+00 0. -1.
          3   -1    0    0  502    0  0.00000000000E+00 -0.00000000000E+00 -0.58927011661E+03  0.58927011661E+03  0.00000000000E+00 0.  1.
          6    1    1    2  502    0 -0.58420304918E+02 -0.18077047664E+02 -0.23694352785E+03  0.29910858742E+03  0.17200000000E+03 0. -1.
         -6    1    1    2    0  501  0.58420304918E+02  0.18077047664E+02 -0.29531072982E+03  0.34717738813E+03  0.17200000000E+03 0. -1.
<mgrwt>
<rscale>  2 0.18254783E+03</rscale>
<asrwt>0</asrwt>
<pdfrwt beam="1">  1        3 0.14731753E+00 0.18254783E+03</pdfrwt>
<pdfrwt beam="2">  1       -3 0.14253965E-01 0.18254783E+03</pdfrwt>
<totfact> 0.35394350E+01</totfact>
</mgrwt>
</event>
<event>
 4    1  0.3761914E-001  0.2252585E+03  0.7546771E-02  0.1130022E+00
         -1   -1    0    0    0  501 -0.00000000000E+00  0.00000000000E+00  0.36050119573E+03  0.36050119573E+03  0.00000000000E+00 0.  1.
          1   -1    0    0  502    0  0.00000000000E+00 -0.00000000000E+00 -0.27735946600E+03  0.27735946600E+03  0.00000000000E+00 0. -1.
          6    1    1    2  502    0  0.14266347208E+03 -0.28364411686E+02 -0.18225533413E+03  0.28975578153E+03  0.17200000000E+03 0. -1.
         -6    1    1    2    0  501 -0.14266347208E+03  0.28364411686E+02  0.26539706386E+03  0.34810488020E+03  0.17200000000E+03 0.  1.
<mgrwt>
<rscale>  2 0.22525853E+03</rscale>
<asrwt>0</asrwt>
<pdfrwt beam="1">  1        1 0.69339867E-01 0.22525853E+03</pdfrwt>
<pdfrwt beam="2">  1       -1 0.90125299E-01 0.22525853E+03</pdfrwt>
<totfact> 0.67220586E+01</totfact>
</mgrwt>
</event>
<event>
 4    1  0.3761914E-001  0.2569088E+03  0.7546771E-02  0.1109015E+00
         -2   -1    0    0    0  501 -0.00000000000E+00  0.00000000000E+00  0.17173700838E+03  0.17173700838E+03  0.00000000000E+00 0.  1.
          2   -1    0    0  502    0  0.00000000000E+00 -0.00000000000E+00 -0.38628644013E+03  0.38628644013E+03  0.00000000000E+00 0. -1.
          6    1    1    2  502    0 -0.19052186402E+03 -0.10933531361E+02 -0.87372201847E+02  0.27135958511E+03  0.17200000000E+03 0. -1.
         -6    1    1    2    0  501  0.19052186402E+03  0.10933531361E+02 -0.12717722991E+03  0.28666386341E+03  0.17200000000E+03 0.  1.
<mgrwt>
<rscale>  2 0.25690878E+03</rscale>
<asrwt>0</asrwt>
<pdfrwt beam="1">  1        2 0.96571609E-01 0.25690878E+03</pdfrwt>
<pdfrwt beam="2">  1       -2 0.42934252E-01 0.25690878E+03</pdfrwt>
<totfact> 0.25099313E+02</totfact>
</mgrwt>
</event>
<event>
 4    1  0.3761914E-001  0.1841158E+03  0.7546771E-02  0.1163878E+00
         -1   -1    0    0    0  501 -0.00000000000E+00  0.00000000000E+00  0.42966080473E+02  0.42966080473E+02  0.00000000000E+00 0.  1.
          1   -1    0    0  502    0  0.00000000000E+00 -0.00000000000E+00 -0.81144948056E+03  0.81144948056E+03  0.00000000000E+00 0. -1.
          6    1    1    2  502    0 -0.44965016155E+02 -0.47882848116E+02 -0.45535902801E+03  0.49117254016E+03  0.17200000000E+03 0. -1.
         -6    1    1    2    0  501  0.44965016155E+02  0.47882848116E+02 -0.31312437208E+03  0.36324302087E+03  0.17200000000E+03 0.  1.
<mgrwt>
<rscale>  2 0.18411578E+03</rscale>
<asrwt>0</asrwt>
<pdfrwt beam="1">  1        1 0.20286237E+00 0.18411578E+03</pdfrwt>
<pdfrwt beam="2">  1       -1 0.10741520E-01 0.18411578E+03</pdfrwt>
<totfact> 0.52403811E+02</totfact>
</mgrwt>
</event>
<event>
 4    1  0.3761914E-001  0.1748953E+03  0.7546771E-02  0.1172837E+00
          2   -1    0    0  502    0  0.00000000000E+00  0.00000000000E+00  0.10657723880E+04  0.10657723880E+04  0.00000000000E+00 0. -1.
         -2   -1    0    0    0  501 -0.00000000000E+00 -0.00000000000E+00 -0.36405415285E+02  0.36405415285E+02  0.00000000000E+00 0.  1.
          6    1    1    2  502    0  0.13038187621E+02  0.28885415478E+02  0.76820705704E+03  0.78786448330E+03  0.17200000000E+03 0. -1.
         -6    1    1    2    0  501 -0.13038187621E+02 -0.28885415478E+02  0.26115991568E+03  0.31431331999E+03  0.17200000000E+03 0.  1.
<mgrwt>
<rscale>  2 0.17489529E+03</rscale>
<asrwt>0</asrwt>
<pdfrwt beam="1">  1        2 0.26644299E+00 0.17489529E+03</pdfrwt>
<pdfrwt beam="2">  1       -2 0.91013574E-02 0.17489529E+03</pdfrwt>
<totfact> 0.80440123E+02</totfact>
</mgrwt>
</event>
<event>
 4    1  0.3761914E-001  0.1729621E+03  0.7546771E-02  0.1174794E+00
         -2   -1    0    0    0  501 -0.00000000000E+00  0.00000000000E+00  0.25664249570E+02  0.25664249570E+02  0.00000000000E+00 0. -1.
          2   -1    0    0  502    0  0.00000000000E+00 -0.00000000000E+00 -0.16968085558E+04  0.16968085558E+04  0.00000000000E+00 0.  1.
          6    1    1    2  502    0  0.96808560340E+01 -0.15432866687E+02 -0.35372165286E+03  0.39374471432E+03  0.17200000000E+03 0. -1.
         -6    1    1    2    0  501 -0.96808560340E+01  0.15432866687E+02 -0.13174226533E+04  0.13287280910E+04  0.17200000000E+03 0.  1.
<mgrwt>
<rscale>  2 0.17296211E+03</rscale>
<asrwt>0</asrwt>
<pdfrwt beam="1">  1        2 0.42420210E+00 0.17296211E+03</pdfrwt>
<pdfrwt beam="2">  1       -2 0.64160629E-02 0.17296211E+03</pdfrwt>
<totfact> 0.39641814E+02</totfact>
</mgrwt>
</event>
<event>
 4    1  0.3761914E-001  0.1983389E+03  0.7546771E-02  0.1151148E+00
         -2   -1    0    0    0  501 -0.00000000000E+00  0.00000000000E+00  0.91083749141E+02  0.91083749141E+02  0.00000000000E+00 0.  1.
          2   -1    0    0  502    0  0.00000000000E+00 -0.00000000000E+00 -0.44172271134E+03  0.44172271134E+03  0.00000000000E+00 0. -1.
          6    1    1    2  502    0 -0.85756196429E+02 -0.48991664133E+02 -0.21506291503E+03  0.29255831180E+03  0.17200000000E+03 0.  1.
         -6    1    1    2    0  501  0.85756196429E+02  0.48991664133E+02 -0.13557604717E+03  0.24024814868E+03  0.17200000000E+03 0.  1.
<mgrwt>
<rscale>  2 0.19833887E+03</rscale>
<asrwt>0</asrwt>
<pdfrwt beam="1">  1        2 0.11043068E+00 0.19833887E+03</pdfrwt>
<pdfrwt beam="2">  1       -2 0.22770938E-01 0.19833887E+03</pdfrwt>
<totfact> 0.68628695E+02</totfact>
</mgrwt>
</event>
<event>
 4    1  0.3761914E-001  0.2146015E+03  0.7546771E-02  0.1137973E+00
          2   -1    0    0  502    0  0.00000000000E+00  0.00000000000E+00  0.56399238425E+03  0.56399238425E+03  0.00000000000E+00 0. -1.
         -2   -1    0    0    0  501 -0.00000000000E+00 -0.00000000000E+00 -0.85259181994E+02  0.85259181994E+02  0.00000000000E+00 0.  1.
          6    1    1    2  502    0  0.17217240034E+01 -0.12832312612E+03  0.17263832468E+03  0.27542291150E+03  0.17200000000E+03 0.  1.
         -6    1    1    2    0  501 -0.17217240034E+01  0.12832312612E+03  0.30609487758E+03  0.37382865475E+03  0.17200000000E+03 0.  1.
<mgrwt>
<rscale>  2 0.21460147E+03</rscale>
<asrwt>0</asrwt>
<pdfrwt beam="1">  1        2 0.14099809E+00 0.21460147E+03</pdfrwt>
<pdfrwt beam="2">  1       -2 0.21314797E-01 0.21460147E+03</pdfrwt>
<totfact> 0.56298435E+02</totfact>
</mgrwt>
</event>
<event>
 4    1  0.3761914E-001  0.1938339E+03  0.7546771E-02  0.1155048E+00
         -2   -1    0    0    0  501 -0.00000000000E+00  0.00000000000E+00  0.23432443476E+02  0.23432443476E+02  0.00000000000E+00 0. -1.
          2   -1    0    0  502    0  0.00000000000E+00 -0.00000000000E+00 -0.16033998104E+04  0.16033998104E+04  0.00000000000E+00 0.  1.
          6    1    1    2  502    0  0.87809997066E+02  0.16642706426E+02 -0.78992970053E+03  0.81336369912E+03  0.17200000000E+03 0. -1.
         -6    1    1    2    0  501 -0.87809997066E+02 -0.16642706426E+02 -0.79003766640E+03  0.81346855476E+03  0.17200000000E+03 0.  1.
<mgrwt>
<rscale>  2 0.19383389E+03</rscale>
<asrwt>0</asrwt>
<pdfrwt beam="1">  1        2 0.40084995E+00 0.19383389E+03</pdfrwt>
<pdfrwt beam="2">  1       -2 0.58581109E-02 0.19383389E+03</pdfrwt>
<totfact> 0.54906677E+02</totfact>
</mgrwt>
</event>
<event>
 4    1  0.3761914E-001  0.1740289E+03  0.7546771E-02  0.1173710E+00
         -1   -1    0    0    0  501 -0.00000000000E+00  0.00000000000E+00  0.52494568587E+02  0.52494568587E+02  0.00000000000E+00 0. -1.
          1   -1    0    0  502    0  0.00000000000E+00 -0.00000000000E+00 -0.59034517181E+03  0.59034517181E+03  0.00000000000E+00 0.  1.
          6    1    1    2  502    0  0.22706746992E+02  0.13655603033E+02 -0.22048570635E+03  0.28089147114E+03  0.17200000000E+03 0. -1.
         -6    1    1    2    0  501 -0.22706746992E+02 -0.13655603033E+02 -0.31736489687E+03  0.36194826926E+03  0.17200000000E+03 0.  1.
<mgrwt>
<rscale>  2 0.17402894E+03</rscale>
<asrwt>0</asrwt>
<pdfrwt beam="1">  1        1 0.14758629E+00 0.17402894E+03</pdfrwt>
<pdfrwt beam="2">  1       -1 0.13123642E-01 0.17402894E+03</pdfrwt>
<totfact> 0.68961198E+02</totfact>
</mgrwt>
</event>
<event>
 4    1  0.3761914E-001  0.2365246E+03  0.7546771E-02  0.1122130E+00
         -2   -1    0    0    0  501 -0.00000000000E+00  0.00000000000E+00  0.67851299846E+02  0.67851299846E+02  0.00000000000E+00 0.  1.
          2   -1    0    0  502    0  0.00000000000E+00 -0.00000000000E+00 -0.12596373225E+04  0.12596373225E+04  0.00000000000E+00 0. -1.
          6    1    1    2  502    0 -0.15848167316E+03  0.35262254984E+02 -0.98600361751E+03  0.10139758385E+04  0.17200000000E+03 0. -1.
         -6    1    1    2    0  501  0.15848167316E+03 -0.35262254984E+02 -0.20578240513E+03  0.31351278382E+03  0.17200000000E+03 0.  1.
<mgrwt>
<rscale>  2 0.23652456E+03</rscale>
<asrwt>0</asrwt>
<pdfrwt beam="1">  1        2 0.31490931E+00 0.23652456E+03</pdfrwt>
<pdfrwt beam="2">  1       -2 0.16962826E-01 0.23652456E+03</pdfrwt>
<totfact> 0.19835813E+02</totfact>
</mgrwt>
</event>
<event>
 4    1  0.3761914E-001  0.2056830E+03  0.7546771E-02  0.1145031E+00
         -1   -1    0    0    0  501 -0.00000000000E+00  0.00000000000E+00  0.13989004359E+03  0.13989004359E+03  0.00000000000E+00 0. -1.
          1   -1    0    0  502    0  0.00000000000E+00 -0.00000000000E+00 -0.31702571395E+03  0.31702571395E+03  0.00000000000E+00 0.  1.
          6    1    1    2  502    0  0.90830934231E+02 -0.66867468292E+02 -0.39530881243E+02  0.20944738600E+03  0.17200000000E+03 0. -1.
         -6    1    1    2    0  501 -0.90830934231E+02  0.66867468292E+02 -0.13760478912E+03  0.24746837155E+03  0.17200000000E+03 0.  1.
<mgrwt>
<rscale>  2 0.20568305E+03</rscale>
<asrwt>0</asrwt>
<pdfrwt beam="1">  1        1 0.79256428E-01 0.20568305E+03</pdfrwt>
<pdfrwt beam="2">  1       -1 0.34972511E-01 0.20568305E+03</pdfrwt>
<totfact> 0.34422959E+02</totfact>
</mgrwt>
</event>
<event>
 4    1  0.3761914E-001  0.1847916E+03  0.7546771E-02  0.1163245E+00
          2   -1    0    0  502    0  0.00000000000E+00  0.00000000000E+00  0.35329438036E+03  0.35329438036E+03  0.00000000000E+00 0.  1.
         -2   -1    0    0    0  501 -0.00000000000E+00 -0.00000000000E+00 -0.10566029226E+03  0.10566029226E+03  0.00000000000E+00 0. -1.
          6    1    1    2  502    0  0.50380842167E+02 -0.45007904503E+02  0.56826391229E+02  0.19333178597E+03  0.17200000000E+03 0. -1.
         -6    1    1    2    0  501 -0.50380842167E+02  0.45007904503E+02  0.19080769688E+03  0.26562288665E+03  0.17200000000E+03 0.  1.
<mgrwt>
<rscale>  2 0.18479161E+03</rscale>
<asrwt>0</asrwt>
<pdfrwt beam="1">  1        2 0.88323592E-01 0.18479161E+03</pdfrwt>
<pdfrwt beam="2">  1       -2 0.26415074E-01 0.18479161E+03</pdfrwt>
<totfact> 0.68784270E+02</totfact>
</mgrwt>
</event>
<event>
 4    1  0.3761914E-001  0.2482884E+03  0.7546771E-02  0.1114391E+00
         -2   -1    0    0    0  501 -0.00000000000E+00  0.00000000000E+00  0.24617407875E+03  0.24617407875E+03  0.00000000000E+00 0. -1.
          2   -1    0    0  502    0  0.00000000000E+00 -0.00000000000E+00 -0.26525645880E+03  0.26525645880E+03  0.00000000000E+00 0.  1.
          6    1    1    2  502    0 -0.12793577976E+03  0.12528186451E+03  0.50933983095E+02  0.25345883285E+03  0.17200000000E+03 0. -1.
         -6    1    1    2    0  501  0.12793577976E+03 -0.12528186451E+03 -0.70016363146E+02  0.25797170470E+03  0.17200000000E+03 0.  1.
<mgrwt>
<rscale>  2 0.24828836E+03</rscale>
<asrwt>0</asrwt>
<pdfrwt beam="1">  1        2 0.66314114E-01 0.24828836E+03</pdfrwt>
<pdfrwt beam="2">  1       -2 0.61543520E-01 0.24828836E+03</pdfrwt>
<totfact> 0.18635248E+02</totfact>
</mgrwt>
</event>
<event>
 4    1  0.3761914E-001  0.1836950E+03  0.7546771E-02  0.1164274E+00
          1   -1    0    0  502    0  0.00000000000E+00  0.00000000000E+00  0.20076811565E+03  0.20076811565E+03  0.00000000000E+00 0.  1.
         -1   -1    0    0    0  501 -0.00000000000E+00 -0.00000000000E+00 -0.22206341156E+03  0.22206341156E+03  0.00000000000E+00 0. -1.
          6    1    1    2  502    0 -0.19314756442E+01 -0.64468009375E+02 -0.11489236853E+03  0.21666589759E+03  0.17200000000E+03 0. -1.
         -6    1    1    2    0  501  0.19314756442E+01  0.64468009375E+02  0.93597072621E+02  0.20616562961E+03  0.17200000000E+03 0.  1.
<mgrwt>
<rscale>  2 0.18369500E+03</rscale>
<asrwt>0</asrwt>
<pdfrwt beam="1">  1        1 0.50192029E-01 0.18369500E+03</pdfrwt>
<pdfrwt beam="2">  1       -1 0.55515853E-01 0.18369500E+03</pdfrwt>
<totfact> 0.26989203E+02</totfact>
</mgrwt>
</event>
<event>
 4    1  0.3761914E-001  0.1735268E+03  0.7546771E-02  0.1174219E+00
         -2   -1    0    0    0  501 -0.00000000000E+00  0.00000000000E+00  0.66184385198E+03  0.66184385198E+03  0.00000000000E+00 0.  1.
          2   -1    0    0  502    0  0.00000000000E+00 -0.00000000000E+00 -0.54873401401E+02  0.54873401401E+02  0.00000000000E+00 0. -1.
          6    1    1    2  502    0  0.19247435467E+02  0.12533865381E+02  0.45162347243E+03  0.48381331358E+03  0.17200000000E+03 0.  1.
         -6    1    1    2    0  501 -0.19247435467E+02 -0.12533865381E+02  0.15534697816E+03  0.23290393980E+03  0.17200000000E+03 0. -1.
<mgrwt>
<rscale>  2 0.17352683E+03</rscale>
<asrwt>0</asrwt>
<pdfrwt beam="1">  1        2 0.13718352E-01 0.17352683E+03</pdfrwt>
<pdfrwt beam="2">  1       -2 0.16546094E+00 0.17352683E+03</pdfrwt>
<totfact> 0.10715036E+02</totfact>
</mgrwt>
</event>
<event>
 4    1  0.3761914E-001  0.1751343E+03  0.7546771E-02  0.1172597E+00
          2   -1    0    0  502    0  0.00000000000E+00  0.00000000000E+00  0.11162431051E+04  0.11162431051E+04  0.00000000000E+00 0. -1.
         -2   -1    0    0    0  501 -0.00000000000E+00 -0.00000000000E+00 -0.33765377340E+02  0.33765377340E+02  0.00000000000E+00 0.  1.
          6    1    1    2  502    0  0.17651816584E+02 -0.27864339879E+02  0.78936568936E+03  0.80856057262E+03  0.17200000000E+03 0. -1.
         -6    1    1    2    0  501 -0.17651816584E+02  0.27864339879E+02  0.29311203844E+03  0.34144790985E+03  0.17200000000E+03 0.  1.
<mgrwt>
<rscale>  2 0.17513426E+03</rscale>
<asrwt>0</asrwt>
<pdfrwt beam="1">  1        2 0.27906065E+00 0.17513426E+03</pdfrwt>
<pdfrwt beam="2">  1       -2 0.84413480E-02 0.17513426E+03</pdfrwt>
<totfact> 0.82076678E+02</totfact>
</mgrwt>
</event>
<event>
 4    1  0.3761914E-001  0.2438120E+03  0.7546771E-02  0.1117279E+00
          2   -1    0    0  502    0  0.00000000000E+00  0.00000000000E+00  0.11477749860E+04  0.11477749860E+04  0.00000000000E+00 0. -1.
         -2   -1    0    0    0  501 -0.00000000000E+00 -0.00000000000E+00 -0.54435431993E+02  0.54435431993E+02  0.00000000000E+00 0.  1.
          6    1    1    2  502    0  0.47514712554E+02  0.16614047258E+03  0.41417959139E+03  0.48061319006E+03  0.17200000000E+03 0.  1.
         -6    1    1    2    0  501 -0.47514712554E+02 -0.16614047258E+03  0.67915996265E+03  0.72159722796E+03  0.17200000000E+03 0. -1.
<mgrwt>
<rscale>  2 0.24381203E+03</rscale>
<asrwt>0</asrwt>
<pdfrwt beam="1">  1        2 0.28694367E+00 0.24381203E+03</pdfrwt>
<pdfrwt beam="2">  1       -2 0.13608862E-01 0.24381203E+03</pdfrwt>
<totfact> 0.35516529E+02</totfact>
</mgrwt>
</event>
<event>
 4    1  0.3761914E-001  0.1995081E+03  0.7546771E-02  0.1150155E+00
          2   -1    0    0  502    0  0.00000000000E+00  0.00000000000E+00  0.15258583457E+04  0.15258583457E+04  0.00000000000E+00 0.  1.
         -2   -1    0    0    0  501 -0.00000000000E+00 -0.00000000000E+00 -0.49249157700E+02  0.49249157700E+02  0.00000000000E+00 0. -1.
          6    1    1    2  502    0  0.10102329917E+03  0.37106673584E+01  0.19819725185E+03  0.28122166820E+03  0.17200000000E+03 0. -1.
         -6    1    1    2    0  501 -0.10102329917E+03 -0.37106673584E+01  0.12784119362E+04  0.12938858352E+04  0.17200000000E+03 0.  1.
<mgrwt>
<rscale>  2 0.19950809E+03</rscale>
<asrwt>0</asrwt>
<pdfrwt beam="1">  1        2 0.38146443E+00 0.19950809E+03</pdfrwt>
<pdfrwt beam="2">  1       -2 0.12312295E-01 0.19950809E+03</pdfrwt>
<totfact> 0.20043332E+02</totfact>
</mgrwt>
</event>
<event>
 4    1  0.3761914E-001  0.2021966E+03  0.7546771E-02  0.1147899E+00
          1   -1    0    0  502    0  0.00000000000E+00  0.00000000000E+00  0.75557791602E+03  0.75557791602E+03  0.00000000000E+00 0.  1.
         -1   -1    0    0    0  501 -0.00000000000E+00 -0.00000000000E+00 -0.10642416933E+03  0.10642416933E+03  0.00000000000E+00 0. -1.
          6    1    1    2  502    0  0.92727432097E+02 -0.51972151581E+02  0.62676156994E+03  0.65856931811E+03  0.17200000000E+03 0.  1.
         -6    1    1    2    0  501 -0.92727432097E+02  0.51972151581E+02  0.22392176750E+02  0.20343276723E+03  0.17200000000E+03 0. -1.
<mgrwt>
<rscale>  2 0.20219664E+03</rscale>
<asrwt>0</asrwt>
<pdfrwt beam="1">  1        1 0.18889446E+00 0.20219664E+03</pdfrwt>
<pdfrwt beam="2">  1       -1 0.26606045E-01 0.20219664E+03</pdfrwt>
<totfact> 0.14105359E+02</totfact>
</mgrwt>
</event>
<event>
 4    1  0.3761914E-001  0.1722648E+03  0.7546771E-02  0.1175506E+00
          2   -1    0    0  502    0  0.00000000000E+00  0.00000000000E+00  0.56099711374E+03  0.56099711374E+03  0.00000000000E+00 0. -1.
         -2   -1    0    0    0  501 -0.00000000000E+00 -0.00000000000E+00 -0.74745813221E+02  0.74745813221E+02  0.00000000000E+00 0.  1.
          6    1    1    2  502    0 -0.11504802000E+01  0.94774069393E+01  0.41498398737E+03  0.44931821087E+03  0.17200000000E+03 0. -1.
         -6    1    1    2    0  501  0.11504802000E+01 -0.94774069393E+01  0.71267313155E+02  0.18642471610E+03  0.17200000000E+03 0.  1.
<mgrwt>
<rscale>  2 0.17226475E+03</rscale>
<asrwt>0</asrwt>
<pdfrwt beam="1">  1        2 0.14024927E+00 0.17226475E+03</pdfrwt>
<pdfrwt beam="2">  1       -2 0.18686455E-01 0.17226475E+03</pdfrwt>
<totfact> 0.71176893E+02</totfact>
</mgrwt>
</event>
<event>
 4    1  0.3761914E-001  0.2044406E+03  0.7546771E-02  0.1146046E+00
         -1   -1    0    0    0  501 -0.00000000000E+00  0.00000000000E+00  0.77710612111E+03  0.77710612111E+03  0.00000000000E+00 0.  1.
          1   -1    0    0  502    0  0.00000000000E+00 -0.00000000000E+00 -0.54348135603E+02  0.54348135603E+02  0.00000000000E+00 0. -1.
          6    1    1    2  502    0 -0.72961114510E+02  0.82997752230E+02  0.40373064915E+03  0.45254213966E+03  0.17200000000E+03 0.  1.
         -6    1    1    2    0  501  0.72961114510E+02 -0.82997752230E+02  0.31902733636E+03  0.37891211705E+03  0.17200000000E+03 0. -1.
<mgrwt>
<rscale>  2 0.20444058E+03</rscale>
<asrwt>0</asrwt>
<pdfrwt beam="1">  1        1 0.13587036E-01 0.20444058E+03</pdfrwt>
<pdfrwt beam="2">  1       -1 0.19427649E+00 0.20444058E+03</pdfrwt>
<totfact> 0.78717153E+01</totfact>
</mgrwt>
</event>
<event>
 4    1  0.3761914E-001  0.1801665E+03  0.7546771E-02  0.1167642E+00
         -2   -1    0    0    0  501 -0.00000000000E+00  0.00000000000E+00  0.44535131490E+02  0.44535131490E+02  0.00000000000E+00 0. -1.
          2   -1    0    0  502    0  0.00000000000E+00 -0.00000000000E+00 -0.72968504150E+03  0.72968504150E+03  0.00000000000E+00 0.  1.
          6    1    1    2  502    0 -0.50766935830E+02  0.17282725164E+02 -0.35557432209E+03  0.39861393966E+03  0.17200000000E+03 0. -1.
         -6    1    1    2    0  501  0.50766935830E+02 -0.17282725164E+02 -0.32957558791E+03  0.37560623332E+03  0.17200000000E+03 0.  1.
<mgrwt>
<rscale>  2 0.18016652E+03</rscale>
<asrwt>0</asrwt>
<pdfrwt beam="1">  1        2 0.18242126E+00 0.18016652E+03</pdfrwt>
<pdfrwt beam="2">  1       -2 0.11133783E-01 0.18016652E+03</pdfrwt>
<totfact> 0.11427459E+03</totfact>
</mgrwt>
</event>
<event>
 4    1  0.3761914E-001  0.1815753E+03  0.7546771E-02  0.1166287E+00
         -2   -1    0    0    0  501 -0.00000000000E+00  0.00000000000E+00  0.17553079571E+02  0.17553079571E+02  0.00000000000E+00 0. -1.
          2   -1    0    0  502    0  0.00000000000E+00 -0.00000000000E+00 -0.18947436689E+04  0.18947436689E+04  0.00000000000E+00 0.  1.
          6    1    1    2  502    0  0.66559917904E+01 -0.57803750490E+02 -0.10277266016E+04  0.10436433986E+04  0.17200000000E+03 0.  1.
         -6    1    1    2    0  501 -0.66559917904E+01  0.57803750490E+02 -0.84946398766E+03  0.86865334981E+03  0.17200000000E+03 0. -1.
<mgrwt>
<rscale>  2 0.18157526E+03</rscale>
<asrwt>0</asrwt>
<pdfrwt beam="1">  1        2 0.47368590E+00 0.18157526E+03</pdfrwt>
<pdfrwt beam="2">  1       -2 0.43882701E-02 0.18157526E+03</pdfrwt>
<totfact> 0.45892026E+02</totfact>
</mgrwt>
</event>
<event>
 4    1  0.3761914E-001  0.1747992E+03  0.7546771E-02  0.1172933E+00
         -2   -1    0    0    0  501 -0.00000000000E+00  0.00000000000E+00  0.87181154046E+02  0.87181154046E+02  0.00000000000E+00 0. -1.
          2   -1    0    0  502    0  0.00000000000E+00 -0.00000000000E+00 -0.35692281205E+03  0.35692281205E+03  0.00000000000E+00 0.  1.
          6    1    1    2  502    0  0.30638471302E+02 -0.56604677601E+01 -0.10502414086E+03  0.20392358123E+03  0.17200000000E+03 0. -1.
         -6    1    1    2    0  501 -0.30638471302E+02  0.56604677601E+01 -0.16471751714E+03  0.24018038486E+03  0.17200000000E+03 0.  1.
<mgrwt>
<rscale>  2 0.17479919E+03</rscale>
<asrwt>0</asrwt>
<pdfrwt beam="1">  1        2 0.89230702E-01 0.17479919E+03</pdfrwt>
<pdfrwt beam="2">  1       -2 0.21795289E-01 0.17479919E+03</pdfrwt>
<totfact> 0.95099311E+02</totfact>
</mgrwt>
</event>
<event>
 4    1  0.3761914E-001  0.1993115E+03  0.7546771E-02  0.1150321E+00
         -3   -1    0    0    0  501 -0.00000000000E+00  0.00000000000E+00  0.23791957610E+03  0.23791957610E+03  0.00000000000E+00 0.  1.
          3   -1    0    0  502    0  0.00000000000E+00 -0.00000000000E+00 -0.16944098804E+03  0.16944098804E+03  0.00000000000E+00 0. -1.
          6    1    1    2  502    0  0.53411204611E+02  0.85371635273E+02  0.96351911590E+01  0.19954425523E+03  0.17200000000E+03 0. -1.
         -6    1    1    2    0  501 -0.53411204611E+02 -0.85371635273E+02  0.58843396901E+02  0.20781630890E+03  0.17200000000E+03 0. -1.
<mgrwt>
<rscale>  2 0.19931150E+03</rscale>
<asrwt>0</asrwt>
<pdfrwt beam="1">  1        3 0.42360247E-01 0.19931150E+03</pdfrwt>
<pdfrwt beam="2">  1       -3 0.59479894E-01 0.19931150E+03</pdfrwt>
<totfact> 0.38022527E+01</totfact>
</mgrwt>
</event>
<event>
 4    1  0.3761914E-001  0.2363274E+03  0.7546771E-02  0.1122264E+00
          2   -1    0    0  502    0  0.00000000000E+00  0.00000000000E+00  0.94517696613E+03  0.94517696613E+03  0.00000000000E+00 0.  1.
         -2   -1    0    0    0  501 -0.00000000000E+00 -0.00000000000E+00 -0.60644115121E+02  0.60644115121E+02  0.00000000000E+00 0. -1.
          6    1    1    2  502    0  0.49368046920E+02 -0.15436780037E+03  0.36176176731E+03  0.43211364030E+03  0.17200000000E+03 0. -1.
         -6    1    1    2    0  501 -0.49368046920E+02  0.15436780037E+03  0.52277108370E+03  0.57370744095E+03  0.17200000000E+03 0.  1.
<mgrwt>
<rscale>  2 0.23632736E+03</rscale>
<asrwt>0</asrwt>
<pdfrwt beam="1">  1        2 0.23629419E+00 0.23632736E+03</pdfrwt>
<pdfrwt beam="2">  1       -2 0.15161032E-01 0.23632736E+03</pdfrwt>
<totfact> 0.44342271E+02</totfact>
</mgrwt>
</event>
<event>
 4    1  0.3761914E-001  0.1785332E+03  0.7546771E-02  0.1169230E+00
          1   -1    0    0  502    0  0.00000000000E+00  0.00000000000E+00  0.21118514254E+03  0.21118514254E+03  0.00000000000E+00 0.  1.
         -1   -1    0    0    0  501 -0.00000000000E+00 -0.00000000000E+00 -0.15170755002E+03  0.15170755002E+03  0.00000000000E+00 0. -1.
          6    1    1    2  502    0 -0.43725905802E+02 -0.19446289792E+02  0.42731179977E+02  0.18357577936E+03  0.17200000000E+03 0.  1.
         -6    1    1    2    0  501  0.43725905802E+02  0.19446289792E+02  0.16746412546E+02  0.17931691320E+03  0.17200000000E+03 0.  1.
<mgrwt>
<rscale>  2 0.17853323E+03</rscale>
<asrwt>0</asrwt>
<pdfrwt beam="1">  1        1 0.52796285E-01 0.17853323E+03</pdfrwt>
<pdfrwt beam="2">  1       -1 0.37926888E-01 0.17853323E+03</pdfrwt>
<totfact> 0.50502476E+02</totfact>
</mgrwt>
</event>
<event>
 4    1  0.3761914E-001  0.2623875E+03  0.7546771E-02  0.1105717E+00
          1   -1    0    0  502    0  0.00000000000E+00  0.00000000000E+00  0.20447365687E+03  0.20447365687E+03  0.00000000000E+00 0. -1.
         -1   -1    0    0    0  501 -0.00000000000E+00 -0.00000000000E+00 -0.33717004155E+03  0.33717004155E+03  0.00000000000E+00 0.  1.
          6    1    1    2  502    0  0.16061829206E+03  0.11603872384E+03 -0.76410348135E+02  0.27328695995E+03  0.17200000000E+03 0. -1.
         -6    1    1    2    0  501 -0.16061829206E+03 -0.11603872384E+03 -0.56286036540E+02  0.26835673847E+03  0.17200000000E+03 0. -1.
<mgrwt>
<rscale>  2 0.26238754E+03</rscale>
<asrwt>0</asrwt>
<pdfrwt beam="1">  1        1 0.51118415E-01 0.26238754E+03</pdfrwt>
<pdfrwt beam="2">  1       -1 0.84292510E-01 0.26238754E+03</pdfrwt>
<totfact> 0.11374342E+02</totfact>
</mgrwt>
</event>
<event>
 4    1  0.3761914E-001  0.1818885E+03  0.7546771E-02  0.1165988E+00
         -1   -1    0    0    0  501 -0.00000000000E+00  0.00000000000E+00  0.29123277914E+02  0.29123277914E+02  0.00000000000E+00 0.  1.
          1   -1    0    0  502    0  0.00000000000E+00 -0.00000000000E+00 -0.21937798342E+04  0.21937798342E+04  0.00000000000E+00 0. -1.
          6    1    1    2  502    0 -0.18207619973E+02  0.56284242556E+02 -0.18541126175E+04  0.18630128910E+04  0.17200000000E+03 0. -1.
         -6    1    1    2    0  501  0.18207619973E+02 -0.56284242556E+02 -0.31054393873E+03  0.35989022114E+03  0.17200000000E+03 0.  1.
<mgrwt>
<rscale>  2 0.18188852E+03</rscale>
<asrwt>0</asrwt>
<pdfrwt beam="1">  1        1 0.54844493E+00 0.18188852E+03</pdfrwt>
<pdfrwt beam="2">  1       -1 0.72808199E-02 0.18188852E+03</pdfrwt>
<totfact> 0.29200005E+01</totfact>
</mgrwt>
</event>
<event>
 4    1  0.3761914E-001  0.1931475E+03  0.7546771E-02  0.1155653E+00
         -1   -1    0    0    0  501 -0.00000000000E+00  0.00000000000E+00  0.12061362226E+03  0.12061362226E+03  0.00000000000E+00 0. -1.
          1   -1    0    0  502    0  0.00000000000E+00 -0.00000000000E+00 -0.36636609951E+03  0.36636609951E+03  0.00000000000E+00 0.  1.
          6    1    1    2  502    0 -0.12528326024E+02 -0.86977027305E+02 -0.26779862961E+02  0.19499518787E+03  0.17200000000E+03 0. -1.
         -6    1    1    2    0  501  0.12528326024E+02  0.86977027305E+02 -0.21897261429E+03  0.29198453390E+03  0.17200000000E+03 0.  1.
<mgrwt>
<rscale>  2 0.19314751E+03</rscale>
<asrwt>0</asrwt>
<pdfrwt beam="1">  1        1 0.91591524E-01 0.19314751E+03</pdfrwt>
<pdfrwt beam="2">  1       -1 0.30153406E-01 0.19314751E+03</pdfrwt>
<totfact> 0.36544514E+02</totfact>
</mgrwt>
</event>
<event>
 4    1  0.3761914E-001  0.1942209E+03  0.7546771E-02  0.1154708E+00
          2   -1    0    0  502    0  0.00000000000E+00  0.00000000000E+00  0.11395651807E+04  0.11395651807E+04  0.00000000000E+00 0.  1.
         -2   -1    0    0    0  501 -0.00000000000E+00 -0.00000000000E+00 -0.39313112865E+02  0.39313112865E+02  0.00000000000E+00 0. -1.
          6    1    1    2  502    0  0.82445137307E+02 -0.36613763486E+02  0.78441864795E+03  0.80810542851E+03  0.17200000000E+03 0.  1.
         -6    1    1    2    0  501 -0.82445137307E+02  0.36613763486E+02  0.31583341988E+03  0.37077286505E+03  0.17200000000E+03 0.  1.
<mgrwt>
<rscale>  2 0.19422093E+03</rscale>
<asrwt>0</asrwt>
<pdfrwt beam="1">  1        2 0.28489119E+00 0.19422093E+03</pdfrwt>
<pdfrwt beam="2">  1       -2 0.98282820E-02 0.19422093E+03</pdfrwt>
<totfact> 0.61558224E+02</totfact>
</mgrwt>
</event>
<event>
 4    1  0.3761914E-001  0.2066600E+03  0.7546771E-02  0.1144239E+00
         -1   -1    0    0    0  501 -0.00000000000E+00  0.00000000000E+00  0.86510584494E+02  0.86510584494E+02  0.00000000000E+00 0.  1.
          1   -1    0    0  502    0  0.00000000000E+00 -0.00000000000E+00 -0.92677734527E+03  0.92677734527E+03  0.00000000000E+00 0. -1.
          6    1    1    2  502    0  0.55799757856E+02 -0.10005363050E+03 -0.73788231652E+02  0.21943802105E+03  0.17200000000E+03 0.  1.
         -6    1    1    2    0  501 -0.55799757856E+02  0.10005363050E+03 -0.76647852912E+03  0.79384990871E+03  0.17200000000E+03 0. -1.
<mgrwt>
<rscale>  2 0.20665997E+03</rscale>
<asrwt>0</asrwt>
<pdfrwt beam="1">  1        1 0.23169434E+00 0.20665997E+03</pdfrwt>
<pdfrwt beam="2">  1       -1 0.21627646E-01 0.20665997E+03</pdfrwt>
<totfact> 0.12903655E+02</totfact>
</mgrwt>
</event>
<event>
 4    1  0.3761914E-001  0.1824263E+03  0.7546771E-02  0.1165475E+00
         -1   -1    0    0    0  501 -0.00000000000E+00  0.00000000000E+00  0.20682615946E+02  0.20682615946E+02  0.00000000000E+00 0.  1.
          1   -1    0    0  502    0  0.00000000000E+00 -0.00000000000E+00 -0.17026157018E+04  0.17026157018E+04  0.00000000000E+00 0. -1.
          6    1    1    2  502    0  0.44019480297E+02 -0.41924241885E+02 -0.63897591526E+03  0.66450701801E+03  0.17200000000E+03 0.  1.
         -6    1    1    2    0  501 -0.44019480297E+02  0.41924241885E+02 -0.10429571706E+04  0.10587912998E+04  0.17200000000E+03 0. -1.
<mgrwt>
<rscale>  2 0.18242630E+03</rscale>
<asrwt>0</asrwt>
<pdfrwt beam="1">  1        1 0.42565386E+00 0.18242630E+03</pdfrwt>
<pdfrwt beam="2">  1       -1 0.51706547E-02 0.18242630E+03</pdfrwt>
<totfact> 0.18037735E+02</totfact>
</mgrwt>
</event>
<event>
 4    1  0.3761914E-001  0.2302826E+03  0.7546771E-02  0.1126441E+00
         -1   -1    0    0    0  501 -0.00000000000E+00  0.00000000000E+00  0.17089857230E+03  0.17089857230E+03  0.00000000000E+00 0.  1.
          1   -1    0    0  502    0  0.00000000000E+00 -0.00000000000E+00 -0.34277360702E+03  0.34277360702E+03  0.00000000000E+00 0. -1.
          6    1    1    2  502    0  0.11807987368E+03 -0.97484529976E+02 -0.68865243453E+01  0.23038557761E+03  0.17200000000E+03 0.  1.
         -6    1    1    2    0  501 -0.11807987368E+03  0.97484529976E+02 -0.16498851037E+03  0.28328660171E+03  0.17200000000E+03 0. -1.
<mgrwt>
<rscale>  2 0.23028263E+03</rscale>
<asrwt>0</asrwt>
<pdfrwt beam="1">  1        1 0.85693401E-01 0.23028263E+03</pdfrwt>
<pdfrwt beam="2">  1       -1 0.42724643E-01 0.23028263E+03</pdfrwt>
<totfact> 0.21707986E+02</totfact>
</mgrwt>
</event>
<event>
 4    1  0.3761914E-001  0.1779915E+03  0.7546771E-02  0.1169761E+00
          2   -1    0    0  502    0  0.00000000000E+00  0.00000000000E+00  0.11302442719E+04  0.11302442719E+04  0.00000000000E+00 0.  1.
         -2   -1    0    0    0  501 -0.00000000000E+00 -0.00000000000E+00 -0.42879419523E+02  0.42879419523E+02  0.00000000000E+00 0. -1.
          6    1    1    2  502    0 -0.41544712759E+02 -0.19261912471E+02  0.19850608028E+03  0.26661891969E+03  0.17200000000E+03 0. -1.
         -6    1    1    2    0  501  0.41544712759E+02  0.19261912471E+02  0.88885877206E+03  0.90650477169E+03  0.17200000000E+03 0.  1.
<mgrwt>
<rscale>  2 0.17799153E+03</rscale>
<asrwt>0</asrwt>
<pdfrwt beam="1">  1        2 0.28256097E+00 0.17799153E+03</pdfrwt>
<pdfrwt beam="2">  1       -2 0.10719859E-01 0.17799153E+03</pdfrwt>
<totfact> 0.54800477E+02</totfact>
</mgrwt>
</event>
<event>
 4    1  0.3761914E-001  0.2784555E+03  0.7546771E-02  0.1096536E+00
          1   -1    0    0  502    0  0.00000000000E+00  0.00000000000E+00  0.11180851882E+03  0.11180851882E+03  0.00000000000E+00 0.  1.
         -1   -1    0    0    0  501 -0.00000000000E+00 -0.00000000000E+00 -0.70988999120E+03  0.70988999120E+03  0.00000000000E+00 0. -1.
          6    1    1    2  502    0 -0.17337506289E+03  0.13377052957E+03 -0.23658353557E+03  0.36538915736E+03  0.17200000000E+03 0. -1.
         -6    1    1    2    0  501  0.17337506289E+03 -0.13377052957E+03 -0.36149793681E+03  0.45630935266E+03  0.17200000000E+03 0.  1.
<mgrwt>
<rscale>  2 0.27845550E+03</rscale>
<asrwt>0</asrwt>
<pdfrwt beam="1">  1        1 0.27952130E-01 0.27845550E+03</pdfrwt>
<pdfrwt beam="2">  1       -1 0.17747249E+00 0.27845550E+03</pdfrwt>
<totfact> 0.39745784E+01</totfact>
</mgrwt>
</event>
<event>
 4    1  0.3761914E-001  0.1848303E+03  0.7546771E-02  0.1163208E+00
          2   -1    0    0  502    0  0.00000000000E+00  0.00000000000E+00  0.17886064218E+04  0.17886064218E+04  0.00000000000E+00 0. -1.
         -2   -1    0    0    0  501 -0.00000000000E+00 -0.00000000000E+00 -0.19181771282E+02  0.19181771282E+02  0.00000000000E+00 0.  1.
          6    1    1    2  502    0  0.66780205244E+02 -0.10892219165E+02  0.82566627394E+03  0.84610107680E+03  0.17200000000E+03 0.  1.
         -6    1    1    2    0  501 -0.66780205244E+02  0.10892219165E+02  0.94375837658E+03  0.96168711628E+03  0.17200000000E+03 0.  1.
<mgrwt>
<rscale>  2 0.18483029E+03</rscale>
<asrwt>0</asrwt>
<pdfrwt beam="1">  1        2 0.44715104E+00 0.18483029E+03</pdfrwt>
<pdfrwt beam="2">  1       -2 0.47954489E-02 0.18483029E+03</pdfrwt>
<totfact> 0.50573531E+02</totfact>
</mgrwt>
</event>
<event>
 4    1  0.3761914E-001  0.1909023E+03  0.7546771E-02  0.1157650E+00
          2   -1    0    0  502    0  0.00000000000E+00  0.00000000000E+00  0.13859481303E+04  0.13859481303E+04  0.00000000000E+00 0.  1.
         -2   -1    0    0    0  501 -0.00000000000E+00 -0.00000000000E+00 -0.42799637948E+02  0.42799637948E+02  0.00000000000E+00 0. -1.
          6    1    1    2  502    0  0.97623575333E+00 -0.82817402240E+02  0.11151899563E+04  0.11314116464E+04  0.17200000000E+03 0.  1.
         -6    1    1    2    0  501 -0.97623575333E+00  0.82817402240E+02  0.22795853605E+03  0.29733612177E+03  0.17200000000E+03 0.  1.
<mgrwt>
<rscale>  2 0.19090227E+03</rscale>
<asrwt>0</asrwt>
<pdfrwt beam="1">  1        2 0.34648688E+00 0.19090227E+03</pdfrwt>
<pdfrwt beam="2">  1       -2 0.10699914E-01 0.19090227E+03</pdfrwt>
<totfact> 0.33292621E+02</totfact>
</mgrwt>
</event>
<event>
 4    1  0.3761914E-001  0.2110531E+03  0.7546771E-02  0.1140735E+00
         -3   -1    0    0    0  501 -0.00000000000E+00  0.00000000000E+00  0.67515286273E+03  0.67515286273E+03  0.00000000000E+00 0. -1.
          3   -1    0    0  502    0  0.00000000000E+00 -0.00000000000E+00 -0.68055388446E+02  0.68055388446E+02  0.00000000000E+00 0.  1.
          6    1    1    2  502    0 -0.56547462325E+02  0.10845185081E+03  0.36851518500E+03  0.42467265160E+03  0.17200000000E+03 0. -1.
         -6    1    1    2    0  501  0.56547462325E+02 -0.10845185081E+03  0.23858228929E+03  0.31853559958E+03  0.17200000000E+03 0.  1.
<mgrwt>
<rscale>  2 0.21105312E+03</rscale>
<asrwt>0</asrwt>
<pdfrwt beam="1">  1        3 0.17013849E-01 0.21105312E+03</pdfrwt>
<pdfrwt beam="2">  1       -3 0.16878820E+00 0.21105312E+03</pdfrwt>
<totfact> 0.18485317E+01</totfact>
</mgrwt>
</event>
<event>
 4    1  0.3761914E-001  0.1948731E+03  0.7546771E-02  0.1154138E+00
          2   -1    0    0  502    0  0.00000000000E+00  0.00000000000E+00  0.16946521165E+04  0.16946521165E+04  0.00000000000E+00 0.  1.
         -2   -1    0    0    0  501 -0.00000000000E+00 -0.00000000000E+00 -0.22426362573E+02  0.22426362573E+02  0.00000000000E+00 0. -1.
          6    1    1    2  502    0 -0.71415455599E+02  0.57370453015E+02  0.81225567480E+03  0.83530522410E+03  0.17200000000E+03 0. -1.
         -6    1    1    2    0  501  0.71415455599E+02 -0.57370453015E+02  0.85997007915E+03  0.88177325499E+03  0.17200000000E+03 0. -1.
<mgrwt>
<rscale>  2 0.19487313E+03</rscale>
<asrwt>0</asrwt>
<pdfrwt beam="1">  1        2 0.42366260E+00 0.19487313E+03</pdfrwt>
<pdfrwt beam="2">  1       -2 0.56065964E-02 0.19487313E+03</pdfrwt>
<totfact> 0.48558270E+02</totfact>
</mgrwt>
</event>
<event>
 4    1  0.3761914E-001  0.1811226E+03  0.7546771E-02  0.1166721E+00
         -1   -1    0    0    0  501 -0.00000000000E+00  0.00000000000E+00  0.52213632355E+02  0.52213632355E+02  0.00000000000E+00 0. -1.
          1   -1    0    0  502    0  0.00000000000E+00 -0.00000000000E+00 -0.79164999620E+03  0.79164999620E+03  0.00000000000E+00 0.  1.
          6    1    1    2  502    0  0.53307903529E+02  0.19485139524E+02 -0.56138457642E+03  0.58987968763E+03  0.17200000000E+03 0.  1.
         -6    1    1    2    0  501 -0.53307903529E+02 -0.19485139524E+02 -0.17805178743E+03  0.25398394092E+03  0.17200000000E+03 0. -1.
<mgrwt>
<rscale>  2 0.18112262E+03</rscale>
<asrwt>0</asrwt>
<pdfrwt beam="1">  1        1 0.19791250E+00 0.18112262E+03</pdfrwt>
<pdfrwt beam="2">  1       -1 0.13053408E-01 0.18112262E+03</pdfrwt>
<totfact> 0.40721677E+02</totfact>
</mgrwt>
</event>
<event>
 4    1  0.3761914E-001  0.2411721E+03  0.7546771E-02  0.1119014E+00
          2   -1    0    0  502    0  0.00000000000E+00  0.00000000000E+00  0.14318781322E+03  0.14318781322E+03  0.00000000000E+00 0. -1.
         -2   -1    0    0    0  501 -0.00000000000E+00 -0.00000000000E+00 -0.41523865916E+03  0.41523865916E+03  0.00000000000E+00 0.  1.
          6    1    1    2  502    0  0.11256125708E+03 -0.12613456192E+03 -0.17720280655E+03  0.29927378595E+03  0.17200000000E+03 0.  1.
         -6    1    1    2    0  501 -0.11256125708E+03  0.12613456192E+03 -0.94848039388E+02  0.25915268643E+03  0.17200000000E+03 0. -1.
<mgrwt>
<rscale>  2 0.24117206E+03</rscale>
<asrwt>0</asrwt>
<pdfrwt beam="1">  1        2 0.35796954E-01 0.24117206E+03</pdfrwt>
<pdfrwt beam="2">  1       -2 0.10380966E+00 0.24117206E+03</pdfrwt>
<totfact> 0.11448785E+02</totfact>
</mgrwt>
</event>
<event>
 4    1  0.3761914E-001  0.2285510E+03  0.7546771E-02  0.1127664E+00
          2   -1    0    0  502    0  0.00000000000E+00  0.00000000000E+00  0.12212770636E+03  0.12212770636E+03  0.00000000000E+00 0. -1.
         -2   -1    0    0    0  501 -0.00000000000E+00 -0.00000000000E+00 -0.43154246940E+03  0.43154246940E+03  0.00000000000E+00 0.  1.
          6    1    1    2  502    0 -0.87232964276E+02  0.12264577391E+03 -0.18078653015E+03  0.29140924041E+03  0.17200000000E+03 0.  1.
         -6    1    1    2    0  501  0.87232964276E+02 -0.12264577391E+03 -0.12862823289E+03  0.26226093535E+03  0.17200000000E+03 0.  1.
<mgrwt>
<rscale>  2 0.22855104E+03</rscale>
<asrwt>0</asrwt>
<pdfrwt beam="1">  1        2 0.30531927E-01 0.22855104E+03</pdfrwt>
<pdfrwt beam="2">  1       -2 0.10788562E+00 0.22855104E+03</pdfrwt>
<totfact> 0.12453030E+02</totfact>
</mgrwt>
</event>
<event>
 4    1  0.3761914E-001  0.1821021E+03  0.7546771E-02  0.1165784E+00
         -2   -1    0    0    0  501 -0.00000000000E+00  0.00000000000E+00  0.70942583656E+02  0.70942583656E+02  0.00000000000E+00 0.  1.
          2   -1    0    0  502    0  0.00000000000E+00 -0.00000000000E+00 -0.51891508869E+03  0.51891508869E+03  0.00000000000E+00 0. -1.
          6    1    1    2  502    0 -0.47884911478E+01  0.59617409281E+02 -0.13109353198E+03  0.22438065706E+03  0.17200000000E+03 0.  1.
         -6    1    1    2    0  501  0.47884911478E+01 -0.59617409281E+02 -0.31687897305E+03  0.36547701528E+03  0.17200000000E+03 0. -1.
<mgrwt>
<rscale>  2 0.18210207E+03</rscale>
<asrwt>0</asrwt>
<pdfrwt beam="1">  1        2 0.12972877E+00 0.18210207E+03</pdfrwt>
<pdfrwt beam="2">  1       -2 0.17735646E-01 0.18210207E+03</pdfrwt>
<totfact> 0.86007659E+02</totfact>
</mgrwt>
</event>
<event>
 4    1  0.3761914E-001  0.1954209E+03  0.7546771E-02  0.1153661E+00
         -1   -1    0    0    0  501 -0.00000000000E+00  0.00000000000E+00  0.70659779104E+02  0.70659779104E+02  0.00000000000E+00 0. -1.
          1   -1    0    0  502    0  0.00000000000E+00 -0.00000000000E+00 -0.55487878481E+03  0.55487878481E+03  0.00000000000E+00 0.  1.
          6    1    1    2  502    0  0.68566831834E+02 -0.62481268822E+02 -0.19170431116E+03  0.27375146082E+03  0.17200000000E+03 0. -1.
         -6    1    1    2    0  501 -0.68566831834E+02  0.62481268822E+02 -0.29251469455E+03  0.35178710310E+03  0.17200000000E+03 0. -1.
<mgrwt>
<rscale>  2 0.19542088E+03</rscale>
<asrwt>0</asrwt>
<pdfrwt beam="1">  1        1 0.13871970E+00 0.19542088E+03</pdfrwt>
<pdfrwt beam="2">  1       -1 0.17664945E-01 0.19542088E+03</pdfrwt>
<totfact> 0.47618679E+02</totfact>
</mgrwt>
</event>
<event>
 4    1  0.3761914E-001  0.1733703E+03  0.7546771E-02  0.1174378E+00
          1   -1    0    0  502    0  0.00000000000E+00  0.00000000000E+00  0.69652739175E+02  0.69652739175E+02  0.00000000000E+00 0.  1.
         -1   -1    0    0    0  501 -0.00000000000E+00 -0.00000000000E+00 -0.55258317053E+03  0.55258317053E+03  0.00000000000E+00 0. -1.
          6    1    1    2  502    0  0.17787921911E+02  0.12523505483E+02 -0.95847475907E+02  0.19810095152E+03  0.17200000000E+03 0.  1.
         -6    1    1    2    0  501 -0.17787921911E+02 -0.12523505483E+02 -0.38708295545E+03  0.42413495818E+03  0.17200000000E+03 0. -1.
<mgrwt>
<rscale>  2 0.17337026E+03</rscale>
<asrwt>0</asrwt>
<pdfrwt beam="1">  1        1 0.17413185E-01 0.17337026E+03</pdfrwt>
<pdfrwt beam="2">  1       -1 0.13814579E+00 0.17337026E+03</pdfrwt>
<totfact> 0.14557265E+02</totfact>
</mgrwt>
</event>
<event>
 4    1  0.3761914E-001  0.1724730E+03  0.7546771E-02  0.1175293E+00
         -2   -1    0    0    0  501 -0.00000000000E+00  0.00000000000E+00  0.26536590211E+03  0.26536590211E+03  0.00000000000E+00 0.  1.
          2   -1    0    0  502    0  0.00000000000E+00 -0.00000000000E+00 -0.27927659597E+03  0.27927659597E+03  0.00000000000E+00 0. -1.
          6    1    1    2  502    0  0.40922727688E+01 -0.12091041200E+02 -0.21765063614E+03  0.27770260962E+03  0.17200000000E+03 0. -1.
         -6    1    1    2    0  501 -0.40922727688E+01  0.12091041200E+02  0.20373994229E+03  0.26693988847E+03  0.17200000000E+03 0.  1.
<mgrwt>
<rscale>  2 0.17247301E+03</rscale>
<asrwt>0</asrwt>
<pdfrwt beam="1">  1        2 0.69819149E-01 0.17247301E+03</pdfrwt>
<pdfrwt beam="2">  1       -2 0.66341476E-01 0.17247301E+03</pdfrwt>
<totfact> 0.15177639E+02</totfact>
</mgrwt>
</event>
<event>
 4    1  0.3761914E-001  0.1849256E+03  0.7546771E-02  0.1163119E+00
          2   -1    0    0  502    0  0.00000000000E+00  0.00000000000E+00  0.13832293496E+04  0.13832293496E+04  0.00000000000E+00 0. -1.
         -2   -1    0    0    0  501 -0.00000000000E+00 -0.00000000000E+00 -0.28297234940E+02  0.28297234940E+02  0.00000000000E+00 0.  1.
          6    1    1    2  502    0 -0.38562865397E+02 -0.55914190834E+02  0.42663432698E+03  0.46498853779E+03  0.17200000000E+03 0.  1.
         -6    1    1    2    0  501  0.38562865397E+02  0.55914190834E+02  0.92829778772E+03  0.94653804679E+03  0.17200000000E+03 0. -1.
<mgrwt>
<rscale>  2 0.18492564E+03</rscale>
<asrwt>0</asrwt>
<pdfrwt beam="1">  1        2 0.34580711E+00 0.18492564E+03</pdfrwt>
<pdfrwt beam="2">  1       -2 0.70743134E-02 0.18492564E+03</pdfrwt>
<totfact> 0.64113147E+02</totfact>
</mgrwt>
</event>
<event>
 4    1  0.3761914E-001  0.1823103E+03  0.7546771E-02  0.1165586E+00
          2   -1    0    0  502    0  0.00000000000E+00  0.00000000000E+00  0.59190488992E+03  0.59190488992E+03  0.00000000000E+00 0.  1.
         -2   -1    0    0    0  501 -0.00000000000E+00 -0.00000000000E+00 -0.58101463928E+02  0.58101463928E+02  0.00000000000E+00 0. -1.
          6    1    1    2  502    0  0.27294864536E+02  0.53926155024E+02  0.20737977652E+03  0.27612209534E+03  0.17200000000E+03 0. -1.
         -6    1    1    2    0  501 -0.27294864536E+02 -0.53926155024E+02  0.32642364948E+03  0.37388425851E+03  0.17200000000E+03 0.  1.
<mgrwt>
<rscale>  2 0.18231028E+03</rscale>
<asrwt>0</asrwt>
<pdfrwt beam="1">  1        2 0.14797620E+00 0.18231028E+03</pdfrwt>
<pdfrwt beam="2">  1       -2 0.14525368E-01 0.18231028E+03</pdfrwt>
<totfact> 0.10059843E+03</totfact>
</mgrwt>
</event>
<event>
 4    1  0.3761914E-001  0.1923127E+03  0.7546771E-02  0.1156392E+00
         -1   -1    0    0    0  501 -0.00000000000E+00  0.00000000000E+00  0.23620817962E+02  0.23620817962E+02  0.00000000000E+00 0.  1.
          1   -1    0    0  502    0  0.00000000000E+00 -0.00000000000E+00 -0.17127177579E+04  0.17127177579E+04  0.00000000000E+00 0. -1.
          6    1    1    2  502    0 -0.65605250661E+02  0.55642734226E+02 -0.59022826336E+03  0.62076852824E+03  0.17200000000E+03 0.  1.
         -6    1    1    2    0  501  0.65605250661E+02 -0.55642734226E+02 -0.10988686766E+04  0.11155700476E+04  0.17200000000E+03 0.  1.
<mgrwt>
<rscale>  2 0.19231267E+03</rscale>
<asrwt>0</asrwt>
<pdfrwt beam="1">  1        1 0.42817940E+00 0.19231267E+03</pdfrwt>
<pdfrwt beam="2">  1       -1 0.59052050E-02 0.19231267E+03</pdfrwt>
<totfact> 0.14356382E+02</totfact>
</mgrwt>
</event>
<event>
 4    1  0.3761914E-001  0.1738385E+03  0.7546771E-02  0.1173903E+00
          1   -1    0    0  502    0  0.00000000000E+00  0.00000000000E+00  0.86715082738E+03  0.86715082738E+03  0.00000000000E+00 0.  1.
         -1   -1    0    0    0  501 -0.00000000000E+00 -0.00000000000E+00 -0.43671446556E+02  0.43671446556E+02  0.00000000000E+00 0. -1.
          6    1    1    2  502    0  0.19417298129E+01 -0.25140744895E+02  0.20705492511E+03  0.27035452535E+03  0.17200000000E+03 0. -1.
         -6    1    1    2    0  501 -0.19417298129E+01  0.25140744895E+02  0.61642445572E+03  0.64046774859E+03  0.17200000000E+03 0.  1.
<mgrwt>
<rscale>  2 0.17383851E+03</rscale>
<asrwt>0</asrwt>
<pdfrwt beam="1">  1        1 0.21678765E+00 0.17383851E+03</pdfrwt>
<pdfrwt beam="2">  1       -1 0.10917864E-01 0.17383851E+03</pdfrwt>
<totfact> 0.44543555E+02</totfact>
</mgrwt>
</event>
<event>
 4    1  0.3761914E-001  0.2447648E+03  0.7546771E-02  0.1116659E+00
         -2   -1    0    0    0  501 -0.00000000000E+00  0.00000000000E+00  0.12164808093E+04  0.12164808093E+04  0.00000000000E+00 0. -1.
          2   -1    0    0  502    0  0.00000000000E+00 -0.00000000000E+00 -0.79527324239E+02  0.79527324239E+02  0.00000000000E+00 0.  1.
          6    1    1    2  502    0 -0.12925528362E+03  0.11670000278E+03  0.16863395844E+03  0.29723262090E+03  0.17200000000E+03 0.  1.
         -6    1    1    2    0  501  0.12925528362E+03 -0.11670000278E+03  0.96831952659E+03  0.99877551260E+03  0.17200000000E+03 0. -1.
<mgrwt>
<rscale>  2 0.24476482E+03</rscale>
<asrwt>0</asrwt>
<pdfrwt beam="1">  1        2 0.19881835E-01 0.24476482E+03</pdfrwt>
<pdfrwt beam="2">  1       -2 0.30412014E+00 0.24476482E+03</pdfrwt>
<totfact> 0.97859023E+00</totfact>
</mgrwt>
</event>
<event>
 4    1  0.3761914E-001  0.2206137E+03  0.7546771E-02  0.1133426E+00
         -2   -1    0    0    0  501 -0.00000000000E+00  0.00000000000E+00  0.91077128997E+02  0.91077128997E+02  0.00000000000E+00 0. -1.
          2   -1    0    0  502    0  0.00000000000E+00 -0.00000000000E+00 -0.59355181971E+03  0.59355181971E+03  0.00000000000E+00 0.  1.
          6    1    1    2  502    0  0.67647840136E+02  0.12045819764E+03 -0.14316146884E+03  0.26299356230E+03  0.17200000000E+03 0. -1.
         -6    1    1    2    0  501 -0.67647840136E+02 -0.12045819764E+03 -0.35931322188E+03  0.42163538641E+03  0.17200000000E+03 0.  1.
<mgrwt>
<rscale>  2 0.22061371E+03</rscale>
<asrwt>0</asrwt>
<pdfrwt beam="1">  1        2 0.14838795E+00 0.22061371E+03</pdfrwt>
<pdfrwt beam="2">  1       -2 0.22769283E-01 0.22061371E+03</pdfrwt>
<totfact> 0.46817984E+02</totfact>
</mgrwt>
</event>
<event>
 4    1  0.3761914E-001  0.3270266E+03  0.7546771E-02  0.1072460E+00
         -2   -1    0    0    0  501 -0.00000000000E+00  0.00000000000E+00  0.78437888887E+02  0.78437888887E+02  0.00000000000E+00 0. -1.
          2   -1    0    0  502    0  0.00000000000E+00 -0.00000000000E+00 -0.13635294233E+04  0.13635294233E+04  0.00000000000E+00 0.  1.
          6    1    1    2  502    0 -0.18897443426E+03  0.20408589766E+03 -0.63715508900E+03  0.71617944529E+03  0.17200000000E+03 0.  1.
         -6    1    1    2    0  501  0.18897443426E+03 -0.20408589766E+03 -0.64793644538E+03  0.72578786685E+03  0.17200000000E+03 0. -1.
<mgrwt>
<rscale>  2 0.32702659E+03</rscale>
<asrwt>0</asrwt>
<pdfrwt beam="1">  1        2 0.34088236E+00 0.32702659E+03</pdfrwt>
<pdfrwt beam="2">  1       -2 0.19609472E-01 0.32702659E+03</pdfrwt>
<totfact> 0.12316364E+02</totfact>
</mgrwt>
</event>
<event>
 4    1  0.3761914E-001  0.1800747E+03  0.7546771E-02  0.1167731E+00
         -1   -1    0    0    0  501 -0.00000000000E+00  0.00000000000E+00  0.21318711320E+03  0.21318711320E+03  0.00000000000E+00 0. -1.
          1   -1    0    0  502    0  0.00000000000E+00 -0.00000000000E+00 -0.22217836161E+03  0.22217836161E+03  0.00000000000E+00 0.  1.
          6    1    1    2  502    0 -0.26662969600E+02 -0.46173218209E+02  0.11775435640E+03  0.21515800817E+03  0.17200000000E+03 0. -1.
         -6    1    1    2    0  501  0.26662969600E+02  0.46173218209E+02 -0.12674560480E+03  0.22020746664E+03  0.17200000000E+03 0.  1.
<mgrwt>
<rscale>  2 0.18007465E+03</rscale>
<asrwt>0</asrwt>
<pdfrwt beam="1">  1        1 0.55544590E-01 0.18007465E+03</pdfrwt>
<pdfrwt beam="2">  1       -1 0.53296778E-01 0.18007465E+03</pdfrwt>
<totfact> 0.25654157E+02</totfact>
</mgrwt>
</event>
<event>
 4    1  0.3761914E-001  0.1897535E+03  0.7546771E-02  0.1158684E+00
          3   -1    0    0  502    0  0.00000000000E+00  0.00000000000E+00  0.95129449580E+02  0.95129449580E+02  0.00000000000E+00 0. -1.
         -3   -1    0    0    0  501 -0.00000000000E+00 -0.00000000000E+00 -0.37850500749E+03  0.37850500749E+03  0.00000000000E+00 0.  1.
          6    1    1    2  502    0  0.77711990883E+02 -0.19576609133E+02 -0.14074070533E+03  0.23625059426E+03  0.17200000000E+03 0.  1.
         -6    1    1    2    0  501 -0.77711990883E+02  0.19576609133E+02 -0.14263485258E+03  0.23738386281E+03  0.17200000000E+03 0. -1.
<mgrwt>
<rscale>  2 0.18975352E+03</rscale>
<asrwt>0</asrwt>
<pdfrwt beam="1">  1        3 0.23782363E-01 0.18975352E+03</pdfrwt>
<pdfrwt beam="2">  1       -3 0.94626251E-01 0.18975352E+03</pdfrwt>
<totfact> 0.41077163E+01</totfact>
</mgrwt>
</event>
<event>
 4    1  0.3761914E-001  0.2047200E+03  0.7546771E-02  0.1145817E+00
          2   -1    0    0  502    0  0.00000000000E+00  0.00000000000E+00  0.42634724754E+03  0.42634724754E+03  0.00000000000E+00 0.  1.
         -2   -1    0    0    0  501 -0.00000000000E+00 -0.00000000000E+00 -0.10595017081E+03  0.10595017081E+03  0.00000000000E+00 0. -1.
          6    1    1    2  502    0  0.41501968111E+02  0.10297503840E+03  0.23171180752E+03  0.30919352133E+03  0.17200000000E+03 0. -1.
         -6    1    1    2    0  501 -0.41501968111E+02 -0.10297503840E+03  0.88685269200E+02  0.22310389702E+03  0.17200000000E+03 0.  1.
<mgrwt>
<rscale>  2 0.20471998E+03</rscale>
<asrwt>0</asrwt>
<pdfrwt beam="1">  1        2 0.10658681E+00 0.20471998E+03</pdfrwt>
<pdfrwt beam="2">  1       -2 0.26487544E-01 0.20471998E+03</pdfrwt>
<totfact> 0.54909630E+02</totfact>
</mgrwt>
</event>
<event>
 4    1  0.3761914E-001  0.1829819E+03  0.7546771E-02  0.1164948E+00
          1   -1    0    0  502    0  0.00000000000E+00  0.00000000000E+00  0.43643600390E+03  0.43643600390E+03  0.00000000000E+00 0.  1.
         -1   -1    0    0    0  501 -0.00000000000E+00 -0.00000000000E+00 -0.14457103968E+03  0.14457103968E+03  0.00000000000E+00 0. -1.
          6    1    1    2  502    0  0.61703719348E+02 -0.95409195940E+01 -0.53087314374E+02  0.19052727121E+03  0.17200000000E+03 0. -1.
         -6    1    1    2    0  501 -0.61703719348E+02  0.95409195940E+01  0.34495227859E+03  0.39047977237E+03  0.17200000000E+03 0.  1.
<mgrwt>
<rscale>  2 0.18298191E+03</rscale>
<asrwt>0</asrwt>
<pdfrwt beam="1">  1        1 0.10910900E+00 0.18298191E+03</pdfrwt>
<pdfrwt beam="2">  1       -1 0.36142761E-01 0.18298191E+03</pdfrwt>
<totfact> 0.20949523E+02</totfact>
</mgrwt>
</event>
<event>
 4    1  0.3761914E-001  0.1757819E+03  0.7546771E-02  0.1171949E+00
         -1   -1    0    0    0  501 -0.00000000000E+00  0.00000000000E+00  0.17774175093E+02  0.17774175093E+02  0.00000000000E+00 0. -1.
          1   -1    0    0  502    0  0.00000000000E+00 -0.00000000000E+00 -0.17463545721E+04  0.17463545721E+04  0.00000000000E+00 0.  1.
          6    1    1    2  502    0 -0.36258645479E+02  0.76732747042E+00 -0.80489675450E+03  0.82386774640E+03  0.17200000000E+03 0. -1.
         -6    1    1    2    0  501  0.36258645479E+02 -0.76732747042E+00 -0.92368364248E+03  0.94026100076E+03  0.17200000000E+03 0.  1.
<mgrwt>
<rscale>  2 0.17578191E+03</rscale>
<asrwt>0</asrwt>
<pdfrwt beam="1">  1        1 0.43658874E+00 0.17578191E+03</pdfrwt>
<pdfrwt beam="2">  1       -1 0.44435427E-02 0.17578191E+03</pdfrwt>
<totfact> 0.20281575E+02</totfact>
</mgrwt>
</event>
<event>
 4    1  0.3761914E-001  0.2909187E+03  0.7546771E-02  0.1089870E+00
          2   -1    0    0  502    0  0.00000000000E+00  0.00000000000E+00  0.74190922131E+03  0.74190922131E+03  0.00000000000E+00 0.  1.
         -2   -1    0    0    0  501 -0.00000000000E+00 -0.00000000000E+00 -0.11468354465E+03  0.11468354465E+03  0.00000000000E+00 0. -1.
          6    1    1    2  502    0  0.22902453691E+03 -0.50965430607E+02  0.34479730793E+03  0.45113068748E+03  0.17200000000E+03 0. -1.
         -6    1    1    2    0  501 -0.22902453691E+03  0.50965430607E+02  0.28242836872E+03  0.40546207848E+03  0.17200000000E+03 0.  1.
<mgrwt>
<rscale>  2 0.29091874E+03</rscale>
<asrwt>0</asrwt>
<pdfrwt beam="1">  1        2 0.18547729E+00 0.29091874E+03</pdfrwt>
<pdfrwt beam="2">  1       -2 0.28670888E-01 0.29091874E+03</pdfrwt>
<totfact> 0.22165965E+02</totfact>
</mgrwt>
</event>
<event>
 4    1  0.3761914E-001  0.2448448E+03  0.7546771E-02  0.1116607E+00
          1   -1    0    0  502    0  0.00000000000E+00  0.00000000000E+00  0.10584643784E+04  0.10584643784E+04  0.00000000000E+00 0. -1.
         -1   -1    0    0    0  501 -0.00000000000E+00 -0.00000000000E+00 -0.57022544209E+02  0.57022544209E+02  0.00000000000E+00 0.  1.
          6    1    1    2  502    0  0.10244248422E+03 -0.14096287662E+03  0.45490147316E+03  0.51660850307E+03  0.17200000000E+03 0.  1.
         -6    1    1    2    0  501 -0.10244248422E+03  0.14096287662E+03  0.54654036101E+03  0.59887841952E+03  0.17200000000E+03 0. -1.
<mgrwt>
<rscale>  2 0.24484484E+03</rscale>
<asrwt>0</asrwt>
<pdfrwt beam="1">  1        1 0.26461603E+00 0.24484484E+03</pdfrwt>
<pdfrwt beam="2">  1       -1 0.14255639E-01 0.24484484E+03</pdfrwt>
<totfact> 0.18083908E+02</totfact>
</mgrwt>
</event>
<event>
 4    1  0.3761914E-001  0.1953288E+03  0.7546771E-02  0.1153741E+00
         -3   -1    0    0    0  501 -0.00000000000E+00  0.00000000000E+00  0.69784161199E+02  0.69784161199E+02  0.00000000000E+00 0. -1.
          3   -1    0    0  502    0  0.00000000000E+00 -0.00000000000E+00 -0.72871047254E+03  0.72871047254E+03  0.00000000000E+00 0.  1.
          6    1    1    2  502    0 -0.26227364958E+02  0.88777588965E+02 -0.52897688296E+03  0.56388817834E+03  0.17200000000E+03 0.  1.
         -6    1    1    2    0  501  0.26227364958E+02 -0.88777588965E+02 -0.12994942839E+03  0.23460645539E+03  0.17200000000E+03 0. -1.
<mgrwt>
<rscale>  2 0.19532879E+03</rscale>
<asrwt>0</asrwt>
<pdfrwt beam="1">  1        3 0.18217762E+00 0.19532879E+03</pdfrwt>
<pdfrwt beam="2">  1       -3 0.17446041E-01 0.19532879E+03</pdfrwt>
<totfact> 0.14480913E+01</totfact>
</mgrwt>
</event>
<event>
 4    1  0.3761914E-001  0.1969275E+03  0.7546771E-02  0.1152357E+00
         -2   -1    0    0    0  501 -0.00000000000E+00  0.00000000000E+00  0.55817201048E+02  0.55817201048E+02  0.00000000000E+00 0.  1.
          2   -1    0    0  502    0  0.00000000000E+00 -0.00000000000E+00 -0.75469514714E+03  0.75469514714E+03  0.00000000000E+00 0. -1.
          6    1    1    2  502    0 -0.95426750279E+02  0.94961161382E+01 -0.46362878905E+03  0.50371826940E+03  0.17200000000E+03 0.  1.
         -6    1    1    2    0  501  0.95426750279E+02 -0.94961161382E+01 -0.23524915703E+03  0.30679407878E+03  0.17200000000E+03 0.  1.
<mgrwt>
<rscale>  2 0.19692750E+03</rscale>
<asrwt>0</asrwt>
<pdfrwt beam="1">  1        2 0.18867378E+00 0.19692750E+03</pdfrwt>
<pdfrwt beam="2">  1       -2 0.13954300E-01 0.19692750E+03</pdfrwt>
<totfact> 0.75209514E+02</totfact>
</mgrwt>
</event>
<event>
 4    1  0.3761914E-001  0.1745543E+03  0.7546771E-02  0.1173180E+00
         -1   -1    0    0    0  501 -0.00000000000E+00  0.00000000000E+00  0.80534372629E+02  0.80534372629E+02  0.00000000000E+00 0.  1.
          1   -1    0    0  502    0  0.00000000000E+00 -0.00000000000E+00 -0.39669332200E+03  0.39669332200E+03  0.00000000000E+00 0. -1.
          6    1    1    2  502    0 -0.12245237409E+02  0.27115598564E+02 -0.20940707461E+03  0.27261790921E+03  0.17200000000E+03 0. -1.
         -6    1    1    2    0  501  0.12245237409E+02 -0.27115598564E+02 -0.10675187476E+03  0.20460978542E+03  0.17200000000E+03 0.  1.
<mgrwt>
<rscale>  2 0.17455429E+03</rscale>
<asrwt>0</asrwt>
<pdfrwt beam="1">  1        1 0.99173329E-01 0.17455429E+03</pdfrwt>
<pdfrwt beam="2">  1       -1 0.20133593E-01 0.17455429E+03</pdfrwt>
<totfact> 0.63901839E+02</totfact>
</mgrwt>
</event>
<event>
 4    1  0.3761914E-001  0.2001589E+03  0.7546771E-02  0.1149605E+00
          1   -1    0    0  502    0  0.00000000000E+00  0.00000000000E+00  0.40999756233E+03  0.40999756233E+03  0.00000000000E+00 0. -1.
         -1   -1    0    0    0  501 -0.00000000000E+00 -0.00000000000E+00 -0.17288836812E+03  0.17288836812E+03  0.00000000000E+00 0.  1.
          6    1    1    2  502    0 -0.85373581947E+02 -0.56488410249E+02 -0.73620860028E+02  0.21326889135E+03  0.17200000000E+03 0.  1.
         -6    1    1    2    0  501  0.85373581947E+02  0.56488410249E+02  0.31073005424E+03  0.36961703910E+03  0.17200000000E+03 0. -1.
<mgrwt>
<rscale>  2 0.20015891E+03</rscale>
<asrwt>0</asrwt>
<pdfrwt beam="1">  1        1 0.10249939E+00 0.20015891E+03</pdfrwt>
<pdfrwt beam="2">  1       -1 0.43222093E-01 0.20015891E+03</pdfrwt>
<totfact> 0.16659198E+02</totfact>
</mgrwt>
</event>
<event>
 4    1  0.3761914E-001  0.1876576E+03  0.7546771E-02  0.1160591E+00
          2   -1    0    0  502    0  0.00000000000E+00  0.00000000000E+00  0.16565161400E+04  0.16565161400E+04  0.00000000000E+00 0. -1.
         -2   -1    0    0    0  501 -0.00000000000E+00 -0.00000000000E+00 -0.22170553312E+02  0.22170553312E+02  0.00000000000E+00 0.  1.
          6    1    1    2  502    0 -0.74367989327E+02 -0.10038238272E+02  0.98739496186E+03  0.10050692388E+04  0.17200000000E+03 0.  1.
         -6    1    1    2    0  501  0.74367989327E+02  0.10038238272E+02  0.64695062480E+03  0.67361745449E+03  0.17200000000E+03 0.  1.
<mgrwt>
<rscale>  2 0.18765757E+03</rscale>
<asrwt>0</asrwt>
<pdfrwt beam="1">  1        2 0.41412862E+00 0.18765757E+03</pdfrwt>
<pdfrwt beam="2">  1       -2 0.55426439E-02 0.18765757E+03</pdfrwt>
<totfact> 0.53632990E+02</totfact>
</mgrwt>
</event>
<event>
 4    1  0.3761914E-001  0.1934187E+03  0.7546771E-02  0.1155414E+00
          1   -1    0    0  502    0  0.00000000000E+00  0.00000000000E+00  0.18814101613E+03  0.18814101613E+03  0.00000000000E+00 0.  1.
         -1   -1    0    0    0  501 -0.00000000000E+00 -0.00000000000E+00 -0.20635033935E+03  0.20635033935E+03  0.00000000000E+00 0. -1.
          6    1    1    2  502    0 -0.82375958405E+02 -0.32264380363E+02 -0.46723659966E+02  0.19898213278E+03  0.17200000000E+03 0.  1.
         -6    1    1    2    0  501  0.82375958405E+02  0.32264380363E+02  0.28514336740E+02  0.19550922271E+03  0.17200000000E+03 0. -1.
<mgrwt>
<rscale>  2 0.19341869E+03</rscale>
<asrwt>0</asrwt>
<pdfrwt beam="1">  1        1 0.47035254E-01 0.19341869E+03</pdfrwt>
<pdfrwt beam="2">  1       -1 0.51587585E-01 0.19341869E+03</pdfrwt>
<totfact> 0.33545138E+02</totfact>
</mgrwt>
</event>
<event>
 4    1  0.3761914E-001  0.2114536E+03  0.7546771E-02  0.1140420E+00
          1   -1    0    0  502    0  0.00000000000E+00  0.00000000000E+00  0.10010875889E+04  0.10010875889E+04  0.00000000000E+00 0. -1.
         -1   -1    0    0    0  501 -0.00000000000E+00 -0.00000000000E+00 -0.49617608789E+02  0.49617608789E+02  0.00000000000E+00 0.  1.
          6    1    1    2  502    0 -0.14482280031E+02 -0.12214282179E+03  0.30974093280E+03  0.37503606600E+03  0.17200000000E+03 0.  1.
         -6    1    1    2    0  501  0.14482280031E+02  0.12214282179E+03  0.64172904727E+03  0.67566913165E+03  0.17200000000E+03 0. -1.
<mgrwt>
<rscale>  2 0.21145355E+03</rscale>
<asrwt>0</asrwt>
<pdfrwt beam="1">  1        1 0.25027183E+00 0.21145355E+03</pdfrwt>
<pdfrwt beam="2">  1       -1 0.12404405E-01 0.21145355E+03</pdfrwt>
<totfact> 0.26091818E+02</totfact>
</mgrwt>
</event>
<event>
 4    1  0.3761914E-001  0.1905085E+03  0.7546771E-02  0.1158004E+00
          2   -1    0    0  502    0  0.00000000000E+00  0.00000000000E+00  0.34825029436E+03  0.34825029436E+03  0.00000000000E+00 0. -1.
         -2   -1    0    0    0  501 -0.00000000000E+00 -0.00000000000E+00 -0.11182381718E+03  0.11182381718E+03  0.00000000000E+00 0.  1.
          6    1    1    2  502    0 -0.81159657403E+02  0.11072430672E+02  0.17821186828E+03  0.26086962013E+03  0.17200000000E+03 0. -1.
         -6    1    1    2    0  501  0.81159657403E+02 -0.11072430672E+02  0.58214608901E+02  0.19920449142E+03  0.17200000000E+03 0. -1.
<mgrwt>
<rscale>  2 0.19050850E+03</rscale>
<asrwt>0</asrwt>
<pdfrwt beam="1">  1        2 0.87062571E-01 0.19050850E+03</pdfrwt>
<pdfrwt beam="2">  1       -2 0.27955955E-01 0.19050850E+03</pdfrwt>
<totfact> 0.63200652E+02</totfact>
</mgrwt>
</event>
<event>
 4    1  0.3761914E-001  0.3600843E+03  0.7546771E-02  0.1058550E+00
          2   -1    0    0  502    0  0.00000000000E+00  0.00000000000E+00  0.47729512095E+03  0.47729512095E+03  0.00000000000E+00 0.  1.
         -2   -1    0    0    0  501 -0.00000000000E+00 -0.00000000000E+00 -0.27209217864E+03  0.27209217864E+03  0.00000000000E+00 0. -1.
          6    1    1    2  502    0 -0.45664473099E+02 -0.31303589372E+03  0.87622194889E+02  0.37059191019E+03  0.17200000000E+03 0.  1.
         -6    1    1    2    0  501  0.45664473099E+02  0.31303589372E+03  0.11758074742E+03  0.37879538939E+03  0.17200000000E+03 0. -1.
<mgrwt>
<rscale>  2 0.36008432E+03</rscale>
<asrwt>0</asrwt>
<pdfrwt beam="1">  1        2 0.11932378E+00 0.36008432E+03</pdfrwt>
<pdfrwt beam="2">  1       -2 0.68023045E-01 0.36008432E+03</pdfrwt>
<totfact> 0.74770975E+01</totfact>
</mgrwt>
</event>
<event>
 4    1  0.3761914E-001  0.1763828E+03  0.7546771E-02  0.1171350E+00
          2   -1    0    0  502    0  0.00000000000E+00  0.00000000000E+00  0.53317092461E+03  0.53317092461E+03  0.00000000000E+00 0. -1.
         -2   -1    0    0    0  501 -0.00000000000E+00 -0.00000000000E+00 -0.63954714079E+02  0.63954714079E+02  0.00000000000E+00 0.  1.
          6    1    1    2  502    0  0.14122204536E+02  0.36434430369E+02  0.14622922577E+03  0.22911545310E+03  0.17200000000E+03 0.  1.
         -6    1    1    2    0  501 -0.14122204536E+02 -0.36434430369E+02  0.32298698476E+03  0.36801018559E+03  0.17200000000E+03 0. -1.
<mgrwt>
<rscale>  2 0.17638283E+03</rscale>
<asrwt>0</asrwt>
<pdfrwt beam="1">  1        2 0.13329272E+00 0.17638283E+03</pdfrwt>
<pdfrwt beam="2">  1       -2 0.15988680E-01 0.17638283E+03</pdfrwt>
<totfact> 0.98717217E+02</totfact>
</mgrwt>
</event>
<event>
 4    1  0.3761914E-001  0.2058796E+03  0.7546771E-02  0.1144871E+00
          1   -1    0    0  502    0  0.00000000000E+00  0.00000000000E+00  0.16444643890E+03  0.16444643890E+03  0.00000000000E+00 0.  1.
         -1   -1    0    0    0  501 -0.00000000000E+00 -0.00000000000E+00 -0.31357635850E+03  0.31357635850E+03  0.00000000000E+00 0. -1.
          6    1    1    2  502    0 -0.10813715606E+03  0.33298420021E+02 -0.17541082578E+03  0.27047252559E+03  0.17200000000E+03 0. -1.
         -6    1    1    2    0  501  0.10813715606E+03 -0.33298420021E+02  0.26280906177E+02  0.20755027181E+03  0.17200000000E+03 0.  1.
<mgrwt>
<rscale>  2 0.20587965E+03</rscale>
<asrwt>0</asrwt>
<pdfrwt beam="1">  1        1 0.41111610E-01 0.20587965E+03</pdfrwt>
<pdfrwt beam="2">  1       -1 0.78394089E-01 0.20587965E+03</pdfrwt>
<totfact> 0.17552759E+02</totfact>
</mgrwt>
</event>
<event>
 4    1  0.3761914E-001  0.2255483E+03  0.7546771E-02  0.1129813E+00
         -2   -1    0    0    0  501 -0.00000000000E+00  0.00000000000E+00  0.85861661350E+02  0.85861661350E+02  0.00000000000E+00 0.  1.
          2   -1    0    0  502    0  0.00000000000E+00 -0.00000000000E+00 -0.14426473338E+04  0.14426473338E+04  0.00000000000E+00 0. -1.
          6    1    1    2  502    0  0.90602794351E+01 -0.14562269373E+03 -0.91703872543E+02  0.24347824920E+03  0.17200000000E+03 0.  1.
         -6    1    1    2    0  501 -0.90602794351E+01  0.14562269373E+03 -0.12650817999E+04  0.12850307460E+04  0.17200000000E+03 0. -1.
<mgrwt>
<rscale>  2 0.22554835E+03</rscale>
<asrwt>0</asrwt>
<pdfrwt beam="1">  1        2 0.36066184E+00 0.22554835E+03</pdfrwt>
<pdfrwt beam="2">  1       -2 0.21465415E-01 0.22554835E+03</pdfrwt>
<totfact> 0.92839314E+01</totfact>
</mgrwt>
</event>
<event>
 4    1  0.3761914E-001  0.1863159E+03  0.7546771E-02  0.1161827E+00
          1   -1    0    0  502    0  0.00000000000E+00  0.00000000000E+00  0.50681575501E+03  0.50681575501E+03  0.00000000000E+00 0. -1.
         -1   -1    0    0    0  501 -0.00000000000E+00 -0.00000000000E+00 -0.73670009360E+02  0.73670009360E+02  0.00000000000E+00 0.  1.
          6    1    1    2  502    0 -0.38025403013E+02 -0.60693448475E+02  0.29350917699E+03  0.34765106492E+03  0.17200000000E+03 0. -1.
         -6    1    1    2    0  501  0.38025403013E+02  0.60693448475E+02  0.13963656867E+03  0.23283469946E+03  0.17200000000E+03 0.  1.
<mgrwt>
<rscale>  2 0.18631593E+03</rscale>
<asrwt>0</asrwt>
<pdfrwt beam="1">  1        1 0.12670393E+00 0.18631593E+03</pdfrwt>
<pdfrwt beam="2">  1       -1 0.18417504E-01 0.18631593E+03</pdfrwt>
<totfact> 0.51435061E+02</totfact>
</mgrwt>
</event>
<event>
 4    1  0.3761914E-001  0.3660993E+03  0.7546771E-02  0.1056195E+00
          1   -1    0    0  502    0  0.00000000000E+00  0.00000000000E+00  0.28320557546E+03  0.28320557546E+03  0.00000000000E+00 0. -1.
         -1   -1    0    0    0  501 -0.00000000000E+00 -0.00000000000E+00 -0.51626539816E+03  0.51626539816E+03  0.00000000000E+00 0.  1.
          6    1    1    2  502    0 -0.31891887154E+03  0.52301626690E+02 -0.23190669601E+03  0.43336984486E+03  0.17200000000E+03 0.  1.
         -6    1    1    2    0  501  0.31891887154E+03 -0.52301626690E+02 -0.11531267001E+01  0.36610112876E+03  0.17200000000E+03 0. -1.
<mgrwt>
<rscale>  2 0.36609931E+03</rscale>
<asrwt>0</asrwt>
<pdfrwt beam="1">  1        1 0.70801394E-01 0.36609931E+03</pdfrwt>
<pdfrwt beam="2">  1       -1 0.12906635E+00 0.36609931E+03</pdfrwt>
<totfact> 0.27720799E+01</totfact>
</mgrwt>
</event>
<event>
 4    1  0.3761914E-001  0.2633135E+03  0.7546771E-02  0.1105169E+00
         -1   -1    0    0    0  501 -0.00000000000E+00  0.00000000000E+00  0.11394455270E+03  0.11394455270E+03  0.00000000000E+00 0. -1.
          1   -1    0    0  502    0  0.00000000000E+00 -0.00000000000E+00 -0.12758372638E+04  0.12758372638E+04  0.00000000000E+00 0.  1.
          6    1    1    2  502    0 -0.16256918052E+03 -0.11541780094E+03 -0.10835148445E+04  0.11150508623E+04  0.17200000000E+03 0.  1.
         -6    1    1    2    0  501  0.16256918052E+03  0.11541780094E+03 -0.78377866585E+02  0.27473095421E+03  0.17200000000E+03 0. -1.
<mgrwt>
<rscale>  2 0.26331352E+03</rscale>
<asrwt>0</asrwt>
<pdfrwt beam="1">  1        1 0.31895931E+00 0.26331352E+03</pdfrwt>
<pdfrwt beam="2">  1       -1 0.28486139E-01 0.26331352E+03</pdfrwt>
<totfact> 0.34221274E+01</totfact>
</mgrwt>
</event>
<event>
 4    1  0.3761914E-001  0.2182770E+03  0.7546771E-02  0.1135174E+00
          1   -1    0    0  502    0  0.00000000000E+00  0.00000000000E+00  0.41991655791E+03  0.41991655791E+03  0.00000000000E+00 0. -1.
         -1   -1    0    0    0  501 -0.00000000000E+00 -0.00000000000E+00 -0.11451645873E+03  0.11451645873E+03  0.00000000000E+00 0.  1.
          6    1    1    2  502    0  0.74591496626E+02  0.11178975885E+03  0.17833379893E+03  0.28186483532E+03  0.17200000000E+03 0.  1.
         -6    1    1    2    0  501 -0.74591496626E+02 -0.11178975885E+03  0.12706630025E+03  0.25256818131E+03  0.17200000000E+03 0.  1.
<mgrwt>
<rscale>  2 0.21827698E+03</rscale>
<asrwt>0</asrwt>
<pdfrwt beam="1">  1        1 0.10497914E+00 0.21827698E+03</pdfrwt>
<pdfrwt beam="2">  1       -1 0.28629116E-01 0.21827698E+03</pdfrwt>
<totfact> 0.32834781E+02</totfact>
</mgrwt>
</event>
<event>
 4    1  0.3761914E-001  0.1800691E+03  0.7546771E-02  0.1167736E+00
          2   -1    0    0  502    0  0.00000000000E+00  0.00000000000E+00  0.95716735312E+03  0.95716735312E+03  0.00000000000E+00 0. -1.
         -2   -1    0    0    0  501 -0.00000000000E+00 -0.00000000000E+00 -0.33880841222E+02  0.33880841222E+02  0.00000000000E+00 0.  1.
          6    1    1    2  502    0 -0.42407163427E+02 -0.32288145156E+02  0.45565040560E+03  0.48994100048E+03  0.17200000000E+03 0. -1.
         -6    1    1    2    0  501  0.42407163427E+02  0.32288145156E+02  0.46763610629E+03  0.50110719386E+03  0.17200000000E+03 0. -1.
<mgrwt>
<rscale>  2 0.18006913E+03</rscale>
<asrwt>0</asrwt>
<pdfrwt beam="1">  1        2 0.23929175E+00 0.18006913E+03</pdfrwt>
<pdfrwt beam="2">  1       -2 0.84702135E-02 0.18006913E+03</pdfrwt>
<totfact> 0.11113136E+03</totfact>
</mgrwt>
</event>
<event>
 4    1  0.3761914E-001  0.2052341E+03  0.7546771E-02  0.1145397E+00
         -2   -1    0    0    0  501 -0.00000000000E+00  0.00000000000E+00  0.51022111716E+02  0.51022111716E+02  0.00000000000E+00 0. -1.
          2   -1    0    0  502    0  0.00000000000E+00 -0.00000000000E+00 -0.95915692195E+03  0.95915692195E+03  0.00000000000E+00 0.  1.
          6    1    1    2  502    0  0.83049161836E+02  0.75099081507E+02 -0.64258269065E+03  0.67456174635E+03  0.17200000000E+03 0. -1.
         -6    1    1    2    0  501 -0.83049161836E+02 -0.75099081507E+02 -0.26555211958E+03  0.33561728731E+03  0.17200000000E+03 0. -1.
<mgrwt>
<rscale>  2 0.20523410E+03</rscale>
<asrwt>0</asrwt>
<pdfrwt beam="1">  1        2 0.23978924E+00 0.20523410E+03</pdfrwt>
<pdfrwt beam="2">  1       -2 0.12755528E-01 0.20523410E+03</pdfrwt>
<totfact> 0.57542587E+02</totfact>
</mgrwt>
</event>
<event>
 4    1  0.3761914E-001  0.1974863E+03  0.7546771E-02  0.1151877E+00
         -2   -1    0    0    0  501 -0.00000000000E+00  0.00000000000E+00  0.45047512689E+02  0.45047512689E+02  0.00000000000E+00 0.  1.
          2   -1    0    0  502    0  0.00000000000E+00 -0.00000000000E+00 -0.18355355438E+04  0.18355355438E+04  0.00000000000E+00 0. -1.
          6    1    1    2  502    0  0.58170800376E+02  0.77672340315E+02 -0.21178220456E+03  0.28957302470E+03  0.17200000000E+03 0.  1.
         -6    1    1    2    0  501 -0.58170800376E+02 -0.77672340315E+02 -0.15787058266E+04  0.15910100318E+04  0.17200000000E+03 0. -1.
<mgrwt>
<rscale>  2 0.19748629E+03</rscale>
<asrwt>0</asrwt>
<pdfrwt beam="1">  1        2 0.45888388E+00 0.19748629E+03</pdfrwt>
<pdfrwt beam="2">  1       -2 0.11261878E-01 0.19748629E+03</pdfrwt>
<totfact> 0.12091269E+02</totfact>
</mgrwt>
</event>
<event>
 4    1  0.3761914E-001  0.1741366E+03  0.7546771E-02  0.1173601E+00
         -1   -1    0    0    0  501 -0.00000000000E+00  0.00000000000E+00  0.86698687953E+02  0.86698687953E+02  0.00000000000E+00 0.  1.
          1   -1    0    0  502    0  0.00000000000E+00 -0.00000000000E+00 -0.35227196920E+03  0.35227196920E+03  0.00000000000E+00 0. -1.
          6    1    1    2  502    0  0.16999100785E+02  0.21227327485E+02 -0.15132781779E+03  0.23070257324E+03  0.17200000000E+03 0. -1.
         -6    1    1    2    0  501 -0.16999100785E+02 -0.21227327485E+02 -0.11424546346E+03  0.20826808392E+03  0.17200000000E+03 0.  1.
<mgrwt>
<rscale>  2 0.17413664E+03</rscale>
<asrwt>0</asrwt>
<pdfrwt beam="1">  1        1 0.88067991E-01 0.17413664E+03</pdfrwt>
<pdfrwt beam="2">  1       -1 0.21674672E-01 0.17413664E+03</pdfrwt>
<totfact> 0.66784093E+02</totfact>
</mgrwt>
</event>
<event>
 4    1  0.3761914E-001  0.1827989E+03  0.7546771E-02  0.1165121E+00
         -1   -1    0    0    0  501 -0.00000000000E+00  0.00000000000E+00  0.22123229689E+03  0.22123229689E+03  0.00000000000E+00 0. -1.
          1   -1    0    0  502    0  0.00000000000E+00 -0.00000000000E+00 -0.22499790094E+03  0.22499790094E+03  0.00000000000E+00 0.  1.
          6    1    1    2  502    0 -0.36471249161E+02  0.50012824186E+02 -0.12979891918E+03  0.22419454502E+03  0.17200000000E+03 0.  1.
         -6    1    1    2    0  501  0.36471249161E+02 -0.50012824186E+02  0.12603331512E+03  0.22203565281E+03  0.17200000000E+03 0. -1.
<mgrwt>
<rscale>  2 0.18279889E+03</rscale>
<asrwt>0</asrwt>
<pdfrwt beam="1">  1        1 0.56249475E-01 0.18279889E+03</pdfrwt>
<pdfrwt beam="2">  1       -1 0.55308074E-01 0.18279889E+03</pdfrwt>
<totfact> 0.23551409E+02</totfact>
</mgrwt>
</event>
<event>
 4    1  0.3761914E-001  0.3443983E+03  0.7546771E-02  0.1064938E+00
          1   -1    0    0  502    0  0.00000000000E+00  0.00000000000E+00  0.17509775856E+04  0.17509775856E+04  0.00000000000E+00 0. -1.
         -1   -1    0    0    0  501 -0.00000000000E+00 -0.00000000000E+00 -0.70564682406E+02  0.70564682406E+02  0.00000000000E+00 0.  1.
          6    1    1    2  502    0 -0.19577040367E+03 -0.22516693946E+03  0.65796584389E+03  0.74265015539E+03  0.17200000000E+03 0.  1.
         -6    1    1    2    0  501  0.19577040367E+03  0.22516693946E+03  0.10224470593E+04  0.10788921126E+04  0.17200000000E+03 0. -1.
<mgrwt>
<rscale>  2 0.34439832E+03</rscale>
<asrwt>0</asrwt>
<pdfrwt beam="1">  1        1 0.43774425E+00 0.34439832E+03</pdfrwt>
<pdfrwt beam="2">  1       -1 0.17641176E-01 0.34439832E+03</pdfrwt>
<totfact> 0.22445404E+01</totfact>
</mgrwt>
</event>
<event>
 4    1  0.3761914E-001  0.2122957E+03  0.7546771E-02  0.1139761E+00
          2   -1    0    0  502    0  0.00000000000E+00  0.00000000000E+00  0.90294860565E+03  0.90294860565E+03  0.00000000000E+00 0.  1.
         -2   -1    0    0    0  501 -0.00000000000E+00 -0.00000000000E+00 -0.51000283261E+02  0.51000283261E+02  0.00000000000E+00 0. -1.
          6    1    1    2  502    0  0.11636992886E+03  0.44085388525E+02  0.35635229951E+03  0.41479686979E+03  0.17200000000E+03 0. -1.
         -6    1    1    2    0  501 -0.11636992886E+03 -0.44085388525E+02  0.49559602289E+03  0.53915201912E+03  0.17200000000E+03 0.  1.
<mgrwt>
<rscale>  2 0.21229574E+03</rscale>
<asrwt>0</asrwt>
<pdfrwt beam="1">  1        2 0.22573710E+00 0.21229574E+03</pdfrwt>
<pdfrwt beam="2">  1       -2 0.12750074E-01 0.21229574E+03</pdfrwt>
<totfact> 0.64303699E+02</totfact>
</mgrwt>
</event>
<event>
 4    1  0.3761914E-001  0.2537823E+03  0.7546771E-02  0.1110938E+00
          1   -1    0    0  502    0  0.00000000000E+00  0.00000000000E+00  0.50179900843E+03  0.50179900843E+03  0.00000000000E+00 0.  1.
         -1   -1    0    0    0  501 -0.00000000000E+00 -0.00000000000E+00 -0.12891371628E+03  0.12891371628E+03  0.00000000000E+00 0. -1.
          6    1    1    2  502    0 -0.78301899278E+02 -0.16938209004E+03  0.20731188921E+03  0.32769452126E+03  0.17200000000E+03 0.  1.
         -6    1    1    2    0  501  0.78301899278E+02  0.16938209004E+03  0.16557340294E+03  0.30301820344E+03  0.17200000000E+03 0.  1.
<mgrwt>
<rscale>  2 0.25378235E+03</rscale>
<asrwt>0</asrwt>
<pdfrwt beam="1">  1        1 0.12544975E+00 0.25378235E+03</pdfrwt>
<pdfrwt beam="2">  1       -1 0.32228430E-01 0.25378235E+03</pdfrwt>
<totfact> 0.20455331E+02</totfact>
</mgrwt>
</event>
<event>
 4    1  0.3761914E-001  0.2942427E+03  0.7546771E-02  0.1088155E+00
          1   -1    0    0  502    0  0.00000000000E+00  0.00000000000E+00  0.10514914105E+04  0.10514914105E+04  0.00000000000E+00 0. -1.
         -1   -1    0    0    0  501 -0.00000000000E+00 -0.00000000000E+00 -0.83479691622E+02  0.83479691622E+02  0.00000000000E+00 0.  1.
          6    1    1    2  502    0  0.11458621798E+03 -0.20943919199E+03  0.41767067432E+03  0.51090857174E+03  0.17200000000E+03 0.  1.
         -6    1    1    2    0  501 -0.11458621798E+03  0.20943919199E+03  0.55034104451E+03  0.62406253033E+03  0.17200000000E+03 0. -1.
<mgrwt>
<rscale>  2 0.29424272E+03</rscale>
<asrwt>0</asrwt>
<pdfrwt beam="1">  1        1 0.26287281E+00 0.29424272E+03</pdfrwt>
<pdfrwt beam="2">  1       -1 0.20869926E-01 0.29424272E+03</pdfrwt>
<totfact> 0.98316379E+01</totfact>
</mgrwt>
</event>
<event>
 4    1  0.3761914E-001  0.2609240E+03  0.7546771E-02  0.1106589E+00
          2   -1    0    0  502    0  0.00000000000E+00  0.00000000000E+00  0.99524516746E+03  0.99524516746E+03  0.00000000000E+00 0.  1.
         -2   -1    0    0    0  501 -0.00000000000E+00 -0.00000000000E+00 -0.74655133304E+02  0.74655133304E+02  0.00000000000E+00 0. -1.
          6    1    1    2  502    0 -0.19504202012E+03 -0.21353351957E+02  0.30553031329E+03  0.40178368258E+03  0.17200000000E+03 0. -1.
         -6    1    1    2    0  501  0.19504202012E+03  0.21353351957E+02  0.61505972086E+03  0.66811661818E+03  0.17200000000E+03 0.  1.
<mgrwt>
<rscale>  2 0.26092404E+03</rscale>
<asrwt>0</asrwt>
<pdfrwt beam="1">  1        2 0.24881125E+00 0.26092404E+03</pdfrwt>
<pdfrwt beam="2">  1       -2 0.18663786E-01 0.26092404E+03</pdfrwt>
<totfact> 0.28202530E+02</totfact>
</mgrwt>
</event>
<event>
 4    1  0.3761914E-001  0.1876424E+03  0.7546771E-02  0.1160605E+00
         -1   -1    0    0    0  501 -0.00000000000E+00  0.00000000000E+00  0.30499654033E+03  0.30499654033E+03  0.00000000000E+00 0. -1.
          1   -1    0    0  502    0  0.00000000000E+00 -0.00000000000E+00 -0.17512911478E+03  0.17512911478E+03  0.00000000000E+00 0.  1.
          6    1    1    2  502    0  0.66030988286E+02  0.35574732092E+02 -0.75213073315E+02  0.20215503797E+03  0.17200000000E+03 0.  1.
         -6    1    1    2    0  501 -0.66030988286E+02 -0.35574732092E+02  0.20508049887E+03  0.27797061714E+03  0.17200000000E+03 0. -1.
<mgrwt>
<rscale>  2 0.18764235E+03</rscale>
<asrwt>0</asrwt>
<pdfrwt beam="1">  1        1 0.43782279E-01 0.18764235E+03</pdfrwt>
<pdfrwt beam="2">  1       -1 0.76249134E-01 0.18764235E+03</pdfrwt>
<totfact> 0.17218523E+02</totfact>
</mgrwt>
</event>
<event>
 4    1  0.3761914E-001  0.2017040E+03  0.7546771E-02  0.1148309E+00
         -1   -1    0    0    0  501 -0.00000000000E+00  0.00000000000E+00  0.51293768133E+02  0.51293768133E+02  0.00000000000E+00 0. -1.
          1   -1    0    0  502    0  0.00000000000E+00 -0.00000000000E+00 -0.79318987839E+03  0.79318987839E+03  0.00000000000E+00 0.  1.
          6    1    1    2  502    0  0.12605295449E+02 -0.10460219534E+03 -0.36866932493E+03  0.42023991230E+03  0.17200000000E+03 0.  1.
         -6    1    1    2    0  501 -0.12605295449E+02  0.10460219534E+03 -0.37322678532E+03  0.42424373422E+03  0.17200000000E+03 0. -1.
<mgrwt>
<rscale>  2 0.20170402E+03</rscale>
<asrwt>0</asrwt>
<pdfrwt beam="1">  1        1 0.19829747E+00 0.20170402E+03</pdfrwt>
<pdfrwt beam="2">  1       -1 0.12823442E-01 0.20170402E+03</pdfrwt>
<totfact> 0.41558618E+02</totfact>
</mgrwt>
</event>
<event>
 4    1  0.3761914E-001  0.2749988E+03  0.7546771E-02  0.1098452E+00
         -1   -1    0    0    0  501 -0.00000000000E+00  0.00000000000E+00  0.54016296256E+02  0.54016296256E+02  0.00000000000E+00 0.  1.
          1   -1    0    0  502    0  0.00000000000E+00 -0.00000000000E+00 -0.17419263621E+04  0.17419263621E+04  0.00000000000E+00 0. -1.
          6    1    1    2  502    0  0.15350641220E+03 -0.14992030240E+03 -0.44612623213E+03  0.52407340197E+03  0.17200000000E+03 0.  1.
         -6    1    1    2    0  501 -0.15350641220E+03  0.14992030240E+03 -0.12417838337E+04  0.12718692564E+04  0.17200000000E+03 0. -1.
<mgrwt>
<rscale>  2 0.27499876E+03</rscale>
<asrwt>0</asrwt>
<pdfrwt beam="1">  1        1 0.43548154E+00 0.27499876E+03</pdfrwt>
<pdfrwt beam="2">  1       -1 0.13504076E-01 0.27499876E+03</pdfrwt>
<totfact> 0.36139562E+01</totfact>
</mgrwt>
</event>
<event>
 4    1  0.3761914E-001  0.2325457E+03  0.7546771E-02  0.1124861E+00
          2   -1    0    0  502    0  0.00000000000E+00  0.00000000000E+00  0.48962973662E+03  0.48962973662E+03  0.00000000000E+00 0.  1.
         -2   -1    0    0    0  501 -0.00000000000E+00 -0.00000000000E+00 -0.23982370265E+03  0.23982370265E+03  0.00000000000E+00 0. -1.
          6    1    1    2  502    0  0.13666350879E+03  0.76266441241E+02  0.39279011576E+03  0.45646638401E+03  0.17200000000E+03 0.  1.
         -6    1    1    2    0  501 -0.13666350879E+03 -0.76266441241E+02 -0.14298408179E+03  0.27298705526E+03  0.17200000000E+03 0. -1.
<mgrwt>
<rscale>  2 0.23254566E+03</rscale>
<asrwt>0</asrwt>
<pdfrwt beam="1">  1        2 0.12240743E+00 0.23254566E+03</pdfrwt>
<pdfrwt beam="2">  1       -2 0.59955926E-01 0.23254566E+03</pdfrwt>
<totfact> 0.96533339E+01</totfact>
</mgrwt>
</event>
<event>
 4    1  0.3761914E-001  0.1873249E+03  0.7546771E-02  0.1160896E+00
          2   -1    0    0  502    0  0.00000000000E+00  0.00000000000E+00  0.86235175983E+03  0.86235175983E+03  0.00000000000E+00 0. -1.
         -2   -1    0    0    0  501 -0.00000000000E+00 -0.00000000000E+00 -0.61330624042E+02  0.61330624042E+02  0.00000000000E+00 0.  1.
          6    1    1    2  502    0  0.74187738708E+02  0.16765696994E+01  0.66842531345E+03  0.69417795349E+03  0.17200000000E+03 0. -1.
         -6    1    1    2    0  501 -0.74187738708E+02 -0.16765696994E+01  0.13259582234E+03  0.22950443038E+03  0.17200000000E+03 0.  1.
<mgrwt>
<rscale>  2 0.18732494E+03</rscale>
<asrwt>0</asrwt>
<pdfrwt beam="1">  1        2 0.21558790E+00 0.18732494E+03</pdfrwt>
<pdfrwt beam="2">  1       -2 0.15332659E-01 0.18732494E+03</pdfrwt>
<totfact> 0.51768361E+02</totfact>
</mgrwt>
</event>
<event>
 4    1  0.3761914E-001  0.1745437E+03  0.7546771E-02  0.1173191E+00
          1   -1    0    0  502    0  0.00000000000E+00  0.00000000000E+00  0.84755547688E+02  0.84755547688E+02  0.00000000000E+00 0.  1.
         -1   -1    0    0    0  501 -0.00000000000E+00 -0.00000000000E+00 -0.36383104678E+03  0.36383104678E+03  0.00000000000E+00 0. -1.
          6    1    1    2  502    0  0.25784666348E+02 -0.14719366253E+02 -0.11492948451E+03  0.20898395913E+03  0.17200000000E+03 0.  1.
         -6    1    1    2    0  501 -0.25784666348E+02  0.14719366253E+02 -0.16414601458E+03  0.23960263535E+03  0.17200000000E+03 0. -1.
<mgrwt>
<rscale>  2 0.17454372E+03</rscale>
<asrwt>0</asrwt>
<pdfrwt beam="1">  1        1 0.21188887E-01 0.17454372E+03</pdfrwt>
<pdfrwt beam="2">  1       -1 0.90957760E-01 0.17454372E+03</pdfrwt>
<totfact> 0.29711943E+02</totfact>
</mgrwt>
</event>
<event>
 4    1  0.3761914E-001  0.3705099E+03  0.7546771E-02  0.1054498E+00
          1   -1    0    0  502    0  0.00000000000E+00  0.00000000000E+00  0.31877439532E+03  0.31877439532E+03  0.00000000000E+00 0.  1.
         -1   -1    0    0    0  501 -0.00000000000E+00 -0.00000000000E+00 -0.84658825560E+03  0.84658825560E+03  0.00000000000E+00 0. -1.
          6    1    1    2  502    0 -0.32711017842E+03  0.26315583499E+02  0.14451936489E+03  0.39769765600E+03  0.17200000000E+03 0.  1.
         -6    1    1    2    0  501  0.32711017842E+03 -0.26315583499E+02 -0.67233322517E+03  0.76766499492E+03  0.17200000000E+03 0. -1.
<mgrwt>
<rscale>  2 0.37050989E+03</rscale>
<asrwt>0</asrwt>
<pdfrwt beam="1">  1        1 0.79693599E-01 0.37050989E+03</pdfrwt>
<pdfrwt beam="2">  1       -1 0.21164706E+00 0.37050989E+03</pdfrwt>
<totfact> 0.59098888E+00</totfact>
</mgrwt>
</event>
<event>
 4    1  0.3761914E-001  0.2144738E+03  0.7546771E-02  0.1138071E+00
         -1   -1    0    0    0  501 -0.00000000000E+00  0.00000000000E+00  0.20224598650E+03  0.20224598650E+03  0.00000000000E+00 0. -1.
          1   -1    0    0  502    0  0.00000000000E+00 -0.00000000000E+00 -0.23347120982E+03  0.23347120982E+03  0.00000000000E+00 0.  1.
          6    1    1    2  502    0  0.44954838518E+02 -0.11997534679E+03  0.19400095150E+02  0.21534944865E+03  0.17200000000E+03 0. -1.
         -6    1    1    2    0  501 -0.44954838518E+02  0.11997534679E+03 -0.50625318462E+02  0.22036774767E+03  0.17200000000E+03 0.  1.
<mgrwt>
<rscale>  2 0.21447382E+03</rscale>
<asrwt>0</asrwt>
<pdfrwt beam="1">  1        1 0.58367802E-01 0.21447382E+03</pdfrwt>
<pdfrwt beam="2">  1       -1 0.50561497E-01 0.21447382E+03</pdfrwt>
<totfact> 0.26462135E+02</totfact>
</mgrwt>
</event>
<event>
 4    1  0.3761914E-001  0.2554488E+03  0.7546771E-02  0.1109909E+00
          1   -1    0    0  502    0  0.00000000000E+00  0.00000000000E+00  0.59318696311E+03  0.59318696311E+03  0.00000000000E+00 0. -1.
         -1   -1    0    0    0  501 -0.00000000000E+00 -0.00000000000E+00 -0.14072438450E+03  0.14072438450E+03  0.00000000000E+00 0.  1.
          6    1    1    2  502    0 -0.18876785198E+03  0.60647717114E+01  0.54784794389E+02  0.26125745366E+03  0.17200000000E+03 0.  1.
         -6    1    1    2    0  501  0.18876785198E+03 -0.60647717114E+01  0.39767778422E+03  0.47265389395E+03  0.17200000000E+03 0. -1.
<mgrwt>
<rscale>  2 0.25544879E+03</rscale>
<asrwt>0</asrwt>
<pdfrwt beam="1">  1        1 0.14829673E+00 0.25544879E+03</pdfrwt>
<pdfrwt beam="2">  1       -1 0.35181098E-01 0.25544879E+03</pdfrwt>
<totfact> 0.13399221E+02</totfact>
</mgrwt>
</event>
<event>
 4    1  0.3761914E-001  0.1992784E+03  0.7546771E-02  0.1150349E+00
         -2   -1    0    0    0  501 -0.00000000000E+00  0.00000000000E+00  0.24096110752E+02  0.24096110752E+02  0.00000000000E+00 0.  1.
          2   -1    0    0  502    0  0.00000000000E+00 -0.00000000000E+00 -0.16611547052E+04  0.16611547052E+04  0.00000000000E+00 0. -1.
          6    1    1    2  502    0 -0.17881039509E+02 -0.99036123694E+02 -0.74372206435E+03  0.76995739777E+03  0.17200000000E+03 0.  1.
         -6    1    1    2    0  501  0.17881039509E+02  0.99036123694E+02 -0.89333653009E+03  0.91529341818E+03  0.17200000000E+03 0.  1.
<mgrwt>
<rscale>  2 0.19927841E+03</rscale>
<asrwt>0</asrwt>
<pdfrwt beam="1">  1        2 0.41528868E+00 0.19927841E+03</pdfrwt>
<pdfrwt beam="2">  1       -2 0.60240277E-02 0.19927841E+03</pdfrwt>
<totfact> 0.46611593E+02</totfact>
</mgrwt>
</event>
<event>
 4    1  0.3761914E-001  0.2120178E+03  0.7546771E-02  0.1139978E+00
          2   -1    0    0  502    0  0.00000000000E+00  0.00000000000E+00  0.24057744917E+03  0.24057744917E+03  0.00000000000E+00 0. -1.
         -2   -1    0    0    0  501 -0.00000000000E+00 -0.00000000000E+00 -0.18747150759E+03  0.18747150759E+03  0.00000000000E+00 0.  1.
          6    1    1    2  502    0 -0.98472319380E+02 -0.75304249474E+02  0.38891228453E+02  0.21555522569E+03  0.17200000000E+03 0.  1.
         -6    1    1    2    0  501  0.98472319380E+02  0.75304249474E+02  0.14214713131E+02  0.21249373107E+03  0.17200000000E+03 0.  1.
<mgrwt>
<rscale>  2 0.21201775E+03</rscale>
<asrwt>0</asrwt>
<pdfrwt beam="1">  1        2 0.60144362E-01 0.21201775E+03</pdfrwt>
<pdfrwt beam="2">  1       -2 0.46867877E-01 0.21201775E+03</pdfrwt>
<totfact> 0.36093387E+02</totfact>
</mgrwt>
</event>
<event>
 4    1  0.3761914E-001  0.1876586E+03  0.7546771E-02  0.1160590E+00
          2   -1    0    0  502    0  0.00000000000E+00  0.00000000000E+00  0.11369650866E+04  0.11369650866E+04  0.00000000000E+00 0.  1.
         -2   -1    0    0    0  501 -0.00000000000E+00 -0.00000000000E+00 -0.31448194943E+02  0.31448194943E+02  0.00000000000E+00 0. -1.
          6    1    1    2  502    0  0.61550115084E+02  0.42934077973E+02  0.48098057498E+03  0.51629261589E+03  0.17200000000E+03 0. -1.
         -6    1    1    2    0  501 -0.61550115084E+02 -0.42934077973E+02  0.62453631667E+03  0.65212066564E+03  0.17200000000E+03 0.  1.
<mgrwt>
<rscale>  2 0.18765860E+03</rscale>
<asrwt>0</asrwt>
<pdfrwt beam="1">  1        2 0.28424113E+00 0.18765860E+03</pdfrwt>
<pdfrwt beam="2">  1       -2 0.78620525E-02 0.18765860E+03</pdfrwt>
<totfact> 0.87900182E+02</totfact>
</mgrwt>
</event>
<event>
 4    1  0.3761914E-001  0.1834802E+03  0.7546771E-02  0.1164477E+00
         -1   -1    0    0    0  501 -0.00000000000E+00  0.00000000000E+00  0.93930856394E+02  0.93930856394E+02  0.00000000000E+00 0.  1.
          1   -1    0    0  502    0  0.00000000000E+00 -0.00000000000E+00 -0.37335845565E+03  0.37335845565E+03  0.00000000000E+00 0. -1.
          6    1    1    2  502    0 -0.54598904097E+02 -0.33165655100E+02 -0.18647741659E+03  0.26160815718E+03  0.17200000000E+03 0. -1.
         -6    1    1    2    0  501  0.54598904097E+02  0.33165655100E+02 -0.92950182665E+02  0.20568115486E+03  0.17200000000E+03 0.  1.
<mgrwt>
<rscale>  2 0.18348025E+03</rscale>
<asrwt>0</asrwt>
<pdfrwt beam="1">  1        1 0.93339613E-01 0.18348025E+03</pdfrwt>
<pdfrwt beam="2">  1       -1 0.23482714E-01 0.18348025E+03</pdfrwt>
<totfact> 0.54079808E+02</totfact>
</mgrwt>
</event>
<event>
 4    1  0.3761914E-001  0.1980538E+03  0.7546771E-02  0.1151391E+00
          1   -1    0    0  502    0  0.00000000000E+00  0.00000000000E+00  0.12318242180E+03  0.12318242180E+03  0.00000000000E+00 0.  1.
         -1   -1    0    0    0  501 -0.00000000000E+00 -0.00000000000E+00 -0.33307881667E+03  0.33307881667E+03  0.00000000000E+00 0. -1.
          6    1    1    2  502    0 -0.55729608353E+02 -0.80842674565E+02 -0.15278579691E+03  0.25013761615E+03  0.17200000000E+03 0. -1.
         -6    1    1    2    0  501  0.55729608353E+02  0.80842674565E+02 -0.57110597969E+02  0.20612362232E+03  0.17200000000E+03 0.  1.
<mgrwt>
<rscale>  2 0.19805385E+03</rscale>
<asrwt>0</asrwt>
<pdfrwt beam="1">  1        1 0.30795606E-01 0.19805385E+03</pdfrwt>
<pdfrwt beam="2">  1       -1 0.83269703E-01 0.19805385E+03</pdfrwt>
<totfact> 0.22269418E+02</totfact>
</mgrwt>
</event>
<event>
 4    1  0.3761914E-001  0.2177811E+03  0.7546771E-02  0.1135548E+00
          2   -1    0    0  502    0  0.00000000000E+00  0.00000000000E+00  0.12197750320E+04  0.12197750320E+04  0.00000000000E+00 0. -1.
         -2   -1    0    0    0  501 -0.00000000000E+00 -0.00000000000E+00 -0.38888948568E+02  0.38888948568E+02  0.00000000000E+00 0.  1.
          6    1    1    2  502    0  0.11060119739E+03 -0.74913284798E+02  0.59816591132E+03  0.63657763279E+03  0.17200000000E+03 0.  1.
         -6    1    1    2    0  501 -0.11060119739E+03  0.74913284798E+02  0.58272017207E+03  0.62208634774E+03  0.17200000000E+03 0. -1.
<mgrwt>
<rscale>  2 0.21778114E+03</rscale>
<asrwt>0</asrwt>
<pdfrwt beam="1">  1        2 0.30494363E+00 0.21778114E+03</pdfrwt>
<pdfrwt beam="2">  1       -2 0.97222412E-02 0.21778114E+03</pdfrwt>
<totfact> 0.53324377E+02</totfact>
</mgrwt>
</event>
<event>
 4    1  0.3761914E-001  0.1857880E+03  0.7546771E-02  0.1162316E+00
         -1   -1    0    0    0  501 -0.00000000000E+00  0.00000000000E+00  0.69443768005E+02  0.69443768005E+02  0.00000000000E+00 0. -1.
          1   -1    0    0  502    0  0.00000000000E+00 -0.00000000000E+00 -0.50611243019E+03  0.50611243019E+03  0.00000000000E+00 0.  1.
          6    1    1    2  502    0 -0.30989101130E+02  0.63030641086E+02 -0.25683789591E+03  0.31699036401E+03  0.17200000000E+03 0. -1.
         -6    1    1    2    0  501  0.30989101130E+02 -0.63030641086E+02 -0.17983076627E+03  0.25856583418E+03  0.17200000000E+03 0. -1.
<mgrwt>
<rscale>  2 0.18578801E+03</rscale>
<asrwt>0</asrwt>
<pdfrwt beam="1">  1        1 0.12652811E+00 0.18578801E+03</pdfrwt>
<pdfrwt beam="2">  1       -1 0.17360942E-01 0.18578801E+03</pdfrwt>
<totfact> 0.56663765E+02</totfact>
</mgrwt>
</event>
<event>
 4    1  0.3761914E-001  0.1729820E+03  0.7546771E-02  0.1174773E+00
         -1   -1    0    0    0  501 -0.00000000000E+00  0.00000000000E+00  0.80300674629E+02  0.80300674629E+02  0.00000000000E+00 0.  1.
          1   -1    0    0  502    0  0.00000000000E+00 -0.00000000000E+00 -0.38314118557E+03  0.38314118557E+03  0.00000000000E+00 0. -1.
          6    1    1    2  502    0 -0.15461373039E+02 -0.99856863535E+01 -0.18979340077E+03  0.25679622848E+03  0.17200000000E+03 0. -1.
         -6    1    1    2    0  501  0.15461373039E+02  0.99856863535E+01 -0.11304711017E+03  0.20664563171E+03  0.17200000000E+03 0.  1.
<mgrwt>
<rscale>  2 0.17298199E+03</rscale>
<asrwt>0</asrwt>
<pdfrwt beam="1">  1        1 0.95785296E-01 0.17298199E+03</pdfrwt>
<pdfrwt beam="2">  1       -1 0.20075169E-01 0.17298199E+03</pdfrwt>
<totfact> 0.67397656E+02</totfact>
</mgrwt>
</event>
<event>
 4    1  0.3761914E-001  0.2264796E+03  0.7546771E-02  0.1129142E+00
         -2   -1    0    0    0  501 -0.00000000000E+00  0.00000000000E+00  0.11956930001E+03  0.11956930001E+03  0.00000000000E+00 0.  1.
          2   -1    0    0  502    0  0.00000000000E+00 -0.00000000000E+00 -0.70286580965E+03  0.70286580965E+03  0.00000000000E+00 0. -1.
          6    1    1    2  502    0 -0.92041244356E+02  0.11505400650E+03 -0.34952296292E+02  0.22916081273E+03  0.17200000000E+03 0.  1.
         -6    1    1    2    0  501  0.92041244356E+02 -0.11505400650E+03 -0.54834421335E+03  0.59327429692E+03  0.17200000000E+03 0.  1.
<mgrwt>
<rscale>  2 0.22647961E+03</rscale>
<asrwt>0</asrwt>
<pdfrwt beam="1">  1        2 0.17571645E+00 0.22647961E+03</pdfrwt>
<pdfrwt beam="2">  1       -2 0.29892325E-01 0.22647961E+03</pdfrwt>
<totfact> 0.22593982E+02</totfact>
</mgrwt>
</event>
<event>
 4    1  0.3761914E-001  0.2429224E+03  0.7546771E-02  0.1117861E+00
          2   -1    0    0  502    0  0.00000000000E+00  0.00000000000E+00  0.13152868141E+04  0.13152868141E+04  0.00000000000E+00 0. -1.
         -2   -1    0    0    0  501 -0.00000000000E+00 -0.00000000000E+00 -0.57380682431E+02  0.57380682431E+02  0.00000000000E+00 0.  1.
          6    1    1    2  502    0 -0.89906739975E+02  0.14609602549E+03  0.94948221480E+03  0.98006517476E+03  0.17200000000E+03 0.  1.
         -6    1    1    2    0  501  0.89906739975E+02 -0.14609602549E+03  0.30842391682E+03  0.39260232173E+03  0.17200000000E+03 0. -1.
<mgrwt>
<rscale>  2 0.24292235E+03</rscale>
<asrwt>0</asrwt>
<pdfrwt beam="1">  1        2 0.32882160E+00 0.24292235E+03</pdfrwt>
<pdfrwt beam="2">  1       -2 0.14345175E-01 0.24292235E+03</pdfrwt>
<totfact> 0.23447087E+02</totfact>
</mgrwt>
</event>
<event>
 4    1  0.3761914E-001  0.1842500E+03  0.7546771E-02  0.1163752E+00
          2   -1    0    0  502    0  0.00000000000E+00  0.00000000000E+00  0.54719252733E+03  0.54719252733E+03  0.00000000000E+00 0. -1.
         -2   -1    0    0    0  501 -0.00000000000E+00 -0.00000000000E+00 -0.65874036167E+02  0.65874036167E+02  0.00000000000E+00 0.  1.
          6    1    1    2  502    0 -0.38976073260E+02 -0.53337994926E+02  0.31460658584E+03  0.36458933040E+03  0.17200000000E+03 0. -1.
         -6    1    1    2    0  501  0.38976073260E+02  0.53337994926E+02  0.16671190532E+03  0.24847723309E+03  0.17200000000E+03 0.  1.
<mgrwt>
<rscale>  2 0.18425004E+03</rscale>
<asrwt>0</asrwt>
<pdfrwt beam="1">  1        2 0.13679812E+00 0.18425004E+03</pdfrwt>
<pdfrwt beam="2">  1       -2 0.16468511E-01 0.18425004E+03</pdfrwt>
<totfact> 0.90842025E+02</totfact>
</mgrwt>
</event>
<event>
 4    1  0.3761914E-001  0.2138951E+03  0.7546771E-02  0.1138518E+00
          1   -1    0    0  502    0  0.00000000000E+00  0.00000000000E+00  0.69679824358E+02  0.69679824358E+02  0.00000000000E+00 0.  1.
         -1   -1    0    0    0  501 -0.00000000000E+00 -0.00000000000E+00 -0.68568188601E+03  0.68568188601E+03  0.00000000000E+00 0. -1.
          6    1    1    2  502    0  0.10198911238E+03 -0.75929909042E+02 -0.23020745060E+03  0.31423971812E+03  0.17200000000E+03 0. -1.
         -6    1    1    2    0  501 -0.10198911238E+03  0.75929909042E+02 -0.38579461106E+03  0.44112199226E+03  0.17200000000E+03 0. -1.
<mgrwt>
<rscale>  2 0.21389514E+03</rscale>
<asrwt>0</asrwt>
<pdfrwt beam="1">  1        1 0.17419957E-01 0.21389514E+03</pdfrwt>
<pdfrwt beam="2">  1       -1 0.17142047E+00 0.21389514E+03</pdfrwt>
<totfact> 0.81610299E+01</totfact>
</mgrwt>
</event>
<event>
 4    1  0.3761914E-001  0.2240872E+03  0.7546771E-02  0.1130872E+00
         -2   -1    0    0    0  501 -0.00000000000E+00  0.00000000000E+00  0.54596331690E+03  0.54596331690E+03  0.00000000000E+00 0.  1.
          2   -1    0    0  502    0  0.00000000000E+00 -0.00000000000E+00 -0.15055654246E+03  0.15055654246E+03  0.00000000000E+00 0. -1.
          6    1    1    2  502    0 -0.94886819388E+02 -0.10783113424E+03 -0.19533469150E+02  0.22493692099E+03  0.17200000000E+03 0. -1.
         -6    1    1    2    0  501  0.94886819388E+02  0.10783113424E+03  0.41494024359E+03  0.47158293837E+03  0.17200000000E+03 0.  1.
<mgrwt>
<rscale>  2 0.22408718E+03</rscale>
<asrwt>0</asrwt>
<pdfrwt beam="1">  1        2 0.37639137E-01 0.22408718E+03</pdfrwt>
<pdfrwt beam="2">  1       -2 0.13649082E+00 0.22408718E+03</pdfrwt>
<totfact> 0.55966401E+01</totfact>
</mgrwt>
</event>
<event>
 4    1  0.3761914E-001  0.1861755E+03  0.7546771E-02  0.1161957E+00
          2   -1    0    0  502    0  0.00000000000E+00  0.00000000000E+00  0.21532771840E+04  0.21532771840E+04  0.00000000000E+00 0.  1.
         -2   -1    0    0    0  501 -0.00000000000E+00 -0.00000000000E+00 -0.27528112547E+02  0.27528112547E+02  0.00000000000E+00 0. -1.
          6    1    1    2  502    0 -0.64632747133E+02  0.29999055981E+02  0.36021872293E+03  0.40548595994E+03  0.17200000000E+03 0. -1.
         -6    1    1    2    0  501  0.64632747133E+02 -0.29999055981E+02  0.17655303485E+04  0.17753193366E+04  0.17200000000E+03 0.  1.
<mgrwt>
<rscale>  2 0.18617555E+03</rscale>
<asrwt>0</asrwt>
<pdfrwt beam="1">  1        2 0.53831873E+00 0.18617555E+03</pdfrwt>
<pdfrwt beam="2">  1       -2 0.68820354E-02 0.18617555E+03</pdfrwt>
<totfact> 0.12652995E+02</totfact>
</mgrwt>
</event>
<event>
 4    1  0.3761914E-001  0.1931024E+03  0.7546771E-02  0.1155693E+00
          3   -1    0    0  502    0  0.00000000000E+00  0.00000000000E+00  0.55666496740E+02  0.55666496740E+02  0.00000000000E+00 0. -1.
         -3   -1    0    0    0  501 -0.00000000000E+00 -0.00000000000E+00 -0.80591159612E+03  0.80591159612E+03  0.00000000000E+00 0.  1.
          6    1    1    2  502    0  0.86736869873E+02  0.13462867749E+02 -0.55212498959E+03  0.58491925727E+03  0.17200000000E+03 0.  1.
         -6    1    1    2    0  501 -0.86736869873E+02 -0.13462867749E+02 -0.19812010979E+03  0.27665883559E+03  0.17200000000E+03 0. -1.
<mgrwt>
<rscale>  2 0.19310239E+03</rscale>
<asrwt>0</asrwt>
<pdfrwt beam="1">  1        3 0.13916624E-01 0.19310239E+03</pdfrwt>
<pdfrwt beam="2">  1       -3 0.20147790E+00 0.19310239E+03</pdfrwt>
<totfact> 0.16149255E+01</totfact>
</mgrwt>
</event>
<event>
 4    1  0.3761914E-001  0.4146568E+03  0.7546771E-02  0.1038819E+00
          2   -1    0    0  502    0  0.00000000000E+00  0.00000000000E+00  0.13503382595E+04  0.13503382595E+04  0.00000000000E+00 0.  1.
         -2   -1    0    0    0  501 -0.00000000000E+00 -0.00000000000E+00 -0.21585776286E+03  0.21585776286E+03  0.00000000000E+00 0. -1.
          6    1    1    2  502    0 -0.32932687291E+03 -0.18411979120E+03  0.10687379101E+04  0.11463598943E+04  0.17200000000E+03 0.  1.
         -6    1    1    2    0  501  0.32932687291E+03  0.18411979120E+03  0.65742586504E+02  0.41983612804E+03  0.17200000000E+03 0. -1.
<mgrwt>
<rscale>  2 0.41465683E+03</rscale>
<asrwt>0</asrwt>
<pdfrwt beam="1">  1        2 0.33758454E+00 0.41465683E+03</pdfrwt>
<pdfrwt beam="2">  1       -2 0.53964445E-01 0.41465683E+03</pdfrwt>
<totfact> 0.18673068E+01</totfact>
</mgrwt>
</event>
<event>
 4    1  0.3761914E-001  0.1821114E+03  0.7546771E-02  0.1165775E+00
         -2   -1    0    0    0  501 -0.00000000000E+00  0.00000000000E+00  0.44106303834E+02  0.44106303834E+02  0.00000000000E+00 0. -1.
          2   -1    0    0  502    0  0.00000000000E+00 -0.00000000000E+00 -0.12556342364E+04  0.12556342364E+04  0.00000000000E+00 0.  1.
          6    1    1    2  502    0 -0.47293971775E+02  0.36658478746E+02 -0.19415414978E+03  0.26619616396E+03  0.17200000000E+03 0. -1.
         -6    1    1    2    0  501  0.47293971775E+02 -0.36658478746E+02 -0.10173737828E+04  0.10335443763E+04  0.17200000000E+03 0.  1.
<mgrwt>
<rscale>  2 0.18211140E+03</rscale>
<asrwt>0</asrwt>
<pdfrwt beam="1">  1        2 0.31390855E+00 0.18211140E+03</pdfrwt>
<pdfrwt beam="2">  1       -2 0.11026576E-01 0.18211140E+03</pdfrwt>
<totfact> 0.41057304E+02</totfact>
</mgrwt>
</event>
<event>
 4    1  0.3761914E-001  0.2077611E+03  0.7546771E-02  0.1143351E+00
         -2   -1    0    0    0  501 -0.00000000000E+00  0.00000000000E+00  0.75877366536E+02  0.75877366536E+02  0.00000000000E+00 0.  1.
          2   -1    0    0  502    0  0.00000000000E+00 -0.00000000000E+00 -0.57674598085E+03  0.57674598085E+03  0.00000000000E+00 0. -1.
          6    1    1    2  502    0 -0.11206678558E+03 -0.31964460321E+02 -0.28855592977E+03  0.35556886219E+03  0.17200000000E+03 0. -1.
         -6    1    1    2    0  501  0.11206678558E+03  0.31964460321E+02 -0.21231268454E+03  0.29705448519E+03  0.17200000000E+03 0.  1.
<mgrwt>
<rscale>  2 0.20776114E+03</rscale>
<asrwt>0</asrwt>
<pdfrwt beam="1">  1        2 0.14418649E+00 0.20776114E+03</pdfrwt>
<pdfrwt beam="2">  1       -2 0.18969342E-01 0.20776114E+03</pdfrwt>
<totfact> 0.66709780E+02</totfact>
</mgrwt>
</event>
<event>
 4    1  0.3761914E-001  0.2044236E+03  0.7546771E-02  0.1146060E+00
          2   -1    0    0  502    0  0.00000000000E+00  0.00000000000E+00  0.32334699274E+03  0.32334699274E+03  0.00000000000E+00 0.  1.
         -2   -1    0    0    0  501 -0.00000000000E+00 -0.00000000000E+00 -0.13090447346E+03  0.13090447346E+03  0.00000000000E+00 0. -1.
          6    1    1    2  502    0 -0.22032798453E+02 -0.10825689375E+03  0.70601491773E+02  0.21627198129E+03  0.17200000000E+03 0. -1.
         -6    1    1    2    0  501  0.22032798453E+02  0.10825689375E+03  0.12184102751E+03  0.23797948491E+03  0.17200000000E+03 0.  1.
<mgrwt>
<rscale>  2 0.20442358E+03</rscale>
<asrwt>0</asrwt>
<pdfrwt beam="1">  1        2 0.80836747E-01 0.20442358E+03</pdfrwt>
<pdfrwt beam="2">  1       -2 0.32726119E-01 0.20442358E+03</pdfrwt>
<totfact> 0.51621713E+02</totfact>
</mgrwt>
</event>
<event>
 4    1  0.3761914E-001  0.1773583E+03  0.7546771E-02  0.1170384E+00
         -2   -1    0    0    0  501 -0.00000000000E+00  0.00000000000E+00  0.60997692765E+02  0.60997692765E+02  0.00000000000E+00 0.  1.
          2   -1    0    0  502    0  0.00000000000E+00 -0.00000000000E+00 -0.56582817424E+03  0.56582817424E+03  0.00000000000E+00 0. -1.
          6    1    1    2  502    0 -0.42381981693E+02  0.87019397706E+01 -0.34570949884E+03  0.38854988575E+03  0.17200000000E+03 0. -1.
         -6    1    1    2    0  501  0.42381981693E+02 -0.87019397706E+01 -0.15912098263E+03  0.23827598125E+03  0.17200000000E+03 0.  1.
<mgrwt>
<rscale>  2 0.17735827E+03</rscale>
<asrwt>0</asrwt>
<pdfrwt beam="1">  1        2 0.14145704E+00 0.17735827E+03</pdfrwt>
<pdfrwt beam="2">  1       -2 0.15249423E-01 0.17735827E+03</pdfrwt>
<totfact> 0.98705113E+02</totfact>
</mgrwt>
</event>
<event>
 4    1  0.3761914E-001  0.2040110E+03  0.7546771E-02  0.1146398E+00
         -2   -1    0    0    0  501 -0.00000000000E+00  0.00000000000E+00  0.66096759658E+02  0.66096759658E+02  0.00000000000E+00 0. -1.
          2   -1    0    0  502    0  0.00000000000E+00 -0.00000000000E+00 -0.70451509212E+03  0.70451509212E+03  0.00000000000E+00 0.  1.
          6    1    1    2  502    0  0.10032539505E+03 -0.44399378789E+02 -0.44477839875E+03  0.48933456216E+03  0.17200000000E+03 0.  1.
         -6    1    1    2    0  501 -0.10032539505E+03  0.44399378789E+02 -0.19363993372E+03  0.28127728962E+03  0.17200000000E+03 0. -1.
<mgrwt>
<rscale>  2 0.20401100E+03</rscale>
<asrwt>0</asrwt>
<pdfrwt beam="1">  1        2 0.17612877E+00 0.20401100E+03</pdfrwt>
<pdfrwt beam="2">  1       -2 0.16524190E-01 0.20401100E+03</pdfrwt>
<totfact> 0.63225027E+02</totfact>
</mgrwt>
</event>
<event>
 4    1  0.3761914E-001  0.1962581E+03  0.7546771E-02  0.1152935E+00
         -2   -1    0    0    0  501 -0.00000000000E+00  0.00000000000E+00  0.42320572498E+02  0.42320572498E+02  0.00000000000E+00 0. -1.
          2   -1    0    0  502    0  0.00000000000E+00 -0.00000000000E+00 -0.12062626183E+04  0.12062626183E+04  0.00000000000E+00 0.  1.
          6    1    1    2  502    0  0.38315991251E+02 -0.86401015409E+02 -0.89129187056E+03  0.91264365947E+03  0.17200000000E+03 0.  1.
         -6    1    1    2    0  501 -0.38315991251E+02  0.86401015409E+02 -0.27265017525E+03  0.33593953134E+03  0.17200000000E+03 0. -1.
<mgrwt>
<rscale>  2 0.19625812E+03</rscale>
<asrwt>0</asrwt>
<pdfrwt beam="1">  1        2 0.30156565E+00 0.19625812E+03</pdfrwt>
<pdfrwt beam="2">  1       -2 0.10580143E-01 0.19625812E+03</pdfrwt>
<totfact> 0.48090263E+02</totfact>
</mgrwt>
</event>
<event>
 4    1  0.3761914E-001  0.1797874E+03  0.7546771E-02  0.1168009E+00
          1   -1    0    0  502    0  0.00000000000E+00  0.00000000000E+00  0.14145476685E+03  0.14145476685E+03  0.00000000000E+00 0.  1.
         -1   -1    0    0    0  501 -0.00000000000E+00 -0.00000000000E+00 -0.24918976031E+03  0.24918976031E+03  0.00000000000E+00 0. -1.
          6    1    1    2  502    0  0.50362812072E+02 -0.14250837731E+02  0.24034037701E+01  0.17980343591E+03  0.17200000000E+03 0. -1.
         -6    1    1    2    0  501 -0.50362812072E+02  0.14250837731E+02 -0.11013839723E+03  0.21084109125E+03  0.17200000000E+03 0. -1.
<mgrwt>
<rscale>  2 0.17978737E+03</rscale>
<asrwt>0</asrwt>
<pdfrwt beam="1">  1        1 0.35363692E-01 0.17978737E+03</pdfrwt>
<pdfrwt beam="2">  1       -1 0.62297439E-01 0.17978737E+03</pdfrwt>
<totfact> 0.33565316E+02</totfact>
</mgrwt>
</event>
<event>
 4    1  0.3761914E-001  0.1773248E+03  0.7546771E-02  0.1170418E+00
          1   -1    0    0  502    0  0.00000000000E+00  0.00000000000E+00  0.90287446889E+03  0.90287446889E+03  0.00000000000E+00 0.  1.
         -1   -1    0    0    0  501 -0.00000000000E+00 -0.00000000000E+00 -0.10031090547E+03  0.10031090547E+03  0.00000000000E+00 0. -1.
          6    1    1    2  502    0 -0.20550351486E+02 -0.37917846517E+02 -0.39893004117E+01  0.17736965509E+03  0.17200000000E+03 0. -1.
         -6    1    1    2    0  501  0.20550351486E+02  0.37917846517E+02  0.80655286383E+03  0.82581571926E+03  0.17200000000E+03 0.  1.
<mgrwt>
<rscale>  2 0.17732479E+03</rscale>
<asrwt>0</asrwt>
<pdfrwt beam="1">  1        1 0.22571859E+00 0.17732479E+03</pdfrwt>
<pdfrwt beam="2">  1       -1 0.25077729E-01 0.17732479E+03</pdfrwt>
<totfact> 0.10838455E+02</totfact>
</mgrwt>
</event>
<event>
 4    1  0.3761914E-001  0.2335345E+03  0.7546771E-02  0.1124176E+00
         -2   -1    0    0    0  501 -0.00000000000E+00  0.00000000000E+00  0.22393928413E+03  0.22393928413E+03  0.00000000000E+00 0. -1.
          2   -1    0    0  502    0  0.00000000000E+00 -0.00000000000E+00 -0.98580779490E+03  0.98580779490E+03  0.00000000000E+00 0.  1.
          6    1    1    2  502    0  0.12978451068E+03  0.90057366307E+02 -0.90580037863E+03  0.93542112140E+03  0.17200000000E+03 0.  1.
         -6    1    1    2    0  501 -0.12978451068E+03 -0.90057366307E+02  0.14393186786E+03  0.27432595762E+03  0.17200000000E+03 0. -1.
<mgrwt>
<rscale>  2 0.23353447E+03</rscale>
<asrwt>0</asrwt>
<pdfrwt beam="1">  1        2 0.24645194E+00 0.23353447E+03</pdfrwt>
<pdfrwt beam="2">  1       -2 0.55984822E-01 0.23353447E+03</pdfrwt>
<totfact> 0.37829428E+01</totfact>
</mgrwt>
</event>
<event>
 4    1  0.3761914E-001  0.1739454E+03  0.7546771E-02  0.1173795E+00
         -2   -1    0    0    0  501 -0.00000000000E+00  0.00000000000E+00  0.42997926665E+02  0.42997926665E+02  0.00000000000E+00 0. -1.
          2   -1    0    0  502    0  0.00000000000E+00 -0.00000000000E+00 -0.72662487309E+03  0.72662487309E+03  0.00000000000E+00 0.  1.
          6    1    1    2  502    0 -0.25833204517E+02 -0.23795840976E+01 -0.27344061826E+03  0.32407836798E+03  0.17200000000E+03 0. -1.
         -6    1    1    2    0  501  0.25833204517E+02  0.23795840976E+01 -0.41018632816E+03  0.44554443178E+03  0.17200000000E+03 0.  1.
<mgrwt>
<rscale>  2 0.17394544E+03</rscale>
<asrwt>0</asrwt>
<pdfrwt beam="1">  1        2 0.18165622E+00 0.17394544E+03</pdfrwt>
<pdfrwt beam="2">  1       -2 0.10749482E-01 0.17394544E+03</pdfrwt>
<totfact> 0.12166106E+03</totfact>
</mgrwt>
</event>
<event>
 4    1  0.3761914E-001  0.1808554E+03  0.7546771E-02  0.1166978E+00
         -2   -1    0    0    0  501 -0.00000000000E+00  0.00000000000E+00  0.50394882266E+02  0.50394882266E+02  0.00000000000E+00 0. -1.
          2   -1    0    0  502    0  0.00000000000E+00 -0.00000000000E+00 -0.65013606447E+03  0.65013606447E+03  0.00000000000E+00 0.  1.
          6    1    1    2  502    0  0.19638961432E+02 -0.52335163716E+02 -0.28553622795E+03  0.33799348461E+03  0.17200000000E+03 0.  1.
         -6    1    1    2    0  501 -0.19638961432E+02  0.52335163716E+02 -0.31420495426E+03  0.36253746213E+03  0.17200000000E+03 0. -1.
<mgrwt>
<rscale>  2 0.18085535E+03</rscale>
<asrwt>0</asrwt>
<pdfrwt beam="1">  1        2 0.16253401E+00 0.18085535E+03</pdfrwt>
<pdfrwt beam="2">  1       -2 0.12598721E-01 0.18085535E+03</pdfrwt>
<totfact> 0.11120920E+03</totfact>
</mgrwt>
</event>
<event>
 4    1  0.3761914E-001  0.1874347E+03  0.7546771E-02  0.1160796E+00
          1   -1    0    0  502    0  0.00000000000E+00  0.00000000000E+00  0.65355957506E+03  0.65355957506E+03  0.00000000000E+00 0. -1.
         -1   -1    0    0    0  501 -0.00000000000E+00 -0.00000000000E+00 -0.77067780811E+02  0.77067780811E+02  0.00000000000E+00 0.  1.
          6    1    1    2  502    0 -0.25846424631E+02 -0.69855177640E+02  0.48916951305E+03  0.52384978382E+03  0.17200000000E+03 0. -1.
         -6    1    1    2    0  501  0.25846424631E+02  0.69855177640E+02  0.87322281195E+02  0.20677757205E+03  0.17200000000E+03 0.  1.
<mgrwt>
<rscale>  2 0.18743474E+03</rscale>
<asrwt>0</asrwt>
<pdfrwt beam="1">  1        1 0.16338988E+00 0.18743474E+03</pdfrwt>
<pdfrwt beam="2">  1       -1 0.19266947E-01 0.18743474E+03</pdfrwt>
<totfact> 0.31453578E+02</totfact>
</mgrwt>
</event>
<event>
 4    1  0.3761914E-001  0.2113521E+03  0.7546771E-02  0.1140500E+00
          2   -1    0    0  502    0  0.00000000000E+00  0.00000000000E+00  0.24041071734E+04  0.24041071734E+04  0.00000000000E+00 0.  1.
         -2   -1    0    0    0  501 -0.00000000000E+00 -0.00000000000E+00 -0.22877146811E+02  0.22877146811E+02  0.00000000000E+00 0. -1.
          6    1    1    2  502    0  0.10078569497E+03 -0.70199327947E+02  0.66472259710E+03  0.69751403789E+03  0.17200000000E+03 0. -1.
         -6    1    1    2    0  501 -0.10078569497E+03  0.70199327947E+02  0.17165074295E+04  0.17294702823E+04  0.17200000000E+03 0.  1.
<mgrwt>
<rscale>  2 0.21135208E+03</rscale>
<asrwt>0</asrwt>
<pdfrwt beam="1">  1        2 0.60102593E+00 0.21135208E+03</pdfrwt>
<pdfrwt beam="2">  1       -2 0.57192949E-02 0.21135208E+03</pdfrwt>
<totfact> 0.86419034E+01</totfact>
</mgrwt>
</event>
<event>
 4    1  0.3761914E-001  0.1751052E+03  0.7546771E-02  0.1172626E+00
          1   -1    0    0  502    0  0.00000000000E+00  0.00000000000E+00  0.41251845631E+03  0.41251845631E+03  0.00000000000E+00 0. -1.
         -1   -1    0    0    0  501 -0.00000000000E+00 -0.00000000000E+00 -0.85818825844E+02  0.85818825844E+02  0.00000000000E+00 0.  1.
          6    1    1    2  502    0  0.32778270206E+02  0.18522720711E+01  0.72176080398E+02  0.18939702345E+03  0.17200000000E+03 0.  1.
         -6    1    1    2    0  501 -0.32778270206E+02 -0.18522720711E+01  0.25452355007E+03  0.30894025870E+03  0.17200000000E+03 0. -1.
<mgrwt>
<rscale>  2 0.17510524E+03</rscale>
<asrwt>0</asrwt>
<pdfrwt beam="1">  1        1 0.10312961E+00 0.17510524E+03</pdfrwt>
<pdfrwt beam="2">  1       -1 0.21454708E-01 0.17510524E+03</pdfrwt>
<totfact> 0.54543161E+02</totfact>
</mgrwt>
</event>
<event>
 4    1  0.3761914E-001  0.1853271E+03  0.7546771E-02  0.1162745E+00
         -2   -1    0    0    0  501 -0.00000000000E+00  0.00000000000E+00  0.44023162529E+02  0.44023162529E+02  0.00000000000E+00 0. -1.
          2   -1    0    0  502    0  0.00000000000E+00 -0.00000000000E+00 -0.89699036092E+03  0.89699036092E+03  0.00000000000E+00 0.  1.
          6    1    1    2  502    0 -0.53183753497E+02 -0.43972879554E+02 -0.25669560790E+03  0.31660505505E+03  0.17200000000E+03 0. -1.
         -6    1    1    2    0  501  0.53183753497E+02  0.43972879554E+02 -0.59627159050E+03  0.62440846840E+03  0.17200000000E+03 0.  1.
<mgrwt>
<rscale>  2 0.18532708E+03</rscale>
<asrwt>0</asrwt>
<pdfrwt beam="1">  1        2 0.22424760E+00 0.18532708E+03</pdfrwt>
<pdfrwt beam="2">  1       -2 0.11005790E-01 0.18532708E+03</pdfrwt>
<totfact> 0.82735032E+02</totfact>
</mgrwt>
</event>
<event>
 4    1  0.3761914E-001  0.1971250E+03  0.7546771E-02  0.1152188E+00
         -2   -1    0    0    0  501 -0.00000000000E+00  0.00000000000E+00  0.30214394385E+02  0.30214394385E+02  0.00000000000E+00 0. -1.
          2   -1    0    0  502    0  0.00000000000E+00 -0.00000000000E+00 -0.14967304186E+04  0.14967304186E+04  0.00000000000E+00 0.  1.
          6    1    1    2  502    0  0.95278024402E+02  0.14013515354E+02 -0.10196741753E+04  0.10385536598E+04  0.17200000000E+03 0.  1.
         -6    1    1    2    0  501 -0.95278024402E+02 -0.14013515354E+02 -0.44684184887E+03  0.48839115312E+03  0.17200000000E+03 0.  1.
<mgrwt>
<rscale>  2 0.19712504E+03</rscale>
<asrwt>0</asrwt>
<pdfrwt beam="1">  1        2 0.37418259E+00 0.19712504E+03</pdfrwt>
<pdfrwt beam="2">  1       -2 0.75535990E-02 0.19712504E+03</pdfrwt>
<totfact> 0.46068913E+02</totfact>
</mgrwt>
</event>
<event>
 4    1  0.3761914E-001  0.1864459E+03  0.7546771E-02  0.1161706E+00
         -1   -1    0    0    0  501 -0.00000000000E+00  0.00000000000E+00  0.66010135768E+02  0.66010135768E+02  0.00000000000E+00 0.  1.
          1   -1    0    0  502    0  0.00000000000E+00 -0.00000000000E+00 -0.72832165038E+03  0.72832165038E+03  0.00000000000E+00 0. -1.
          6    1    1    2  502    0 -0.70998471731E+02  0.11717585949E+02 -0.12214536446E+03  0.22289364026E+03  0.17200000000E+03 0.  1.
         -6    1    1    2    0  501  0.70998471731E+02 -0.11717585949E+02 -0.54016615015E+03  0.57143814589E+03  0.17200000000E+03 0. -1.
<mgrwt>
<rscale>  2 0.18644593E+03</rscale>
<asrwt>0</asrwt>
<pdfrwt beam="1">  1        1 0.18208041E+00 0.18644593E+03</pdfrwt>
<pdfrwt beam="2">  1       -1 0.16502534E-01 0.18644593E+03</pdfrwt>
<totfact> 0.33070569E+02</totfact>
</mgrwt>
</event>
<event>
 4    1  0.3761914E-001  0.2100838E+03  0.7546771E-02  0.1141500E+00
         -2   -1    0    0    0  501 -0.00000000000E+00  0.00000000000E+00  0.87258712496E+02  0.87258712496E+02  0.00000000000E+00 0.  1.
          2   -1    0    0  502    0  0.00000000000E+00 -0.00000000000E+00 -0.51076895937E+03  0.51076895937E+03  0.00000000000E+00 0. -1.
          6    1    1    2  502    0 -0.94197205550E+02 -0.75353120816E+02 -0.24125615097E+03  0.31990582479E+03  0.17200000000E+03 0. -1.
         -6    1    1    2    0  501  0.94197205550E+02  0.75353120816E+02 -0.18225409590E+03  0.27812184708E+03  0.17200000000E+03 0.  1.
<mgrwt>
<rscale>  2 0.21008381E+03</rscale>
<asrwt>0</asrwt>
<pdfrwt beam="1">  1        2 0.12769224E+00 0.21008381E+03</pdfrwt>
<pdfrwt beam="2">  1       -2 0.21814678E-01 0.21008381E+03</pdfrwt>
<totfact> 0.61629912E+02</totfact>
</mgrwt>
</event>
<event>
 4    1  0.3761914E-001  0.2052690E+03  0.7546771E-02  0.1145368E+00
          2   -1    0    0  502    0  0.00000000000E+00  0.00000000000E+00  0.26673806327E+03  0.26673806327E+03  0.00000000000E+00 0.  1.
         -2   -1    0    0    0  501 -0.00000000000E+00 -0.00000000000E+00 -0.16323259161E+03  0.16323259161E+03  0.00000000000E+00 0. -1.
          6    1    1    2  502    0 -0.81743727928E+02 -0.76611615676E+02  0.90371306943E+02  0.22428185355E+03  0.17200000000E+03 0. -1.
         -6    1    1    2    0  501  0.81743727928E+02  0.76611615676E+02  0.13134164721E+02  0.20568880134E+03  0.17200000000E+03 0. -1.
<mgrwt>
<rscale>  2 0.20526903E+03</rscale>
<asrwt>0</asrwt>
<pdfrwt beam="1">  1        2 0.66684515E-01 0.20526903E+03</pdfrwt>
<pdfrwt beam="2">  1       -2 0.40808148E-01 0.20526903E+03</pdfrwt>
<totfact> 0.42218144E+02</totfact>
</mgrwt>
</event>
<event>
 4    1  0.3761914E-001  0.1870509E+03  0.7546771E-02  0.1161148E+00
          2   -1    0    0  502    0  0.00000000000E+00  0.00000000000E+00  0.11632234076E+03  0.11632234076E+03  0.00000000000E+00 0. -1.
         -2   -1    0    0    0  501 -0.00000000000E+00 -0.00000000000E+00 -0.38168888390E+03  0.38168888390E+03  0.00000000000E+00 0.  1.
          6    1    1    2  502    0 -0.57855000617E+02 -0.45352580555E+02 -0.24732377567E+03  0.31009209546E+03  0.17200000000E+03 0.  1.
         -6    1    1    2    0  501  0.57855000617E+02  0.45352580555E+02 -0.18042767469E+02  0.18791912919E+03  0.17200000000E+03 0. -1.
<mgrwt>
<rscale>  2 0.18705095E+03</rscale>
<asrwt>0</asrwt>
<pdfrwt beam="1">  1        2 0.29080585E-01 0.18705095E+03</pdfrwt>
<pdfrwt beam="2">  1       -2 0.95422220E-01 0.18705095E+03</pdfrwt>
<totfact> 0.17533082E+02</totfact>
</mgrwt>
</event>
<event>
 4    1  0.3761914E-001  0.2699317E+03  0.7546771E-02  0.1101319E+00
         -2   -1    0    0    0  501 -0.00000000000E+00  0.00000000000E+00  0.27425042169E+03  0.27425042169E+03  0.00000000000E+00 0. -1.
          2   -1    0    0  502    0  0.00000000000E+00 -0.00000000000E+00 -0.27158745181E+03  0.27158745181E+03  0.00000000000E+00 0.  1.
          6    1    1    2  502    0 -0.12598756496E+03  0.16554831300E+03 -0.38916512291E+02  0.27272257954E+03  0.17200000000E+03 0.  1.
         -6    1    1    2    0  501  0.12598756496E+03 -0.16554831300E+03  0.41579482172E+02  0.27311529396E+03  0.17200000000E+03 0.  1.
<mgrwt>
<rscale>  2 0.26993168E+03</rscale>
<asrwt>0</asrwt>
<pdfrwt beam="1">  1        2 0.67896863E-01 0.26993168E+03</pdfrwt>
<pdfrwt beam="2">  1       -2 0.68562606E-01 0.26993168E+03</pdfrwt>
<totfact> 0.14421776E+02</totfact>
</mgrwt>
</event>
<event>
 4    1  0.3761914E-001  0.2077047E+03  0.7546771E-02  0.1143397E+00
          2   -1    0    0  502    0  0.00000000000E+00  0.00000000000E+00  0.21219944998E+04  0.21219944998E+04  0.00000000000E+00 0.  1.
         -2   -1    0    0    0  501 -0.00000000000E+00 -0.00000000000E+00 -0.20637051237E+02  0.20637051237E+02  0.00000000000E+00 0. -1.
          6    1    1    2  502    0  0.11024149755E+03 -0.37470862105E+02  0.11812448416E+04  0.11993667617E+04  0.17200000000E+03 0. -1.
         -6    1    1    2    0  501 -0.11024149755E+03  0.37470862105E+02  0.92011260688E+03  0.94326478925E+03  0.17200000000E+03 0. -1.
<mgrwt>
<rscale>  2 0.20770473E+03</rscale>
<asrwt>0</asrwt>
<pdfrwt beam="1">  1        2 0.53049788E+00 0.20770473E+03</pdfrwt>
<pdfrwt beam="2">  1       -2 0.51592700E-02 0.20770473E+03</pdfrwt>
<totfact> 0.20991437E+02</totfact>
</mgrwt>
</event>
<event>
 4    1  0.3761914E-001  0.1749994E+03  0.7546771E-02  0.1172732E+00
          2   -1    0    0  502    0  0.00000000000E+00  0.00000000000E+00  0.70047719993E+03  0.70047719993E+03  0.00000000000E+00 0. -1.
         -2   -1    0    0    0  501 -0.00000000000E+00 -0.00000000000E+00 -0.10442103979E+03  0.10442103979E+03  0.00000000000E+00 0.  1.
          6    1    1    2  502    0  0.32060274930E+02  0.35954745196E+01  0.60487051542E+03  0.62967700378E+03  0.17200000000E+03 0. -1.
         -6    1    1    2    0  501 -0.32060274930E+02 -0.35954745196E+01 -0.88143552722E+01  0.17522123594E+03  0.17200000000E+03 0.  1.
<mgrwt>
<rscale>  2 0.17499940E+03</rscale>
<asrwt>0</asrwt>
<pdfrwt beam="1">  1        2 0.17511929E+00 0.17499940E+03</pdfrwt>
<pdfrwt beam="2">  1       -2 0.26105262E-01 0.17499940E+03</pdfrwt>
<totfact> 0.29242890E+02</totfact>
</mgrwt>
</event>
<event>
 4    1  0.3761914E-001  0.1915238E+03  0.7546771E-02  0.1157094E+00
         -1   -1    0    0    0  501 -0.00000000000E+00  0.00000000000E+00  0.81817047715E+02  0.81817047715E+02  0.00000000000E+00 0.  1.
          1   -1    0    0  502    0  0.00000000000E+00 -0.00000000000E+00 -0.77309747153E+03  0.77309747153E+03  0.00000000000E+00 0. -1.
          6    1    1    2  502    0 -0.16526801881E+02  0.82608835934E+02 -0.62269090086E+03  0.65147932658E+03  0.17200000000E+03 0. -1.
         -6    1    1    2    0  501  0.16526801881E+02 -0.82608835934E+02 -0.68589522961E+02  0.20343519267E+03  0.17200000000E+03 0.  1.
<mgrwt>
<rscale>  2 0.19152377E+03</rscale>
<asrwt>0</asrwt>
<pdfrwt beam="1">  1        1 0.19327437E+00 0.19152377E+03</pdfrwt>
<pdfrwt beam="2">  1       -1 0.20454262E-01 0.19152377E+03</pdfrwt>
<totfact> 0.20846651E+02</totfact>
</mgrwt>
</event>
<event>
 4    1  0.3761914E-001  0.2426862E+03  0.7546771E-02  0.1118016E+00
         -2   -1    0    0    0  501 -0.00000000000E+00  0.00000000000E+00  0.66171509350E+02  0.66171509350E+02  0.00000000000E+00 0. -1.
          2   -1    0    0  502    0  0.00000000000E+00 -0.00000000000E+00 -0.90357394613E+03  0.90357394613E+03  0.00000000000E+00 0.  1.
          6    1    1    2  502    0  0.12213459327E+03  0.11998215698E+03 -0.47800002069E+03  0.53607890897E+03  0.17200000000E+03 0. -1.
         -6    1    1    2    0  501 -0.12213459327E+03 -0.11998215698E+03 -0.35940241609E+03  0.43366654651E+03  0.17200000000E+03 0.  1.
<mgrwt>
<rscale>  2 0.24268617E+03</rscale>
<asrwt>0</asrwt>
<pdfrwt beam="1">  1        2 0.22589349E+00 0.24268617E+03</pdfrwt>
<pdfrwt beam="2">  1       -2 0.16542877E-01 0.24268617E+03</pdfrwt>
<totfact> 0.41627042E+02</totfact>
</mgrwt>
</event>
<event>
 4    1  0.3761914E-001  0.2820497E+03  0.7546771E-02  0.1094575E+00
          1   -1    0    0  502    0  0.00000000000E+00  0.00000000000E+00  0.46361916147E+03  0.46361916147E+03  0.00000000000E+00 0. -1.
         -1   -1    0    0    0  501 -0.00000000000E+00 -0.00000000000E+00 -0.17355558858E+03  0.17355558858E+03  0.00000000000E+00 0.  1.
          6    1    1    2  502    0 -0.13784688118E+03 -0.17597232141E+03  0.17894342750E+03  0.33402510505E+03  0.17200000000E+03 0.  1.
         -6    1    1    2    0  501  0.13784688118E+03  0.17597232141E+03  0.11112014539E+03  0.30314964500E+03  0.17200000000E+03 0.  1.
<mgrwt>
<rscale>  2 0.28204968E+03</rscale>
<asrwt>0</asrwt>
<pdfrwt beam="1">  1        1 0.11590479E+00 0.28204968E+03</pdfrwt>
<pdfrwt beam="2">  1       -1 0.43388898E-01 0.28204968E+03</pdfrwt>
<totfact> 0.13606262E+02</totfact>
</mgrwt>
</event>
<event>
 4    1  0.3761914E-001  0.1851409E+03  0.7546771E-02  0.1162918E+00
          2   -1    0    0  502    0  0.00000000000E+00  0.00000000000E+00  0.86554531531E+03  0.86554531531E+03  0.00000000000E+00 0.  1.
         -2   -1    0    0    0  501 -0.00000000000E+00 -0.00000000000E+00 -0.44036667135E+02  0.44036667135E+02  0.00000000000E+00 0. -1.
          6    1    1    2  502    0  0.65739726533E+02  0.19272843226E+02  0.55508041360E+03  0.58514222176E+03  0.17200000000E+03 0.  1.
         -6    1    1    2    0  501 -0.65739726533E+02 -0.19272843226E+02  0.26642823457E+03  0.32443976068E+03  0.17200000000E+03 0. -1.
<mgrwt>
<rscale>  2 0.18514090E+03</rscale>
<asrwt>0</asrwt>
<pdfrwt beam="1">  1        2 0.21638627E+00 0.18514090E+03</pdfrwt>
<pdfrwt beam="2">  1       -2 0.11009170E-01 0.18514090E+03</pdfrwt>
<totfact> 0.88048776E+02</totfact>
</mgrwt>
</event>
<event>
 4    1  0.3761914E-001  0.2786514E+03  0.7546771E-02  0.1096428E+00
         -2   -1    0    0    0  501 -0.00000000000E+00  0.00000000000E+00  0.11585732620E+03  0.11585732620E+03  0.00000000000E+00 0. -1.
          2   -1    0    0  502    0  0.00000000000E+00 -0.00000000000E+00 -0.70739070358E+03  0.70739070358E+03  0.00000000000E+00 0.  1.
          6    1    1    2  502    0 -0.20867702745E+03  0.67204966021E+02 -0.39015911405E+03  0.47944837419E+03  0.17200000000E+03 0. -1.
         -6    1    1    2    0  501  0.20867702745E+03 -0.67204966021E+02 -0.20137426334E+03  0.34379965558E+03  0.17200000000E+03 0. -1.
<mgrwt>
<rscale>  2 0.27865141E+03</rscale>
<asrwt>0</asrwt>
<pdfrwt beam="1">  1        2 0.17684767E+00 0.27865141E+03</pdfrwt>
<pdfrwt beam="2">  1       -2 0.28964332E-01 0.27865141E+03</pdfrwt>
<totfact> 0.23483085E+02</totfact>
</mgrwt>
</event>
<event>
 4    1  0.3761914E-001  0.1792663E+03  0.7546771E-02  0.1168515E+00
         -2   -1    0    0    0  501 -0.00000000000E+00  0.00000000000E+00  0.96918435164E+02  0.96918435164E+02  0.00000000000E+00 0.  1.
          2   -1    0    0  502    0  0.00000000000E+00 -0.00000000000E+00 -0.58299990629E+03  0.58299990629E+03  0.00000000000E+00 0. -1.
          6    1    1    2  502    0 -0.72525201402E+01 -0.49998193589E+02 -0.46629025552E+03  0.49956282969E+03  0.17200000000E+03 0.  1.
         -6    1    1    2    0  501  0.72525201402E+01  0.49998193589E+02 -0.19791215607E+02  0.18035551177E+03  0.17200000000E+03 0.  1.
<mgrwt>
<rscale>  2 0.17926633E+03</rscale>
<asrwt>0</asrwt>
<pdfrwt beam="1">  1        2 0.14574997E+00 0.17926633E+03</pdfrwt>
<pdfrwt beam="2">  1       -2 0.24229609E-01 0.17926633E+03</pdfrwt>
<totfact> 0.43249550E+02</totfact>
</mgrwt>
</event>
<event>
 4    1  0.3761914E-001  0.1816513E+03  0.7546771E-02  0.1166214E+00
          1   -1    0    0  502    0  0.00000000000E+00  0.00000000000E+00  0.58529799843E+03  0.58529799843E+03  0.00000000000E+00 0. -1.
         -1   -1    0    0    0  501 -0.00000000000E+00 -0.00000000000E+00 -0.59251157767E+02  0.59251157767E+02  0.00000000000E+00 0.  1.
          6    1    1    2  502    0 -0.23820187931E+02  0.53345855392E+02  0.19204046958E+03  0.26434205794E+03  0.17200000000E+03 0.  1.
         -6    1    1    2    0  501  0.23820187931E+02 -0.53345855392E+02  0.33400637108E+03  0.38020709826E+03  0.17200000000E+03 0. -1.
<mgrwt>
<rscale>  2 0.18165126E+03</rscale>
<asrwt>0</asrwt>
<pdfrwt beam="1">  1        1 0.14632448E+00 0.18165126E+03</pdfrwt>
<pdfrwt beam="2">  1       -1 0.14812791E-01 0.18165126E+03</pdfrwt>
<totfact> 0.57808675E+02</totfact>
</mgrwt>
</event>
<event>
 4    1  0.3761914E-001  0.1736572E+03  0.7546771E-02  0.1174087E+00
         -2   -1    0    0    0  501 -0.00000000000E+00  0.00000000000E+00  0.98806712223E+03  0.98806712223E+03  0.00000000000E+00 0.  1.
          2   -1    0    0  502    0  0.00000000000E+00 -0.00000000000E+00 -0.79422281165E+02  0.79422281165E+02  0.00000000000E+00 0. -1.
          6    1    1    2  502    0  0.19917035897E+02 -0.13271412807E+02  0.87313760412E+03  0.89023934672E+03  0.17200000000E+03 0.  1.
         -6    1    1    2    0  501 -0.19917035897E+02  0.13271412807E+02  0.35507236947E+02  0.17725005668E+03  0.17200000000E+03 0. -1.
<mgrwt>
<rscale>  2 0.17365719E+03</rscale>
<asrwt>0</asrwt>
<pdfrwt beam="1">  1        2 0.19855573E-01 0.17365719E+03</pdfrwt>
<pdfrwt beam="2">  1       -2 0.24701674E+00 0.17365719E+03</pdfrwt>
<totfact> 0.21527304E+01</totfact>
</mgrwt>
</event>
<event>
 4    1  0.3761914E-001  0.2154634E+03  0.7546771E-02  0.1137311E+00
         -2   -1    0    0    0  501 -0.00000000000E+00  0.00000000000E+00  0.19077680521E+02  0.19077680521E+02  0.00000000000E+00 0. -1.
          2   -1    0    0  502    0  0.00000000000E+00 -0.00000000000E+00 -0.24344747510E+04  0.24344747510E+04  0.00000000000E+00 0.  1.
          6    1    1    2  502    0  0.89909140314E+02 -0.93577930697E+02 -0.11824655188E+04  0.12019355997E+04  0.17200000000E+03 0.  1.
         -6    1    1    2    0  501 -0.89909140314E+02  0.93577930697E+02 -0.12329315517E+04  0.12516168319E+04  0.17200000000E+03 0.  1.
<mgrwt>
<rscale>  2 0.21546341E+03</rscale>
<asrwt>0</asrwt>
<pdfrwt beam="1">  1        2 0.60861864E+00 0.21546341E+03</pdfrwt>
<pdfrwt beam="2">  1       -2 0.47694205E-02 0.21546341E+03</pdfrwt>
<totfact> 0.10445101E+02</totfact>
</mgrwt>
</event>
<event>
 4    1  0.3761914E-001  0.1784612E+03  0.7546771E-02  0.1169301E+00
          2   -1    0    0  502    0  0.00000000000E+00  0.00000000000E+00  0.16582445503E+03  0.16582445503E+03  0.00000000000E+00 0. -1.
         -2   -1    0    0    0  501 -0.00000000000E+00 -0.00000000000E+00 -0.19295918437E+03  0.19295918437E+03  0.00000000000E+00 0.  1.
          6    1    1    2  502    0 -0.45593736152E+02  0.13623703579E+02 -0.13274940525E+01  0.17846612092E+03  0.17200000000E+03 0. -1.
         -6    1    1    2    0  501  0.45593736152E+02 -0.13623703579E+02 -0.25807235289E+02  0.18031751847E+03  0.17200000000E+03 0.  1.
<mgrwt>
<rscale>  2 0.17846118E+03</rscale>
<asrwt>0</asrwt>
<pdfrwt beam="1">  1        2 0.41456114E-01 0.17846118E+03</pdfrwt>
<pdfrwt beam="2">  1       -2 0.48239796E-01 0.17846118E+03</pdfrwt>
<totfact> 0.50865937E+02</totfact>
</mgrwt>
</event>
<event>
 4    1  0.3761914E-001  0.1972271E+03  0.7546771E-02  0.1152100E+00
          1   -1    0    0  502    0  0.00000000000E+00  0.00000000000E+00  0.26902183648E+02  0.26902183648E+02  0.00000000000E+00 0. -1.
         -1   -1    0    0    0  501 -0.00000000000E+00 -0.00000000000E+00 -0.14568268059E+04  0.14568268059E+04  0.00000000000E+00 0.  1.
          6    1    1    2  502    0  0.84370357848E+02 -0.46863526065E+02 -0.65078754137E+03  0.68001689050E+03  0.17200000000E+03 0.  1.
         -6    1    1    2    0  501 -0.84370357848E+02  0.46863526065E+02 -0.77913708091E+03  0.80371209908E+03  0.17200000000E+03 0. -1.
<mgrwt>
<rscale>  2 0.19722715E+03</rscale>
<asrwt>0</asrwt>
<pdfrwt beam="1">  1        1 0.67255458E-02 0.19722715E+03</pdfrwt>
<pdfrwt beam="2">  1       -1 0.36420671E+00 0.19722715E+03</pdfrwt>
<totfact> 0.17088879E+01</totfact>
</mgrwt>
</event>
<event>
 4    1  0.3761914E-001  0.1869408E+03  0.7546771E-02  0.1161250E+00
          2   -1    0    0  502    0  0.00000000000E+00  0.00000000000E+00  0.94474142129E+03  0.94474142129E+03  0.00000000000E+00 0.  1.
         -2   -1    0    0    0  501 -0.00000000000E+00 -0.00000000000E+00 -0.37985391140E+02  0.37985391140E+02  0.00000000000E+00 0. -1.
          6    1    1    2  502    0  0.11953954580E+01  0.73221732132E+02  0.53288245184E+03  0.56472166463E+03  0.17200000000E+03 0.  1.
         -6    1    1    2    0  501 -0.11953954580E+01 -0.73221732132E+02  0.37387357832E+03  0.41800514780E+03  0.17200000000E+03 0.  1.
<mgrwt>
<rscale>  2 0.18694077E+03</rscale>
<asrwt>0</asrwt>
<pdfrwt beam="1">  1        2 0.23618528E+00 0.18694077E+03</pdfrwt>
<pdfrwt beam="2">  1       -2 0.94963509E-02 0.18694077E+03</pdfrwt>
<totfact> 0.95108389E+02</totfact>
</mgrwt>
</event>
<event>
 4    1  0.3761914E-001  0.1988284E+03  0.7546771E-02  0.1150731E+00
         -1   -1    0    0    0  501 -0.00000000000E+00  0.00000000000E+00  0.79257723348E+02  0.79257723348E+02  0.00000000000E+00 0.  1.
          1   -1    0    0  502    0  0.00000000000E+00 -0.00000000000E+00 -0.55640656497E+03  0.55640656497E+03  0.00000000000E+00 0. -1.
          6    1    1    2  502    0  0.99674293398E+02 -0.37109866289E+01 -0.13629552976E+03  0.24105851493E+03  0.17200000000E+03 0.  1.
         -6    1    1    2    0  501 -0.99674293398E+02  0.37109866289E+01 -0.34085331186E+03  0.39460577339E+03  0.17200000000E+03 0. -1.
<mgrwt>
<rscale>  2 0.19882841E+03</rscale>
<asrwt>0</asrwt>
<pdfrwt beam="1">  1        1 0.13910164E+00 0.19882841E+03</pdfrwt>
<pdfrwt beam="2">  1       -1 0.19814431E-01 0.19882841E+03</pdfrwt>
<totfact> 0.39386663E+02</totfact>
</mgrwt>
</event>
<event>
 4    1  0.3761914E-001  0.1834294E+03  0.7546771E-02  0.1164525E+00
          2   -1    0    0  502    0  0.00000000000E+00  0.00000000000E+00  0.40615192953E+03  0.40615192953E+03  0.00000000000E+00 0.  1.
         -2   -1    0    0    0  501 -0.00000000000E+00 -0.00000000000E+00 -0.10473470778E+03  0.10473470778E+03  0.00000000000E+00 0. -1.
          6    1    1    2  502    0  0.63646750362E+02 -0.33792641713E+01  0.33919686449E+02  0.18653920067E+03  0.17200000000E+03 0. -1.
         -6    1    1    2    0  501 -0.63646750362E+02  0.33792641713E+01  0.26749753530E+03  0.32434743663E+03  0.17200000000E+03 0.  1.
<mgrwt>
<rscale>  2 0.18342935E+03</rscale>
<asrwt>0</asrwt>
<pdfrwt beam="1">  1        2 0.10153798E+00 0.18342935E+03</pdfrwt>
<pdfrwt beam="2">  1       -2 0.26183678E-01 0.18342935E+03</pdfrwt>
<totfact> 0.59438512E+02</totfact>
</mgrwt>
</event>
<event>
 4    1  0.3761914E-001  0.2769908E+03  0.7546771E-02  0.1097344E+00
          2   -1    0    0  502    0  0.00000000000E+00  0.00000000000E+00  0.85543820541E+03  0.85543820541E+03  0.00000000000E+00 0. -1.
         -2   -1    0    0    0  501 -0.00000000000E+00 -0.00000000000E+00 -0.96748775098E+02  0.96748775098E+02  0.00000000000E+00 0.  1.
          6    1    1    2  502    0  0.17304582625E+03 -0.13112992414E+03  0.50794629987E+03  0.57856145615E+03  0.17200000000E+03 0. -1.
         -6    1    1    2    0  501 -0.17304582625E+03  0.13112992414E+03  0.25074313045E+03  0.37362552436E+03  0.17200000000E+03 0.  1.
<mgrwt>
<rscale>  2 0.27699082E+03</rscale>
<asrwt>0</asrwt>
<pdfrwt beam="1">  1        2 0.21385953E+00 0.27699082E+03</pdfrwt>
<pdfrwt beam="2">  1       -2 0.24187196E-01 0.27699082E+03</pdfrwt>
<totfact> 0.23764221E+02</totfact>
</mgrwt>
</event>
<event>
 4    1  0.3761914E-001  0.1867956E+03  0.7546771E-02  0.1161384E+00
         -2   -1    0    0    0  501 -0.00000000000E+00  0.00000000000E+00  0.36583117162E+02  0.36583117162E+02  0.00000000000E+00 0. -1.
          2   -1    0    0  502    0  0.00000000000E+00 -0.00000000000E+00 -0.10944678204E+04  0.10944678204E+04  0.00000000000E+00 0.  1.
          6    1    1    2  502    0 -0.54134533953E+00  0.72858172593E+02 -0.32619102978E+03  0.37588986988E+03  0.17200000000E+03 0. -1.
         -6    1    1    2    0  501  0.54134533953E+00 -0.72858172593E+02 -0.73169367350E+03  0.75516106772E+03  0.17200000000E+03 0.  1.
<mgrwt>
<rscale>  2 0.18679563E+03</rscale>
<asrwt>0</asrwt>
<pdfrwt beam="1">  1        2 0.27361695E+00 0.18679563E+03</pdfrwt>
<pdfrwt beam="2">  1       -2 0.91457795E-02 0.18679563E+03</pdfrwt>
<totfact> 0.75361803E+02</totfact>
</mgrwt>
</event>
<event>
 4    1  0.3761914E-001  0.1987930E+03  0.7546771E-02  0.1150761E+00
         -1   -1    0    0    0  501 -0.00000000000E+00  0.00000000000E+00  0.13433898884E+03  0.13433898884E+03  0.00000000000E+00 0.  1.
          1   -1    0    0  502    0  0.00000000000E+00 -0.00000000000E+00 -0.67087853112E+03  0.67087853112E+03  0.00000000000E+00 0. -1.
          6    1    1    2  502    0  0.56679353104E+02  0.81988479584E+02  0.33421896966E+02  0.20158294335E+03  0.17200000000E+03 0.  1.
         -6    1    1    2    0  501 -0.56679353104E+02 -0.81988479584E+02 -0.56996143925E+03  0.60363457661E+03  0.17200000000E+03 0. -1.
<mgrwt>
<rscale>  2 0.19879301E+03</rscale>
<asrwt>0</asrwt>
<pdfrwt beam="1">  1        1 0.16771963E+00 0.19879301E+03</pdfrwt>
<pdfrwt beam="2">  1       -1 0.33584748E-01 0.19879301E+03</pdfrwt>
<totfact> 0.11883601E+02</totfact>
</mgrwt>
</event>
<event>
 4    1  0.3761914E-001  0.2025031E+03  0.7546771E-02  0.1147644E+00
         -3   -1    0    0    0  501 -0.00000000000E+00  0.00000000000E+00  0.23451770798E+03  0.23451770798E+03  0.00000000000E+00 0. -1.
          3   -1    0    0  502    0  0.00000000000E+00 -0.00000000000E+00 -0.17636382251E+03  0.17636382251E+03  0.00000000000E+00 0.  1.
          6    1    1    2  502    0  0.42311810790E+02  0.98148956806E+02  0.10099407848E+02  0.20275479056E+03  0.17200000000E+03 0. -1.
         -6    1    1    2    0  501 -0.42311810790E+02 -0.98148956806E+02  0.48054477627E+02  0.20812673993E+03  0.17200000000E+03 0. -1.
<mgrwt>
<rscale>  2 0.20250310E+03</rscale>
<asrwt>0</asrwt>
<pdfrwt beam="1">  1        3 0.44090956E-01 0.20250310E+03</pdfrwt>
<pdfrwt beam="2">  1       -3 0.58629427E-01 0.20250310E+03</pdfrwt>
<totfact> 0.36247736E+01</totfact>
</mgrwt>
</event>
<event>
 4    1  0.3761914E-001  0.1745668E+03  0.7546771E-02  0.1173167E+00
         -2   -1    0    0    0  501 -0.00000000000E+00  0.00000000000E+00  0.29353695007E+02  0.29353695007E+02  0.00000000000E+00 0.  1.
          2   -1    0    0  502    0  0.00000000000E+00 -0.00000000000E+00 -0.10937138370E+04  0.10937138370E+04  0.00000000000E+00 0. -1.
          6    1    1    2  502    0 -0.25857651869E+02  0.14864953965E+02 -0.65874516332E+03  0.68148277690E+03  0.17200000000E+03 0. -1.
         -6    1    1    2    0  501  0.25857651869E+02 -0.14864953965E+02 -0.40561497866E+03  0.44158475509E+03  0.17200000000E+03 0. -1.
<mgrwt>
<rscale>  2 0.17456685E+03</rscale>
<asrwt>0</asrwt>
<pdfrwt beam="1">  1        2 0.27342845E+00 0.17456685E+03</pdfrwt>
<pdfrwt beam="2">  1       -2 0.73384240E-02 0.17456685E+03</pdfrwt>
<totfact> 0.10654725E+03</totfact>
</mgrwt>
</event>
<event>
 4    1  0.3761914E-001  0.1786143E+03  0.7546771E-02  0.1169151E+00
          2   -1    0    0  502    0  0.00000000000E+00  0.00000000000E+00  0.40808988782E+03  0.40808988782E+03  0.00000000000E+00 0. -1.
         -2   -1    0    0    0  501 -0.00000000000E+00 -0.00000000000E+00 -0.84881625943E+02  0.84881625943E+02  0.00000000000E+00 0.  1.
          6    1    1    2  502    0 -0.25602289311E+02  0.40786949587E+02  0.92327398797E+02  0.20106566351E+03  0.17200000000E+03 0.  1.
         -6    1    1    2    0  501  0.25602289311E+02 -0.40786949587E+02  0.23088086308E+03  0.29190585025E+03  0.17200000000E+03 0. -1.
<mgrwt>
<rscale>  2 0.17861426E+03</rscale>
<asrwt>0</asrwt>
<pdfrwt beam="1">  1        2 0.10202247E+00 0.17861426E+03</pdfrwt>
<pdfrwt beam="2">  1       -2 0.21220408E-01 0.17861426E+03</pdfrwt>
<totfact> 0.85249740E+02</totfact>
</mgrwt>
</event>
<event>
 4    1  0.3761914E-001  0.2924414E+03  0.7546771E-02  0.1089081E+00
         -2   -1    0    0    0  501 -0.00000000000E+00  0.00000000000E+00  0.39555157744E+03  0.39555157744E+03  0.00000000000E+00 0. -1.
          2   -1    0    0  502    0  0.00000000000E+00 -0.00000000000E+00 -0.36699540353E+03  0.36699540353E+03  0.00000000000E+00 0.  1.
          6    1    1    2  502    0  0.21847209285E+03 -0.90597420086E+02 -0.23011385984E+03  0.37212140004E+03  0.17200000000E+03 0.  1.
         -6    1    1    2    0  501 -0.21847209285E+03  0.90597420086E+02  0.25867003376E+03  0.39042558093E+03  0.17200000000E+03 0. -1.
<mgrwt>
<rscale>  2 0.29244136E+03</rscale>
<asrwt>0</asrwt>
<pdfrwt beam="1">  1        2 0.91748851E-01 0.29244136E+03</pdfrwt>
<pdfrwt beam="2">  1       -2 0.98887894E-01 0.29244136E+03</pdfrwt>
<totfact> 0.45160708E+01</totfact>
</mgrwt>
</event>
<event>
 4    1  0.3761914E-001  0.2057158E+03  0.7546771E-02  0.1145004E+00
         -2   -1    0    0    0  501 -0.00000000000E+00  0.00000000000E+00  0.51527320697E+02  0.51527320697E+02  0.00000000000E+00 0.  1.
          2   -1    0    0  502    0  0.00000000000E+00 -0.00000000000E+00 -0.99600644112E+03  0.99600644112E+03  0.00000000000E+00 0. -1.
          6    1    1    2  502    0  0.89065799651E+02 -0.69298385676E+02 -0.69160651226E+03  0.72155287451E+03  0.17200000000E+03 0. -1.
         -6    1    1    2    0  501 -0.89065799651E+02  0.69298385676E+02 -0.25287260817E+03  0.32598088730E+03  0.17200000000E+03 0.  1.
<mgrwt>
<rscale>  2 0.20571578E+03</rscale>
<asrwt>0</asrwt>
<pdfrwt beam="1">  1        2 0.24900162E+00 0.20571578E+03</pdfrwt>
<pdfrwt beam="2">  1       -2 0.12881830E-01 0.20571578E+03</pdfrwt>
<totfact> 0.52668099E+02</totfact>
</mgrwt>
</event>
<event>
 4    1  0.3761914E-001  0.1794802E+03  0.7546771E-02  0.1168307E+00
          1   -1    0    0  502    0  0.00000000000E+00  0.00000000000E+00  0.51982717127E+03  0.51982717127E+03  0.00000000000E+00 0. -1.
         -1   -1    0    0    0  501 -0.00000000000E+00 -0.00000000000E+00 -0.68151970612E+02  0.68151970612E+02  0.00000000000E+00 0.  1.
          6    1    1    2  502    0 -0.39888503321E+02  0.32218692269E+02  0.31438861583E+03  0.36201289838E+03  0.17200000000E+03 0. -1.
         -6    1    1    2    0  501  0.39888503321E+02 -0.32218692269E+02  0.13728658482E+03  0.22596624350E+03  0.17200000000E+03 0.  1.
<mgrwt>
<rscale>  2 0.17948019E+03</rscale>
<asrwt>0</asrwt>
<pdfrwt beam="1">  1        1 0.12995678E+00 0.17948019E+03</pdfrwt>
<pdfrwt beam="2">  1       -1 0.17037994E-01 0.17948019E+03</pdfrwt>
<totfact> 0.56043565E+02</totfact>
</mgrwt>
</event>
<event>
 4    1  0.3761914E-001  0.2112478E+03  0.7546771E-02  0.1140582E+00
         -2   -1    0    0    0  501 -0.00000000000E+00  0.00000000000E+00  0.12961150630E+04  0.12961150630E+04  0.00000000000E+00 0. -1.
          2   -1    0    0  502    0  0.00000000000E+00 -0.00000000000E+00 -0.62531607529E+02  0.62531607529E+02  0.00000000000E+00 0.  1.
          6    1    1    2  502    0  0.88977851059E+02 -0.84407183303E+02  0.16139490147E+03  0.26584571614E+03  0.17200000000E+03 0.  1.
         -6    1    1    2    0  501 -0.88977851059E+02  0.84407183303E+02  0.10721885540E+04  0.10928009544E+04  0.17200000000E+03 0. -1.
<mgrwt>
<rscale>  2 0.21124779E+03</rscale>
<asrwt>0</asrwt>
<pdfrwt beam="1">  1        2 0.15632906E-01 0.21124779E+03</pdfrwt>
<pdfrwt beam="2">  1       -2 0.32402868E+00 0.21124779E+03</pdfrwt>
<totfact> 0.10014732E+01</totfact>
</mgrwt>
</event>
<event>
 4    1  0.3761914E-001  0.1822356E+03  0.7546771E-02  0.1165657E+00
         -2   -1    0    0    0  501 -0.00000000000E+00  0.00000000000E+00  0.39761129984E+03  0.39761129984E+03  0.00000000000E+00 0. -1.
          2   -1    0    0  502    0  0.00000000000E+00 -0.00000000000E+00 -0.88651615626E+02  0.88651615626E+02  0.00000000000E+00 0.  1.
          6    1    1    2  502    0 -0.46880149479E+02 -0.37789950871E+02  0.21295655765E+03  0.28028614708E+03  0.17200000000E+03 0. -1.
         -6    1    1    2    0  501  0.46880149479E+02  0.37789950871E+02  0.96003126565E+02  0.20597676838E+03  0.17200000000E+03 0.  1.
<mgrwt>
<rscale>  2 0.18223564E+03</rscale>
<asrwt>0</asrwt>
<pdfrwt beam="1">  1        2 0.22162905E-01 0.18223564E+03</pdfrwt>
<pdfrwt beam="2">  1       -2 0.99402820E-01 0.18223564E+03</pdfrwt>
<totfact> 0.21588565E+02</totfact>
</mgrwt>
</event>
<event>
 4    1  0.3761914E-001  0.1823985E+03  0.7546771E-02  0.1165502E+00
          1   -1    0    0  502    0  0.00000000000E+00  0.00000000000E+00  0.31524887190E+03  0.31524887190E+03  0.00000000000E+00 0. -1.
         -1   -1    0    0    0  501 -0.00000000000E+00 -0.00000000000E+00 -0.11492360578E+03  0.11492360578E+03  0.00000000000E+00 0.  1.
          6    1    1    2  502    0  0.52060415607E+02 -0.31223846610E+02  0.38680251702E+02  0.18645475951E+03  0.17200000000E+03 0.  1.
         -6    1    1    2    0  501 -0.52060415607E+02  0.31223846610E+02  0.16164501442E+03  0.24371771818E+03  0.17200000000E+03 0. -1.
<mgrwt>
<rscale>  2 0.18239851E+03</rscale>
<asrwt>0</asrwt>
<pdfrwt beam="1">  1        1 0.78812216E-01 0.18239851E+03</pdfrwt>
<pdfrwt beam="2">  1       -1 0.28730902E-01 0.18239851E+03</pdfrwt>
<totfact> 0.48603201E+02</totfact>
</mgrwt>
</event>
<event>
 4    1  0.3761914E-001  0.1821972E+03  0.7546771E-02  0.1165693E+00
          2   -1    0    0  502    0  0.00000000000E+00  0.00000000000E+00  0.33489744695E+03  0.33489744695E+03  0.00000000000E+00 0. -1.
         -2   -1    0    0    0  501 -0.00000000000E+00 -0.00000000000E+00 -0.11048614975E+03  0.11048614975E+03  0.00000000000E+00 0.  1.
          6    1    1    2  502    0  0.44804626320E+02  0.40054341257E+02  0.40786763244E+02  0.18670662776E+03  0.17200000000E+03 0.  1.
         -6    1    1    2    0  501 -0.44804626320E+02 -0.40054341257E+02  0.18362453395E+03  0.25867696895E+03  0.17200000000E+03 0. -1.
<mgrwt>
<rscale>  2 0.18219716E+03</rscale>
<asrwt>0</asrwt>
<pdfrwt beam="1">  1        2 0.83724359E-01 0.18219716E+03</pdfrwt>
<pdfrwt beam="2">  1       -2 0.27621538E-01 0.18219716E+03</pdfrwt>
<totfact> 0.67500071E+02</totfact>
</mgrwt>
</event>
<event>
 4    1  0.3761914E-001  0.1770977E+03  0.7546771E-02  0.1170642E+00
         -2   -1    0    0    0  501 -0.00000000000E+00  0.00000000000E+00  0.10394102084E+03  0.10394102084E+03  0.00000000000E+00 0.  1.
          2   -1    0    0  502    0  0.00000000000E+00 -0.00000000000E+00 -0.49218521828E+03  0.49218521828E+03  0.00000000000E+00 0. -1.
          6    1    1    2  502    0 -0.40660587622E+02  0.11238331901E+02 -0.87158402529E+01  0.17731201133E+03  0.17200000000E+03 0.  1.
         -6    1    1    2    0  501  0.40660587622E+02 -0.11238331901E+02 -0.37952835719E+03  0.41881422779E+03  0.17200000000E+03 0. -1.
<mgrwt>
<rscale>  2 0.17709767E+03</rscale>
<asrwt>0</asrwt>
<pdfrwt beam="1">  1        2 0.12304630E+00 0.17709767E+03</pdfrwt>
<pdfrwt beam="2">  1       -2 0.25985255E-01 0.17709767E+03</pdfrwt>
<totfact> 0.47704109E+02</totfact>
</mgrwt>
</event>
<event>
 4    1  0.3761914E-001  0.2381654E+03  0.7546771E-02  0.1121021E+00
         -2   -1    0    0    0  501 -0.00000000000E+00  0.00000000000E+00  0.42611451795E+03  0.42611451795E+03  0.00000000000E+00 0. -1.
          2   -1    0    0  502    0  0.00000000000E+00 -0.00000000000E+00 -0.13787511599E+03  0.13787511599E+03  0.00000000000E+00 0.  1.
          6    1    1    2  502    0 -0.93324927936E+02 -0.13575430826E+03  0.91729616877E+02  0.25521970339E+03  0.17200000000E+03 0. -1.
         -6    1    1    2    0  501  0.93324927936E+02  0.13575430826E+03  0.19650978508E+03  0.30876993056E+03  0.17200000000E+03 0.  1.
<mgrwt>
<rscale>  2 0.23816543E+03</rscale>
<asrwt>0</asrwt>
<pdfrwt beam="1">  1        2 0.34468780E-01 0.23816543E+03</pdfrwt>
<pdfrwt beam="2">  1       -2 0.10652863E+00 0.23816543E+03</pdfrwt>
<totfact> 0.11228011E+02</totfact>
</mgrwt>
</event>
<event>
 4    1  0.3761914E-001  0.3331084E+03  0.7546771E-02  0.1069770E+00
         -1   -1    0    0    0  501 -0.00000000000E+00  0.00000000000E+00  0.14696453563E+03  0.14696453563E+03  0.00000000000E+00 0.  1.
          1   -1    0    0  502    0  0.00000000000E+00 -0.00000000000E+00 -0.76095306240E+03  0.76095306240E+03  0.00000000000E+00 0. -1.
          6    1    1    2  502    0 -0.47371723282E+02  0.28130611299E+03 -0.34707775881E+03  0.48106567123E+03  0.17200000000E+03 0. -1.
         -6    1    1    2    0  501  0.47371723282E+02 -0.28130611299E+03 -0.26691076796E+03  0.42685192681E+03  0.17200000000E+03 0.  1.
<mgrwt>
<rscale>  2 0.33310840E+03</rscale>
<asrwt>0</asrwt>
<pdfrwt beam="1">  1        1 0.19023826E+00 0.33310840E+03</pdfrwt>
<pdfrwt beam="2">  1       -1 0.36741134E-01 0.33310840E+03</pdfrwt>
<totfact> 0.77407892E+01</totfact>
</mgrwt>
</event>
<event>
 4    1  0.3761914E-001  0.1908187E+03  0.7546771E-02  0.1157725E+00
         -2   -1    0    0    0  501 -0.00000000000E+00  0.00000000000E+00  0.13571444961E+04  0.13571444961E+04  0.00000000000E+00 0. -1.
          2   -1    0    0  502    0  0.00000000000E+00 -0.00000000000E+00 -0.30720992707E+02  0.30720992707E+02  0.00000000000E+00 0.  1.
          6    1    1    2  502    0 -0.26271886625E+02 -0.78342521168E+02  0.41623992790E+03  0.45789457326E+03  0.17200000000E+03 0.  1.
         -6    1    1    2    0  501  0.26271886625E+02  0.78342521168E+02  0.91018357550E+03  0.92997091554E+03  0.17200000000E+03 0. -1.
<mgrwt>
<rscale>  2 0.19081866E+03</rscale>
<asrwt>0</asrwt>
<pdfrwt beam="1">  1        2 0.76802527E-02 0.19081866E+03</pdfrwt>
<pdfrwt beam="2">  1       -2 0.33928592E+00 0.19081866E+03</pdfrwt>
<totfact> 0.19602716E+01</totfact>
</mgrwt>
</event>
<event>
 4    1  0.3761914E-001  0.1754030E+03  0.7546771E-02  0.1172328E+00
          2   -1    0    0  502    0  0.00000000000E+00  0.00000000000E+00  0.64824403216E+03  0.64824403216E+03  0.00000000000E+00 0. -1.
         -2   -1    0    0    0  501 -0.00000000000E+00 -0.00000000000E+00 -0.51620501132E+02  0.51620501132E+02  0.00000000000E+00 0.  1.
          6    1    1    2  502    0 -0.24399059094E+02 -0.24225747081E+02  0.39764676443E+03  0.43461379427E+03  0.17200000000E+03 0. -1.
         -6    1    1    2    0  501  0.24399059094E+02  0.24225747081E+02  0.19897676659E+03  0.26525073902E+03  0.17200000000E+03 0.  1.
<mgrwt>
<rscale>  2 0.17540297E+03</rscale>
<asrwt>0</asrwt>
<pdfrwt beam="1">  1        2 0.16206098E+00 0.17540297E+03</pdfrwt>
<pdfrwt beam="2">  1       -2 0.12905127E-01 0.17540297E+03</pdfrwt>
<totfact> 0.10743607E+03</totfact>
</mgrwt>
</event>
<event>
 4    1  0.3761914E-001  0.2139742E+03  0.7546771E-02  0.1138457E+00
         -2   -1    0    0    0  501 -0.00000000000E+00  0.00000000000E+00  0.18071202685E+03  0.18071202685E+03  0.00000000000E+00 0.  1.
          2   -1    0    0  502    0  0.00000000000E+00 -0.00000000000E+00 -0.45066978428E+03  0.45066978428E+03  0.00000000000E+00 0. -1.
          6    1    1    2  502    0  0.12728288808E+03 -0.69788657496E-01 -0.34386459732E+03  0.40500345648E+03  0.17200000000E+03 0. -1.
         -6    1    1    2    0  501 -0.12728288808E+03  0.69788657496E-01  0.73906839892E+02  0.22637835465E+03  0.17200000000E+03 0.  1.
<mgrwt>
<rscale>  2 0.21397415E+03</rscale>
<asrwt>0</asrwt>
<pdfrwt beam="1">  1        2 0.11266745E+00 0.21397415E+03</pdfrwt>
<pdfrwt beam="2">  1       -2 0.45178007E-01 0.21397415E+03</pdfrwt>
<totfact> 0.18984440E+02</totfact>
</mgrwt>
</event>
<event>
 4    1  0.3761914E-001  0.1773329E+03  0.7546771E-02  0.1170410E+00
          1   -1    0    0  502    0  0.00000000000E+00  0.00000000000E+00  0.51732815242E+03  0.51732815242E+03  0.00000000000E+00 0. -1.
         -1   -1    0    0    0  501 -0.00000000000E+00 -0.00000000000E+00 -0.73313619693E+02  0.73313619693E+02  0.00000000000E+00 0.  1.
          6    1    1    2  502    0  0.43065385119E+02 -0.28868658408E+01  0.34407875888E+03  0.38708804386E+03  0.17200000000E+03 0. -1.
         -6    1    1    2    0  501 -0.43065385119E+02  0.28868658408E+01  0.99935773847E+02  0.20355372825E+03  0.17200000000E+03 0.  1.
<mgrwt>
<rscale>  2 0.17733291E+03</rscale>
<asrwt>0</asrwt>
<pdfrwt beam="1">  1        1 0.12933203E+00 0.17733291E+03</pdfrwt>
<pdfrwt beam="2">  1       -1 0.18328406E-01 0.17733291E+03</pdfrwt>
<totfact> 0.50256665E+02</totfact>
</mgrwt>
</event>
<event>
 4    1  0.3761914E-001  0.1923526E+03  0.7546771E-02  0.1156356E+00
         -1   -1    0    0    0  501 -0.00000000000E+00  0.00000000000E+00  0.54195868621E+02  0.54195868621E+02  0.00000000000E+00 0.  1.
          1   -1    0    0  502    0  0.00000000000E+00 -0.00000000000E+00 -0.69075995193E+03  0.69075995193E+03  0.00000000000E+00 0. -1.
          6    1    1    2  502    0  0.86109026908E+02 -0.87019842146E+00 -0.35851686072E+03  0.40685852723E+03  0.17200000000E+03 0.  1.
         -6    1    1    2    0  501 -0.86109026908E+02  0.87019842146E+00 -0.27804722259E+03  0.33809729332E+03  0.17200000000E+03 0. -1.
<mgrwt>
<rscale>  2 0.19235260E+03</rscale>
<asrwt>0</asrwt>
<pdfrwt beam="1">  1        1 0.17268999E+00 0.19235260E+03</pdfrwt>
<pdfrwt beam="2">  1       -1 0.13548967E-01 0.19235260E+03</pdfrwt>
<totfact> 0.49792546E+02</totfact>
</mgrwt>
</event>
<event>
 4    1  0.3761914E-001  0.1944049E+03  0.7546771E-02  0.1154547E+00
         -2   -1    0    0    0  501 -0.00000000000E+00  0.00000000000E+00  0.11810869044E+03  0.11810869044E+03  0.00000000000E+00 0.  1.
          2   -1    0    0  502    0  0.00000000000E+00 -0.00000000000E+00 -0.42613604833E+03  0.42613604833E+03  0.00000000000E+00 0. -1.
          6    1    1    2  502    0  0.87178340541E+02 -0.24682409918E+02 -0.18198757922E+02  0.19525490828E+03  0.17200000000E+03 0.  1.
         -6    1    1    2    0  501 -0.87178340541E+02  0.24682409918E+02 -0.28982859997E+03  0.34898983048E+03  0.17200000000E+03 0. -1.
<mgrwt>
<rscale>  2 0.19440495E+03</rscale>
<asrwt>0</asrwt>
<pdfrwt beam="1">  1        2 0.10653401E+00 0.19440495E+03</pdfrwt>
<pdfrwt beam="2">  1       -2 0.29527173E-01 0.19440495E+03</pdfrwt>
<totfact> 0.45253040E+02</totfact>
</mgrwt>
</event>
<event>
 4    1  0.3761914E-001  0.1806846E+03  0.7546771E-02  0.1167142E+00
         -2   -1    0    0    0  501 -0.00000000000E+00  0.00000000000E+00  0.47006475020E+03  0.47006475020E+03  0.00000000000E+00 0. -1.
          2   -1    0    0  502    0  0.00000000000E+00 -0.00000000000E+00 -0.86879084770E+02  0.86879084770E+02  0.00000000000E+00 0.  1.
          6    1    1    2  502    0 -0.41463240095E+02  0.36656798067E+02  0.66872695439E+02  0.19266260280E+03  0.17200000000E+03 0.  1.
         -6    1    1    2    0  501  0.41463240095E+02 -0.36656798067E+02  0.31631296999E+03  0.36428123216E+03  0.17200000000E+03 0. -1.
<mgrwt>
<rscale>  2 0.18068459E+03</rscale>
<asrwt>0</asrwt>
<pdfrwt beam="1">  1        2 0.21719772E-01 0.18068459E+03</pdfrwt>
<pdfrwt beam="2">  1       -2 0.11751618E+00 0.18068459E+03</pdfrwt>
<totfact> 0.14888045E+02</totfact>
</mgrwt>
</event>
<event>
 4    1  0.3761914E-001  0.1903761E+03  0.7546771E-02  0.1158123E+00
         -2   -1    0    0    0  501 -0.00000000000E+00  0.00000000000E+00  0.15278514556E+03  0.15278514556E+03  0.00000000000E+00 0. -1.
          2   -1    0    0  502    0  0.00000000000E+00 -0.00000000000E+00 -0.34927480252E+03  0.34927480252E+03  0.00000000000E+00 0.  1.
          6    1    1    2  502    0 -0.81482652494E+02  0.44307846495E+01 -0.24043359246E+03  0.30667795306E+03  0.17200000000E+03 0.  1.
         -6    1    1    2    0  501  0.81482652494E+02 -0.44307846495E+01  0.43943935498E+02  0.19538199502E+03  0.17200000000E+03 0. -1.
<mgrwt>
<rscale>  2 0.19037609E+03</rscale>
<asrwt>0</asrwt>
<pdfrwt beam="1">  1        2 0.87318700E-01 0.19037609E+03</pdfrwt>
<pdfrwt beam="2">  1       -2 0.38196287E-01 0.19037609E+03</pdfrwt>
<totfact> 0.35494540E+02</totfact>
</mgrwt>
</event>
<event>
 4    1  0.3761914E-001  0.1934247E+03  0.7546771E-02  0.1155408E+00
         -2   -1    0    0    0  501 -0.00000000000E+00  0.00000000000E+00  0.11841663347E+03  0.11841663347E+03  0.00000000000E+00 0. -1.
          2   -1    0    0  502    0  0.00000000000E+00 -0.00000000000E+00 -0.36816269524E+03  0.36816269524E+03  0.00000000000E+00 0.  1.
          6    1    1    2  502    0  0.25605085459E+01 -0.88445132733E+02 -0.21649807953E+03  0.29031795699E+03  0.17200000000E+03 0.  1.
         -6    1    1    2    0  501 -0.25605085459E+01  0.88445132733E+02 -0.33247982238E+02  0.19626137172E+03  0.17200000000E+03 0. -1.
<mgrwt>
<rscale>  2 0.19342466E+03</rscale>
<asrwt>0</asrwt>
<pdfrwt beam="1">  1        2 0.92040673E-01 0.19342466E+03</pdfrwt>
<pdfrwt beam="2">  1       -2 0.29604159E-01 0.19342466E+03</pdfrwt>
<totfact> 0.53491759E+02</totfact>
</mgrwt>
</event>
<event>
 4    1  0.3761914E-001  0.1728598E+03  0.7546771E-02  0.1174898E+00
          2   -1    0    0  502    0  0.00000000000E+00  0.00000000000E+00  0.33725013768E+03  0.33725013768E+03  0.00000000000E+00 0.  1.
         -2   -1    0    0    0  501 -0.00000000000E+00 -0.00000000000E+00 -0.17416237864E+03  0.17416237864E+03  0.00000000000E+00 0. -1.
          6    1    1    2  502    0  0.14050969395E+02  0.99545263679E+01 -0.97683519802E+02  0.19855123363E+03  0.17200000000E+03 0. -1.
         -6    1    1    2    0  501 -0.14050969395E+02 -0.99545263679E+01  0.26077127884E+03  0.31286128269E+03  0.17200000000E+03 0.  1.
<mgrwt>
<rscale>  2 0.17285983E+03</rscale>
<asrwt>0</asrwt>
<pdfrwt beam="1">  1        2 0.84312533E-01 0.17285983E+03</pdfrwt>
<pdfrwt beam="2">  1       -2 0.43540595E-01 0.17285983E+03</pdfrwt>
<totfact> 0.28799255E+02</totfact>
</mgrwt>
</event>
<event>
 4    1  0.3761914E-001  0.2468190E+03  0.7546771E-02  0.1115332E+00
         -2   -1    0    0    0  501 -0.00000000000E+00  0.00000000000E+00  0.22268243445E+03  0.22268243445E+03  0.00000000000E+00 0. -1.
          2   -1    0    0  502    0  0.00000000000E+00 -0.00000000000E+00 -0.27357272178E+03  0.27357272178E+03  0.00000000000E+00 0.  1.
          6    1    1    2  502    0  0.73391580447E+02 -0.16108789628E+03 -0.24989668322E+02  0.24808086974E+03  0.17200000000E+03 0.  1.
         -6    1    1    2    0  501 -0.73391580447E+02  0.16108789628E+03 -0.25900619004E+02  0.24817428649E+03  0.17200000000E+03 0.  1.
<mgrwt>
<rscale>  2 0.24681903E+03</rscale>
<asrwt>0</asrwt>
<pdfrwt beam="1">  1        2 0.68393180E-01 0.24681903E+03</pdfrwt>
<pdfrwt beam="2">  1       -2 0.55670609E-01 0.24681903E+03</pdfrwt>
<totfact> 0.22160397E+02</totfact>
</mgrwt>
</event>
<event>
 4    1  0.3761914E-001  0.1817697E+03  0.7546771E-02  0.1166101E+00
         -2   -1    0    0    0  501 -0.00000000000E+00  0.00000000000E+00  0.51383757839E+02  0.51383757839E+02  0.00000000000E+00 0. -1.
          2   -1    0    0  502    0  0.00000000000E+00 -0.00000000000E+00 -0.77618354392E+03  0.77618354392E+03  0.00000000000E+00 0.  1.
          6    1    1    2  502    0  0.55618498937E+02  0.19047404237E+02 -0.53379627425E+03  0.56389598636E+03  0.17200000000E+03 0.  1.
         -6    1    1    2    0  501 -0.55618498937E+02 -0.19047404237E+02 -0.19100351184E+03  0.26367131540E+03  0.17200000000E+03 0. -1.
<mgrwt>
<rscale>  2 0.18176969E+03</rscale>
<asrwt>0</asrwt>
<pdfrwt beam="1">  1        2 0.19404588E+00 0.18176969E+03</pdfrwt>
<pdfrwt beam="2">  1       -2 0.12845940E-01 0.18176969E+03</pdfrwt>
<totfact> 0.82412750E+02</totfact>
</mgrwt>
</event>
<event>
 4    1  0.3761914E-001  0.3264337E+03  0.7546771E-02  0.1072726E+00
         -2   -1    0    0    0  501 -0.00000000000E+00  0.00000000000E+00  0.94298952703E+02  0.94298952703E+02  0.00000000000E+00 0. -1.
          2   -1    0    0  502    0  0.00000000000E+00 -0.00000000000E+00 -0.12205961459E+04  0.12205961459E+04  0.00000000000E+00 0.  1.
          6    1    1    2  502    0  0.11331540956E+03 -0.25324810284E+03 -0.74225054408E+03  0.81086056374E+03  0.17200000000E+03 0.  1.
         -6    1    1    2    0  501 -0.11331540956E+03  0.25324810284E+03 -0.38404664910E+03  0.50403453485E+03  0.17200000000E+03 0. -1.
<mgrwt>
<rscale>  2 0.32643374E+03</rscale>
<asrwt>0</asrwt>
<pdfrwt beam="1">  1        2 0.30514903E+00 0.32643374E+03</pdfrwt>
<pdfrwt beam="2">  1       -2 0.23574739E-01 0.32643374E+03</pdfrwt>
<totfact> 0.11886566E+02</totfact>
</mgrwt>
</event>
<event>
 4    1  0.3761914E-001  0.1762552E+03  0.7546771E-02  0.1171477E+00
         -1   -1    0    0    0  501 -0.00000000000E+00  0.00000000000E+00  0.63333324722E+02  0.63333324722E+02  0.00000000000E+00 0.  1.
          1   -1    0    0  502    0  0.00000000000E+00 -0.00000000000E+00 -0.50484441821E+03  0.50484441821E+03  0.00000000000E+00 0. -1.
          6    1    1    2  502    0  0.37636911829E+02  0.80843285164E+01 -0.26861880162E+03  0.32128173631E+03  0.17200000000E+03 0.  1.
         -6    1    1    2    0  501 -0.37636911829E+02 -0.80843285164E+01 -0.17289229186E+03  0.24689600662E+03  0.17200000000E+03 0.  1.
<mgrwt>
<rscale>  2 0.17625519E+03</rscale>
<asrwt>0</asrwt>
<pdfrwt beam="1">  1        1 0.12621110E+00 0.17625519E+03</pdfrwt>
<pdfrwt beam="2">  1       -1 0.15833331E-01 0.17625519E+03</pdfrwt>
<totfact> 0.65903174E+02</totfact>
</mgrwt>
</event>
<event>
 4    1  0.3761914E-001  0.2186128E+03  0.7546771E-02  0.1134921E+00
          3   -1    0    0  502    0  0.00000000000E+00  0.00000000000E+00  0.35108811013E+03  0.35108811013E+03  0.00000000000E+00 0. -1.
         -3   -1    0    0    0  501 -0.00000000000E+00 -0.00000000000E+00 -0.14069289131E+03  0.14069289131E+03  0.00000000000E+00 0.  1.
          6    1    1    2  502    0  0.11580186975E+03 -0.69263943999E+02  0.60887334551E+02  0.22693354641E+03  0.17200000000E+03 0. -1.
         -6    1    1    2    0  501 -0.11580186975E+03  0.69263943999E+02  0.14950788427E+03  0.26484745503E+03  0.17200000000E+03 0.  1.
<mgrwt>
<rscale>  2 0.21861282E+03</rscale>
<asrwt>0</asrwt>
<pdfrwt beam="1">  1        3 0.87772026E-01 0.21861282E+03</pdfrwt>
<pdfrwt beam="2">  1       -3 0.35173223E-01 0.21861282E+03</pdfrwt>
<totfact> 0.23763590E+01</totfact>
</mgrwt>
</event>
<event>
 4    1  0.3761914E-001  0.2201117E+03  0.7546771E-02  0.1133800E+00
         -1   -1    0    0    0  501 -0.00000000000E+00  0.00000000000E+00  0.60571439960E+02  0.60571439960E+02  0.00000000000E+00 0.  1.
          1   -1    0    0  502    0  0.00000000000E+00 -0.00000000000E+00 -0.81324536704E+03  0.81324536704E+03  0.00000000000E+00 0. -1.
          6    1    1    2  502    0 -0.13523639337E+03  0.24006107142E+02 -0.43237203116E+03  0.48517496699E+03  0.17200000000E+03 0.  1.
         -6    1    1    2    0  501  0.13523639337E+03 -0.24006107142E+02 -0.32030189592E+03  0.38864184000E+03  0.17200000000E+03 0.  1.
<mgrwt>
<rscale>  2 0.22011173E+03</rscale>
<asrwt>0</asrwt>
<pdfrwt beam="1">  1        1 0.20331134E+00 0.22011173E+03</pdfrwt>
<pdfrwt beam="2">  1       -1 0.15142860E-01 0.22011173E+03</pdfrwt>
<totfact> 0.30294667E+02</totfact>
</mgrwt>
</event>
<event>
 4    1  0.3761914E-001  0.2055100E+03  0.7546771E-02  0.1145172E+00
         -1   -1    0    0    0  501 -0.00000000000E+00  0.00000000000E+00  0.66283873091E+03  0.66283873091E+03  0.00000000000E+00 0. -1.
          1   -1    0    0  502    0  0.00000000000E+00 -0.00000000000E+00 -0.65573874666E+02  0.65573874666E+02  0.00000000000E+00 0.  1.
          6    1    1    2  502    0 -0.11055244105E+03 -0.20700810757E+02  0.35991339710E+03  0.41445388066E+03  0.17200000000E+03 0. -1.
         -6    1    1    2    0  501  0.11055244105E+03  0.20700810757E+02  0.23735145915E+03  0.31395872491E+03  0.17200000000E+03 0.  1.
<mgrwt>
<rscale>  2 0.20551001E+03</rscale>
<asrwt>0</asrwt>
<pdfrwt beam="1">  1        1 0.16393471E-01 0.20551001E+03</pdfrwt>
<pdfrwt beam="2">  1       -1 0.16570966E+00 0.20551001E+03</pdfrwt>
<totfact> 0.97165530E+01</totfact>
</mgrwt>
</event>
<event>
 4    1  0.3761914E-001  0.2009347E+03  0.7546771E-02  0.1148953E+00
         -1   -1    0    0    0  501 -0.00000000000E+00  0.00000000000E+00  0.76871545423E+02  0.76871545423E+02  0.00000000000E+00 0. -1.
          1   -1    0    0  502    0  0.00000000000E+00 -0.00000000000E+00 -0.70169744366E+03  0.70169744366E+03  0.00000000000E+00 0.  1.
          6    1    1    2  502    0 -0.37452735126E+02 -0.96891947152E+02 -0.50763650529E+03  0.54595748763E+03  0.17200000000E+03 0.  1.
         -6    1    1    2    0  501  0.37452735126E+02  0.96891947152E+02 -0.11718939295E+03  0.23261150146E+03  0.17200000000E+03 0. -1.
<mgrwt>
<rscale>  2 0.20093471E+03</rscale>
<asrwt>0</asrwt>
<pdfrwt beam="1">  1        1 0.17542436E+00 0.20093471E+03</pdfrwt>
<pdfrwt beam="2">  1       -1 0.19217887E-01 0.20093471E+03</pdfrwt>
<totfact> 0.27700012E+02</totfact>
</mgrwt>
</event>
<event>
 4    1  0.3761914E-001  0.1744885E+03  0.7546771E-02  0.1173246E+00
         -4   -1    0    0    0  501 -0.00000000000E+00  0.00000000000E+00  0.30087865754E+02  0.30087865754E+02  0.00000000000E+00 0. -1.
          4   -1    0    0  502    0  0.00000000000E+00 -0.00000000000E+00 -0.10166315789E+04  0.10166315789E+04  0.00000000000E+00 0.  1.
          6    1    1    2  502    0 -0.46007434138E+01 -0.29001243663E+02 -0.45760857925E+03  0.48974672105E+03  0.17200000000E+03 0. -1.
         -6    1    1    2    0  501  0.46007434138E+01  0.29001243663E+02 -0.52893513394E+03  0.55697272365E+03  0.17200000000E+03 0.  1.
<mgrwt>
<rscale>  2 0.17448851E+03</rscale>
<asrwt>0</asrwt>
<pdfrwt beam="1">  1        4 0.25415788E+00 0.17448851E+03</pdfrwt>
<pdfrwt beam="2">  1       -4 0.75219668E-02 0.17448851E+03</pdfrwt>
<totfact> 0.14753151E+01</totfact>
</mgrwt>
</event>
<event>
 4    1  0.3761914E-001  0.2294941E+03  0.7546771E-02  0.1126996E+00
         -1   -1    0    0    0  501 -0.00000000000E+00  0.00000000000E+00  0.45990347838E+02  0.45990347838E+02  0.00000000000E+00 0. -1.
          1   -1    0    0  502    0  0.00000000000E+00 -0.00000000000E+00 -0.12517129003E+04  0.12517129003E+04  0.00000000000E+00 0.  1.
          6    1    1    2  502    0  0.12178367888E+02 -0.15144376670E+03 -0.41357392895E+03  0.47298088949E+03  0.17200000000E+03 0.  1.
         -6    1    1    2    0  501 -0.12178367888E+02  0.15144376670E+03 -0.79214862353E+03  0.82472235867E+03  0.17200000000E+03 0.  1.
<mgrwt>
<rscale>  2 0.22949407E+03</rscale>
<asrwt>0</asrwt>
<pdfrwt beam="1">  1        1 0.31292822E+00 0.22949407E+03</pdfrwt>
<pdfrwt beam="2">  1       -1 0.11497587E-01 0.22949407E+03</pdfrwt>
<totfact> 0.15935547E+02</totfact>
</mgrwt>
</event>
<event>
 4    1  0.3761914E-001  0.1821276E+03  0.7546771E-02  0.1165760E+00
          4   -1    0    0  502    0  0.00000000000E+00  0.00000000000E+00  0.78897112545E+02  0.78897112545E+02  0.00000000000E+00 0.  1.
         -4   -1    0    0    0  501 -0.00000000000E+00 -0.00000000000E+00 -0.42245083694E+03  0.42245083694E+03  0.00000000000E+00 0. -1.
          6    1    1    2  502    0  0.59820415244E+02 -0.28282100967E+01 -0.15442673045E+03  0.23878462247E+03  0.17200000000E+03 0.  1.
         -6    1    1    2    0  501 -0.59820415244E+02  0.28282100967E+01 -0.18912699395E+03  0.26256332701E+03  0.17200000000E+03 0. -1.
<mgrwt>
<rscale>  2 0.18212765E+03</rscale>
<asrwt>0</asrwt>
<pdfrwt beam="1">  1        4 0.19724278E-01 0.18212765E+03</pdfrwt>
<pdfrwt beam="2">  1       -4 0.10561271E+00 0.18212765E+03</pdfrwt>
<totfact> 0.30568002E+01</totfact>
</mgrwt>
</event>
<event>
 4    1  0.3761914E-001  0.2070543E+03  0.7546771E-02  0.1143920E+00
          2   -1    0    0  502    0  0.00000000000E+00  0.00000000000E+00  0.82443673701E+03  0.82443673701E+03  0.00000000000E+00 0.  1.
         -2   -1    0    0    0  501 -0.00000000000E+00 -0.00000000000E+00 -0.59670925229E+02  0.59670925229E+02  0.00000000000E+00 0. -1.
          6    1    1    2  502    0  0.10681794178E+03  0.43329034504E+02  0.54086904659E+03  0.57914661656E+03  0.17200000000E+03 0.  1.
         -6    1    1    2    0  501 -0.10681794178E+03 -0.43329034504E+02  0.22389676520E+03  0.30496104568E+03  0.17200000000E+03 0. -1.
<mgrwt>
<rscale>  2 0.20705429E+03</rscale>
<asrwt>0</asrwt>
<pdfrwt beam="1">  1        2 0.20610915E+00 0.20705429E+03</pdfrwt>
<pdfrwt beam="2">  1       -2 0.14917734E-01 0.20705429E+03</pdfrwt>
<totfact> 0.58305835E+02</totfact>
</mgrwt>
</event>
<event>
 4    1  0.3761914E-001  0.1873804E+03  0.7546771E-02  0.1160846E+00
         -2   -1    0    0    0  501 -0.00000000000E+00  0.00000000000E+00  0.47485157460E+02  0.47485157460E+02  0.00000000000E+00 0. -1.
          2   -1    0    0  502    0  0.00000000000E+00 -0.00000000000E+00 -0.92144825202E+03  0.92144825202E+03  0.00000000000E+00 0.  1.
          6    1    1    2  502    0  0.62947838457E+02 -0.39559707720E+02 -0.65230916005E+03  0.67868891336E+03  0.17200000000E+03 0.  1.
         -6    1    1    2    0  501 -0.62947838457E+02  0.39559707720E+02 -0.22165393452E+03  0.29024449612E+03  0.17200000000E+03 0. -1.
<mgrwt>
<rscale>  2 0.18738036E+03</rscale>
<asrwt>0</asrwt>
<pdfrwt beam="1">  1        2 0.23036206E+00 0.18738036E+03</pdfrwt>
<pdfrwt beam="2">  1       -2 0.11871289E-01 0.18738036E+03</pdfrwt>
<totfact> 0.69802581E+02</totfact>
</mgrwt>
</event>
<event>
 4    1  0.3761914E-001  0.1987500E+03  0.7546771E-02  0.1150798E+00
         -2   -1    0    0    0  501 -0.00000000000E+00  0.00000000000E+00  0.21166396348E+03  0.21166396348E+03  0.00000000000E+00 0.  1.
          2   -1    0    0  502    0  0.00000000000E+00 -0.00000000000E+00 -0.20253031497E+03  0.20253031497E+03  0.00000000000E+00 0. -1.
          6    1    1    2  502    0  0.72899827714E+02  0.67846796879E+02 -0.53471391112E+02  0.20581730344E+03  0.17200000000E+03 0.  1.
         -6    1    1    2    0  501 -0.72899827714E+02 -0.67846796879E+02  0.62605039622E+02  0.20837697501E+03  0.17200000000E+03 0. -1.
<mgrwt>
<rscale>  2 0.19875003E+03</rscale>
<asrwt>0</asrwt>
<pdfrwt beam="1">  1        2 0.50632579E-01 0.19875003E+03</pdfrwt>
<pdfrwt beam="2">  1       -2 0.52915991E-01 0.19875003E+03</pdfrwt>
<totfact> 0.34141240E+02</totfact>
</mgrwt>
</event>
<event>
 4    1  0.3761914E-001  0.1956128E+03  0.7546771E-02  0.1153494E+00
          4   -1    0    0  502    0  0.00000000000E+00  0.00000000000E+00  0.32134402172E+03  0.32134402172E+03  0.00000000000E+00 0.  1.
         -4   -1    0    0    0  501 -0.00000000000E+00 -0.00000000000E+00 -0.13086975013E+03  0.13086975013E+03  0.00000000000E+00 0. -1.
          6    1    1    2  502    0  0.80238231461E+02  0.47351753503E+02  0.27360545103E+02  0.19751699111E+03  0.17200000000E+03 0. -1.
         -6    1    1    2    0  501 -0.80238231461E+02 -0.47351753503E+02  0.16311372649E+03  0.25469678074E+03  0.17200000000E+03 0.  1.
<mgrwt>
<rscale>  2 0.19561279E+03</rscale>
<asrwt>0</asrwt>
<pdfrwt beam="1">  1        4 0.80336004E-01 0.19561279E+03</pdfrwt>
<pdfrwt beam="2">  1       -4 0.32717438E-01 0.19561279E+03</pdfrwt>
<totfact> 0.22452364E+01</totfact>
</mgrwt>
</event>
<event>
 4    1  0.3761914E-001  0.1949353E+03  0.7546771E-02  0.1154084E+00
          4   -1    0    0  502    0  0.00000000000E+00  0.00000000000E+00  0.10479917199E+03  0.10479917199E+03  0.00000000000E+00 0. -1.
         -4   -1    0    0    0  501 -0.00000000000E+00 -0.00000000000E+00 -0.38913542986E+03  0.38913542986E+03  0.00000000000E+00 0.  1.
          6    1    1    2  502    0 -0.65129648979E+02  0.64605622376E+02 -0.20666447230E+03  0.28409498716E+03  0.17200000000E+03 0.  1.
         -6    1    1    2    0  501  0.65129648979E+02 -0.64605622376E+02 -0.77671785569E+02  0.20983961469E+03  0.17200000000E+03 0. -1.
<mgrwt>
<rscale>  2 0.19493527E+03</rscale>
<asrwt>0</asrwt>
<pdfrwt beam="1">  1        4 0.26199793E-01 0.19493527E+03</pdfrwt>
<pdfrwt beam="2">  1       -4 0.97283856E-01 0.19493527E+03</pdfrwt>
<totfact> 0.22152058E+01</totfact>
</mgrwt>
</event>
<event>
 4    1  0.3761914E-001  0.2203005E+03  0.7546771E-02  0.1133659E+00
          2   -1    0    0  502    0  0.00000000000E+00  0.00000000000E+00  0.69227053612E+03  0.69227053612E+03  0.00000000000E+00 0. -1.
         -2   -1    0    0    0  501 -0.00000000000E+00 -0.00000000000E+00 -0.74399185328E+02  0.74399185328E+02  0.00000000000E+00 0.  1.
          6    1    1    2  502    0  0.63377630863E+02 -0.12219490916E+03  0.40101962089E+03  0.45754678040E+03  0.17200000000E+03 0. -1.
         -6    1    1    2    0  501 -0.63377630863E+02  0.12219490916E+03  0.21685172990E+03  0.30912294104E+03  0.17200000000E+03 0.  1.
<mgrwt>
<rscale>  2 0.22030052E+03</rscale>
<asrwt>0</asrwt>
<pdfrwt beam="1">  1        2 0.17306761E+00 0.22030052E+03</pdfrwt>
<pdfrwt beam="2">  1       -2 0.18599798E-01 0.22030052E+03</pdfrwt>
<totfact> 0.53120201E+02</totfact>
</mgrwt>
</event>
<event>
 4    1  0.3761914E-001  0.1945944E+03  0.7546771E-02  0.1154382E+00
          1   -1    0    0  502    0  0.00000000000E+00  0.00000000000E+00  0.50008475073E+03  0.50008475073E+03  0.00000000000E+00 0. -1.
         -1   -1    0    0    0  501 -0.00000000000E+00 -0.00000000000E+00 -0.11017586943E+03  0.11017586943E+03  0.00000000000E+00 0.  1.
          6    1    1    2  502    0  0.78187268494E+02  0.46580325845E+02  0.24320006464E+02  0.19610823141E+03  0.17200000000E+03 0.  1.
         -6    1    1    2    0  501 -0.78187268494E+02 -0.46580325845E+02  0.36558887483E+03  0.41415238876E+03  0.17200000000E+03 0. -1.
<mgrwt>
<rscale>  2 0.19459439E+03</rscale>
<asrwt>0</asrwt>
<pdfrwt beam="1">  1        1 0.12502118E+00 0.19459439E+03</pdfrwt>
<pdfrwt beam="2">  1       -1 0.27543969E-01 0.19459439E+03</pdfrwt>
<totfact> 0.27116317E+02</totfact>
</mgrwt>
</event>
<event>
 4    1  0.3761914E-001  0.1954678E+03  0.7546771E-02  0.1153620E+00
          2   -1    0    0  502    0  0.00000000000E+00  0.00000000000E+00  0.41227567910E+03  0.41227567910E+03  0.00000000000E+00 0. -1.
         -2   -1    0    0    0  501 -0.00000000000E+00 -0.00000000000E+00 -0.12440527482E+03  0.12440527482E+03  0.00000000000E+00 0.  1.
          6    1    1    2  502    0 -0.92833012151E+02 -0.23819613682E+01  0.27945533461E+03  0.34103214794E+03  0.17200000000E+03 0. -1.
         -6    1    1    2    0  501  0.92833012151E+02  0.23819613682E+01  0.84150696714E+01  0.19564880598E+03  0.17200000000E+03 0.  1.
<mgrwt>
<rscale>  2 0.19546775E+03</rscale>
<asrwt>0</asrwt>
<pdfrwt beam="1">  1        2 0.10306892E+00 0.19546775E+03</pdfrwt>
<pdfrwt beam="2">  1       -2 0.31101320E-01 0.19546775E+03</pdfrwt>
<totfact> 0.42838244E+02</totfact>
</mgrwt>
</event>
<event>
 4    1  0.3761914E-001  0.1857007E+03  0.7546771E-02  0.1162397E+00
          1   -1    0    0  502    0  0.00000000000E+00  0.00000000000E+00  0.45906484285E+03  0.45906484285E+03  0.00000000000E+00 0. -1.
         -1   -1    0    0    0  501 -0.00000000000E+00 -0.00000000000E+00 -0.75121008382E+02  0.75121008382E+02  0.00000000000E+00 0.  1.
          6    1    1    2  502    0 -0.61365709644E+02 -0.33689667386E+02  0.19079471971E+03  0.26624681985E+03  0.17200000000E+03 0.  1.
         -6    1    1    2    0  501  0.61365709644E+02  0.33689667386E+02  0.19314911476E+03  0.26793903139E+03  0.17200000000E+03 0.  1.
<mgrwt>
<rscale>  2 0.18570068E+03</rscale>
<asrwt>0</asrwt>
<pdfrwt beam="1">  1        1 0.11476620E+00 0.18570068E+03</pdfrwt>
<pdfrwt beam="2">  1       -1 0.18780253E-01 0.18570068E+03</pdfrwt>
<totfact> 0.57894419E+02</totfact>
</mgrwt>
</event>
<event>
 4    1  0.3761914E-001  0.2381138E+03  0.7546771E-02  0.1121056E+00
         -1   -1    0    0    0  501 -0.00000000000E+00  0.00000000000E+00  0.72696524098E+02  0.72696524098E+02  0.00000000000E+00 0.  1.
          1   -1    0    0  502    0  0.00000000000E+00 -0.00000000000E+00 -0.83269170365E+03  0.83269170365E+03  0.00000000000E+00 0. -1.
          6    1    1    2  502    0 -0.11168181302E+03  0.12100143921E+03 -0.26604517974E+03  0.35704091266E+03  0.17200000000E+03 0.  1.
         -6    1    1    2    0  501  0.11168181302E+03 -0.12100143921E+03 -0.49394999981E+03  0.54834731509E+03  0.17200000000E+03 0. -1.
<mgrwt>
<rscale>  2 0.23811379E+03</rscale>
<asrwt>0</asrwt>
<pdfrwt beam="1">  1        1 0.20817293E+00 0.23811379E+03</pdfrwt>
<pdfrwt beam="2">  1       -1 0.18174131E-01 0.23811379E+03</pdfrwt>
<totfact> 0.21461324E+02</totfact>
</mgrwt>
</event>
<event>
 4    1  0.3761914E-001  0.2067835E+03  0.7546771E-02  0.1144139E+00
         -1   -1    0    0    0  501 -0.00000000000E+00  0.00000000000E+00  0.17404595661E+03  0.17404595661E+03  0.00000000000E+00 0.  1.
          1   -1    0    0  502    0  0.00000000000E+00 -0.00000000000E+00 -0.24569063436E+03  0.24569063436E+03  0.00000000000E+00 0. -1.
          6    1    1    2  502    0  0.94926810309E+02  0.64531467174E+02 -0.37276124804E+02  0.21011644165E+03  0.17200000000E+03 0.  1.
         -6    1    1    2    0  501 -0.94926810309E+02 -0.64531467174E+02 -0.34368552944E+02  0.20962014932E+03  0.17200000000E+03 0.  1.
<mgrwt>
<rscale>  2 0.20678348E+03</rscale>
<asrwt>0</asrwt>
<pdfrwt beam="1">  1        1 0.61422658E-01 0.20678348E+03</pdfrwt>
<pdfrwt beam="2">  1       -1 0.43511489E-01 0.20678348E+03</pdfrwt>
<totfact> 0.32625589E+02</totfact>
</mgrwt>
</event>
<event>
 4    1  0.3761914E-001  0.1854377E+03  0.7546771E-02  0.1162642E+00
         -2   -1    0    0    0  501 -0.00000000000E+00  0.00000000000E+00  0.40911530178E+02  0.40911530178E+02  0.00000000000E+00 0. -1.
          2   -1    0    0  502    0  0.00000000000E+00 -0.00000000000E+00 -0.88547753456E+03  0.88547753456E+03  0.00000000000E+00 0.  1.
          6    1    1    2  502    0  0.53315873145E+02 -0.44278025778E+02 -0.52664832723E+03  0.55834181867E+03  0.17200000000E+03 0.  1.
         -6    1    1    2    0  501 -0.53315873145E+02  0.44278025778E+02 -0.31791767714E+03  0.36804724607E+03  0.17200000000E+03 0. -1.
<mgrwt>
<rscale>  2 0.18543766E+03</rscale>
<asrwt>0</asrwt>
<pdfrwt beam="1">  1        2 0.22136938E+00 0.18543766E+03</pdfrwt>
<pdfrwt beam="2">  1       -2 0.10227883E-01 0.18543766E+03</pdfrwt>
<totfact> 0.95121061E+02</totfact>
</mgrwt>
</event>
<event>
 4    1  0.3761914E-001  0.1875499E+03  0.7546771E-02  0.1160690E+00
          2   -1    0    0  502    0  0.00000000000E+00  0.00000000000E+00  0.43354260808E+03  0.43354260808E+03  0.00000000000E+00 0.  1.
         -2   -1    0    0    0  501 -0.00000000000E+00 -0.00000000000E+00 -0.90220147810E+02  0.90220147810E+02  0.00000000000E+00 0. -1.
          6    1    1    2  502    0 -0.18326507532E+02  0.72492095094E+02  0.25477007134E+03  0.31635858449E+03  0.17200000000E+03 0.  1.
         -6    1    1    2    0  501  0.18326507532E+02 -0.72492095094E+02  0.88552388930E+02  0.20740417140E+03  0.17200000000E+03 0. -1.
<mgrwt>
<rscale>  2 0.18754990E+03</rscale>
<asrwt>0</asrwt>
<pdfrwt beam="1">  1        2 0.10838565E+00 0.18754990E+03</pdfrwt>
<pdfrwt beam="2">  1       -2 0.22555038E-01 0.18754990E+03</pdfrwt>
<totfact> 0.71390593E+02</totfact>
</mgrwt>
</event>
<event>
 4    1  0.3761914E-001  0.1769772E+03  0.7546771E-02  0.1170761E+00
          2   -1    0    0  502    0  0.00000000000E+00  0.00000000000E+00  0.23273317761E+03  0.23273317761E+03  0.00000000000E+00 0.  1.
         -2   -1    0    0    0  501 -0.00000000000E+00 -0.00000000000E+00 -0.13559349912E+03  0.13559349912E+03  0.00000000000E+00 0. -1.
          6    1    1    2  502    0  0.33684810968E+02  0.24540963187E+02  0.64502072639E+02  0.18836518452E+03  0.17200000000E+03 0.  1.
         -6    1    1    2    0  501 -0.33684810968E+02 -0.24540963187E+02  0.32637605845E+02  0.17996149221E+03  0.17200000000E+03 0. -1.
<mgrwt>
<rscale>  2 0.17697719E+03</rscale>
<asrwt>0</asrwt>
<pdfrwt beam="1">  1        2 0.58183294E-01 0.17697719E+03</pdfrwt>
<pdfrwt beam="2">  1       -2 0.33898375E-01 0.17697719E+03</pdfrwt>
<totfact> 0.69357363E+02</totfact>
</mgrwt>
</event>
<event>
 4    1  0.3761914E-001  0.1736223E+03  0.7546771E-02  0.1174122E+00
          2   -1    0    0  502    0  0.00000000000E+00  0.00000000000E+00  0.59923029286E+03  0.59923029286E+03  0.00000000000E+00 0.  1.
         -2   -1    0    0    0  501 -0.00000000000E+00 -0.00000000000E+00 -0.90709948671E+02  0.90709948671E+02  0.00000000000E+00 0. -1.
          6    1    1    2  502    0 -0.13322635086E+02  0.19575618954E+02  0.48449316264E+03  0.51466330946E+03  0.17200000000E+03 0.  1.
         -6    1    1    2    0  501  0.13322635086E+02 -0.19575618954E+02  0.24027181554E+02  0.17527693207E+03  0.17200000000E+03 0. -1.
<mgrwt>
<rscale>  2 0.17362228E+03</rscale>
<asrwt>0</asrwt>
<pdfrwt beam="1">  1        2 0.14980756E+00 0.17362228E+03</pdfrwt>
<pdfrwt beam="2">  1       -2 0.22677489E-01 0.17362228E+03</pdfrwt>
<totfact> 0.46778613E+02</totfact>
</mgrwt>
</event>
<event>
 4    1  0.3761914E-001  0.1826645E+03  0.7546771E-02  0.1165249E+00
          1   -1    0    0  502    0  0.00000000000E+00  0.00000000000E+00  0.10079989075E+04  0.10079989075E+04  0.00000000000E+00 0.  1.
         -1   -1    0    0    0  501 -0.00000000000E+00 -0.00000000000E+00 -0.33151946242E+02  0.33151946242E+02  0.00000000000E+00 0. -1.
          6    1    1    2  502    0  0.99350817246E+01  0.60692849393E+02  0.46712696580E+03  0.50157146051E+03  0.17200000000E+03 0.  1.
         -6    1    1    2    0  501 -0.99350817246E+01 -0.60692849393E+02  0.50771999544E+03  0.53957939322E+03  0.17200000000E+03 0. -1.
<mgrwt>
<rscale>  2 0.18266452E+03</rscale>
<asrwt>0</asrwt>
<pdfrwt beam="1">  1        1 0.25199963E+00 0.18266452E+03</pdfrwt>
<pdfrwt beam="2">  1       -1 0.82879899E-02 0.18266452E+03</pdfrwt>
<totfact> 0.48075824E+02</totfact>
</mgrwt>
</event>
<event>
 4    1  0.3761914E-001  0.2214493E+03  0.7546771E-02  0.1132807E+00
          2   -1    0    0  502    0  0.00000000000E+00  0.00000000000E+00  0.38695858842E+03  0.38695858842E+03  0.00000000000E+00 0.  1.
         -2   -1    0    0    0  501 -0.00000000000E+00 -0.00000000000E+00 -0.21316122422E+03  0.21316122422E+03  0.00000000000E+00 0. -1.
          6    1    1    2  502    0  0.81821114143E+02 -0.11296497647E+03 -0.10416838220E+03  0.24472603555E+03  0.17200000000E+03 0. -1.
         -6    1    1    2    0  501 -0.81821114143E+02  0.11296497647E+03  0.27796574640E+03  0.35539377709E+03  0.17200000000E+03 0.  1.
<mgrwt>
<rscale>  2 0.22144927E+03</rscale>
<asrwt>0</asrwt>
<pdfrwt beam="1">  1        2 0.96739646E-01 0.22144927E+03</pdfrwt>
<pdfrwt beam="2">  1       -2 0.53290307E-01 0.22144927E+03</pdfrwt>
<totfact> 0.16395649E+02</totfact>
</mgrwt>
</event>
<event>
 4    1  0.3761914E-001  0.1908473E+03  0.7546771E-02  0.1157699E+00
         -1   -1    0    0    0  501 -0.00000000000E+00  0.00000000000E+00  0.90739226799E+03  0.90739226799E+03  0.00000000000E+00 0.  1.
          1   -1    0    0  502    0  0.00000000000E+00 -0.00000000000E+00 -0.42377317494E+02  0.42377317494E+02  0.00000000000E+00 0. -1.
          6    1    1    2  502    0 -0.67053299248E+02  0.48400019056E+02  0.54162320386E+03  0.57426335574E+03  0.17200000000E+03 0.  1.
         -6    1    1    2    0  501  0.67053299248E+02 -0.48400019056E+02  0.32339174664E+03  0.37550622974E+03  0.17200000000E+03 0. -1.
<mgrwt>
<rscale>  2 0.19084734E+03</rscale>
<asrwt>0</asrwt>
<pdfrwt beam="1">  1        1 0.10594332E-01 0.19084734E+03</pdfrwt>
<pdfrwt beam="2">  1       -1 0.22684800E+00 0.19084734E+03</pdfrwt>
<totfact> 0.67268478E+01</totfact>
</mgrwt>
</event>
<event>
 4    1  0.3761914E-001  0.2044059E+03  0.7546771E-02  0.1146074E+00
         -2   -1    0    0    0  501 -0.00000000000E+00  0.00000000000E+00  0.50235333225E+02  0.50235333225E+02  0.00000000000E+00 0.  1.
          2   -1    0    0  502    0  0.00000000000E+00 -0.00000000000E+00 -0.97667241823E+03  0.97667241823E+03  0.00000000000E+00 0. -1.
          6    1    1    2  502    0 -0.55419688564E+01  0.11030434276E+03 -0.66102424594E+03  0.69190665207E+03  0.17200000000E+03 0. -1.
         -6    1    1    2    0  501  0.55419688564E+01 -0.11030434276E+03 -0.26541283906E+03  0.33500109939E+03  0.17200000000E+03 0.  1.
<mgrwt>
<rscale>  2 0.20440587E+03</rscale>
<asrwt>0</asrwt>
<pdfrwt beam="1">  1        2 0.24416809E+00 0.20440587E+03</pdfrwt>
<pdfrwt beam="2">  1       -2 0.12558834E-01 0.20440587E+03</pdfrwt>
<totfact> 0.57017544E+02</totfact>
</mgrwt>
</event>
<event>
 4    1  0.3761914E-001  0.1946577E+03  0.7546771E-02  0.1154326E+00
          2   -1    0    0  502    0  0.00000000000E+00  0.00000000000E+00  0.49523849905E+02  0.49523849905E+02  0.00000000000E+00 0. -1.
         -2   -1    0    0    0  501 -0.00000000000E+00 -0.00000000000E+00 -0.76692712665E+03  0.76692712665E+03  0.00000000000E+00 0.  1.
          6    1    1    2  502    0 -0.18856701891E+02  0.89174188472E+02 -0.33887705936E+03  0.39080592684E+03  0.17200000000E+03 0. -1.
         -6    1    1    2    0  501  0.18856701891E+02 -0.89174188472E+02 -0.37852621739E+03  0.42564504971E+03  0.17200000000E+03 0.  1.
<mgrwt>
<rscale>  2 0.19465768E+03</rscale>
<asrwt>0</asrwt>
<pdfrwt beam="1">  1        2 0.12380962E-01 0.19465768E+03</pdfrwt>
<pdfrwt beam="2">  1       -2 0.19173178E+00 0.19465768E+03</pdfrwt>
<totfact> 0.80780267E+01</totfact>
</mgrwt>
</event>
<event>
 4    1  0.3761914E-001  0.1827950E+03  0.7546771E-02  0.1165125E+00
          1   -1    0    0  502    0  0.00000000000E+00  0.00000000000E+00  0.75206091814E+03  0.75206091814E+03  0.00000000000E+00 0. -1.
         -1   -1    0    0    0  501 -0.00000000000E+00 -0.00000000000E+00 -0.45057130387E+02  0.45057130387E+02  0.00000000000E+00 0.  1.
          6    1    1    2  502    0  0.34341435779E+02 -0.51484703834E+02  0.40052554503E+03  0.44026664780E+03  0.17200000000E+03 0. -1.
         -6    1    1    2    0  501 -0.34341435779E+02  0.51484703834E+02  0.30647824272E+03  0.35685140073E+03  0.17200000000E+03 0.  1.
<mgrwt>
<rscale>  2 0.18279499E+03</rscale>
<asrwt>0</asrwt>
<pdfrwt beam="1">  1        1 0.18801519E+00 0.18279499E+03</pdfrwt>
<pdfrwt beam="2">  1       -1 0.11264285E-01 0.18279499E+03</pdfrwt>
<totfact> 0.56647822E+02</totfact>
</mgrwt>
</event>
<event>
 4    1  0.3761914E-001  0.1995550E+03  0.7546771E-02  0.1150115E+00
          2   -1    0    0  502    0  0.00000000000E+00  0.00000000000E+00  0.25453401038E+03  0.25453401038E+03  0.00000000000E+00 0.  1.
         -2   -1    0    0    0  501 -0.00000000000E+00 -0.00000000000E+00 -0.17647518254E+03  0.17647518254E+03  0.00000000000E+00 0. -1.
          6    1    1    2  502    0  0.94854856719E+02 -0.35224275603E+02  0.11162131236E+03  0.22865150515E+03  0.17200000000E+03 0. -1.
         -6    1    1    2    0  501 -0.94854856719E+02  0.35224275603E+02 -0.33562484510E+02  0.20235768777E+03  0.17200000000E+03 0.  1.
<mgrwt>
<rscale>  2 0.19955499E+03</rscale>
<asrwt>0</asrwt>
<pdfrwt beam="1">  1        2 0.63633502E-01 0.19955499E+03</pdfrwt>
<pdfrwt beam="2">  1       -2 0.44118796E-01 0.19955499E+03</pdfrwt>
<totfact> 0.38230818E+02</totfact>
</mgrwt>
</event>
<event>
 4    1  0.3761914E-001  0.2009433E+03  0.7546771E-02  0.1148946E+00
          2   -1    0    0  502    0  0.00000000000E+00  0.00000000000E+00  0.29214476486E+03  0.29214476486E+03  0.00000000000E+00 0.  1.
         -2   -1    0    0    0  501 -0.00000000000E+00 -0.00000000000E+00 -0.44375717213E+03  0.44375717213E+03  0.00000000000E+00 0. -1.
          6    1    1    2  502    0 -0.30726429927E+02  0.99247558414E+02 -0.38112552732E+03  0.43085363980E+03  0.17200000000E+03 0. -1.
         -6    1    1    2    0  501  0.30726429927E+02 -0.99247558414E+02  0.22951312005E+03  0.30504829720E+03  0.17200000000E+03 0.  1.
<mgrwt>
<rscale>  2 0.20094325E+03</rscale>
<asrwt>0</asrwt>
<pdfrwt beam="1">  1        2 0.73036192E-01 0.20094325E+03</pdfrwt>
<pdfrwt beam="2">  1       -2 0.11093929E+00 0.20094325E+03</pdfrwt>
<totfact> 0.45479854E+01</totfact>
</mgrwt>
</event>
<event>
 4    1  0.3761914E-001  0.1729060E+03  0.7546771E-02  0.1174851E+00
         -2   -1    0    0    0  501 -0.00000000000E+00  0.00000000000E+00  0.48321750410E+02  0.48321750410E+02  0.00000000000E+00 0. -1.
          2   -1    0    0  502    0  0.00000000000E+00 -0.00000000000E+00 -0.66451027065E+03  0.66451027065E+03  0.00000000000E+00 0.  1.
          6    1    1    2  502    0 -0.13879515143E+02 -0.10947033010E+02 -0.40167926676E+03  0.43731305928E+03  0.17200000000E+03 0.  1.
         -6    1    1    2    0  501  0.13879515143E+02  0.10947033010E+02 -0.21450925349E+03  0.27551896179E+03  0.17200000000E+03 0. -1.
<mgrwt>
<rscale>  2 0.17290598E+03</rscale>
<asrwt>0</asrwt>
<pdfrwt beam="1">  1        2 0.16612757E+00 0.17290598E+03</pdfrwt>
<pdfrwt beam="2">  1       -2 0.12080438E-01 0.17290598E+03</pdfrwt>
<totfact> 0.11532256E+03</totfact>
</mgrwt>
</event>
<event>
 4    1  0.3761914E-001  0.1789382E+03  0.7546771E-02  0.1168835E+00
         -2   -1    0    0    0  501 -0.00000000000E+00  0.00000000000E+00  0.30757474980E+02  0.30757474980E+02  0.00000000000E+00 0.  1.
          2   -1    0    0  502    0  0.00000000000E+00 -0.00000000000E+00 -0.10856427474E+04  0.10856427474E+04  0.00000000000E+00 0. -1.
          6    1    1    2  502    0  0.23177371504E+02 -0.43562411862E+02 -0.64062211401E+03  0.66514326820E+03  0.17200000000E+03 0. -1.
         -6    1    1    2    0  501 -0.23177371504E+02  0.43562411862E+02 -0.41426315842E+03  0.45125695418E+03  0.17200000000E+03 0.  1.
<mgrwt>
<rscale>  2 0.17893819E+03</rscale>
<asrwt>0</asrwt>
<pdfrwt beam="1">  1        2 0.27141065E+00 0.17893819E+03</pdfrwt>
<pdfrwt beam="2">  1       -2 0.76893697E-02 0.17893819E+03</pdfrwt>
<totfact> 0.10061725E+03</totfact>
</mgrwt>
</event>
<event>
 4    1  0.3761914E-001  0.1815289E+03  0.7546771E-02  0.1166331E+00
         -1   -1    0    0    0  501 -0.00000000000E+00  0.00000000000E+00  0.66820361363E+02  0.66820361363E+02  0.00000000000E+00 0.  1.
          1   -1    0    0  502    0  0.00000000000E+00 -0.00000000000E+00 -0.63229189726E+03  0.63229189726E+03  0.00000000000E+00 0. -1.
          6    1    1    2  502    0 -0.56886669214E+02 -0.11517742444E+02 -0.11875976599E+03  0.21692541009E+03  0.17200000000E+03 0.  1.
         -6    1    1    2    0  501  0.56886669214E+02  0.11517742444E+02 -0.44671176991E+03  0.48218684853E+03  0.17200000000E+03 0. -1.
<mgrwt>
<rscale>  2 0.18152893E+03</rscale>
<asrwt>0</asrwt>
<pdfrwt beam="1">  1        1 0.15807297E+00 0.18152893E+03</pdfrwt>
<pdfrwt beam="2">  1       -1 0.16705090E-01 0.18152893E+03</pdfrwt>
<totfact> 0.41926947E+02</totfact>
</mgrwt>
</event>
<event>
 4    1  0.3761914E-001  0.2017754E+03  0.7546771E-02  0.1148250E+00
          2   -1    0    0  502    0  0.00000000000E+00  0.00000000000E+00  0.11625777082E+04  0.11625777082E+04  0.00000000000E+00 0. -1.
         -2   -1    0    0    0  501 -0.00000000000E+00 -0.00000000000E+00 -0.68963508803E+02  0.68963508803E+02  0.00000000000E+00 0.  1.
          6    1    1    2  502    0  0.24605234636E+02  0.10258604171E+03  0.97881184383E+03  0.99939278522E+03  0.17200000000E+03 0. -1.
         -6    1    1    2    0  501 -0.24605234636E+02 -0.10258604171E+03  0.11480235552E+03  0.23214843174E+03  0.17200000000E+03 0.  1.
<mgrwt>
<rscale>  2 0.20177540E+03</rscale>
<asrwt>0</asrwt>
<pdfrwt beam="1">  1        2 0.29064436E+00 0.20177540E+03</pdfrwt>
<pdfrwt beam="2">  1       -2 0.17240881E-01 0.20177540E+03</pdfrwt>
<totfact> 0.23569480E+02</totfact>
</mgrwt>
</event>
<event>
 4    1  0.3761914E-001  0.1844998E+03  0.7546771E-02  0.1163518E+00
         -2   -1    0    0    0  501 -0.00000000000E+00  0.00000000000E+00  0.52025380209E+02  0.52025380209E+02  0.00000000000E+00 0.  1.
          2   -1    0    0  502    0  0.00000000000E+00 -0.00000000000E+00 -0.82455554413E+03  0.82455554413E+03  0.00000000000E+00 0. -1.
          6    1    1    2  502    0 -0.29910014632E+02 -0.59678951604E+02 -0.58542557117E+03  0.61381046392E+03  0.17200000000E+03 0. -1.
         -6    1    1    2    0  501  0.29910014632E+02  0.59678951604E+02 -0.18710459275E+03  0.26277046042E+03  0.17200000000E+03 0.  1.
<mgrwt>
<rscale>  2 0.18449983E+03</rscale>
<asrwt>0</asrwt>
<pdfrwt beam="1">  1        2 0.20613888E+00 0.18449983E+03</pdfrwt>
<pdfrwt beam="2">  1       -2 0.13006345E-01 0.18449983E+03</pdfrwt>
<totfact> 0.73146916E+02</totfact>
</mgrwt>
</event>
<event>
 4    1  0.3761914E-001  0.2424526E+03  0.7546771E-02  0.1118170E+00
         -2   -1    0    0    0  501 -0.00000000000E+00  0.00000000000E+00  0.69773850674E+03  0.69773850674E+03  0.00000000000E+00 0. -1.
          2   -1    0    0  502    0  0.00000000000E+00 -0.00000000000E+00 -0.11589170337E+03  0.11589170337E+03  0.00000000000E+00 0.  1.
          6    1    1    2  502    0  0.15068064347E+03  0.80589172689E+02  0.50349860749E+03  0.55883281831E+03  0.17200000000E+03 0. -1.
         -6    1    1    2    0  501 -0.15068064347E+03 -0.80589172689E+02  0.78348195880E+02  0.25479739180E+03  0.17200000000E+03 0.  1.
<mgrwt>
<rscale>  2 0.24245262E+03</rscale>
<asrwt>0</asrwt>
<pdfrwt beam="1">  1        2 0.28972928E-01 0.24245262E+03</pdfrwt>
<pdfrwt beam="2">  1       -2 0.17443461E+00 0.24245262E+03</pdfrwt>
<totfact> 0.39112162E+01</totfact>
</mgrwt>
</event>
<event>
 4    1  0.3761914E-001  0.1720665E+03  0.7546771E-02  0.1175710E+00
          4   -1    0    0  502    0  0.00000000000E+00  0.00000000000E+00  0.82832129862E+02  0.82832129862E+02  0.00000000000E+00 0.  1.
         -4   -1    0    0    0  501 -0.00000000000E+00 -0.00000000000E+00 -0.45047264400E+03  0.45047264400E+03  0.00000000000E+00 0. -1.
          6    1    1    2  502    0  0.87406219074E+00 -0.47044310730E+01 -0.30500457979E+03  0.35019236050E+03  0.17200000000E+03 0. -1.
         -6    1    1    2    0  501 -0.87406219074E+00  0.47044310730E+01 -0.62635934345E+02  0.18311241336E+03  0.17200000000E+03 0.  1.
<mgrwt>
<rscale>  2 0.17206654E+03</rscale>
<asrwt>0</asrwt>
<pdfrwt beam="1">  1        4 0.20708033E-01 0.17206654E+03</pdfrwt>
<pdfrwt beam="2">  1       -4 0.11261816E+00 0.17206654E+03</pdfrwt>
<totfact> 0.23883546E+01</totfact>
</mgrwt>
</event>
<event>
 4    1  0.3761914E-001  0.2097037E+03  0.7546771E-02  0.1141801E+00
         -1   -1    0    0    0  501 -0.00000000000E+00  0.00000000000E+00  0.10415978411E+03  0.10415978411E+03  0.00000000000E+00 0.  1.
          1   -1    0    0  502    0  0.00000000000E+00 -0.00000000000E+00 -0.43343093231E+03  0.43343093231E+03  0.00000000000E+00 0. -1.
          6    1    1    2  502    0  0.11992760784E+03 -0.30011381412E+01 -0.12135576730E+03  0.24228673140E+03  0.17200000000E+03 0.  1.
         -6    1    1    2    0  501 -0.11992760784E+03  0.30011381412E+01 -0.20791538091E+03  0.29530398502E+03  0.17200000000E+03 0.  1.
<mgrwt>
<rscale>  2 0.20970369E+03</rscale>
<asrwt>0</asrwt>
<pdfrwt beam="1">  1        1 0.10835773E+00 0.20970369E+03</pdfrwt>
<pdfrwt beam="2">  1       -1 0.26039946E-01 0.20970369E+03</pdfrwt>
<totfact> 0.36807418E+02</totfact>
</mgrwt>
</event>
<event>
 4    1  0.3761914E-001  0.1892053E+03  0.7546771E-02  0.1159180E+00
         -2   -1    0    0    0  501 -0.00000000000E+00  0.00000000000E+00  0.25655914067E+03  0.25655914067E+03  0.00000000000E+00 0. -1.
          2   -1    0    0  502    0  0.00000000000E+00 -0.00000000000E+00 -0.16770927495E+03  0.16770927495E+03  0.00000000000E+00 0.  1.
          6    1    1    2  502    0  0.27349592498E+02 -0.73936816197E+02  0.13137468616E+03  0.23034313787E+03  0.17200000000E+03 0. -1.
         -6    1    1    2    0  501 -0.27349592498E+02  0.73936816197E+02 -0.42524820444E+02  0.19392527776E+03  0.17200000000E+03 0.  1.
<mgrwt>
<rscale>  2 0.18920532E+03</rscale>
<asrwt>0</asrwt>
<pdfrwt beam="1">  1        2 0.41927319E-01 0.18920532E+03</pdfrwt>
<pdfrwt beam="2">  1       -2 0.64139785E-01 0.18920532E+03</pdfrwt>
<totfact> 0.28157519E+02</totfact>
</mgrwt>
</event>
<event>
 4    1  0.3761914E-001  0.1863184E+03  0.7546771E-02  0.1161824E+00
          2   -1    0    0  502    0  0.00000000000E+00  0.00000000000E+00  0.11476690746E+04  0.11476690746E+04  0.00000000000E+00 0.  1.
         -2   -1    0    0    0  501 -0.00000000000E+00 -0.00000000000E+00 -0.46745861130E+02  0.46745861130E+02  0.00000000000E+00 0. -1.
          6    1    1    2  502    0 -0.29081790674E+01 -0.71568757332E+02  0.90524982178E+03  0.92422496416E+03  0.17200000000E+03 0.  1.
         -6    1    1    2    0  501  0.29081790674E+01  0.71568757332E+02  0.19567339173E+03  0.27018997162E+03  0.17200000000E+03 0. -1.
<mgrwt>
<rscale>  2 0.18631840E+03</rscale>
<asrwt>0</asrwt>
<pdfrwt beam="1">  1        2 0.28691718E+00 0.18631840E+03</pdfrwt>
<pdfrwt beam="2">  1       -2 0.11686469E-01 0.18631840E+03</pdfrwt>
<totfact> 0.46067920E+02</totfact>
</mgrwt>
</event>
<event>
 4    1  0.3761914E-001  0.1945425E+03  0.7546771E-02  0.1154427E+00
          2   -1    0    0  502    0  0.00000000000E+00  0.00000000000E+00  0.11601269260E+04  0.11601269260E+04  0.00000000000E+00 0.  1.
         -2   -1    0    0    0  501 -0.00000000000E+00 -0.00000000000E+00 -0.32768507885E+02  0.32768507885E+02  0.00000000000E+00 0. -1.
          6    1    1    2  502    0  0.21892988688E+01  0.90873549070E+02  0.60342768160E+03  0.63401243038E+03  0.17200000000E+03 0. -1.
         -6    1    1    2    0  501 -0.21892988688E+01 -0.90873549070E+02  0.52393073656E+03  0.55888300355E+03  0.17200000000E+03 0.  1.
<mgrwt>
<rscale>  2 0.19454253E+03</rscale>
<asrwt>0</asrwt>
<pdfrwt beam="1">  1        2 0.29003159E+00 0.19454253E+03</pdfrwt>
<pdfrwt beam="2">  1       -2 0.81921308E-02 0.19454253E+03</pdfrwt>
<totfact> 0.78737339E+02</totfact>
</mgrwt>
</event>
<event>
 4    1  0.3761914E-001  0.1892426E+03  0.7546771E-02  0.1159146E+00
          2   -1    0    0  502    0  0.00000000000E+00  0.00000000000E+00  0.42190690690E+03  0.42190690690E+03  0.00000000000E+00 0.  1.
         -2   -1    0    0    0  501 -0.00000000000E+00 -0.00000000000E+00 -0.93235415143E+02  0.93235415143E+02  0.00000000000E+00 0. -1.
          6    1    1    2  502    0 -0.51505190769E+02  0.59799597171E+02  0.87243698283E+02  0.20838483483E+03  0.17200000000E+03 0. -1.
         -6    1    1    2    0  501  0.51505190769E+02 -0.59799597171E+02  0.24142779347E+03  0.30675748721E+03  0.17200000000E+03 0.  1.
<mgrwt>
<rscale>  2 0.18924264E+03</rscale>
<asrwt>0</asrwt>
<pdfrwt beam="1">  1        2 0.10547672E+00 0.18924264E+03</pdfrwt>
<pdfrwt beam="2">  1       -2 0.23308855E-01 0.18924264E+03</pdfrwt>
<totfact> 0.69664692E+02</totfact>
</mgrwt>
</event>
<event>
 4    1  0.3761914E-001  0.1972805E+03  0.7546771E-02  0.1152054E+00
          2   -1    0    0  502    0  0.00000000000E+00  0.00000000000E+00  0.12499150892E+04  0.12499150892E+04  0.00000000000E+00 0. -1.
         -2   -1    0    0    0  501 -0.00000000000E+00 -0.00000000000E+00 -0.31389207170E+02  0.31389207170E+02  0.00000000000E+00 0.  1.
          6    1    1    2  502    0  0.95111328162E+02 -0.17013094005E+02  0.55192816163E+03  0.58612652706E+03  0.17200000000E+03 0. -1.
         -6    1    1    2    0  501 -0.95111328162E+02  0.17013094005E+02  0.66659772040E+03  0.69517776932E+03  0.17200000000E+03 0. -1.
<mgrwt>
<rscale>  2 0.19728054E+03</rscale>
<asrwt>0</asrwt>
<pdfrwt beam="1">  1        2 0.31247861E+00 0.19728054E+03</pdfrwt>
<pdfrwt beam="2">  1       -2 0.78473060E-02 0.19728054E+03</pdfrwt>
<totfact> 0.70679405E+02</totfact>
</mgrwt>
</event>
<event>
 4    1  0.3761914E-001  0.1771352E+03  0.7546771E-02  0.1170605E+00
          2   -1    0    0  502    0  0.00000000000E+00  0.00000000000E+00  0.63991905351E+03  0.63991905351E+03  0.00000000000E+00 0.  1.
         -2   -1    0    0    0  501 -0.00000000000E+00 -0.00000000000E+00 -0.53855924796E+02  0.53855924796E+02  0.00000000000E+00 0. -1.
          6    1    1    2  502    0  0.12365962629E+02 -0.40496321598E+02  0.39684342334E+03  0.43458206560E+03  0.17200000000E+03 0.  1.
         -6    1    1    2    0  501 -0.12365962629E+02  0.40496321598E+02  0.18921970538E+03  0.25919291271E+03  0.17200000000E+03 0. -1.
<mgrwt>
<rscale>  2 0.17713517E+03</rscale>
<asrwt>0</asrwt>
<pdfrwt beam="1">  1        2 0.15997974E+00 0.17713517E+03</pdfrwt>
<pdfrwt beam="2">  1       -2 0.13463983E-01 0.17713517E+03</pdfrwt>
<totfact> 0.10215753E+03</totfact>
</mgrwt>
</event>
<event>
 4    1  0.3761914E-001  0.1860345E+03  0.7546771E-02  0.1162087E+00
         -2   -1    0    0    0  501 -0.00000000000E+00  0.00000000000E+00  0.39172119452E+02  0.39172119452E+02  0.00000000000E+00 0. -1.
          2   -1    0    0  502    0  0.00000000000E+00 -0.00000000000E+00 -0.88655131645E+03  0.88655131645E+03  0.00000000000E+00 0.  1.
          6    1    1    2  502    0  0.32701282499E+02  0.62892510835E+02 -0.45081299795E+03  0.48768965636E+03  0.17200000000E+03 0.  1.
         -6    1    1    2    0  501 -0.32701282499E+02 -0.62892510835E+02 -0.39656619905E+03  0.43803377955E+03  0.17200000000E+03 0.  1.
<mgrwt>
<rscale>  2 0.18603452E+03</rscale>
<asrwt>0</asrwt>
<pdfrwt beam="1">  1        2 0.22163783E+00 0.18603452E+03</pdfrwt>
<pdfrwt beam="2">  1       -2 0.97930297E-02 0.18603452E+03</pdfrwt>
<totfact> 0.10167045E+03</totfact>
</mgrwt>
</event>
<event>
 4    1  0.3761914E-001  0.1973944E+03  0.7546771E-02  0.1151956E+00
         -2   -1    0    0    0  501 -0.00000000000E+00  0.00000000000E+00  0.29953175548E+03  0.29953175548E+03  0.00000000000E+00 0. -1.
          2   -1    0    0  502    0  0.00000000000E+00 -0.00000000000E+00 -0.17289720405E+03  0.17289720405E+03  0.00000000000E+00 0.  1.
          6    1    1    2  502    0 -0.37563716853E+02  0.89272243121E+02 -0.54225705140E+02  0.20470709151E+03  0.17200000000E+03 0.  1.
         -6    1    1    2    0  501  0.37563716853E+02 -0.89272243121E+02  0.18086025657E+03  0.26772186803E+03  0.17200000000E+03 0. -1.
<mgrwt>
<rscale>  2 0.19739444E+03</rscale>
<asrwt>0</asrwt>
<pdfrwt beam="1">  1        2 0.43224301E-01 0.19739444E+03</pdfrwt>
<pdfrwt beam="2">  1       -2 0.74882938E-01 0.19739444E+03</pdfrwt>
<totfact> 0.19579179E+02</totfact>
</mgrwt>
</event>
<event>
 4    1  0.3761914E-001  0.2423523E+03  0.7546771E-02  0.1118236E+00
         -2   -1    0    0    0  501 -0.00000000000E+00  0.00000000000E+00  0.54020637720E+02  0.54020637720E+02  0.00000000000E+00 0. -1.
          2   -1    0    0  502    0  0.00000000000E+00 -0.00000000000E+00 -0.12361935802E+04  0.12361935802E+04  0.00000000000E+00 0.  1.
          6    1    1    2  502    0  0.17064664395E+03  0.55082904236E+01 -0.36717253338E+03  0.43994350504E+03  0.17200000000E+03 0.  1.
         -6    1    1    2    0  501 -0.17064664395E+03 -0.55082904236E+01 -0.81500040915E+03  0.85027071293E+03  0.17200000000E+03 0.  1.
<mgrwt>
<rscale>  2 0.24235226E+03</rscale>
<asrwt>0</asrwt>
<pdfrwt beam="1">  1        2 0.30904839E+00 0.24235226E+03</pdfrwt>
<pdfrwt beam="2">  1       -2 0.13505160E-01 0.24235226E+03</pdfrwt>
<totfact> 0.30254298E+02</totfact>
</mgrwt>
</event>
<event>
 4    1  0.3761914E-001  0.1874548E+03  0.7546771E-02  0.1160777E+00
         -2   -1    0    0    0  501 -0.00000000000E+00  0.00000000000E+00  0.37122378067E+02  0.37122378067E+02  0.00000000000E+00 0.  1.
          2   -1    0    0  502    0  0.00000000000E+00 -0.00000000000E+00 -0.17887070103E+04  0.17887070103E+04  0.00000000000E+00 0. -1.
          6    1    1    2  502    0 -0.24624749521E+02  0.70348653833E+02 -0.15021888081E+04  0.15138396634E+04  0.17200000000E+03 0. -1.
         -6    1    1    2    0  501  0.24624749521E+02 -0.70348653833E+02 -0.24939582423E+03  0.31198972504E+03  0.17200000000E+03 0.  1.
<mgrwt>
<rscale>  2 0.18745482E+03</rscale>
<asrwt>0</asrwt>
<pdfrwt beam="1">  1        2 0.44717675E+00 0.18745482E+03</pdfrwt>
<pdfrwt beam="2">  1       -2 0.92805947E-02 0.18745482E+03</pdfrwt>
<totfact> 0.18284004E+02</totfact>
</mgrwt>
</event>
<event>
 4    1  0.3761914E-001  0.2245099E+03  0.7546771E-02  0.1130565E+00
         -2   -1    0    0    0  501 -0.00000000000E+00  0.00000000000E+00  0.12890072615E+03  0.12890072615E+03  0.00000000000E+00 0.  1.
          2   -1    0    0  502    0  0.00000000000E+00 -0.00000000000E+00 -0.42153180439E+03  0.42153180439E+03  0.00000000000E+00 0. -1.
          6    1    1    2  502    0 -0.35906426283E+02 -0.13975489749E+03 -0.22034177782E+03  0.31457145750E+03  0.17200000000E+03 0. -1.
         -6    1    1    2    0  501  0.35906426283E+02  0.13975489749E+03 -0.72289300415E+02  0.23586107304E+03  0.17200000000E+03 0.  1.
<mgrwt>
<rscale>  2 0.22450992E+03</rscale>
<asrwt>0</asrwt>
<pdfrwt beam="1">  1        2 0.10538295E+00 0.22450992E+03</pdfrwt>
<pdfrwt beam="2">  1       -2 0.32225182E-01 0.22450992E+03</pdfrwt>
<totfact> 0.39002972E+02</totfact>
</mgrwt>
</event>
<event>
 4    1  0.3761914E-001  0.2352863E+03  0.7546771E-02  0.1122973E+00
         -1   -1    0    0    0  501 -0.00000000000E+00  0.00000000000E+00  0.38236351728E+03  0.38236351728E+03  0.00000000000E+00 0. -1.
          1   -1    0    0  502    0  0.00000000000E+00 -0.00000000000E+00 -0.15995809884E+03  0.15995809884E+03  0.00000000000E+00 0.  1.
          6    1    1    2  502    0 -0.72188498477E+02 -0.14340317031E+03  0.27682248601E+02  0.23690917132E+03  0.17200000000E+03 0.  1.
         -6    1    1    2    0  501  0.72188498477E+02  0.14340317031E+03  0.19472316983E+03  0.30541244480E+03  0.17200000000E+03 0. -1.
<mgrwt>
<rscale>  2 0.23528631E+03</rscale>
<asrwt>0</asrwt>
<pdfrwt beam="1">  1        1 0.39989525E-01 0.23528631E+03</pdfrwt>
<pdfrwt beam="2">  1       -1 0.95590877E-01 0.23528631E+03</pdfrwt>
<totfact> 0.11879905E+02</totfact>
</mgrwt>
</event>
<event>
 4    1  0.3761914E-001  0.2614080E+03  0.7546771E-02  0.1106300E+00
          2   -1    0    0  502    0  0.00000000000E+00  0.00000000000E+00  0.88031320647E+03  0.88031320647E+03  0.00000000000E+00 0.  1.
         -2   -1    0    0    0  501 -0.00000000000E+00 -0.00000000000E+00 -0.11568241319E+03  0.11568241319E+03  0.00000000000E+00 0. -1.
          6    1    1    2  502    0 -0.19541295991E+03  0.23746570273E+02  0.66795249665E+03  0.71728283283E+03  0.17200000000E+03 0.  1.
         -6    1    1    2    0  501  0.19541295991E+03 -0.23746570273E+02  0.96678296630E+02  0.27871278683E+03  0.17200000000E+03 0. -1.
<mgrwt>
<rscale>  2 0.26140797E+03</rscale>
<asrwt>0</asrwt>
<pdfrwt beam="1">  1        2 0.22007828E+00 0.26140797E+03</pdfrwt>
<pdfrwt beam="2">  1       -2 0.28920606E-01 0.26140797E+03</pdfrwt>
<totfact> 0.16466491E+02</totfact>
</mgrwt>
</event>
<event>
 4    1  0.3761914E-001  0.2533008E+03  0.7546771E-02  0.1111236E+00
          2   -1    0    0  502    0  0.00000000000E+00  0.00000000000E+00  0.29014545071E+03  0.29014545071E+03  0.00000000000E+00 0.  1.
         -2   -1    0    0    0  501 -0.00000000000E+00 -0.00000000000E+00 -0.22432074208E+03  0.22432074208E+03  0.00000000000E+00 0. -1.
          6    1    1    2  502    0  0.11046692005E+03  0.14958051248E+03  0.22568971930E+01  0.25331080459E+03  0.17200000000E+03 0. -1.
         -6    1    1    2    0  501 -0.11046692005E+03 -0.14958051248E+03  0.63567811439E+02  0.26115538821E+03  0.17200000000E+03 0.  1.
<mgrwt>
<rscale>  2 0.25330075E+03</rscale>
<asrwt>0</asrwt>
<pdfrwt beam="1">  1        2 0.72536363E-01 0.25330075E+03</pdfrwt>
<pdfrwt beam="2">  1       -2 0.56080186E-01 0.25330075E+03</pdfrwt>
<totfact> 0.20442116E+02</totfact>
</mgrwt>
</event>
<event>
 4    1  0.3761914E-001  0.1868818E+03  0.7546771E-02  0.1161304E+00
          2   -1    0    0  502    0  0.00000000000E+00  0.00000000000E+00  0.81972789556E+03  0.81972789556E+03  0.00000000000E+00 0. -1.
         -2   -1    0    0    0  501 -0.00000000000E+00 -0.00000000000E+00 -0.42621640247E+02  0.42621640247E+02  0.00000000000E+00 0.  1.
          6    1    1    2  502    0  0.15296307686E+02 -0.71462033860E+02  0.39698092303E+03  0.43876947543E+03  0.17200000000E+03 0.  1.
         -6    1    1    2    0  501 -0.15296307686E+02  0.71462033860E+02  0.38012533228E+03  0.42358006038E+03  0.17200000000E+03 0.  1.
<mgrwt>
<rscale>  2 0.18688178E+03</rscale>
<asrwt>0</asrwt>
<pdfrwt beam="1">  1        2 0.20493192E+00 0.18688178E+03</pdfrwt>
<pdfrwt beam="2">  1       -2 0.10655413E-01 0.18688178E+03</pdfrwt>
<totfact> 0.10171582E+03</totfact>
</mgrwt>
</event>
<event>
 4    1  0.3761914E-001  0.2823733E+03  0.7546771E-02  0.1094400E+00
         -2   -1    0    0    0  501 -0.00000000000E+00  0.00000000000E+00  0.82826030316E+02  0.82826030316E+02  0.00000000000E+00 0. -1.
          2   -1    0    0  502    0  0.00000000000E+00 -0.00000000000E+00 -0.99111417094E+03  0.99111417094E+03  0.00000000000E+00 0.  1.
          6    1    1    2  502    0 -0.15647765186E+03  0.16020435863E+03 -0.54510052296E+03  0.61389679278E+03  0.17200000000E+03 0.  1.
         -6    1    1    2    0  501  0.15647765186E+03 -0.16020435863E+03 -0.36318761767E+03  0.46004340848E+03  0.17200000000E+03 0.  1.
<mgrwt>
<rscale>  2 0.28237332E+03</rscale>
<asrwt>0</asrwt>
<pdfrwt beam="1">  1        2 0.24777854E+00 0.28237332E+03</pdfrwt>
<pdfrwt beam="2">  1       -2 0.20706508E-01 0.28237332E+03</pdfrwt>
<totfact> 0.23698438E+02</totfact>
</mgrwt>
</event>
<event>
 4    1  0.3761914E-001  0.1765595E+03  0.7546771E-02  0.1171175E+00
          1   -1    0    0  502    0  0.00000000000E+00  0.00000000000E+00  0.14296775103E+03  0.14296775103E+03  0.00000000000E+00 0. -1.
         -1   -1    0    0    0  501 -0.00000000000E+00 -0.00000000000E+00 -0.31759675245E+03  0.31759675245E+03  0.00000000000E+00 0.  1.
          6    1    1    2  502    0  0.19734453687E+02 -0.34638132482E+02 -0.21624309607E+03  0.27916719987E+03  0.17200000000E+03 0.  1.
         -6    1    1    2    0  501 -0.19734453687E+02  0.34638132482E+02  0.41614094654E+02  0.18139730361E+03  0.17200000000E+03 0. -1.
<mgrwt>
<rscale>  2 0.17655948E+03</rscale>
<asrwt>0</asrwt>
<pdfrwt beam="1">  1        1 0.35741938E-01 0.17655948E+03</pdfrwt>
<pdfrwt beam="2">  1       -1 0.79399188E-01 0.17655948E+03</pdfrwt>
<totfact> 0.20448662E+02</totfact>
</mgrwt>
</event>
<event>
 4    1  0.3761914E-001  0.1811553E+03  0.7546771E-02  0.1166690E+00
          1   -1    0    0  502    0  0.00000000000E+00  0.00000000000E+00  0.11741899558E+03  0.11741899558E+03  0.00000000000E+00 0.  1.
         -1   -1    0    0    0  501 -0.00000000000E+00 -0.00000000000E+00 -0.30144170009E+03  0.30144170009E+03  0.00000000000E+00 0. -1.
          6    1    1    2  502    0 -0.20852288970E+02 -0.52900140195E+02 -0.35493164487E+02  0.18459958698E+03  0.17200000000E+03 0. -1.
         -6    1    1    2    0  501  0.20852288970E+02  0.52900140195E+02 -0.14852954002E+03  0.23426110869E+03  0.17200000000E+03 0.  1.
<mgrwt>
<rscale>  2 0.18115530E+03</rscale>
<asrwt>0</asrwt>
<pdfrwt beam="1">  1        1 0.29354749E-01 0.18115530E+03</pdfrwt>
<pdfrwt beam="2">  1       -1 0.75360425E-01 0.18115530E+03</pdfrwt>
<totfact> 0.29086162E+02</totfact>
</mgrwt>
</event>
<event>
 4    1  0.3761914E-001  0.2035860E+03  0.7546771E-02  0.1146748E+00
          2   -1    0    0  502    0  0.00000000000E+00  0.00000000000E+00  0.97133226581E+03  0.97133226581E+03  0.00000000000E+00 0. -1.
         -2   -1    0    0    0  501 -0.00000000000E+00 -0.00000000000E+00 -0.48451675584E+02  0.48451675584E+02  0.00000000000E+00 0.  1.
          6    1    1    2  502    0  0.51280906447E+01 -0.10879786209E+03  0.28531150258E+03  0.35049953725E+03  0.17200000000E+03 0.  1.
         -6    1    1    2    0  501 -0.51280906447E+01  0.10879786209E+03  0.63756908765E+03  0.66928440414E+03  0.17200000000E+03 0. -1.
<mgrwt>
<rscale>  2 0.20358603E+03</rscale>
<asrwt>0</asrwt>
<pdfrwt beam="1">  1        2 0.24283300E+00 0.20358603E+03</pdfrwt>
<pdfrwt beam="2">  1       -2 0.12112922E-01 0.20358603E+03</pdfrwt>
<totfact> 0.61094018E+02</totfact>
</mgrwt>
</event>
<event>
 4    1  0.3761914E-001  0.2453175E+03  0.7546771E-02  0.1116300E+00
          2   -1    0    0  502    0  0.00000000000E+00  0.00000000000E+00  0.91354986766E+03  0.91354986766E+03  0.00000000000E+00 0.  1.
         -2   -1    0    0    0  501 -0.00000000000E+00 -0.00000000000E+00 -0.67518247268E+02  0.67518247268E+02  0.00000000000E+00 0. -1.
          6    1    1    2  502    0  0.16750607404E+03 -0.50382505315E+02  0.34650451895E+03  0.42455395809E+03  0.17200000000E+03 0. -1.
         -6    1    1    2    0  501 -0.16750607404E+03  0.50382505315E+02  0.49952710145E+03  0.55651415684E+03  0.17200000000E+03 0. -1.
<mgrwt>
<rscale>  2 0.24531751E+03</rscale>
<asrwt>0</asrwt>
<pdfrwt beam="1">  1        2 0.22838743E+00 0.24531751E+03</pdfrwt>
<pdfrwt beam="2">  1       -2 0.16879565E-01 0.24531751E+03</pdfrwt>
<totfact> 0.39431375E+02</totfact>
</mgrwt>
</event>
<event>
 4    1  0.3761914E-001  0.1744506E+03  0.7546771E-02  0.1173284E+00
         -2   -1    0    0    0  501 -0.00000000000E+00  0.00000000000E+00  0.43149230796E+03  0.43149230796E+03  0.00000000000E+00 0. -1.
          2   -1    0    0  502    0  0.00000000000E+00 -0.00000000000E+00 -0.10630915001E+03  0.10630915001E+03  0.00000000000E+00 0.  1.
          6    1    1    2  502    0 -0.27696881829E+02  0.90498937235E+01  0.31859120599E+03  0.36322634041E+03  0.17200000000E+03 0. -1.
         -6    1    1    2    0  501  0.27696881829E+02 -0.90498937235E+01  0.65919519665E+01  0.17457511756E+03  0.17200000000E+03 0.  1.
<mgrwt>
<rscale>  2 0.17445062E+03</rscale>
<asrwt>0</asrwt>
<pdfrwt beam="1">  1        2 0.26577289E-01 0.17445062E+03</pdfrwt>
<pdfrwt beam="2">  1       -2 0.10787307E+00 0.17445062E+03</pdfrwt>
<totfact> 0.14567702E+02</totfact>
</mgrwt>
</event>
<event>
 4    1  0.3761914E-001  0.1979540E+03  0.7546771E-02  0.1151477E+00
         -1   -1    0    0    0  501 -0.00000000000E+00  0.00000000000E+00  0.41092286363E+03  0.41092286363E+03  0.00000000000E+00 0. -1.
          1   -1    0    0  502    0  0.00000000000E+00 -0.00000000000E+00 -0.95405295533E+02  0.95405295533E+02  0.00000000000E+00 0.  1.
          6    1    1    2  502    0 -0.96901164301E+02 -0.14558534321E+02  0.15226961781E+03  0.24974351458E+03  0.17200000000E+03 0. -1.
         -6    1    1    2    0  501  0.96901164301E+02  0.14558534321E+02  0.16324795028E+03  0.25658464458E+03  0.17200000000E+03 0.  1.
<mgrwt>
<rscale>  2 0.19795400E+03</rscale>
<asrwt>0</asrwt>
<pdfrwt beam="1">  1        1 0.23851325E-01 0.19795400E+03</pdfrwt>
<pdfrwt beam="2">  1       -1 0.10273071E+00 0.19795400E+03</pdfrwt>
<totfact> 0.19534583E+02</totfact>
</mgrwt>
</event>
<event>
 4    1  0.3761914E-001  0.1822805E+03  0.7546771E-02  0.1165614E+00
          2   -1    0    0  502    0  0.00000000000E+00  0.00000000000E+00  0.34681043945E+03  0.34681043945E+03  0.00000000000E+00 0. -1.
         -2   -1    0    0    0  501 -0.00000000000E+00 -0.00000000000E+00 -0.96374068681E+02  0.96374068681E+02  0.00000000000E+00 0.  1.
          6    1    1    2  502    0 -0.59944995223E+02  0.69846874890E+01  0.14224530709E+03  0.23121400412E+03  0.17200000000E+03 0. -1.
         -6    1    1    2    0  501  0.59944995223E+02 -0.69846874890E+01  0.10819106368E+03  0.21197050401E+03  0.17200000000E+03 0.  1.
<mgrwt>
<rscale>  2 0.18228052E+03</rscale>
<asrwt>0</asrwt>
<pdfrwt beam="1">  1        2 0.86702607E-01 0.18228052E+03</pdfrwt>
<pdfrwt beam="2">  1       -2 0.24093518E-01 0.18228052E+03</pdfrwt>
<totfact> 0.82593155E+02</totfact>
</mgrwt>
</event>
<event>
 4    1  0.3761914E-001  0.2492022E+03  0.7546771E-02  0.1113810E+00
          2   -1    0    0  502    0  0.00000000000E+00  0.00000000000E+00  0.18567512583E+04  0.18567512583E+04  0.00000000000E+00 0. -1.
         -2   -1    0    0    0  501 -0.00000000000E+00 -0.00000000000E+00 -0.33449774327E+02  0.33449774327E+02  0.00000000000E+00 0.  1.
          6    1    1    2  502    0 -0.14096371361E+03  0.11245874693E+03  0.92107238340E+03  0.95418869925E+03  0.17200000000E+03 0.  1.
         -6    1    1    2    0  501  0.14096371361E+03 -0.11245874693E+03  0.90222910061E+03  0.93601233341E+03  0.17200000000E+03 0. -1.
<mgrwt>
<rscale>  2 0.24920220E+03</rscale>
<asrwt>0</asrwt>
<pdfrwt beam="1">  1        2 0.46418747E+00 0.24920220E+03</pdfrwt>
<pdfrwt beam="2">  1       -2 0.83624498E-02 0.24920220E+03</pdfrwt>
<totfact> 0.18107309E+02</totfact>
</mgrwt>
</event>
<event>
 4    1  0.3761914E-001  0.1862133E+03  0.7546771E-02  0.1161922E+00
          2   -1    0    0  502    0  0.00000000000E+00  0.00000000000E+00  0.20763021990E+03  0.20763021990E+03  0.00000000000E+00 0. -1.
         -2   -1    0    0    0  501 -0.00000000000E+00 -0.00000000000E+00 -0.17798373889E+03  0.17798373889E+03  0.00000000000E+00 0.  1.
          6    1    1    2  502    0 -0.71145474933E+02  0.54514535587E+01  0.62708091419E+02  0.19648842632E+03  0.17200000000E+03 0. -1.
         -6    1    1    2    0  501  0.71145474933E+02 -0.54514535587E+01 -0.33061610400E+02  0.18912553247E+03  0.17200000000E+03 0.  1.
<mgrwt>
<rscale>  2 0.18621331E+03</rscale>
<asrwt>0</asrwt>
<pdfrwt beam="1">  1        2 0.51907555E-01 0.18621331E+03</pdfrwt>
<pdfrwt beam="2">  1       -2 0.44495935E-01 0.18621331E+03</pdfrwt>
<totfact> 0.46849581E+02</totfact>
</mgrwt>
</event>
<event>
 4    1  0.3761914E-001  0.1869648E+03  0.7546771E-02  0.1161228E+00
         -2   -1    0    0    0  501 -0.00000000000E+00  0.00000000000E+00  0.13194662642E+03  0.13194662642E+03  0.00000000000E+00 0. -1.
          2   -1    0    0  502    0  0.00000000000E+00 -0.00000000000E+00 -0.27110183009E+03  0.27110183009E+03  0.00000000000E+00 0.  1.
          6    1    1    2  502    0  0.45186861988E+02  0.57705991575E+02 -0.99998879454E+02  0.21202737996E+03  0.17200000000E+03 0. -1.
         -6    1    1    2    0  501 -0.45186861988E+02 -0.57705991575E+02 -0.39156324220E+02  0.19102107655E+03  0.17200000000E+03 0. -1.
<mgrwt>
<rscale>  2 0.18696479E+03</rscale>
<asrwt>0</asrwt>
<pdfrwt beam="1">  1        2 0.67775457E-01 0.18696479E+03</pdfrwt>
<pdfrwt beam="2">  1       -2 0.32986657E-01 0.18696479E+03</pdfrwt>
<totfact> 0.61844597E+02</totfact>
</mgrwt>
</event>
<event>
 4    1  0.3761914E-001  0.1911029E+03  0.7546771E-02  0.1157470E+00
         -1   -1    0    0    0  501 -0.00000000000E+00  0.00000000000E+00  0.44119408216E+02  0.44119408216E+02  0.00000000000E+00 0.  1.
          1   -1    0    0  502    0  0.00000000000E+00 -0.00000000000E+00 -0.11333524009E+04  0.11333524009E+04  0.00000000000E+00 0. -1.
          6    1    1    2  502    0  0.66647041363E+02 -0.49945001178E+02 -0.23890729589E+03  0.30593631248E+03  0.17200000000E+03 0.  1.
         -6    1    1    2    0  501 -0.66647041363E+02  0.49945001178E+02 -0.85032569677E+03  0.87153549661E+03  0.17200000000E+03 0. -1.
<mgrwt>
<rscale>  2 0.19110293E+03</rscale>
<asrwt>0</asrwt>
<pdfrwt beam="1">  1        1 0.28333809E+00 0.19110293E+03</pdfrwt>
<pdfrwt beam="2">  1       -1 0.11029852E-01 0.19110293E+03</pdfrwt>
<totfact> 0.22868354E+02</totfact>
</mgrwt>
</event>
<event>
 4    1  0.3761914E-001  0.1752365E+03  0.7546771E-02  0.1172495E+00
         -1   -1    0    0    0  501 -0.00000000000E+00  0.00000000000E+00  0.83345024227E+02  0.83345024227E+02  0.00000000000E+00 0.  1.
          1   -1    0    0  502    0  0.00000000000E+00 -0.00000000000E+00 -0.69598824215E+03  0.69598824215E+03  0.00000000000E+00 0. -1.
          6    1    1    2  502    0 -0.27573023055E+02  0.19066801417E+02 -0.57363980512E+03  0.59980866994E+03  0.17200000000E+03 0. -1.
         -6    1    1    2    0  501  0.27573023055E+02 -0.19066801417E+02 -0.39003412807E+02  0.17952459644E+03  0.17200000000E+03 0.  1.
<mgrwt>
<rscale>  2 0.17523645E+03</rscale>
<asrwt>0</asrwt>
<pdfrwt beam="1">  1        1 0.17399706E+00 0.17523645E+03</pdfrwt>
<pdfrwt beam="2">  1       -1 0.20836256E-01 0.17523645E+03</pdfrwt>
<totfact> 0.24808416E+02</totfact>
</mgrwt>
</event>
<event>
 4    1  0.3761914E-001  0.1865328E+03  0.7546771E-02  0.1161626E+00
          2   -1    0    0  502    0  0.00000000000E+00  0.00000000000E+00  0.18507277774E+04  0.18507277774E+04  0.00000000000E+00 0.  1.
         -2   -1    0    0    0  501 -0.00000000000E+00 -0.00000000000E+00 -0.43320707942E+02  0.43320707942E+02  0.00000000000E+00 0. -1.
          6    1    1    2  502    0  0.17868915537E+02 -0.69937036498E+02  0.19121812658E+03  0.26713079034E+03  0.17200000000E+03 0. -1.
         -6    1    1    2    0  501 -0.17868915537E+02  0.69937036498E+02  0.16161889429E+04  0.16269176950E+04  0.17200000000E+03 0.  1.
<mgrwt>
<rscale>  2 0.18653280E+03</rscale>
<asrwt>0</asrwt>
<pdfrwt beam="1">  1        2 0.46268168E+00 0.18653280E+03</pdfrwt>
<pdfrwt beam="2">  1       -2 0.10830183E-01 0.18653280E+03</pdfrwt>
<totfact> 0.12518669E+02</totfact>
</mgrwt>
</event>
<event>
 4    1  0.3761914E-001  0.2324658E+03  0.7546771E-02  0.1124916E+00
         -1   -1    0    0    0  501 -0.00000000000E+00  0.00000000000E+00  0.10323085838E+03  0.10323085838E+03  0.00000000000E+00 0.  1.
          1   -1    0    0  502    0  0.00000000000E+00 -0.00000000000E+00 -0.74321494080E+03  0.74321494080E+03  0.00000000000E+00 0. -1.
          6    1    1    2  502    0 -0.15581511869E+03 -0.13342173305E+02 -0.55011036999E+03  0.59721167434E+03  0.17200000000E+03 0.  1.
         -6    1    1    2    0  501  0.15581511869E+03  0.13342173305E+02 -0.89873712429E+02  0.24923412484E+03  0.17200000000E+03 0. -1.
<mgrwt>
<rscale>  2 0.23246584E+03</rscale>
<asrwt>0</asrwt>
<pdfrwt beam="1">  1        1 0.18580373E+00 0.23246584E+03</pdfrwt>
<pdfrwt beam="2">  1       -1 0.25807715E-01 0.23246584E+03</pdfrwt>
<totfact> 0.15204713E+02</totfact>
</mgrwt>
</event>
<event>
 4    1  0.3761914E-001  0.1877165E+03  0.7546771E-02  0.1160537E+00
         -2   -1    0    0    0  501 -0.00000000000E+00  0.00000000000E+00  0.70884845187E+02  0.70884845187E+02  0.00000000000E+00 0. -1.
          2   -1    0    0  502    0  0.00000000000E+00 -0.00000000000E+00 -0.51165238248E+03  0.51165238248E+03  0.00000000000E+00 0.  1.
          6    1    1    2  502    0 -0.69167771975E+02  0.29484233771E+02 -0.17127742571E+03  0.25411307971E+03  0.17200000000E+03 0.  1.
         -6    1    1    2    0  501  0.69167771975E+02 -0.29484233771E+02 -0.26949011159E+03  0.32842414796E+03  0.17200000000E+03 0.  1.
<mgrwt>
<rscale>  2 0.18771654E+03</rscale>
<asrwt>0</asrwt>
<pdfrwt beam="1">  1        2 0.12791309E+00 0.18771654E+03</pdfrwt>
<pdfrwt beam="2">  1       -2 0.17721212E-01 0.18771654E+03</pdfrwt>
<totfact> 0.87686706E+02</totfact>
</mgrwt>
</event>
<event>
 4    1  0.3761914E-001  0.2853340E+03  0.7546771E-02  0.1092811E+00
          1   -1    0    0  502    0  0.00000000000E+00  0.00000000000E+00  0.74689463744E+03  0.74689463744E+03  0.00000000000E+00 0. -1.
         -1   -1    0    0    0  501 -0.00000000000E+00 -0.00000000000E+00 -0.22300554360E+03  0.22300554360E+03  0.00000000000E+00 0.  1.
          6    1    1    2  502    0 -0.26407634193E+02 -0.22612858701E+03 -0.84785945233E+02  0.29766450496E+03  0.17200000000E+03 0.  1.
         -6    1    1    2    0  501  0.26407634193E+02  0.22612858701E+03  0.60867503907E+03  0.67223567608E+03  0.17200000000E+03 0. -1.
<mgrwt>
<rscale>  2 0.28533402E+03</rscale>
<asrwt>0</asrwt>
<pdfrwt beam="1">  1        1 0.18672365E+00 0.28533402E+03</pdfrwt>
<pdfrwt beam="2">  1       -1 0.55751388E-01 0.28533402E+03</pdfrwt>
<totfact> 0.37931546E+01</totfact>
</mgrwt>
</event>
<event>
 4    1  0.3761914E-001  0.1759642E+03  0.7546771E-02  0.1171767E+00
          1   -1    0    0  502    0  0.00000000000E+00  0.00000000000E+00  0.15259600099E+03  0.15259600099E+03  0.00000000000E+00 0. -1.
         -1   -1    0    0    0  501 -0.00000000000E+00 -0.00000000000E+00 -0.21771600231E+03  0.21771600231E+03  0.00000000000E+00 0.  1.
          6    1    1    2  502    0  0.84948157610E+01 -0.36155919679E+02 -0.80843234720E+02  0.19364669123E+03  0.17200000000E+03 0.  1.
         -6    1    1    2    0  501 -0.84948157610E+01  0.36155919679E+02  0.15723233401E+02  0.17666531208E+03  0.17200000000E+03 0. -1.
<mgrwt>
<rscale>  2 0.17596424E+03</rscale>
<asrwt>0</asrwt>
<pdfrwt beam="1">  1        1 0.38149000E-01 0.17596424E+03</pdfrwt>
<pdfrwt beam="2">  1       -1 0.54429001E-01 0.17596424E+03</pdfrwt>
<totfact> 0.39469133E+02</totfact>
</mgrwt>
</event>
<event>
 4    1  0.3761914E-001  0.1829879E+03  0.7546771E-02  0.1164942E+00
          2   -1    0    0  502    0  0.00000000000E+00  0.00000000000E+00  0.41507729373E+03  0.41507729373E+03  0.00000000000E+00 0. -1.
         -2   -1    0    0    0  501 -0.00000000000E+00 -0.00000000000E+00 -0.85376552417E+02  0.85376552417E+02  0.00000000000E+00 0.  1.
          6    1    1    2  502    0  0.34000419854E+02  0.52388333320E+02  0.10610346826E+03  0.21152425865E+03  0.17200000000E+03 0.  1.
         -6    1    1    2    0  501 -0.34000419854E+02 -0.52388333320E+02  0.22359727305E+03  0.28892958750E+03  0.17200000000E+03 0. -1.
<mgrwt>
<rscale>  2 0.18298788E+03</rscale>
<asrwt>0</asrwt>
<pdfrwt beam="1">  1        2 0.10376932E+00 0.18298788E+03</pdfrwt>
<pdfrwt beam="2">  1       -2 0.21344139E-01 0.18298788E+03</pdfrwt>
<totfact> 0.82723575E+02</totfact>
</mgrwt>
</event>
<event>
 4    1  0.3761914E-001  0.2392962E+03  0.7546771E-02  0.1120263E+00
          2   -1    0    0  502    0  0.00000000000E+00  0.00000000000E+00  0.12516237070E+04  0.12516237070E+04  0.00000000000E+00 0.  1.
         -2   -1    0    0    0  501 -0.00000000000E+00 -0.00000000000E+00 -0.86999403772E+02  0.86999403772E+02  0.00000000000E+00 0. -1.
          6    1    1    2  502    0 -0.43031625873E+02 -0.16070770328E+03  0.12144555875E+03  0.26834997757E+03  0.17200000000E+03 0. -1.
         -6    1    1    2    0  501  0.43031625873E+02  0.16070770328E+03  0.10431787444E+04  0.10702731332E+04  0.17200000000E+03 0.  1.
<mgrwt>
<rscale>  2 0.23929623E+03</rscale>
<asrwt>0</asrwt>
<pdfrwt beam="1">  1        2 0.31290587E+00 0.23929623E+03</pdfrwt>
<pdfrwt beam="2">  1       -2 0.21749855E-01 0.23929623E+03</pdfrwt>
<totfact> 0.13180678E+02</totfact>
</mgrwt>
</event>
<event>
 4    1  0.3761914E-001  0.1803843E+03  0.7546771E-02  0.1167432E+00
          2   -1    0    0  502    0  0.00000000000E+00  0.00000000000E+00  0.92358538080E+03  0.92358538080E+03  0.00000000000E+00 0.  1.
         -2   -1    0    0    0  501 -0.00000000000E+00 -0.00000000000E+00 -0.56029243367E+02  0.56029243367E+02  0.00000000000E+00 0. -1.
          6    1    1    2  502    0 -0.98621004280E+01  0.53453180143E+02  0.13535322284E+03  0.22551939701E+03  0.17200000000E+03 0. -1.
         -6    1    1    2    0  501  0.98621004280E+01 -0.53453180143E+02  0.73220291459E+03  0.75409522716E+03  0.17200000000E+03 0.  1.
<mgrwt>
<rscale>  2 0.18038432E+03</rscale>
<asrwt>0</asrwt>
<pdfrwt beam="1">  1        2 0.23089630E+00 0.18038432E+03</pdfrwt>
<pdfrwt beam="2">  1       -2 0.14007314E-01 0.18038432E+03</pdfrwt>
<totfact> 0.53229236E+02</totfact>
</mgrwt>
</event>
<event>
 4    1  0.3761914E-001  0.2383742E+03  0.7546771E-02  0.1120881E+00
         -2   -1    0    0    0  501 -0.00000000000E+00  0.00000000000E+00  0.86814256374E+02  0.86814256374E+02  0.00000000000E+00 0.  1.
          2   -1    0    0  502    0  0.00000000000E+00 -0.00000000000E+00 -0.90335146097E+03  0.90335146097E+03  0.00000000000E+00 0. -1.
          6    1    1    2  502    0  0.20590019321E+02 -0.16375073975E+03 -0.14843443270E+03  0.28081138594E+03  0.17200000000E+03 0.  1.
         -6    1    1    2    0  501 -0.20590019321E+02  0.16375073975E+03 -0.66810277190E+03  0.70935433141E+03  0.17200000000E+03 0. -1.
<mgrwt>
<rscale>  2 0.23837419E+03</rscale>
<asrwt>0</asrwt>
<pdfrwt beam="1">  1        2 0.22583787E+00 0.23837419E+03</pdfrwt>
<pdfrwt beam="2">  1       -2 0.21703564E-01 0.23837419E+03</pdfrwt>
<totfact> 0.26257076E+02</totfact>
</mgrwt>
</event>
<event>
 4    1  0.3761914E-001  0.2017337E+03  0.7546771E-02  0.1148285E+00
          2   -1    0    0  502    0  0.00000000000E+00  0.00000000000E+00  0.11128511941E+04  0.11128511941E+04  0.00000000000E+00 0.  1.
         -2   -1    0    0    0  501 -0.00000000000E+00 -0.00000000000E+00 -0.54004025256E+02  0.54004025256E+02  0.00000000000E+00 0. -1.
          6    1    1    2  502    0 -0.84892592025E+02 -0.62495764962E+02  0.86091958348E+03  0.88423922218E+03  0.17200000000E+03 0.  1.
         -6    1    1    2    0  501  0.84892592025E+02  0.62495764962E+02  0.19792758540E+03  0.28261599721E+03  0.17200000000E+03 0. -1.
<mgrwt>
<rscale>  2 0.20173367E+03</rscale>
<asrwt>0</asrwt>
<pdfrwt beam="1">  1        2 0.27821272E+00 0.20173367E+03</pdfrwt>
<pdfrwt beam="2">  1       -2 0.13501010E-01 0.20173367E+03</pdfrwt>
<totfact> 0.38882679E+02</totfact>
</mgrwt>
</event>
<event>
 4    1  0.3761914E-001  0.1770516E+03  0.7546771E-02  0.1170687E+00
         -2   -1    0    0    0  501 -0.00000000000E+00  0.00000000000E+00  0.31012368861E+03  0.31012368861E+03  0.00000000000E+00 0. -1.
          2   -1    0    0  502    0  0.00000000000E+00 -0.00000000000E+00 -0.10471360909E+03  0.10471360909E+03  0.00000000000E+00 0.  1.
          6    1    1    2  502    0  0.29460154966E+02  0.29922998190E+02  0.14134337454E+03  0.22655073621E+03  0.17200000000E+03 0. -1.
         -6    1    1    2    0  501 -0.29460154966E+02 -0.29922998190E+02  0.64066704982E+02  0.18828656149E+03  0.17200000000E+03 0.  1.
<mgrwt>
<rscale>  2 0.17705165E+03</rscale>
<asrwt>0</asrwt>
<pdfrwt beam="1">  1        2 0.26178403E-01 0.17705165E+03</pdfrwt>
<pdfrwt beam="2">  1       -2 0.77530920E-01 0.17705165E+03</pdfrwt>
<totfact> 0.31309068E+02</totfact>
</mgrwt>
</event>
<event>
 4    1  0.3761914E-001  0.1962535E+03  0.7546771E-02  0.1152939E+00
          1   -1    0    0  502    0  0.00000000000E+00  0.00000000000E+00  0.13495957521E+04  0.13495957521E+04  0.00000000000E+00 0.  1.
         -1   -1    0    0    0  501 -0.00000000000E+00 -0.00000000000E+00 -0.40871367616E+02  0.40871367616E+02  0.00000000000E+00 0. -1.
          6    1    1    2  502    0  0.80939090775E+02  0.48788275928E+02  0.10362653569E+04  0.10546854139E+04  0.17200000000E+03 0. -1.
         -6    1    1    2    0  501 -0.80939090775E+02 -0.48788275928E+02  0.27245902761E+03  0.33578170589E+03  0.17200000000E+03 0. -1.
<mgrwt>
<rscale>  2 0.19625349E+03</rscale>
<asrwt>0</asrwt>
<pdfrwt beam="1">  1        1 0.33739879E+00 0.19625349E+03</pdfrwt>
<pdfrwt beam="2">  1       -1 0.10217846E-01 0.19625349E+03</pdfrwt>
<totfact> 0.15260561E+02</totfact>
</mgrwt>
</event>
<event>
 4    1  0.3761914E-001  0.2243400E+03  0.7546771E-02  0.1130688E+00
         -2   -1    0    0    0  501 -0.00000000000E+00  0.00000000000E+00  0.44833803283E+03  0.44833803283E+03  0.00000000000E+00 0.  1.
          2   -1    0    0  502    0  0.00000000000E+00 -0.00000000000E+00 -0.31188714910E+03  0.31188714910E+03  0.00000000000E+00 0. -1.
          6    1    1    2  502    0 -0.14372900935E+03  0.92959279345E+01  0.37233364415E+03  0.43469619848E+03  0.17200000000E+03 0.  1.
         -6    1    1    2    0  501  0.14372900935E+03 -0.92959279345E+01 -0.23588276042E+03  0.32552898346E+03  0.17200000000E+03 0. -1.
<mgrwt>
<rscale>  2 0.22434002E+03</rscale>
<asrwt>0</asrwt>
<pdfrwt beam="1">  1        2 0.77971788E-01 0.22434002E+03</pdfrwt>
<pdfrwt beam="2">  1       -2 0.11208451E+00 0.22434002E+03</pdfrwt>
<totfact> 0.41045652E+01</totfact>
</mgrwt>
</event>
<event>
 4    1  0.3761914E-001  0.1807490E+03  0.7546771E-02  0.1167080E+00
          1   -1    0    0  502    0  0.00000000000E+00  0.00000000000E+00  0.23451733634E+03  0.23451733634E+03  0.00000000000E+00 0.  1.
         -1   -1    0    0    0  501 -0.00000000000E+00 -0.00000000000E+00 -0.30237947995E+03  0.30237947995E+03  0.00000000000E+00 0. -1.
          6    1    1    2  502    0 -0.71622035587E+01  0.55090046162E+02 -0.23107040724E+03  0.29336622752E+03  0.17200000000E+03 0. -1.
         -6    1    1    2    0  501  0.71622035587E+01 -0.55090046162E+02  0.16320826363E+03  0.24353058877E+03  0.17200000000E+03 0.  1.
<mgrwt>
<rscale>  2 0.18074903E+03</rscale>
<asrwt>0</asrwt>
<pdfrwt beam="1">  1        1 0.58629334E-01 0.18074903E+03</pdfrwt>
<pdfrwt beam="2">  1       -1 0.75594870E-01 0.18074903E+03</pdfrwt>
<totfact> 0.12158732E+02</totfact>
</mgrwt>
</event>
<event>
 4    1  0.3761914E-001  0.1854399E+03  0.7546771E-02  0.1162640E+00
          2   -1    0    0  502    0  0.00000000000E+00  0.00000000000E+00  0.71244104387E+02  0.71244104387E+02  0.00000000000E+00 0. -1.
         -2   -1    0    0    0  501 -0.00000000000E+00 -0.00000000000E+00 -0.54520054974E+03  0.54520054974E+03  0.00000000000E+00 0.  1.
          6    1    1    2  502    0  0.67046256230E+02 -0.17571375016E+02 -0.13260125185E+03  0.22797158965E+03  0.17200000000E+03 0.  1.
         -6    1    1    2    0  501 -0.67046256230E+02  0.17571375016E+02 -0.34135519350E+03  0.38847306447E+03  0.17200000000E+03 0.  1.
<mgrwt>
<rscale>  2 0.18543989E+03</rscale>
<asrwt>0</asrwt>
<pdfrwt beam="1">  1        2 0.17811026E-01 0.18543989E+03</pdfrwt>
<pdfrwt beam="2">  1       -2 0.13630014E+00 0.18543989E+03</pdfrwt>
<totfact> 0.12983629E+02</totfact>
</mgrwt>
</event>
<event>
 4    1  0.3761914E-001  0.2396628E+03  0.7546771E-02  0.1120018E+00
         -3   -1    0    0    0  501 -0.00000000000E+00  0.00000000000E+00  0.20512142352E+03  0.20512142352E+03  0.00000000000E+00 0. -1.
          3   -1    0    0  502    0  0.00000000000E+00 -0.00000000000E+00 -0.47267655188E+03  0.47267655188E+03  0.00000000000E+00 0.  1.
          6    1    1    2  502    0 -0.45843165292E+02  0.16047633685E+03 -0.35013872976E+03  0.42430576307E+03  0.17200000000E+03 0.  1.
         -6    1    1    2    0  501  0.45843165292E+02 -0.16047633685E+03  0.82583601406E+02  0.25349221234E+03  0.17200000000E+03 0. -1.
<mgrwt>
<rscale>  2 0.23966278E+03</rscale>
<asrwt>0</asrwt>
<pdfrwt beam="1">  1        3 0.11816914E+00 0.23966278E+03</pdfrwt>
<pdfrwt beam="2">  1       -3 0.51280356E-01 0.23966278E+03</pdfrwt>
<totfact> 0.57329474E+00</totfact>
</mgrwt>
</event>
<event>
 4    1  0.3761914E-001  0.1760780E+03  0.7546771E-02  0.1171654E+00
         -1   -1    0    0    0  501 -0.00000000000E+00  0.00000000000E+00  0.14425303906E+02  0.14425303906E+02  0.00000000000E+00 0. -1.
          1   -1    0    0  502    0  0.00000000000E+00 -0.00000000000E+00 -0.23083104122E+04  0.23083104122E+04  0.00000000000E+00 0.  1.
          6    1    1    2  502    0  0.10463497140E+02 -0.36193807763E+02 -0.84207306520E+03  0.86028514089E+03  0.17200000000E+03 0. -1.
         -6    1    1    2    0  501 -0.10463497140E+02  0.36193807763E+02 -0.14518120431E+04  0.14624505752E+04  0.17200000000E+03 0.  1.
<mgrwt>
<rscale>  2 0.17607804E+03</rscale>
<asrwt>0</asrwt>
<pdfrwt beam="1">  1        1 0.57707777E+00 0.17607804E+03</pdfrwt>
<pdfrwt beam="2">  1       -1 0.36063250E-02 0.17607804E+03</pdfrwt>
<totfact> 0.60041842E+01</totfact>
</mgrwt>
</event>
<event>
 4    1  0.3761914E-001  0.2491043E+03  0.7546771E-02  0.1113872E+00
          2   -1    0    0  502    0  0.00000000000E+00  0.00000000000E+00  0.11585729327E+03  0.11585729327E+03  0.00000000000E+00 0. -1.
         -2   -1    0    0    0  501 -0.00000000000E+00 -0.00000000000E+00 -0.54266124614E+03  0.54266124614E+03  0.00000000000E+00 0.  1.
          6    1    1    2  502    0 -0.17878850738E+03  0.22441272625E+02 -0.17583778496E+03  0.30491288544E+03  0.17200000000E+03 0. -1.
         -6    1    1    2    0  501  0.17878850738E+03 -0.22441272625E+02 -0.25096616790E+03  0.35360565397E+03  0.17200000000E+03 0.  1.
<mgrwt>
<rscale>  2 0.24910428E+03</rscale>
<asrwt>0</asrwt>
<pdfrwt beam="1">  1        2 0.28964324E-01 0.24910428E+03</pdfrwt>
<pdfrwt beam="2">  1       -2 0.13566531E+00 0.24910428E+03</pdfrwt>
<totfact> 0.75418929E+01</totfact>
</mgrwt>
</event>
<event>
 4    1  0.3761914E-001  0.2291986E+03  0.7546771E-02  0.1127205E+00
          2   -1    0    0  502    0  0.00000000000E+00  0.00000000000E+00  0.10848721244E+04  0.10848721244E+04  0.00000000000E+00 0. -1.
         -2   -1    0    0    0  501 -0.00000000000E+00 -0.00000000000E+00 -0.83420799422E+02  0.83420799422E+02  0.00000000000E+00 0.  1.
          6    1    1    2  502    0  0.12356358914E+03  0.87635922039E+02  0.87908915085E+03  0.90847660979E+03  0.17200000000E+03 0. -1.
         -6    1    1    2    0  501 -0.12356358914E+03 -0.87635922039E+02  0.12236217417E+03  0.25981631408E+03  0.17200000000E+03 0.  1.
<mgrwt>
<rscale>  2 0.22919864E+03</rscale>
<asrwt>0</asrwt>
<pdfrwt beam="1">  1        2 0.27121799E+00 0.22919864E+03</pdfrwt>
<pdfrwt beam="2">  1       -2 0.20855203E-01 0.22919864E+03</pdfrwt>
<totfact> 0.19697012E+02</totfact>
</mgrwt>
</event>
<event>
 4    1  0.3761914E-001  0.1732003E+03  0.7546771E-02  0.1174551E+00
         -2   -1    0    0    0  501 -0.00000000000E+00  0.00000000000E+00  0.60880427458E+02  0.60880427458E+02  0.00000000000E+00 0.  1.
          2   -1    0    0  502    0  0.00000000000E+00 -0.00000000000E+00 -0.50409062780E+03  0.50409062780E+03  0.00000000000E+00 0. -1.
          6    1    1    2  502    0 -0.14065084209E+02  0.14714622771E+02 -0.17922006149E+03  0.24923518443E+03  0.17200000000E+03 0.  1.
         -6    1    1    2    0  501  0.14065084209E+02 -0.14714622771E+02 -0.26399013885E+03  0.31573587083E+03  0.17200000000E+03 0. -1.
<mgrwt>
<rscale>  2 0.17320031E+03</rscale>
<asrwt>0</asrwt>
<pdfrwt beam="1">  1        2 0.12602265E+00 0.17320031E+03</pdfrwt>
<pdfrwt beam="2">  1       -2 0.15220107E-01 0.17320031E+03</pdfrwt>
<totfact> 0.11507025E+03</totfact>
</mgrwt>
</event>
<event>
 4    1  0.3761914E-001  0.2157821E+03  0.7546771E-02  0.1137067E+00
         -2   -1    0    0    0  501 -0.00000000000E+00  0.00000000000E+00  0.53480744676E+03  0.53480744676E+03  0.00000000000E+00 0.  1.
          2   -1    0    0  502    0  0.00000000000E+00 -0.00000000000E+00 -0.22160072195E+03  0.22160072195E+03  0.00000000000E+00 0. -1.
          6    1    1    2  502    0 -0.48552885095E+02 -0.12091531668E+03 -0.13808487263E+03  0.25618221739E+03  0.17200000000E+03 0. -1.
         -6    1    1    2    0  501  0.48552885095E+02  0.12091531668E+03  0.45129159743E+03  0.50022595132E+03  0.17200000000E+03 0.  1.
<mgrwt>
<rscale>  2 0.21578206E+03</rscale>
<asrwt>0</asrwt>
<pdfrwt beam="1">  1        2 0.55400181E-01 0.21578206E+03</pdfrwt>
<pdfrwt beam="2">  1       -2 0.13370186E+00 0.21578206E+03</pdfrwt>
<totfact> 0.38910054E+01</totfact>
</mgrwt>
</event>
<event>
 4    1  0.3761914E-001  0.1884260E+03  0.7546771E-02  0.1159889E+00
          1   -1    0    0  502    0  0.00000000000E+00  0.00000000000E+00  0.60495882677E+03  0.60495882677E+03  0.00000000000E+00 0. -1.
         -1   -1    0    0    0  501 -0.00000000000E+00 -0.00000000000E+00 -0.64088144830E+02  0.64088144830E+02  0.00000000000E+00 0.  1.
          6    1    1    2  502    0  0.41752099709E+02 -0.64630535991E+02  0.36753235502E+03  0.41301861459E+03  0.17200000000E+03 0. -1.
         -6    1    1    2    0  501 -0.41752099709E+02  0.64630535991E+02  0.17333832692E+03  0.25602835701E+03  0.17200000000E+03 0. -1.
<mgrwt>
<rscale>  2 0.18842596E+03</rscale>
<asrwt>0</asrwt>
<pdfrwt beam="1">  1        1 0.15123969E+00 0.18842596E+03</pdfrwt>
<pdfrwt beam="2">  1       -1 0.16022038E-01 0.18842596E+03</pdfrwt>
<totfact> 0.48276670E+02</totfact>
</mgrwt>
</event>
<event>
 4    1  0.3761914E-001  0.1801694E+03  0.7546771E-02  0.1167639E+00
         -1   -1    0    0    0  501 -0.00000000000E+00  0.00000000000E+00  0.30460789139E+03  0.30460789139E+03  0.00000000000E+00 0.  1.
          1   -1    0    0  502    0  0.00000000000E+00 -0.00000000000E+00 -0.11985686419E+03  0.11985686419E+03  0.00000000000E+00 0. -1.
          6    1    1    2  502    0 -0.42040223547E+02  0.33311385239E+02  0.21703589921E+02  0.18147196642E+03  0.17200000000E+03 0. -1.
         -6    1    1    2    0  501  0.42040223547E+02 -0.33311385239E+02  0.16304743728E+03  0.24299278916E+03  0.17200000000E+03 0.  1.
<mgrwt>
<rscale>  2 0.18016944E+03</rscale>
<asrwt>0</asrwt>
<pdfrwt beam="1">  1        1 0.29964217E-01 0.18016944E+03</pdfrwt>
<pdfrwt beam="2">  1       -1 0.76151971E-01 0.18016944E+03</pdfrwt>
<totfact> 0.27753298E+02</totfact>
</mgrwt>
</event>
<event>
 4    1  0.3761914E-001  0.2419678E+03  0.7546771E-02  0.1118489E+00
         -1   -1    0    0    0  501 -0.00000000000E+00  0.00000000000E+00  0.17219976650E+03  0.17219976650E+03  0.00000000000E+00 0.  1.
          1   -1    0    0  502    0  0.00000000000E+00 -0.00000000000E+00 -0.46030419222E+03  0.46030419222E+03  0.00000000000E+00 0. -1.
          6    1    1    2  502    0  0.16536652739E+03  0.40228611014E+02  0.17623890491E+02  0.24260880248E+03  0.17200000000E+03 0.  1.
         -6    1    1    2    0  501 -0.16536652739E+03 -0.40228611014E+02 -0.30572831621E+03  0.38989515624E+03  0.17200000000E+03 0. -1.
<mgrwt>
<rscale>  2 0.24196783E+03</rscale>
<asrwt>0</asrwt>
<pdfrwt beam="1">  1        1 0.11507605E+00 0.24196783E+03</pdfrwt>
<pdfrwt beam="2">  1       -1 0.43049942E-01 0.24196783E+03</pdfrwt>
<totfact> 0.14052747E+02</totfact>
</mgrwt>
</event>
<event>
 4    1  0.3761914E-001  0.3327212E+03  0.7546771E-02  0.1069939E+00
         -2   -1    0    0    0  501 -0.00000000000E+00  0.00000000000E+00  0.14464832090E+04  0.14464832090E+04  0.00000000000E+00 0.  1.
          2   -1    0    0  502    0  0.00000000000E+00 -0.00000000000E+00 -0.88392496140E+02  0.88392496140E+02  0.00000000000E+00 0. -1.
          6    1    1    2  502    0 -0.18559812155E+03 -0.21603876228E+03  0.39793793865E+03  0.51870802244E+03  0.17200000000E+03 0. -1.
         -6    1    1    2    0  501  0.18559812155E+03  0.21603876228E+03  0.96015277421E+03  0.10161676827E+04  0.17200000000E+03 0.  1.
<mgrwt>
<rscale>  2 0.33272122E+03</rscale>
<asrwt>0</asrwt>
<pdfrwt beam="1">  1        2 0.22098129E-01 0.33272122E+03</pdfrwt>
<pdfrwt beam="2">  1       -2 0.36162073E+00 0.33272122E+03</pdfrwt>
<totfact> 0.38089772E+00</totfact>
</mgrwt>
</event>
<event>
 4    1  0.3761914E-001  0.1793866E+03  0.7546771E-02  0.1168398E+00
         -2   -1    0    0    0  501 -0.00000000000E+00  0.00000000000E+00  0.25450918573E+02  0.25450918573E+02  0.00000000000E+00 0. -1.
          2   -1    0    0  502    0  0.00000000000E+00 -0.00000000000E+00 -0.21453519034E+04  0.21453519034E+04  0.00000000000E+00 0.  1.
          6    1    1    2  502    0  0.47093436786E+02 -0.19436032381E+02 -0.17554918008E+04  0.17646333936E+04  0.17200000000E+03 0.  1.
         -6    1    1    2    0  501 -0.47093436786E+02  0.19436032381E+02 -0.36440918407E+03  0.40616942841E+03  0.17200000000E+03 0. -1.
<mgrwt>
<rscale>  2 0.17938660E+03</rscale>
<asrwt>0</asrwt>
<pdfrwt beam="1">  1        2 0.53633806E+00 0.17938660E+03</pdfrwt>
<pdfrwt beam="2">  1       -2 0.63627287E-02 0.17938660E+03</pdfrwt>
<totfact> 0.14609162E+02</totfact>
</mgrwt>
</event>
<event>
 4    1  0.3761914E-001  0.1890170E+03  0.7546771E-02  0.1159351E+00
         -1   -1    0    0    0  501 -0.00000000000E+00  0.00000000000E+00  0.85784285809E+02  0.85784285809E+02  0.00000000000E+00 0.  1.
          1   -1    0    0  502    0  0.00000000000E+00 -0.00000000000E+00 -0.71388038620E+03  0.71388038620E+03  0.00000000000E+00 0. -1.
          6    1    1    2  502    0 -0.70730074289E+02 -0.33774246344E+02 -0.57211709914E+03  0.60253250389E+03  0.17200000000E+03 0. -1.
         -6    1    1    2    0  501  0.70730074289E+02  0.33774246344E+02 -0.55979001258E+02  0.19713216812E+03  0.17200000000E+03 0.  1.
<mgrwt>
<rscale>  2 0.18901704E+03</rscale>
<asrwt>0</asrwt>
<pdfrwt beam="1">  1        1 0.17847009E+00 0.18901704E+03</pdfrwt>
<pdfrwt beam="2">  1       -1 0.21446072E-01 0.18901704E+03</pdfrwt>
<totfact> 0.22510803E+02</totfact>
</mgrwt>
</event>
<event>
 4    1  0.3761914E-001  0.1937672E+03  0.7546771E-02  0.1155107E+00
         -1   -1    0    0    0  501 -0.00000000000E+00  0.00000000000E+00  0.21502081972E+03  0.21502081972E+03  0.00000000000E+00 0.  1.
          1   -1    0    0  502    0  0.00000000000E+00 -0.00000000000E+00 -0.35761201082E+03  0.35761201082E+03  0.00000000000E+00 0. -1.
          6    1    1    2  502    0  0.60375882558E+02  0.65699815633E+02 -0.27611118577E+03  0.33731750603E+03  0.17200000000E+03 0. -1.
         -6    1    1    2    0  501 -0.60375882558E+02 -0.65699815633E+02  0.13351999467E+03  0.23531532450E+03  0.17200000000E+03 0.  1.
<mgrwt>
<rscale>  2 0.19376716E+03</rscale>
<asrwt>0</asrwt>
<pdfrwt beam="1">  1        1 0.89403002E-01 0.19376716E+03</pdfrwt>
<pdfrwt beam="2">  1       -1 0.53755205E-01 0.19376716E+03</pdfrwt>
<totfact> 0.13545083E+02</totfact>
</mgrwt>
</event>
<event>
 4    1  0.3761914E-001  0.1819713E+03  0.7546771E-02  0.1165909E+00
         -1   -1    0    0    0  501 -0.00000000000E+00  0.00000000000E+00  0.39580521058E+02  0.39580521058E+02  0.00000000000E+00 0. -1.
          1   -1    0    0  502    0  0.00000000000E+00 -0.00000000000E+00 -0.88664817219E+03  0.88664817219E+03  0.00000000000E+00 0.  1.
          6    1    1    2  502    0  0.53294146588E+02 -0.26254459103E+02 -0.31351880022E+03  0.36250186313E+03  0.17200000000E+03 0. -1.
         -6    1    1    2    0  501 -0.53294146588E+02  0.26254459103E+02 -0.53354885091E+03  0.56372683011E+03  0.17200000000E+03 0.  1.
<mgrwt>
<rscale>  2 0.18197132E+03</rscale>
<asrwt>0</asrwt>
<pdfrwt beam="1">  1        1 0.22166204E+00 0.18197132E+03</pdfrwt>
<pdfrwt beam="2">  1       -1 0.98951305E-02 0.18197132E+03</pdfrwt>
<totfact> 0.49317105E+02</totfact>
</mgrwt>
</event>
<event>
 4    1  0.3761914E-001  0.2629973E+03  0.7546771E-02  0.1105356E+00
          1   -1    0    0  502    0  0.00000000000E+00  0.00000000000E+00  0.55078647856E+03  0.55078647856E+03  0.00000000000E+00 0.  1.
         -1   -1    0    0    0  501 -0.00000000000E+00 -0.00000000000E+00 -0.13655946747E+03  0.13655946747E+03  0.00000000000E+00 0. -1.
          6    1    1    2  502    0 -0.82955797547E+02 -0.18083667754E+03  0.10966342347E+03  0.28494496791E+03  0.17200000000E+03 0.  1.
         -6    1    1    2    0  501  0.82955797547E+02  0.18083667754E+03  0.30456358763E+03  0.40240097813E+03  0.17200000000E+03 0. -1.
<mgrwt>
<rscale>  2 0.26299728E+03</rscale>
<asrwt>0</asrwt>
<pdfrwt beam="1">  1        1 0.13769661E+00 0.26299728E+03</pdfrwt>
<pdfrwt beam="2">  1       -1 0.34139868E-01 0.26299728E+03</pdfrwt>
<totfact> 0.15941862E+02</totfact>
</mgrwt>
</event>
<event>
 4    1  0.3761914E-001  0.1952365E+03  0.7546771E-02  0.1153821E+00
          2   -1    0    0  502    0  0.00000000000E+00  0.00000000000E+00  0.13727135887E+04  0.13727135887E+04  0.00000000000E+00 0.  1.
         -2   -1    0    0    0  501 -0.00000000000E+00 -0.00000000000E+00 -0.38807827366E+02  0.38807827366E+02  0.00000000000E+00 0. -1.
          6    1    1    2  502    0  0.45127637104E+02 -0.80602705600E+02  0.29052483070E+03  0.35003139435E+03  0.17200000000E+03 0. -1.
         -6    1    1    2    0  501 -0.45127637104E+02  0.80602705600E+02  0.10433809307E+04  0.10614900218E+04  0.17200000000E+03 0.  1.
<mgrwt>
<rscale>  2 0.19523652E+03</rscale>
<asrwt>0</asrwt>
<pdfrwt beam="1">  1        2 0.34317824E+00 0.19523652E+03</pdfrwt>
<pdfrwt beam="2">  1       -2 0.97019614E-02 0.19523652E+03</pdfrwt>
<totfact> 0.39864782E+02</totfact>
</mgrwt>
</event>
<event>
 4    1  0.3761914E-001  0.2335990E+03  0.7546771E-02  0.1124132E+00
          2   -1    0    0  502    0  0.00000000000E+00  0.00000000000E+00  0.13270987924E+04  0.13270987924E+04  0.00000000000E+00 0.  1.
         -2   -1    0    0    0  501 -0.00000000000E+00 -0.00000000000E+00 -0.59405301227E+02  0.59405301227E+02  0.00000000000E+00 0. -1.
          6    1    1    2  502    0  0.44728119424E+02  0.15160433040E+03  0.24921427334E+03  0.34157902702E+03  0.17200000000E+03 0. -1.
         -6    1    1    2    0  501 -0.44728119424E+02 -0.15160433040E+03  0.10184792178E+04  0.10449250666E+04  0.17200000000E+03 0.  1.
<mgrwt>
<rscale>  2 0.23359897E+03</rscale>
<asrwt>0</asrwt>
<pdfrwt beam="1">  1        2 0.33177460E+00 0.23359897E+03</pdfrwt>
<pdfrwt beam="2">  1       -2 0.14851330E-01 0.23359897E+03</pdfrwt>
<totfact> 0.21689416E+02</totfact>
</mgrwt>
</event>
<event>
 4    1  0.3761914E-001  0.1760980E+03  0.7546771E-02  0.1171634E+00
         -1   -1    0    0    0  501 -0.00000000000E+00  0.00000000000E+00  0.43340180386E+03  0.43340180386E+03  0.00000000000E+00 0. -1.
          1   -1    0    0  502    0  0.00000000000E+00 -0.00000000000E+00 -0.74700450074E+02  0.74700450074E+02  0.00000000000E+00 0.  1.
          6    1    1    2  502    0 -0.37188129975E+02 -0.65999086458E+01  0.12718946026E+03  0.21722724186E+03  0.17200000000E+03 0. -1.
         -6    1    1    2    0  501  0.37188129975E+02  0.65999086458E+01  0.23151189353E+03  0.29087501208E+03  0.17200000000E+03 0. -1.
<mgrwt>
<rscale>  2 0.17609803E+03</rscale>
<asrwt>0</asrwt>
<pdfrwt beam="1">  1        1 0.18675114E-01 0.17609803E+03</pdfrwt>
<pdfrwt beam="2">  1       -1 0.10835044E+00 0.17609803E+03</pdfrwt>
<totfact> 0.23733941E+02</totfact>
</mgrwt>
</event>
<event>
 4    1  0.3761914E-001  0.2152220E+03  0.7546771E-02  0.1137496E+00
         -2   -1    0    0    0  501 -0.00000000000E+00  0.00000000000E+00  0.49495616154E+03  0.49495616154E+03  0.00000000000E+00 0. -1.
          2   -1    0    0  502    0  0.00000000000E+00 -0.00000000000E+00 -0.10488213481E+03  0.10488213481E+03  0.00000000000E+00 0.  1.
          6    1    1    2  502    0 -0.54804312580E+02 -0.11718787434E+03  0.29346896751E+03  0.36392931382E+03  0.17200000000E+03 0. -1.
         -6    1    1    2    0  501  0.54804312580E+02  0.11718787434E+03  0.96605059218E+02  0.23590898253E+03  0.17200000000E+03 0.  1.
<mgrwt>
<rscale>  2 0.21522200E+03</rscale>
<asrwt>0</asrwt>
<pdfrwt beam="1">  1        2 0.26220535E-01 0.21522200E+03</pdfrwt>
<pdfrwt beam="2">  1       -2 0.12373903E+00 0.21522200E+03</pdfrwt>
<totfact> 0.10611272E+02</totfact>
</mgrwt>
</event>
<event>
 4    1  0.3761914E-001  0.2304898E+03  0.7546771E-02  0.1126296E+00
         -2   -1    0    0    0  501 -0.00000000000E+00  0.00000000000E+00  0.24139238921E+03  0.24139238921E+03  0.00000000000E+00 0. -1.
          2   -1    0    0  502    0  0.00000000000E+00 -0.00000000000E+00 -0.22019860910E+03  0.22019860910E+03  0.00000000000E+00 0.  1.
          6    1    1    2  502    0 -0.15340340029E+03  0.29877630324E+01  0.52304092191E+01  0.23054909917E+03  0.17200000000E+03 0.  1.
         -6    1    1    2    0  501  0.15340340029E+03 -0.29877630324E+01  0.15963370886E+02  0.23104189914E+03  0.17200000000E+03 0.  1.
<mgrwt>
<rscale>  2 0.23048976E+03</rscale>
<asrwt>0</asrwt>
<pdfrwt beam="1">  1        2 0.55049652E-01 0.23048976E+03</pdfrwt>
<pdfrwt beam="2">  1       -2 0.60348097E-01 0.23048976E+03</pdfrwt>
<totfact> 0.23808068E+02</totfact>
</mgrwt>
</event>
<event>
 4    1  0.3761914E-001  0.2130861E+03  0.7546771E-02  0.1139145E+00
          2   -1    0    0  502    0  0.00000000000E+00  0.00000000000E+00  0.73858552756E+03  0.73858552756E+03  0.00000000000E+00 0. -1.
         -2   -1    0    0    0  501 -0.00000000000E+00 -0.00000000000E+00 -0.88911685119E+02  0.88911685119E+02  0.00000000000E+00 0.  1.
          6    1    1    2  502    0  0.12406173760E+03  0.20745894367E+02  0.95004921700E+02  0.23330589794E+03  0.17200000000E+03 0.  1.
         -6    1    1    2    0  501 -0.12406173760E+03 -0.20745894367E+02  0.55466892074E+03  0.59419131473E+03  0.17200000000E+03 0. -1.
<mgrwt>
<rscale>  2 0.21308615E+03</rscale>
<asrwt>0</asrwt>
<pdfrwt beam="1">  1        2 0.18464636E+00 0.21308615E+03</pdfrwt>
<pdfrwt beam="2">  1       -2 0.22227924E-01 0.21308615E+03</pdfrwt>
<totfact> 0.35486286E+02</totfact>
</mgrwt>
</event>
<event>
 4    1  0.3761914E-001  0.2190468E+03  0.7546771E-02  0.1134596E+00
         -2   -1    0    0    0  501 -0.00000000000E+00  0.00000000000E+00  0.14209615784E+03  0.14209615784E+03  0.00000000000E+00 0.  1.
          2   -1    0    0  502    0  0.00000000000E+00 -0.00000000000E+00 -0.36513138594E+03  0.36513138594E+03  0.00000000000E+00 0. -1.
          6    1    1    2  502    0 -0.12391556052E+03  0.55158217963E+02 -0.41964617389E+02  0.22303032139E+03  0.17200000000E+03 0. -1.
         -6    1    1    2    0  501  0.12391556052E+03 -0.55158217963E+02 -0.18107061071E+03  0.28419722239E+03  0.17200000000E+03 0. -1.
<mgrwt>
<rscale>  2 0.21904679E+03</rscale>
<asrwt>0</asrwt>
<pdfrwt beam="1">  1        2 0.91282846E-01 0.21904679E+03</pdfrwt>
<pdfrwt beam="2">  1       -2 0.35524040E-01 0.21904679E+03</pdfrwt>
<totfact> 0.38576314E+02</totfact>
</mgrwt>
</event>
<event>
 4    1  0.3761914E-001  0.3738319E+03  0.7546771E-02  0.1053237E+00
          2   -1    0    0  502    0  0.00000000000E+00  0.00000000000E+00  0.28244992354E+03  0.28244992354E+03  0.00000000000E+00 0. -1.
         -2   -1    0    0    0  501 -0.00000000000E+00 -0.00000000000E+00 -0.10466890917E+04  0.10466890917E+04  0.00000000000E+00 0.  1.
          6    1    1    2  502    0 -0.22240301701E+03 -0.24638015308E+03  0.10045644081E+03  0.38709401740E+03  0.17200000000E+03 0. -1.
         -6    1    1    2    0  501  0.22240301701E+03  0.24638015308E+03 -0.86469560899E+03  0.94204499787E+03  0.17200000000E+03 0.  1.
<mgrwt>
<rscale>  2 0.37383189E+03</rscale>
<asrwt>0</asrwt>
<pdfrwt beam="1">  1        2 0.70612481E-01 0.37383189E+03</pdfrwt>
<pdfrwt beam="2">  1       -2 0.26167227E+00 0.37383189E+03</pdfrwt>
<totfact> 0.41055692E+00</totfact>
</mgrwt>
</event>
<event>
 4    1  0.3761914E-001  0.1986771E+03  0.7546771E-02  0.1150860E+00
          2   -1    0    0  502    0  0.00000000000E+00  0.00000000000E+00  0.39567839344E+03  0.39567839344E+03  0.00000000000E+00 0. -1.
         -2   -1    0    0    0  501 -0.00000000000E+00 -0.00000000000E+00 -0.21495094790E+03  0.21495094790E+03  0.00000000000E+00 0.  1.
          6    1    1    2  502    0  0.35493649996E+02  0.92891360734E+02  0.31386935148E+03  0.37146544104E+03  0.17200000000E+03 0. -1.
         -6    1    1    2    0  501 -0.35493649996E+02 -0.92891360734E+02 -0.13314190594E+03  0.23916390030E+03  0.17200000000E+03 0.  1.
<mgrwt>
<rscale>  2 0.19867714E+03</rscale>
<asrwt>0</asrwt>
<pdfrwt beam="1">  1        2 0.98919597E-01 0.19867714E+03</pdfrwt>
<pdfrwt beam="2">  1       -2 0.53737738E-01 0.19867714E+03</pdfrwt>
<totfact> 0.15759391E+02</totfact>
</mgrwt>
</event>
<event>
 4    1  0.3761914E-001  0.1868310E+03  0.7546771E-02  0.1161351E+00
         -2   -1    0    0    0  501 -0.00000000000E+00  0.00000000000E+00  0.22955064688E+03  0.22955064688E+03  0.00000000000E+00 0.  1.
          2   -1    0    0  502    0  0.00000000000E+00 -0.00000000000E+00 -0.15715071969E+03  0.15715071969E+03  0.00000000000E+00 0. -1.
          6    1    1    2  502    0 -0.71578372183E+02  0.14084145156E+02  0.14054225499E+01  0.18683629659E+03  0.17200000000E+03 0.  1.
         -6    1    1    2    0  501  0.71578372183E+02 -0.14084145156E+02  0.70994504636E+02  0.19986506998E+03  0.17200000000E+03 0.  1.
<mgrwt>
<rscale>  2 0.18683101E+03</rscale>
<asrwt>0</asrwt>
<pdfrwt beam="1">  1        2 0.39287680E-01 0.18683101E+03</pdfrwt>
<pdfrwt beam="2">  1       -2 0.57387661E-01 0.18683101E+03</pdfrwt>
<totfact> 0.38013442E+02</totfact>
</mgrwt>
</event>
<event>
 4    1  0.3761914E-001  0.1857699E+03  0.7546771E-02  0.1162333E+00
          2   -1    0    0  502    0  0.00000000000E+00  0.00000000000E+00  0.35518524817E+03  0.35518524817E+03  0.00000000000E+00 0.  1.
         -2   -1    0    0    0  501 -0.00000000000E+00 -0.00000000000E+00 -0.99575543761E+02  0.99575543761E+02  0.00000000000E+00 0. -1.
          6    1    1    2  502    0  0.12264293072E+02  0.69108935303E+02  0.92403712186E+02  0.20748229768E+03  0.17200000000E+03 0. -1.
         -6    1    1    2    0  501 -0.12264293072E+02 -0.69108935303E+02  0.16320599222E+03  0.24727849425E+03  0.17200000000E+03 0.  1.
<mgrwt>
<rscale>  2 0.18576991E+03</rscale>
<asrwt>0</asrwt>
<pdfrwt beam="1">  1        2 0.88796309E-01 0.18576991E+03</pdfrwt>
<pdfrwt beam="2">  1       -2 0.24893887E-01 0.18576991E+03</pdfrwt>
<totfact> 0.75910475E+02</totfact>
</mgrwt>
</event>
<event>
 4    1  0.3761914E-001  0.1732827E+03  0.7546771E-02  0.1174467E+00
         -1   -1    0    0    0  501 -0.00000000000E+00  0.00000000000E+00  0.20789145201E+03  0.20789145201E+03  0.00000000000E+00 0. -1.
          1   -1    0    0  502    0  0.00000000000E+00 -0.00000000000E+00 -0.19509126256E+03  0.19509126256E+03  0.00000000000E+00 0.  1.
          6    1    1    2  502    0  0.23045077568E+01  0.20918589273E+02  0.10907211316E+03  0.20475259217E+03  0.17200000000E+03 0. -1.
         -6    1    1    2    0  501 -0.23045077568E+01 -0.20918589273E+02 -0.96271923702E+02  0.19823012240E+03  0.17200000000E+03 0.  1.
<mgrwt>
<rscale>  2 0.17328271E+03</rscale>
<asrwt>0</asrwt>
<pdfrwt beam="1">  1        1 0.48772816E-01 0.17328271E+03</pdfrwt>
<pdfrwt beam="2">  1       -1 0.51972863E-01 0.17328271E+03</pdfrwt>
<totfact> 0.31669144E+02</totfact>
</mgrwt>
</event>
<event>
 4    1  0.3761914E-001  0.2580891E+03  0.7546771E-02  0.1108297E+00
         -3   -1    0    0    0  501 -0.00000000000E+00  0.00000000000E+00  0.88059217247E+03  0.88059217247E+03  0.00000000000E+00 0. -1.
          3   -1    0    0  502    0  0.00000000000E+00 -0.00000000000E+00 -0.75728326146E+02  0.75728326146E+02  0.00000000000E+00 0.  1.
          6    1    1    2  502    0  0.21998757819E+02  0.19115967410E+03  0.41855342478E+03  0.49172851833E+03  0.17200000000E+03 0. -1.
         -6    1    1    2    0  501 -0.21998757819E+02 -0.19115967410E+03  0.38631042155E+03  0.46459198029E+03  0.17200000000E+03 0.  1.
<mgrwt>
<rscale>  2 0.25808907E+03</rscale>
<asrwt>0</asrwt>
<pdfrwt beam="1">  1        3 0.18932084E-01 0.25808907E+03</pdfrwt>
<pdfrwt beam="2">  1       -3 0.22014801E+00 0.25808907E+03</pdfrwt>
<totfact> 0.73830900E+00</totfact>
</mgrwt>
</event>
<event>
 4    1  0.3761914E-001  0.3424323E+03  0.7546771E-02  0.1065765E+00
          2   -1    0    0  502    0  0.00000000000E+00  0.00000000000E+00  0.70140478707E+03  0.70140478707E+03  0.00000000000E+00 0.  1.
         -2   -1    0    0    0  501 -0.00000000000E+00 -0.00000000000E+00 -0.18378724518E+03  0.18378724518E+03  0.00000000000E+00 0. -1.
          6    1    1    2  502    0  0.15314733429E+02  0.29570477496E+03  0.12575805804E+03  0.36479438613E+03  0.17200000000E+03 0.  1.
         -6    1    1    2    0  501 -0.15314733429E+02 -0.29570477496E+03  0.39185948385E+03  0.52039764611E+03  0.17200000000E+03 0. -1.
<mgrwt>
<rscale>  2 0.34243226E+03</rscale>
<asrwt>0</asrwt>
<pdfrwt beam="1">  1        2 0.17535119E+00 0.34243226E+03</pdfrwt>
<pdfrwt beam="2">  1       -2 0.45946813E-01 0.34243226E+03</pdfrwt>
<totfact> 0.98349825E+01</totfact>
</mgrwt>
</event>
<event>
 4    1  0.3761914E-001  0.2217001E+03  0.7546771E-02  0.1132622E+00
         -2   -1    0    0    0  501 -0.00000000000E+00  0.00000000000E+00  0.72343543094E+02  0.72343543094E+02  0.00000000000E+00 0. -1.
          2   -1    0    0  502    0  0.00000000000E+00 -0.00000000000E+00 -0.10089560277E+04  0.10089560277E+04  0.00000000000E+00 0.  1.
          6    1    1    2  502    0 -0.88853003928E+02  0.10803743625E+03 -0.15932095671E+03  0.27300936098E+03  0.17200000000E+03 0. -1.
         -6    1    1    2    0  501  0.88853003928E+02 -0.10803743625E+03 -0.77729152794E+03  0.80829020985E+03  0.17200000000E+03 0.  1.
<mgrwt>
<rscale>  2 0.22170012E+03</rscale>
<asrwt>0</asrwt>
<pdfrwt beam="1">  1        2 0.25223900E+00 0.22170012E+03</pdfrwt>
<pdfrwt beam="2">  1       -2 0.18085886E-01 0.22170012E+03</pdfrwt>
<totfact> 0.29192721E+02</totfact>
</mgrwt>
</event>
<event>
 4    1  0.3761914E-001  0.1977485E+03  0.7546771E-02  0.1151653E+00
          1   -1    0    0  502    0  0.00000000000E+00  0.00000000000E+00  0.43456117238E+03  0.43456117238E+03  0.00000000000E+00 0. -1.
         -1   -1    0    0    0  501 -0.00000000000E+00 -0.00000000000E+00 -0.20172345064E+03  0.20172345064E+03  0.00000000000E+00 0.  1.
          6    1    1    2  502    0  0.23977812380E+02  0.94580809460E+02 -0.12035972546E+03  0.23149714581E+03  0.17200000000E+03 0.  1.
         -6    1    1    2    0  501 -0.23977812380E+02 -0.94580809460E+02  0.35319744720E+03  0.40478747722E+03  0.17200000000E+03 0. -1.
<mgrwt>
<rscale>  2 0.19774849E+03</rscale>
<asrwt>0</asrwt>
<pdfrwt beam="1">  1        1 0.10864029E+00 0.19774849E+03</pdfrwt>
<pdfrwt beam="2">  1       -1 0.50430863E-01 0.19774849E+03</pdfrwt>
<totfact> 0.11579455E+02</totfact>
</mgrwt>
</event>
<event>
 4    1  0.3761914E-001  0.1743830E+03  0.7546771E-02  0.1173353E+00
         -1   -1    0    0    0  501 -0.00000000000E+00  0.00000000000E+00  0.69670391347E+02  0.69670391347E+02  0.00000000000E+00 0.  1.
          1   -1    0    0  502    0  0.00000000000E+00 -0.00000000000E+00 -0.45019225287E+03  0.45019225287E+03  0.00000000000E+00 0. -1.
          6    1    1    2  502    0  0.26580275815E+02  0.10904953356E+02 -0.23563241148E+03  0.29314171046E+03  0.17200000000E+03 0. -1.
         -6    1    1    2    0  501 -0.26580275815E+02 -0.10904953356E+02 -0.14488945003E+03  0.22672093375E+03  0.17200000000E+03 0.  1.
<mgrwt>
<rscale>  2 0.17438300E+03</rscale>
<asrwt>0</asrwt>
<pdfrwt beam="1">  1        1 0.11254806E+00 0.17438300E+03</pdfrwt>
<pdfrwt beam="2">  1       -1 0.17417598E-01 0.17438300E+03</pdfrwt>
<totfact> 0.67268452E+02</totfact>
</mgrwt>
</event>
<event>
 4    1  0.3761914E-001  0.2196241E+03  0.7546771E-02  0.1134164E+00
          2   -1    0    0  502    0  0.00000000000E+00  0.00000000000E+00  0.10118703620E+04  0.10118703620E+04  0.00000000000E+00 0. -1.
         -2   -1    0    0    0  501 -0.00000000000E+00 -0.00000000000E+00 -0.49213521091E+02  0.49213521091E+02  0.00000000000E+00 0.  1.
          6    1    1    2  502    0 -0.33477344586E+02 -0.13240089722E+03  0.38733643290E+03  0.44526873059E+03  0.17200000000E+03 0.  1.
         -6    1    1    2    0  501  0.33477344586E+02  0.13240089722E+03  0.57532040803E+03  0.61581515252E+03  0.17200000000E+03 0. -1.
<mgrwt>
<rscale>  2 0.21962407E+03</rscale>
<asrwt>0</asrwt>
<pdfrwt beam="1">  1        2 0.25296752E+00 0.21962407E+03</pdfrwt>
<pdfrwt beam="2">  1       -2 0.12303384E-01 0.21962407E+03</pdfrwt>
<totfact> 0.54868332E+02</totfact>
</mgrwt>
</event>
<event>
 4    1  0.3761914E-001  0.1753940E+03  0.7546771E-02  0.1172337E+00
         -1   -1    0    0    0  501 -0.00000000000E+00  0.00000000000E+00  0.13001182441E+03  0.13001182441E+03  0.00000000000E+00 0.  1.
          1   -1    0    0  502    0  0.00000000000E+00 -0.00000000000E+00 -0.23679922584E+03  0.23679922584E+03  0.00000000000E+00 0. -1.
          6    1    1    2  502    0  0.33731668970E+02  0.64198794933E+01 -0.48309422915E+02  0.18192537120E+03  0.17200000000E+03 0.  1.
         -6    1    1    2    0  501 -0.33731668970E+02 -0.64198794933E+01 -0.58477978517E+02  0.18488567904E+03  0.17200000000E+03 0. -1.
<mgrwt>
<rscale>  2 0.17539396E+03</rscale>
<asrwt>0</asrwt>
<pdfrwt beam="1">  1        1 0.59199806E-01 0.17539396E+03</pdfrwt>
<pdfrwt beam="2">  1       -1 0.32502956E-01 0.17539396E+03</pdfrwt>
<totfact> 0.57077142E+02</totfact>
</mgrwt>
</event>
<event>
 4    1  0.3761914E-001  0.2120831E+03  0.7546771E-02  0.1139927E+00
          1   -1    0    0  502    0  0.00000000000E+00  0.00000000000E+00  0.27342650136E+03  0.27342650136E+03  0.00000000000E+00 0. -1.
         -1   -1    0    0    0  501 -0.00000000000E+00 -0.00000000000E+00 -0.18942654017E+03  0.18942654017E+03  0.00000000000E+00 0.  1.
          6    1    1    2  502    0  0.42535101354E+02 -0.11655899472E+03 -0.41947062867E+02  0.21619155899E+03  0.17200000000E+03 0. -1.
         -6    1    1    2    0  501 -0.42535101354E+02  0.11655899472E+03  0.12594702406E+03  0.24666148253E+03  0.17200000000E+03 0.  1.
<mgrwt>
<rscale>  2 0.21208308E+03</rscale>
<asrwt>0</asrwt>
<pdfrwt beam="1">  1        1 0.68356625E-01 0.21208308E+03</pdfrwt>
<pdfrwt beam="2">  1       -1 0.47356635E-01 0.21208308E+03</pdfrwt>
<totfact> 0.24373054E+02</totfact>
</mgrwt>
</event>
<event>
 4    1  0.3761914E-001  0.1852422E+03  0.7546771E-02  0.1162824E+00
          2   -1    0    0  502    0  0.00000000000E+00  0.00000000000E+00  0.15149973309E+04  0.15149973309E+04  0.00000000000E+00 0.  1.
         -2   -1    0    0    0  501 -0.00000000000E+00 -0.00000000000E+00 -0.26199443823E+02  0.26199443823E+02  0.00000000000E+00 0. -1.
          6    1    1    2  502    0 -0.63005500512E+02 -0.27586057750E+02  0.10280356608E+04  0.10445917880E+04  0.17200000000E+03 0.  1.
         -6    1    1    2    0  501  0.63005500512E+02  0.27586057750E+02  0.46076222629E+03  0.49660498674E+03  0.17200000000E+03 0. -1.
<mgrwt>
<rscale>  2 0.18524223E+03</rscale>
<asrwt>0</asrwt>
<pdfrwt beam="1">  1        2 0.37874904E+00 0.18524223E+03</pdfrwt>
<pdfrwt beam="2">  1       -2 0.65498661E-02 0.18524223E+03</pdfrwt>
<totfact> 0.55530073E+02</totfact>
</mgrwt>
</event>
<event>
 4    1  0.3761914E-001  0.1736179E+03  0.7546771E-02  0.1174127E+00
         -1   -1    0    0    0  501 -0.00000000000E+00  0.00000000000E+00  0.37438310970E+02  0.37438310970E+02  0.00000000000E+00 0.  1.
          1   -1    0    0  502    0  0.00000000000E+00 -0.00000000000E+00 -0.81911762539E+03  0.81911762539E+03  0.00000000000E+00 0. -1.
          6    1    1    2  502    0 -0.17706369005E+02 -0.15673771627E+02 -0.33489901956E+03  0.37722743262E+03  0.17200000000E+03 0.  1.
         -6    1    1    2    0  501  0.17706369005E+02  0.15673771627E+02 -0.44678029487E+03  0.47932850374E+03  0.17200000000E+03 0.  1.
<mgrwt>
<rscale>  2 0.17361792E+03</rscale>
<asrwt>0</asrwt>
<pdfrwt beam="1">  1        1 0.20477941E+00 0.17361792E+03</pdfrwt>
<pdfrwt beam="2">  1       -1 0.93595776E-02 0.17361792E+03</pdfrwt>
<totfact> 0.63614499E+02</totfact>
</mgrwt>
</event>
<event>
 4    1  0.3761914E-001  0.4113961E+03  0.7546771E-02  0.1039904E+00
          1   -1    0    0  502    0  0.00000000000E+00  0.00000000000E+00  0.11501135090E+04  0.11501135090E+04  0.00000000000E+00 0. -1.
         -1   -1    0    0    0  501 -0.00000000000E+00 -0.00000000000E+00 -0.15706495958E+03  0.15706495958E+03  0.00000000000E+00 0.  1.
          6    1    1    2  502    0 -0.10120952601E+03 -0.35974901637E+03  0.33236422968E+03  0.52887872344E+03  0.17200000000E+03 0.  1.
         -6    1    1    2    0  501  0.10120952601E+03  0.35974901637E+03  0.66068431971E+03  0.77829974511E+03  0.17200000000E+03 0. -1.
<mgrwt>
<rscale>  2 0.41139607E+03</rscale>
<asrwt>0</asrwt>
<pdfrwt beam="1">  1        1 0.28752835E+00 0.41139607E+03</pdfrwt>
<pdfrwt beam="2">  1       -1 0.39266243E-01 0.41139607E+03</pdfrwt>
<totfact> 0.25421470E+01</totfact>
</mgrwt>
</event>
<event>
 4    1  0.3761914E-001  0.1776048E+03  0.7546771E-02  0.1170141E+00
          2   -1    0    0  502    0  0.00000000000E+00  0.00000000000E+00  0.11732201479E+04  0.11732201479E+04  0.00000000000E+00 0. -1.
         -2   -1    0    0    0  501 -0.00000000000E+00 -0.00000000000E+00 -0.28530855591E+02  0.28530855591E+02  0.00000000000E+00 0.  1.
          6    1    1    2  502    0 -0.26356910149E+02 -0.35563815864E+02  0.42807995108E+03  0.46346080334E+03  0.17200000000E+03 0. -1.
         -6    1    1    2    0  501  0.26356910149E+02  0.35563815864E+02  0.71660934126E+03  0.73829020018E+03  0.17200000000E+03 0.  1.
<mgrwt>
<rscale>  2 0.17760482E+03</rscale>
<asrwt>0</asrwt>
<pdfrwt beam="1">  1        2 0.29330488E+00 0.17760482E+03</pdfrwt>
<pdfrwt beam="2">  1       -2 0.71327178E-02 0.17760482E+03</pdfrwt>
<totfact> 0.95431908E+02</totfact>
</mgrwt>
</event>
<event>
 4    1  0.3761914E-001  0.1958167E+03  0.7546771E-02  0.1153317E+00
         -2   -1    0    0    0  501 -0.00000000000E+00  0.00000000000E+00  0.36291955915E+03  0.36291955915E+03  0.00000000000E+00 0. -1.
          2   -1    0    0  502    0  0.00000000000E+00 -0.00000000000E+00 -0.10794831971E+03  0.10794831971E+03  0.00000000000E+00 0.  1.
          6    1    1    2  502    0 -0.82430441131E+02  0.44332951098E+02  0.93168270300E+02  0.21685136561E+03  0.17200000000E+03 0. -1.
         -6    1    1    2    0  501  0.82430441131E+02 -0.44332951098E+02  0.16180296914E+03  0.25401651325E+03  0.17200000000E+03 0. -1.
<mgrwt>
<rscale>  2 0.19581672E+03</rscale>
<asrwt>0</asrwt>
<pdfrwt beam="1">  1        2 0.26987081E-01 0.19581672E+03</pdfrwt>
<pdfrwt beam="2">  1       -2 0.90729887E-01 0.19581672E+03</pdfrwt>
<totfact> 0.21343427E+02</totfact>
</mgrwt>
</event>
<event>
 4    1  0.3761914E-001  0.2110508E+03  0.7546771E-02  0.1140737E+00
         -2   -1    0    0    0  501 -0.00000000000E+00  0.00000000000E+00  0.41744946348E+03  0.41744946348E+03  0.00000000000E+00 0.  1.
          2   -1    0    0  502    0  0.00000000000E+00 -0.00000000000E+00 -0.10799655819E+03  0.10799655819E+03  0.00000000000E+00 0. -1.
          6    1    1    2  502    0  0.28056595480E+02 -0.11904314449E+03  0.12595549522E+03  0.24577882247E+03  0.17200000000E+03 0.  1.
         -6    1    1    2    0  501 -0.28056595480E+02  0.11904314449E+03  0.18349741008E+03  0.27966719920E+03  0.17200000000E+03 0.  1.
<mgrwt>
<rscale>  2 0.21105081E+03</rscale>
<asrwt>0</asrwt>
<pdfrwt beam="1">  1        2 0.26999141E-01 0.21105081E+03</pdfrwt>
<pdfrwt beam="2">  1       -2 0.10436236E+00 0.21105081E+03</pdfrwt>
<totfact> 0.15440309E+02</totfact>
</mgrwt>
</event>
<event>
 4    1  0.3761914E-001  0.2499362E+03  0.7546771E-02  0.1113345E+00
         -2   -1    0    0    0  501 -0.00000000000E+00  0.00000000000E+00  0.36079879497E+03  0.36079879497E+03  0.00000000000E+00 0. -1.
          2   -1    0    0  502    0  0.00000000000E+00 -0.00000000000E+00 -0.23197750442E+03  0.23197750442E+03  0.00000000000E+00 0.  1.
          6    1    1    2  502    0 -0.36997842732E+02  0.17752544178E+03 -0.84858813969E+02  0.26394912607E+03  0.17200000000E+03 0.  1.
         -6    1    1    2    0  501  0.36997842732E+02 -0.17752544178E+03  0.21368010453E+03  0.32882717332E+03  0.17200000000E+03 0. -1.
<mgrwt>
<rscale>  2 0.24993624E+03</rscale>
<asrwt>0</asrwt>
<pdfrwt beam="1">  1        2 0.57994376E-01 0.24993624E+03</pdfrwt>
<pdfrwt beam="2">  1       -2 0.90199698E-01 0.24993624E+03</pdfrwt>
<totfact> 0.93857354E+01</totfact>
</mgrwt>
</event>
<event>
 4    1  0.3761914E-001  0.2010621E+03  0.7546771E-02  0.1148846E+00
          1   -1    0    0  502    0  0.00000000000E+00  0.00000000000E+00  0.11617001003E+04  0.11617001003E+04  0.00000000000E+00 0. -1.
         -1   -1    0    0    0  501 -0.00000000000E+00 -0.00000000000E+00 -0.41685908959E+02  0.41685908959E+02  0.00000000000E+00 0.  1.
          6    1    1    2  502    0 -0.40071868689E+02  0.96105203821E+02  0.31544255010E+03  0.37407214180E+03  0.17200000000E+03 0.  1.
         -6    1    1    2    0  501  0.40071868689E+02 -0.96105203821E+02  0.80457164127E+03  0.82931386748E+03  0.17200000000E+03 0. -1.
<mgrwt>
<rscale>  2 0.20106209E+03</rscale>
<asrwt>0</asrwt>
<pdfrwt beam="1">  1        1 0.29042492E+00 0.20106209E+03</pdfrwt>
<pdfrwt beam="2">  1       -1 0.10421481E-01 0.20106209E+03</pdfrwt>
<totfact> 0.23253129E+02</totfact>
</mgrwt>
</event>
<event>
 4    1  0.3761914E-001  0.1855057E+03  0.7546771E-02  0.1162579E+00
         -2   -1    0    0    0  501 -0.00000000000E+00  0.00000000000E+00  0.27183144089E+02  0.27183144089E+02  0.00000000000E+00 0. -1.
          2   -1    0    0  502    0  0.00000000000E+00 -0.00000000000E+00 -0.19235197457E+04  0.19235197457E+04  0.00000000000E+00 0.  1.
          6    1    1    2  502    0 -0.53479459545E+02  0.44365633795E+02 -0.15184447148E+04  0.15297341971E+04  0.17200000000E+03 0.  1.
         -6    1    1    2    0  501  0.53479459545E+02 -0.44365633795E+02 -0.37789188679E+03  0.42096869261E+03  0.17200000000E+03 0. -1.
<mgrwt>
<rscale>  2 0.18550569E+03</rscale>
<asrwt>0</asrwt>
<pdfrwt beam="1">  1        2 0.48087997E+00 0.18550569E+03</pdfrwt>
<pdfrwt beam="2">  1       -2 0.67957855E-02 0.18550569E+03</pdfrwt>
<totfact> 0.22099249E+02</totfact>
</mgrwt>
</event>
<event>
 4    1  0.3761914E-001  0.2797226E+03  0.7546771E-02  0.1095841E+00
         -2   -1    0    0    0  501 -0.00000000000E+00  0.00000000000E+00  0.50170736086E+02  0.50170736086E+02  0.00000000000E+00 0.  1.
          2   -1    0    0  502    0  0.00000000000E+00 -0.00000000000E+00 -0.16402693714E+04  0.16402693714E+04  0.00000000000E+00 0. -1.
          6    1    1    2  502    0  0.19510479466E+03  0.10293133875E+03 -0.98252678446E+03  0.10215691967E+04  0.17200000000E+03 0. -1.
         -6    1    1    2    0  501 -0.19510479466E+03 -0.10293133875E+03 -0.60757185086E+03  0.66887091083E+03  0.17200000000E+03 0.  1.
<mgrwt>
<rscale>  2 0.27972262E+03</rscale>
<asrwt>0</asrwt>
<pdfrwt beam="1">  1        2 0.41006732E+00 0.27972262E+03</pdfrwt>
<pdfrwt beam="2">  1       -2 0.12542685E-01 0.27972262E+03</pdfrwt>
<totfact> 0.14947564E+02</totfact>
</mgrwt>
</event>
<event>
 4    1  0.3761914E-001  0.1791832E+03  0.7546771E-02  0.1168596E+00
         -1   -1    0    0    0  501 -0.00000000000E+00  0.00000000000E+00  0.39217002481E+02  0.39217002481E+02  0.00000000000E+00 0.  1.
          1   -1    0    0  502    0  0.00000000000E+00 -0.00000000000E+00 -0.82490265142E+03  0.82490265142E+03  0.00000000000E+00 0. -1.
          6    1    1    2  502    0 -0.43427227184E+02 -0.25232771238E+02 -0.43033471286E+03  0.46614866931E+03  0.17200000000E+03 0. -1.
         -6    1    1    2    0  501  0.43427227184E+02  0.25232771238E+02 -0.35535093607E+03  0.39797098459E+03  0.17200000000E+03 0.  1.
<mgrwt>
<rscale>  2 0.17918319E+03</rscale>
<asrwt>0</asrwt>
<pdfrwt beam="1">  1        1 0.20622567E+00 0.17918319E+03</pdfrwt>
<pdfrwt beam="2">  1       -1 0.98042503E-02 0.17918319E+03</pdfrwt>
<totfact> 0.58349155E+02</totfact>
</mgrwt>
</event>
<event>
 4    1  0.3761914E-001  0.1837113E+03  0.7546771E-02  0.1164259E+00
          1   -1    0    0  502    0  0.00000000000E+00  0.00000000000E+00  0.39513869443E+03  0.39513869443E+03  0.00000000000E+00 0. -1.
         -1   -1    0    0    0  501 -0.00000000000E+00 -0.00000000000E+00 -0.92052766292E+02  0.92052766292E+02  0.00000000000E+00 0.  1.
          6    1    1    2  502    0  0.43803491642E+02  0.47403353798E+02  0.86118423778E+02  0.20289457052E+03  0.17200000000E+03 0.  1.
         -6    1    1    2    0  501 -0.43803491642E+02 -0.47403353798E+02  0.21696750436E+03  0.28429689020E+03  0.17200000000E+03 0. -1.
<mgrwt>
<rscale>  2 0.18371125E+03</rscale>
<asrwt>0</asrwt>
<pdfrwt beam="1">  1        1 0.98784669E-01 0.18371125E+03</pdfrwt>
<pdfrwt beam="2">  1       -1 0.23013193E-01 0.18371125E+03</pdfrwt>
<totfact> 0.51659957E+02</totfact>
</mgrwt>
</event>
<event>
 4    1  0.3761914E-001  0.2115551E+03  0.7546771E-02  0.1140340E+00
         -2   -1    0    0    0  501 -0.00000000000E+00  0.00000000000E+00  0.60653341709E+02  0.60653341709E+02  0.00000000000E+00 0. -1.
          2   -1    0    0  502    0  0.00000000000E+00 -0.00000000000E+00 -0.76978651342E+03  0.76978651342E+03  0.00000000000E+00 0.  1.
          6    1    1    2  502    0  0.25375219333E+02 -0.12053073828E+03 -0.43908614102E+03  0.48739327022E+03  0.17200000000E+03 0. -1.
         -6    1    1    2    0  501 -0.25375219333E+02  0.12053073828E+03 -0.27004703070E+03  0.34304658491E+03  0.17200000000E+03 0. -1.
<mgrwt>
<rscale>  2 0.21155510E+03</rscale>
<asrwt>0</asrwt>
<pdfrwt beam="1">  1        2 0.19244663E+00 0.21155510E+03</pdfrwt>
<pdfrwt beam="2">  1       -2 0.15163335E-01 0.21155510E+03</pdfrwt>
<totfact> 0.63477894E+02</totfact>
</mgrwt>
</event>
<event>
 4    1  0.3761914E-001  0.2167478E+03  0.7546771E-02  0.1136331E+00
         -1   -1    0    0    0  501 -0.00000000000E+00  0.00000000000E+00  0.35248935631E+02  0.35248935631E+02  0.00000000000E+00 0. -1.
          1   -1    0    0  502    0  0.00000000000E+00 -0.00000000000E+00 -0.14272846318E+04  0.14272846318E+04  0.00000000000E+00 0.  1.
          6    1    1    2  502    0 -0.11114875612E+03 -0.71004060103E+02 -0.88417100001E+03  0.91035047087E+03  0.17200000000E+03 0. -1.
         -6    1    1    2    0  501  0.11114875612E+03  0.71004060103E+02 -0.50786469620E+03  0.55218309661E+03  0.17200000000E+03 0. -1.
<mgrwt>
<rscale>  2 0.21674783E+03</rscale>
<asrwt>0</asrwt>
<pdfrwt beam="1">  1        1 0.35682112E+00 0.21674783E+03</pdfrwt>
<pdfrwt beam="2">  1       -1 0.88122348E-02 0.21674783E+03</pdfrwt>
<totfact> 0.15753062E+02</totfact>
</mgrwt>
</event>
<event>
 4    1  0.3761914E-001  0.1939287E+03  0.7546771E-02  0.1154965E+00
          2   -1    0    0  502    0  0.00000000000E+00  0.00000000000E+00  0.13805703143E+04  0.13805703143E+04  0.00000000000E+00 0.  1.
         -2   -1    0    0    0  501 -0.00000000000E+00 -0.00000000000E+00 -0.29018908813E+02  0.29018908813E+02  0.00000000000E+00 0. -1.
          6    1    1    2  502    0 -0.88682292235E+02 -0.12640891893E+02  0.85022003186E+03  0.87205644524E+03  0.17200000000E+03 0.  1.
         -6    1    1    2    0  501  0.88682292235E+02  0.12640891893E+02  0.50133137358E+03  0.53753277782E+03  0.17200000000E+03 0. -1.
<mgrwt>
<rscale>  2 0.19392870E+03</rscale>
<asrwt>0</asrwt>
<pdfrwt beam="1">  1        2 0.34514236E+00 0.19392870E+03</pdfrwt>
<pdfrwt beam="2">  1       -2 0.72547318E-02 0.19392870E+03</pdfrwt>
<totfact> 0.61853822E+02</totfact>
</mgrwt>
</event>
<event>
 4    1  0.3761914E-001  0.3267973E+03  0.7546771E-02  0.1072563E+00
         -2   -1    0    0    0  501 -0.00000000000E+00  0.00000000000E+00  0.10200988471E+04  0.10200988471E+04  0.00000000000E+00 0.  1.
          2   -1    0    0  502    0  0.00000000000E+00 -0.00000000000E+00 -0.12413525431E+03  0.12413525431E+03  0.00000000000E+00 0. -1.
          6    1    1    2  502    0 -0.17647935608E+03 -0.21463347407E+03  0.22155986794E+03  0.39482308240E+03  0.17200000000E+03 0. -1.
         -6    1    1    2    0  501  0.17647935608E+03  0.21463347407E+03  0.67440372490E+03  0.74941101905E+03  0.17200000000E+03 0.  1.
<mgrwt>
<rscale>  2 0.32679732E+03</rscale>
<asrwt>0</asrwt>
<pdfrwt beam="1">  1        2 0.31033817E-01 0.32679732E+03</pdfrwt>
<pdfrwt beam="2">  1       -2 0.25502469E+00 0.32679732E+03</pdfrwt>
<totfact> 0.11221961E+01</totfact>
</mgrwt>
</event>
<event>
 4    1  0.3761914E-001  0.2706894E+03  0.7546771E-02  0.1100886E+00
          1   -1    0    0  502    0  0.00000000000E+00  0.00000000000E+00  0.10716982252E+04  0.10716982252E+04  0.00000000000E+00 0.  1.
         -1   -1    0    0    0  501 -0.00000000000E+00 -0.00000000000E+00 -0.76150181020E+02  0.76150181020E+02  0.00000000000E+00 0. -1.
          6    1    1    2  502    0 -0.19614254343E+03  0.72227854661E+02  0.31433390543E+03  0.41482353409E+03  0.17200000000E+03 0. -1.
         -6    1    1    2    0  501  0.19614254343E+03 -0.72227854661E+02  0.68121413876E+03  0.73302487214E+03  0.17200000000E+03 0.  1.
<mgrwt>
<rscale>  2 0.27068942E+03</rscale>
<asrwt>0</asrwt>
<pdfrwt beam="1">  1        1 0.26792451E+00 0.27068942E+03</pdfrwt>
<pdfrwt beam="2">  1       -1 0.19037549E-01 0.27068942E+03</pdfrwt>
<totfact> 0.10939388E+02</totfact>
</mgrwt>
</event>
<event>
 4    1  0.3761914E-001  0.4131150E+03  0.7546771E-02  0.1039331E+00
          2   -1    0    0  502    0  0.00000000000E+00  0.00000000000E+00  0.11886588507E+04  0.11886588507E+04  0.00000000000E+00 0.  1.
         -2   -1    0    0    0  501 -0.00000000000E+00 -0.00000000000E+00 -0.20087965578E+03  0.20087965578E+03  0.00000000000E+00 0. -1.
          6    1    1    2  502    0  0.36094221619E+03  0.10392649595E+03  0.86496333376E+03  0.95855389454E+03  0.17200000000E+03 0.  1.
         -6    1    1    2    0  501 -0.36094221619E+03 -0.10392649595E+03  0.12281586118E+03  0.43098461196E+03  0.17200000000E+03 0.  1.
<mgrwt>
<rscale>  2 0.41311500E+03</rscale>
<asrwt>0</asrwt>
<pdfrwt beam="1">  1        2 0.29716469E+00 0.41311500E+03</pdfrwt>
<pdfrwt beam="2">  1       -2 0.50219917E-01 0.41311500E+03</pdfrwt>
<totfact> 0.29911288E+01</totfact>
</mgrwt>
</event>
<event>
 4    1  0.3761914E-001  0.1775230E+03  0.7546771E-02  0.1170222E+00
         -1   -1    0    0    0  501 -0.00000000000E+00  0.00000000000E+00  0.28467329825E+02  0.28467329825E+02  0.00000000000E+00 0. -1.
          1   -1    0    0  502    0  0.00000000000E+00 -0.00000000000E+00 -0.12283130580E+04  0.12283130580E+04  0.00000000000E+00 0.  1.
          6    1    1    2  502    0 -0.33328225017E+02 -0.28629747974E+02 -0.79737395159E+03  0.81689635311E+03  0.17200000000E+03 0.  1.
         -6    1    1    2    0  501  0.33328225017E+02  0.28629747974E+02 -0.40247177662E+03  0.43988403475E+03  0.17200000000E+03 0. -1.
<mgrwt>
<rscale>  2 0.17752305E+03</rscale>
<asrwt>0</asrwt>
<pdfrwt beam="1">  1        1 0.30707824E+00 0.17752305E+03</pdfrwt>
<pdfrwt beam="2">  1       -1 0.71168329E-02 0.17752305E+03</pdfrwt>
<totfact> 0.35698907E+02</totfact>
</mgrwt>
</event>
<event>
 4    1  0.3761914E-001  0.2321633E+03  0.7546771E-02  0.1125126E+00
         -2   -1    0    0    0  501 -0.00000000000E+00  0.00000000000E+00  0.55519508432E+02  0.55519508432E+02  0.00000000000E+00 0.  1.
          2   -1    0    0  502    0  0.00000000000E+00 -0.00000000000E+00 -0.99858510570E+03  0.99858510570E+03  0.00000000000E+00 0. -1.
          6    1    1    2  502    0  0.27640386223E+02  0.15346590533E+03 -0.38365788063E+03  0.44843410265E+03  0.17200000000E+03 0. -1.
         -6    1    1    2    0  501 -0.27640386223E+02 -0.15346590533E+03 -0.55940771663E+03  0.60567051148E+03  0.17200000000E+03 0. -1.
<mgrwt>
<rscale>  2 0.23216325E+03</rscale>
<asrwt>0</asrwt>
<pdfrwt beam="1">  1        2 0.24964627E+00 0.23216325E+03</pdfrwt>
<pdfrwt beam="2">  1       -2 0.13879877E-01 0.23216325E+03</pdfrwt>
<totfact> 0.46177380E+02</totfact>
</mgrwt>
</event>
<event>
 4    1  0.3761914E-001  0.2410181E+03  0.7546771E-02  0.1119116E+00
         -1   -1    0    0    0  501 -0.00000000000E+00  0.00000000000E+00  0.14808618747E+03  0.14808618747E+03  0.00000000000E+00 0. -1.
          1   -1    0    0  502    0  0.00000000000E+00 -0.00000000000E+00 -0.41051499971E+03  0.41051499971E+03  0.00000000000E+00 0.  1.
          6    1    1    2  502    0 -0.16825687356E+03  0.13976622554E+02 -0.72332335474E+02  0.25163801031E+03  0.17200000000E+03 0. -1.
         -6    1    1    2    0  501  0.16825687356E+03 -0.13976622554E+02 -0.19009647677E+03  0.30696317688E+03  0.17200000000E+03 0.  1.
<mgrwt>
<rscale>  2 0.24101809E+03</rscale>
<asrwt>0</asrwt>
<pdfrwt beam="1">  1        1 0.10262875E+00 0.24101809E+03</pdfrwt>
<pdfrwt beam="2">  1       -1 0.37021547E-01 0.24101809E+03</pdfrwt>
<totfact> 0.21730014E+02</totfact>
</mgrwt>
</event>
<event>
 4    1  0.3761914E-001  0.1732775E+03  0.7546771E-02  0.1174472E+00
          2   -1    0    0  502    0  0.00000000000E+00  0.00000000000E+00  0.16677464989E+03  0.16677464989E+03  0.00000000000E+00 0. -1.
         -2   -1    0    0    0  501 -0.00000000000E+00 -0.00000000000E+00 -0.18756123667E+03  0.18756123667E+03  0.00000000000E+00 0.  1.
          6    1    1    2  502    0 -0.10991256675E+02  0.17896482226E+02  0.25099000550E+02  0.17508584074E+03  0.17200000000E+03 0. -1.
         -6    1    1    2    0  501  0.10991256675E+02 -0.17896482226E+02 -0.45885587334E+02  0.17925004581E+03  0.17200000000E+03 0.  1.
<mgrwt>
<rscale>  2 0.17327750E+03</rscale>
<asrwt>0</asrwt>
<pdfrwt beam="1">  1        2 0.41693663E-01 0.17327750E+03</pdfrwt>
<pdfrwt beam="2">  1       -2 0.46890309E-01 0.17327750E+03</pdfrwt>
<totfact> 0.53449108E+02</totfact>
</mgrwt>
</event>
<event>
 4    1  0.3761914E-001  0.1922307E+03  0.7546771E-02  0.1156465E+00
          2   -1    0    0  502    0  0.00000000000E+00  0.00000000000E+00  0.32753621900E+02  0.32753621900E+02  0.00000000000E+00 0.  1.
         -2   -1    0    0    0  501 -0.00000000000E+00 -0.00000000000E+00 -0.12297688293E+04  0.12297688293E+04  0.00000000000E+00 0. -1.
          6    1    1    2  502    0  0.83433036418E+02 -0.20188080523E+02 -0.77992460868E+03  0.80326522730E+03  0.17200000000E+03 0. -1.
         -6    1    1    2    0  501 -0.83433036418E+02  0.20188080523E+02 -0.41709059867E+03  0.45925722386E+03  0.17200000000E+03 0.  1.
<mgrwt>
<rscale>  2 0.19223067E+03</rscale>
<asrwt>0</asrwt>
<pdfrwt beam="1">  1        2 0.81884053E-02 0.19223067E+03</pdfrwt>
<pdfrwt beam="2">  1       -2 0.30744221E+00 0.19223067E+03</pdfrwt>
<totfact> 0.27793827E+01</totfact>
</mgrwt>
</event>
<event>
 4    1  0.3761914E-001  0.1950503E+03  0.7546771E-02  0.1153984E+00
          1   -1    0    0  502    0  0.00000000000E+00  0.00000000000E+00  0.61227945522E+02  0.61227945522E+02  0.00000000000E+00 0. -1.
         -1   -1    0    0    0  501 -0.00000000000E+00 -0.00000000000E+00 -0.63389212085E+03  0.63389212085E+03  0.00000000000E+00 0.  1.
          6    1    1    2  502    0  0.79092987757E+01 -0.91640884086E+02 -0.23746337177E+03  0.30730027917E+03  0.17200000000E+03 0. -1.
         -6    1    1    2    0  501 -0.79092987757E+01  0.91640884086E+02 -0.33520080356E+03  0.38781978721E+03  0.17200000000E+03 0.  1.
<mgrwt>
<rscale>  2 0.19505027E+03</rscale>
<asrwt>0</asrwt>
<pdfrwt beam="1">  1        1 0.15306987E-01 0.19505027E+03</pdfrwt>
<pdfrwt beam="2">  1       -1 0.15847303E+00 0.19505027E+03</pdfrwt>
<totfact> 0.12016632E+02</totfact>
</mgrwt>
</event>
<event>
 4    1  0.3761914E-001  0.2430635E+03  0.7546771E-02  0.1117769E+00
          1   -1    0    0  502    0  0.00000000000E+00  0.00000000000E+00  0.14952612552E+03  0.14952612552E+03  0.00000000000E+00 0.  1.
         -1   -1    0    0    0  501 -0.00000000000E+00 -0.00000000000E+00 -0.40213378353E+03  0.40213378353E+03  0.00000000000E+00 0. -1.
          6    1    1    2  502    0  0.15353391956E+03 -0.76962389966E+02 -0.16274700992E+03  0.29251745788E+03  0.17200000000E+03 0.  1.
         -6    1    1    2    0  501 -0.15353391956E+03  0.76962389966E+02 -0.89860648096E+02  0.25914245117E+03  0.17200000000E+03 0. -1.
<mgrwt>
<rscale>  2 0.24306352E+03</rscale>
<asrwt>0</asrwt>
<pdfrwt beam="1">  1        1 0.37381532E-01 0.24306352E+03</pdfrwt>
<pdfrwt beam="2">  1       -1 0.10053345E+00 0.24306352E+03</pdfrwt>
<totfact> 0.11552722E+02</totfact>
</mgrwt>
</event>
<event>
 4    1  0.3761914E-001  0.2081864E+03  0.7546771E-02  0.1143010E+00
         -4   -1    0    0    0  501 -0.00000000000E+00  0.00000000000E+00  0.42247359309E+02  0.42247359309E+02  0.00000000000E+00 0.  1.
          4   -1    0    0  502    0  0.00000000000E+00 -0.00000000000E+00 -0.11273490077E+04  0.11273490077E+04  0.00000000000E+00 0. -1.
          6    1    1    2  502    0 -0.83624088703E+02  0.82247233924E+02 -0.71797894620E+03  0.74755291644E+03  0.17200000000E+03 0. -1.
         -6    1    1    2    0  501  0.83624088703E+02 -0.82247233924E+02 -0.36712270220E+03  0.42204345057E+03  0.17200000000E+03 0.  1.
<mgrwt>
<rscale>  2 0.20818644E+03</rscale>
<asrwt>0</asrwt>
<pdfrwt beam="1">  1        4 0.28183727E+00 0.20818644E+03</pdfrwt>
<pdfrwt beam="2">  1       -4 0.10561839E-01 0.20818644E+03</pdfrwt>
<totfact> 0.58084284E+00</totfact>
</mgrwt>
</event>
<event>
 4    1  0.3761914E-001  0.2560272E+03  0.7546771E-02  0.1109554E+00
         -1   -1    0    0    0  501 -0.00000000000E+00  0.00000000000E+00  0.14313948463E+03  0.14313948463E+03  0.00000000000E+00 0. -1.
          1   -1    0    0  502    0  0.00000000000E+00 -0.00000000000E+00 -0.53567494948E+03  0.53567494948E+03  0.00000000000E+00 0.  1.
          6    1    1    2  502    0 -0.17161496578E+03 -0.80710854870E+02 -0.66977410740E+02  0.26464298993E+03  0.17200000000E+03 0. -1.
         -6    1    1    2    0  501  0.17161496578E+03  0.80710854870E+02 -0.32555805411E+03  0.41417144417E+03  0.17200000000E+03 0.  1.
<mgrwt>
<rscale>  2 0.25602722E+03</rscale>
<asrwt>0</asrwt>
<pdfrwt beam="1">  1        1 0.13391873E+00 0.25602722E+03</pdfrwt>
<pdfrwt beam="2">  1       -1 0.35784872E-01 0.25602722E+03</pdfrwt>
<totfact> 0.15381647E+02</totfact>
</mgrwt>
</event>
<event>
 4    1  0.3761914E-001  0.2380244E+03  0.7546771E-02  0.1121116E+00
         -1   -1    0    0    0  501 -0.00000000000E+00  0.00000000000E+00  0.16410957532E+03  0.16410957532E+03  0.00000000000E+00 0. -1.
          1   -1    0    0  502    0  0.00000000000E+00 -0.00000000000E+00 -0.48276011068E+03  0.48276011068E+03  0.00000000000E+00 0.  1.
          6    1    1    2  502    0 -0.41053539157E+02 -0.15933046996E+03  0.13306054485E+02  0.23839597904E+03  0.17200000000E+03 0. -1.
         -6    1    1    2    0  501  0.41053539157E+02  0.15933046996E+03 -0.33195658985E+03  0.40847370696E+03  0.17200000000E+03 0.  1.
<mgrwt>
<rscale>  2 0.23802435E+03</rscale>
<asrwt>0</asrwt>
<pdfrwt beam="1">  1        1 0.12069003E+00 0.23802435E+03</pdfrwt>
<pdfrwt beam="2">  1       -1 0.41027394E-01 0.23802435E+03</pdfrwt>
<totfact> 0.14266307E+02</totfact>
</mgrwt>
</event>
<event>
 4    1  0.3761914E-001  0.1803105E+03  0.7546771E-02  0.1167503E+00
          4   -1    0    0  502    0  0.00000000000E+00  0.00000000000E+00  0.97275029925E+03  0.97275029925E+03  0.00000000000E+00 0. -1.
         -4   -1    0    0    0  501 -0.00000000000E+00 -0.00000000000E+00 -0.35515647179E+02  0.35515647179E+02  0.00000000000E+00 0.  1.
          6    1    1    2  502    0 -0.53939255198E+02 -0.42919743018E+01  0.34623390252E+03  0.39037133546E+03  0.17200000000E+03 0.  1.
         -6    1    1    2    0  501  0.53939255198E+02  0.42919743018E+01  0.59100074956E+03  0.61789461097E+03  0.17200000000E+03 0. -1.
<mgrwt>
<rscale>  2 0.18031047E+03</rscale>
<asrwt>0</asrwt>
<pdfrwt beam="1">  1        4 0.24318749E+00 0.18031047E+03</pdfrwt>
<pdfrwt beam="2">  1       -4 0.88789150E-02 0.18031047E+03</pdfrwt>
<totfact> 0.12997111E+01</totfact>
</mgrwt>
</event>
<event>
 4    1  0.3761914E-001  0.3571100E+03  0.7546771E-02  0.1059734E+00
          2   -1    0    0  502    0  0.00000000000E+00  0.00000000000E+00  0.14636550566E+04  0.14636550566E+04  0.00000000000E+00 0.  1.
         -2   -1    0    0    0  501 -0.00000000000E+00 -0.00000000000E+00 -0.97928273373E+02  0.97928273373E+02  0.00000000000E+00 0. -1.
          6    1    1    2  502    0 -0.11339475283E+03  0.29169358459E+03  0.42358366915E+03  0.55403126449E+03  0.17200000000E+03 0. -1.
         -6    1    1    2    0  501  0.11339475283E+03 -0.29169358459E+03  0.94214311406E+03  0.10075520655E+04  0.17200000000E+03 0. -1.
<mgrwt>
<rscale>  2 0.35710995E+03</rscale>
<asrwt>0</asrwt>
<pdfrwt beam="1">  1        2 0.36591369E+00 0.35710995E+03</pdfrwt>
<pdfrwt beam="2">  1       -2 0.24482073E-01 0.35710995E+03</pdfrwt>
<totfact> 0.67719033E+01</totfact>
</mgrwt>
</event>
<event>
 4    1  0.3761914E-001  0.1743955E+03  0.7546771E-02  0.1173340E+00
          2   -1    0    0  502    0  0.00000000000E+00  0.00000000000E+00  0.76905084016E+03  0.76905084016E+03  0.00000000000E+00 0.  1.
         -2   -1    0    0    0  501 -0.00000000000E+00 -0.00000000000E+00 -0.48082348687E+02  0.48082348687E+02  0.00000000000E+00 0. -1.
          6    1    1    2  502    0 -0.24915935859E+02  0.14456050860E+02  0.53262211680E+03  0.56044634049E+03  0.17200000000E+03 0.  1.
         -6    1    1    2    0  501  0.24915935859E+02 -0.14456050860E+02  0.18834637467E+03  0.25668684835E+03  0.17200000000E+03 0. -1.
<mgrwt>
<rscale>  2 0.17439547E+03</rscale>
<asrwt>0</asrwt>
<pdfrwt beam="1">  1        2 0.19226267E+00 0.17439547E+03</pdfrwt>
<pdfrwt beam="2">  1       -2 0.12020590E-01 0.17439547E+03</pdfrwt>
<totfact> 0.93143922E+02</totfact>
</mgrwt>
</event>
<event>
 4    1  0.3761914E-001  0.2797774E+03  0.7546771E-02  0.1095811E+00
         -1   -1    0    0    0  501 -0.00000000000E+00  0.00000000000E+00  0.80326014800E+02  0.80326014800E+02  0.00000000000E+00 0. -1.
          1   -1    0    0  502    0  0.00000000000E+00 -0.00000000000E+00 -0.10014010760E+04  0.10014010760E+04  0.00000000000E+00 0.  1.
          6    1    1    2  502    0 -0.20166809294E+03 -0.89562249578E+02 -0.54923230366E+03  0.61638586912E+03  0.17200000000E+03 0. -1.
         -6    1    1    2    0  501  0.20166809294E+03  0.89562249578E+02 -0.37184275752E+03  0.46534122166E+03  0.17200000000E+03 0.  1.
<mgrwt>
<rscale>  2 0.27977744E+03</rscale>
<asrwt>0</asrwt>
<pdfrwt beam="1">  1        1 0.25035026E+00 0.27977744E+03</pdfrwt>
<pdfrwt beam="2">  1       -1 0.20081504E-01 0.27977744E+03</pdfrwt>
<totfact> 0.11883362E+02</totfact>
</mgrwt>
</event>
<event>
 4    1  0.3761914E-001  0.1779500E+03  0.7546771E-02  0.1169802E+00
          1   -1    0    0  502    0  0.00000000000E+00  0.00000000000E+00  0.16472561505E+04  0.16472561505E+04  0.00000000000E+00 0. -1.
         -1   -1    0    0    0  501 -0.00000000000E+00 -0.00000000000E+00 -0.25192723002E+02  0.25192723002E+02  0.00000000000E+00 0.  1.
          6    1    1    2  502    0  0.35278397959E+02 -0.28941949956E+02  0.40398863418E+03  0.44144424153E+03  0.17200000000E+03 0.  1.
         -6    1    1    2    0  501 -0.35278397959E+02  0.28941949956E+02  0.12180747933E+04  0.12310046320E+04  0.17200000000E+03 0. -1.
<mgrwt>
<rscale>  2 0.17795000E+03</rscale>
<asrwt>0</asrwt>
<pdfrwt beam="1">  1        1 0.41181367E+00 0.17795000E+03</pdfrwt>
<pdfrwt beam="2">  1       -1 0.62981863E-02 0.17795000E+03</pdfrwt>
<totfact> 0.15454559E+02</totfact>
</mgrwt>
</event>
<event>
 4    1  0.3761914E-001  0.1973353E+03  0.7546771E-02  0.1152007E+00
         -1   -1    0    0    0  501 -0.00000000000E+00  0.00000000000E+00  0.38093392135E+02  0.38093392135E+02  0.00000000000E+00 0.  1.
          1   -1    0    0  502    0  0.00000000000E+00 -0.00000000000E+00 -0.10418019896E+04  0.10418019896E+04  0.00000000000E+00 0. -1.
          6    1    1    2  502    0  0.95186094357E+02  0.17228800855E+02 -0.42789709178E+03  0.47120817617E+03  0.17200000000E+03 0. -1.
         -6    1    1    2    0  501 -0.95186094357E+02 -0.17228800855E+02 -0.57581150570E+03  0.60868720558E+03  0.17200000000E+03 0.  1.
<mgrwt>
<rscale>  2 0.19733531E+03</rscale>
<asrwt>0</asrwt>
<pdfrwt beam="1">  1        1 0.26045049E+00 0.19733531E+03</pdfrwt>
<pdfrwt beam="2">  1       -1 0.95233483E-02 0.19733531E+03</pdfrwt>
<totfact> 0.35710815E+02</totfact>
</mgrwt>
</event>
<event>
 4    1  0.3761914E-001  0.2196184E+03  0.7546771E-02  0.1134168E+00
         -1   -1    0    0    0  501 -0.00000000000E+00  0.00000000000E+00  0.29057675065E+03  0.29057675065E+03  0.00000000000E+00 0.  1.
          1   -1    0    0  502    0  0.00000000000E+00 -0.00000000000E+00 -0.34937212978E+03  0.34937212978E+03  0.00000000000E+00 0. -1.
          6    1    1    2  502    0  0.54234903084E+02  0.12532684651E+03 -0.26121831677E+03  0.34127298778E+03  0.17200000000E+03 0. -1.
         -6    1    1    2    0  501 -0.54234903084E+02 -0.12532684651E+03  0.20242293764E+03  0.29867589265E+03  0.17200000000E+03 0.  1.
<mgrwt>
<rscale>  2 0.21961840E+03</rscale>
<asrwt>0</asrwt>
<pdfrwt beam="1">  1        1 0.87343032E-01 0.21961840E+03</pdfrwt>
<pdfrwt beam="2">  1       -1 0.72644188E-01 0.21961840E+03</pdfrwt>
<totfact> 0.77510899E+01</totfact>
</mgrwt>
</event>
<event>
 4    1  0.3761914E-001  0.2248231E+03  0.7546771E-02  0.1130337E+00
         -2   -1    0    0    0  501 -0.00000000000E+00  0.00000000000E+00  0.22602945357E+03  0.22602945357E+03  0.00000000000E+00 0. -1.
          2   -1    0    0  502    0  0.00000000000E+00 -0.00000000000E+00 -0.22850211121E+03  0.22850211121E+03  0.00000000000E+00 0.  1.
          6    1    1    2  502    0  0.14230042937E+03 -0.26683896079E+02  0.31972065658E+02  0.22708512829E+03  0.17200000000E+03 0. -1.
         -6    1    1    2    0  501 -0.14230042937E+03  0.26683896079E+02 -0.34444723291E+02  0.22744643649E+03  0.17200000000E+03 0.  1.
<mgrwt>
<rscale>  2 0.22482314E+03</rscale>
<asrwt>0</asrwt>
<pdfrwt beam="1">  1        2 0.57125528E-01 0.22482314E+03</pdfrwt>
<pdfrwt beam="2">  1       -2 0.56507363E-01 0.22482314E+03</pdfrwt>
<totfact> 0.26201375E+02</totfact>
</mgrwt>
</event>
<event>
 4    1  0.3761914E-001  0.2039609E+03  0.7546771E-02  0.1146440E+00
         -2   -1    0    0    0  501 -0.00000000000E+00  0.00000000000E+00  0.45584762833E+02  0.45584762833E+02  0.00000000000E+00 0. -1.
          2   -1    0    0  502    0  0.00000000000E+00 -0.00000000000E+00 -0.93022947048E+03  0.93022947048E+03  0.00000000000E+00 0.  1.
          6    1    1    2  502    0 -0.93037744017E+02 -0.57965643727E+02 -0.37512868337E+03  0.42699129588E+03  0.17200000000E+03 0. -1.
         -6    1    1    2    0  501  0.93037744017E+02  0.57965643727E+02 -0.50951602427E+03  0.54882293743E+03  0.17200000000E+03 0.  1.
<mgrwt>
<rscale>  2 0.20396087E+03</rscale>
<asrwt>0</asrwt>
<pdfrwt beam="1">  1        2 0.23255735E+00 0.20396087E+03</pdfrwt>
<pdfrwt beam="2">  1       -2 0.11396192E-01 0.20396087E+03</pdfrwt>
<totfact> 0.73083175E+02</totfact>
</mgrwt>
</event>
<event>
 4    1  0.3761914E-001  0.2368284E+03  0.7546771E-02  0.1121924E+00
         -1   -1    0    0    0  501 -0.00000000000E+00  0.00000000000E+00  0.87719054473E+02  0.87719054473E+02  0.00000000000E+00 0.  1.
          1   -1    0    0  502    0  0.00000000000E+00 -0.00000000000E+00 -0.68829339178E+03  0.68829339178E+03  0.00000000000E+00 0. -1.
          6    1    1    2  502    0 -0.68718515184E+02 -0.14758545083E+03 -0.40369896406E+03  0.46803905095E+03  0.17200000000E+03 0.  1.
         -6    1    1    2    0  501  0.68718515184E+02  0.14758545083E+03 -0.19687537324E+03  0.30797339530E+03  0.17200000000E+03 0. -1.
<mgrwt>
<rscale>  2 0.23682842E+03</rscale>
<asrwt>0</asrwt>
<pdfrwt beam="1">  1        1 0.17207334E+00 0.23682842E+03</pdfrwt>
<pdfrwt beam="2">  1       -1 0.21929764E-01 0.23682842E+03</pdfrwt>
<totfact> 0.22993006E+02</totfact>
</mgrwt>
</event>
<event>
 4    1  0.3761914E-001  0.1785323E+03  0.7546771E-02  0.1169231E+00
          2   -1    0    0  502    0  0.00000000000E+00  0.00000000000E+00  0.20741671301E+04  0.20741671301E+04  0.00000000000E+00 0.  1.
         -2   -1    0    0    0  501 -0.00000000000E+00 -0.00000000000E+00 -0.15484444313E+02  0.15484444313E+02  0.00000000000E+00 0. -1.
          6    1    1    2  502    0  0.46125987055E+02  0.12734319347E+02  0.93835557197E+03  0.95518843639E+03  0.17200000000E+03 0. -1.
         -6    1    1    2    0  501 -0.46125987055E+02 -0.12734319347E+02  0.11203271138E+04  0.11344631380E+04  0.17200000000E+03 0.  1.
<mgrwt>
<rscale>  2 0.17853226E+03</rscale>
<asrwt>0</asrwt>
<pdfrwt beam="1">  1        2 0.51854084E+00 0.17853226E+03</pdfrwt>
<pdfrwt beam="2">  1       -2 0.38711181E-02 0.17853226E+03</pdfrwt>
<totfact> 0.36753790E+02</totfact>
</mgrwt>
</event>
<event>
 4    1  0.3761914E-001  0.2067269E+03  0.7546771E-02  0.1144184E+00
         -2   -1    0    0    0  501 -0.00000000000E+00  0.00000000000E+00  0.42629653165E+02  0.42629653165E+02  0.00000000000E+00 0. -1.
          2   -1    0    0  502    0  0.00000000000E+00 -0.00000000000E+00 -0.12251145569E+04  0.12251145569E+04  0.00000000000E+00 0.  1.
          6    1    1    2  502    0  0.79312167122E+02  0.82834622619E+02 -0.32103619875E+03  0.38183797017E+03  0.17200000000E+03 0. -1.
         -6    1    1    2    0  501 -0.79312167122E+02 -0.82834622619E+02 -0.86144870497E+03  0.88590623987E+03  0.17200000000E+03 0.  1.
<mgrwt>
<rscale>  2 0.20672686E+03</rscale>
<asrwt>0</asrwt>
<pdfrwt beam="1">  1        2 0.30627864E+00 0.20672686E+03</pdfrwt>
<pdfrwt beam="2">  1       -2 0.10657413E-01 0.20672686E+03</pdfrwt>
<totfact> 0.45712116E+02</totfact>
</mgrwt>
</event>
<event>
 4    1  0.3761914E-001  0.1895545E+03  0.7546771E-02  0.1158864E+00
         -1   -1    0    0    0  501 -0.00000000000E+00  0.00000000000E+00  0.30493312044E+02  0.30493312044E+02  0.00000000000E+00 0. -1.
          1   -1    0    0  502    0  0.00000000000E+00 -0.00000000000E+00 -0.17732669385E+04  0.17732669385E+04  0.00000000000E+00 0.  1.
          6    1    1    2  502    0  0.77335086023E+02  0.19136382704E+02 -0.34899010766E+03  0.39714608385E+03  0.17200000000E+03 0. -1.
         -6    1    1    2    0  501 -0.77335086023E+02 -0.19136382704E+02 -0.13937835188E+04  0.14066141667E+04  0.17200000000E+03 0.  1.
<mgrwt>
<rscale>  2 0.18955452E+03</rscale>
<asrwt>0</asrwt>
<pdfrwt beam="1">  1        1 0.44331671E+00 0.18955452E+03</pdfrwt>
<pdfrwt beam="2">  1       -1 0.76233284E-02 0.18955452E+03</pdfrwt>
<totfact> 0.83799356E+01</totfact>
</mgrwt>
</event>
<event>
 4    1  0.3761914E-001  0.2017617E+03  0.7546771E-02  0.1148261E+00
          1   -1    0    0  502    0  0.00000000000E+00  0.00000000000E+00  0.66685990615E+03  0.66685990615E+03  0.00000000000E+00 0.  1.
         -1   -1    0    0    0  501 -0.00000000000E+00 -0.00000000000E+00 -0.69216089100E+02  0.69216089100E+02  0.00000000000E+00 0. -1.
          6    1    1    2  502    0 -0.88513517202E+02 -0.57350867605E+02  0.42528300040E+03  0.47071583272E+03  0.17200000000E+03 0.  1.
         -6    1    1    2    0  501  0.88513517202E+02  0.57350867605E+02  0.17236081665E+03  0.26536016253E+03  0.17200000000E+03 0.  1.
<mgrwt>
<rscale>  2 0.20176165E+03</rscale>
<asrwt>0</asrwt>
<pdfrwt beam="1">  1        1 0.16671496E+00 0.20176165E+03</pdfrwt>
<pdfrwt beam="2">  1       -1 0.17304024E-01 0.20176165E+03</pdfrwt>
<totfact> 0.35973188E+02</totfact>
</mgrwt>
</event>
<event>
 4    1  0.3761914E-001  0.1907633E+03  0.7546771E-02  0.1157775E+00
          1   -1    0    0  502    0  0.00000000000E+00  0.00000000000E+00  0.18870474643E+04  0.18870474643E+04  0.00000000000E+00 0.  1.
         -1   -1    0    0    0  501 -0.00000000000E+00 -0.00000000000E+00 -0.31321464609E+02  0.31321464609E+02  0.00000000000E+00 0. -1.
          6    1    1    2  502    0  0.49879482859E+02  0.65716664240E+02  0.33324126047E+03  0.38397966150E+03  0.17200000000E+03 0. -1.
         -6    1    1    2    0  501 -0.49879482859E+02 -0.65716664240E+02  0.15224847393E+04  0.15343892675E+04  0.17200000000E+03 0.  1.
<mgrwt>
<rscale>  2 0.19076332E+03</rscale>
<asrwt>0</asrwt>
<pdfrwt beam="1">  1        1 0.47176148E+00 0.19076332E+03</pdfrwt>
<pdfrwt beam="2">  1       -1 0.78303725E-02 0.19076332E+03</pdfrwt>
<totfact> 0.59899751E+01</totfact>
</mgrwt>
</event>
<event>
 4    1  0.3761914E-001  0.2031126E+03  0.7546771E-02  0.1147139E+00
          2   -1    0    0  502    0  0.00000000000E+00  0.00000000000E+00  0.11445355141E+04  0.11445355141E+04  0.00000000000E+00 0. -1.
         -2   -1    0    0    0  501 -0.00000000000E+00 -0.00000000000E+00 -0.38965386010E+02  0.38965386010E+02  0.00000000000E+00 0.  1.
          6    1    1    2  502    0 -0.84497858673E+02  0.67311484956E+02  0.71478805560E+03  0.74308592273E+03  0.17200000000E+03 0. -1.
         -6    1    1    2    0  501  0.84497858673E+02 -0.67311484956E+02  0.39078207254E+03  0.44041497743E+03  0.17200000000E+03 0. -1.
<mgrwt>
<rscale>  2 0.20311259E+03</rscale>
<asrwt>0</asrwt>
<pdfrwt beam="1">  1        2 0.28613377E+00 0.20311259E+03</pdfrwt>
<pdfrwt beam="2">  1       -2 0.97413503E-02 0.20311259E+03</pdfrwt>
<totfact> 0.61725129E+02</totfact>
</mgrwt>
</event>
<event>
 4    1  0.3761914E-001  0.1963000E+03  0.7546771E-02  0.1152899E+00
         -2   -1    0    0    0  501 -0.00000000000E+00  0.00000000000E+00  0.65271259524E+02  0.65271259524E+02  0.00000000000E+00 0. -1.
          2   -1    0    0  502    0  0.00000000000E+00 -0.00000000000E+00 -0.66210528607E+03  0.66210528607E+03  0.00000000000E+00 0.  1.
          6    1    1    2  502    0 -0.28176157762E+02 -0.90309454629E+02 -0.17870013733E+03  0.26545702579E+03  0.17200000000E+03 0. -1.
         -6    1    1    2    0  501  0.28176157762E+02  0.90309454629E+02 -0.41813388922E+03  0.46191951980E+03  0.17200000000E+03 0. -1.
<mgrwt>
<rscale>  2 0.19630001E+03</rscale>
<asrwt>0</asrwt>
<pdfrwt beam="1">  1        2 0.16552632E+00 0.19630001E+03</pdfrwt>
<pdfrwt beam="2">  1       -2 0.16317815E-01 0.19630001E+03</pdfrwt>
<totfact> 0.70836963E+02</totfact>
</mgrwt>
</event>
<event>
 4    1  0.3761914E-001  0.1985039E+03  0.7546771E-02  0.1151007E+00
          2   -1    0    0  502    0  0.00000000000E+00  0.00000000000E+00  0.27876936960E+03  0.27876936960E+03  0.00000000000E+00 0.  1.
         -2   -1    0    0    0  501 -0.00000000000E+00 -0.00000000000E+00 -0.16196816625E+03  0.16196816625E+03  0.00000000000E+00 0. -1.
          6    1    1    2  502    0 -0.50759379145E+02 -0.85107553730E+02  0.13702716634E+03  0.24120583448E+03  0.17200000000E+03 0.  1.
         -6    1    1    2    0  501  0.50759379145E+02  0.85107553730E+02 -0.20225962990E+02  0.19953170137E+03  0.17200000000E+03 0.  1.
<mgrwt>
<rscale>  2 0.19850393E+03</rscale>
<asrwt>0</asrwt>
<pdfrwt beam="1">  1        2 0.69692342E-01 0.19850393E+03</pdfrwt>
<pdfrwt beam="2">  1       -2 0.40492042E-01 0.19850393E+03</pdfrwt>
<totfact> 0.40840663E+02</totfact>
</mgrwt>
</event>
<event>
 4    1  0.3761914E-001  0.2211479E+03  0.7546771E-02  0.1133030E+00
         -1   -1    0    0    0  501 -0.00000000000E+00  0.00000000000E+00  0.16383100629E+03  0.16383100629E+03  0.00000000000E+00 0. -1.
          1   -1    0    0  502    0  0.00000000000E+00 -0.00000000000E+00 -0.31816000500E+03  0.31816000500E+03  0.00000000000E+00 0.  1.
          6    1    1    2  502    0 -0.13900498766E+03  0.98492809145E-01 -0.17283870832E+02  0.22182229033E+03  0.17200000000E+03 0.  1.
         -6    1    1    2    0  501  0.13900498766E+03 -0.98492809145E-01 -0.13704512788E+03  0.26016872097E+03  0.17200000000E+03 0. -1.
<mgrwt>
<rscale>  2 0.22114791E+03</rscale>
<asrwt>0</asrwt>
<pdfrwt beam="1">  1        1 0.79540001E-01 0.22114791E+03</pdfrwt>
<pdfrwt beam="2">  1       -1 0.40957752E-01 0.22114791E+03</pdfrwt>
<totfact> 0.25914706E+02</totfact>
</mgrwt>
</event>
<event>
 4    1  0.3761914E-001  0.2235003E+03  0.7546771E-02  0.1131300E+00
          1   -1    0    0  502    0  0.00000000000E+00  0.00000000000E+00  0.23697779815E+03  0.23697779815E+03  0.00000000000E+00 0. -1.
         -1   -1    0    0    0  501 -0.00000000000E+00 -0.00000000000E+00 -0.21078927850E+03  0.21078927850E+03  0.00000000000E+00 0.  1.
          6    1    1    2  502    0 -0.12382068339E+03  0.70970539257E+02  0.13090053874E+02  0.22388329234E+03  0.17200000000E+03 0.  1.
         -6    1    1    2    0  501  0.12382068339E+03 -0.70970539257E+02  0.13098465777E+02  0.22388378432E+03  0.17200000000E+03 0. -1.
<mgrwt>
<rscale>  2 0.22350029E+03</rscale>
<asrwt>0</asrwt>
<pdfrwt beam="1">  1        1 0.59244449E-01 0.22350029E+03</pdfrwt>
<pdfrwt beam="2">  1       -1 0.52697320E-01 0.22350029E+03</pdfrwt>
<totfact> 0.24018876E+02</totfact>
</mgrwt>
</event>
<event>
 4    1  0.3761914E-001  0.1736027E+03  0.7546771E-02  0.1174142E+00
         -1   -1    0    0    0  501 -0.00000000000E+00  0.00000000000E+00  0.22146338966E+03  0.22146338966E+03  0.00000000000E+00 0. -1.
          1   -1    0    0  502    0  0.00000000000E+00 -0.00000000000E+00 -0.16256786841E+03  0.16256786841E+03  0.00000000000E+00 0.  1.
          6    1    1    2  502    0  0.93519591439E+01 -0.21597311210E+02 -0.48051864555E+02  0.18013018814E+03  0.17200000000E+03 0.  1.
         -6    1    1    2    0  501 -0.93519591439E+01  0.21597311210E+02  0.10694738580E+03  0.20390106994E+03  0.17200000000E+03 0. -1.
<mgrwt>
<rscale>  2 0.17360272E+03</rscale>
<asrwt>0</asrwt>
<pdfrwt beam="1">  1        1 0.40641967E-01 0.17360272E+03</pdfrwt>
<pdfrwt beam="2">  1       -1 0.55365847E-01 0.17360272E+03</pdfrwt>
<totfact> 0.35334142E+02</totfact>
</mgrwt>
</event>
<event>
 4    1  0.3761914E-001  0.2099496E+03  0.7546771E-02  0.1141606E+00
          2   -1    0    0  502    0  0.00000000000E+00  0.00000000000E+00  0.44199632753E+03  0.44199632753E+03  0.00000000000E+00 0.  1.
         -2   -1    0    0    0  501 -0.00000000000E+00 -0.00000000000E+00 -0.17435673483E+03  0.17435673483E+03  0.00000000000E+00 0. -1.
          6    1    1    2  502    0  0.12928269868E+02  0.11969842392E+03 -0.67801732892E+02  0.22062621747E+03  0.17200000000E+03 0. -1.
         -6    1    1    2    0  501 -0.12928269868E+02 -0.11969842392E+03  0.33544132560E+03  0.39572684489E+03  0.17200000000E+03 0.  1.
<mgrwt>
<rscale>  2 0.20994964E+03</rscale>
<asrwt>0</asrwt>
<pdfrwt beam="1">  1        2 0.11049908E+00 0.20994964E+03</pdfrwt>
<pdfrwt beam="2">  1       -2 0.43589184E-01 0.20994964E+03</pdfrwt>
<totfact> 0.20856935E+02</totfact>
</mgrwt>
</event>
<event>
 4    1  0.3761914E-001  0.1861301E+03  0.7546771E-02  0.1161999E+00
         -1   -1    0    0    0  501 -0.00000000000E+00  0.00000000000E+00  0.48298826538E+02  0.48298826538E+02  0.00000000000E+00 0.  1.
          1   -1    0    0  502    0  0.00000000000E+00 -0.00000000000E+00 -0.86811791935E+03  0.86811791935E+03  0.00000000000E+00 0. -1.
          6    1    1    2  502    0 -0.17317268015E+02  0.68996476308E+02 -0.60089947650E+03  0.62906643717E+03  0.17200000000E+03 0.  1.
         -6    1    1    2    0  501  0.17317268015E+02 -0.68996476308E+02 -0.21891961631E+03  0.28735030872E+03  0.17200000000E+03 0.  1.
<mgrwt>
<rscale>  2 0.18613007E+03</rscale>
<asrwt>0</asrwt>
<pdfrwt beam="1">  1        1 0.21702948E+00 0.18613007E+03</pdfrwt>
<pdfrwt beam="2">  1       -1 0.12074707E-01 0.18613007E+03</pdfrwt>
<totfact> 0.37926144E+02</totfact>
</mgrwt>
</event>
<event>
 4    1  0.3761914E-001  0.2920662E+03  0.7546771E-02  0.1089275E+00
         -1   -1    0    0    0  501 -0.00000000000E+00  0.00000000000E+00  0.21642330726E+03  0.21642330726E+03  0.00000000000E+00 0.  1.
          1   -1    0    0  502    0  0.00000000000E+00 -0.00000000000E+00 -0.46325604655E+03  0.46325604655E+03  0.00000000000E+00 0. -1.
          6    1    1    2  502    0  0.33793365991E+02  0.23361653556E+03 -0.25467559091E+03  0.38750785009E+03  0.17200000000E+03 0. -1.
         -6    1    1    2    0  501 -0.33793365991E+02 -0.23361653556E+03  0.78428516214E+01  0.29217150373E+03  0.17200000000E+03 0.  1.
<mgrwt>
<rscale>  2 0.29206622E+03</rscale>
<asrwt>0</asrwt>
<pdfrwt beam="1">  1        1 0.11581401E+00 0.29206622E+03</pdfrwt>
<pdfrwt beam="2">  1       -1 0.54105827E-01 0.29206622E+03</pdfrwt>
<totfact> 0.90442749E+01</totfact>
</mgrwt>
</event>
<event>
 4    1  0.3761914E-001  0.1839074E+03  0.7546771E-02  0.1164074E+00
          2   -1    0    0  502    0  0.00000000000E+00  0.00000000000E+00  0.78806335882E+02  0.78806335882E+02  0.00000000000E+00 0. -1.
         -2   -1    0    0    0  501 -0.00000000000E+00 -0.00000000000E+00 -0.44918888156E+03  0.44918888156E+03  0.00000000000E+00 0.  1.
          6    1    1    2  502    0  0.26772727230E+02  0.59339216396E+02 -0.12946988526E+03  0.22490969903E+03  0.17200000000E+03 0. -1.
         -6    1    1    2    0  501 -0.26772727230E+02 -0.59339216396E+02 -0.24091266042E+03  0.30308551842E+03  0.17200000000E+03 0. -1.
<mgrwt>
<rscale>  2 0.18390737E+03</rscale>
<asrwt>0</asrwt>
<pdfrwt beam="1">  1        2 0.19701584E-01 0.18390737E+03</pdfrwt>
<pdfrwt beam="2">  1       -2 0.11229722E+00 0.18390737E+03</pdfrwt>
<totfact> 0.18532023E+02</totfact>
</mgrwt>
</event>
<event>
 4    1  0.3761914E-001  0.1979689E+03  0.7546771E-02  0.1151464E+00
         -2   -1    0    0    0  501 -0.00000000000E+00  0.00000000000E+00  0.23683869475E+02  0.23683869475E+02  0.00000000000E+00 0. -1.
          2   -1    0    0  502    0  0.00000000000E+00 -0.00000000000E+00 -0.21378869364E+04  0.21378869364E+04  0.00000000000E+00 0.  1.
          6    1    1    2  502    0  0.19491099033E+01 -0.97999413551E+02 -0.54333356791E+03  0.57827592904E+03  0.17200000000E+03 0. -1.
         -6    1    1    2    0  501 -0.19491099033E+01  0.97999413551E+02 -0.15708694990E+04  0.15832948768E+04  0.17200000000E+03 0.  1.
<mgrwt>
<rscale>  2 0.19796890E+03</rscale>
<asrwt>0</asrwt>
<pdfrwt beam="1">  1        2 0.53447166E+00 0.19796890E+03</pdfrwt>
<pdfrwt beam="2">  1       -2 0.59209682E-02 0.19796890E+03</pdfrwt>
<totfact> 0.16445966E+02</totfact>
</mgrwt>
</event>
<event>
 4    1  0.3761914E-001  0.1749333E+03  0.7546771E-02  0.1172799E+00
          3   -1    0    0  502    0  0.00000000000E+00  0.00000000000E+00  0.11650726948E+02  0.11650726948E+02  0.00000000000E+00 0.  1.
         -3   -1    0    0    0  501 -0.00000000000E+00 -0.00000000000E+00 -0.27117622937E+04  0.27117622937E+04  0.00000000000E+00 0. -1.
          6    1    1    2  502    0 -0.31696534954E+02 -0.36054480607E+01 -0.11087266301E+04  0.11224421633E+04  0.17200000000E+03 0.  1.
         -6    1    1    2    0  501  0.31696534954E+02  0.36054480607E+01 -0.15913849367E+04  0.16009708574E+04  0.17200000000E+03 0.  1.
<mgrwt>
<rscale>  2 0.17493333E+03</rscale>
<asrwt>0</asrwt>
<pdfrwt beam="1">  1        3 0.29126814E-02 0.17493333E+03</pdfrwt>
<pdfrwt beam="2">  1       -3 0.67794065E+00 0.17493333E+03</pdfrwt>
<totfact> 0.62298091E-01</totfact>
</mgrwt>
</event>
<event>
 4    1  0.3761914E-001  0.1784052E+03  0.7546771E-02  0.1169355E+00
          3   -1    0    0  502    0  0.00000000000E+00  0.00000000000E+00  0.13354098132E+03  0.13354098132E+03  0.00000000000E+00 0. -1.
         -3   -1    0    0    0  501 -0.00000000000E+00 -0.00000000000E+00 -0.29299265123E+03  0.29299265123E+03  0.00000000000E+00 0.  1.
          6    1    1    2  502    0 -0.43519562792E+02  0.18721014289E+02  0.12381129387E+02  0.17883433979E+03  0.17200000000E+03 0. -1.
         -6    1    1    2    0  501  0.43519562792E+02 -0.18721014289E+02 -0.17183279930E+03  0.24769929277E+03  0.17200000000E+03 0.  1.
<mgrwt>
<rscale>  2 0.17840524E+03</rscale>
<asrwt>0</asrwt>
<pdfrwt beam="1">  1        3 0.33385246E-01 0.17840524E+03</pdfrwt>
<pdfrwt beam="2">  1       -3 0.73248162E-01 0.17840524E+03</pdfrwt>
<totfact> 0.38415912E+01</totfact>
</mgrwt>
</event>
<event>
 4    1  0.3761914E-001  0.1792232E+03  0.7546771E-02  0.1168557E+00
         -2   -1    0    0    0  501 -0.00000000000E+00  0.00000000000E+00  0.68620191093E+02  0.68620191093E+02  0.00000000000E+00 0. -1.
          2   -1    0    0  502    0  0.00000000000E+00 -0.00000000000E+00 -0.54420990458E+03  0.54420990458E+03  0.00000000000E+00 0.  1.
          6    1    1    2  502    0  0.74922682080E+01 -0.49808008447E+02 -0.12320312990E+03  0.21748559264E+03  0.17200000000E+03 0. -1.
         -6    1    1    2    0  501 -0.74922682080E+01  0.49808008447E+02 -0.35238658359E+03  0.39534450304E+03  0.17200000000E+03 0.  1.
<mgrwt>
<rscale>  2 0.17922325E+03</rscale>
<asrwt>0</asrwt>
<pdfrwt beam="1">  1        2 0.13605247E+00 0.17922325E+03</pdfrwt>
<pdfrwt beam="2">  1       -2 0.17155048E-01 0.17922325E+03</pdfrwt>
<totfact> 0.85489393E+02</totfact>
</mgrwt>
</event>
<event>
 4    1  0.3761914E-001  0.2038214E+03  0.7546771E-02  0.1146554E+00
          2   -1    0    0  502    0  0.00000000000E+00  0.00000000000E+00  0.16953806013E+04  0.16953806013E+04  0.00000000000E+00 0.  1.
         -2   -1    0    0    0  501 -0.00000000000E+00 -0.00000000000E+00 -0.24691574431E+02  0.24691574431E+02  0.00000000000E+00 0. -1.
          6    1    1    2  502    0  0.73229222198E+02 -0.81219731401E+02  0.76033246142E+03  0.78717762649E+03  0.17200000000E+03 0. -1.
         -6    1    1    2    0  501 -0.73229222198E+02  0.81219731401E+02  0.91035656543E+03  0.93289454922E+03  0.17200000000E+03 0.  1.
<mgrwt>
<rscale>  2 0.20382140E+03</rscale>
<asrwt>0</asrwt>
<pdfrwt beam="1">  1        2 0.42384476E+00 0.20382140E+03</pdfrwt>
<pdfrwt beam="2">  1       -2 0.61728993E-02 0.20382140E+03</pdfrwt>
<totfact> 0.41736301E+02</totfact>
</mgrwt>
</event>
<event>
 4    1  0.3761914E-001  0.2370927E+03  0.7546771E-02  0.1121745E+00
         -1   -1    0    0    0  501 -0.00000000000E+00  0.00000000000E+00  0.36499323954E+03  0.36499323954E+03  0.00000000000E+00 0. -1.
          1   -1    0    0  502    0  0.00000000000E+00 -0.00000000000E+00 -0.16619323870E+03  0.16619323870E+03  0.00000000000E+00 0.  1.
          6    1    1    2  502    0  0.13143372635E+03 -0.96716648457E+02  0.17130776896E+03  0.29250519007E+03  0.17200000000E+03 0. -1.
         -6    1    1    2    0  501 -0.13143372635E+03  0.96716648457E+02  0.27492231887E+02  0.23868128818E+03  0.17200000000E+03 0.  1.
<mgrwt>
<rscale>  2 0.23709267E+03</rscale>
<asrwt>0</asrwt>
<pdfrwt beam="1">  1        1 0.41548310E-01 0.23709267E+03</pdfrwt>
<pdfrwt beam="2">  1       -1 0.91248309E-01 0.23709267E+03</pdfrwt>
<totfact> 0.12523885E+02</totfact>
</mgrwt>
</event>
<event>
 4    1  0.3761914E-001  0.2017042E+03  0.7546771E-02  0.1148309E+00
         -2   -1    0    0    0  501 -0.00000000000E+00  0.00000000000E+00  0.18017254682E+03  0.18017254682E+03  0.00000000000E+00 0. -1.
          2   -1    0    0  502    0  0.00000000000E+00 -0.00000000000E+00 -0.22605097370E+03  0.22605097370E+03  0.00000000000E+00 0.  1.
          6    1    1    2  502    0  0.70098590191E+02  0.78655973833E+02 -0.29585148644E+02  0.20386234470E+03  0.17200000000E+03 0. -1.
         -6    1    1    2    0  501 -0.70098590191E+02 -0.78655973833E+02 -0.16293278234E+02  0.20236117583E+03  0.17200000000E+03 0.  1.
<mgrwt>
<rscale>  2 0.20170418E+03</rscale>
<asrwt>0</asrwt>
<pdfrwt beam="1">  1        2 0.56512743E-01 0.20170418E+03</pdfrwt>
<pdfrwt beam="2">  1       -2 0.45043137E-01 0.20170418E+03</pdfrwt>
<totfact> 0.41743685E+02</totfact>
</mgrwt>
</event>
<event>
 4    1  0.3761914E-001  0.2633242E+03  0.7546771E-02  0.1105162E+00
          2   -1    0    0  502    0  0.00000000000E+00  0.00000000000E+00  0.53789163520E+03  0.53789163520E+03  0.00000000000E+00 0.  1.
         -2   -1    0    0    0  501 -0.00000000000E+00 -0.00000000000E+00 -0.16460792672E+03  0.16460792672E+03  0.00000000000E+00 0. -1.
          6    1    1    2  502    0  0.22456410634E+02  0.19811954718E+03  0.23068788100E+02  0.26433277197E+03  0.17200000000E+03 0. -1.
         -6    1    1    2    0  501 -0.22456410634E+02 -0.19811954718E+03  0.35021492038E+03  0.43816678995E+03  0.17200000000E+03 0.  1.
<mgrwt>
<rscale>  2 0.26332422E+03</rscale>
<asrwt>0</asrwt>
<pdfrwt beam="1">  1        2 0.13447290E+00 0.26332422E+03</pdfrwt>
<pdfrwt beam="2">  1       -2 0.41151983E-01 0.26332422E+03</pdfrwt>
<totfact> 0.18027972E+02</totfact>
</mgrwt>
</event>
<event>
 4    1  0.3761914E-001  0.2048192E+03  0.7546771E-02  0.1145736E+00
          2   -1    0    0  502    0  0.00000000000E+00  0.00000000000E+00  0.57146975315E+03  0.57146975315E+03  0.00000000000E+00 0.  1.
         -2   -1    0    0    0  501 -0.00000000000E+00 -0.00000000000E+00 -0.78083269289E+02  0.78083269289E+02  0.00000000000E+00 0. -1.
          6    1    1    2  502    0 -0.19255207974E+02  0.10952694331E+03  0.32615740686E+03  0.38513577917E+03  0.17200000000E+03 0.  1.
         -6    1    1    2    0  501  0.19255207974E+02 -0.10952694331E+03  0.16722907700E+03  0.26441724327E+03  0.17200000000E+03 0. -1.
<mgrwt>
<rscale>  2 0.20481922E+03</rscale>
<asrwt>0</asrwt>
<pdfrwt beam="1">  1        2 0.14286743E+00 0.20481922E+03</pdfrwt>
<pdfrwt beam="2">  1       -2 0.19520819E-01 0.20481922E+03</pdfrwt>
<totfact> 0.64346638E+02</totfact>
</mgrwt>
</event>
<event>
 4    1  0.3761914E-001  0.3073992E+03  0.7546771E-02  0.1081599E+00
         -2   -1    0    0    0  501 -0.00000000000E+00  0.00000000000E+00  0.31170732652E+03  0.31170732652E+03  0.00000000000E+00 0. -1.
          2   -1    0    0  502    0  0.00000000000E+00 -0.00000000000E+00 -0.37209381187E+03  0.37209381187E+03  0.00000000000E+00 0.  1.
          6    1    1    2  502    0  0.25325285009E+03 -0.27807302446E+02  0.11697681713E+03  0.32890397974E+03  0.17200000000E+03 0. -1.
         -6    1    1    2    0  501 -0.25325285009E+03  0.27807302446E+02 -0.17736330248E+03  0.35489715864E+03  0.17200000000E+03 0.  1.
<mgrwt>
<rscale>  2 0.30739917E+03</rscale>
<asrwt>0</asrwt>
<pdfrwt beam="1">  1        2 0.93023452E-01 0.30739917E+03</pdfrwt>
<pdfrwt beam="2">  1       -2 0.77926832E-01 0.30739917E+03</pdfrwt>
<totfact> 0.76002117E+01</totfact>
</mgrwt>
</event>
<event>
 4    1  0.3761914E-001  0.2758082E+03  0.7546771E-02  0.1098001E+00
         -2   -1    0    0    0  501 -0.00000000000E+00  0.00000000000E+00  0.44985467338E+02  0.44985467338E+02  0.00000000000E+00 0. -1.
          2   -1    0    0  502    0  0.00000000000E+00 -0.00000000000E+00 -0.18071978311E+04  0.18071978311E+04  0.00000000000E+00 0.  1.
          6    1    1    2  502    0  0.21560409699E+03 -0.10284462414E+01 -0.11159397294E+04  0.11495180138E+04  0.17200000000E+03 0.  1.
         -6    1    1    2    0  501 -0.21560409699E+03  0.10284462414E+01 -0.64627263431E+03  0.70266528461E+03  0.17200000000E+03 0. -1.
<mgrwt>
<rscale>  2 0.27580824E+03</rscale>
<asrwt>0</asrwt>
<pdfrwt beam="1">  1        2 0.45179942E+00 0.27580824E+03</pdfrwt>
<pdfrwt beam="2">  1       -2 0.11246368E-01 0.27580824E+03</pdfrwt>
<totfact> 0.12487710E+02</totfact>
</mgrwt>
</event>
<event>
 4    1  0.3761914E-001  0.1955869E+03  0.7546771E-02  0.1153517E+00
          4   -1    0    0  502    0  0.00000000000E+00  0.00000000000E+00  0.10590174277E+03  0.10590174277E+03  0.00000000000E+00 0. -1.
         -4   -1    0    0    0  501 -0.00000000000E+00 -0.00000000000E+00 -0.36122702515E+03  0.36122702515E+03  0.00000000000E+00 0.  1.
          6    1    1    2  502    0  0.65582505552E+02 -0.66099635485E+02 -0.12696158120E+03  0.23318119552E+03  0.17200000000E+03 0. -1.
         -6    1    1    2    0  501 -0.65582505552E+02  0.66099635485E+02 -0.12836370119E+03  0.23394757239E+03  0.17200000000E+03 0. -1.
<mgrwt>
<rscale>  2 0.19558688E+03</rscale>
<asrwt>0</asrwt>
<pdfrwt beam="1">  1        4 0.26475436E-01 0.19558688E+03</pdfrwt>
<pdfrwt beam="2">  1       -4 0.90306755E-01 0.19558688E+03</pdfrwt>
<totfact> 0.25781925E+01</totfact>
</mgrwt>
</event>
<event>
 4    1  0.3761914E-001  0.1897833E+03  0.7546771E-02  0.1158657E+00
         -2   -1    0    0    0  501 -0.00000000000E+00  0.00000000000E+00  0.31192552019E+02  0.31192552019E+02  0.00000000000E+00 0. -1.
          2   -1    0    0  502    0  0.00000000000E+00 -0.00000000000E+00 -0.15786031028E+04  0.15786031028E+04  0.00000000000E+00 0.  1.
          6    1    1    2  502    0  0.78182255455E+02 -0.17923153920E+02 -0.35660249658E+03  0.40395921215E+03  0.17200000000E+03 0. -1.
         -6    1    1    2    0  501 -0.78182255455E+02  0.17923153920E+02 -0.11908080542E+04  0.12058364426E+04  0.17200000000E+03 0.  1.
<mgrwt>
<rscale>  2 0.18978331E+03</rscale>
<asrwt>0</asrwt>
<pdfrwt beam="1">  1        2 0.39465076E+00 0.18978331E+03</pdfrwt>
<pdfrwt beam="2">  1       -2 0.77981383E-02 0.18978331E+03</pdfrwt>
<totfact> 0.37229471E+02</totfact>
</mgrwt>
</event>
<event>
 4    1  0.3761914E-001  0.1868824E+03  0.7546771E-02  0.1161304E+00
         -1   -1    0    0    0  501 -0.00000000000E+00  0.00000000000E+00  0.51798997893E+02  0.51798997893E+02  0.00000000000E+00 0.  1.
          1   -1    0    0  502    0  0.00000000000E+00 -0.00000000000E+00 -0.67461971918E+03  0.67461971918E+03  0.00000000000E+00 0. -1.
          6    1    1    2  502    0 -0.86420985385E+01 -0.72569713901E+02 -0.30281368201E+03  0.35583869275E+03  0.17200000000E+03 0. -1.
         -6    1    1    2    0  501  0.86420985385E+01  0.72569713901E+02 -0.32000703928E+03  0.37058002433E+03  0.17200000000E+03 0. -1.
<mgrwt>
<rscale>  2 0.18688245E+03</rscale>
<asrwt>0</asrwt>
<pdfrwt beam="1">  1        1 0.16865493E+00 0.18688245E+03</pdfrwt>
<pdfrwt beam="2">  1       -1 0.12949750E-01 0.18688245E+03</pdfrwt>
<totfact> 0.55831367E+02</totfact>
</mgrwt>
</event>
<event>
 4    1  0.3761914E-001  0.2823358E+03  0.7546771E-02  0.1094420E+00
          2   -1    0    0  502    0  0.00000000000E+00  0.00000000000E+00  0.63157205341E+03  0.63157205341E+03  0.00000000000E+00 0.  1.
         -2   -1    0    0    0  501 -0.00000000000E+00 -0.00000000000E+00 -0.12824085969E+03  0.12824085969E+03  0.00000000000E+00 0. -1.
          6    1    1    2  502    0 -0.19907116674E+03 -0.10247042690E+03  0.20390966190E+03  0.34827096927E+03  0.17200000000E+03 0.  1.
         -6    1    1    2    0  501  0.19907116674E+03  0.10247042690E+03  0.29942153182E+03  0.41154194383E+03  0.17200000000E+03 0. -1.
<mgrwt>
<rscale>  2 0.28233582E+03</rscale>
<asrwt>0</asrwt>
<pdfrwt beam="1">  1        2 0.15789301E+00 0.28233582E+03</pdfrwt>
<pdfrwt beam="2">  1       -2 0.32060217E-01 0.28233582E+03</pdfrwt>
<totfact> 0.23064344E+02</totfact>
</mgrwt>
</event>
<event>
 4    1  0.3761914E-001  0.1970158E+03  0.7546771E-02  0.1152281E+00
         -1   -1    0    0    0  501 -0.00000000000E+00  0.00000000000E+00  0.50847565642E+02  0.50847565642E+02  0.00000000000E+00 0. -1.
          1   -1    0    0  502    0  0.00000000000E+00 -0.00000000000E+00 -0.76355420066E+03  0.76355420066E+03  0.00000000000E+00 0.  1.
          6    1    1    2  502    0 -0.26201167131E+02  0.92437629476E+02 -0.36277499734E+03  0.41282068165E+03  0.17200000000E+03 0. -1.
         -6    1    1    2    0  501  0.26201167131E+02 -0.92437629476E+02 -0.34993163768E+03  0.40158108465E+03  0.17200000000E+03 0. -1.
<mgrwt>
<rscale>  2 0.19701578E+03</rscale>
<asrwt>0</asrwt>
<pdfrwt beam="1">  1        1 0.19088855E+00 0.19701578E+03</pdfrwt>
<pdfrwt beam="2">  1       -1 0.12711891E-01 0.19701578E+03</pdfrwt>
<totfact> 0.45478645E+02</totfact>
</mgrwt>
</event>
<event>
 4    1  0.3761914E-001  0.2088105E+03  0.7546771E-02  0.1142511E+00
         -2   -1    0    0    0  501 -0.00000000000E+00  0.00000000000E+00  0.96733906220E+02  0.96733906220E+02  0.00000000000E+00 0.  1.
          2   -1    0    0  502    0  0.00000000000E+00 -0.00000000000E+00 -0.45203783339E+03  0.45203783339E+03  0.00000000000E+00 0. -1.
          6    1    1    2  502    0  0.81210386652E+02 -0.86155132039E+02 -0.19235463653E+03  0.28390515999E+03  0.17200000000E+03 0.  1.
         -6    1    1    2    0  501 -0.81210386652E+02  0.86155132039E+02 -0.16294929064E+03  0.26486657962E+03  0.17200000000E+03 0. -1.
<mgrwt>
<rscale>  2 0.20881052E+03</rscale>
<asrwt>0</asrwt>
<pdfrwt beam="1">  1        2 0.11300946E+00 0.20881052E+03</pdfrwt>
<pdfrwt beam="2">  1       -2 0.24183477E-01 0.20881052E+03</pdfrwt>
<totfact> 0.60041826E+02</totfact>
</mgrwt>
</event>
<event>
 4    1  0.3761914E-001  0.1808401E+03  0.7546771E-02  0.1166992E+00
         -2   -1    0    0    0  501 -0.00000000000E+00  0.00000000000E+00  0.76541720957E+02  0.76541720957E+02  0.00000000000E+00 0.  1.
          2   -1    0    0  502    0  0.00000000000E+00 -0.00000000000E+00 -0.44271032780E+03  0.44271032780E+03  0.00000000000E+00 0. -1.
          6    1    1    2  502    0  0.52609004370E+02  0.18746497942E+02 -0.23158761764E+03  0.29382982008E+03  0.17200000000E+03 0. -1.
         -6    1    1    2    0  501 -0.52609004370E+02 -0.18746497942E+02 -0.13458098921E+03  0.22542222868E+03  0.17200000000E+03 0.  1.
<mgrwt>
<rscale>  2 0.18084009E+03</rscale>
<asrwt>0</asrwt>
<pdfrwt beam="1">  1        2 0.11067758E+00 0.18084009E+03</pdfrwt>
<pdfrwt beam="2">  1       -2 0.19135431E-01 0.18084009E+03</pdfrwt>
<totfact> 0.92250755E+02</totfact>
</mgrwt>
</event>
<event>
 4    1  0.3761914E-001  0.2066943E+03  0.7546771E-02  0.1144211E+00
         -1   -1    0    0    0  501 -0.00000000000E+00  0.00000000000E+00  0.52476273442E+02  0.52476273442E+02  0.00000000000E+00 0.  1.
          1   -1    0    0  502    0  0.00000000000E+00 -0.00000000000E+00 -0.87576396757E+03  0.87576396757E+03  0.00000000000E+00 0. -1.
          6    1    1    2  502    0 -0.24025197915E+02 -0.11207735378E+03 -0.28851931816E+03  0.35491680760E+03  0.17200000000E+03 0.  1.
         -6    1    1    2    0  501  0.24025197915E+02  0.11207735378E+03 -0.53476837597E+03  0.57332343342E+03  0.17200000000E+03 0.  1.
<mgrwt>
<rscale>  2 0.20669432E+03</rscale>
<asrwt>0</asrwt>
<pdfrwt beam="1">  1        1 0.21894099E+00 0.20669432E+03</pdfrwt>
<pdfrwt beam="2">  1       -1 0.13119069E-01 0.20669432E+03</pdfrwt>
<totfact> 0.32557093E+02</totfact>
</mgrwt>
</event>
<event>
 4    1  0.3761914E-001  0.2047327E+03  0.7546771E-02  0.1145806E+00
          1   -1    0    0  502    0  0.00000000000E+00  0.00000000000E+00  0.26033805874E+03  0.26033805874E+03  0.00000000000E+00 0.  1.
         -1   -1    0    0    0  501 -0.00000000000E+00 -0.00000000000E+00 -0.23677591032E+03  0.23677591032E+03  0.00000000000E+00 0. -1.
          6    1    1    2  502    0 -0.17947474812E+02  0.10958723040E+03  0.15238948088E+03  0.25522152496E+03  0.17200000000E+03 0.  1.
         -6    1    1    2    0  501  0.17947474812E+02 -0.10958723040E+03 -0.12882733247E+03  0.24189244410E+03  0.17200000000E+03 0. -1.
<mgrwt>
<rscale>  2 0.20473269E+03</rscale>
<asrwt>0</asrwt>
<pdfrwt beam="1">  1        1 0.65084515E-01 0.20473269E+03</pdfrwt>
<pdfrwt beam="2">  1       -1 0.59193978E-01 0.20473269E+03</pdfrwt>
<totfact> 0.17139650E+02</totfact>
</mgrwt>
</event>
<event>
 4    1  0.3761914E-001  0.2132444E+03  0.7546771E-02  0.1139022E+00
          1   -1    0    0  502    0  0.00000000000E+00  0.00000000000E+00  0.10965027332E+04  0.10965027332E+04  0.00000000000E+00 0. -1.
         -1   -1    0    0    0  501 -0.00000000000E+00 -0.00000000000E+00 -0.44215553273E+02  0.44215553273E+02  0.00000000000E+00 0.  1.
          6    1    1    2  502    0 -0.83364171427E+02  0.94549457474E+02  0.66824161433E+03  0.70144140176E+03  0.17200000000E+03 0. -1.
         -6    1    1    2    0  501  0.83364171427E+02 -0.94549457474E+02  0.38404556561E+03  0.43927688472E+03  0.17200000000E+03 0. -1.
<mgrwt>
<rscale>  2 0.21324443E+03</rscale>
<asrwt>0</asrwt>
<pdfrwt beam="1">  1        1 0.27412559E+00 0.21324443E+03</pdfrwt>
<pdfrwt beam="2">  1       -1 0.11053892E-01 0.21324443E+03</pdfrwt>
<totfact> 0.24761832E+02</totfact>
</mgrwt>
</event>
<event>
 4    1  0.3761914E-001  0.1770892E+03  0.7546771E-02  0.1170650E+00
         -1   -1    0    0    0  501 -0.00000000000E+00  0.00000000000E+00  0.68963564882E+02  0.68963564882E+02  0.00000000000E+00 0.  1.
          1   -1    0    0  502    0  0.00000000000E+00 -0.00000000000E+00 -0.45701066581E+03  0.45701066581E+03  0.00000000000E+00 0. -1.
          6    1    1    2  502    0 -0.25367325451E+02  0.33661271110E+02 -0.21255553188E+03  0.27665942331E+03  0.17200000000E+03 0.  1.
         -6    1    1    2    0  501  0.25367325451E+02 -0.33661271110E+02 -0.17549156904E+03  0.24931480738E+03  0.17200000000E+03 0. -1.
<mgrwt>
<rscale>  2 0.17708919E+03</rscale>
<asrwt>0</asrwt>
<pdfrwt beam="1">  1        1 0.11425266E+00 0.17708919E+03</pdfrwt>
<pdfrwt beam="2">  1       -1 0.17240892E-01 0.17708919E+03</pdfrwt>
<totfact> 0.66868083E+02</totfact>
</mgrwt>
</event>
<event>
 4    1  0.3761914E-001  0.1765562E+03  0.7546771E-02  0.1171178E+00
         -2   -1    0    0    0  501 -0.00000000000E+00  0.00000000000E+00  0.21611937413E+02  0.21611937413E+02  0.00000000000E+00 0.  1.
          2   -1    0    0  502    0  0.00000000000E+00 -0.00000000000E+00 -0.15849102676E+04  0.15849102676E+04  0.00000000000E+00 0. -1.
          6    1    1    2  502    0 -0.29750123161E+01  0.39739488731E+02 -0.54074371844E+03  0.56883727612E+03  0.17200000000E+03 0.  1.
         -6    1    1    2    0  501  0.29750123161E+01 -0.39739488731E+02 -0.10225546118E+04  0.10376849289E+04  0.17200000000E+03 0. -1.
<mgrwt>
<rscale>  2 0.17655616E+03</rscale>
<asrwt>0</asrwt>
<pdfrwt beam="1">  1        2 0.39622760E+00 0.17655616E+03</pdfrwt>
<pdfrwt beam="2">  1       -2 0.54029840E-02 0.17655616E+03</pdfrwt>
<totfact> 0.64820160E+02</totfact>
</mgrwt>
</event>
<event>
 4    1  0.3761914E-001  0.1920242E+03  0.7546771E-02  0.1156648E+00
         -2   -1    0    0    0  501 -0.00000000000E+00  0.00000000000E+00  0.19033132959E+03  0.19033132959E+03  0.00000000000E+00 0. -1.
          2   -1    0    0  502    0  0.00000000000E+00 -0.00000000000E+00 -0.21320399611E+03  0.21320399611E+03  0.00000000000E+00 0.  1.
          6    1    1    2  502    0  0.85052327359E+02 -0.74429899009E+01 -0.72412136228E+02  0.20522381431E+03  0.17200000000E+03 0.  1.
         -6    1    1    2    0  501 -0.85052327359E+02  0.74429899009E+01  0.49539469705E+02  0.19831151138E+03  0.17200000000E+03 0. -1.
<mgrwt>
<rscale>  2 0.19202421E+03</rscale>
<asrwt>0</asrwt>
<pdfrwt beam="1">  1        2 0.53300999E-01 0.19202421E+03</pdfrwt>
<pdfrwt beam="2">  1       -2 0.47582833E-01 0.19202421E+03</pdfrwt>
<totfact> 0.39933441E+02</totfact>
</mgrwt>
</event>
<event>
 4    1  0.3761914E-001  0.1739860E+03  0.7546771E-02  0.1173754E+00
          2   -1    0    0  502    0  0.00000000000E+00  0.00000000000E+00  0.89837400282E+03  0.89837400282E+03  0.00000000000E+00 0. -1.
         -2   -1    0    0    0  501 -0.00000000000E+00 -0.00000000000E+00 -0.60723696563E+02  0.60723696563E+02  0.00000000000E+00 0.  1.
          6    1    1    2  502    0  0.24297598362E+01  0.26100064455E+02  0.73876083708E+03  0.75897212827E+03  0.17200000000E+03 0. -1.
         -6    1    1    2    0  501 -0.24297598362E+01 -0.26100064455E+02  0.98889469183E+02  0.20012557111E+03  0.17200000000E+03 0.  1.
<mgrwt>
<rscale>  2 0.17398597E+03</rscale>
<asrwt>0</asrwt>
<pdfrwt beam="1">  1        2 0.22459346E+00 0.17398597E+03</pdfrwt>
<pdfrwt beam="2">  1       -2 0.15180927E-01 0.17398597E+03</pdfrwt>
<totfact> 0.49095414E+02</totfact>
</mgrwt>
</event>
<event>
 4    1  0.3761914E-001  0.2473201E+03  0.7546771E-02  0.1115010E+00
          2   -1    0    0  502    0  0.00000000000E+00  0.00000000000E+00  0.40782228312E+03  0.40782228312E+03  0.00000000000E+00 0.  1.
         -2   -1    0    0    0  501 -0.00000000000E+00 -0.00000000000E+00 -0.16124591198E+03  0.16124591198E+03  0.00000000000E+00 0. -1.
          6    1    1    2  502    0 -0.72856031345E+02 -0.16209631048E+03  0.48095219820E+02  0.25195310148E+03  0.17200000000E+03 0. -1.
         -6    1    1    2    0  501  0.72856031345E+02  0.16209631048E+03  0.19848115132E+03  0.31711509363E+03  0.17200000000E+03 0.  1.
<mgrwt>
<rscale>  2 0.24732007E+03</rscale>
<asrwt>0</asrwt>
<pdfrwt beam="1">  1        2 0.10195557E+00 0.24732007E+03</pdfrwt>
<pdfrwt beam="2">  1       -2 0.40311479E-01 0.24732007E+03</pdfrwt>
<totfact> 0.26602208E+02</totfact>
</mgrwt>
</event>
<event>
 4    1  0.3761914E-001  0.3050018E+03  0.7546771E-02  0.1082767E+00
         -2   -1    0    0    0  501 -0.00000000000E+00  0.00000000000E+00  0.37459924947E+03  0.37459924947E+03  0.00000000000E+00 0. -1.
          2   -1    0    0  502    0  0.00000000000E+00 -0.00000000000E+00 -0.25149875415E+03  0.25149875415E+03  0.00000000000E+00 0.  1.
          6    1    1    2  502    0 -0.20212199549E+03 -0.15029577734E+03  0.96661201616E+02  0.31995235527E+03  0.17200000000E+03 0.  1.
         -6    1    1    2    0  501  0.20212199549E+03  0.15029577734E+03  0.26439293700E+02  0.30614564834E+03  0.17200000000E+03 0. -1.
<mgrwt>
<rscale>  2 0.30500184E+03</rscale>
<asrwt>0</asrwt>
<pdfrwt beam="1">  1        2 0.62874689E-01 0.30500184E+03</pdfrwt>
<pdfrwt beam="2">  1       -2 0.93649812E-01 0.30500184E+03</pdfrwt>
<totfact> 0.78325090E+01</totfact>
</mgrwt>
</event>
<event>
 4    1  0.3761914E-001  0.1727041E+03  0.7546771E-02  0.1175057E+00
         -2   -1    0    0    0  501 -0.00000000000E+00  0.00000000000E+00  0.93613200412E+02  0.93613200412E+02  0.00000000000E+00 0.  1.
          2   -1    0    0  502    0  0.00000000000E+00 -0.00000000000E+00 -0.33238786028E+03  0.33238786028E+03  0.00000000000E+00 0. -1.
          6    1    1    2  502    0 -0.20266763172E+01  0.15446623160E+02 -0.76031518656E+02  0.18869948970E+03  0.17200000000E+03 0.  1.
         -6    1    1    2    0  501  0.20266763172E+01 -0.15446623160E+02 -0.16274314121E+03  0.23730157099E+03  0.17200000000E+03 0. -1.
<mgrwt>
<rscale>  2 0.17270410E+03</rscale>
<asrwt>0</asrwt>
<pdfrwt beam="1">  1        2 0.83096964E-01 0.17270410E+03</pdfrwt>
<pdfrwt beam="2">  1       -2 0.23403300E-01 0.17270410E+03</pdfrwt>
<totfact> 0.91126553E+02</totfact>
</mgrwt>
</event>
<event>
 4    1  0.3761914E-001  0.2142687E+03  0.7546771E-02  0.1138230E+00
         -2   -1    0    0    0  501 -0.00000000000E+00  0.00000000000E+00  0.35194996897E+02  0.35194996897E+02  0.00000000000E+00 0.  1.
          2   -1    0    0  502    0  0.00000000000E+00 -0.00000000000E+00 -0.13101476119E+04  0.13101476119E+04  0.00000000000E+00 0. -1.
          6    1    1    2  502    0  0.79160134145E+02  0.10030337263E+03 -0.68172757612E+03  0.71460729177E+03  0.17200000000E+03 0.  1.
         -6    1    1    2    0  501 -0.79160134145E+02 -0.10030337263E+03 -0.59322503892E+03  0.63073531707E+03  0.17200000000E+03 0. -1.
<mgrwt>
<rscale>  2 0.21426874E+03</rscale>
<asrwt>0</asrwt>
<pdfrwt beam="1">  1        2 0.32753687E+00 0.21426874E+03</pdfrwt>
<pdfrwt beam="2">  1       -2 0.87987502E-02 0.21426874E+03</pdfrwt>
<totfact> 0.52342717E+02</totfact>
</mgrwt>
</event>
<event>
 4    1  0.3761914E-001  0.3556247E+03  0.7546771E-02  0.1060330E+00
         -2   -1    0    0    0  501 -0.00000000000E+00  0.00000000000E+00  0.38378565355E+03  0.38378565355E+03  0.00000000000E+00 0. -1.
          2   -1    0    0  502    0  0.00000000000E+00 -0.00000000000E+00 -0.33237263783E+03  0.33237263783E+03  0.00000000000E+00 0.  1.
          6    1    1    2  502    0  0.18984227988E+03 -0.24666747590E+03  0.58820955279E+02  0.36045643243E+03  0.17200000000E+03 0.  1.
         -6    1    1    2    0  501 -0.18984227988E+03  0.24666747590E+03 -0.74079395644E+01  0.35570185896E+03  0.17200000000E+03 0. -1.
<mgrwt>
<rscale>  2 0.35562471E+03</rscale>
<asrwt>0</asrwt>
<pdfrwt beam="1">  1        2 0.83093159E-01 0.35562471E+03</pdfrwt>
<pdfrwt beam="2">  1       -2 0.95946413E-01 0.35562471E+03</pdfrwt>
<totfact> 0.53799006E+01</totfact>
</mgrwt>
</event>
<event>
 4    1  0.3761914E-001  0.1779305E+03  0.7546771E-02  0.1169821E+00
         -1   -1    0    0    0  501 -0.00000000000E+00  0.00000000000E+00  0.15787852740E+03  0.15787852740E+03  0.00000000000E+00 0.  1.
          1   -1    0    0  502    0  0.00000000000E+00 -0.00000000000E+00 -0.23308197228E+03  0.23308197228E+03  0.00000000000E+00 0. -1.
          6    1    1    2  502    0  0.10284255873E+01 -0.45543361886E+02 -0.11065547088E+03  0.20953254809E+03  0.17200000000E+03 0. -1.
         -6    1    1    2    0  501 -0.10284255873E+01  0.45543361886E+02  0.35452026010E+02  0.18142795159E+03  0.17200000000E+03 0.  1.
<mgrwt>
<rscale>  2 0.17793048E+03</rscale>
<asrwt>0</asrwt>
<pdfrwt beam="1">  1        1 0.58270493E-01 0.17793048E+03</pdfrwt>
<pdfrwt beam="2">  1       -1 0.39469632E-01 0.17793048E+03</pdfrwt>
<totfact> 0.41582796E+02</totfact>
</mgrwt>
</event>
<event>
 4    1  0.3761914E-001  0.1804575E+03  0.7546771E-02  0.1167361E+00
         -2   -1    0    0    0  501 -0.00000000000E+00  0.00000000000E+00  0.14931404877E+03  0.14931404877E+03  0.00000000000E+00 0.  1.
          2   -1    0    0  502    0  0.00000000000E+00 -0.00000000000E+00 -0.83484579415E+03  0.83484579415E+03  0.00000000000E+00 0. -1.
          6    1    1    2  502    0 -0.53237532493E+02 -0.12111295004E+02  0.80181890892E+02  0.19746912153E+03  0.17200000000E+03 0.  1.
         -6    1    1    2    0  501  0.53237532493E+02  0.12111295004E+02 -0.76571363627E+03  0.78669072138E+03  0.17200000000E+03 0. -1.
<mgrwt>
<rscale>  2 0.18045753E+03</rscale>
<asrwt>0</asrwt>
<pdfrwt beam="1">  1        2 0.20871145E+00 0.18045753E+03</pdfrwt>
<pdfrwt beam="2">  1       -2 0.37328513E-01 0.18045753E+03</pdfrwt>
<totfact> 0.11525320E+02</totfact>
</mgrwt>
</event>
<event>
 4    1  0.3761914E-001  0.1857847E+03  0.7546771E-02  0.1162319E+00
          1   -1    0    0  502    0  0.00000000000E+00  0.00000000000E+00  0.64392133887E+02  0.64392133887E+02  0.00000000000E+00 0. -1.
         -1   -1    0    0    0  501 -0.00000000000E+00 -0.00000000000E+00 -0.55309408505E+03  0.55309408505E+03  0.00000000000E+00 0.  1.
          6    1    1    2  502    0  0.52420467480E+02 -0.46733896090E+02 -0.19011724004E+03  0.26582047968E+03  0.17200000000E+03 0.  1.
         -6    1    1    2    0  501 -0.52420467480E+02  0.46733896090E+02 -0.29858471112E+03  0.35166573926E+03  0.17200000000E+03 0. -1.
<mgrwt>
<rscale>  2 0.18578472E+03</rscale>
<asrwt>0</asrwt>
<pdfrwt beam="1">  1        1 0.16098034E-01 0.18578472E+03</pdfrwt>
<pdfrwt beam="2">  1       -1 0.13827352E+00 0.18578472E+03</pdfrwt>
<totfact> 0.16051270E+02</totfact>
</mgrwt>
</event>
<event>
 4    1  0.3761914E-001  0.1737457E+03  0.7546771E-02  0.1173997E+00
          1   -1    0    0  502    0  0.00000000000E+00  0.00000000000E+00  0.69181815966E+03  0.69181815966E+03  0.00000000000E+00 0. -1.
         -1   -1    0    0    0  501 -0.00000000000E+00 -0.00000000000E+00 -0.45976196107E+02  0.45976196107E+02  0.00000000000E+00 0.  1.
          6    1    1    2  502    0 -0.23328328230E+02 -0.77049110512E+01  0.23967840990E+03  0.29602924978E+03  0.17200000000E+03 0.  1.
         -6    1    1    2    0  501  0.23328328230E+02  0.77049110512E+01  0.40616355366E+03  0.44176510599E+03  0.17200000000E+03 0. -1.
<mgrwt>
<rscale>  2 0.17374572E+03</rscale>
<asrwt>0</asrwt>
<pdfrwt beam="1">  1        1 0.17295451E+00 0.17374572E+03</pdfrwt>
<pdfrwt beam="2">  1       -1 0.11494051E-01 0.17374572E+03</pdfrwt>
<totfact> 0.64302145E+02</totfact>
</mgrwt>
</event>
<event>
 4    1  0.3761914E-001  0.1754404E+03  0.7546771E-02  0.1172290E+00
          1   -1    0    0  502    0  0.00000000000E+00  0.00000000000E+00  0.54410072811E+03  0.54410072811E+03  0.00000000000E+00 0.  1.
         -1   -1    0    0    0  501 -0.00000000000E+00 -0.00000000000E+00 -0.58334900135E+02  0.58334900135E+02  0.00000000000E+00 0. -1.
          6    1    1    2  502    0  0.28812959043E+02  0.19109219221E+02  0.29528801367E+03  0.34347395809E+03  0.17200000000E+03 0.  1.
         -6    1    1    2    0  501 -0.28812959043E+02 -0.19109219221E+02  0.19047781431E+03  0.25896167016E+03  0.17200000000E+03 0. -1.
<mgrwt>
<rscale>  2 0.17544044E+03</rscale>
<asrwt>0</asrwt>
<pdfrwt beam="1">  1        1 0.13602517E+00 0.17544044E+03</pdfrwt>
<pdfrwt beam="2">  1       -1 0.14583727E-01 0.17544044E+03</pdfrwt>
<totfact> 0.66739867E+02</totfact>
</mgrwt>
</event>
<event>
 4    1  0.3761914E-001  0.2859474E+03  0.7546771E-02  0.1092484E+00
         -2   -1    0    0    0  501 -0.00000000000E+00  0.00000000000E+00  0.91398550245E+03  0.91398550245E+03  0.00000000000E+00 0. -1.
          2   -1    0    0  502    0  0.00000000000E+00 -0.00000000000E+00 -0.94417083528E+02  0.94417083528E+02  0.00000000000E+00 0.  1.
          6    1    1    2  502    0  0.41680947137E+02 -0.22459876778E+03  0.52530366270E+03  0.59808849336E+03  0.17200000000E+03 0. -1.
         -6    1    1    2    0  501 -0.41680947137E+02  0.22459876778E+03  0.29426475622E+03  0.41031409261E+03  0.17200000000E+03 0. -1.
<mgrwt>
<rscale>  2 0.28594739E+03</rscale>
<asrwt>0</asrwt>
<pdfrwt beam="1">  1        2 0.23604274E-01 0.28594739E+03</pdfrwt>
<pdfrwt beam="2">  1       -2 0.22849635E+00 0.28594739E+03</pdfrwt>
<totfact> 0.22129906E+01</totfact>
</mgrwt>
</event>
<event>
 4    1  0.3761914E-001  0.2582776E+03  0.7546771E-02  0.1108183E+00
          1   -1    0    0  502    0  0.00000000000E+00  0.00000000000E+00  0.99105035654E+03  0.99105035654E+03  0.00000000000E+00 0. -1.
         -1   -1    0    0    0  501 -0.00000000000E+00 -0.00000000000E+00 -0.75536787812E+02  0.75536787812E+02  0.00000000000E+00 0.  1.
          6    1    1    2  502    0  0.19251043977E+03  0.79390148630E+01  0.28175774909E+03  0.38222339875E+03  0.17200000000E+03 0.  1.
         -6    1    1    2    0  501 -0.19251043977E+03 -0.79390148630E+01  0.63375581963E+03  0.68436374560E+03  0.17200000000E+03 0. -1.
<mgrwt>
<rscale>  2 0.25827756E+03</rscale>
<asrwt>0</asrwt>
<pdfrwt beam="1">  1        1 0.24776255E+00 0.25827756E+03</pdfrwt>
<pdfrwt beam="2">  1       -1 0.18884200E-01 0.25827756E+03</pdfrwt>
<totfact> 0.13544926E+02</totfact>
</mgrwt>
</event>
<event>
 4    1  0.3761914E-001  0.2140698E+03  0.7546771E-02  0.1138383E+00
         -1   -1    0    0    0  501 -0.00000000000E+00  0.00000000000E+00  0.85117434479E+02  0.85117434479E+02  0.00000000000E+00 0. -1.
          1   -1    0    0  502    0  0.00000000000E+00 -0.00000000000E+00 -0.11576617351E+04  0.11576617351E+04  0.00000000000E+00 0.  1.
          6    1    1    2  502    0 -0.10541212484E+03 -0.71625157356E+02 -0.99075322610E+03  0.10136162164E+04  0.17200000000E+03 0.  1.
         -6    1    1    2    0  501  0.10541212484E+03  0.71625157356E+02 -0.81791074570E+02  0.22916295318E+03  0.17200000000E+03 0. -1.
<mgrwt>
<rscale>  2 0.21406980E+03</rscale>
<asrwt>0</asrwt>
<pdfrwt beam="1">  1        1 0.28941543E+00 0.21406980E+03</pdfrwt>
<pdfrwt beam="2">  1       -1 0.21279359E-01 0.21406980E+03</pdfrwt>
<totfact> 0.75428674E+01</totfact>
</mgrwt>
</event>
<event>
 4    1  0.3761914E-001  0.2526045E+03  0.7546771E-02  0.1111670E+00
         -2   -1    0    0    0  501 -0.00000000000E+00  0.00000000000E+00  0.61885194976E+02  0.61885194976E+02  0.00000000000E+00 0. -1.
          2   -1    0    0  502    0  0.00000000000E+00 -0.00000000000E+00 -0.12305758754E+04  0.12305758754E+04  0.00000000000E+00 0.  1.
          6    1    1    2  502    0 -0.15941235890E+03  0.93876073672E+02 -0.84453657641E+03  0.88150498936E+03  0.17200000000E+03 0.  1.
         -6    1    1    2    0  501  0.15941235890E+03 -0.93876073672E+02 -0.32415410405E+03  0.41095608105E+03  0.17200000000E+03 0. -1.
<mgrwt>
<rscale>  2 0.25260447E+03</rscale>
<asrwt>0</asrwt>
<pdfrwt beam="1">  1        2 0.30764397E+00 0.25260447E+03</pdfrwt>
<pdfrwt beam="2">  1       -2 0.15471299E-01 0.25260447E+03</pdfrwt>
<totfact> 0.24385067E+02</totfact>
</mgrwt>
</event>
<event>
 4    1  0.3761914E-001  0.1726670E+03  0.7546771E-02  0.1175095E+00
          4   -1    0    0  502    0  0.00000000000E+00  0.00000000000E+00  0.15103931757E+03  0.15103931757E+03  0.00000000000E+00 0. -1.
         -4   -1    0    0    0  501 -0.00000000000E+00 -0.00000000000E+00 -0.29993328126E+03  0.29993328126E+03  0.00000000000E+00 0.  1.
          6    1    1    2  502    0  0.10618204188E+02  0.10824073571E+02 -0.20629021565E+03  0.26901591013E+03  0.17200000000E+03 0.  1.
         -6    1    1    2    0  501 -0.10618204188E+02 -0.10824073571E+02  0.57396251957E+02  0.18195668871E+03  0.17200000000E+03 0. -1.
<mgrwt>
<rscale>  2 0.17266704E+03</rscale>
<asrwt>0</asrwt>
<pdfrwt beam="1">  1        4 0.37759830E-01 0.17266704E+03</pdfrwt>
<pdfrwt beam="2">  1       -4 0.74983320E-01 0.17266704E+03</pdfrwt>
<totfact> 0.19525742E+01</totfact>
</mgrwt>
</event>
<event>
 4    1  0.3761914E-001  0.3243795E+03  0.7546771E-02  0.1073651E+00
          1   -1    0    0  502    0  0.00000000000E+00  0.00000000000E+00  0.37507118193E+03  0.37507118193E+03  0.00000000000E+00 0.  1.
         -1   -1    0    0    0  501 -0.00000000000E+00 -0.00000000000E+00 -0.29367769955E+03  0.29367769955E+03  0.00000000000E+00 0. -1.
          6    1    1    2  502    0 -0.11090644764E+03 -0.25167009994E+03  0.11142198262E+03  0.34298241579E+03  0.17200000000E+03 0.  1.
         -6    1    1    2    0  501  0.11090644764E+03  0.25167009994E+03 -0.30028500240E+02  0.32576646568E+03  0.17200000000E+03 0. -1.
<mgrwt>
<rscale>  2 0.32437953E+03</rscale>
<asrwt>0</asrwt>
<pdfrwt beam="1">  1        1 0.93767795E-01 0.32437953E+03</pdfrwt>
<pdfrwt beam="2">  1       -1 0.73419425E-01 0.32437953E+03</pdfrwt>
<totfact> 0.67202995E+01</totfact>
</mgrwt>
</event>
<event>
 4    1  0.3761914E-001  0.2012209E+03  0.7546771E-02  0.1148713E+00
          2   -1    0    0  502    0  0.00000000000E+00  0.00000000000E+00  0.19467874221E+04  0.19467874221E+04  0.00000000000E+00 0. -1.
         -2   -1    0    0    0  501 -0.00000000000E+00 -0.00000000000E+00 -0.21491273013E+02  0.21491273013E+02  0.00000000000E+00 0.  1.
          6    1    1    2  502    0  0.95651822267E+02  0.41911352015E+02  0.78592651693E+03  0.81127697030E+03  0.17200000000E+03 0.  1.
         -6    1    1    2    0  501 -0.95651822267E+02 -0.41911352015E+02  0.11393696321E+04  0.11570017248E+04  0.17200000000E+03 0.  1.
<mgrwt>
<rscale>  2 0.20122086E+03</rscale>
<asrwt>0</asrwt>
<pdfrwt beam="1">  1        2 0.48669626E+00 0.20122086E+03</pdfrwt>
<pdfrwt beam="2">  1       -2 0.53728249E-02 0.20122086E+03</pdfrwt>
<totfact> 0.29839019E+02</totfact>
</mgrwt>
</event>
<event>
 4    1  0.3761914E-001  0.1965642E+03  0.7546771E-02  0.1152671E+00
         -1   -1    0    0    0  501 -0.00000000000E+00  0.00000000000E+00  0.17462566669E+03  0.17462566669E+03  0.00000000000E+00 0.  1.
          1   -1    0    0  502    0  0.00000000000E+00 -0.00000000000E+00 -0.22835270365E+03  0.22835270365E+03  0.00000000000E+00 0. -1.
          6    1    1    2  502    0  0.55766578419E+02  0.77094651893E+02  0.86493573214E+01  0.19675443578E+03  0.17200000000E+03 0. -1.
         -6    1    1    2    0  501 -0.55766578419E+02 -0.77094651893E+02 -0.62376394278E+02  0.20622393455E+03  0.17200000000E+03 0. -1.
<mgrwt>
<rscale>  2 0.19656423E+03</rscale>
<asrwt>0</asrwt>
<pdfrwt beam="1">  1        1 0.57088176E-01 0.19656423E+03</pdfrwt>
<pdfrwt beam="2">  1       -1 0.43656417E-01 0.19656423E+03</pdfrwt>
<totfact> 0.35626931E+02</totfact>
</mgrwt>
</event>
<event>
 4    1  0.3761914E-001  0.1942492E+03  0.7546771E-02  0.1154684E+00
         -1   -1    0    0    0  501 -0.00000000000E+00  0.00000000000E+00  0.16109014468E+03  0.16109014468E+03  0.00000000000E+00 0. -1.
          1   -1    0    0  502    0  0.00000000000E+00 -0.00000000000E+00 -0.24851277557E+03  0.24851277557E+03  0.00000000000E+00 0.  1.
          6    1    1    2  502    0 -0.71533648482E+02 -0.55060848062E+02  0.53802542685E+01  0.19432371700E+03  0.17200000000E+03 0. -1.
         -6    1    1    2    0  501  0.71533648482E+02  0.55060848062E+02 -0.92802885158E+02  0.21527920324E+03  0.17200000000E+03 0.  1.
<mgrwt>
<rscale>  2 0.19424922E+03</rscale>
<asrwt>0</asrwt>
<pdfrwt beam="1">  1        1 0.62128193E-01 0.19424922E+03</pdfrwt>
<pdfrwt beam="2">  1       -1 0.40272536E-01 0.19424922E+03</pdfrwt>
<totfact> 0.36949310E+02</totfact>
</mgrwt>
</event>
<event>
 4    1  0.3761914E-001  0.2404532E+03  0.7546771E-02  0.1119491E+00
          1   -1    0    0  502    0  0.00000000000E+00  0.00000000000E+00  0.72491544083E+03  0.72491544083E+03  0.00000000000E+00 0. -1.
         -1   -1    0    0    0  501 -0.00000000000E+00 -0.00000000000E+00 -0.80628686092E+02  0.80628686092E+02  0.00000000000E+00 0.  1.
          6    1    1    2  502    0  0.16794153831E+03  0.54225934179E+01  0.28028721277E+03  0.36929485029E+03  0.17200000000E+03 0. -1.
         -6    1    1    2    0  501 -0.16794153831E+03 -0.54225934179E+01  0.36399954196E+03  0.43624927663E+03  0.17200000000E+03 0.  1.
<mgrwt>
<rscale>  2 0.24045325E+03</rscale>
<asrwt>0</asrwt>
<pdfrwt beam="1">  1        1 0.18122884E+00 0.24045325E+03</pdfrwt>
<pdfrwt beam="2">  1       -1 0.20157174E-01 0.24045325E+03</pdfrwt>
<totfact> 0.23933373E+02</totfact>
</mgrwt>
</event>
<event>
 4    1  0.3761914E-001  0.1830026E+03  0.7546771E-02  0.1164928E+00
         -2   -1    0    0    0  501 -0.00000000000E+00  0.00000000000E+00  0.26165259521E+02  0.26165259521E+02  0.00000000000E+00 0. -1.
          2   -1    0    0  502    0  0.00000000000E+00 -0.00000000000E+00 -0.12887086447E+04  0.12887086447E+04  0.00000000000E+00 0.  1.
          6    1    1    2  502    0  0.47009198100E+02  0.41183464701E+02 -0.57703893171E+03  0.60536259480E+03  0.17200000000E+03 0.  1.
         -6    1    1    2    0  501 -0.47009198100E+02 -0.41183464701E+02 -0.68550445342E+03  0.70951130937E+03  0.17200000000E+03 0. -1.
<mgrwt>
<rscale>  2 0.18300258E+03</rscale>
<asrwt>0</asrwt>
<pdfrwt beam="1">  1        2 0.32217715E+00 0.18300258E+03</pdfrwt>
<pdfrwt beam="2">  1       -2 0.65413151E-02 0.18300258E+03</pdfrwt>
<totfact> 0.87069134E+02</totfact>
</mgrwt>
</event>
<event>
 4    1  0.3761914E-001  0.2354754E+03  0.7546771E-02  0.1122844E+00
          1   -1    0    0  502    0  0.00000000000E+00  0.00000000000E+00  0.64982115886E+03  0.64982115886E+03  0.00000000000E+00 0. -1.
         -1   -1    0    0    0  501 -0.00000000000E+00 -0.00000000000E+00 -0.10729685569E+03  0.10729685569E+03  0.00000000000E+00 0.  1.
          6    1    1    2  502    0  0.57862941299E+02  0.15005514906E+03  0.44255243673E+03  0.50129963793E+03  0.17200000000E+03 0. -1.
         -6    1    1    2    0  501 -0.57862941299E+02 -0.15005514906E+03  0.99971866440E+02  0.25581837661E+03  0.17200000000E+03 0.  1.
<mgrwt>
<rscale>  2 0.23547541E+03</rscale>
<asrwt>0</asrwt>
<pdfrwt beam="1">  1        1 0.16245528E+00 0.23547541E+03</pdfrwt>
<pdfrwt beam="2">  1       -1 0.26824216E-01 0.23547541E+03</pdfrwt>
<totfact> 0.18267429E+02</totfact>
</mgrwt>
</event>
<event>
 4    1  0.3761914E-001  0.2293702E+03  0.7546771E-02  0.1127084E+00
         -1   -1    0    0    0  501 -0.00000000000E+00  0.00000000000E+00  0.23054670850E+03  0.23054670850E+03  0.00000000000E+00 0. -1.
          1   -1    0    0  502    0  0.00000000000E+00 -0.00000000000E+00 -0.25418619304E+03  0.25418619304E+03  0.00000000000E+00 0.  1.
          6    1    1    2  502    0 -0.12551051500E+03  0.85286483850E+02  0.65674768721E+02  0.23858719360E+03  0.17200000000E+03 0. -1.
         -6    1    1    2    0  501  0.12551051500E+03 -0.85286483850E+02 -0.89314253257E+02  0.24614570794E+03  0.17200000000E+03 0.  1.
<mgrwt>
<rscale>  2 0.22937017E+03</rscale>
<asrwt>0</asrwt>
<pdfrwt beam="1">  1        1 0.63546548E-01 0.22937017E+03</pdfrwt>
<pdfrwt beam="2">  1       -1 0.57636678E-01 0.22937017E+03</pdfrwt>
<totfact> 0.18528775E+02</totfact>
</mgrwt>
</event>
<event>
 4    1  0.3761914E-001  0.1844610E+03  0.7546771E-02  0.1163554E+00
          2   -1    0    0  502    0  0.00000000000E+00  0.00000000000E+00  0.17887591263E+03  0.17887591263E+03  0.00000000000E+00 0.  1.
         -2   -1    0    0    0  501 -0.00000000000E+00 -0.00000000000E+00 -0.21583519216E+03  0.21583519216E+03  0.00000000000E+00 0. -1.
          6    1    1    2  502    0  0.64179267664E+02  0.17968846681E+02 -0.86467778985E+02  0.20372170884E+03  0.17200000000E+03 0. -1.
         -6    1    1    2    0  501 -0.64179267664E+02 -0.17968846681E+02  0.49508499454E+02  0.19098939595E+03  0.17200000000E+03 0.  1.
<mgrwt>
<rscale>  2 0.18446099E+03</rscale>
<asrwt>0</asrwt>
<pdfrwt beam="1">  1        2 0.44718978E-01 0.18446099E+03</pdfrwt>
<pdfrwt beam="2">  1       -2 0.53958798E-01 0.18446099E+03</pdfrwt>
<totfact> 0.37505726E+02</totfact>
</mgrwt>
</event>
<event>
 4    1  0.3761914E-001  0.1797556E+03  0.7546771E-02  0.1168040E+00
          2   -1    0    0  502    0  0.00000000000E+00  0.00000000000E+00  0.96520886650E+02  0.96520886650E+02  0.00000000000E+00 0. -1.
         -2   -1    0    0    0  501 -0.00000000000E+00 -0.00000000000E+00 -0.38279555127E+03  0.38279555127E+03  0.00000000000E+00 0.  1.
          6    1    1    2  502    0  0.19338636072E+02 -0.48519145777E+02 -0.22802698496E+03  0.29035908152E+03  0.17200000000E+03 0.  1.
         -6    1    1    2    0  501 -0.19338636072E+02  0.48519145777E+02 -0.58247679663E+02  0.18895735640E+03  0.17200000000E+03 0. -1.
<mgrwt>
<rscale>  2 0.17975564E+03</rscale>
<asrwt>0</asrwt>
<pdfrwt beam="1">  1        2 0.24130222E-01 0.17975564E+03</pdfrwt>
<pdfrwt beam="2">  1       -2 0.95698887E-01 0.17975564E+03</pdfrwt>
<totfact> 0.21415313E+02</totfact>
</mgrwt>
</event>
<event>
 4    1  0.3761914E-001  0.1799557E+03  0.7546771E-02  0.1167846E+00
          1   -1    0    0  502    0  0.00000000000E+00  0.00000000000E+00  0.54742567342E+03  0.54742567342E+03  0.00000000000E+00 0.  1.
         -1   -1    0    0    0  501 -0.00000000000E+00 -0.00000000000E+00 -0.60111751459E+02  0.60111751459E+02  0.00000000000E+00 0. -1.
          6    1    1    2  502    0  0.44414188222E+02 -0.28765379357E+02  0.20537397789E+03  0.27306141793E+03  0.17200000000E+03 0. -1.
         -6    1    1    2    0  501 -0.44414188222E+02  0.28765379357E+02  0.28193994407E+03  0.33447600695E+03  0.17200000000E+03 0.  1.
<mgrwt>
<rscale>  2 0.17995574E+03</rscale>
<asrwt>0</asrwt>
<pdfrwt beam="1">  1        1 0.13685640E+00 0.17995574E+03</pdfrwt>
<pdfrwt beam="2">  1       -1 0.15027940E-01 0.17995574E+03</pdfrwt>
<totfact> 0.63020289E+02</totfact>
</mgrwt>
</event>
<event>
 4    1  0.3761914E-001  0.1960695E+03  0.7546771E-02  0.1153098E+00
          2   -1    0    0  502    0  0.00000000000E+00  0.00000000000E+00  0.42931866787E+03  0.42931866787E+03  0.00000000000E+00 0.  1.
         -2   -1    0    0    0  501 -0.00000000000E+00 -0.00000000000E+00 -0.89739900408E+02  0.89739900408E+02  0.00000000000E+00 0. -1.
          6    1    1    2  502    0  0.85527192832E+02 -0.39298051784E+02  0.18189162648E+03  0.26744681971E+03  0.17200000000E+03 0.  1.
         -6    1    1    2    0  501 -0.85527192832E+02  0.39298051784E+02  0.15768714098E+03  0.25161174857E+03  0.17200000000E+03 0. -1.
<mgrwt>
<rscale>  2 0.19606947E+03</rscale>
<asrwt>0</asrwt>
<pdfrwt beam="1">  1        2 0.10732966E+00 0.19606947E+03</pdfrwt>
<pdfrwt beam="2">  1       -2 0.22434976E-01 0.19606947E+03</pdfrwt>
<totfact> 0.72894462E+02</totfact>
</mgrwt>
</event>
<event>
 4    1  0.3761914E-001  0.2396670E+03  0.7546771E-02  0.1120015E+00
          2   -1    0    0  502    0  0.00000000000E+00  0.00000000000E+00  0.13825050877E+04  0.13825050877E+04  0.00000000000E+00 0.  1.
         -2   -1    0    0    0  501 -0.00000000000E+00 -0.00000000000E+00 -0.65175430134E+02  0.65175430134E+02  0.00000000000E+00 0. -1.
          6    1    1    2  502    0  0.85698677362E+02 -0.14322013940E+03  0.22284262161E+03  0.32725999700E+03  0.17200000000E+03 0. -1.
         -6    1    1    2    0  501 -0.85698677362E+02  0.14322013940E+03  0.10944870359E+04  0.11204205208E+04  0.17200000000E+03 0.  1.
<mgrwt>
<rscale>  2 0.23966700E+03</rscale>
<asrwt>0</asrwt>
<pdfrwt beam="1">  1        2 0.34562618E+00 0.23966700E+03</pdfrwt>
<pdfrwt beam="2">  1       -2 0.16293862E-01 0.23966700E+03</pdfrwt>
<totfact> 0.16630333E+02</totfact>
</mgrwt>
</event>
<event>
 4    1  0.3761914E-001  0.2926687E+03  0.7546771E-02  0.1088964E+00
         -1   -1    0    0    0  501 -0.00000000000E+00  0.00000000000E+00  0.20670851401E+03  0.20670851401E+03  0.00000000000E+00 0.  1.
          1   -1    0    0  502    0  0.00000000000E+00 -0.00000000000E+00 -0.45263119741E+03  0.45263119741E+03  0.00000000000E+00 0. -1.
          6    1    1    2  502    0 -0.80011470146E+02  0.22286574207E+03 -0.27119705278E+02  0.29392252850E+03  0.17200000000E+03 0.  1.
         -6    1    1    2    0  501  0.80011470146E+02 -0.22286574207E+03 -0.21880297812E+03  0.36541718293E+03  0.17200000000E+03 0.  1.
<mgrwt>
<rscale>  2 0.29266871E+03</rscale>
<asrwt>0</asrwt>
<pdfrwt beam="1">  1        1 0.11315780E+00 0.29266871E+03</pdfrwt>
<pdfrwt beam="2">  1       -1 0.51677129E-01 0.29266871E+03</pdfrwt>
<totfact> 0.10208270E+02</totfact>
</mgrwt>
</event>
<event>
 4    1  0.3761914E-001  0.1994288E+03  0.7546771E-02  0.1150222E+00
          1   -1    0    0  502    0  0.00000000000E+00  0.00000000000E+00  0.40944301010E+03  0.40944301010E+03  0.00000000000E+00 0. -1.
         -1   -1    0    0    0  501 -0.00000000000E+00 -0.00000000000E+00 -0.11665632841E+03  0.11665632841E+03  0.00000000000E+00 0.  1.
          6    1    1    2  502    0  0.94268975752E+02 -0.36071987525E+02  0.38790806730E+02  0.20316632290E+03  0.17200000000E+03 0.  1.
         -6    1    1    2    0  501 -0.94268975752E+02  0.36071987525E+02  0.25399587496E+03  0.32293301561E+03  0.17200000000E+03 0. -1.
<mgrwt>
<rscale>  2 0.19942875E+03</rscale>
<asrwt>0</asrwt>
<pdfrwt beam="1">  1        1 0.10236075E+00 0.19942875E+03</pdfrwt>
<pdfrwt beam="2">  1       -1 0.29164083E-01 0.19942875E+03</pdfrwt>
<totfact> 0.33072570E+02</totfact>
</mgrwt>
</event>
<event>
 4    1  0.3761914E-001  0.1839318E+03  0.7546771E-02  0.1164051E+00
          2   -1    0    0  502    0  0.00000000000E+00  0.00000000000E+00  0.16418532405E+04  0.16418532405E+04  0.00000000000E+00 0. -1.
         -2   -1    0    0    0  501 -0.00000000000E+00 -0.00000000000E+00 -0.20640953027E+02  0.20640953027E+02  0.00000000000E+00 0.  1.
          6    1    1    2  502    0  0.21335518601E+02 -0.61576913408E+02  0.77607130264E+03  0.79756980096E+03  0.17200000000E+03 0.  1.
         -6    1    1    2    0  501 -0.21335518601E+02  0.61576913408E+02  0.84514098486E+03  0.86492439260E+03  0.17200000000E+03 0.  1.
<mgrwt>
<rscale>  2 0.18393184E+03</rscale>
<asrwt>0</asrwt>
<pdfrwt beam="1">  1        2 0.41046287E+00 0.18393184E+03</pdfrwt>
<pdfrwt beam="2">  1       -2 0.51602438E-02 0.18393184E+03</pdfrwt>
<totfact> 0.61697013E+02</totfact>
</mgrwt>
</event>
<event>
 4    1  0.3761914E-001  0.1739450E+03  0.7546771E-02  0.1173795E+00
          2   -1    0    0  502    0  0.00000000000E+00  0.00000000000E+00  0.11901167882E+03  0.11901167882E+03  0.00000000000E+00 0.  1.
         -2   -1    0    0    0  501 -0.00000000000E+00 -0.00000000000E+00 -0.35325654407E+03  0.35325654407E+03  0.00000000000E+00 0. -1.
          6    1    1    2  502    0  0.24120368865E+02  0.95427822377E+01  0.78976817710E+01  0.17412418058E+03  0.17200000000E+03 0.  1.
         -6    1    1    2    0  501 -0.24120368865E+02 -0.95427822377E+01 -0.24214254701E+03  0.29814404230E+03  0.17200000000E+03 0. -1.
<mgrwt>
<rscale>  2 0.17394498E+03</rscale>
<asrwt>0</asrwt>
<pdfrwt beam="1">  1        2 0.29752920E-01 0.17394498E+03</pdfrwt>
<pdfrwt beam="2">  1       -2 0.88314136E-01 0.17394498E+03</pdfrwt>
<totfact> 0.20390461E+02</totfact>
</mgrwt>
</event>
<event>
 4    1  0.3761914E-001  0.3039786E+03  0.7546771E-02  0.1083269E+00
         -1   -1    0    0    0  501 -0.00000000000E+00  0.00000000000E+00  0.37754239324E+03  0.37754239324E+03  0.00000000000E+00 0. -1.
          1   -1    0    0  502    0  0.00000000000E+00 -0.00000000000E+00 -0.25488063834E+03  0.25488063834E+03  0.00000000000E+00 0.  1.
          6    1    1    2  502    0 -0.17415035691E+03  0.18025153012E+03  0.12437698965E+03  0.32843963902E+03  0.17200000000E+03 0. -1.
         -6    1    1    2    0  501  0.17415035691E+03 -0.18025153012E+03 -0.17152347564E+01  0.30398339256E+03  0.17200000000E+03 0.  1.
<mgrwt>
<rscale>  2 0.30397855E+03</rscale>
<asrwt>0</asrwt>
<pdfrwt beam="1">  1        1 0.63720160E-01 0.30397855E+03</pdfrwt>
<pdfrwt beam="2">  1       -1 0.94385598E-01 0.30397855E+03</pdfrwt>
<totfact> 0.66746584E+01</totfact>
</mgrwt>
</event>
<event>
 4    1  0.3761914E-001  0.2782595E+03  0.7546771E-02  0.1096643E+00
         -2   -1    0    0    0  501 -0.00000000000E+00  0.00000000000E+00  0.94768973043E+02  0.94768973043E+02  0.00000000000E+00 0. -1.
          2   -1    0    0  502    0  0.00000000000E+00 -0.00000000000E+00 -0.82580722095E+03  0.82580722095E+03  0.00000000000E+00 0.  1.
          6    1    1    2  502    0 -0.48029842601E+02  0.21339519463E+03 -0.31804504106E+03  0.42258847951E+03  0.17200000000E+03 0.  1.
         -6    1    1    2    0  501  0.48029842601E+02 -0.21339519463E+03 -0.41299320685E+03  0.49798771448E+03  0.17200000000E+03 0.  1.
<mgrwt>
<rscale>  2 0.27825955E+03</rscale>
<asrwt>0</asrwt>
<pdfrwt beam="1">  1        2 0.20645180E+00 0.27825955E+03</pdfrwt>
<pdfrwt beam="2">  1       -2 0.23692243E-01 0.27825955E+03</pdfrwt>
<totfact> 0.26184456E+02</totfact>
</mgrwt>
</event>
<event>
 4    1  0.3761914E-001  0.1976189E+03  0.7546771E-02  0.1151764E+00
          1   -1    0    0  502    0  0.00000000000E+00  0.00000000000E+00  0.18089621489E+03  0.18089621489E+03  0.00000000000E+00 0. -1.
         -1   -1    0    0    0  501 -0.00000000000E+00 -0.00000000000E+00 -0.39975371259E+03  0.39975371259E+03  0.00000000000E+00 0.  1.
          6    1    1    2  502    0  0.44550807938E+02 -0.86512754538E+02  0.87468249446E+02  0.21611091099E+03  0.17200000000E+03 0. -1.
         -6    1    1    2    0  501 -0.44550807938E+02  0.86512754538E+02 -0.30632574715E+03  0.36453901650E+03  0.17200000000E+03 0.  1.
<mgrwt>
<rscale>  2 0.19761890E+03</rscale>
<asrwt>0</asrwt>
<pdfrwt beam="1">  1        1 0.45224054E-01 0.19761890E+03</pdfrwt>
<pdfrwt beam="2">  1       -1 0.99938427E-01 0.19761890E+03</pdfrwt>
<totfact> 0.92982524E+01</totfact>
</mgrwt>
</event>
<event>
 4    1  0.3761914E-001  0.1818840E+03  0.7546771E-02  0.1165992E+00
          1   -1    0    0  502    0  0.00000000000E+00  0.00000000000E+00  0.11244068143E+03  0.11244068143E+03  0.00000000000E+00 0. -1.
         -1   -1    0    0    0  501 -0.00000000000E+00 -0.00000000000E+00 -0.31345114130E+03  0.31345114130E+03  0.00000000000E+00 0.  1.
          6    1    1    2  502    0  0.57254968030E+02 -0.14820289714E+02 -0.15325731330E+03  0.23784359658E+03  0.17200000000E+03 0.  1.
         -6    1    1    2    0  501 -0.57254968030E+02  0.14820289714E+02 -0.47753146575E+02  0.18804822615E+03  0.17200000000E+03 0.  1.
<mgrwt>
<rscale>  2 0.18188395E+03</rscale>
<asrwt>0</asrwt>
<pdfrwt beam="1">  1        1 0.28110171E-01 0.18188395E+03</pdfrwt>
<pdfrwt beam="2">  1       -1 0.78362784E-01 0.18188395E+03</pdfrwt>
<totfact> 0.28362105E+02</totfact>
</mgrwt>
</event>
<event>
 4    1  0.3761914E-001  0.1890395E+03  0.7546771E-02  0.1159330E+00
          2   -1    0    0  502    0  0.00000000000E+00  0.00000000000E+00  0.24012873913E+03  0.24012873913E+03  0.00000000000E+00 0.  1.
         -2   -1    0    0    0  501 -0.00000000000E+00 -0.00000000000E+00 -0.14996500770E+03  0.14996500770E+03  0.00000000000E+00 0. -1.
          6    1    1    2  502    0  0.74439442235E+02 -0.24712440664E+02  0.28038046241E+02  0.19110747584E+03  0.17200000000E+03 0.  1.
         -6    1    1    2    0  501 -0.74439442235E+02  0.24712440664E+02  0.62125685182E+02  0.19898627099E+03  0.17200000000E+03 0.  1.
<mgrwt>
<rscale>  2 0.18903951E+03</rscale>
<asrwt>0</asrwt>
<pdfrwt beam="1">  1        2 0.60032184E-01 0.18903951E+03</pdfrwt>
<pdfrwt beam="2">  1       -2 0.37491252E-01 0.18903951E+03</pdfrwt>
<totfact> 0.55596254E+02</totfact>
</mgrwt>
</event>
<event>
 4    1  0.3761914E-001  0.1809785E+03  0.7546771E-02  0.1166859E+00
          2   -1    0    0  502    0  0.00000000000E+00  0.00000000000E+00  0.16071235556E+04  0.16071235556E+04  0.00000000000E+00 0. -1.
         -2   -1    0    0    0  501 -0.00000000000E+00 -0.00000000000E+00 -0.22847066651E+02  0.22847066651E+02  0.00000000000E+00 0.  1.
          6    1    1    2  502    0 -0.52954602179E+02  0.19105666105E+02  0.52433064272E+03  0.55468535159E+03  0.17200000000E+03 0.  1.
         -6    1    1    2    0  501  0.52954602179E+02 -0.19105666105E+02  0.10599458462E+04  0.10752852707E+04  0.17200000000E+03 0. -1.
<mgrwt>
<rscale>  2 0.18097850E+03</rscale>
<asrwt>0</asrwt>
<pdfrwt beam="1">  1        2 0.40178051E+00 0.18097850E+03</pdfrwt>
<pdfrwt beam="2">  1       -2 0.57117721E-02 0.18097850E+03</pdfrwt>
<totfact> 0.56850398E+02</totfact>
</mgrwt>
</event>
<event>
 4    1  0.3761914E-001  0.1889565E+03  0.7546771E-02  0.1159406E+00
         -1   -1    0    0    0  501 -0.00000000000E+00  0.00000000000E+00  0.81749259758E+02  0.81749259758E+02  0.00000000000E+00 0.  1.
          1   -1    0    0  502    0  0.00000000000E+00 -0.00000000000E+00 -0.48099697360E+03  0.48099697360E+03  0.00000000000E+00 0. -1.
          6    1    1    2  502    0  0.58105730898E+02 -0.52385817528E+02 -0.28495735625E+03  0.34191408968E+03  0.17200000000E+03 0. -1.
         -6    1    1    2    0  501 -0.58105730898E+02  0.52385817528E+02 -0.11429035758E+03  0.22083214367E+03  0.17200000000E+03 0.  1.
<mgrwt>
<rscale>  2 0.18895648E+03</rscale>
<asrwt>0</asrwt>
<pdfrwt beam="1">  1        1 0.12024924E+00 0.18895648E+03</pdfrwt>
<pdfrwt beam="2">  1       -1 0.20437315E-01 0.18895648E+03</pdfrwt>
<totfact> 0.47086202E+02</totfact>
</mgrwt>
</event>
<event>
 4    1  0.3761914E-001  0.2087360E+03  0.7546771E-02  0.1142571E+00
          2   -1    0    0  502    0  0.00000000000E+00  0.00000000000E+00  0.10567211583E+04  0.10567211583E+04  0.00000000000E+00 0.  1.
         -2   -1    0    0    0  501 -0.00000000000E+00 -0.00000000000E+00 -0.49134648388E+02  0.49134648388E+02  0.00000000000E+00 0. -1.
          6    1    1    2  502    0 -0.11474902774E+03 -0.28625052931E+02  0.72554178449E+03  0.75497126705E+03  0.17200000000E+03 0.  1.
         -6    1    1    2    0  501  0.11474902774E+03  0.28625052931E+02  0.28204472542E+03  0.35088453964E+03  0.17200000000E+03 0. -1.
<mgrwt>
<rscale>  2 0.20873604E+03</rscale>
<asrwt>0</asrwt>
<pdfrwt beam="1">  1        2 0.26418022E+00 0.20873604E+03</pdfrwt>
<pdfrwt beam="2">  1       -2 0.12283666E-01 0.20873604E+03</pdfrwt>
<totfact> 0.50487337E+02</totfact>
</mgrwt>
</event>
<event>
 4    1  0.3761914E-001  0.2293490E+03  0.7546771E-02  0.1127099E+00
         -1   -1    0    0    0  501 -0.00000000000E+00  0.00000000000E+00  0.22305244715E+03  0.22305244715E+03  0.00000000000E+00 0. -1.
          1   -1    0    0  502    0  0.00000000000E+00 -0.00000000000E+00 -0.23924366190E+03  0.23924366190E+03  0.00000000000E+00 0.  1.
          6    1    1    2  502    0  0.12157355609E+03 -0.90756892817E+02  0.19542737846E+02  0.23018006372E+03  0.17200000000E+03 0.  1.
         -6    1    1    2    0  501 -0.12157355609E+03  0.90756892817E+02 -0.35733952597E+02  0.23211604533E+03  0.17200000000E+03 0. -1.
<mgrwt>
<rscale>  2 0.22934895E+03</rscale>
<asrwt>0</asrwt>
<pdfrwt beam="1">  1        1 0.59810915E-01 0.22934895E+03</pdfrwt>
<pdfrwt beam="2">  1       -1 0.55763112E-01 0.22934895E+03</pdfrwt>
<totfact> 0.21322530E+02</totfact>
</mgrwt>
</event>
<event>
 4    1  0.3761914E-001  0.1736719E+03  0.7546771E-02  0.1174072E+00
          2   -1    0    0  502    0  0.00000000000E+00  0.00000000000E+00  0.65566991743E+03  0.65566991743E+03  0.00000000000E+00 0.  1.
         -2   -1    0    0    0  501 -0.00000000000E+00 -0.00000000000E+00 -0.46086571264E+02  0.46086571264E+02  0.00000000000E+00 0. -1.
          6    1    1    2  502    0  0.33997928401E+00  0.24037667165E+02  0.31984984518E+03  0.36395858074E+03  0.17200000000E+03 0.  1.
         -6    1    1    2    0  501 -0.33997928401E+00 -0.24037667165E+02  0.28973350098E+03  0.33779790796E+03  0.17200000000E+03 0.  1.
<mgrwt>
<rscale>  2 0.17367189E+03</rscale>
<asrwt>0</asrwt>
<pdfrwt beam="1">  1        2 0.16391745E+00 0.17367189E+03</pdfrwt>
<pdfrwt beam="2">  1       -2 0.11521645E-01 0.17367189E+03</pdfrwt>
<totfact> 0.12684909E+03</totfact>
</mgrwt>
</event>
<event>
 4    1  0.3761914E-001  0.1888150E+03  0.7546771E-02  0.1159534E+00
         -2   -1    0    0    0  501 -0.00000000000E+00  0.00000000000E+00  0.42705169557E+03  0.42705169557E+03  0.00000000000E+00 0. -1.
          2   -1    0    0  502    0  0.00000000000E+00 -0.00000000000E+00 -0.85537090245E+02  0.85537090245E+02  0.00000000000E+00 0.  1.
          6    1    1    2  502    0 -0.62565642736E+02 -0.46396797944E+02  0.21048369102E+03  0.28276227948E+03  0.17200000000E+03 0. -1.
         -6    1    1    2    0  501  0.62565642736E+02  0.46396797944E+02  0.13103091430E+03  0.22982650633E+03  0.17200000000E+03 0. -1.
<mgrwt>
<rscale>  2 0.18881505E+03</rscale>
<asrwt>0</asrwt>
<pdfrwt beam="1">  1        2 0.21384274E-01 0.18881505E+03</pdfrwt>
<pdfrwt beam="2">  1       -2 0.10676292E+00 0.18881505E+03</pdfrwt>
<totfact> 0.19023134E+02</totfact>
</mgrwt>
</event>
<event>
 4    1  0.3761914E-001  0.2035859E+03  0.7546771E-02  0.1146748E+00
          2   -1    0    0  502    0  0.00000000000E+00  0.00000000000E+00  0.88376815659E+03  0.88376815659E+03  0.00000000000E+00 0. -1.
         -2   -1    0    0    0  501 -0.00000000000E+00 -0.00000000000E+00 -0.50083503021E+02  0.50083503021E+02  0.00000000000E+00 0.  1.
          6    1    1    2  502    0  0.96279255986E+02  0.50926570269E+02  0.53459482972E+03  0.57204793738E+03  0.17200000000E+03 0. -1.
         -6    1    1    2    0  501 -0.96279255986E+02 -0.50926570269E+02  0.29908982384E+03  0.36180372223E+03  0.17200000000E+03 0.  1.
<mgrwt>
<rscale>  2 0.20358588E+03</rscale>
<asrwt>0</asrwt>
<pdfrwt beam="1">  1        2 0.22094199E+00 0.20358588E+03</pdfrwt>
<pdfrwt beam="2">  1       -2 0.12520879E-01 0.20358588E+03</pdfrwt>
<totfact> 0.68888903E+02</totfact>
</mgrwt>
</event>
<event>
 4    1  0.3761914E-001  0.1776813E+03  0.7546771E-02  0.1170066E+00
          2   -1    0    0  502    0  0.00000000000E+00  0.00000000000E+00  0.73718125185E+03  0.73718125185E+03  0.00000000000E+00 0. -1.
         -2   -1    0    0    0  501 -0.00000000000E+00 -0.00000000000E+00 -0.44522089186E+02  0.44522089186E+02  0.00000000000E+00 0.  1.
          6    1    1    2  502    0  0.28251329847E+02 -0.34474673337E+02  0.42261267941E+03  0.45844532666E+03  0.17200000000E+03 0. -1.
         -6    1    1    2    0  501 -0.28251329847E+02  0.34474673337E+02  0.27004648326E+03  0.32325801438E+03  0.17200000000E+03 0.  1.
<mgrwt>
<rscale>  2 0.17768129E+03</rscale>
<asrwt>0</asrwt>
<pdfrwt beam="1">  1        2 0.18429527E+00 0.17768129E+03</pdfrwt>
<pdfrwt beam="2">  1       -2 0.11130525E-01 0.17768129E+03</pdfrwt>
<totfact> 0.11255303E+03</totfact>
</mgrwt>
</event>
<event>
 4    1  0.3761914E-001  0.1859342E+03  0.7546771E-02  0.1162180E+00
          2   -1    0    0  502    0  0.00000000000E+00  0.00000000000E+00  0.11234605669E+04  0.11234605669E+04  0.00000000000E+00 0.  1.
         -2   -1    0    0    0  501 -0.00000000000E+00 -0.00000000000E+00 -0.31622285434E+02  0.31622285434E+02  0.00000000000E+00 0. -1.
          6    1    1    2  502    0 -0.61610293868E+02  0.34520934037E+02  0.64060369927E+03  0.66704169488E+03  0.17200000000E+03 0.  1.
         -6    1    1    2    0  501  0.61610293868E+02 -0.34520934037E+02  0.45123458225E+03  0.48804115750E+03  0.17200000000E+03 0. -1.
<mgrwt>
<rscale>  2 0.18593419E+03</rscale>
<asrwt>0</asrwt>
<pdfrwt beam="1">  1        2 0.28086501E+00 0.18593419E+03</pdfrwt>
<pdfrwt beam="2">  1       -2 0.79055751E-02 0.18593419E+03</pdfrwt>
<totfact> 0.89482761E+02</totfact>
</mgrwt>
</event>
<event>
 4    1  0.3761914E-001  0.1804851E+03  0.7546771E-02  0.1167334E+00
         -1   -1    0    0    0  501 -0.00000000000E+00  0.00000000000E+00  0.38415666448E+02  0.38415666448E+02  0.00000000000E+00 0.  1.
          1   -1    0    0  502    0  0.00000000000E+00 -0.00000000000E+00 -0.85081981284E+03  0.85081981284E+03  0.00000000000E+00 0. -1.
          6    1    1    2  502    0 -0.52705751644E+02  0.14593310141E+02 -0.43198960642E+03  0.46817718976E+03  0.17200000000E+03 0. -1.
         -6    1    1    2    0  501  0.52705751644E+02 -0.14593310141E+02 -0.38041453997E+03  0.42105828953E+03  0.17200000000E+03 0.  1.
<mgrwt>
<rscale>  2 0.18048507E+03</rscale>
<asrwt>0</asrwt>
<pdfrwt beam="1">  1        1 0.21270496E+00 0.18048507E+03</pdfrwt>
<pdfrwt beam="2">  1       -1 0.96039165E-02 0.18048507E+03</pdfrwt>
<totfact> 0.56440537E+02</totfact>
</mgrwt>
</event>
<event>
 4    1  0.3761914E-001  0.2170444E+03  0.7546771E-02  0.1136106E+00
         -1   -1    0    0    0  501 -0.00000000000E+00  0.00000000000E+00  0.74739496919E+03  0.74739496919E+03  0.00000000000E+00 0.  1.
          1   -1    0    0  502    0  0.00000000000E+00 -0.00000000000E+00 -0.12788094650E+03  0.12788094650E+03  0.00000000000E+00 0. -1.
          6    1    1    2  502    0  0.39634627353E+01  0.13231999580E+03 -0.18952529934E+01  0.21705271781E+03  0.17200000000E+03 0. -1.
         -6    1    1    2    0  501 -0.39634627353E+01 -0.13231999580E+03  0.62140927568E+03  0.65822319788E+03  0.17200000000E+03 0.  1.
<mgrwt>
<rscale>  2 0.21704444E+03</rscale>
<asrwt>0</asrwt>
<pdfrwt beam="1">  1        1 0.31970239E-01 0.21704444E+03</pdfrwt>
<pdfrwt beam="2">  1       -1 0.18684873E+00 0.21704444E+03</pdfrwt>
<totfact> 0.29338403E+01</totfact>
</mgrwt>
</event>
<event>
 4    1  0.3761914E-001  0.2248220E+03  0.7546771E-02  0.1130338E+00
         -1   -1    0    0    0  501 -0.00000000000E+00  0.00000000000E+00  0.21092307708E+03  0.21092307708E+03  0.00000000000E+00 0. -1.
          1   -1    0    0  502    0  0.00000000000E+00 -0.00000000000E+00 -0.85671029022E+03  0.85671029022E+03  0.00000000000E+00 0.  1.
          6    1    1    2  502    0 -0.81637216408E+02  0.11956717861E+03  0.13015372042E+03  0.25977862931E+03  0.17200000000E+03 0. -1.
         -6    1    1    2    0  501  0.81637216408E+02 -0.11956717861E+03 -0.77594093357E+03  0.80785473799E+03  0.17200000000E+03 0.  1.
<mgrwt>
<rscale>  2 0.22482203E+03</rscale>
<asrwt>0</asrwt>
<pdfrwt beam="1">  1        1 0.21417757E+00 0.22482203E+03</pdfrwt>
<pdfrwt beam="2">  1       -1 0.52730770E-01 0.22482203E+03</pdfrwt>
<totfact> 0.32503075E+01</totfact>
</mgrwt>
</event>
<event>
 4    1  0.3761914E-001  0.1781947E+03  0.7546771E-02  0.1169562E+00
          2   -1    0    0  502    0  0.00000000000E+00  0.00000000000E+00  0.37418966123E+03  0.37418966123E+03  0.00000000000E+00 0. -1.
         -2   -1    0    0    0  501 -0.00000000000E+00 -0.00000000000E+00 -0.89542341737E+02  0.89542341737E+02  0.00000000000E+00 0.  1.
          6    1    1    2  502    0 -0.43248806057E+02 -0.17288556635E+02  0.89296099476E+02  0.19931669975E+03  0.17200000000E+03 0.  1.
         -6    1    1    2    0  501  0.43248806057E+02  0.17288556635E+02  0.19535122002E+03  0.26441530322E+03  0.17200000000E+03 0. -1.
<mgrwt>
<rscale>  2 0.17819471E+03</rscale>
<asrwt>0</asrwt>
<pdfrwt beam="1">  1        2 0.93547411E-01 0.17819471E+03</pdfrwt>
<pdfrwt beam="2">  1       -2 0.22385586E-01 0.17819471E+03</pdfrwt>
<totfact> 0.86032661E+02</totfact>
</mgrwt>
</event>
<event>
 4    1  0.3761914E-001  0.2134844E+03  0.7546771E-02  0.1138836E+00
          1   -1    0    0  502    0  0.00000000000E+00  0.00000000000E+00  0.24609257672E+03  0.24609257672E+03  0.00000000000E+00 0.  1.
         -1   -1    0    0    0  501 -0.00000000000E+00 -0.00000000000E+00 -0.21355347308E+03  0.21355347308E+03  0.00000000000E+00 0. -1.
          6    1    1    2  502    0  0.31943744173E+02  0.12235681273E+03  0.10001607298E+03  0.23575157956E+03  0.17200000000E+03 0. -1.
         -6    1    1    2    0  501 -0.31943744173E+02 -0.12235681273E+03 -0.67476969341E+02  0.22389447024E+03  0.17200000000E+03 0. -1.
<mgrwt>
<rscale>  2 0.21348441E+03</rscale>
<asrwt>0</asrwt>
<pdfrwt beam="1">  1        1 0.61523144E-01 0.21348441E+03</pdfrwt>
<pdfrwt beam="2">  1       -1 0.53388368E-01 0.21348441E+03</pdfrwt>
<totfact> 0.22364416E+02</totfact>
</mgrwt>
</event>
<event>
 4    1  0.3761914E-001  0.2161039E+03  0.7546771E-02  0.1136822E+00
         -1   -1    0    0    0  501 -0.00000000000E+00  0.00000000000E+00  0.22400962004E+03  0.22400962004E+03  0.00000000000E+00 0. -1.
          1   -1    0    0  502    0  0.00000000000E+00 -0.00000000000E+00 -0.29052179820E+03  0.29052179820E+03  0.00000000000E+00 0.  1.
          6    1    1    2  502    0 -0.82484155572E+02  0.10155426453E+03 -0.16997149750E+03  0.27493856500E+03  0.17200000000E+03 0.  1.
         -6    1    1    2    0  501  0.82484155572E+02 -0.10155426453E+03  0.10345931934E+03  0.23959285324E+03  0.17200000000E+03 0. -1.
<mgrwt>
<rscale>  2 0.21610392E+03</rscale>
<asrwt>0</asrwt>
<pdfrwt beam="1">  1        1 0.72630449E-01 0.21610392E+03</pdfrwt>
<pdfrwt beam="2">  1       -1 0.56002406E-01 0.21610392E+03</pdfrwt>
<totfact> 0.16484933E+02</totfact>
</mgrwt>
</event>
<event>
 4    1  0.3761914E-001  0.1798499E+03  0.7546771E-02  0.1167948E+00
          1   -1    0    0  502    0  0.00000000000E+00  0.00000000000E+00  0.21187054878E+03  0.21187054878E+03  0.00000000000E+00 0. -1.
         -1   -1    0    0    0  501 -0.00000000000E+00 -0.00000000000E+00 -0.15729333984E+03  0.15729333984E+03  0.00000000000E+00 0.  1.
          6    1    1    2  502    0  0.38723376862E+02 -0.35531499352E+02  0.58938777276E+02  0.18926110754E+03  0.17200000000E+03 0. -1.
         -6    1    1    2    0  501 -0.38723376862E+02  0.35531499352E+02 -0.43615683333E+01  0.17990278108E+03  0.17200000000E+03 0.  1.
<mgrwt>
<rscale>  2 0.17984990E+03</rscale>
<asrwt>0</asrwt>
<pdfrwt beam="1">  1        1 0.52967637E-01 0.17984990E+03</pdfrwt>
<pdfrwt beam="2">  1       -1 0.39323335E-01 0.17984990E+03</pdfrwt>
<totfact> 0.47204299E+02</totfact>
</mgrwt>
</event>
<event>
 4    1  0.3761914E-001  0.3085610E+03  0.7546771E-02  0.1081038E+00
         -2   -1    0    0    0  501 -0.00000000000E+00  0.00000000000E+00  0.17004425423E+03  0.17004425423E+03  0.00000000000E+00 0.  1.
          2   -1    0    0  502    0  0.00000000000E+00 -0.00000000000E+00 -0.60781089208E+03  0.60781089208E+03  0.00000000000E+00 0. -1.
          6    1    1    2  502    0  0.21751597562E+03 -0.13532447817E+03 -0.32806371879E+03  0.45037286511E+03  0.17200000000E+03 0. -1.
         -6    1    1    2    0  501 -0.21751597562E+03  0.13532447817E+03 -0.10970291906E+03  0.32748228119E+03  0.17200000000E+03 0.  1.
<mgrwt>
<rscale>  2 0.30856104E+03</rscale>
<asrwt>0</asrwt>
<pdfrwt beam="1">  1        2 0.15195272E+00 0.30856104E+03</pdfrwt>
<pdfrwt beam="2">  1       -2 0.42511064E-01 0.30856104E+03</pdfrwt>
<totfact> 0.14224204E+02</totfact>
</mgrwt>
</event>
<event>
 4    1  0.3761914E-001  0.2409397E+03  0.7546771E-02  0.1119168E+00
          1   -1    0    0  502    0  0.00000000000E+00  0.00000000000E+00  0.18988477241E+03  0.18988477241E+03  0.00000000000E+00 0. -1.
         -1   -1    0    0    0  501 -0.00000000000E+00 -0.00000000000E+00 -0.31032302760E+03  0.31032302760E+03  0.00000000000E+00 0.  1.
          6    1    1    2  502    0  0.10473952693E+03 -0.13227844142E+03 -0.29765408270E+02  0.24277136177E+03  0.17200000000E+03 0. -1.
         -6    1    1    2    0  501 -0.10473952693E+03  0.13227844142E+03 -0.90672846921E+02  0.25743643825E+03  0.17200000000E+03 0. -1.
<mgrwt>
<rscale>  2 0.24093973E+03</rscale>
<asrwt>0</asrwt>
<pdfrwt beam="1">  1        1 0.47471193E-01 0.24093973E+03</pdfrwt>
<pdfrwt beam="2">  1       -1 0.77580757E-01 0.24093973E+03</pdfrwt>
<totfact> 0.14895497E+02</totfact>
</mgrwt>
</event>
<event>
 4    1  0.3761914E-001  0.1840433E+03  0.7546771E-02  0.1163946E+00
          2   -1    0    0  502    0  0.00000000000E+00  0.00000000000E+00  0.78070546899E+03  0.78070546899E+03  0.00000000000E+00 0. -1.
         -2   -1    0    0    0  501 -0.00000000000E+00 -0.00000000000E+00 -0.44861264456E+02  0.44861264456E+02  0.00000000000E+00 0.  1.
          6    1    1    2  502    0 -0.58517317227E+02  0.29388337988E+02  0.29307556433E+03  0.34607114476E+03  0.17200000000E+03 0. -1.
         -6    1    1    2    0  501  0.58517317227E+02 -0.29388337988E+02  0.44276864020E+03  0.47949558869E+03  0.17200000000E+03 0. -1.
<mgrwt>
<rscale>  2 0.18404334E+03</rscale>
<asrwt>0</asrwt>
<pdfrwt beam="1">  1        2 0.19517632E+00 0.18404334E+03</pdfrwt>
<pdfrwt beam="2">  1       -2 0.11215319E-01 0.18404334E+03</pdfrwt>
<totfact> 0.10154661E+03</totfact>
</mgrwt>
</event>
<event>
 4    1  0.3761914E-001  0.2543863E+03  0.7546771E-02  0.1110564E+00
          2   -1    0    0  502    0  0.00000000000E+00  0.00000000000E+00  0.33835923260E+03  0.33835923260E+03  0.00000000000E+00 0.  1.
         -2   -1    0    0    0  501 -0.00000000000E+00 -0.00000000000E+00 -0.22603612203E+03  0.22603612203E+03  0.00000000000E+00 0. -1.
          6    1    1    2  502    0 -0.13967702646E+03 -0.12497496531E+03  0.16686093482E+03  0.30422850827E+03  0.17200000000E+03 0.  1.
         -6    1    1    2    0  501  0.13967702646E+03  0.12497496531E+03 -0.54537824250E+02  0.26016684636E+03  0.17200000000E+03 0. -1.
<mgrwt>
<rscale>  2 0.25438635E+03</rscale>
<asrwt>0</asrwt>
<pdfrwt beam="1">  1        2 0.84589808E-01 0.25438635E+03</pdfrwt>
<pdfrwt beam="2">  1       -2 0.56509031E-01 0.25438635E+03</pdfrwt>
<totfact> 0.16922477E+02</totfact>
</mgrwt>
</event>
<event>
 4    1  0.3761914E-001  0.2897553E+03  0.7546771E-02  0.1090477E+00
         -2   -1    0    0    0  501 -0.00000000000E+00  0.00000000000E+00  0.48439362911E+02  0.48439362911E+02  0.00000000000E+00 0.  1.
          2   -1    0    0  502    0  0.00000000000E+00 -0.00000000000E+00 -0.27352421437E+04  0.27352421437E+04  0.00000000000E+00 0. -1.
          6    1    1    2  502    0 -0.19890918323E+03  0.12169327547E+03 -0.21858068529E+04  0.22049285055E+04  0.17200000000E+03 0. -1.
         -6    1    1    2    0  501  0.19890918323E+03 -0.12169327547E+03 -0.50099592795E+03  0.57875300111E+03  0.17200000000E+03 0.  1.
<mgrwt>
<rscale>  2 0.28975527E+03</rscale>
<asrwt>0</asrwt>
<pdfrwt beam="1">  1        2 0.68381042E+00 0.28975527E+03</pdfrwt>
<pdfrwt beam="2">  1       -2 0.12109843E-01 0.28975527E+03</pdfrwt>
<totfact> 0.92274882E+00</totfact>
</mgrwt>
</event>
<event>
 4    1  0.3761914E-001  0.3177561E+03  0.7546771E-02  0.1076687E+00
         -2   -1    0    0    0  501 -0.00000000000E+00  0.00000000000E+00  0.29737314635E+03  0.29737314635E+03  0.00000000000E+00 0.  1.
          2   -1    0    0  502    0  0.00000000000E+00 -0.00000000000E+00 -0.34023961090E+03  0.34023961090E+03  0.00000000000E+00 0. -1.
          6    1    1    2  502    0 -0.10877272803E+03 -0.24403578463E+03 -0.69383128614E+01  0.31783189067E+03  0.17200000000E+03 0.  1.
         -6    1    1    2    0  501  0.10877272803E+03  0.24403578463E+03 -0.35928151695E+02  0.31978086658E+03  0.17200000000E+03 0. -1.
<mgrwt>
<rscale>  2 0.31775615E+03</rscale>
<asrwt>0</asrwt>
<pdfrwt beam="1">  1        2 0.85059902E-01 0.31775615E+03</pdfrwt>
<pdfrwt beam="2">  1       -2 0.74343287E-01 0.31775615E+03</pdfrwt>
<totfact> 0.93391622E+01</totfact>
</mgrwt>
</event>
<event>
 4    1  0.3761914E-001  0.3076490E+03  0.7546771E-02  0.1081478E+00
          2   -1    0    0  502    0  0.00000000000E+00  0.00000000000E+00  0.13327602166E+03  0.13327602166E+03  0.00000000000E+00 0. -1.
         -2   -1    0    0    0  501 -0.00000000000E+00 -0.00000000000E+00 -0.76354090348E+03  0.76354090348E+03  0.00000000000E+00 0.  1.
          6    1    1    2  502    0  0.24017079870E+03  0.85918131145E+02 -0.43369051185E+03  0.53172868822E+03  0.17200000000E+03 0. -1.
         -6    1    1    2    0  501 -0.24017079870E+03 -0.85918131145E+02 -0.19657436997E+03  0.36508823692E+03  0.17200000000E+03 0.  1.
<mgrwt>
<rscale>  2 0.30764905E+03</rscale>
<asrwt>0</asrwt>
<pdfrwt beam="1">  1        2 0.33319006E-01 0.30764905E+03</pdfrwt>
<pdfrwt beam="2">  1       -2 0.19088522E+00 0.30764905E+03</pdfrwt>
<totfact> 0.25767318E+01</totfact>
</mgrwt>
</event>
<event>
 4    1  0.3761914E-001  0.2333275E+03  0.7546771E-02  0.1124319E+00
          2   -1    0    0  502    0  0.00000000000E+00  0.00000000000E+00  0.28737468036E+03  0.28737468036E+03  0.00000000000E+00 0.  1.
         -2   -1    0    0    0  501 -0.00000000000E+00 -0.00000000000E+00 -0.21447671715E+03  0.21447671715E+03  0.00000000000E+00 0. -1.
          6    1    1    2  502    0  0.69842123888E+02  0.14134992706E+03 -0.49274449755E+02  0.23847367894E+03  0.17200000000E+03 0. -1.
         -6    1    1    2    0  501 -0.69842123888E+02 -0.14134992706E+03  0.12217241296E+03  0.26337771857E+03  0.17200000000E+03 0.  1.
<mgrwt>
<rscale>  2 0.23332750E+03</rscale>
<asrwt>0</asrwt>
<pdfrwt beam="1">  1        2 0.71843670E-01 0.23332750E+03</pdfrwt>
<pdfrwt beam="2">  1       -2 0.53619180E-01 0.23332750E+03</pdfrwt>
<totfact> 0.22680086E+02</totfact>
</mgrwt>
</event>
<event>
 4    1  0.3761914E-001  0.2138780E+03  0.7546771E-02  0.1138531E+00
         -2   -1    0    0    0  501 -0.00000000000E+00  0.00000000000E+00  0.41087126120E+02  0.41087126120E+02  0.00000000000E+00 0.  1.
          2   -1    0    0  502    0  0.00000000000E+00 -0.00000000000E+00 -0.11141736146E+04  0.11141736146E+04  0.00000000000E+00 0. -1.
          6    1    1    2  502    0 -0.36933151715E+02 -0.12163776947E+03 -0.55237462877E+03  0.59233566089E+03  0.17200000000E+03 0. -1.
         -6    1    1    2    0  501  0.36933151715E+02  0.12163776947E+03 -0.52071185973E+03  0.56292507984E+03  0.17200000000E+03 0. -1.
<mgrwt>
<rscale>  2 0.21387801E+03</rscale>
<asrwt>0</asrwt>
<pdfrwt beam="1">  1        2 0.27854342E+00 0.21387801E+03</pdfrwt>
<pdfrwt beam="2">  1       -2 0.10271781E-01 0.21387801E+03</pdfrwt>
<totfact> 0.60076584E+02</totfact>
</mgrwt>
</event>
<event>
 4    1  0.3761914E-001  0.1822410E+03  0.7546771E-02  0.1165652E+00
          2   -1    0    0  502    0  0.00000000000E+00  0.00000000000E+00  0.94510702946E+02  0.94510702946E+02  0.00000000000E+00 0. -1.
         -2   -1    0    0    0  501 -0.00000000000E+00 -0.00000000000E+00 -0.35200737108E+03  0.35200737108E+03  0.00000000000E+00 0.  1.
          6    1    1    2  502    0 -0.36668660687E+02 -0.47782616106E+02 -0.11953185439E+03  0.21794410589E+03  0.17200000000E+03 0.  1.
         -6    1    1    2    0  501  0.36668660687E+02  0.47782616106E+02 -0.13796481375E+03  0.22857396814E+03  0.17200000000E+03 0.  1.
<mgrwt>
<rscale>  2 0.18224096E+03</rscale>
<asrwt>0</asrwt>
<pdfrwt beam="1">  1        2 0.23627676E-01 0.18224096E+03</pdfrwt>
<pdfrwt beam="2">  1       -2 0.88001842E-01 0.18224096E+03</pdfrwt>
<totfact> 0.26512805E+02</totfact>
</mgrwt>
</event>
<event>
 4    1  0.3761914E-001  0.2412017E+03  0.7546771E-02  0.1118995E+00
          1   -1    0    0  502    0  0.00000000000E+00  0.00000000000E+00  0.31017035586E+03  0.31017035586E+03  0.00000000000E+00 0. -1.
         -1   -1    0    0    0  501 -0.00000000000E+00 -0.00000000000E+00 -0.22875488083E+03  0.22875488083E+03  0.00000000000E+00 0.  1.
          6    1    1    2  502    0 -0.10937454497E+03 -0.12896309465E+03  0.15504525391E+03  0.28673559533E+03  0.17200000000E+03 0. -1.
         -6    1    1    2    0  501  0.10937454497E+03  0.12896309465E+03 -0.73629778873E+02  0.25218964136E+03  0.17200000000E+03 0.  1.
<mgrwt>
<rscale>  2 0.24120172E+03</rscale>
<asrwt>0</asrwt>
<pdfrwt beam="1">  1        1 0.77542589E-01 0.24120172E+03</pdfrwt>
<pdfrwt beam="2">  1       -1 0.57188720E-01 0.24120172E+03</pdfrwt>
<totfact> 0.14469016E+02</totfact>
</mgrwt>
</event>
<event>
 4    1  0.3761914E-001  0.2127972E+03  0.7546771E-02  0.1139370E+00
         -2   -1    0    0    0  501 -0.00000000000E+00  0.00000000000E+00  0.94773191553E+02  0.94773191553E+02  0.00000000000E+00 0.  1.
          2   -1    0    0  502    0  0.00000000000E+00 -0.00000000000E+00 -0.47780555861E+03  0.47780555861E+03  0.00000000000E+00 0. -1.
          6    1    1    2  502    0 -0.43085156041E+02  0.11765331769E+03 -0.19054240560E+03  0.28563795646E+03  0.17200000000E+03 0.  1.
         -6    1    1    2    0  501  0.43085156041E+02 -0.11765331769E+03 -0.19248996146E+03  0.28694079371E+03  0.17200000000E+03 0.  1.
<mgrwt>
<rscale>  2 0.21279717E+03</rscale>
<asrwt>0</asrwt>
<pdfrwt beam="1">  1        2 0.11945139E+00 0.21279717E+03</pdfrwt>
<pdfrwt beam="2">  1       -2 0.23693298E-01 0.21279717E+03</pdfrwt>
<totfact> 0.58088884E+02</totfact>
</mgrwt>
</event>
<event>
 4    1  0.3761914E-001  0.1782436E+03  0.7546771E-02  0.1169514E+00
         -2   -1    0    0    0  501 -0.00000000000E+00  0.00000000000E+00  0.42242085124E+03  0.42242085124E+03  0.00000000000E+00 0.  1.
          2   -1    0    0  502    0  0.00000000000E+00 -0.00000000000E+00 -0.10570453875E+03  0.10570453875E+03  0.00000000000E+00 0. -1.
          6    1    1    2  502    0 -0.46101000039E+02 -0.78413569900E+01  0.16529968065E+02  0.17900846049E+03  0.17200000000E+03 0. -1.
         -6    1    1    2    0  501  0.46101000039E+02  0.78413569900E+01  0.30018634442E+03  0.34911692950E+03  0.17200000000E+03 0.  1.
<mgrwt>
<rscale>  2 0.17824362E+03</rscale>
<asrwt>0</asrwt>
<pdfrwt beam="1">  1        2 0.26426136E-01 0.17824362E+03</pdfrwt>
<pdfrwt beam="2">  1       -2 0.10560521E+00 0.17824362E+03</pdfrwt>
<totfact> 0.15407048E+02</totfact>
</mgrwt>
</event>
<event>
 4    1  0.3761914E-001  0.1863095E+03  0.7546771E-02  0.1161833E+00
         -1   -1    0    0    0  501 -0.00000000000E+00  0.00000000000E+00  0.12051324210E+03  0.12051324210E+03  0.00000000000E+00 0. -1.
          1   -1    0    0  502    0  0.00000000000E+00 -0.00000000000E+00 -0.55515714021E+03  0.55515714021E+03  0.00000000000E+00 0.  1.
          6    1    1    2  502    0  0.49046049099E+02  0.52170214748E+02 -0.45166774268E+03  0.48858468663E+03  0.17200000000E+03 0.  1.
         -6    1    1    2    0  501 -0.49046049099E+02 -0.52170214748E+02  0.17023844567E+02  0.18708569567E+03  0.17200000000E+03 0. -1.
<mgrwt>
<rscale>  2 0.18630954E+03</rscale>
<asrwt>0</asrwt>
<pdfrwt beam="1">  1        1 0.13878928E+00 0.18630954E+03</pdfrwt>
<pdfrwt beam="2">  1       -1 0.30128311E-01 0.18630954E+03</pdfrwt>
<totfact> 0.19809164E+02</totfact>
</mgrwt>
</event>
<event>
 4    1  0.3761914E-001  0.2042737E+03  0.7546771E-02  0.1146183E+00
          1   -1    0    0  502    0  0.00000000000E+00  0.00000000000E+00  0.14791448804E+03  0.14791448804E+03  0.00000000000E+00 0.  1.
         -1   -1    0    0    0  501 -0.00000000000E+00 -0.00000000000E+00 -0.32158770109E+03  0.32158770109E+03  0.00000000000E+00 0. -1.
          6    1    1    2  502    0 -0.54627458646E+02 -0.95705678156E+02 -0.16908917365E+03  0.26517708180E+03  0.17200000000E+03 0. -1.
         -6    1    1    2    0  501  0.54627458646E+02  0.95705678156E+02 -0.45840394051E+01  0.20432510733E+03  0.17200000000E+03 0.  1.
<mgrwt>
<rscale>  2 0.20427368E+03</rscale>
<asrwt>0</asrwt>
<pdfrwt beam="1">  1        1 0.36978622E-01 0.20427368E+03</pdfrwt>
<pdfrwt beam="2">  1       -1 0.80396925E-01 0.20427368E+03</pdfrwt>
<totfact> 0.19030273E+02</totfact>
</mgrwt>
</event>
<event>
 4    1  0.3761914E-001  0.2105230E+03  0.7546771E-02  0.1141153E+00
          1   -1    0    0  502    0  0.00000000000E+00  0.00000000000E+00  0.21011023311E+03  0.21011023311E+03  0.00000000000E+00 0.  1.
         -1   -1    0    0    0  501 -0.00000000000E+00 -0.00000000000E+00 -0.26264956818E+03  0.26264956818E+03  0.00000000000E+00 0. -1.
          6    1    1    2  502    0  0.31037290895E+02 -0.11735675398E+03  0.78617479865E+02  0.22472345065E+03  0.17200000000E+03 0.  1.
         -6    1    1    2    0  501 -0.31037290895E+02  0.11735675398E+03 -0.13115681494E+03  0.24803635064E+03  0.17200000000E+03 0. -1.
<mgrwt>
<rscale>  2 0.21052297E+03</rscale>
<asrwt>0</asrwt>
<pdfrwt beam="1">  1        1 0.52527559E-01 0.21052297E+03</pdfrwt>
<pdfrwt beam="2">  1       -1 0.65662392E-01 0.21052297E+03</pdfrwt>
<totfact> 0.18403472E+02</totfact>
</mgrwt>
</event>
<event>
 4    1  0.3761914E-001  0.1975025E+03  0.7546771E-02  0.1151863E+00
         -2   -1    0    0    0  501 -0.00000000000E+00  0.00000000000E+00  0.29751714739E+02  0.29751714739E+02  0.00000000000E+00 0. -1.
          2   -1    0    0  502    0  0.00000000000E+00 -0.00000000000E+00 -0.13112002391E+04  0.13112002391E+04  0.00000000000E+00 0.  1.
          6    1    1    2  502    0 -0.93881168027E+02  0.24689183801E+02 -0.63462716599E+03  0.66464943340E+03  0.17200000000E+03 0. -1.
         -6    1    1    2    0  501  0.93881168027E+02 -0.24689183801E+02 -0.64682135839E+03  0.67630252045E+03  0.17200000000E+03 0. -1.
<mgrwt>
<rscale>  2 0.19750248E+03</rscale>
<asrwt>0</asrwt>
<pdfrwt beam="1">  1        2 0.32780004E+00 0.19750248E+03</pdfrwt>
<pdfrwt beam="2">  1       -2 0.74379291E-02 0.19750248E+03</pdfrwt>
<totfact> 0.68146666E+02</totfact>
</mgrwt>
</event>
<event>
 4    1  0.3761914E-001  0.2153145E+03  0.7546771E-02  0.1137425E+00
         -2   -1    0    0    0  501 -0.00000000000E+00  0.00000000000E+00  0.13858478534E+03  0.13858478534E+03  0.00000000000E+00 0.  1.
          2   -1    0    0  502    0  0.00000000000E+00 -0.00000000000E+00 -0.55416842263E+03  0.55416842263E+03  0.00000000000E+00 0. -1.
          6    1    1    2  502    0  0.89576404616E+02  0.93554361933E+02  0.10272594759E+02  0.21555945144E+03  0.17200000000E+03 0. -1.
         -6    1    1    2    0  501 -0.89576404616E+02 -0.93554361933E+02 -0.42585623205E+03  0.47719375654E+03  0.17200000000E+03 0.  1.
<mgrwt>
<rscale>  2 0.21531454E+03</rscale>
<asrwt>0</asrwt>
<pdfrwt beam="1">  1        2 0.13854210E+00 0.21531454E+03</pdfrwt>
<pdfrwt beam="2">  1       -2 0.34646197E-01 0.21531454E+03</pdfrwt>
<totfact> 0.24177001E+02</totfact>
</mgrwt>
</event>
<event>
 4    1  0.3761914E-001  0.2213288E+03  0.7546771E-02  0.1132896E+00
          1   -1    0    0  502    0  0.00000000000E+00  0.00000000000E+00  0.11212641403E+04  0.11212641403E+04  0.00000000000E+00 0.  1.
         -1   -1    0    0    0  501 -0.00000000000E+00 -0.00000000000E+00 -0.58596824028E+02  0.58596824028E+02  0.00000000000E+00 0. -1.
          6    1    1    2  502    0 -0.10563085170E+03  0.90799516970E+02  0.23377186894E+03  0.32192501584E+03  0.17200000000E+03 0. -1.
         -6    1    1    2    0  501  0.10563085170E+03 -0.90799516970E+02  0.82889544736E+03  0.85793594852E+03  0.17200000000E+03 0.  1.
<mgrwt>
<rscale>  2 0.22132878E+03</rscale>
<asrwt>0</asrwt>
<pdfrwt beam="1">  1        1 0.28031597E+00 0.22132878E+03</pdfrwt>
<pdfrwt beam="2">  1       -1 0.14649210E-01 0.22132878E+03</pdfrwt>
<totfact> 0.14968117E+02</totfact>
</mgrwt>
</event>
<event>
 4    1  0.3761914E-001  0.1741580E+03  0.7546771E-02  0.1173580E+00
          2   -1    0    0  502    0  0.00000000000E+00  0.00000000000E+00  0.16107953740E+04  0.16107953740E+04  0.00000000000E+00 0. -1.
         -2   -1    0    0    0  501 -0.00000000000E+00 -0.00000000000E+00 -0.26789211330E+02  0.26789211330E+02  0.00000000000E+00 0.  1.
          6    1    1    2  502    0  0.27331370108E+02  0.82122179759E-01  0.12383096833E+04  0.12504966543E+04  0.17200000000E+03 0. -1.
         -6    1    1    2    0  501 -0.27331370108E+02 -0.82122179759E-01  0.34569647934E+03  0.38708793105E+03  0.17200000000E+03 0.  1.
<mgrwt>
<rscale>  2 0.17415800E+03</rscale>
<asrwt>0</asrwt>
<pdfrwt beam="1">  1        2 0.40269852E+00 0.17415800E+03</pdfrwt>
<pdfrwt beam="2">  1       -2 0.66973083E-02 0.17415800E+03</pdfrwt>
<totfact> 0.44333284E+02</totfact>
</mgrwt>
</event>
<event>
 4    1  0.3761914E-001  0.1768094E+03  0.7546771E-02  0.1170927E+00
         -2   -1    0    0    0  501 -0.00000000000E+00  0.00000000000E+00  0.33690926572E+02  0.33690926572E+02  0.00000000000E+00 0. -1.
          2   -1    0    0  502    0  0.00000000000E+00 -0.00000000000E+00 -0.10829129313E+04  0.10829129313E+04  0.00000000000E+00 0.  1.
          6    1    1    2  502    0  0.12567407339E+02 -0.38982468090E+02 -0.31337583283E+03  0.35981382012E+03  0.17200000000E+03 0. -1.
         -6    1    1    2    0  501 -0.12567407339E+02  0.38982468090E+02 -0.73584617186E+03  0.75679003772E+03  0.17200000000E+03 0.  1.
<mgrwt>
<rscale>  2 0.17680942E+03</rscale>
<asrwt>0</asrwt>
<pdfrwt beam="1">  1        2 0.27072822E+00 0.17680942E+03</pdfrwt>
<pdfrwt beam="2">  1       -2 0.84227319E-02 0.17680942E+03</pdfrwt>
<totfact> 0.87817068E+02</totfact>
</mgrwt>
</event>
<event>
 4    1  0.3761914E-001  0.2042292E+03  0.7546771E-02  0.1146219E+00
         -2   -1    0    0    0  501 -0.00000000000E+00  0.00000000000E+00  0.69201252190E+02  0.69201252190E+02  0.00000000000E+00 0. -1.
          2   -1    0    0  502    0  0.00000000000E+00 -0.00000000000E+00 -0.61274519728E+03  0.61274519728E+03  0.00000000000E+00 0.  1.
          6    1    1    2  502    0  0.19377238531E+02 -0.10839788077E+03 -0.22817672502E+03  0.30622572682E+03  0.17200000000E+03 0. -1.
         -6    1    1    2    0  501 -0.19377238531E+02  0.10839788077E+03 -0.31536722008E+03  0.37572072265E+03  0.17200000000E+03 0.  1.
<mgrwt>
<rscale>  2 0.20422923E+03</rscale>
<asrwt>0</asrwt>
<pdfrwt beam="1">  1        2 0.15318630E+00 0.20422923E+03</pdfrwt>
<pdfrwt beam="2">  1       -2 0.17300313E-01 0.20422923E+03</pdfrwt>
<totfact> 0.71704563E+02</totfact>
</mgrwt>
</event>
<event>
 4    1  0.3761914E-001  0.3433886E+03  0.7546771E-02  0.1065362E+00
         -1   -1    0    0    0  501 -0.00000000000E+00  0.00000000000E+00  0.71919526848E+02  0.71919526848E+02  0.00000000000E+00 0.  1.
          1   -1    0    0  502    0  0.00000000000E+00 -0.00000000000E+00 -0.16757106685E+04  0.16757106685E+04  0.00000000000E+00 0. -1.
          6    1    1    2  502    0  0.29054287197E+03  0.62582296320E+02 -0.67353413213E+03  0.75601847293E+03  0.17200000000E+03 0. -1.
         -6    1    1    2    0  501 -0.29054287197E+03 -0.62582296320E+02 -0.93025700951E+03  0.99161172240E+03  0.17200000000E+03 0.  1.
<mgrwt>
<rscale>  2 0.34338856E+03</rscale>
<asrwt>0</asrwt>
<pdfrwt beam="1">  1        1 0.41892767E+00 0.34338856E+03</pdfrwt>
<pdfrwt beam="2">  1       -1 0.17979881E-01 0.34338856E+03</pdfrwt>
<totfact> 0.26417995E+01</totfact>
</mgrwt>
</event>
<event>
 4    1  0.3761914E-001  0.2437229E+03  0.7546771E-02  0.1117337E+00
         -1   -1    0    0    0  501 -0.00000000000E+00  0.00000000000E+00  0.72180199231E+02  0.72180199231E+02  0.00000000000E+00 0.  1.
          1   -1    0    0  502    0  0.00000000000E+00 -0.00000000000E+00 -0.82542530001E+03  0.82542530001E+03  0.00000000000E+00 0. -1.
          6    1    1    2  502    0  0.91708185711E+02  0.14630952517E+03 -0.35205739342E+03  0.42818836596E+03  0.17200000000E+03 0. -1.
         -6    1    1    2    0  501 -0.91708185711E+02 -0.14630952517E+03 -0.40118770735E+03  0.46941713328E+03  0.17200000000E+03 0. -1.
<mgrwt>
<rscale>  2 0.24372293E+03</rscale>
<asrwt>0</asrwt>
<pdfrwt beam="1">  1        1 0.20635632E+00 0.24372293E+03</pdfrwt>
<pdfrwt beam="2">  1       -1 0.18045050E-01 0.24372293E+03</pdfrwt>
<totfact> 0.22086806E+02</totfact>
</mgrwt>
</event>
<event>
 4    1  0.3761914E-001  0.1738256E+03  0.7546771E-02  0.1173916E+00
         -1   -1    0    0    0  501 -0.00000000000E+00  0.00000000000E+00  0.36964964932E+03  0.36964964932E+03  0.00000000000E+00 0. -1.
          1   -1    0    0  502    0  0.00000000000E+00 -0.00000000000E+00 -0.90482569121E+02  0.90482569121E+02  0.00000000000E+00 0.  1.
          6    1    1    2  502    0 -0.17985909006E+02  0.17545324939E+02  0.21109544830E+03  0.27345313975E+03  0.17200000000E+03 0. -1.
         -6    1    1    2    0  501  0.17985909006E+02 -0.17545324939E+02  0.68071631904E+02  0.18667907869E+03  0.17200000000E+03 0.  1.
<mgrwt>
<rscale>  2 0.17382558E+03</rscale>
<asrwt>0</asrwt>
<pdfrwt beam="1">  1        1 0.22620643E-01 0.17382558E+03</pdfrwt>
<pdfrwt beam="2">  1       -1 0.92412408E-01 0.17382558E+03</pdfrwt>
<totfact> 0.26424219E+02</totfact>
</mgrwt>
</event>
<event>
 4    1  0.3761914E-001  0.1920506E+03  0.7546771E-02  0.1156625E+00
         -2   -1    0    0    0  501 -0.00000000000E+00  0.00000000000E+00  0.54569457530E+02  0.54569457530E+02  0.00000000000E+00 0.  1.
          2   -1    0    0  502    0  0.00000000000E+00 -0.00000000000E+00 -0.72126156574E+03  0.72126156574E+03  0.00000000000E+00 0. -1.
          6    1    1    2  502    0 -0.50085867697E+02  0.69216000576E+02 -0.23606261096E+03  0.30431727715E+03  0.17200000000E+03 0.  1.
         -6    1    1    2    0  501  0.50085867697E+02 -0.69216000576E+02 -0.43062949725E+03  0.47151374612E+03  0.17200000000E+03 0. -1.
<mgrwt>
<rscale>  2 0.19205064E+03</rscale>
<asrwt>0</asrwt>
<pdfrwt beam="1">  1        2 0.18031539E+00 0.19205064E+03</pdfrwt>
<pdfrwt beam="2">  1       -2 0.13642365E-01 0.19205064E+03</pdfrwt>
<totfact> 0.83762000E+02</totfact>
</mgrwt>
</event>
<event>
 4    1  0.3761914E-001  0.1894349E+03  0.7546771E-02  0.1158972E+00
          2   -1    0    0  502    0  0.00000000000E+00  0.00000000000E+00  0.56868150242E+03  0.56868150242E+03  0.00000000000E+00 0. -1.
         -2   -1    0    0    0  501 -0.00000000000E+00 -0.00000000000E+00 -0.16230139796E+03  0.16230139796E+03  0.00000000000E+00 0.  1.
          6    1    1    2  502    0  0.79260757063E+02 -0.43959467062E+01  0.48892811837E+03  0.52434368203E+03  0.17200000000E+03 0. -1.
         -6    1    1    2    0  501 -0.79260757063E+02  0.43959467062E+01 -0.82548013913E+02  0.20663921835E+03  0.17200000000E+03 0.  1.
<mgrwt>
<rscale>  2 0.18943493E+03</rscale>
<asrwt>0</asrwt>
<pdfrwt beam="1">  1        2 0.14217037E+00 0.18943493E+03</pdfrwt>
<pdfrwt beam="2">  1       -2 0.40575351E-01 0.18943493E+03</pdfrwt>
<totfact> 0.17424318E+02</totfact>
</mgrwt>
</event>
<event>
 4    1  0.3761914E-001  0.2149702E+03  0.7546771E-02  0.1137689E+00
          2   -1    0    0  502    0  0.00000000000E+00  0.00000000000E+00  0.13298187190E+04  0.13298187190E+04  0.00000000000E+00 0.  1.
         -2   -1    0    0    0  501 -0.00000000000E+00 -0.00000000000E+00 -0.36448854564E+02  0.36448854564E+02  0.00000000000E+00 0. -1.
          6    1    1    2  502    0 -0.17377218359E+02  0.12777415752E+03  0.49923467391E+03  0.54355079126E+03  0.17200000000E+03 0. -1.
         -6    1    1    2    0  501  0.17377218359E+02 -0.12777415752E+03  0.79413519050E+03  0.82271678227E+03  0.17200000000E+03 0.  1.
<mgrwt>
<rscale>  2 0.21497024E+03</rscale>
<asrwt>0</asrwt>
<pdfrwt beam="1">  1        2 0.33245452E+00 0.21497024E+03</pdfrwt>
<pdfrwt beam="2">  1       -2 0.91122181E-02 0.21497024E+03</pdfrwt>
<totfact> 0.47649133E+02</totfact>
</mgrwt>
</event>
<event>
 4    1  0.3761914E-001  0.2069150E+03  0.7546771E-02  0.1144033E+00
         -2   -1    0    0    0  501 -0.00000000000E+00  0.00000000000E+00  0.36198034947E+02  0.36198034947E+02  0.00000000000E+00 0.  1.
          2   -1    0    0  502    0  0.00000000000E+00 -0.00000000000E+00 -0.15759063826E+04  0.15759063826E+04  0.00000000000E+00 0. -1.
          6    1    1    2  502    0 -0.52113231739E+02 -0.10253793118E+03 -0.11724521816E+04  0.11905704239E+04  0.17200000000E+03 0. -1.
         -6    1    1    2    0  501  0.52113231739E+02  0.10253793118E+03 -0.36725616606E+03  0.42153399360E+03  0.17200000000E+03 0.  1.
<mgrwt>
<rscale>  2 0.20691500E+03</rscale>
<asrwt>0</asrwt>
<pdfrwt beam="1">  1        2 0.39397659E+00 0.20691500E+03</pdfrwt>
<pdfrwt beam="2">  1       -2 0.90495088E-02 0.20691500E+03</pdfrwt>
<totfact> 0.29492935E+02</totfact>
</mgrwt>
</event>
<event>
 4    1  0.3761914E-001  0.1930557E+03  0.7546771E-02  0.1155734E+00
         -1   -1    0    0    0  501 -0.00000000000E+00  0.00000000000E+00  0.50315043211E+02  0.50315043211E+02  0.00000000000E+00 0.  1.
          1   -1    0    0  502    0  0.00000000000E+00 -0.00000000000E+00 -0.83447104450E+03  0.83447104450E+03  0.00000000000E+00 0. -1.
          6    1    1    2  502    0 -0.64763839135E+02 -0.59094320966E+02 -0.54034294003E+03  0.57379524786E+03  0.17200000000E+03 0. -1.
         -6    1    1    2    0  501  0.64763839135E+02  0.59094320966E+02 -0.24381306127E+03  0.31099083986E+03  0.17200000000E+03 0.  1.
<mgrwt>
<rscale>  2 0.19305567E+03</rscale>
<asrwt>0</asrwt>
<pdfrwt beam="1">  1        1 0.20861776E+00 0.19305567E+03</pdfrwt>
<pdfrwt beam="2">  1       -1 0.12578761E-01 0.19305567E+03</pdfrwt>
<totfact> 0.38647932E+02</totfact>
</mgrwt>
</event>
<event>
 4    1  0.3761914E-001  0.1803712E+03  0.7546771E-02  0.1167444E+00
         -2   -1    0    0    0  501 -0.00000000000E+00  0.00000000000E+00  0.61230287192E+02  0.61230287192E+02  0.00000000000E+00 0. -1.
          2   -1    0    0  502    0  0.00000000000E+00 -0.00000000000E+00 -0.58056461168E+03  0.58056461168E+03  0.00000000000E+00 0.  1.
          6    1    1    2  502    0 -0.40919947356E+02  0.35711620984E+02 -0.35311226470E+03  0.39651233707E+03  0.17200000000E+03 0.  1.
         -6    1    1    2    0  501  0.40919947356E+02 -0.35711620984E+02 -0.16622205978E+03  0.24528256180E+03  0.17200000000E+03 0. -1.
<mgrwt>
<rscale>  2 0.18037118E+03</rscale>
<asrwt>0</asrwt>
<pdfrwt beam="1">  1        2 0.14514115E+00 0.18037118E+03</pdfrwt>
<pdfrwt beam="2">  1       -2 0.15307572E-01 0.18037118E+03</pdfrwt>
<totfact> 0.94751324E+02</totfact>
</mgrwt>
</event>
<event>
 4    1  0.3761914E-001  0.1989174E+03  0.7546771E-02  0.1150656E+00
          2   -1    0    0  502    0  0.00000000000E+00  0.00000000000E+00  0.62456337175E+03  0.62456337175E+03  0.00000000000E+00 0.  1.
         -2   -1    0    0    0  501 -0.00000000000E+00 -0.00000000000E+00 -0.68085590934E+02  0.68085590934E+02  0.00000000000E+00 0. -1.
          6    1    1    2  502    0 -0.92522344264E+02  0.37732600238E+02  0.18693430687E+03  0.27296990382E+03  0.17200000000E+03 0. -1.
         -6    1    1    2    0  501  0.92522344264E+02 -0.37732600238E+02  0.36954347395E+03  0.41967905886E+03  0.17200000000E+03 0.  1.
<mgrwt>
<rscale>  2 0.19891740E+03</rscale>
<asrwt>0</asrwt>
<pdfrwt beam="1">  1        2 0.15614083E+00 0.19891740E+03</pdfrwt>
<pdfrwt beam="2">  1       -2 0.17021400E-01 0.19891740E+03</pdfrwt>
<totfact> 0.71760904E+02</totfact>
</mgrwt>
</event>
<event>
 4    1  0.3761914E-001  0.3459389E+03  0.7546771E-02  0.1064294E+00
          3   -1    0    0  502    0  0.00000000000E+00  0.00000000000E+00  0.28177799669E+03  0.28177799669E+03  0.00000000000E+00 0. -1.
         -3   -1    0    0    0  501 -0.00000000000E+00 -0.00000000000E+00 -0.45922574386E+03  0.45922574386E+03  0.00000000000E+00 0.  1.
          6    1    1    2  502    0  0.25477464185E+03 -0.15868083476E+03 -0.19029974191E+03  0.39482618609E+03  0.17200000000E+03 0.  1.
         -6    1    1    2    0  501 -0.25477464185E+03  0.15868083476E+03  0.12851994743E+02  0.34617755447E+03  0.17200000000E+03 0. -1.
<mgrwt>
<rscale>  2 0.34593890E+03</rscale>
<asrwt>0</asrwt>
<pdfrwt beam="1">  1        3 0.70444499E-01 0.34593890E+03</pdfrwt>
<pdfrwt beam="2">  1       -3 0.11480644E+00 0.34593890E+03</pdfrwt>
<totfact> 0.31703868E+00</totfact>
</mgrwt>
</event>
<event>
 4    1  0.3761914E-001  0.2993400E+03  0.7546771E-02  0.1085571E+00
          2   -1    0    0  502    0  0.00000000000E+00  0.00000000000E+00  0.13074198352E+03  0.13074198352E+03  0.00000000000E+00 0.  1.
         -2   -1    0    0    0  501 -0.00000000000E+00 -0.00000000000E+00 -0.68590727695E+03  0.68590727695E+03  0.00000000000E+00 0. -1.
          6    1    1    2  502    0  0.14259812700E+03  0.19921402729E+03 -0.26597872457E+03  0.40043618270E+03  0.17200000000E+03 0.  1.
         -6    1    1    2    0  501 -0.14259812700E+03 -0.19921402729E+03 -0.28918656886E+03  0.41621307777E+03  0.17200000000E+03 0.  1.
<mgrwt>
<rscale>  2 0.29934003E+03</rscale>
<asrwt>0</asrwt>
<pdfrwt beam="1">  1        2 0.32685496E-01 0.29934003E+03</pdfrwt>
<pdfrwt beam="2">  1       -2 0.17147682E+00 0.29934003E+03</pdfrwt>
<totfact> 0.35553707E+01</totfact>
</mgrwt>
</event>
<event>
 4    1  0.3761914E-001  0.2005100E+03  0.7546771E-02  0.1149309E+00
         -1   -1    0    0    0  501 -0.00000000000E+00  0.00000000000E+00  0.44691466866E+02  0.44691466866E+02  0.00000000000E+00 0. -1.
          1   -1    0    0  502    0  0.00000000000E+00 -0.00000000000E+00 -0.19650551277E+04  0.19650551277E+04  0.00000000000E+00 0.  1.
          6    1    1    2  502    0 -0.89412826233E+02  0.51240594781E+02 -0.17001148223E+04  0.17118979704E+04  0.17200000000E+03 0.  1.
         -6    1    1    2    0  501  0.89412826233E+02 -0.51240594781E+02 -0.22024883857E+03  0.29784862420E+03  0.17200000000E+03 0. -1.
<mgrwt>
<rscale>  2 0.20050998E+03</rscale>
<asrwt>0</asrwt>
<pdfrwt beam="1">  1        1 0.49126379E+00 0.20050998E+03</pdfrwt>
<pdfrwt beam="2">  1       -1 0.11172867E-01 0.20050998E+03</pdfrwt>
<totfact> 0.28094985E+01</totfact>
</mgrwt>
</event>
<event>
 4    1  0.3761914E-001  0.4153596E+03  0.7546771E-02  0.1038587E+00
         -2   -1    0    0    0  501 -0.00000000000E+00  0.00000000000E+00  0.31223175708E+03  0.31223175708E+03  0.00000000000E+00 0.  1.
          2   -1    0    0  502    0  0.00000000000E+00 -0.00000000000E+00 -0.56772286247E+03  0.56772286247E+03  0.00000000000E+00 0. -1.
          6    1    1    2  502    0  0.35618293035E+03 -0.12678044314E+03 -0.55817172085E+02  0.41909320841E+03  0.17200000000E+03 0.  1.
         -6    1    1    2    0  501 -0.35618293035E+03  0.12678044314E+03 -0.19967393330E+03  0.46086141114E+03  0.17200000000E+03 0.  1.
<mgrwt>
<rscale>  2 0.41535956E+03</rscale>
<asrwt>0</asrwt>
<pdfrwt beam="1">  1        2 0.14193071E+00 0.41535956E+03</pdfrwt>
<pdfrwt beam="2">  1       -2 0.78057940E-01 0.41535956E+03</pdfrwt>
<totfact> 0.43629697E+01</totfact>
</mgrwt>
</event>
<event>
 4    1  0.3761914E-001  0.2201792E+03  0.7546771E-02  0.1133750E+00
         -2   -1    0    0    0  501 -0.00000000000E+00  0.00000000000E+00  0.60946783324E+02  0.60946783324E+02  0.00000000000E+00 0.  1.
          2   -1    0    0  502    0  0.00000000000E+00 -0.00000000000E+00 -0.81543331756E+03  0.81543331756E+03  0.00000000000E+00 0. -1.
          6    1    1    2  502    0  0.57078548354E+02 -0.12504763479E+03 -0.44587489906E+03  0.49727587641E+03  0.17200000000E+03 0.  1.
         -6    1    1    2    0  501 -0.57078548354E+02  0.12504763479E+03 -0.30861163518E+03  0.37910422448E+03  0.17200000000E+03 0. -1.
<mgrwt>
<rscale>  2 0.22017918E+03</rscale>
<asrwt>0</asrwt>
<pdfrwt beam="1">  1        2 0.20385833E+00 0.22017918E+03</pdfrwt>
<pdfrwt beam="2">  1       -2 0.15236696E-01 0.22017918E+03</pdfrwt>
<totfact> 0.57250615E+02</totfact>
</mgrwt>
</event>
<event>
 4    1  0.3761914E-001  0.2190764E+03  0.7546771E-02  0.1134574E+00
         -2   -1    0    0    0  501 -0.00000000000E+00  0.00000000000E+00  0.27536073305E+03  0.27536073305E+03  0.00000000000E+00 0. -1.
          2   -1    0    0  502    0  0.00000000000E+00 -0.00000000000E+00 -0.28467657062E+03  0.28467657062E+03  0.00000000000E+00 0.  1.
          6    1    1    2  502    0 -0.55422104954E+02  0.12385013990E+03  0.16970576647E+03  0.27711823117E+03  0.17200000000E+03 0. -1.
         -6    1    1    2    0  501  0.55422104954E+02 -0.12385013990E+03 -0.17902160405E+03  0.28291907250E+03  0.17200000000E+03 0.  1.
<mgrwt>
<rscale>  2 0.21907640E+03</rscale>
<asrwt>0</asrwt>
<pdfrwt beam="1">  1        2 0.71169143E-01 0.21907640E+03</pdfrwt>
<pdfrwt beam="2">  1       -2 0.68840183E-01 0.21907640E+03</pdfrwt>
<totfact> 0.13653746E+02</totfact>
</mgrwt>
</event>
<event>
 4    1  0.3761914E-001  0.2013170E+03  0.7546771E-02  0.1148633E+00
          1   -1    0    0  502    0  0.00000000000E+00  0.00000000000E+00  0.23196099755E+03  0.23196099755E+03  0.00000000000E+00 0. -1.
         -1   -1    0    0    0  501 -0.00000000000E+00 -0.00000000000E+00 -0.20895817451E+03  0.20895817451E+03  0.00000000000E+00 0.  1.
          6    1    1    2  502    0  0.80472762207E+02 -0.66848114161E+02 -0.77735826535E+02  0.21580406519E+03  0.17200000000E+03 0.  1.
         -6    1    1    2    0  501 -0.80472762207E+02  0.66848114161E+02  0.10073864958E+03  0.22511510688E+03  0.17200000000E+03 0.  1.
<mgrwt>
<rscale>  2 0.20131700E+03</rscale>
<asrwt>0</asrwt>
<pdfrwt beam="1">  1        1 0.57990249E-01 0.20131700E+03</pdfrwt>
<pdfrwt beam="2">  1       -1 0.52239544E-01 0.20131700E+03</pdfrwt>
<totfact> 0.25151164E+02</totfact>
</mgrwt>
</event>
<event>
 4    1  0.3761914E-001  0.2254911E+03  0.7546771E-02  0.1129854E+00
         -2   -1    0    0    0  501 -0.00000000000E+00  0.00000000000E+00  0.16563100850E+03  0.16563100850E+03  0.00000000000E+00 0.  1.
          2   -1    0    0  502    0  0.00000000000E+00 -0.00000000000E+00 -0.34396115131E+03  0.34396115131E+03  0.00000000000E+00 0. -1.
          6    1    1    2  502    0 -0.11713412791E+03 -0.86843612764E+02 -0.56240961241E+01  0.22556118340E+03  0.17200000000E+03 0.  1.
         -6    1    1    2    0  501  0.11713412791E+03  0.86843612764E+02 -0.17270604668E+03  0.28403097641E+03  0.17200000000E+03 0. -1.
<mgrwt>
<rscale>  2 0.22549106E+03</rscale>
<asrwt>0</asrwt>
<pdfrwt beam="1">  1        2 0.85990287E-01 0.22549106E+03</pdfrwt>
<pdfrwt beam="2">  1       -2 0.41407752E-01 0.22549106E+03</pdfrwt>
<totfact> 0.30883567E+02</totfact>
</mgrwt>
</event>
<event>
 4    1  0.3761914E-001  0.1841982E+03  0.7546771E-02  0.1163801E+00
         -1   -1    0    0    0  501 -0.00000000000E+00  0.00000000000E+00  0.25535228078E+02  0.25535228078E+02  0.00000000000E+00 0.  1.
          1   -1    0    0  502    0  0.00000000000E+00 -0.00000000000E+00 -0.13484679644E+04  0.13484679644E+04  0.00000000000E+00 0. -1.
          6    1    1    2  502    0 -0.61840847019E+02 -0.22818181343E+02 -0.74462136636E+03  0.76706579835E+03  0.17200000000E+03 0.  1.
         -6    1    1    2    0  501  0.61840847019E+02  0.22818181343E+02 -0.57831136992E+03  0.60693739408E+03  0.17200000000E+03 0.  1.
<mgrwt>
<rscale>  2 0.18419815E+03</rscale>
<asrwt>0</asrwt>
<pdfrwt beam="1">  1        1 0.33711699E+00 0.18419815E+03</pdfrwt>
<pdfrwt beam="2">  1       -1 0.63838070E-02 0.18419815E+03</pdfrwt>
<totfact> 0.31437630E+02</totfact>
</mgrwt>
</event>
<event>
 4    1  0.3761914E-001  0.2275001E+03  0.7546771E-02  0.1128412E+00
          1   -1    0    0  502    0  0.00000000000E+00  0.00000000000E+00  0.63018823936E+03  0.63018823936E+03  0.00000000000E+00 0. -1.
         -1   -1    0    0    0  501 -0.00000000000E+00 -0.00000000000E+00 -0.99674308902E+02  0.99674308902E+02  0.00000000000E+00 0.  1.
          6    1    1    2  502    0  0.12106761034E+03 -0.86688666161E+02  0.11214518937E+03  0.25363918194E+03  0.17200000000E+03 0.  1.
         -6    1    1    2    0  501 -0.12106761034E+03  0.86688666161E+02  0.41836874109E+03  0.47622336632E+03  0.17200000000E+03 0. -1.
<mgrwt>
<rscale>  2 0.22750009E+03</rscale>
<asrwt>0</asrwt>
<pdfrwt beam="1">  1        1 0.15754705E+00 0.22750009E+03</pdfrwt>
<pdfrwt beam="2">  1       -1 0.24918579E-01 0.22750009E+03</pdfrwt>
<totfact> 0.21840123E+02</totfact>
</mgrwt>
</event>
<event>
 4    1  0.3761914E-001  0.1766614E+03  0.7546771E-02  0.1171074E+00
          2   -1    0    0  502    0  0.00000000000E+00  0.00000000000E+00  0.78997204803E+03  0.78997204803E+03  0.00000000000E+00 0.  1.
         -2   -1    0    0    0  501 -0.00000000000E+00 -0.00000000000E+00 -0.46016358089E+02  0.46016358089E+02  0.00000000000E+00 0. -1.
          6    1    1    2  502    0 -0.14774355507E+02 -0.37509669564E+02  0.21476416014E+03  0.27808793820E+03  0.17200000000E+03 0. -1.
         -6    1    1    2    0  501  0.14774355507E+02  0.37509669564E+02  0.52919152980E+03  0.55790046792E+03  0.17200000000E+03 0.  1.
<mgrwt>
<rscale>  2 0.17666142E+03</rscale>
<asrwt>0</asrwt>
<pdfrwt beam="1">  1        2 0.19749297E+00 0.17666142E+03</pdfrwt>
<pdfrwt beam="2">  1       -2 0.11504092E-01 0.17666142E+03</pdfrwt>
<totfact> 0.95713298E+02</totfact>
</mgrwt>
</event>
<event>
 4    1  0.3761914E-001  0.1804098E+03  0.7546771E-02  0.1167407E+00
          1   -1    0    0  502    0  0.00000000000E+00  0.00000000000E+00  0.78564052769E+03  0.78564052769E+03  0.00000000000E+00 0.  1.
         -1   -1    0    0    0  501 -0.00000000000E+00 -0.00000000000E+00 -0.41660062923E+02  0.41660062923E+02  0.00000000000E+00 0. -1.
          6    1    1    2  502    0 -0.53575287939E+02  0.96634183285E+01  0.34113243500E+03  0.38590028679E+03  0.17200000000E+03 0. -1.
         -6    1    1    2    0  501  0.53575287939E+02 -0.96634183285E+01  0.40284802976E+03  0.44140030382E+03  0.17200000000E+03 0. -1.
<mgrwt>
<rscale>  2 0.18040979E+03</rscale>
<asrwt>0</asrwt>
<pdfrwt beam="1">  1        1 0.19641008E+00 0.18040979E+03</pdfrwt>
<pdfrwt beam="2">  1       -1 0.10415018E-01 0.18040979E+03</pdfrwt>
<totfact> 0.58697458E+02</totfact>
</mgrwt>
</event>
<event>
 4    1  0.3761914E-001  0.3260737E+03  0.7546771E-02  0.1072887E+00
         -2   -1    0    0    0  501 -0.00000000000E+00  0.00000000000E+00  0.98075567472E+02  0.98075567472E+02  0.00000000000E+00 0. -1.
          2   -1    0    0  502    0  0.00000000000E+00 -0.00000000000E+00 -0.11255617073E+04  0.11255617073E+04  0.00000000000E+00 0.  1.
          6    1    1    2  502    0 -0.17420322936E+03 -0.21539099016E+03 -0.63116372316E+03  0.71041656033E+03  0.17200000000E+03 0. -1.
         -6    1    1    2    0  501  0.17420322936E+03  0.21539099016E+03 -0.39632241663E+03  0.51322071439E+03  0.17200000000E+03 0. -1.
<mgrwt>
<rscale>  2 0.32607368E+03</rscale>
<asrwt>0</asrwt>
<pdfrwt beam="1">  1        2 0.28139043E+00 0.32607368E+03</pdfrwt>
<pdfrwt beam="2">  1       -2 0.24518892E-01 0.32607368E+03</pdfrwt>
<totfact> 0.13387189E+02</totfact>
</mgrwt>
</event>
<event>
 4    1  0.3761914E-001  0.1821832E+03  0.7546771E-02  0.1165707E+00
         -2   -1    0    0    0  501 -0.00000000000E+00  0.00000000000E+00  0.21301153655E+02  0.21301153655E+02  0.00000000000E+00 0.  1.
          2   -1    0    0  502    0  0.00000000000E+00 -0.00000000000E+00 -0.18252826160E+04  0.18252826160E+04  0.00000000000E+00 0. -1.
          6    1    1    2  502    0 -0.20858311097E+02  0.56317344244E+02 -0.54878705718E+03  0.57823692941E+03  0.17200000000E+03 0.  1.
         -6    1    1    2    0  501  0.20858311097E+02 -0.56317344244E+02 -0.12551944052E+04  0.12683468403E+04  0.17200000000E+03 0. -1.
<mgrwt>
<rscale>  2 0.18218318E+03</rscale>
<asrwt>0</asrwt>
<pdfrwt beam="1">  1        2 0.45632068E+00 0.18218318E+03</pdfrwt>
<pdfrwt beam="2">  1       -2 0.53252881E-02 0.18218318E+03</pdfrwt>
<totfact> 0.39903709E+02</totfact>
</mgrwt>
</event>
<event>
 4    1  0.3761914E-001  0.2609756E+03  0.7546771E-02  0.1106558E+00
         -2   -1    0    0    0  501 -0.00000000000E+00  0.00000000000E+00  0.18115712367E+03  0.18115712367E+03  0.00000000000E+00 0. -1.
          2   -1    0    0  502    0  0.00000000000E+00 -0.00000000000E+00 -0.39173355160E+03  0.39173355160E+03  0.00000000000E+00 0.  1.
          6    1    1    2  502    0  0.81025822888E+02 -0.17877104921E+03 -0.47813384094E+02  0.26531941450E+03  0.17200000000E+03 0. -1.
         -6    1    1    2    0  501 -0.81025822888E+02  0.17877104921E+03 -0.16276304384E+03  0.30757126077E+03  0.17200000000E+03 0. -1.
<mgrwt>
<rscale>  2 0.26097562E+03</rscale>
<asrwt>0</asrwt>
<pdfrwt beam="1">  1        2 0.97933387E-01 0.26097562E+03</pdfrwt>
<pdfrwt beam="2">  1       -2 0.45289281E-01 0.26097562E+03</pdfrwt>
<totfact> 0.22234583E+02</totfact>
</mgrwt>
</event>
<event>
 4    1  0.3761914E-001  0.1727636E+03  0.7546771E-02  0.1174996E+00
         -2   -1    0    0    0  501 -0.00000000000E+00  0.00000000000E+00  0.29394338388E+02  0.29394338388E+02  0.00000000000E+00 0. -1.
          2   -1    0    0  502    0  0.00000000000E+00 -0.00000000000E+00 -0.10355580550E+04  0.10355580550E+04  0.00000000000E+00 0.  1.
          6    1    1    2  502    0 -0.44897308222E+01 -0.15591329282E+02 -0.57735824505E+03  0.60265229641E+03  0.17200000000E+03 0.  1.
         -6    1    1    2    0  501  0.44897308222E+01  0.15591329282E+02 -0.42880547156E+03  0.46230009698E+03  0.17200000000E+03 0. -1.
<mgrwt>
<rscale>  2 0.17276356E+03</rscale>
<asrwt>0</asrwt>
<pdfrwt beam="1">  1        2 0.25888949E+00 0.17276356E+03</pdfrwt>
<pdfrwt beam="2">  1       -2 0.73485854E-02 0.17276356E+03</pdfrwt>
<totfact> 0.11901094E+03</totfact>
</mgrwt>
</event>
