<event>
 6    1  0.9399121E-004  0.4153503E+03  0.7818608E-02  0.1038691E+00
         21   -1    0    0  503  502  0.00000000000E+00  0.00000000000E+00  0.28686582527E+03  0.28686582527E+03  0.00000000000E+00 0.  1.
         21   -1    0    0  501  503 -0.00000000000E+00 -0.00000000000E+00 -0.11048417197E+04  0.11048417197E+04  0.00000000000E+00 0.  1.
    9000007    2    1    2  501    0 -0.22204841470E+02 -0.10492022283E+03 -0.87987212120E+03  0.97298036529E+03  0.40126616283E+03 0.  0.
    9000005    1    3    3    0    0  0.11315313472E+03 -0.19873222728E+03 -0.65840552698E+03  0.69699136868E+03  0.99999687468E+00 0.  0.
          4    1    3    3  501    0 -0.13535797619E+03  0.93812004454E+02 -0.22146659422E+03  0.27598899661E+03  0.00000000000E+00 0.  1.
   -9000007    1    1    2    0  502  0.22204841470E+02  0.10492022283E+03  0.61896226747E+02  0.41872717971E+03  0.40000000000E+03 0.  1.
<mgrwt>
<rscale>  2 0.41504415E+03</rscale>
<asrwt>0</asrwt>
<pdfrwt beam="1">  1       21 0.44133203E-01 0.41535026E+03</pdfrwt>
<pdfrwt beam="2">  1       21 0.16997565E+00 0.41535026E+03</pdfrwt>
<totfact> 0.89747534E+02</totfact>
</mgrwt>
</event>
<event>
 6    1  0.9399121E-004  0.4237092E+03  0.7818608E-02  0.1036006E+00
         21   -1    0    0  503  502  0.00000000000E+00  0.00000000000E+00  0.95315493026E+03  0.95315493026E+03  0.00000000000E+00 0.  1.
         21   -1    0    0  501  503 -0.00000000000E+00 -0.00000000000E+00 -0.54048119724E+03  0.54048119724E+03  0.00000000000E+00 0.  1.
    9000007    2    1    2  501    0  0.89361447466E+01  0.13408987071E+03 -0.39697812028E+03  0.58062130196E+03  0.40183270175E+03 0.  0.
    9000005    1    3    3    0    0 -0.14175565538E+03 -0.74546221586E+02 -0.20169872248E+03  0.25755616791E+03  0.99999687468E+00 0.  0.
          4    1    3    3  501    0  0.15069180013E+03  0.20863609230E+03 -0.19527939780E+03  0.32306513405E+03  0.00000000000E+00 0.  1.
   -9000007    1    1    2    0  502 -0.89361447466E+01 -0.13408987071E+03  0.80965185329E+03  0.91301482554E+03  0.40000000000E+03 0.  1.
<mgrwt>
<rscale>  2 0.42327409E+03</rscale>
<asrwt>0</asrwt>
<pdfrwt beam="1">  1       21 0.14663922E+00 0.42370918E+03</pdfrwt>
<pdfrwt beam="2">  1       21 0.83150953E-01 0.42370918E+03</pdfrwt>
<totfact> 0.33449876E+02</totfact>
</mgrwt>
</event>
<event>
 6    1  0.9399121E-004  0.5950325E+03  0.7818608E-02  0.9915841E-01
         21   -1    0    0  503  502  0.00000000000E+00  0.00000000000E+00  0.21032335631E+03  0.21032335631E+03  0.00000000000E+00 0. -1.
         21   -1    0    0  501  503 -0.00000000000E+00 -0.00000000000E+00 -0.16877879813E+04  0.16877879813E+04  0.00000000000E+00 0.  1.
    9000007    2    1    2  501    0  0.32001518090E+03  0.30246347352E+03 -0.68838678471E+03  0.90991211335E+03  0.40021221850E+03 0.  0.
    9000005    1    3    3    0    0  0.20514162469E+03  0.33875157164E+03 -0.28232768130E+03  0.48635957181E+03  0.99999687468E+00 0.  0.
          4    1    3    3  501    0  0.11487355621E+03 -0.36288098118E+02 -0.40605910341E+03  0.42355254154E+03  0.00000000000E+00 0.  1.
   -9000007    1    1    2    0  502 -0.32001518090E+03 -0.30246347352E+03 -0.78907784027E+03  0.98819922426E+03  0.40000000000E+03 0.  1.
<mgrwt>
<rscale>  2 0.59499683E+03</rscale>
<asrwt>0</asrwt>
<pdfrwt beam="1">  1       21 0.32357439E-01 0.59503251E+03</pdfrwt>
<pdfrwt beam="2">  1       21 0.25965969E+00 0.59503251E+03</pdfrwt>
<totfact> 0.40387233E+02</totfact>
</mgrwt>
</event>
<event>
 6    1  0.9399121E-004  0.4272029E+03  0.7818608E-02  0.1034891E+00
         21   -1    0    0  503  502  0.00000000000E+00  0.00000000000E+00  0.40538283349E+03  0.40538283349E+03  0.00000000000E+00 0. -1.
         21   -1    0    0  501  503 -0.00000000000E+00 -0.00000000000E+00 -0.11451586268E+04  0.11451586268E+04  0.00000000000E+00 0. -1.
    9000007    2    1    2  501    0  0.45214380397E+02  0.13757056453E+03 -0.97496392673E+03  0.10644514908E+04  0.40191083259E+03 0.  0.
    9000005    1    3    3    0    0 -0.10799468298E+03  0.70996334359E+02 -0.83947093119E+03  0.84936198134E+03  0.99999687468E+00 0.  0.
          4    1    3    3  501    0  0.15320906338E+03  0.66574230169E+02 -0.13549299554E+03  0.21508950942E+03  0.00000000000E+00 0.  1.
   -9000007    1    1    2    0  502 -0.45214380397E+02 -0.13757056453E+03  0.23518813338E+03  0.48608996955E+03  0.40000000000E+03 0. -1.
<mgrwt>
<rscale>  2 0.42675289E+03</rscale>
<asrwt>0</asrwt>
<pdfrwt beam="1">  1       21 0.62366590E-01 0.42720290E+03</pdfrwt>
<pdfrwt beam="2">  1       21 0.17617825E+00 0.42720290E+03</pdfrwt>
<totfact> 0.38394216E+02</totfact>
</mgrwt>
</event>
<event>
 6    1  0.9399121E-004  0.4739586E+03  0.7818608E-02  0.1020833E+00
         21   -1    0    0  503  502  0.00000000000E+00  0.00000000000E+00  0.95864044072E+03  0.95864044072E+03  0.00000000000E+00 0.  1.
         21   -1    0    0  501  503 -0.00000000000E+00 -0.00000000000E+00 -0.76437887213E+03  0.76437887213E+03  0.00000000000E+00 0.  1.
    9000007    2    1    2  501    0 -0.34737101565E+02  0.25185322309E+03 -0.62040238997E+03  0.78051516029E+03  0.39958488178E+03 0.  0.
    9000005    1    3    3    0    0 -0.46750345150E+02 -0.10200600093E+03 -0.95435740551E+02  0.14730851831E+03  0.99999687468E+00 0.  0.
          4    1    3    3  501    0  0.12013243585E+02  0.35385922402E+03 -0.52496664942E+03  0.63320664198E+03  0.00000000000E+00 0.  1.
   -9000007    1    1    2    0  502  0.34737101565E+02 -0.25185322309E+03  0.81466395857E+03  0.94250415256E+03  0.40000000000E+03 0.  1.
<mgrwt>
<rscale>  2 0.47387096E+03</rscale>
<asrwt>0</asrwt>
<pdfrwt beam="1">  1       21 0.14748314E+00 0.47395856E+03</pdfrwt>
<pdfrwt beam="2">  1       21 0.11759675E+00 0.47395856E+03</pdfrwt>
<totfact> 0.13865322E+02</totfact>
</mgrwt>
</event>
<event>
 6    1  0.9399121E-004  0.4028582E+03  0.7818608E-02  0.1042855E+00
         21   -1    0    0  503  502  0.00000000000E+00  0.00000000000E+00  0.47489492324E+03  0.47489492324E+03  0.00000000000E+00 0.  1.
         21   -1    0    0  501  503 -0.00000000000E+00 -0.00000000000E+00 -0.83411721338E+03  0.83411721338E+03  0.00000000000E+00 0.  1.
    9000007    2    1    2  501    0  0.70902024143E+00  0.41505561197E+02 -0.68284104322E+03  0.79282194719E+03  0.40071378229E+03 0.  0.
    9000005    1    3    3    0    0 -0.15737297068E+03 -0.10230944127E+03 -0.28606647826E+03  0.34215274901E+03  0.99999687468E+00 0.  0.
          4    1    3    3  501    0  0.15808199092E+03  0.14381500247E+03 -0.39677456496E+03  0.45066919818E+03  0.00000000000E+00 0.  1.
   -9000007    1    1    2    0  502 -0.70902024143E+00 -0.41505561197E+02  0.32361875309E+03  0.51619018944E+03  0.40000000000E+03 0.  1.
<mgrwt>
<rscale>  2 0.40268061E+03</rscale>
<asrwt>0</asrwt>
<pdfrwt beam="1">  1       21 0.73060758E-01 0.40285823E+03</pdfrwt>
<pdfrwt beam="2">  1       21 0.12832572E+00 0.40285823E+03</pdfrwt>
<totfact> 0.64624054E+02</totfact>
</mgrwt>
</event>
<event>
 6    1  0.9399121E-004  0.4364721E+03  0.7818608E-02  0.1032867E+00
         21   -1    0    0  503  502  0.00000000000E+00  0.00000000000E+00  0.88910905597E+03  0.88910905597E+03  0.00000000000E+00 0.  1.
         21   -1    0    0  501  503 -0.00000000000E+00 -0.00000000000E+00 -0.24266412450E+03  0.24266412450E+03  0.00000000000E+00 0.  1.
    9000007    2    1    2  501    0 -0.12889440521E+03  0.51228778184E+02  0.11322354963E+03  0.45091842544E+03  0.41384743421E+03 0.  0.
    9000005    1    3    3    0    0 -0.73665883342E+02  0.22730568930E+03  0.11762840440E+03  0.26633058456E+03  0.99999687468E+00 0.  0.
          4    1    3    3  501    0 -0.55228521866E+02 -0.17607691112E+03 -0.44048547659E+01  0.18458784088E+03  0.00000000000E+00 0.  1.
   -9000007    1    1    2    0  502  0.12889440521E+03 -0.51228778184E+02  0.53322138183E+03  0.68085475503E+03  0.40000000000E+03 0.  1.
<mgrwt>
<rscale>  2 0.43315780E+03</rscale>
<asrwt>0</asrwt>
<pdfrwt beam="1">  1       21 0.13678601E+00 0.43647205E+03</pdfrwt>
<pdfrwt beam="2">  1       21 0.37332943E-01 0.43647205E+03</pdfrwt>
<totfact> 0.22737357E+03</totfact>
</mgrwt>
</event>
<event>
 6    1  0.9399121E-004  0.4536281E+03  0.7818608E-02  0.1026665E+00
         21   -1    0    0  503  502  0.00000000000E+00  0.00000000000E+00  0.73288626949E+03  0.73288626949E+03  0.00000000000E+00 0. -1.
         21   -1    0    0  501  503 -0.00000000000E+00 -0.00000000000E+00 -0.29734389743E+03  0.29734389743E+03  0.00000000000E+00 0. -1.
    9000007    2    1    2  501    0 -0.11221206674E+03 -0.18217267155E+03  0.95521001040E+02  0.46331486202E+03  0.39969734743E+03 0.  0.
    9000005    1    3    3    0    0 -0.16151147281E+03 -0.28477699086E+03  0.11662182632E+03  0.34754214240E+03  0.99999687468E+00 0.  0.
          4    1    3    3  501    0  0.49299406074E+02  0.10260431931E+03 -0.21100825276E+02  0.11577271962E+03  0.00000000000E+00 0.  1.
   -9000007    1    1    2    0  502  0.11221206674E+03  0.18217267155E+03  0.34002137102E+03  0.56691530490E+03  0.40000000000E+03 0. -1.
<mgrwt>
<rscale>  2 0.45356135E+03</rscale>
<asrwt>0</asrwt>
<pdfrwt beam="1">  1       21 0.11275173E+00 0.45362807E+03</pdfrwt>
<pdfrwt beam="2">  1       21 0.45745215E-01 0.45362807E+03</pdfrwt>
<totfact> 0.24335035E+03</totfact>
</mgrwt>
</event>
<event>
 6    1  0.9399121E-004  0.4342140E+03  0.7818608E-02  0.1032564E+00
         21   -1    0    0  503  502  0.00000000000E+00  0.00000000000E+00  0.24515314198E+03  0.24515314198E+03  0.00000000000E+00 0.  1.
         21   -1    0    0  501  503 -0.00000000000E+00 -0.00000000000E+00 -0.84142208341E+03  0.84142208341E+03  0.00000000000E+00 0.  1.
    9000007    2    1    2  501    0  0.10337804507E+03 -0.13249668886E+03 -0.45821732036E+03  0.63127242193E+03  0.40037403169E+03 0.  0.
    9000005    1    3    3    0    0 -0.11418037662E+02  0.82208521306E+02  0.27921838474E+02  0.87574206345E+02  0.99999687468E+00 0.  0.
          4    1    3    3  501    0  0.11479608273E+03 -0.21470521016E+03 -0.48613915883E+03  0.54369821559E+03  0.00000000000E+00 0.  1.
   -9000007    1    1    2    0  502 -0.10337804507E+03  0.13249668886E+03 -0.13805162107E+03  0.45530280346E+03  0.40000000000E+03 0.  1.
<mgrwt>
<rscale>  2 0.43412771E+03</rscale>
<asrwt>0</asrwt>
<pdfrwt beam="1">  1       21 0.37715867E-01 0.43421395E+03</pdfrwt>
<pdfrwt beam="2">  1       21 0.12944955E+00 0.43421395E+03</pdfrwt>
<totfact> 0.25732200E+03</totfact>
</mgrwt>
</event>
<event>
 6    1  0.9399121E-004  0.4075579E+03  0.7818608E-02  0.1041213E+00
         21   -1    0    0  503  502  0.00000000000E+00  0.00000000000E+00  0.10758385070E+03  0.10758385070E+03  0.00000000000E+00 0. -1.
         21   -1    0    0  501  503 -0.00000000000E+00 -0.00000000000E+00 -0.17591472137E+04  0.17591472137E+04  0.00000000000E+00 0. -1.
    9000007    2    1    2  501    0 -0.20171660920E+02  0.75475383173E+02 -0.11526952180E+04  0.12225471966E+04  0.39976487222E+03 0.  0.
    9000005    1    3    3    0    0 -0.20680151609E+03  0.55534189810E+02 -0.71319192136E+03  0.74464396190E+03  0.99999687468E+00 0.  0.
          4    1    3    3  501    0  0.18662985517E+03  0.19941193363E+02 -0.43950329663E+03  0.47790323475E+03  0.00000000000E+00 0.  1.
   -9000007    1    1    2    0  502  0.20171660920E+02 -0.75475383173E+02 -0.49886814498E+03  0.64418386774E+03  0.40000000000E+03 0. -1.
<mgrwt>
<rscale>  2 0.40750018E+03</rscale>
<asrwt>0</asrwt>
<pdfrwt beam="1">  1       21 0.16551362E-01 0.40755788E+03</pdfrwt>
<pdfrwt beam="2">  1       21 0.27063802E+00 0.40755788E+03</pdfrwt>
<totfact> 0.13851728E+03</totfact>
</mgrwt>
</event>
<event>
 6    1  0.9399121E-004  0.4206169E+03  0.7818608E-02  0.1036913E+00
         21   -1    0    0  503  502  0.00000000000E+00  0.00000000000E+00  0.17138793068E+04  0.17138793068E+04  0.00000000000E+00 0.  1.
         21   -1    0    0  501  503 -0.00000000000E+00 -0.00000000000E+00 -0.15098402140E+03  0.15098402140E+03  0.00000000000E+00 0.  1.
    9000007    2    1    2  501    0 -0.12344958940E+03 -0.34508107128E+02  0.25662572258E+03  0.49272238014E+03  0.40060950041E+03 0.  0.
    9000005    1    3    3    0    0  0.61651677432E+02  0.12514245411E+03  0.19651631455E+03  0.24100046687E+03  0.99999687468E+00 0.  0.
          4    1    3    3  501    0 -0.18510126683E+03 -0.15965056124E+03  0.60109408028E+02  0.25172191327E+03  0.00000000000E+00 0.  1.
   -9000007    1    1    2    0  502  0.12344958940E+03  0.34508107128E+02  0.13062695629E+04  0.13721409481E+04  0.40000000000E+03 0.  1.
<mgrwt>
<rscale>  2 0.42047171E+03</rscale>
<asrwt>0</asrwt>
<pdfrwt beam="1">  1       21 0.26367373E+00 0.42061691E+03</pdfrwt>
<pdfrwt beam="2">  1       21 0.23228312E-01 0.42061691E+03</pdfrwt>
<totfact> 0.79666568E+02</totfact>
</mgrwt>
</event>
<event>
 6    1  0.9399121E-004  0.4558298E+03  0.7818608E-02  0.1026015E+00
         21   -1    0    0  503  502  0.00000000000E+00  0.00000000000E+00  0.15088004985E+03  0.15088004985E+03  0.00000000000E+00 0. -1.
         21   -1    0    0  501  503 -0.00000000000E+00 -0.00000000000E+00 -0.14093970600E+04  0.14093970600E+04  0.00000000000E+00 0.  1.
    9000007    2    1    2  501    0  0.17712559243E+03 -0.12809127705E+03 -0.74844098815E+03  0.87620226089E+03  0.39973195832E+03 0.  0.
    9000005    1    3    3    0    0  0.32050959862E+02  0.13517005878E+03 -0.13824296587E+03  0.19598552606E+03  0.99999687468E+00 0.  0.
          4    1    3    3  501    0  0.14507463257E+03 -0.26326133583E+03 -0.61019802228E+03  0.68021673484E+03  0.00000000000E+00 0.  1.
   -9000007    1    1    2    0  502 -0.17712559243E+03  0.12809127705E+03 -0.51007602199E+03  0.68407484895E+03  0.40000000000E+03 0. -1.
<mgrwt>
<rscale>  2 0.45577104E+03</rscale>
<asrwt>0</asrwt>
<pdfrwt beam="1">  1       21 0.23212316E-01 0.45582985E+03</pdfrwt>
<pdfrwt beam="2">  1       21 0.21683031E+00 0.45582985E+03</pdfrwt>
<totfact> 0.15322948E+03</totfact>
</mgrwt>
</event>
<event>
 6    1  0.9399121E-004  0.4795187E+03  0.7818608E-02  0.1019271E+00
         21   -1    0    0  503  502  0.00000000000E+00  0.00000000000E+00  0.52227978745E+03  0.52227978745E+03  0.00000000000E+00 0. -1.
         21   -1    0    0  501  503 -0.00000000000E+00 -0.00000000000E+00 -0.87402721977E+03  0.87402721977E+03  0.00000000000E+00 0.  1.
    9000007    2    1    2  501    0 -0.11020405931E+03  0.24040236228E+03 -0.66773116725E+03  0.82203881968E+03  0.39993084259E+03 0.  0.
    9000005    1    3    3    0    0  0.60721173748E+02 -0.52239677565E+02 -0.34456217317E+03  0.35375151735E+03  0.99999687468E+00 0.  0.
          4    1    3    3  501    0 -0.17092523306E+03  0.29264203985E+03 -0.32316899408E+03  0.46828730232E+03  0.00000000000E+00 0.  1.
   -9000007    1    1    2    0  502  0.11020405931E+03 -0.24040236228E+03  0.31598373494E+03  0.57426818754E+03  0.40000000000E+03 0. -1.
<mgrwt>
<rscale>  2 0.47950433E+03</rscale>
<asrwt>0</asrwt>
<pdfrwt beam="1">  1       21 0.80350737E-01 0.47951875E+03</pdfrwt>
<pdfrwt beam="2">  1       21 0.13446572E+00 0.47951875E+03</pdfrwt>
<totfact> 0.44423709E+02</totfact>
</mgrwt>
</event>
<event>
 6    1  0.9399121E-004  0.5281520E+03  0.7818608E-02  0.1006745E+00
         21   -1    0    0  503  502  0.00000000000E+00  0.00000000000E+00  0.57151530144E+03  0.57151530144E+03  0.00000000000E+00 0. -1.
         21   -1    0    0  501  503 -0.00000000000E+00 -0.00000000000E+00 -0.56438140830E+03  0.56438140830E+03  0.00000000000E+00 0. -1.
    9000007    2    1    2  501    0  0.33413246814E+03 -0.78715934651E+02  0.21371745339E+03  0.56975408460E+03  0.40137745627E+03 0.  0.
    9000005    1    3    3    0    0  0.26252973638E+03 -0.21379231737E+03  0.44139363006E+02  0.34143564667E+03  0.99999687468E+00 0.  0.
          4    1    3    3  501    0  0.71602731751E+02  0.13507638272E+03  0.16957809038E+03  0.22831843794E+03  0.00000000000E+00 0.  1.
   -9000007    1    1    2    0  502 -0.33413246814E+03  0.78715934651E+02 -0.20658356026E+03  0.56614262514E+03  0.40000000000E+03 0. -1.
<mgrwt>
<rscale>  2 0.52789032E+03</rscale>
<asrwt>0</asrwt>
<pdfrwt beam="1">  1       21 0.87925431E-01 0.52815203E+03</pdfrwt>
<pdfrwt beam="2">  1       21 0.86827909E-01 0.52815203E+03</pdfrwt>
<totfact> 0.10467303E+03</totfact>
</mgrwt>
</event>
<event>
 6    1  0.9399121E-004  0.6195071E+03  0.7818608E-02  0.9865800E-01
         21   -1    0    0  503  502  0.00000000000E+00  0.00000000000E+00  0.94668962916E+03  0.94668962916E+03  0.00000000000E+00 0.  1.
         21   -1    0    0  501  503 -0.00000000000E+00 -0.00000000000E+00 -0.43860802665E+03  0.43860802665E+03  0.00000000000E+00 0. -1.
    9000007    2    1    2  501    0 -0.12862889819E+03  0.45508142103E+03  0.63258803389E+02  0.62272843546E+03  0.40018062785E+03 0.  0.
    9000005    1    3    3    0    0  0.11654610223E+03  0.60614764238E+02  0.87173475160E+02  0.15766216526E+03  0.99999687468E+00 0.  0.
          4    1    3    3  501    0 -0.24517500042E+03  0.39446665679E+03 -0.23914671771E+02  0.46506627020E+03  0.00000000000E+00 0.  1.
   -9000007    1    1    2    0  502  0.12862889819E+03 -0.45508142103E+03  0.44482279912E+03  0.76256922035E+03  0.40000000000E+03 0. -1.
<mgrwt>
<rscale>  2 0.61947792E+03</rscale>
<asrwt>0</asrwt>
<pdfrwt beam="1">  1       21 0.14564456E+00 0.61950708E+03</pdfrwt>
<pdfrwt beam="2">  1       21 0.67478158E-01 0.61950708E+03</pdfrwt>
<totfact> 0.50732924E+02</totfact>
</mgrwt>
</event>
<event>
 6    1  0.9399121E-004  0.5871555E+03  0.7818608E-02  0.9933839E-01
         21   -1    0    0  503  502  0.00000000000E+00  0.00000000000E+00  0.37569792529E+03  0.37569792529E+03  0.00000000000E+00 0.  1.
         21   -1    0    0  501  503 -0.00000000000E+00 -0.00000000000E+00 -0.12068249359E+04  0.12068249359E+04  0.00000000000E+00 0. -1.
    9000007    2    1    2  501    0  0.32335057901E+03 -0.28318901267E+03 -0.80495950755E+03  0.99478452481E+03  0.39608689473E+03 0.  0.
    9000005    1    3    3    0    0 -0.58819917245E+02 -0.25219484800E+02 -0.31715802224E+03  0.32355218457E+03  0.99999687468E+00 0.  0.
          4    1    3    3  501    0  0.38217049625E+03 -0.25796952787E+03 -0.48780148531E+03  0.67123234024E+03  0.00000000000E+00 0.  1.
   -9000007    1    1    2    0  502 -0.32335057901E+03  0.28318901267E+03 -0.26167503075E+02  0.58773833639E+03  0.40000000000E+03 0. -1.
<mgrwt>
<rscale>  2 0.58648970E+03</rscale>
<asrwt>0</asrwt>
<pdfrwt beam="1">  1       21 0.57799682E-01 0.58715553E+03</pdfrwt>
<pdfrwt beam="2">  1       21 0.18566537E+00 0.58715553E+03</pdfrwt>
<totfact> 0.36257233E+02</totfact>
</mgrwt>
</event>
<event>
 6    1  0.9399121E-004  0.4502248E+03  0.7818608E-02  0.1027864E+00
         21   -1    0    0  503  502  0.00000000000E+00  0.00000000000E+00  0.21946867264E+03  0.21946867264E+03  0.00000000000E+00 0. -1.
         21   -1    0    0  501  503 -0.00000000000E+00 -0.00000000000E+00 -0.14962254854E+04  0.14962254854E+04  0.00000000000E+00 0.  1.
    9000007    2    1    2  501    0  0.19222335927E+03 -0.75845385925E+02 -0.11704978022E+04  0.12531000382E+04  0.39685294302E+03 0.  0.
    9000005    1    3    3    0    0 -0.69473121888E+02 -0.54280496783E+02 -0.48182249099E+02  0.10047594796E+03  0.99999687468E+00 0.  0.
          4    1    3    3  501    0  0.26169648116E+03 -0.21564889142E+02 -0.11223155531E+04  0.11526240902E+04  0.00000000000E+00 0.  1.
   -9000007    1    1    2    0  502 -0.19222335927E+03  0.75845385925E+02 -0.10625901061E+03  0.46259411988E+03  0.40000000000E+03 0. -1.
<mgrwt>
<rscale>  2 0.44952472E+03</rscale>
<asrwt>0</asrwt>
<pdfrwt beam="1">  1       21 0.33764411E-01 0.45022477E+03</pdfrwt>
<pdfrwt beam="2">  1       21 0.23018854E+00 0.45022477E+03</pdfrwt>
<totfact> 0.60349198E+02</totfact>
</mgrwt>
</event>
<event>
 6    1  0.9399121E-004  0.4619698E+03  0.7818608E-02  0.1024221E+00
         21   -1    0    0  503  502  0.00000000000E+00  0.00000000000E+00  0.24937827690E+03  0.24937827690E+03  0.00000000000E+00 0. -1.
         21   -1    0    0  501  503 -0.00000000000E+00 -0.00000000000E+00 -0.92139507145E+03  0.92139507145E+03  0.00000000000E+00 0. -1.
    9000007    2    1    2  501    0 -0.80677022183E+02 -0.21658092001E+03 -0.49245144425E+03  0.67513255922E+03  0.39984931007E+03 0.  0.
    9000005    1    3    3    0    0 -0.46261821274E+02 -0.32180387502E+03 -0.45302935177E+03  0.55761499590E+03  0.99999687468E+00 0.  0.
          4    1    3    3  501    0 -0.34415200909E+02  0.10522295501E+03 -0.39422092475E+02  0.11751756333E+03  0.00000000000E+00 0.  1.
   -9000007    1    1    2    0  502  0.80677022183E+02  0.21658092001E+03 -0.17956535030E+03  0.49564078913E+03  0.40000000000E+03 0. -1.
<mgrwt>
<rscale>  2 0.46193716E+03</rscale>
<asrwt>0</asrwt>
<pdfrwt beam="1">  1       21 0.38365889E-01 0.46196978E+03</pdfrwt>
<pdfrwt beam="2">  1       21 0.14175309E+00 0.46196978E+03</pdfrwt>
<totfact> 0.19365393E+03</totfact>
</mgrwt>
</event>
<event>
 6    1  0.9399121E-004  0.4438985E+03  0.7818608E-02  0.1029571E+00
         21   -1    0    0  503  502  0.00000000000E+00  0.00000000000E+00  0.80530438488E+03  0.80530438488E+03  0.00000000000E+00 0. -1.
         21   -1    0    0  501  503 -0.00000000000E+00 -0.00000000000E+00 -0.34781772232E+03  0.34781772232E+03  0.00000000000E+00 0. -1.
    9000007    2    1    2  501    0 -0.14667944914E+03  0.12462348192E+03 -0.85402102211E+02  0.45185604930E+03  0.39979306795E+03 0.  0.
    9000005    1    3    3    0    0 -0.41692786589E+02  0.24614251371E+03 -0.13495784447E+03  0.28379401911E+03  0.99999687468E+00 0.  0.
          4    1    3    3  501    0 -0.10498666255E+03 -0.12151903178E+03  0.49555742258E+02  0.16806203019E+03  0.00000000000E+00 0.  1.
   -9000007    1    1    2    0  502  0.14667944914E+03 -0.12462348192E+03  0.54288876477E+03  0.70126605790E+03  0.40000000000E+03 0. -1.
<mgrwt>
<rscale>  2 0.44385187E+03</rscale>
<asrwt>0</asrwt>
<pdfrwt beam="1">  1       21 0.12389298E+00 0.44389849E+03</pdfrwt>
<pdfrwt beam="2">  1       21 0.53510419E-01 0.44389849E+03</pdfrwt>
<totfact> 0.13798420E+03</totfact>
</mgrwt>
</event>
<event>
 6    1  0.9399121E-004  0.4477326E+03  0.7818608E-02  0.1028446E+00
         21   -1    0    0  503  502  0.00000000000E+00  0.00000000000E+00  0.37510960960E+03  0.37510960960E+03  0.00000000000E+00 0.  1.
         21   -1    0    0  501  503 -0.00000000000E+00 -0.00000000000E+00 -0.13816863046E+04  0.13816863046E+04  0.00000000000E+00 0. -1.
    9000007    2    1    2  501    0  0.72120624569E+02 -0.18778469359E+03 -0.11913051687E+04  0.12724519408E+04  0.39932625895E+03 0.  0.
    9000005    1    3    3    0    0  0.33166046237E+02  0.49305173501E+02 -0.86599387301E+03  0.86803074534E+03  0.99999687468E+00 0.  0.
          4    1    3    3  501    0  0.38954578332E+02 -0.23708986709E+03 -0.32531129564E+03  0.40442119545E+03  0.00000000000E+00 0.  1.
   -9000007    1    1    2    0  502 -0.72120624569E+02  0.18778469359E+03  0.18472847364E+03  0.48434397344E+03  0.40000000000E+03 0.  1.
<mgrwt>
<rscale>  2 0.44758207E+03</rscale>
<asrwt>0</asrwt>
<pdfrwt beam="1">  1       21 0.57709171E-01 0.44773259E+03</pdfrwt>
<pdfrwt beam="2">  1       21 0.21256712E+00 0.44773259E+03</pdfrwt>
<totfact> 0.25527501E+02</totfact>
</mgrwt>
</event>
<event>
 6    1  0.9399121E-004  0.4788149E+03  0.7818608E-02  0.1019608E+00
         21   -1    0    0  503  502  0.00000000000E+00  0.00000000000E+00  0.58568531237E+03  0.58568531237E+03  0.00000000000E+00 0. -1.
         21   -1    0    0  501  503 -0.00000000000E+00 -0.00000000000E+00 -0.40132292079E+03  0.40132292079E+03  0.00000000000E+00 0. -1.
    9000007    2    1    2  501    0 -0.14079854337E+02  0.25892288559E+03  0.84493857114E+01  0.47888945904E+03  0.40252256941E+03 0.  0.
    9000005    1    3    3    0    0  0.98834718058E+02  0.32595149103E+03 -0.30374405277E+02  0.34195947199E+03  0.99999687468E+00 0.  0.
          4    1    3    3  501    0 -0.11291457239E+03 -0.67028605442E+02  0.38823790988E+02  0.13692998705E+03  0.00000000000E+00 0.  1.
   -9000007    1    1    2    0  502  0.14079854337E+02 -0.25892288559E+03  0.17591300587E+03  0.50811877412E+03  0.40000000000E+03 0. -1.
<mgrwt>
<rscale>  2 0.47828436E+03</rscale>
<asrwt>0</asrwt>
<pdfrwt beam="1">  1       21 0.90105433E-01 0.47881491E+03</pdfrwt>
<pdfrwt beam="2">  1       21 0.61741988E-01 0.47881491E+03</pdfrwt>
<totfact> 0.21849313E+03</totfact>
</mgrwt>
</event>
<event>
 6    1  0.9399121E-004  0.4484883E+03  0.7818608E-02  0.1028777E+00
         21   -1    0    0  503  502  0.00000000000E+00  0.00000000000E+00  0.98907909300E+03  0.98907909300E+03  0.00000000000E+00 0. -1.
         21   -1    0    0  501  503 -0.00000000000E+00 -0.00000000000E+00 -0.26540103125E+03  0.26540103125E+03  0.00000000000E+00 0. -1.
    9000007    2    1    2  501    0  0.12360791430E+03 -0.13700894059E+03  0.52356987099E+02  0.45153407902E+03  0.40876815451E+03 0.  0.
    9000005    1    3    3    0    0  0.17339400761E+03  0.44447594801E+02 -0.10388098052E+03  0.20696214308E+03  0.99999687468E+00 0.  0.
          4    1    3    3  501    0 -0.49786093314E+02 -0.18145653539E+03  0.15623796762E+03  0.24457193594E+03  0.00000000000E+00 0.  1.
   -9000007    1    1    2    0  502 -0.12360791430E+03  0.13700894059E+03  0.67132107465E+03  0.80294604523E+03  0.40000000000E+03 0. -1.
<mgrwt>
<rscale>  2 0.44648067E+03</rscale>
<asrwt>0</asrwt>
<pdfrwt beam="1">  1       21 0.15216601E+00 0.44848832E+03</pdfrwt>
<pdfrwt beam="2">  1       21 0.40830928E-01 0.44848832E+03</pdfrwt>
<totfact> 0.14145268E+03</totfact>
</mgrwt>
</event>
<event>
 6    1  0.9399121E-004  0.4157025E+03  0.7818608E-02  0.1038486E+00
         21   -1    0    0  503  502  0.00000000000E+00  0.00000000000E+00  0.18861930414E+04  0.18861930414E+04  0.00000000000E+00 0. -1.
         21   -1    0    0  501  503 -0.00000000000E+00 -0.00000000000E+00 -0.11323086113E+03  0.11323086113E+03  0.00000000000E+00 0. -1.
    9000007    2    1    2  501    0 -0.10522535544E+03 -0.40256406708E+02  0.44952203684E+03  0.61227330979E+03  0.40014446212E+03 0.  0.
    9000005    1    3    3    0    0  0.77683988719E+02  0.95438113220E+02  0.18044051776E+02  0.12437774462E+03  0.99999687468E+00 0.  0.
          4    1    3    3  501    0 -0.18290934416E+03 -0.13569451993E+03  0.43147798506E+03  0.48789556517E+03  0.00000000000E+00 0.  1.
   -9000007    1    1    2    0  502  0.10522535544E+03  0.40256406708E+02  0.13234401434E+04  0.13871505927E+04  0.40000000000E+03 0. -1.
<mgrwt>
<rscale>  2 0.41566770E+03</rscale>
<asrwt>0</asrwt>
<pdfrwt beam="1">  1       21 0.29018352E+00 0.41570247E+03</pdfrwt>
<pdfrwt beam="2">  1       21 0.17420134E-01 0.41570247E+03</pdfrwt>
<totfact> 0.95627723E+02</totfact>
</mgrwt>
</event>
<event>
 6    1  0.9399121E-004  0.5252905E+03  0.7818608E-02  0.1007382E+00
         21   -1    0    0  503  502  0.00000000000E+00  0.00000000000E+00  0.10832924326E+03  0.10832924326E+03  0.00000000000E+00 0.  1.
         21   -1    0    0  501  503 -0.00000000000E+00 -0.00000000000E+00 -0.26702677687E+04  0.26702677687E+04  0.00000000000E+00 0. -1.
    9000007    2    1    2  501    0 -0.20653277616E+03  0.27063710744E+03 -0.98251019378E+03  0.11141168870E+04  0.40003740504E+03 0.  0.
    9000005    1    3    3    0    0 -0.24960293772E+03  0.19440434007E+03 -0.97636272204E+03  0.10263429441E+04  0.99999687468E+00 0.  0.
          4    1    3    3  501    0  0.43070161559E+02  0.76232767371E+02 -0.61474717409E+01  0.87773942868E+02  0.00000000000E+00 0.  1.
   -9000007    1    1    2    0  502  0.20653277616E+03 -0.27063710744E+03 -0.15794283317E+04  0.16644801250E+04  0.40000000000E+03 0.  1.
<mgrwt>
<rscale>  2 0.52528342E+03</rscale>
<asrwt>0</asrwt>
<pdfrwt beam="1">  1       21 0.16666039E-01 0.52529055E+03</pdfrwt>
<pdfrwt beam="2">  1       21 0.41081039E+00 0.52529055E+03</pdfrwt>
<totfact> 0.17500906E+02</totfact>
</mgrwt>
</event>
<event>
 6    1  0.9399121E-004  0.5346242E+03  0.7818608E-02  0.1005129E+00
         21   -1    0    0  503  502  0.00000000000E+00  0.00000000000E+00  0.25605049157E+03  0.25605049157E+03  0.00000000000E+00 0.  1.
         21   -1    0    0  501  503 -0.00000000000E+00 -0.00000000000E+00 -0.11225866735E+04  0.11225866735E+04  0.00000000000E+00 0. -1.
    9000007    2    1    2  501    0 -0.27939290542E+03  0.21854676846E+03 -0.48664287659E+03  0.72278504068E+03  0.39971720013E+03 0.  0.
    9000005    1    3    3    0    0 -0.32836880789E+03  0.16370978359E+03 -0.52449002655E+03  0.64009198963E+03  0.99999687468E+00 0.  0.
          4    1    3    3  501    0  0.48975902466E+02  0.54836984870E+02  0.37847149958E+02  0.82693051050E+02  0.00000000000E+00 0.  1.
   -9000007    1    1    2    0  502  0.27939290542E+03 -0.21854676846E+03 -0.37989330531E+03  0.65585212436E+03  0.40000000000E+03 0.  1.
<mgrwt>
<rscale>  2 0.53457135E+03</rscale>
<asrwt>0</asrwt>
<pdfrwt beam="1">  1       21 0.39392383E-01 0.53462425E+03</pdfrwt>
<pdfrwt beam="2">  1       21 0.17270564E+00 0.53462425E+03</pdfrwt>
<totfact> 0.10325433E+03</totfact>
</mgrwt>
</event>
<event>
 6    1  0.9399121E-004  0.5641910E+03  0.7818608E-02  0.9982903E-01
         21   -1    0    0  503  502  0.00000000000E+00  0.00000000000E+00  0.11030995302E+04  0.11030995302E+04  0.00000000000E+00 0.  1.
         21   -1    0    0  501  503 -0.00000000000E+00 -0.00000000000E+00 -0.38473171291E+03  0.38473171291E+03  0.00000000000E+00 0.  1.
    9000007    2    1    2  501    0  0.30388885901E+03 -0.25570862281E+03 -0.13133189740E+02  0.56434379778E+03  0.40071948170E+03 0.  0.
    9000005    1    3    3    0    0  0.14061436401E+03 -0.71331880750E+02 -0.20037126853E+03  0.25497113920E+03  0.99999687468E+00 0.  0.
          4    1    3    3  501    0  0.16327449500E+03 -0.18437674206E+03  0.18723807879E+03  0.30937265859E+03  0.00000000000E+00 0.  1.
   -9000007    1    1    2    0  502 -0.30388885901E+03  0.25570862281E+03  0.73150100705E+03  0.92348744535E+03  0.40000000000E+03 0.  1.
<mgrwt>
<rscale>  2 0.56406322E+03</rscale>
<asrwt>0</asrwt>
<pdfrwt beam="1">  1       21 0.16970762E+00 0.56419096E+03</pdfrwt>
<pdfrwt beam="2">  1       21 0.59189495E-01 0.56419096E+03</pdfrwt>
<totfact> 0.45175665E+02</totfact>
</mgrwt>
</event>
<event>
 6    1  0.9399121E-004  0.4202628E+03  0.7818608E-02  0.1036987E+00
         21   -1    0    0  503  502  0.00000000000E+00  0.00000000000E+00  0.68761681406E+03  0.68761681406E+03  0.00000000000E+00 0. -1.
         21   -1    0    0  501  503 -0.00000000000E+00 -0.00000000000E+00 -0.77381435960E+03  0.77381435960E+03  0.00000000000E+00 0. -1.
    9000007    2    1    2  501    0 -0.96568312683E+02  0.85063665981E+02 -0.64037523783E+03  0.76596429385E+03  0.40007447799E+03 0.  0.
    9000005    1    3    3    0    0 -0.20717879868E+03  0.17262455743E+03 -0.33878983971E+03  0.43301483570E+03  0.99999687468E+00 0.  0.
          4    1    3    3  501    0  0.11061048600E+03 -0.87560891445E+02 -0.30158539812E+03  0.33294945815E+03  0.00000000000E+00 0.  1.
   -9000007    1    1    2    0  502  0.96568312683E+02 -0.85063665981E+02  0.55417769230E+03  0.69546687982E+03  0.40000000000E+03 0. -1.
<mgrwt>
<rscale>  2 0.42024511E+03</rscale>
<asrwt>0</asrwt>
<pdfrwt beam="1">  1       21 0.10578720E+00 0.42026284E+03</pdfrwt>
<pdfrwt beam="2">  1       21 0.11904836E+00 0.42026284E+03</pdfrwt>
<totfact> 0.32461809E+02</totfact>
</mgrwt>
</event>
<event>
 6    1  0.9399121E-004  0.4830098E+03  0.7818608E-02  0.1018391E+00
         21   -1    0    0  503  502  0.00000000000E+00  0.00000000000E+00  0.92545429646E+03  0.92545429646E+03  0.00000000000E+00 0.  1.
         21   -1    0    0  501  503 -0.00000000000E+00 -0.00000000000E+00 -0.47405299784E+03  0.47405299784E+03  0.00000000000E+00 0.  1.
    9000007    2    1    2  501    0  0.26143455752E+03  0.61844366378E+02 -0.25362925014E+03  0.54555130703E+03  0.40140463196E+03 0.  0.
    9000005    1    3    3    0    0  0.20731068296E+03  0.21529209238E+03 -0.83914002294E+02  0.31043673121E+03  0.99999687468E+00 0.  0.
          4    1    3    3  501    0  0.54123874568E+02 -0.15344772600E+03 -0.16971524785E+03  0.23511457582E+03  0.00000000000E+00 0.  1.
   -9000007    1    1    2    0  502 -0.26143455752E+03 -0.61844366378E+02  0.70503054875E+03  0.85395598727E+03  0.40000000000E+03 0.  1.
<mgrwt>
<rscale>  2 0.48271783E+03</rscale>
<asrwt>0</asrwt>
<pdfrwt beam="1">  1       21 0.14237758E+00 0.48300976E+03</pdfrwt>
<pdfrwt beam="2">  1       21 0.72931231E-01 0.48300976E+03</pdfrwt>
<totfact> 0.47596914E+02</totfact>
</mgrwt>
</event>
<event>
 6    1  0.9399121E-004  0.5577495E+03  0.7818608E-02  0.9999964E-01
         21   -1    0    0  503  502  0.00000000000E+00  0.00000000000E+00  0.45417432506E+03  0.45417432506E+03  0.00000000000E+00 0. -1.
         21   -1    0    0  501  503 -0.00000000000E+00 -0.00000000000E+00 -0.11417514590E+04  0.11417514590E+04  0.00000000000E+00 0. -1.
    9000007    2    1    2  501    0 -0.38620275037E+03 -0.43953385776E+02 -0.85092868666E+03  0.10147475030E+04  0.39312644355E+03 0.  0.
    9000005    1    3    3    0    0 -0.32588704287E+03  0.88094475799E+02 -0.32298381854E+03  0.46720717932E+03  0.99999687468E+00 0.  0.
          4    1    3    3  501    0 -0.60315707496E+02 -0.13204786157E+03 -0.52794486812E+03  0.54754032371E+03  0.00000000000E+00 0.  1.
   -9000007    1    1    2    0  502  0.38620275037E+03  0.43953385776E+02  0.16335155276E+03  0.58117828100E+03  0.40000000000E+03 0. -1.
<mgrwt>
<rscale>  2 0.55651821E+03</rscale>
<asrwt>0</asrwt>
<pdfrwt beam="1">  1       21 0.69872974E-01 0.55774946E+03</pdfrwt>
<pdfrwt beam="2">  1       21 0.17565407E+00 0.55774946E+03</pdfrwt>
<totfact> 0.28320223E+02</totfact>
</mgrwt>
</event>
<event>
 6    1  0.9399121E-004  0.6329260E+03  0.7818608E-02  0.9839675E-01
         21   -1    0    0  503  502  0.00000000000E+00  0.00000000000E+00  0.76037776083E+03  0.76037776083E+03  0.00000000000E+00 0.  1.
         21   -1    0    0  501  503 -0.00000000000E+00 -0.00000000000E+00 -0.74348081895E+03  0.74348081895E+03  0.00000000000E+00 0. -1.
    9000007    2    1    2  501    0 -0.44357756030E+03 -0.20736756967E+03 -0.39795755305E+03  0.74763995205E+03  0.40103980217E+03 0.  0.
    9000005    1    3    3    0    0 -0.97822720184E+02  0.42217876873E+02 -0.28827243467E+03  0.30733309339E+03  0.99999687468E+00 0.  0.
          4    1    3    3  501    0 -0.34575484011E+03 -0.24958544654E+03 -0.10968511838E+03  0.44030685866E+03  0.00000000000E+00 0.  1.
   -9000007    1    1    2    0  502  0.44357756030E+03  0.20736756967E+03  0.41485449493E+03  0.75621862772E+03  0.40000000000E+03 0.  1.
<mgrwt>
<rscale>  2 0.63276132E+03</rscale>
<asrwt>0</asrwt>
<pdfrwt beam="1">  1       21 0.11698119E+00 0.63292597E+03</pdfrwt>
<pdfrwt beam="2">  1       21 0.11438166E+00 0.63292597E+03</pdfrwt>
<totfact> 0.25573829E+02</totfact>
</mgrwt>
</event>
<event>
 6    1  0.9399121E-004  0.5040795E+03  0.7818608E-02  0.1012752E+00
         21   -1    0    0  503  502  0.00000000000E+00  0.00000000000E+00  0.96612558374E+03  0.96612558374E+03  0.00000000000E+00 0.  1.
         21   -1    0    0  501  503 -0.00000000000E+00 -0.00000000000E+00 -0.26912060911E+03  0.26912060911E+03  0.00000000000E+00 0. -1.
    9000007    2    1    2  501    0  0.11776233715E+03 -0.28324586682E+03  0.44338257381E+03  0.67095857885E+03  0.39937591145E+03 0.  0.
    9000005    1    3    3    0    0  0.49140360760E+01  0.10190315150E+03  0.82060627970E+02  0.13093260362E+03  0.99999687468E+00 0.  0.
          4    1    3    3  501    0  0.11284830107E+03 -0.38514901832E+03  0.36132194585E+03  0.54002597522E+03  0.00000000000E+00 0.  1.
   -9000007    1    1    2    0  502 -0.11776233715E+03  0.28324586682E+03  0.25362240081E+03  0.56428761400E+03  0.40000000000E+03 0. -1.
<mgrwt>
<rscale>  2 0.50395573E+03</rscale>
<asrwt>0</asrwt>
<pdfrwt beam="1">  1       21 0.14863470E+00 0.50407955E+03</pdfrwt>
<pdfrwt beam="2">  1       21 0.41403171E-01 0.50407955E+03</pdfrwt>
<totfact> 0.14336046E+03</totfact>
</mgrwt>
</event>
<event>
 6    1  0.9399121E-004  0.4512154E+03  0.7818608E-02  0.1027399E+00
         21   -1    0    0  503  502  0.00000000000E+00  0.00000000000E+00  0.26039024591E+03  0.26039024591E+03  0.00000000000E+00 0.  1.
         21   -1    0    0  501  503 -0.00000000000E+00 -0.00000000000E+00 -0.84905850241E+03  0.84905850241E+03  0.00000000000E+00 0.  1.
    9000007    2    1    2  501    0  0.14910157630E+02 -0.20712606678E+03 -0.45156946227E+03  0.63836531652E+03  0.40058928810E+03 0.  0.
    9000005    1    3    3    0    0 -0.16651462878E+02  0.62948198241E+02  0.40127461152E+02  0.76491568228E+02  0.99999687468E+00 0.  0.
          4    1    3    3  501    0  0.31561620508E+02 -0.27007426502E+03 -0.49169692342E+03  0.56187374829E+03  0.00000000000E+00 0.  1.
   -9000007    1    1    2    0  502 -0.14910157630E+02  0.20712606678E+03 -0.13709879422E+03  0.47108343180E+03  0.40000000000E+03 0.  1.
<mgrwt>
<rscale>  2 0.45108453E+03</rscale>
<asrwt>0</asrwt>
<pdfrwt beam="1">  1       21 0.40060038E-01 0.45121536E+03</pdfrwt>
<pdfrwt beam="2">  1       21 0.13062439E+00 0.45121536E+03</pdfrwt>
<totfact> 0.22067651E+03</totfact>
</mgrwt>
</event>
<event>
 6    1  0.9399121E-004  0.4062069E+03  0.7818608E-02  0.1041715E+00
         21   -1    0    0  503  502  0.00000000000E+00  0.00000000000E+00  0.13610128228E+04  0.13610128228E+04  0.00000000000E+00 0.  1.
         21   -1    0    0  501  503 -0.00000000000E+00 -0.00000000000E+00 -0.10732101753E+04  0.10732101753E+04  0.00000000000E+00 0.  1.
    9000007    2    1    2  501    0  0.30061703425E+02 -0.59064255955E+02 -0.10025247689E+04  0.10816930968E+04  0.40076395940E+03 0.  0.
    9000005    1    3    3    0    0 -0.11175329073E+03 -0.17034700168E+03 -0.35255758376E+03  0.40719129267E+03  0.99999687468E+00 0.  0.
          4    1    3    3  501    0  0.14181499416E+03  0.11128274572E+03 -0.64996718513E+03  0.67450180415E+03  0.00000000000E+00 0.  1.
   -9000007    1    1    2    0  502 -0.30061703425E+02  0.59064255955E+02  0.12903274164E+04  0.13525299013E+04  0.40000000000E+03 0.  1.
<mgrwt>
<rscale>  2 0.40601834E+03</rscale>
<asrwt>0</asrwt>
<pdfrwt beam="1">  1       21 0.20938659E+00 0.40620690E+03</pdfrwt>
<pdfrwt beam="2">  1       21 0.16510926E+00 0.40620690E+03</pdfrwt>
<totfact> 0.21256801E+01</totfact>
</mgrwt>
</event>
<event>
 6    1  0.9399121E-004  0.4414195E+03  0.7818608E-02  0.1030354E+00
         21   -1    0    0  503  502  0.00000000000E+00  0.00000000000E+00  0.62143901898E+03  0.62143901898E+03  0.00000000000E+00 0. -1.
         21   -1    0    0  501  503 -0.00000000000E+00 -0.00000000000E+00 -0.42325631894E+03  0.42325631894E+03  0.00000000000E+00 0.  1.
    9000007    2    1    2  501    0 -0.18359960952E+03 -0.33799234152E+02 -0.16736390269E+03  0.47156749562E+03  0.39939206571E+03 0.  0.
    9000005    1    3    3    0    0 -0.22894320227E+03  0.13046954777E+03 -0.60328165640E+02  0.27032902235E+03  0.99999687468E+00 0.  0.
          4    1    3    3  501    0  0.45343592749E+02 -0.16426878192E+03 -0.10703573705E+03  0.20123847327E+03  0.00000000000E+00 0.  1.
   -9000007    1    1    2    0  502  0.18359960952E+03  0.33799234152E+02  0.36554660274E+03  0.57312784230E+03  0.40000000000E+03 0. -1.
<mgrwt>
<rscale>  2 0.44128177E+03</rscale>
<asrwt>0</asrwt>
<pdfrwt beam="1">  1       21 0.95606004E-01 0.44141953E+03</pdfrwt>
<pdfrwt beam="2">  1       21 0.65116356E-01 0.44141953E+03</pdfrwt>
<totfact> 0.17096161E+03</totfact>
</mgrwt>
</event>
<event>
 6    1  0.9399121E-004  0.4782720E+03  0.7818608E-02  0.1019634E+00
         21   -1    0    0  503  502  0.00000000000E+00  0.00000000000E+00  0.14203777811E+04  0.14203777811E+04  0.00000000000E+00 0. -1.
         21   -1    0    0  501  503 -0.00000000000E+00 -0.00000000000E+00 -0.35974401314E+03  0.35974401314E+03  0.00000000000E+00 0. -1.
    9000007    2    1    2  501    0  0.23541458638E+03 -0.11404633662E+03 -0.13127369776E+03  0.49596058893E+03  0.40039671287E+03 0.  0.
    9000005    1    3    3    0    0  0.17715780323E+03 -0.22402727547E+03 -0.20476042006E+03  0.35142700098E+03  0.99999687468E+00 0.  0.
          4    1    3    3  501    0  0.58256783147E+02  0.10998093885E+03  0.73486722293E+02  0.14453358795E+03  0.00000000000E+00 0.  1.
   -9000007    1    1    2    0  502 -0.23541458638E+03  0.11404633662E+03  0.11919074657E+04  0.12841612053E+04  0.40000000000E+03 0. -1.
<mgrwt>
<rscale>  2 0.47818898E+03</rscale>
<asrwt>0</asrwt>
<pdfrwt beam="1">  1       21 0.21851966E+00 0.47827202E+03</pdfrwt>
<pdfrwt beam="2">  1       21 0.55345234E-01 0.47827202E+03</pdfrwt>
<totfact> 0.25178288E+02</totfact>
</mgrwt>
</event>
<event>
 6    1  0.9399121E-004  0.4087398E+03  0.7818608E-02  0.1040803E+00
         21   -1    0    0  503  502  0.00000000000E+00  0.00000000000E+00  0.12771455382E+03  0.12771455382E+03  0.00000000000E+00 0. -1.
         21   -1    0    0  501  503 -0.00000000000E+00 -0.00000000000E+00 -0.15862189937E+04  0.15862189937E+04  0.00000000000E+00 0. -1.
    9000007    2    1    2  501    0 -0.76567416596E+02  0.34722517340E+02 -0.10881912117E+04  0.11623901590E+04  0.39990317071E+03 0.  0.
    9000005    1    3    3    0    0 -0.21426691898E+03 -0.59607153294E+02 -0.43949633915E+03  0.49256609447E+03  0.99999687468E+00 0.  0.
          4    1    3    3  501    0  0.13769950238E+03  0.94329670634E+02 -0.64869487253E+03  0.66982406449E+03  0.00000000000E+00 0.  1.
   -9000007    1    1    2    0  502  0.76567416596E+02 -0.34722517340E+02 -0.37031322819E+03  0.55154338856E+03  0.40000000000E+03 0. -1.
<mgrwt>
<rscale>  2 0.40871611E+03</rscale>
<asrwt>0</asrwt>
<pdfrwt beam="1">  1       21 0.19648392E-01 0.40873980E+03</pdfrwt>
<pdfrwt beam="2">  1       21 0.24403370E+00 0.40873980E+03</pdfrwt>
<totfact> 0.14549456E+03</totfact>
</mgrwt>
</event>
<event>
 6    1  0.9399121E-004  0.4387602E+03  0.7818608E-02  0.1031149E+00
         21   -1    0    0  503  502  0.00000000000E+00  0.00000000000E+00  0.33321547115E+03  0.33321547115E+03  0.00000000000E+00 0.  1.
         21   -1    0    0  501  503 -0.00000000000E+00 -0.00000000000E+00 -0.59125585331E+03  0.59125585331E+03  0.00000000000E+00 0. -1.
    9000007    2    1    2  501    0 -0.15278456951E+02 -0.17965832928E+03 -0.19981036948E+03  0.48186395794E+03  0.39969756527E+03 0.  0.
    9000005    1    3    3    0    0 -0.15156081745E+03 -0.23304585443E+03 -0.71074837673E+02  0.28693846762E+03  0.99999687468E+00 0.  0.
          4    1    3    3  501    0  0.13628236050E+03  0.53387525157E+02 -0.12873553181E+03  0.19492549032E+03  0.00000000000E+00 0.  1.
   -9000007    1    1    2    0  502  0.15278456951E+02  0.17965832928E+03 -0.58230012678E+02  0.44260736652E+03  0.40000000000E+03 0.  1.
<mgrwt>
<rscale>  2 0.43869130E+03</rscale>
<asrwt>0</asrwt>
<pdfrwt beam="1">  1       21 0.51263919E-01 0.43876024E+03</pdfrwt>
<pdfrwt beam="2">  1       21 0.90962438E-01 0.43876024E+03</pdfrwt>
<totfact> 0.32436463E+03</totfact>
</mgrwt>
</event>
<event>
 6    1  0.9399121E-004  0.4380959E+03  0.7818608E-02  0.1031371E+00
         21   -1    0    0  503  502  0.00000000000E+00  0.00000000000E+00  0.16139699823E+04  0.16139699823E+04  0.00000000000E+00 0.  1.
         21   -1    0    0  501  503 -0.00000000000E+00 -0.00000000000E+00 -0.30002519634E+03  0.30002519634E+03  0.00000000000E+00 0.  1.
    9000007    2    1    2  501    0 -0.10892716770E+02  0.17835175179E+03 -0.86984666160E+02  0.44616299188E+03  0.39945848913E+03 0.  0.
    9000005    1    3    3    0    0 -0.94181739065E+02 -0.81881574149E+02  0.57121021084E+02  0.13725379121E+03  0.99999687468E+00 0.  0.
          4    1    3    3  501    0  0.83289022295E+02  0.26023332594E+03 -0.14410568724E+03  0.30890920067E+03  0.00000000000E+00 0.  1.
   -9000007    1    1    2    0  502  0.10892716770E+02 -0.17835175179E+03  0.14009294521E+04  0.14678321867E+04  0.40000000000E+03 0.  1.
<mgrwt>
<rscale>  2 0.43797223E+03</rscale>
<asrwt>0</asrwt>
<pdfrwt beam="1">  1       21 0.24830307E+00 0.43809588E+03</pdfrwt>
<pdfrwt beam="2">  1       21 0.46157723E-01 0.43809588E+03</pdfrwt>
<totfact> 0.24645534E+02</totfact>
</mgrwt>
</event>
<event>
 6    1  0.9399121E-004  0.4042137E+03  0.7818608E-02  0.1042351E+00
         21   -1    0    0  503  502  0.00000000000E+00  0.00000000000E+00  0.49777161667E+03  0.49777161667E+03  0.00000000000E+00 0.  1.
         21   -1    0    0  501  503 -0.00000000000E+00 -0.00000000000E+00 -0.80870498887E+03  0.80870498887E+03  0.00000000000E+00 0. -1.
    9000007    2    1    2  501    0  0.54410993581E+02 -0.15301750692E+02 -0.65909660981E+03  0.77317337114E+03  0.40024245275E+03 0.  0.
    9000005    1    3    3    0    0  0.18621919110E+03 -0.11594797396E+03 -0.48724973882E+03  0.53435458993E+03  0.99999687468E+00 0.  0.
          4    1    3    3  501    0 -0.13180819752E+03  0.10064622327E+03 -0.17184687099E+03  0.23881878121E+03  0.00000000000E+00 0.  1.
   -9000007    1    1    2    0  502 -0.54410993581E+02  0.15301750692E+02  0.34816323761E+03  0.53330323440E+03  0.40000000000E+03 0.  1.
<mgrwt>
<rscale>  2 0.40415368E+03</rscale>
<asrwt>0</asrwt>
<pdfrwt beam="1">  1       21 0.76580249E-01 0.40421371E+03</pdfrwt>
<pdfrwt beam="2">  1       21 0.12441615E+00 0.40421371E+03</pdfrwt>
<totfact> 0.62828362E+02</totfact>
</mgrwt>
</event>
<event>
 6    1  0.9399121E-004  0.5260039E+03  0.7818608E-02  0.1007246E+00
         21   -1    0    0  503  502  0.00000000000E+00  0.00000000000E+00  0.70211599795E+03  0.70211599795E+03  0.00000000000E+00 0.  1.
         21   -1    0    0  501  503 -0.00000000000E+00 -0.00000000000E+00 -0.60301606382E+03  0.60301606382E+03  0.00000000000E+00 0.  1.
    9000007    2    1    2  501    0  0.34028762446E+03  0.14258629861E+02 -0.33500844892E+03  0.62362706243E+03  0.40085044128E+03 0.  0.
    9000005    1    3    3    0    0 -0.20303420351E+02 -0.10020952108E+03 -0.19508415330E+03  0.22025667721E+03  0.99999687468E+00 0.  0.
          4    1    3    3  501    0  0.36059104481E+03  0.11446815094E+03 -0.13992429562E+03  0.40337038523E+03  0.00000000000E+00 0.  1.
   -9000007    1    1    2    0  502 -0.34028762446E+03 -0.14258629861E+02  0.43410838305E+03  0.68150499933E+03  0.40000000000E+03 0.  1.
<mgrwt>
<rscale>  2 0.52584183E+03</rscale>
<asrwt>0</asrwt>
<pdfrwt beam="1">  1       21 0.10801785E+00 0.52600385E+03</pdfrwt>
<pdfrwt beam="2">  1       21 0.92771702E-01 0.52600385E+03</pdfrwt>
<totfact> 0.54336878E+02</totfact>
</mgrwt>
</event>
<event>
 6    1  0.9399121E-004  0.7793088E+03  0.7818608E-02  0.9590665E-01
         21   -1    0    0  503  502  0.00000000000E+00  0.00000000000E+00  0.17882204045E+04  0.17882204045E+04  0.00000000000E+00 0. -1.
         21   -1    0    0  501  503 -0.00000000000E+00 -0.00000000000E+00 -0.48666976424E+03  0.48666976424E+03  0.00000000000E+00 0.  1.
    9000007    2    1    2  501    0  0.14866832148E+02  0.66801553703E+03  0.25196481003E+02  0.77971602495E+03  0.40106911685E+03 0.  0.
    9000005    1    3    3    0    0 -0.11934484164E+03  0.64290170249E+02 -0.72262687510E+02  0.15362067965E+03  0.99999687468E+00 0.  0.
          4    1    3    3  501    0  0.13421167378E+03  0.60372536678E+03  0.97459168512E+02  0.62609534530E+03  0.00000000000E+00 0.  1.
   -9000007    1    1    2    0  502 -0.14866832148E+02 -0.66801553703E+03  0.12763541593E+04  0.14951741438E+04  0.40000000000E+03 0.  1.
<mgrwt>
<rscale>  2 0.77917135E+03</rscale>
<asrwt>0</asrwt>
<pdfrwt beam="1">  1       21 0.27511083E+00 0.77930881E+03</pdfrwt>
<pdfrwt beam="2">  1       21 0.74872272E-01 0.77930881E+03</pdfrwt>
<totfact> 0.49883539E+01</totfact>
</mgrwt>
</event>
<event>
 6    1  0.9399121E-004  0.4732949E+03  0.7818608E-02  0.1021034E+00
         21   -1    0    0  503  502  0.00000000000E+00  0.00000000000E+00  0.48344768423E+03  0.48344768423E+03  0.00000000000E+00 0.  1.
         21   -1    0    0  501  503 -0.00000000000E+00 -0.00000000000E+00 -0.10498159001E+04  0.10498159001E+04  0.00000000000E+00 0.  1.
    9000007    2    1    2  501    0  0.18906661235E+03 -0.16650944485E+03 -0.85652342861E+03  0.97859104429E+03  0.40067002518E+03 0.  0.
    9000005    1    3    3    0    0 -0.44787268976E+02 -0.22337322735E+03 -0.48627828559E+03  0.53700006442E+03  0.99999687468E+00 0.  0.
          4    1    3    3  501    0  0.23385388133E+03  0.56863782496E+02 -0.37024514302E+03  0.44159097987E+03  0.00000000000E+00 0.  1.
   -9000007    1    1    2    0  502 -0.18906661235E+03  0.16650944485E+03  0.29015521277E+03  0.55467254000E+03  0.40000000000E+03 0.  1.
<mgrwt>
<rscale>  2 0.47315305E+03</rscale>
<asrwt>0</asrwt>
<pdfrwt beam="1">  1       21 0.74376567E-01 0.47329489E+03</pdfrwt>
<pdfrwt beam="2">  1       21 0.16151014E+00 0.47329489E+03</pdfrwt>
<totfact> 0.32380390E+02</totfact>
</mgrwt>
</event>
<event>
 6    1  0.9399121E-004  0.4303759E+03  0.7818608E-02  0.1033776E+00
         21   -1    0    0  503  502  0.00000000000E+00  0.00000000000E+00  0.10841936557E+04  0.10841936557E+04  0.00000000000E+00 0.  1.
         21   -1    0    0  501  503 -0.00000000000E+00 -0.00000000000E+00 -0.19240703023E+03  0.19240703023E+03  0.00000000000E+00 0. -1.
    9000007    2    1    2  501    0 -0.14999144764E+03 -0.52210811691E+02  0.23112696606E+03  0.48812456784E+03  0.39952786645E+03 0.  0.
    9000005    1    3    3    0    0 -0.13135190074E+03  0.14439578068E+03  0.21436618574E+03  0.28992641289E+03  0.99999687468E+00 0.  0.
          4    1    3    3  501    0 -0.18639546897E+02 -0.19660659237E+03  0.16760780314E+02  0.19819815496E+03  0.00000000000E+00 0.  1.
   -9000007    1    1    2    0  502  0.14999144764E+03  0.52210811691E+02  0.66065965940E+03  0.78847611808E+03  0.40000000000E+03 0.  1.
<mgrwt>
<rscale>  2 0.43026615E+03</rscale>
<asrwt>0</asrwt>
<pdfrwt beam="1">  1       21 0.16679902E+00 0.43037589E+03</pdfrwt>
<pdfrwt beam="2">  1       21 0.29601082E-01 0.43037589E+03</pdfrwt>
<totfact> 0.21162545E+03</totfact>
</mgrwt>
</event>
<event>
 6    1  0.9399121E-004  0.5450051E+03  0.7818608E-02  0.1002675E+00
         21   -1    0    0  503  502  0.00000000000E+00  0.00000000000E+00  0.72811443408E+03  0.72811443408E+03  0.00000000000E+00 0.  1.
         21   -1    0    0  501  503 -0.00000000000E+00 -0.00000000000E+00 -0.64096518725E+03  0.64096518725E+03  0.00000000000E+00 0. -1.
    9000007    2    1    2  501    0 -0.84062103507E+02 -0.36002265138E+03 -0.36937046295E+03  0.65838067510E+03  0.40043454858E+03 0.  0.
    9000005    1    3    3    0    0 -0.67019684305E+02 -0.43803522957E+03 -0.23376919214E+03  0.50101450640E+03  0.99999687468E+00 0.  0.
          4    1    3    3  501    0 -0.17042419202E+02  0.78012578191E+02 -0.13560127081E+03  0.15736616870E+03  0.00000000000E+00 0.  1.
   -9000007    1    1    2    0  502  0.84062103507E+02  0.36002265138E+03  0.45651970978E+03  0.71069894623E+03  0.40000000000E+03 0.  1.
<mgrwt>
<rscale>  2 0.54492530E+03</rscale>
<asrwt>0</asrwt>
<pdfrwt beam="1">  1       21 0.11201761E+00 0.54500511E+03</pdfrwt>
<pdfrwt beam="2">  1       21 0.98610028E-01 0.54500511E+03</pdfrwt>
<totfact> 0.42531877E+02</totfact>
</mgrwt>
</event>
<event>
 6    1  0.9399121E-004  0.4512925E+03  0.7818608E-02  0.1027432E+00
         21   -1    0    0  503  502  0.00000000000E+00  0.00000000000E+00  0.31877439849E+03  0.31877439849E+03  0.00000000000E+00 0. -1.
         21   -1    0    0  501  503 -0.00000000000E+00 -0.00000000000E+00 -0.76669536749E+03  0.76669536749E+03  0.00000000000E+00 0. -1.
    9000007    2    1    2  501    0 -0.26198518847E+02 -0.20454157519E+03 -0.10926873524E+01  0.45129381907E+03  0.40142408845E+03 0.  0.
    9000005    1    3    3    0    0 -0.23427177771E+01  0.44558367685E+01  0.17614889509E+03  0.17622365347E+03  0.99999687468E+00 0.  0.
          4    1    3    3  501    0 -0.23855801070E+02 -0.20899741196E+03 -0.17724158245E+03  0.27507016559E+03  0.00000000000E+00 0.  1.
   -9000007    1    1    2    0  502  0.26198518847E+02  0.20454157519E+03 -0.44682828164E+03  0.63417594692E+03  0.40000000000E+03 0. -1.
<mgrwt>
<rscale>  2 0.45097560E+03</rscale>
<asrwt>0</asrwt>
<pdfrwt beam="1">  1       21 0.49042216E-01 0.45129250E+03</pdfrwt>
<pdfrwt beam="2">  1       21 0.11795313E+00 0.45129250E+03</pdfrwt>
<totfact> 0.18784722E+03</totfact>
</mgrwt>
</event>
<event>
 6    1  0.9399121E-004  0.5461177E+03  0.7818608E-02  0.1002403E+00
         21   -1    0    0  503  502  0.00000000000E+00  0.00000000000E+00  0.35362766811E+03  0.35362766811E+03  0.00000000000E+00 0. -1.
         21   -1    0    0  501  503 -0.00000000000E+00 -0.00000000000E+00 -0.94995530000E+03  0.94995530000E+03  0.00000000000E+00 0. -1.
    9000007    2    1    2  501    0  0.21427895536E+03  0.30385704201E+03 -0.51663044877E+03  0.75168060928E+03  0.39984014941E+03 0.  0.
    9000005    1    3    3    0    0 -0.40946343347E+01  0.26465391615E+03 -0.44638789331E+03  0.51896205319E+03  0.99999687468E+00 0.  0.
          4    1    3    3  501    0  0.21837358969E+03  0.39203125857E+02 -0.70242555465E+02  0.23271855609E+03  0.00000000000E+00 0.  1.
   -9000007    1    1    2    0  502 -0.21427895536E+03 -0.30385704201E+03 -0.79697183110E+02  0.55190235883E+03  0.40000000000E+03 0. -1.
<mgrwt>
<rscale>  2 0.54608846E+03</rscale>
<asrwt>0</asrwt>
<pdfrwt beam="1">  1       21 0.54404256E-01 0.54611773E+03</pdfrwt>
<pdfrwt beam="2">  1       21 0.14614697E+00 0.54611773E+03</pdfrwt>
<totfact> 0.82902105E+02</totfact>
</mgrwt>
</event>
<event>
 6    1  0.9399121E-004  0.4126079E+03  0.7818608E-02  0.1039877E+00
         21   -1    0    0  503  502  0.00000000000E+00  0.00000000000E+00  0.79581569457E+03  0.79581569457E+03  0.00000000000E+00 0.  1.
         21   -1    0    0  501  503 -0.00000000000E+00 -0.00000000000E+00 -0.33134487462E+03  0.33134487462E+03  0.00000000000E+00 0.  1.
    9000007    2    1    2  501    0 -0.70587433133E+02 -0.72544194121E+02 -0.10738430155E+03  0.42199142223E+03  0.39534810788E+03 0.  0.
    9000005    1    3    3    0    0  0.10930782231E+02  0.15396460053E+03  0.89698261999E+01  0.15461577537E+03  0.99999687468E+00 0.  0.
          4    1    3    3  501    0 -0.81518215364E+02 -0.22650879465E+03 -0.11635412775E+03  0.26737564686E+03  0.00000000000E+00 0.  1.
   -9000007    1    1    2    0  502  0.70587433133E+02  0.72544194121E+02  0.57185512151E+03  0.70516914695E+03  0.40000000000E+03 0.  1.
<mgrwt>
<rscale>  2 0.41147617E+03</rscale>
<asrwt>0</asrwt>
<pdfrwt beam="1">  1       21 0.12243318E+00 0.41260786E+03</pdfrwt>
<pdfrwt beam="2">  1       21 0.50976135E-01 0.41260786E+03</pdfrwt>
<totfact> 0.15986623E+03</totfact>
</mgrwt>
</event>
<event>
 6    1  0.9399121E-004  0.4101424E+03  0.7818608E-02  0.1040535E+00
         21   -1    0    0  503  502  0.00000000000E+00  0.00000000000E+00  0.37404889009E+03  0.37404889009E+03  0.00000000000E+00 0. -1.
         21   -1    0    0  501  503 -0.00000000000E+00 -0.00000000000E+00 -0.45108695227E+03  0.45108695227E+03  0.00000000000E+00 0. -1.
    9000007    2    1    2  501    0 -0.87356383821E+02  0.24199540005E+02 -0.77831551049E+02  0.41499271472E+03  0.39742225328E+03 0.  0.
    9000005    1    3    3    0    0 -0.29044296399E+02  0.10382457182E+03 -0.21821036531E+03  0.24339243289E+03  0.99999687468E+00 0.  0.
          4    1    3    3  501    0 -0.58312087423E+02 -0.79625031815E+02  0.14037881426E+03  0.17160028183E+03  0.00000000000E+00 0.  1.
   -9000007    1    1    2    0  502  0.87356383821E+02 -0.24199540005E+02  0.79348887232E+00  0.41014312765E+03  0.40000000000E+03 0. -1.
<mgrwt>
<rscale>  2 0.40951251E+03</rscale>
<asrwt>0</asrwt>
<pdfrwt beam="1">  1       21 0.57545984E-01 0.41014236E+03</pdfrwt>
<pdfrwt beam="2">  1       21 0.69397992E-01 0.41014236E+03</pdfrwt>
<totfact> 0.47686176E+03</totfact>
</mgrwt>
</event>
<event>
 6    1  0.9399121E-004  0.5020677E+03  0.7818608E-02  0.1013245E+00
         21   -1    0    0  503  502  0.00000000000E+00  0.00000000000E+00  0.23356538547E+03  0.23356538547E+03  0.00000000000E+00 0. -1.
         21   -1    0    0  501  503 -0.00000000000E+00 -0.00000000000E+00 -0.16485974733E+04  0.16485974733E+04  0.00000000000E+00 0.  1.
    9000007    2    1    2  501    0 -0.16468868519E+02 -0.30286568039E+03 -0.12606754767E+04  0.13569726005E+04  0.40009141072E+03 0.  0.
    9000005    1    3    3    0    0  0.11573837448E+03 -0.12613302687E+03 -0.10038374694E+04  0.10183297976E+04  0.99999687468E+00 0.  0.
          4    1    3    3  501    0 -0.13220724300E+03 -0.17673265353E+03 -0.25683800726E+03  0.33864280281E+03  0.00000000000E+00 0.  1.
   -9000007    1    1    2    0  502  0.16468868519E+02  0.30286568039E+03 -0.15435661114E+03  0.52519025828E+03  0.40000000000E+03 0. -1.
<mgrwt>
<rscale>  2 0.50204949E+03</rscale>
<asrwt>0</asrwt>
<pdfrwt beam="1">  1       21 0.35933138E-01 0.50206771E+03</pdfrwt>
<pdfrwt beam="2">  1       21 0.25363037E+00 0.50206771E+03</pdfrwt>
<totfact> 0.37069172E+02</totfact>
</mgrwt>
</event>
<event>
 6    1  0.9399121E-004  0.4094221E+03  0.7818608E-02  0.1040595E+00
         21   -1    0    0  503  502  0.00000000000E+00  0.00000000000E+00  0.38874024318E+03  0.38874024318E+03  0.00000000000E+00 0.  1.
         21   -1    0    0  501  503 -0.00000000000E+00 -0.00000000000E+00 -0.56446906992E+03  0.56446906992E+03  0.00000000000E+00 0.  1.
    9000007    2    1    2  501    0 -0.87224917534E+02  0.42778976088E+01  0.14406640714E+03  0.43369465665E+03  0.39963663357E+03 0.  0.
    9000005    1    3    3    0    0 -0.11730372307E+03  0.16268459550E+03  0.17887305646E+03  0.26874339319E+03  0.99999687468E+00 0.  0.
          4    1    3    3  501    0  0.30078805534E+02 -0.15840669790E+03 -0.34806649319E+02  0.16495126346E+03  0.00000000000E+00 0.  1.
   -9000007    1    1    2    0  502  0.87224917534E+02 -0.42778976088E+01 -0.31979523388E+03  0.51951465645E+03  0.40000000000E+03 0. -1.
<mgrwt>
<rscale>  2 0.40933336E+03</rscale>
<asrwt>0</asrwt>
<pdfrwt beam="1">  1       21 0.59806191E-01 0.40942214E+03</pdfrwt>
<pdfrwt beam="2">  1       21 0.86841396E-01 0.40942214E+03</pdfrwt>
<totfact> 0.26231382E+03</totfact>
</mgrwt>
</event>
<event>
 6    1  0.9399121E-004  0.5425456E+03  0.7818608E-02  0.1003248E+00
         21   -1    0    0  503  502  0.00000000000E+00  0.00000000000E+00  0.68684973869E+03  0.68684973869E+03  0.00000000000E+00 0.  1.
         21   -1    0    0  501  503 -0.00000000000E+00 -0.00000000000E+00 -0.42838057628E+03  0.42838057628E+03  0.00000000000E+00 0.  1.
    9000007    2    1    2  501    0  0.29971324108E+03  0.21101599855E+03  0.13133843668E+03  0.55798889516E+03  0.39968242850E+03 0.  0.
    9000005    1    3    3    0    0  0.15210360860E+03 -0.69524830308E+02  0.17019285422E+03  0.23861227420E+03  0.99999687468E+00 0.  0.
          4    1    3    3  501    0  0.14760963248E+03  0.28054082886E+03 -0.38854417538E+02  0.31937662096E+03  0.00000000000E+00 0.  1.
   -9000007    1    1    2    0  502 -0.29971324108E+03 -0.21101599855E+03  0.12713072572E+03  0.55724141980E+03  0.40000000000E+03 0.  1.
<mgrwt>
<rscale>  2 0.54248711E+03</rscale>
<asrwt>0</asrwt>
<pdfrwt beam="1">  1       21 0.10566919E+00 0.54254565E+03</pdfrwt>
<pdfrwt beam="2">  1       21 0.65904704E-01 0.54254565E+03</pdfrwt>
<totfact> 0.12574434E+03</totfact>
</mgrwt>
</event>
<event>
 6    1  0.9399121E-004  0.4569769E+03  0.7818608E-02  0.1025782E+00
         21   -1    0    0  503  502  0.00000000000E+00  0.00000000000E+00  0.12894433059E+04  0.12894433059E+04  0.00000000000E+00 0.  1.
         21   -1    0    0  501  503 -0.00000000000E+00 -0.00000000000E+00 -0.36527212232E+03  0.36527212232E+03  0.00000000000E+00 0.  1.
    9000007    2    1    2  501    0 -0.12588807249E+03  0.18160409692E+03 -0.15643257455E+03  0.48145827955E+03  0.39812444003E+03 0.  0.
    9000005    1    3    3    0    0 -0.16584676891E+02  0.56548396024E+02  0.13427971738E+03  0.14664520140E+03  0.99999687468E+00 0.  0.
          4    1    3    3  501    0 -0.10930339560E+03  0.12505570090E+03 -0.29071229193E+03  0.33481307814E+03  0.00000000000E+00 0.  1.
   -9000007    1    1    2    0  502  0.12588807249E+03 -0.18160409692E+03  0.10806037581E+04  0.11732571487E+04  0.40000000000E+03 0.  1.
<mgrwt>
<rscale>  2 0.45656611E+03</rscale>
<asrwt>0</asrwt>
<pdfrwt beam="1">  1       21 0.19837589E+00 0.45697686E+03</pdfrwt>
<pdfrwt beam="2">  1       21 0.56195712E-01 0.45697686E+03</pdfrwt>
<totfact> 0.33377968E+02</totfact>
</mgrwt>
</event>
<event>
 6    1  0.9399121E-004  0.4092256E+03  0.7818608E-02  0.1040726E+00
         21   -1    0    0  503  502  0.00000000000E+00  0.00000000000E+00  0.53740457540E+03  0.53740457540E+03  0.00000000000E+00 0.  1.
         21   -1    0    0  501  503 -0.00000000000E+00 -0.00000000000E+00 -0.46227403945E+03  0.46227403945E+03  0.00000000000E+00 0.  1.
    9000007    2    1    2  501    0 -0.62111198964E+02  0.60064993924E+02 -0.24862712251E+03  0.47786962111E+03  0.39884624131E+03 0.  0.
    9000005    1    3    3    0    0  0.16582646615E+02  0.82474767569E+02  0.93683784228E+02  0.12591553866E+03  0.99999687468E+00 0.  0.
          4    1    3    3  501    0 -0.78693845579E+02 -0.22409773645E+02 -0.34231090674E+03  0.35195408246E+03  0.00000000000E+00 0.  1.
   -9000007    1    1    2    0  502  0.62111198964E+02 -0.60064993924E+02  0.32375765845E+03  0.52180899373E+03  0.40000000000E+03 0.  1.
<mgrwt>
<rscale>  2 0.40894341E+03</rscale>
<asrwt>0</asrwt>
<pdfrwt beam="1">  1       21 0.82677627E-01 0.40922562E+03</pdfrwt>
<pdfrwt beam="2">  1       21 0.71119083E-01 0.40922562E+03</pdfrwt>
<totfact> 0.20029679E+03</totfact>
</mgrwt>
</event>
<event>
 6    1  0.9399121E-004  0.4232210E+03  0.7818608E-02  0.1036040E+00
         21   -1    0    0  503  502  0.00000000000E+00  0.00000000000E+00  0.24219463211E+03  0.24219463211E+03  0.00000000000E+00 0. -1.
         21   -1    0    0  501  503 -0.00000000000E+00 -0.00000000000E+00 -0.10013065408E+04  0.10013065408E+04  0.00000000000E+00 0. -1.
    9000007    2    1    2  501    0 -0.12154730042E+03  0.65896062185E+02 -0.69759870359E+03  0.81583318058E+03  0.39977967688E+03 0.  0.
    9000005    1    3    3    0    0 -0.25059741840E+03 -0.41153660451E+02 -0.38741680729E+03  0.46323371255E+03  0.99999687468E+00 0.  0.
          4    1    3    3  501    0  0.12905011798E+03  0.10704972264E+03 -0.31018189630E+03  0.35259946803E+03  0.00000000000E+00 0.  1.
   -9000007    1    1    2    0  502  0.12154730042E+03 -0.65896062185E+02 -0.61513205091E+02  0.42766799232E+03  0.40000000000E+03 0. -1.
<mgrwt>
<rscale>  2 0.42316896E+03</rscale>
<asrwt>0</asrwt>
<pdfrwt beam="1">  1       21 0.37260713E-01 0.42322103E+03</pdfrwt>
<pdfrwt beam="2">  1       21 0.15404716E+00 0.42322103E+03</pdfrwt>
<totfact> 0.16680413E+03</totfact>
</mgrwt>
</event>
<event>
 6    1  0.9399121E-004  0.6601639E+03  0.7818608E-02  0.9787936E-01
         21   -1    0    0  503  502  0.00000000000E+00  0.00000000000E+00  0.43792849884E+03  0.43792849884E+03  0.00000000000E+00 0.  1.
         21   -1    0    0  501  503 -0.00000000000E+00 -0.00000000000E+00 -0.99625044030E+03  0.99625044030E+03  0.00000000000E+00 0. -1.
    9000007    2    1    2  501    0  0.12731919134E+03  0.50951560818E+03 -0.30419411211E+03  0.72679129074E+03  0.39984395831E+03 0.  0.
    9000005    1    3    3    0    0  0.26505175482E+03  0.29865728370E+03 -0.12763961081E+03  0.41921530993E+03  0.99999687468E+00 0.  0.
          4    1    3    3  501    0 -0.13773256348E+03  0.21085832447E+03 -0.17655450130E+03  0.30757598081E+03  0.00000000000E+00 0.  1.
   -9000007    1    1    2    0  502 -0.12731919134E+03 -0.50951560818E+03 -0.25412782935E+03  0.70738764840E+03  0.40000000000E+03 0. -1.
<mgrwt>
<rscale>  2 0.66014023E+03</rscale>
<asrwt>0</asrwt>
<pdfrwt beam="1">  1       21 0.67373615E-01 0.66016387E+03</pdfrwt>
<pdfrwt beam="2">  1       21 0.15326930E+00 0.66016387E+03</pdfrwt>
<totfact> 0.43694831E+02</totfact>
</mgrwt>
</event>
<event>
 6    1  0.9399121E-004  0.5952588E+03  0.7818608E-02  0.9915346E-01
         21   -1    0    0  503  502  0.00000000000E+00  0.00000000000E+00  0.24501449140E+04  0.24501449140E+04  0.00000000000E+00 0. -1.
         21   -1    0    0  501  503 -0.00000000000E+00 -0.00000000000E+00 -0.30238530266E+03  0.30238530266E+03  0.00000000000E+00 0.  1.
    9000007    2    1    2  501    0 -0.44008653906E+03 -0.23106005876E+02  0.79742255805E+02  0.60057625986E+03  0.40015367945E+03 0.  0.
    9000005    1    3    3    0    0 -0.25817802454E+03 -0.62998589299E+02 -0.14973868946E+03  0.30503670226E+03  0.99999687468E+00 0.  0.
          4    1    3    3  501    0 -0.18190851452E+03  0.39892583423E+02  0.22948094527E+03  0.29553955760E+03  0.00000000000E+00 0.  1.
   -9000007    1    1    2    0  502  0.44008653906E+03  0.23106005876E+02  0.20680173555E+04  0.21519539568E+04  0.40000000000E+03 0. -1.
<mgrwt>
<rscale>  2 0.59523296E+03</rscale>
<asrwt>0</asrwt>
<pdfrwt beam="1">  1       21 0.37694536E+00 0.59525878E+03</pdfrwt>
<pdfrwt beam="2">  1       21 0.46520818E-01 0.59525878E+03</pdfrwt>
<totfact> 0.36202037E+01</totfact>
</mgrwt>
</event>
<event>
 6    1  0.9399121E-004  0.4154372E+03  0.7818608E-02  0.1038594E+00
         21   -1    0    0  503  502  0.00000000000E+00  0.00000000000E+00  0.36126780685E+03  0.36126780685E+03  0.00000000000E+00 0.  1.
         21   -1    0    0  501  503 -0.00000000000E+00 -0.00000000000E+00 -0.16785513373E+04  0.16785513373E+04  0.00000000000E+00 0.  1.
    9000007    2    1    2  501    0  0.11072506748E+03 -0.22446356944E+01 -0.15215382942E+04  0.15772339223E+04  0.40040352885E+03 0.  0.
    9000005    1    3    3    0    0 -0.15103689570E+03  0.17981526203E+02 -0.60572566043E+03  0.62453186856E+03  0.99999687468E+00 0.  0.
          4    1    3    3  501    0  0.26176196318E+03 -0.20226161898E+02 -0.91581263376E+03  0.95270205371E+03  0.00000000000E+00 0.  1.
   -9000007    1    1    2    0  502 -0.11072506748E+03  0.22446356944E+01  0.20425476376E+03  0.46258522185E+03  0.40000000000E+03 0.  1.
<mgrwt>
<rscale>  2 0.41533994E+03</rscale>
<asrwt>0</asrwt>
<pdfrwt beam="1">  1       21 0.55579662E-01 0.41543720E+03</pdfrwt>
<pdfrwt beam="2">  1       21 0.25823867E+00 0.41543720E+03</pdfrwt>
<totfact> 0.14629255E+02</totfact>
</mgrwt>
</event>
<event>
 6    1  0.9399121E-004  0.4072159E+03  0.7818608E-02  0.1041387E+00
         21   -1    0    0  503  502  0.00000000000E+00  0.00000000000E+00  0.10425364193E+04  0.10425364193E+04  0.00000000000E+00 0. -1.
         21   -1    0    0  501  503 -0.00000000000E+00 -0.00000000000E+00 -0.17897790402E+03  0.17897790402E+03  0.00000000000E+00 0. -1.
    9000007    2    1    2  501    0 -0.14341865613E+02  0.74960718731E+02  0.63692144156E+03  0.75547874351E+03  0.39906692510E+03 0.  0.
    9000005    1    3    3    0    0  0.14553415613E+02 -0.94022761596E+02  0.55921858232E+03  0.56725523744E+03  0.99999687468E+00 0.  0.
          4    1    3    3  501    0 -0.28895281227E+02  0.16898348033E+03  0.77702859249E+02  0.18822350607E+03  0.00000000000E+00 0.  1.
   -9000007    1    1    2    0  502  0.14341865613E+02 -0.74960718731E+02  0.22663707371E+03  0.46603557980E+03  0.40000000000E+03 0. -1.
<mgrwt>
<rscale>  2 0.40698659E+03</rscale>
<asrwt>0</asrwt>
<pdfrwt beam="1">  1       21 0.16039021E+00 0.40721591E+03</pdfrwt>
<pdfrwt beam="2">  1       21 0.27535063E-01 0.40721591E+03</pdfrwt>
<totfact> 0.27508776E+03</totfact>
</mgrwt>
</event>
<event>
 6    1  0.9399121E-004  0.4675034E+03  0.7818608E-02  0.1022646E+00
         21   -1    0    0  503  502  0.00000000000E+00  0.00000000000E+00  0.22834413284E+03  0.22834413284E+03  0.00000000000E+00 0. -1.
         21   -1    0    0  501  503 -0.00000000000E+00 -0.00000000000E+00 -0.10304177177E+04  0.10304177177E+04  0.00000000000E+00 0.  1.
    9000007    2    1    2  501    0 -0.24043055088E+03  0.27432645919E+02 -0.56938187546E+03  0.73655036899E+03  0.39968903675E+03 0.  0.
    9000005    1    3    3    0    0 -0.17759015347E+03 -0.17835849030E+03 -0.32152159176E+03  0.40832235750E+03  0.99999687468E+00 0.  0.
          4    1    3    3  501    0 -0.62840397410E+02  0.20579113622E+03 -0.24786028370E+03  0.32822801149E+03  0.00000000000E+00 0.  1.
   -9000007    1    1    2    0  502  0.24043055088E+03 -0.27432645919E+02 -0.23269170943E+03  0.52221148158E+03  0.40000000000E+03 0. -1.
<mgrwt>
<rscale>  2 0.46743685E+03</rscale>
<asrwt>0</asrwt>
<pdfrwt beam="1">  1       21 0.35129867E-01 0.46750337E+03</pdfrwt>
<pdfrwt beam="2">  1       21 0.15852580E+00 0.46750337E+03</pdfrwt>
<totfact> 0.17056523E+03</totfact>
</mgrwt>
</event>
<event>
 6    1  0.9399121E-004  0.7841328E+03  0.7818608E-02  0.9583446E-01
         21   -1    0    0  503  502  0.00000000000E+00  0.00000000000E+00  0.45207273995E+03  0.45207273995E+03  0.00000000000E+00 0. -1.
         21   -1    0    0  501  503 -0.00000000000E+00 -0.00000000000E+00 -0.13617978617E+04  0.13617978617E+04  0.00000000000E+00 0. -1.
    9000007    2    1    2  501    0  0.95017562361E+02 -0.66715974220E+03 -0.41606686440E+03  0.88768005226E+03  0.40091617674E+03 0.  0.
    9000005    1    3    3    0    0  0.11602842504E+01 -0.20100640181E+03  0.65007407371E+02  0.21126259213E+03  0.99999687468E+00 0.  0.
          4    1    3    3  501    0  0.93857278111E+02 -0.46615334039E+03 -0.48107427177E+03  0.67641746013E+03  0.00000000000E+00 0.  1.
   -9000007    1    1    2    0  502 -0.95017562361E+02  0.66715974220E+03 -0.49365825737E+03  0.92619054942E+03  0.40000000000E+03 0. -1.
<mgrwt>
<rscale>  2 0.78401576E+03</rscale>
<asrwt>0</asrwt>
<pdfrwt beam="1">  1       21 0.69549654E-01 0.78413279E+03</pdfrwt>
<pdfrwt beam="2">  1       21 0.20950736E+00 0.78413279E+03</pdfrwt>
<totfact> 0.15442052E+02</totfact>
</mgrwt>
</event>
<event>
 6    1  0.9399121E-004  0.5622477E+03  0.7818608E-02  0.9987061E-01
         21   -1    0    0  503  502  0.00000000000E+00  0.00000000000E+00  0.10913138893E+04  0.10913138893E+04  0.00000000000E+00 0. -1.
         21   -1    0    0  501  503 -0.00000000000E+00 -0.00000000000E+00 -0.30152383477E+03  0.30152383477E+03  0.00000000000E+00 0.  1.
    9000007    2    1    2  501    0  0.37291097902E+03 -0.13061356617E+03  0.25635079326E+03  0.61780227495E+03  0.39980172559E+03 0.  0.
    9000005    1    3    3    0    0  0.45341265287E+03 -0.77852708683E+02  0.24403437508E+03  0.52076660247E+03  0.99999687468E+00 0.  0.
          4    1    3    3  501    0 -0.80501673853E+02 -0.52760857489E+02  0.12316418176E+02  0.97035672476E+02  0.00000000000E+00 0.  1.
   -9000007    1    1    2    0  502 -0.37291097902E+03  0.13061356617E+03  0.53343926129E+03  0.77503544914E+03  0.40000000000E+03 0.  1.
<mgrwt>
<rscale>  2 0.56221246E+03</rscale>
<asrwt>0</asrwt>
<pdfrwt beam="1">  1       21 0.16789444E+00 0.56224772E+03</pdfrwt>
<pdfrwt beam="2">  1       21 0.46388283E-01 0.56224772E+03</pdfrwt>
<totfact> 0.78797531E+02</totfact>
</mgrwt>
</event>
<event>
 6    1  0.9399121E-004  0.5977150E+03  0.7818608E-02  0.9910633E-01
         21   -1    0    0  503  502  0.00000000000E+00  0.00000000000E+00  0.19913703167E+03  0.19913703167E+03  0.00000000000E+00 0. -1.
         21   -1    0    0  501  503 -0.00000000000E+00 -0.00000000000E+00 -0.18266968130E+04  0.18266968130E+04  0.00000000000E+00 0.  1.
    9000007    2    1    2  501    0  0.12601323746E+03  0.42461377186E+03 -0.95533545390E+03  0.11269113020E+04  0.40135652721E+03 0.  0.
    9000005    1    3    3    0    0  0.26720128092E+03  0.33881636510E+03 -0.66094821849E+03  0.78933301040E+03  0.99999687468E+00 0.  0.
          4    1    3    3  501    0 -0.14118804345E+03  0.85797406758E+02 -0.29438723540E+03  0.33757829165E+03  0.00000000000E+00 0.  1.
   -9000007    1    1    2    0  502 -0.12601323746E+03 -0.42461377186E+03 -0.67222432748E+03  0.89892254267E+03  0.40000000000E+03 0.  1.
<mgrwt>
<rscale>  2 0.59748739E+03</rscale>
<asrwt>0</asrwt>
<pdfrwt beam="1">  1       21 0.30636465E-01 0.59771503E+03</pdfrwt>
<pdfrwt beam="2">  1       21 0.28103029E+00 0.59771503E+03</pdfrwt>
<totfact> 0.33298268E+02</totfact>
</mgrwt>
</event>
<event>
 6    1  0.9399121E-004  0.4203502E+03  0.7818608E-02  0.1036987E+00
         21   -1    0    0  503  502  0.00000000000E+00  0.00000000000E+00  0.39700524139E+03  0.39700524139E+03  0.00000000000E+00 0.  1.
         21   -1    0    0  501  503 -0.00000000000E+00 -0.00000000000E+00 -0.53414671338E+03  0.53414671338E+03  0.00000000000E+00 0.  1.
    9000007    2    1    2  501    0  0.10891290280E+03  0.66894571103E+02  0.12200884383E+03  0.43769902872E+03  0.40044647299E+03 0.  0.
    9000005    1    3    3    0    0  0.39140903841E+02 -0.10097418313E+03 -0.10229765631E+03  0.14897518750E+03  0.99999687468E+00 0.  0.
          4    1    3    3  501    0  0.69771998959E+02  0.16786875423E+03  0.22430650014E+03  0.28872384122E+03  0.00000000000E+00 0.  1.
   -9000007    1    1    2    0  502 -0.10891290280E+03 -0.66894571103E+02 -0.25915031582E+03  0.49345292605E+03  0.40000000000E+03 0.  1.
<mgrwt>
<rscale>  2 0.42024382E+03</rscale>
<asrwt>0</asrwt>
<pdfrwt beam="1">  1       21 0.61077729E-01 0.42035019E+03</pdfrwt>
<pdfrwt beam="2">  1       21 0.82176418E-01 0.42035019E+03</pdfrwt>
<totfact> 0.28371920E+03</totfact>
</mgrwt>
</event>
<event>
 6    1  0.9399121E-004  0.4841009E+03  0.7818608E-02  0.1018031E+00
         21   -1    0    0  503  502  0.00000000000E+00  0.00000000000E+00  0.80234595736E+03  0.80234595736E+03  0.00000000000E+00 0. -1.
         21   -1    0    0  501  503 -0.00000000000E+00 -0.00000000000E+00 -0.33424270558E+03  0.33424270558E+03  0.00000000000E+00 0. -1.
    9000007    2    1    2  501    0  0.27247888589E+03  0.10436028304E+02  0.31807366857E+02  0.48489260407E+03  0.39969422682E+03 0.  0.
    9000005    1    3    3    0    0  0.62506915189E+02 -0.13488864800E+03 -0.11713585334E+03  0.18927194704E+03  0.99999687468E+00 0.  0.
          4    1    3    3  501    0  0.20997197070E+03  0.14532467630E+03  0.14894322019E+03  0.29562065703E+03  0.00000000000E+00 0.  1.
   -9000007    1    1    2    0  502 -0.27247888589E+03 -0.10436028304E+02  0.43629588492E+03  0.65169605887E+03  0.40000000000E+03 0. -1.
<mgrwt>
<rscale>  2 0.48403770E+03</rscale>
<asrwt>0</asrwt>
<pdfrwt beam="1">  1       21 0.12343784E+00 0.48410087E+03</pdfrwt>
<pdfrwt beam="2">  1       21 0.51421955E-01 0.48410087E+03</pdfrwt>
<totfact> 0.14934721E+03</totfact>
</mgrwt>
</event>
<event>
 6    1  0.9399121E-004  0.4443229E+03  0.7818608E-02  0.1029609E+00
         21   -1    0    0  503  502  0.00000000000E+00  0.00000000000E+00  0.76336954310E+03  0.76336954310E+03  0.00000000000E+00 0.  1.
         21   -1    0    0  501  503 -0.00000000000E+00 -0.00000000000E+00 -0.31197266848E+03  0.31197266848E+03  0.00000000000E+00 0.  1.
    9000007    2    1    2  501    0  0.17951199927E+03  0.55614327700E+02  0.98986394462E+00  0.44432399743E+03  0.40262305390E+03 0.  0.
    9000005    1    3    3    0    0 -0.51635633380E+02  0.14230218331E+03  0.96609381981E+02  0.17958430524E+03  0.99999687468E+00 0.  0.
          4    1    3    3  501    0  0.23114763265E+03 -0.86687855605E+02 -0.95619518037E+02  0.26473969219E+03  0.00000000000E+00 0.  1.
   -9000007    1    1    2    0  502 -0.17951199927E+03 -0.55614327700E+02  0.45040701068E+03  0.63101821415E+03  0.40000000000E+03 0.  1.
<mgrwt>
<rscale>  2 0.44372783E+03</rscale>
<asrwt>0</asrwt>
<pdfrwt beam="1">  1       21 0.11744147E+00 0.44432289E+03</pdfrwt>
<pdfrwt beam="2">  1       21 0.47995795E-01 0.44432289E+03</pdfrwt>
<totfact> 0.19931975E+03</totfact>
</mgrwt>
</event>
<event>
 6    1  0.9399121E-004  0.4583021E+03  0.7818608E-02  0.1025293E+00
         21   -1    0    0  503  502  0.00000000000E+00  0.00000000000E+00  0.14239449287E+04  0.14239449287E+04  0.00000000000E+00 0.  1.
         21   -1    0    0  501  503 -0.00000000000E+00 -0.00000000000E+00 -0.14857599981E+03  0.14857599981E+03  0.00000000000E+00 0.  1.
    9000007    2    1    2  501    0  0.21006428031E+03  0.75361352352E+02  0.56862478706E+03  0.73032521652E+03  0.40029294039E+03 0.  0.
    9000005    1    3    3    0    0  0.19118603938E+03 -0.17792255188E+02  0.43778679826E+02  0.19694222198E+03  0.99999687468E+00 0.  0.
          4    1    3    3  501    0  0.18878240931E+02  0.93153607540E+02  0.52484610723E+03  0.53338299453E+03  0.00000000000E+00 0.  1.
   -9000007    1    1    2    0  502 -0.21006428031E+03 -0.75361352352E+02  0.70674414180E+03  0.84219571197E+03  0.40000000000E+03 0.  1.
<mgrwt>
<rscale>  2 0.45823808E+03</rscale>
<asrwt>0</asrwt>
<pdfrwt beam="1">  1       21 0.21906844E+00 0.45830205E+03</pdfrwt>
<pdfrwt beam="2">  1       21 0.22857847E-01 0.45830205E+03</pdfrwt>
<totfact> 0.15253954E+03</totfact>
</mgrwt>
</event>
<event>
 6    1  0.9399121E-004  0.4562878E+03  0.7818608E-02  0.1026012E+00
         21   -1    0    0  503  502  0.00000000000E+00  0.00000000000E+00  0.86572242099E+03  0.86572242099E+03  0.00000000000E+00 0.  1.
         21   -1    0    0  501  503 -0.00000000000E+00 -0.00000000000E+00 -0.27002398173E+03  0.27002398173E+03  0.00000000000E+00 0.  1.
    9000007    2    1    2  501    0 -0.13846794371E+03 -0.17036783359E+03  0.10609392683E+03  0.46648475827E+03  0.39768522506E+03 0.  0.
    9000005    1    3    3    0    0 -0.15297651265E+03 -0.65858056518E+02  0.24240463621E+03  0.29410900136E+03  0.99999687468E+00 0.  0.
          4    1    3    3  501    0  0.14508568948E+02 -0.10450977707E+03 -0.13631070938E+03  0.17237575690E+03  0.00000000000E+00 0.  1.
   -9000007    1    1    2    0  502  0.13846794371E+03  0.17036783359E+03  0.48960451243E+03  0.66926164446E+03  0.40000000000E+03 0.  1.
<mgrwt>
<rscale>  2 0.45578000E+03</rscale>
<asrwt>0</asrwt>
<pdfrwt beam="1">  1       21 0.13318806E+00 0.45628782E+03</pdfrwt>
<pdfrwt beam="2">  1       21 0.41542151E-01 0.45628782E+03</pdfrwt>
<totfact> 0.19423379E+03</totfact>
</mgrwt>
</event>
<event>
 6    1  0.9399121E-004  0.4437108E+03  0.7818608E-02  0.1029622E+00
         21   -1    0    0  503  502  0.00000000000E+00  0.00000000000E+00  0.59069048029E+03  0.59069048029E+03  0.00000000000E+00 0. -1.
         21   -1    0    0  501  503 -0.00000000000E+00 -0.00000000000E+00 -0.35053742134E+03  0.35053742134E+03  0.00000000000E+00 0. -1.
    9000007    2    1    2  501    0  0.10574307488E+03  0.16030503280E+03  0.15473546034E+02  0.44387472234E+03  0.39988252910E+03 0.  0.
    9000005    1    3    3    0    0  0.77605491412E+02  0.26259012080E+03 -0.95838835754E+02  0.29010733578E+03  0.99999687468E+00 0.  0.
          4    1    3    3  501    0  0.28137583471E+02 -0.10228508800E+03  0.11131238179E+03  0.15376738657E+03  0.00000000000E+00 0.  1.
   -9000007    1    1    2    0  502 -0.10574307488E+03 -0.16030503280E+03  0.22467951291E+03  0.49735317929E+03  0.40000000000E+03 0. -1.
<mgrwt>
<rscale>  2 0.44368435E+03</rscale>
<asrwt>0</asrwt>
<pdfrwt beam="1">  1       21 0.90875458E-01 0.44371083E+03</pdfrwt>
<pdfrwt beam="2">  1       21 0.53928834E-01 0.44371083E+03</pdfrwt>
<totfact> 0.29112811E+03</totfact>
</mgrwt>
</event>
<event>
 6    1  0.9399121E-004  0.5339858E+03  0.7818608E-02  0.1005338E+00
         21   -1    0    0  503  502  0.00000000000E+00  0.00000000000E+00  0.26143812141E+03  0.26143812141E+03  0.00000000000E+00 0. -1.
         21   -1    0    0  501  503 -0.00000000000E+00 -0.00000000000E+00 -0.11204416016E+04  0.11204416016E+04  0.00000000000E+00 0. -1.
    9000007    2    1    2  501    0 -0.24388440551E+03  0.25388748187E+03 -0.54685454753E+03  0.76432372324E+03  0.40150018812E+03 0.  0.
    9000005    1    3    3    0    0 -0.17543823002E+03  0.28328811991E+03 -0.15868354236E+03  0.36906936753E+03  0.99999687468E+00 0.  0.
          4    1    3    3  501    0 -0.68446175480E+02 -0.29400638047E+02 -0.38817100517E+03  0.39525435571E+03  0.00000000000E+00 0.  1.
   -9000007    1    1    2    0  502  0.24388440551E+03 -0.25388748187E+03 -0.31214893266E+03  0.61755599978E+03  0.40000000000E+03 0. -1.
<mgrwt>
<rscale>  2 0.53370383E+03</rscale>
<asrwt>0</asrwt>
<pdfrwt beam="1">  1       21 0.40221250E-01 0.53398582E+03</pdfrwt>
<pdfrwt beam="2">  1       21 0.17237563E+00 0.53398582E+03</pdfrwt>
<totfact> 0.99474311E+02</totfact>
</mgrwt>
</event>
<event>
 6    1  0.9399121E-004  0.4050022E+03  0.7818608E-02  0.1042124E+00
         21   -1    0    0  503  502  0.00000000000E+00  0.00000000000E+00  0.15421420858E+03  0.15421420858E+03  0.00000000000E+00 0. -1.
         21   -1    0    0  501  503 -0.00000000000E+00 -0.00000000000E+00 -0.10720937571E+04  0.10720937571E+04  0.00000000000E+00 0. -1.
    9000007    2    1    2  501    0  0.41983533609E+02  0.40822737572E+02 -0.51975384942E+03  0.65891640311E+03  0.40074636531E+03 0.  0.
    9000005    1    3    3    0    0  0.38290987115E+02 -0.12816548569E+03 -0.46092469006E+03  0.47994287297E+03  0.99999687468E+00 0.  0.
          4    1    3    3  501    0  0.36925464941E+01  0.16898822326E+03 -0.58829159363E+02  0.17897353014E+03  0.00000000000E+00 0.  1.
   -9000007    1    1    2    0  502 -0.41983533609E+02 -0.40822737572E+02 -0.39812569911E+03  0.56739156258E+03  0.40000000000E+03 0. -1.
<mgrwt>
<rscale>  2 0.40481742E+03</rscale>
<asrwt>0</asrwt>
<pdfrwt beam="1">  1       21 0.23725264E-01 0.40500218E+03</pdfrwt>
<pdfrwt beam="2">  1       21 0.16493750E+00 0.40500218E+03</pdfrwt>
<totfact> 0.34030887E+03</totfact>
</mgrwt>
</event>
<event>
 6    1  0.9399121E-004  0.4218989E+03  0.7818608E-02  0.1036620E+00
         21   -1    0    0  503  502  0.00000000000E+00  0.00000000000E+00  0.52595166750E+03  0.52595166750E+03  0.00000000000E+00 0. -1.
         21   -1    0    0  501  503 -0.00000000000E+00 -0.00000000000E+00 -0.52573385965E+03  0.52573385965E+03  0.00000000000E+00 0. -1.
    9000007    2    1    2  501    0 -0.13339793078E+03  0.14271958709E+02 -0.31516307090E+03  0.52493720450E+03  0.39778462849E+03 0.  0.
    9000005    1    3    3    0    0 -0.19761062859E+03  0.11137883003E+03 -0.33725271790E+03  0.40644261592E+03  0.99999687468E+00 0.  0.
          4    1    3    3  501    0  0.64212697807E+02 -0.97106871316E+02  0.22089647004E+02  0.11849458857E+03  0.00000000000E+00 0.  1.
   -9000007    1    1    2    0  502  0.13339793078E+03 -0.14271958709E+02  0.31538087874E+03  0.52674832265E+03  0.40000000000E+03 0. -1.
<mgrwt>
<rscale>  2 0.42137299E+03</rscale>
<asrwt>0</asrwt>
<pdfrwt beam="1">  1       21 0.80915641E-01 0.42189892E+03</pdfrwt>
<pdfrwt beam="2">  1       21 0.80882132E-01 0.42189892E+03</pdfrwt>
<totfact> 0.15616645E+03</totfact>
</mgrwt>
</event>
<event>
 6    1  0.9399121E-004  0.4109486E+03  0.7818608E-02  0.1040089E+00
         21   -1    0    0  503  502  0.00000000000E+00  0.00000000000E+00  0.17750396825E+03  0.17750396825E+03  0.00000000000E+00 0.  1.
         21   -1    0    0  501  503 -0.00000000000E+00 -0.00000000000E+00 -0.10179714052E+04  0.10179714052E+04  0.00000000000E+00 0.  1.
    9000007    2    1    2  501    0 -0.89104616680E+02 -0.30645382026E+02 -0.57401205468E+03  0.70570272939E+03  0.39955942136E+03 0.  0.
    9000005    1    3    3    0    0 -0.24905763335E+02  0.16558675159E+03 -0.11718050881E+03  0.20438087236E+03  0.99999687468E+00 0.  0.
          4    1    3    3  501    0 -0.64198853345E+02 -0.19623213361E+03 -0.45683154586E+03  0.50132185702E+03  0.00000000000E+00 0.  1.
   -9000007    1    1    2    0  502  0.89104616680E+02  0.30645382026E+02 -0.26645538231E+03  0.48977264411E+03  0.40000000000E+03 0.  1.
<mgrwt>
<rscale>  2 0.41084138E+03</rscale>
<asrwt>0</asrwt>
<pdfrwt beam="1">  1       21 0.27308303E-01 0.41094862E+03</pdfrwt>
<pdfrwt beam="2">  1       21 0.15661099E+00 0.41094862E+03</pdfrwt>
<totfact> 0.29819173E+03</totfact>
</mgrwt>
</event>
<event>
 6    1  0.9399121E-004  0.4454088E+03  0.7818608E-02  0.1029133E+00
         21   -1    0    0  503  502  0.00000000000E+00  0.00000000000E+00  0.63611273474E+03  0.63611273474E+03  0.00000000000E+00 0. -1.
         21   -1    0    0  501  503 -0.00000000000E+00 -0.00000000000E+00 -0.32067658002E+03  0.32067658002E+03  0.00000000000E+00 0.  1.
    9000007    2    1    2  501    0  0.13576682222E+03  0.13988517950E+03  0.77182829282E+02  0.45204666693E+03  0.40048533866E+03 0.  0.
    9000005    1    3    3    0    0 -0.97675889275E+02 -0.25367020976E+00  0.14181831855E+03  0.17220359800E+03  0.99999687468E+00 0.  0.
          4    1    3    3  501    0  0.23344271150E+03  0.14013884971E+03 -0.64635489271E+02  0.27984306892E+03  0.00000000000E+00 0.  1.
   -9000007    1    1    2    0  502 -0.13576682222E+03 -0.13988517950E+03  0.23825332544E+03  0.50474264784E+03  0.40000000000E+03 0. -1.
<mgrwt>
<rscale>  2 0.44529968E+03</rscale>
<asrwt>0</asrwt>
<pdfrwt beam="1">  1       21 0.97863498E-01 0.44540880E+03</pdfrwt>
<pdfrwt beam="2">  1       21 0.49334858E-01 0.44540880E+03</pdfrwt>
<totfact> 0.29476082E+03</totfact>
</mgrwt>
</event>
<event>
 6    1  0.9399121E-004  0.4547324E+03  0.7818608E-02  0.1026330E+00
         21   -1    0    0  503  502  0.00000000000E+00  0.00000000000E+00  0.31015530042E+03  0.31015530042E+03  0.00000000000E+00 0. -1.
         21   -1    0    0  501  503 -0.00000000000E+00 -0.00000000000E+00 -0.81419447901E+03  0.81419447901E+03  0.00000000000E+00 0. -1.
    9000007    2    1    2  501    0  0.18955889215E+03 -0.10359973157E+03 -0.49147148616E+03  0.66957134452E+03  0.40014508084E+03 0.  0.
    9000005    1    3    3    0    0  0.25403040388E+02  0.31905986966E+02 -0.45107126679E+03  0.45291234713E+03  0.99999687468E+00 0.  0.
          4    1    3    3  501    0  0.16415585176E+03 -0.13550571854E+03 -0.40400219369E+02  0.21665899739E+03  0.00000000000E+00 0.  1.
   -9000007    1    1    2    0  502 -0.18955889215E+03  0.10359973157E+03 -0.12567692434E+02  0.45477843492E+03  0.40000000000E+03 0. -1.
<mgrwt>
<rscale>  2 0.45470049E+03</rscale>
<asrwt>0</asrwt>
<pdfrwt beam="1">  1       21 0.47716200E-01 0.45473241E+03</pdfrwt>
<pdfrwt beam="2">  1       21 0.12526069E+00 0.45473241E+03</pdfrwt>
<totfact> 0.17050963E+03</totfact>
</mgrwt>
</event>
<event>
 6    1  0.9399121E-004  0.6287243E+03  0.7818608E-02  0.9847610E-01
         21   -1    0    0  503  502  0.00000000000E+00  0.00000000000E+00  0.10002887271E+04  0.10002887271E+04  0.00000000000E+00 0.  1.
         21   -1    0    0  501  503 -0.00000000000E+00 -0.00000000000E+00 -0.48974623820E+03  0.48974623820E+03  0.00000000000E+00 0.  1.
    9000007    2    1    2  501    0 -0.31927635613E+03 -0.36518054960E+03 -0.72282212064E+02  0.63272588602E+03  0.39977881793E+03 0.  0.
    9000005    1    3    3    0    0 -0.19495796409E+03  0.12211605867E+02 -0.12498464062E+03  0.23190491902E+03  0.99999687468E+00 0.  0.
          4    1    3    3  501    0 -0.12431839204E+03 -0.37739215547E+03  0.52702428560E+02  0.40082096700E+03  0.00000000000E+00 0.  1.
   -9000007    1    1    2    0  502  0.31927635613E+03  0.36518054960E+03  0.58282470098E+03  0.85730907931E+03  0.40000000000E+03 0.  1.
<mgrwt>
<rscale>  2 0.62868911E+03</rscale>
<asrwt>0</asrwt>
<pdfrwt beam="1">  1       21 0.15389057E+00 0.62872428E+03</pdfrwt>
<pdfrwt beam="2">  1       21 0.75345575E-01 0.62872428E+03</pdfrwt>
<totfact> 0.33832237E+02</totfact>
</mgrwt>
</event>
<event>
 6    1  0.9399121E-004  0.4099379E+03  0.7818608E-02  0.1040410E+00
         21   -1    0    0  503  502  0.00000000000E+00  0.00000000000E+00  0.67345141886E+03  0.67345141886E+03  0.00000000000E+00 0.  1.
         21   -1    0    0  501  503 -0.00000000000E+00 -0.00000000000E+00 -0.24952334233E+03  0.24952334233E+03  0.00000000000E+00 0.  1.
    9000007    2    1    2  501    0 -0.67791178743E+01  0.89460155249E+02  0.20185067366E+03  0.45674794012E+03  0.39978232893E+03 0.  0.
    9000005    1    3    3    0    0  0.21764371281E+02 -0.12669827190E+03  0.20113737033E+03  0.23871192199E+03  0.99999687468E+00 0.  0.
          4    1    3    3  501    0 -0.28543489155E+02  0.21615842715E+03  0.71330332884E+00  0.21803601813E+03  0.00000000000E+00 0.  1.
   -9000007    1    1    2    0  502  0.67791178743E+01 -0.89460155249E+02  0.22207740287E+03  0.46622682107E+03  0.40000000000E+03 0.  1.
<mgrwt>
<rscale>  2 0.40988478E+03</rscale>
<asrwt>0</asrwt>
<pdfrwt beam="1">  1       21 0.10360791E+00 0.40993789E+03</pdfrwt>
<pdfrwt beam="2">  1       21 0.38388207E-01 0.40993789E+03</pdfrwt>
<totfact> 0.43832773E+03</totfact>
</mgrwt>
</event>
<event>
 6    1  0.9399121E-004  0.4742434E+03  0.7818608E-02  0.1020749E+00
         21   -1    0    0  503  502  0.00000000000E+00  0.00000000000E+00  0.85128256228E+03  0.85128256228E+03  0.00000000000E+00 0. -1.
         21   -1    0    0  501  503 -0.00000000000E+00 -0.00000000000E+00 -0.38756173490E+03  0.38756173490E+03  0.00000000000E+00 0. -1.
    9000007    2    1    2  501    0  0.13877272917E+03 -0.21303768209E+03 -0.11778343767E+03  0.48865089903E+03  0.40032966238E+03 0.  0.
    9000005    1    3    3    0    0  0.23304730894E+03 -0.21945440461E+03 -0.18771817599E+03  0.37109351584E+03  0.99999687468E+00 0.  0.
          4    1    3    3  501    0 -0.94274579772E+02  0.64167225183E+01  0.69934738317E+02  0.11755738319E+03  0.00000000000E+00 0.  1.
   -9000007    1    1    2    0  502 -0.13877272917E+03  0.21303768209E+03  0.58150426506E+03  0.75019339815E+03  0.40000000000E+03 0. -1.
<mgrwt>
<rscale>  2 0.47417378E+03</rscale>
<asrwt>0</asrwt>
<pdfrwt beam="1">  1       21 0.13096655E+00 0.47424336E+03</pdfrwt>
<pdfrwt beam="2">  1       21 0.59624883E-01 0.47424336E+03</pdfrwt>
<totfact> 0.93368214E+02</totfact>
</mgrwt>
</event>
<event>
 6    1  0.9399121E-004  0.4299410E+03  0.7818608E-02  0.1033907E+00
         21   -1    0    0  503  502  0.00000000000E+00  0.00000000000E+00  0.93453611922E+02  0.93453611922E+02  0.00000000000E+00 0.  1.
         21   -1    0    0  501  503 -0.00000000000E+00 -0.00000000000E+00 -0.19928354467E+04  0.19928354467E+04  0.00000000000E+00 0.  1.
    9000007    2    1    2  501    0 -0.13137010659E+03  0.85315576372E+02 -0.10450898810E+04  0.11300717220E+04  0.40039029101E+03 0.  0.
    9000005    1    3    3    0    0 -0.88865117246E+02 -0.15887656215E+03 -0.44955784930E+03  0.48501755733E+03  0.99999687468E+00 0.  0.
          4    1    3    3  501    0 -0.42504989349E+02  0.24419213852E+03 -0.59553203168E+03  0.64505416470E+03  0.00000000000E+00 0.  1.
   -9000007    1    1    2    0  502  0.13137010659E+03 -0.85315576372E+02 -0.85429195385E+03  0.95621733664E+03  0.40000000000E+03 0.  1.
<mgrwt>
<rscale>  2 0.42985008E+03</rscale>
<asrwt>0</asrwt>
<pdfrwt beam="1">  1       21 0.14377479E-01 0.42994097E+03</pdfrwt>
<pdfrwt beam="2">  1       21 0.30659006E+00 0.42994097E+03</pdfrwt>
<totfact> 0.10811100E+03</totfact>
</mgrwt>
</event>
<event>
 6    1  0.9399121E-004  0.4304846E+03  0.7818608E-02  0.1033717E+00
         21   -1    0    0  503  502  0.00000000000E+00  0.00000000000E+00  0.20604420054E+04  0.20604420054E+04  0.00000000000E+00 0.  1.
         21   -1    0    0  501  503 -0.00000000000E+00 -0.00000000000E+00 -0.10779594459E+03  0.10779594459E+03  0.00000000000E+00 0.  1.
    9000007    2    1    2  501    0 -0.44577711666E+02  0.15274096113E+03  0.14177648803E+04  0.14816413793E+04  0.39985865950E+03 0.  0.
    9000005    1    3    3    0    0  0.43030876597E+02 -0.23640924605E+02  0.11404672908E+04  0.11415240650E+04  0.99999687468E+00 0.  0.
          4    1    3    3  501    0 -0.87608588263E+02  0.17638188573E+03  0.27729758947E+03  0.34011731429E+03  0.00000000000E+00 0.  1.
   -9000007    1    1    2    0  502  0.44577711666E+02 -0.15274096113E+03  0.53488118055E+03  0.68659657069E+03  0.40000000000E+03 0.  1.
<mgrwt>
<rscale>  2 0.43045174E+03</rscale>
<asrwt>0</asrwt>
<pdfrwt beam="1">  1       21 0.31699105E+00 0.43048458E+03</pdfrwt>
<pdfrwt beam="2">  1       21 0.16583993E-01 0.43048458E+03</pdfrwt>
<totfact> 0.71782884E+02</totfact>
</mgrwt>
</event>
<event>
 6    1  0.9399121E-004  0.4667965E+03  0.7818608E-02  0.1022841E+00
         21   -1    0    0  503  502  0.00000000000E+00  0.00000000000E+00  0.57094522298E+03  0.57094522298E+03  0.00000000000E+00 0. -1.
         21   -1    0    0  501  503 -0.00000000000E+00 -0.00000000000E+00 -0.40850039077E+03  0.40850039077E+03  0.00000000000E+00 0.  1.
    9000007    2    1    2  501    0 -0.10022384399E+02  0.24041323187E+03 -0.44709199585E+02  0.46874828349E+03  0.39978377969E+03 0.  0.
    9000005    1    3    3    0    0 -0.87286831657E+02  0.23377361757E+03  0.12724971320E+03  0.28011173620E+03  0.99999687468E+00 0.  0.
          4    1    3    3  501    0  0.77264447258E+02  0.66396143054E+01 -0.17195891279E+03  0.18863654730E+03  0.00000000000E+00 0.  1.
   -9000007    1    1    2    0  502  0.10022384399E+02 -0.24041323187E+03  0.20715403179E+03  0.51069733026E+03  0.40000000000E+03 0.  1.
<mgrwt>
<rscale>  2 0.46675017E+03</rscale>
<asrwt>0</asrwt>
<pdfrwt beam="1">  1       21 0.87837727E-01 0.46679650E+03</pdfrwt>
<pdfrwt beam="2">  1       21 0.62846214E-01 0.46679650E+03</pdfrwt>
<totfact> 0.22411482E+03</totfact>
</mgrwt>
</event>
<event>
 6    1  0.9399121E-004  0.5866771E+03  0.7818608E-02  0.9933442E-01
         21   -1    0    0  503  502  0.00000000000E+00  0.00000000000E+00  0.78664936997E+03  0.78664936997E+03  0.00000000000E+00 0. -1.
         21   -1    0    0  501  503 -0.00000000000E+00 -0.00000000000E+00 -0.47724446501E+03  0.47724446501E+03  0.00000000000E+00 0.  1.
    9000007    2    1    2  501    0  0.38628654754E+03 -0.18701008699E+03 -0.27585926134E+02  0.58731945645E+03  0.39999136385E+03 0.  0.
    9000005    1    3    3    0    0  0.98980666703E+02 -0.25500886215E+03  0.58602344986E+02  0.27975333239E+03  0.99999687468E+00 0.  0.
          4    1    3    3  501    0  0.28730588084E+03  0.67998775158E+02 -0.86188271120E+02  0.30756612405E+03  0.00000000000E+00 0.  1.
   -9000007    1    1    2    0  502 -0.38628654754E+03  0.18701008699E+03  0.33699083110E+03  0.67657437854E+03  0.40000000000E+03 0. -1.
<mgrwt>
<rscale>  2 0.58667567E+03</rscale>
<asrwt>0</asrwt>
<pdfrwt beam="1">  1       21 0.12102298E+00 0.58667714E+03</pdfrwt>
<pdfrwt beam="2">  1       21 0.73422225E-01 0.58667714E+03</pdfrwt>
<totfact> 0.69021213E+02</totfact>
</mgrwt>
</event>
<event>
 6    1  0.9399121E-004  0.4288861E+03  0.7818608E-02  0.1034524E+00
         21   -1    0    0  503  502  0.00000000000E+00  0.00000000000E+00  0.12422824392E+04  0.12422824392E+04  0.00000000000E+00 0.  1.
         21   -1    0    0  501  503 -0.00000000000E+00 -0.00000000000E+00 -0.19649627748E+03  0.19649627748E+03  0.00000000000E+00 0. -1.
    9000007    2    1    2  501    0  0.12364719948E+03  0.72903571896E+02  0.16261538328E+03  0.45867964790E+03  0.40415305985E+03 0.  0.
    9000005    1    3    3    0    0  0.14483671741E+03  0.21880015950E+03  0.36997158158E+02  0.26499240406E+03  0.99999687468E+00 0.  0.
          4    1    3    3  501    0 -0.21189517928E+02 -0.14589658760E+03  0.12561822512E+03  0.19368724384E+03  0.00000000000E+00 0.  1.
   -9000007    1    1    2    0  502 -0.12364719948E+03 -0.72903571896E+02  0.88317077843E+03  0.98009906877E+03  0.40000000000E+03 0.  1.
<mgrwt>
<rscale>  2 0.42790488E+03</rscale>
<asrwt>0</asrwt>
<pdfrwt beam="1">  1       21 0.19112037E+00 0.42888606E+03</pdfrwt>
<pdfrwt beam="2">  1       21 0.30230197E-01 0.42888606E+03</pdfrwt>
<totfact> 0.13675358E+03</totfact>
</mgrwt>
</event>
<event>
 6    1  0.9399121E-004  0.4022494E+03  0.7818608E-02  0.1043120E+00
         21   -1    0    0  503  502  0.00000000000E+00  0.00000000000E+00  0.22978657915E+03  0.22978657915E+03  0.00000000000E+00 0.  1.
         21   -1    0    0  501  503 -0.00000000000E+00 -0.00000000000E+00 -0.14355719318E+04  0.14355719318E+04  0.00000000000E+00 0.  1.
    9000007    2    1    2  501    0  0.25250917003E+02 -0.92186055405E+01 -0.11987021763E+04  0.12643937208E+04  0.40135019896E+03 0.  0.
    9000005    1    3    3    0    0 -0.11796704101E+03  0.10551215090E+03 -0.23469186806E+03  0.28307297589E+03  0.99999687468E+00 0.  0.
          4    1    3    3  501    0  0.14321795802E+03 -0.11473075644E+03 -0.96401030829E+03  0.98132074495E+03  0.00000000000E+00 0.  1.
   -9000007    1    1    2    0  502 -0.25250917003E+02  0.92186055405E+01 -0.70831762655E+01  0.40096479008E+03  0.40000000000E+03 0.  1.
<mgrwt>
<rscale>  2 0.40191218E+03</rscale>
<asrwt>0</asrwt>
<pdfrwt beam="1">  1       21 0.35351782E-01 0.40224939E+03</pdfrwt>
<pdfrwt beam="2">  1       21 0.22085722E+00 0.40224939E+03</pdfrwt>
<totfact> 0.64622741E+02</totfact>
</mgrwt>
</event>
<event>
 6    1  0.9399121E-004  0.4843848E+03  0.7818608E-02  0.1018028E+00
         21   -1    0    0  503  502  0.00000000000E+00  0.00000000000E+00  0.73369119519E+03  0.73369119519E+03  0.00000000000E+00 0.  1.
         21   -1    0    0  501  503 -0.00000000000E+00 -0.00000000000E+00 -0.34675199860E+03  0.34675199860E+03  0.00000000000E+00 0.  1.
    9000007    2    1    2  501    0 -0.14908020090E+03  0.22891855250E+03  0.40156758319E+02  0.48471954185E+03  0.39838656985E+03 0.  0.
    9000005    1    3    3    0    0 -0.19432288063E+03  0.43898589958E+02 -0.12282010023E+03  0.23403898212E+03  0.99999687468E+00 0.  0.
          4    1    3    3  501    0  0.45242679723E+02  0.18501996254E+03  0.16297685855E+03  0.25068055974E+03  0.00000000000E+00 0.  1.
   -9000007    1    1    2    0  502  0.14908020090E+03 -0.22891855250E+03  0.34678243827E+03  0.59572365193E+03  0.40000000000E+03 0.  1.
<mgrwt>
<rscale>  2 0.48405156E+03</rscale>
<asrwt>0</asrwt>
<pdfrwt beam="1">  1       21 0.11287557E+00 0.48438477E+03</pdfrwt>
<pdfrwt beam="2">  1       21 0.53346461E-01 0.48438477E+03</pdfrwt>
<totfact> 0.17308385E+03</totfact>
</mgrwt>
</event>
<event>
 6    1  0.9399121E-004  0.8429386E+03  0.7818608E-02  0.9500158E-01
         21   -1    0    0  503  502  0.00000000000E+00  0.00000000000E+00  0.64609666967E+03  0.64609666967E+03  0.00000000000E+00 0. -1.
         21   -1    0    0  501  503 -0.00000000000E+00 -0.00000000000E+00 -0.11750065432E+04  0.11750065432E+04  0.00000000000E+00 0.  1.
    9000007    2    1    2  501    0 -0.45466757101E+03  0.58636415469E+03 -0.49648879634E+03  0.97754133115E+03  0.39817132894E+03 0.  0.
    9000005    1    3    3    0    0 -0.55435544718E+02 -0.31172980090E+02 -0.15345709398E+03  0.16611722967E+03  0.99999687468E+00 0.  0.
          4    1    3    3  501    0 -0.39923202630E+03  0.61753713478E+03 -0.34303170236E+03  0.81142410149E+03  0.00000000000E+00 0.  1.
   -9000007    1    1    2    0  502  0.45466757101E+03 -0.58636415469E+03 -0.32421077198E+02  0.84356188171E+03  0.40000000000E+03 0. -1.
<mgrwt>
<rscale>  2 0.84272198E+03</rscale>
<asrwt>0</asrwt>
<pdfrwt beam="1">  1       21 0.99399489E-01 0.84293862E+03</pdfrwt>
<pdfrwt beam="2">  1       21 0.18077024E+00 0.84293862E+03</pdfrwt>
<totfact> 0.10312319E+02</totfact>
</mgrwt>
</event>
<event>
 6    1  0.9399121E-004  0.4902363E+03  0.7818608E-02  0.1016535E+00
         21   -1    0    0  503  502  0.00000000000E+00  0.00000000000E+00  0.85125482074E+03  0.85125482074E+03  0.00000000000E+00 0.  1.
         21   -1    0    0  501  503 -0.00000000000E+00 -0.00000000000E+00 -0.28405880170E+03  0.28405880170E+03  0.00000000000E+00 0.  1.
    9000007    2    1    2  501    0 -0.24405326975E+03  0.13494332681E+03  0.22374083535E+03  0.53887991855E+03  0.40318718394E+03 0.  0.
    9000005    1    3    3    0    0  0.10498398620E+03  0.60802922295E+02  0.11160717517E+03  0.16485082427E+03  0.99999687468E+00 0.  0.
          4    1    3    3  501    0 -0.34903725595E+03  0.74140404511E+02  0.11213366018E+03  0.37402909428E+03  0.00000000000E+00 0.  1.
   -9000007    1    1    2    0  502  0.24405326975E+03 -0.13494332681E+03  0.34345518368E+03  0.59643370388E+03  0.40000000000E+03 0.  1.
<mgrwt>
<rscale>  2 0.48958049E+03</rscale>
<asrwt>0</asrwt>
<pdfrwt beam="1">  1       21 0.13096228E+00 0.49023627E+03</pdfrwt>
<pdfrwt beam="2">  1       21 0.43701355E-01 0.49023627E+03</pdfrwt>
<totfact> 0.18034591E+03</totfact>
</mgrwt>
</event>
<event>
 6    1  0.9399121E-004  0.4044937E+03  0.7818608E-02  0.1042236E+00
         21   -1    0    0  503  502  0.00000000000E+00  0.00000000000E+00  0.66180410694E+03  0.66180410694E+03  0.00000000000E+00 0.  1.
         21   -1    0    0  501  503 -0.00000000000E+00 -0.00000000000E+00 -0.30800658630E+03  0.30800658630E+03  0.00000000000E+00 0.  1.
    9000007    2    1    2  501    0 -0.57364721748E+02 -0.18011766332E+02  0.39231967373E+03  0.56348681835E+03  0.39998441598E+03 0.  0.
    9000005    1    3    3    0    0  0.87046700784E+02  0.10563416655E+03  0.33967672039E+03  0.36621985150E+03  0.99999687468E+00 0.  0.
          4    1    3    3  501    0 -0.14441142253E+03 -0.12364593288E+03  0.52642953339E+02  0.19726696685E+03  0.00000000000E+00 0.  1.
   -9000007    1    1    2    0  502  0.57364721748E+02  0.18011766332E+02 -0.38522153098E+02  0.40632387489E+03  0.40000000000E+03 0.  1.
<mgrwt>
<rscale>  2 0.40448982E+03</rscale>
<asrwt>0</asrwt>
<pdfrwt beam="1">  1       21 0.10181602E+00 0.40449368E+03</pdfrwt>
<pdfrwt beam="2">  1       21 0.47385629E-01 0.40449368E+03</pdfrwt>
<totfact> 0.29615930E+03</totfact>
</mgrwt>
</event>
<event>
 6    1  0.9399121E-004  0.4148802E+03  0.7818608E-02  0.1038771E+00
         21   -1    0    0  503  502  0.00000000000E+00  0.00000000000E+00  0.17800378516E+03  0.17800378516E+03  0.00000000000E+00 0. -1.
         21   -1    0    0  501  503 -0.00000000000E+00 -0.00000000000E+00 -0.11404556463E+04  0.11404556463E+04  0.00000000000E+00 0. -1.
    9000007    2    1    2  501    0 -0.11005244662E+03 -0.37469005440E+01 -0.22344350533E+03  0.47095785021E+03  0.39968577199E+03 0.  0.
    9000005    1    3    3    0    0 -0.84851237315E+02 -0.18784835236E+03 -0.40246232204E+02  0.21001784486E+03  0.99999687468E+00 0.  0.
          4    1    3    3  501    0 -0.25201209302E+02  0.18410145182E+03 -0.18319727312E+03  0.26094000535E+03  0.00000000000E+00 0.  1.
   -9000007    1    1    2    0  502  0.11005244662E+03  0.37469005440E+01 -0.73900835582E+03  0.84750158127E+03  0.40000000000E+03 0. -1.
<mgrwt>
<rscale>  2 0.41480444E+03</rscale>
<asrwt>0</asrwt>
<pdfrwt beam="1">  1       21 0.27385197E-01 0.41488020E+03</pdfrwt>
<pdfrwt beam="2">  1       21 0.17545472E+00 0.41488020E+03</pdfrwt>
<totfact> 0.21503430E+03</totfact>
</mgrwt>
</event>
<event>
 6    1  0.9399121E-004  0.4309611E+03  0.7818608E-02  0.1034070E+00
         21   -1    0    0  503  502  0.00000000000E+00  0.00000000000E+00  0.33096214511E+03  0.33096214511E+03  0.00000000000E+00 0.  1.
         21   -1    0    0  501  503 -0.00000000000E+00 -0.00000000000E+00 -0.61281754216E+03  0.61281754216E+03  0.00000000000E+00 0.  1.
    9000007    2    1    2  501    0  0.12103895195E+03 -0.10524739552E+03 -0.28765889872E+03  0.51277954483E+03  0.39302388913E+03 0.  0.
    9000005    1    3    3    0    0  0.18741470160E+03 -0.11506605638E+03 -0.26069090001E+01  0.21993695386E+03  0.99999687468E+00 0.  0.
          4    1    3    3  501    0 -0.66375749648E+02  0.98186608592E+01 -0.28505198972E+03  0.29284259097E+03  0.00000000000E+00 0.  1.
   -9000007    1    1    2    0  502 -0.12103895195E+03  0.10524739552E+03  0.58035016766E+01  0.43100014244E+03  0.40000000000E+03 0.  1.
<mgrwt>
<rscale>  2 0.42933514E+03</rscale>
<asrwt>0</asrwt>
<pdfrwt beam="1">  1       21 0.50917253E-01 0.43096107E+03</pdfrwt>
<pdfrwt beam="2">  1       21 0.94279621E-01 0.43096107E+03</pdfrwt>
<totfact> 0.30305028E+03</totfact>
</mgrwt>
</event>
<event>
 6    1  0.9399121E-004  0.4714586E+03  0.7818608E-02  0.1021511E+00
         21   -1    0    0  503  502  0.00000000000E+00  0.00000000000E+00  0.13920745267E+03  0.13920745267E+03  0.00000000000E+00 0. -1.
         21   -1    0    0  501  503 -0.00000000000E+00 -0.00000000000E+00 -0.19553879017E+04  0.19553879017E+04  0.00000000000E+00 0. -1.
    9000007    2    1    2  501    0 -0.21882409245E+03 -0.11988212153E+03 -0.13566923246E+04  0.14362754906E+04  0.40002189297E+03 0.  0.
    9000005    1    3    3    0    0  0.24886750394E+02 -0.31480047014E+02 -0.96935185947E+03  0.97018264834E+03  0.99999687468E+00 0.  0.
          4    1    3    3  501    0 -0.24371084284E+03 -0.88402074519E+02 -0.38734046512E+03  0.46609284227E+03  0.00000000000E+00 0.  1.
   -9000007    1    1    2    0  502  0.21882409245E+03  0.11988212153E+03 -0.45948812445E+03  0.65831986375E+03  0.40000000000E+03 0. -1.
<mgrwt>
<rscale>  2 0.47145397E+03</rscale>
<asrwt>0</asrwt>
<pdfrwt beam="1">  1       21 0.21416532E-01 0.47145861E+03</pdfrwt>
<pdfrwt beam="2">  1       21 0.30082889E+00 0.47145861E+03</pdfrwt>
<totfact> 0.54079995E+02</totfact>
</mgrwt>
</event>
<event>
 6    1  0.9399121E-004  0.4588901E+03  0.7818608E-02  0.1025122E+00
         21   -1    0    0  503  502  0.00000000000E+00  0.00000000000E+00  0.60877565305E+03  0.60877565305E+03  0.00000000000E+00 0. -1.
         21   -1    0    0  501  503 -0.00000000000E+00 -0.00000000000E+00 -0.59880155763E+03  0.59880155763E+03  0.00000000000E+00 0.  1.
    9000007    2    1    2  501    0 -0.22245639850E+03 -0.29437704032E+02 -0.38754188650E+03  0.60064032471E+03  0.40028322251E+03 0.  0.
    9000005    1    3    3    0    0  0.90597049189E+02  0.49986394435E+02 -0.10237239453E+02  0.10398204660E+03  0.99999687468E+00 0.  0.
          4    1    3    3  501    0 -0.31305344769E+03 -0.79424098467E+02 -0.37730464705E+03  0.49665827811E+03  0.00000000000E+00 0.  1.
   -9000007    1    1    2    0  502  0.22245639850E+03  0.29437704032E+02  0.39751598193E+03  0.60693688596E+03  0.40000000000E+03 0. -1.
<mgrwt>
<rscale>  2 0.45882829E+03</rscale>
<asrwt>0</asrwt>
<pdfrwt beam="1">  1       21 0.93657793E-01 0.45889006E+03</pdfrwt>
<pdfrwt beam="2">  1       21 0.92123317E-01 0.45889006E+03</pdfrwt>
<totfact> 0.80357220E+02</totfact>
</mgrwt>
</event>
<event>
 6    1  0.9399121E-004  0.4584755E+03  0.7818608E-02  0.1025228E+00
         21   -1    0    0  503  502  0.00000000000E+00  0.00000000000E+00  0.61959449560E+03  0.61959449560E+03  0.00000000000E+00 0. -1.
         21   -1    0    0  501  503 -0.00000000000E+00 -0.00000000000E+00 -0.10888632084E+04  0.10888632084E+04  0.00000000000E+00 0. -1.
    9000007    2    1    2  501    0 -0.57016435056E+02  0.21667696380E+03 -0.94341903385E+03  0.10488985275E+04  0.39993607862E+03 0.  0.
    9000005    1    3    3    0    0  0.22665802202E+02  0.32198920946E+03 -0.60701938460E+03  0.68750587115E+03  0.99999687468E+00 0.  0.
          4    1    3    3  501    0 -0.79682237258E+02 -0.10531224566E+03 -0.33639964925E+03  0.36139265631E+03  0.00000000000E+00 0.  1.
   -9000007    1    1    2    0  502  0.57016435056E+02 -0.21667696380E+03  0.47415032101E+03  0.65955917658E+03  0.40000000000E+03 0. -1.
<mgrwt>
<rscale>  2 0.45846155E+03</rscale>
<asrwt>0</asrwt>
<pdfrwt beam="1">  1       21 0.95322229E-01 0.45847550E+03</pdfrwt>
<pdfrwt beam="2">  1       21 0.16751742E+00 0.45847550E+03</pdfrwt>
<totfact> 0.16476217E+02</totfact>
</mgrwt>
</event>
<event>
 6    1  0.9399121E-004  0.6190175E+03  0.7818608E-02  0.9866833E-01
         21   -1    0    0  503  502  0.00000000000E+00  0.00000000000E+00  0.19940002149E+04  0.19940002149E+04  0.00000000000E+00 0. -1.
         21   -1    0    0  501  503 -0.00000000000E+00 -0.00000000000E+00 -0.20006458475E+03  0.20006458475E+03  0.00000000000E+00 0.  1.
    9000007    2    1    2  501    0  0.10822791069E+03 -0.45954813492E+03  0.11160629331E+04  0.12762362959E+04  0.40035589575E+03 0.  0.
    9000005    1    3    3    0    0  0.19789229658E+03 -0.14723454478E+03  0.73587671324E+03  0.77611526806E+03  0.99999687468E+00 0.  0.
          4    1    3    3  501    0 -0.89664385886E+02 -0.31231359014E+03  0.38018621988E+03  0.50012102782E+03  0.00000000000E+00 0.  1.
   -9000007    1    1    2    0  502 -0.10822791069E+03  0.45954813492E+03  0.67787269707E+03  0.91782850381E+03  0.40000000000E+03 0. -1.
<mgrwt>
<rscale>  2 0.61895992E+03</rscale>
<asrwt>0</asrwt>
<pdfrwt beam="1">  1       21 0.30676925E+00 0.61901746E+03</pdfrwt>
<pdfrwt beam="2">  1       21 0.30779168E-01 0.61901746E+03</pdfrwt>
<totfact> 0.22782546E+02</totfact>
</mgrwt>
</event>
<event>
 6    1  0.9399121E-004  0.5827510E+03  0.7818608E-02  0.9942582E-01
         21   -1    0    0  503  502  0.00000000000E+00  0.00000000000E+00  0.19129639754E+04  0.19129639754E+04  0.00000000000E+00 0.  1.
         21   -1    0    0  501  503 -0.00000000000E+00 -0.00000000000E+00 -0.20366193545E+03  0.20366193545E+03  0.00000000000E+00 0.  1.
    9000007    2    1    2  501    0  0.32391874757E+03 -0.27036848666E+03  0.12376227052E+04  0.13679578479E+04  0.40196547077E+03 0.  0.
    9000005    1    3    3    0    0 -0.67319038704E+02 -0.10852980986E+03  0.13030818112E+03  0.18246039203E+03  0.99999687468E+00 0.  0.
          4    1    3    3  501    0  0.39123778627E+03 -0.16183867680E+03  0.11073145240E+04  0.11854974559E+04  0.00000000000E+00 0.  1.
   -9000007    1    1    2    0  502 -0.32391874757E+03  0.27036848666E+03  0.47167933473E+03  0.74866806291E+03  0.40000000000E+03 0.  1.
<mgrwt>
<rscale>  2 0.58241220E+03</rscale>
<asrwt>0</asrwt>
<pdfrwt beam="1">  1       21 0.29430214E+00 0.58275099E+03</pdfrwt>
<pdfrwt beam="2">  1       21 0.31332607E-01 0.58275099E+03</pdfrwt>
<totfact> 0.26597953E+02</totfact>
</mgrwt>
</event>
<event>
 6    1  0.9399121E-004  0.4391050E+03  0.7818608E-02  0.1031074E+00
         21   -1    0    0  503  502  0.00000000000E+00  0.00000000000E+00  0.78363482801E+03  0.78363482801E+03  0.00000000000E+00 0. -1.
         21   -1    0    0  501  503 -0.00000000000E+00 -0.00000000000E+00 -0.30758745916E+03  0.30758745916E+03  0.00000000000E+00 0. -1.
    9000007    2    1    2  501    0  0.63528728779E+02 -0.16963868730E+03 -0.69209233651E+01  0.43848071893E+03  0.39925462814E+03 0.  0.
    9000005    1    3    3    0    0 -0.92067032777E+02 -0.24549532546E+03  0.21450311053E+02  0.26306920988E+03  0.99999687468E+00 0.  0.
          4    1    3    3  501    0  0.15559576156E+03  0.75856638161E+02 -0.28371234418E+02  0.17541150906E+03  0.00000000000E+00 0.  1.
   -9000007    1    1    2    0  502 -0.63528728779E+02  0.16963868730E+03  0.48296829222E+03  0.65274156823E+03  0.40000000000E+03 0. -1.
<mgrwt>
<rscale>  2 0.43893516E+03</rscale>
<asrwt>0</asrwt>
<pdfrwt beam="1">  1       21 0.12055920E+00 0.43910498E+03</pdfrwt>
<pdfrwt beam="2">  1       21 0.47321148E-01 0.43910498E+03</pdfrwt>
<totfact> 0.19256813E+03</totfact>
</mgrwt>
</event>
<event>
 6    1  0.9399121E-004  0.4714602E+03  0.7818608E-02  0.1021534E+00
         21   -1    0    0  503  502  0.00000000000E+00  0.00000000000E+00  0.62970252253E+03  0.62970252253E+03  0.00000000000E+00 0. -1.
         21   -1    0    0  501  503 -0.00000000000E+00 -0.00000000000E+00 -0.39948723395E+03  0.39948723395E+03  0.00000000000E+00 0.  1.
    9000007    2    1    2  501    0 -0.24595211860E+03 -0.42217308659E+02 -0.61007189617E+02  0.47503699992E+03  0.39957918904E+03 0.  0.
    9000005    1    3    3    0    0 -0.12089938066E+03  0.99029737614E+02  0.13242433081E+03  0.20484323899E+03  0.99999687468E+00 0.  0.
          4    1    3    3  501    0 -0.12505273794E+03 -0.14124704627E+03 -0.19343152043E+03  0.27019376093E+03  0.00000000000E+00 0.  1.
   -9000007    1    1    2    0  502  0.24595211860E+03  0.42217308659E+02  0.29122247820E+03  0.55415275656E+03  0.40000000000E+03 0. -1.
<mgrwt>
<rscale>  2 0.47137096E+03</rscale>
<asrwt>0</asrwt>
<pdfrwt beam="1">  1       21 0.96877310E-01 0.47146023E+03</pdfrwt>
<pdfrwt beam="2">  1       21 0.61459575E-01 0.47146023E+03</pdfrwt>
<totfact> 0.18608321E+03</totfact>
</mgrwt>
</event>
<event>
 6    1  0.9399121E-004  0.4479990E+03  0.7818608E-02  0.1028323E+00
         21   -1    0    0  503  502  0.00000000000E+00  0.00000000000E+00  0.36377150250E+03  0.36377150250E+03  0.00000000000E+00 0. -1.
         21   -1    0    0  501  503 -0.00000000000E+00 -0.00000000000E+00 -0.59479745178E+03  0.59479745178E+03  0.00000000000E+00 0.  1.
    9000007    2    1    2  501    0 -0.91186131603E+02 -0.17987416617E+03  0.13522164732E+02  0.44820300094E+03  0.40004181639E+03 0.  0.
    9000005    1    3    3    0    0 -0.24111539403E+02 -0.30503128787E+03  0.74180735132E+01  0.30607430588E+03  0.99999687468E+00 0.  0.
          4    1    3    3  501    0 -0.67074592200E+02  0.12515712170E+03  0.61040912186E+01  0.14212869506E+03  0.00000000000E+00 0.  1.
   -9000007    1    1    2    0  502  0.91186131603E+02  0.17987416617E+03 -0.24454811401E+03  0.51036595333E+03  0.40000000000E+03 0.  1.
<mgrwt>
<rscale>  2 0.44798964E+03</rscale>
<asrwt>0</asrwt>
<pdfrwt beam="1">  1       21 0.55964847E-01 0.44799897E+03</pdfrwt>
<pdfrwt beam="2">  1       21 0.91507300E-01 0.44799897E+03</pdfrwt>
<totfact> 0.26395693E+03</totfact>
</mgrwt>
</event>
<event>
 6    1  0.9399121E-004  0.4588625E+03  0.7818608E-02  0.1025137E+00
         21   -1    0    0  503  502  0.00000000000E+00  0.00000000000E+00  0.11416182896E+04  0.11416182896E+04  0.00000000000E+00 0.  1.
         21   -1    0    0  501  503 -0.00000000000E+00 -0.00000000000E+00 -0.24020879661E+03  0.24020879661E+03  0.00000000000E+00 0. -1.
    9000007    2    1    2  501    0 -0.15709984424E+03 -0.15985730139E+03  0.11749572939E+03  0.47366657912E+03  0.40039987997E+03 0.  0.
    9000005    1    3    3    0    0 -0.20725854217E+03 -0.35038001194E+02 -0.88145348632E+02  0.22793500677E+03  0.99999687468E+00 0.  0.
          4    1    3    3  501    0  0.50158697934E+02 -0.12481930020E+03  0.20564107802E+03  0.24573157235E+03  0.00000000000E+00 0.  1.
   -9000007    1    1    2    0  502  0.15709984424E+03  0.15985730139E+03  0.78391376360E+03  0.90816050709E+03  0.40000000000E+03 0.  1.
<mgrwt>
<rscale>  2 0.45877524E+03</rscale>
<asrwt>0</asrwt>
<pdfrwt beam="1">  1       21 0.17563358E+00 0.45886249E+03</pdfrwt>
<pdfrwt beam="2">  1       21 0.36955200E-01 0.45886249E+03</pdfrwt>
<totfact> 0.11551772E+03</totfact>
</mgrwt>
</event>
<event>
 6    1  0.9399121E-004  0.4482714E+03  0.7818608E-02  0.1028271E+00
         21   -1    0    0  503  502  0.00000000000E+00  0.00000000000E+00  0.24825530003E+03  0.24825530003E+03  0.00000000000E+00 0.  1.
         21   -1    0    0  501  503 -0.00000000000E+00 -0.00000000000E+00 -0.10769151516E+04  0.10769151516E+04  0.00000000000E+00 0.  1.
    9000007    2    1    2  501    0  0.32304905840E+02 -0.19975901010E+03 -0.74486935120E+03  0.86913523695E+03  0.39952276617E+03 0.  0.
    9000005    1    3    3    0    0 -0.17015940249E+03 -0.15795995938E+02 -0.33967697470E+03  0.38024358361E+03  0.99999687468E+00 0.  0.
          4    1    3    3  501    0  0.20246430833E+03 -0.18396301416E+03 -0.40519237650E+03  0.48889165334E+03  0.00000000000E+00 0.  1.
   -9000007    1    1    2    0  502 -0.32304905840E+02  0.19975901010E+03 -0.83790500353E+02  0.45603521466E+03  0.40000000000E+03 0.  1.
<mgrwt>
<rscale>  2 0.44816494E+03</rscale>
<asrwt>0</asrwt>
<pdfrwt beam="1">  1       21 0.38193123E-01 0.44827142E+03</pdfrwt>
<pdfrwt beam="2">  1       21 0.16567925E+00 0.44827142E+03</pdfrwt>
<totfact> 0.12814718E+03</totfact>
</mgrwt>
</event>
<event>
 6    1  0.9399121E-004  0.5888288E+03  0.7818608E-02  0.9930822E-01
         21   -1    0    0  503  502  0.00000000000E+00  0.00000000000E+00  0.75932427168E+03  0.75932427168E+03  0.00000000000E+00 0. -1.
         21   -1    0    0  501  503 -0.00000000000E+00 -0.00000000000E+00 -0.45504763702E+03  0.45504763702E+03  0.00000000000E+00 0. -1.
    9000007    2    1    2  501    0 -0.25022192989E+03  0.34609231409E+03  0.12032868695E+03  0.60099783724E+03  0.40537452238E+03 0.  0.
    9000005    1    3    3    0    0 -0.74555975261E+02  0.11270563045E+03  0.24782602013E+03  0.28227626331E+03  0.99999687468E+00 0.  0.
          4    1    3    3  501    0 -0.17566595463E+03  0.23338668364E+03 -0.12749733319E+03  0.31872157393E+03  0.00000000000E+00 0.  1.
   -9000007    1    1    2    0  502  0.25022192989E+03 -0.34609231409E+03  0.18394794772E+03  0.61337407146E+03  0.40000000000E+03 0. -1.
<mgrwt>
<rscale>  2 0.58790491E+03</rscale>
<asrwt>0</asrwt>
<pdfrwt beam="1">  1       21 0.11681912E+00 0.58882884E+03</pdfrwt>
<pdfrwt beam="2">  1       21 0.70007329E-01 0.58882884E+03</pdfrwt>
<totfact> 0.84127940E+02</totfact>
</mgrwt>
</event>
<event>
 6    1  0.9399121E-004  0.4204625E+03  0.7818608E-02  0.1037038E+00
         21   -1    0    0  503  502  0.00000000000E+00  0.00000000000E+00  0.22237623608E+04  0.22237623608E+04  0.00000000000E+00 0. -1.
         21   -1    0    0  501  503 -0.00000000000E+00 -0.00000000000E+00 -0.13869687067E+03  0.13869687067E+03  0.00000000000E+00 0. -1.
    9000007    2    1    2  501    0 -0.93126571400E+01 -0.12923627483E+03  0.26791050796E+03  0.49729409949E+03  0.39841767130E+03 0.  0.
    9000005    1    3    3    0    0 -0.17896746194E+03 -0.54436428321E+02  0.20597937255E+02  0.18819657854E+03  0.99999687468E+00 0.  0.
          4    1    3    3  501    0  0.16965480480E+03 -0.74799846505E+02  0.24731257071E+03  0.30909752095E+03  0.00000000000E+00 0.  1.
   -9000007    1    1    2    0  502  0.93126571400E+01  0.12923627483E+03  0.18171549822E+04  0.18651651320E+04  0.40000000000E+03 0. -1.
<mgrwt>
<rscale>  2 0.42008577E+03</rscale>
<asrwt>0</asrwt>
<pdfrwt beam="1">  1       21 0.34211726E+00 0.42046253E+03</pdfrwt>
<pdfrwt beam="2">  1       21 0.21337982E-01 0.42046253E+03</pdfrwt>
<totfact> 0.31611491E+02</totfact>
</mgrwt>
</event>
<event>
 6    1  0.9399121E-004  0.4070041E+03  0.7818608E-02  0.1041413E+00
         21   -1    0    0  503  502  0.00000000000E+00  0.00000000000E+00  0.29274289172E+03  0.29274289172E+03  0.00000000000E+00 0. -1.
         21   -1    0    0  501  503 -0.00000000000E+00 -0.00000000000E+00 -0.10024877520E+04  0.10024877520E+04  0.00000000000E+00 0. -1.
    9000007    2    1    2  501    0  0.55493244373E+02 -0.50723204021E+02 -0.78243457108E+03  0.88178640611E+03  0.39961364387E+03 0.  0.
    9000005    1    3    3    0    0 -0.12452098599E+03 -0.15431602392E+03 -0.35749713330E+03  0.40880815978E+03  0.99999687468E+00 0.  0.
          4    1    3    3  501    0  0.18001423036E+03  0.10359281990E+03 -0.42493743778E+03  0.47297824632E+03  0.00000000000E+00 0.  1.
   -9000007    1    1    2    0  502 -0.55493244373E+02  0.50723204021E+02  0.72689710766E+02  0.41344423765E+03  0.40000000000E+03 0. -1.
<mgrwt>
<rscale>  2 0.40690915E+03</rscale>
<asrwt>0</asrwt>
<pdfrwt beam="1">  1       21 0.45037368E-01 0.40700411E+03</pdfrwt>
<pdfrwt beam="2">  1       21 0.15422889E+00 0.40700411E+03</pdfrwt>
<totfact> 0.11326694E+03</totfact>
</mgrwt>
</event>
<event>
 6    1  0.9399121E-004  0.4883556E+03  0.7818608E-02  0.1016875E+00
         21   -1    0    0  503  502  0.00000000000E+00  0.00000000000E+00  0.10092593450E+04  0.10092593450E+04  0.00000000000E+00 0.  1.
         21   -1    0    0  501  503 -0.00000000000E+00 -0.00000000000E+00 -0.26732367597E+03  0.26732367597E+03  0.00000000000E+00 0.  1.
    9000007    2    1    2  501    0 -0.23120714328E+03  0.15769979115E+03  0.15330538096E+03  0.51185327573E+03  0.40020653270E+03 0.  0.
    9000005    1    3    3    0    0  0.41527507708E+02  0.20696345080E+03  0.60748108471E+02  0.21965822666E+03  0.99999687468E+00 0.  0.
          4    1    3    3  501    0 -0.27273465099E+03 -0.49263659652E+02  0.92557272487E+02  0.29219504907E+03  0.00000000000E+00 0.  1.
   -9000007    1    1    2    0  502  0.23120714328E+03 -0.15769979115E+03  0.58863028811E+03  0.76472974528E+03  0.40000000000E+03 0.  1.
<mgrwt>
<rscale>  2 0.48831333E+03</rscale>
<asrwt>0</asrwt>
<pdfrwt beam="1">  1       21 0.15527067E+00 0.48835565E+03</pdfrwt>
<pdfrwt beam="2">  1       21 0.41126720E-01 0.48835565E+03</pdfrwt>
<totfact> 0.12975600E+03</totfact>
</mgrwt>
</event>
<event>
 6    1  0.9399121E-004  0.4747214E+03  0.7818608E-02  0.1020599E+00
         21   -1    0    0  503  502  0.00000000000E+00  0.00000000000E+00  0.29857302846E+03  0.29857302846E+03  0.00000000000E+00 0. -1.
         21   -1    0    0  501  503 -0.00000000000E+00 -0.00000000000E+00 -0.75621873241E+03  0.75621873241E+03  0.00000000000E+00 0. -1.
    9000007    2    1    2  501    0  0.21970962845E+03  0.13072150511E+03 -0.20536915509E+03  0.51720094079E+03  0.39994986005E+03 0.  0.
    9000005    1    3    3    0    0 -0.81675321220E+02  0.11614059124E+03 -0.15687772485E+03  0.21159186085E+03  0.99999687468E+00 0.  0.
          4    1    3    3  501    0  0.30138494967E+03  0.14580913878E+02 -0.48491430240E+02  0.30560907994E+03  0.00000000000E+00 0.  1.
   -9000007    1    1    2    0  502 -0.21970962845E+03 -0.13072150511E+03 -0.25227654886E+03  0.53759082008E+03  0.40000000000E+03 0. -1.
<mgrwt>
<rscale>  2 0.47471086E+03</rscale>
<asrwt>0</asrwt>
<pdfrwt beam="1">  1       21 0.45934312E-01 0.47472143E+03</pdfrwt>
<pdfrwt beam="2">  1       21 0.11634134E+00 0.47472143E+03</pdfrwt>
<totfact> 0.22135454E+03</totfact>
</mgrwt>
</event>
<event>
 6    1  0.9399121E-004  0.7841046E+03  0.7818608E-02  0.9583424E-01
         21   -1    0    0  503  502  0.00000000000E+00  0.00000000000E+00  0.48658757302E+03  0.48658757302E+03  0.00000000000E+00 0.  1.
         21   -1    0    0  501  503 -0.00000000000E+00 -0.00000000000E+00 -0.13614993645E+04  0.13614993645E+04  0.00000000000E+00 0. -1.
    9000007    2    1    2  501    0 -0.34125856661E+03 -0.58168948216E+03 -0.18890803378E+03  0.80625143298E+03  0.39941840846E+03 0.  0.
    9000005    1    3    3    0    0  0.59926057210E+02 -0.23656736337E+03 -0.12198677302E+03  0.27283149109E+03  0.99999687468E+00 0.  0.
          4    1    3    3  501    0 -0.40118462382E+03 -0.34512211879E+03 -0.66921260762E+02  0.53341994190E+03  0.00000000000E+00 0.  1.
   -9000007    1    1    2    0  502  0.34125856661E+03  0.58168948216E+03 -0.68600375768E+03  0.10418355045E+04  0.40000000000E+03 0. -1.
<mgrwt>
<rscale>  2 0.78403048E+03</rscale>
<asrwt>0</asrwt>
<pdfrwt beam="1">  1       21 0.74859628E-01 0.78410462E+03</pdfrwt>
<pdfrwt beam="2">  1       21 0.20946144E+00 0.78410462E+03</pdfrwt>
<totfact> 0.13054132E+02</totfact>
</mgrwt>
</event>
<event>
 6    1  0.9399121E-004  0.5689678E+03  0.7818608E-02  0.9972384E-01
         21   -1    0    0  503  502  0.00000000000E+00  0.00000000000E+00  0.27120475038E+03  0.27120475038E+03  0.00000000000E+00 0.  1.
         21   -1    0    0  501  503 -0.00000000000E+00 -0.00000000000E+00 -0.18820310473E+04  0.18820310473E+04  0.00000000000E+00 0.  1.
    9000007    2    1    2  501    0 -0.39726909693E+03  0.76822226377E+02 -0.14569436744E+04  0.15638257101E+04  0.39892554595E+03 0.  0.
    9000005    1    3    3    0    0  0.76277041213E+02 -0.15165873459E+02 -0.30908337420E+03  0.31871887760E+03  0.99999687468E+00 0.  0.
          4    1    3    3  501    0 -0.47354613815E+03  0.91988099837E+02 -0.11478603002E+04  0.12451068325E+04  0.00000000000E+00 0.  1.
   -9000007    1    1    2    0  502  0.39726909693E+03 -0.76822226377E+02 -0.15388262248E+03  0.58941008758E+03  0.40000000000E+03 0.  1.
<mgrwt>
<rscale>  2 0.56877902E+03</rscale>
<asrwt>0</asrwt>
<pdfrwt beam="1">  1       21 0.41723806E-01 0.56896783E+03</pdfrwt>
<pdfrwt beam="2">  1       21 0.28954325E+00 0.56896783E+03</pdfrwt>
<totfact> 0.15936995E+02</totfact>
</mgrwt>
</event>
<event>
 6    1  0.9399121E-004  0.4553723E+03  0.7818608E-02  0.1026142E+00
         21   -1    0    0  503  502  0.00000000000E+00  0.00000000000E+00  0.39265750435E+03  0.39265750435E+03  0.00000000000E+00 0. -1.
         21   -1    0    0  501  503 -0.00000000000E+00 -0.00000000000E+00 -0.86362477847E+03  0.86362477847E+03  0.00000000000E+00 0. -1.
    9000007    2    1    2  501    0 -0.26516396815E+02 -0.21601116738E+03 -0.62707324904E+03  0.77489572386E+03  0.39984819552E+03 0.  0.
    9000005    1    3    3    0    0  0.13843817653E+03 -0.12641124165E+02 -0.62237998995E+02  0.15231380520E+03  0.99999687468E+00 0.  0.
          4    1    3    3  501    0 -0.16495457335E+03 -0.20337004321E+03 -0.56483525005E+03  0.62258191866E+03  0.00000000000E+00 0.  1.
   -9000007    1    1    2    0  502  0.26516396815E+02  0.21601116738E+03  0.15610597492E+03  0.48138655895E+03  0.40000000000E+03 0. -1.
<mgrwt>
<rscale>  2 0.45533897E+03</rscale>
<asrwt>0</asrwt>
<pdfrwt beam="1">  1       21 0.60408847E-01 0.45537231E+03</pdfrwt>
<pdfrwt beam="2">  1       21 0.13286535E+00 0.45537231E+03</pdfrwt>
<totfact> 0.88076594E+02</totfact>
</mgrwt>
</event>
<event>
 6    1  0.9399121E-004  0.4561716E+03  0.7818608E-02  0.1025966E+00
         21   -1    0    0  503  502  0.00000000000E+00  0.00000000000E+00  0.38964664101E+03  0.38964664101E+03  0.00000000000E+00 0. -1.
         21   -1    0    0  501  503 -0.00000000000E+00 -0.00000000000E+00 -0.14226028675E+04  0.14226028675E+04  0.00000000000E+00 0.  1.
    9000007    2    1    2  501    0 -0.83186319829E+02 -0.20291019359E+03 -0.12328415418E+04  0.13142066893E+04  0.39893413542E+03 0.  0.
    9000005    1    3    3    0    0  0.22464722555E+02 -0.21590740514E+03 -0.27444477144E+03  0.34991656708E+03  0.99999687468E+00 0.  0.
          4    1    3    3  501    0 -0.10565104238E+03  0.12997211550E+02 -0.95839677040E+03  0.96429012220E+03  0.00000000000E+00 0.  1.
   -9000007    1    1    2    0  502  0.83186319829E+02  0.20291019359E+03  0.19988531536E+03  0.49804281921E+03  0.40000000000E+03 0. -1.
<mgrwt>
<rscale>  2 0.45593782E+03</rscale>
<asrwt>0</asrwt>
<pdfrwt beam="1">  1       21 0.59945637E-01 0.45617158E+03</pdfrwt>
<pdfrwt beam="2">  1       21 0.21886198E+00 0.45617158E+03</pdfrwt>
<totfact> 0.21298459E+02</totfact>
</mgrwt>
</event>
<event>
 6    1  0.9399121E-004  0.4224529E+03  0.7818608E-02  0.1036322E+00
         21   -1    0    0  503  502  0.00000000000E+00  0.00000000000E+00  0.97541483543E+03  0.97541483543E+03  0.00000000000E+00 0. -1.
         21   -1    0    0  501  503 -0.00000000000E+00 -0.00000000000E+00 -0.94005610379E+03  0.94005610379E+03  0.00000000000E+00 0.  1.
    9000007    2    1    2  501    0 -0.16312657064E+02 -0.13292088425E+03 -0.84196698362E+03  0.94200574986E+03  0.40066490615E+03 0.  0.
    9000005    1    3    3    0    0 -0.13651793299E+02  0.38187393974E+02  0.31858469205E+02  0.51581106741E+02  0.99999687468E+00 0.  0.
          4    1    3    3  501    0 -0.26608637649E+01 -0.17110827822E+03 -0.87382545283E+03  0.89042464312E+03  0.00000000000E+00 0.  1.
   -9000007    1    1    2    0  502  0.16312657064E+02  0.13292088425E+03  0.87732571525E+03  0.97346518936E+03  0.40000000000E+03 0. -1.
<mgrwt>
<rscale>  2 0.42229515E+03</rscale>
<asrwt>0</asrwt>
<pdfrwt beam="1">  1       21 0.15006382E+00 0.42245287E+03</pdfrwt>
<pdfrwt beam="2">  1       21 0.14462402E+00 0.42245287E+03</pdfrwt>
<totfact> 0.79473084E+01</totfact>
</mgrwt>
</event>
<event>
 6    1  0.9399121E-004  0.4339802E+03  0.7818608E-02  0.1032646E+00
         21   -1    0    0  503  502  0.00000000000E+00  0.00000000000E+00  0.20122407737E+03  0.20122407737E+03  0.00000000000E+00 0.  1.
         21   -1    0    0  501  503 -0.00000000000E+00 -0.00000000000E+00 -0.11432197720E+04  0.11432197720E+04  0.00000000000E+00 0.  1.
    9000007    2    1    2  501    0  0.14690361599E+03  0.82207828848E+02 -0.75770464544E+03  0.87295472933E+03  0.39949321675E+03 0.  0.
    9000005    1    3    3    0    0 -0.30227345247E+02 -0.99768057716E+02 -0.40026562816E+02  0.11167131890E+03  0.99999687468E+00 0.  0.
          4    1    3    3  501    0  0.17713096124E+03  0.18197588656E+03 -0.71767808262E+03  0.76128341043E+03  0.00000000000E+00 0.  1.
   -9000007    1    1    2    0  502 -0.14690361599E+03 -0.82207828848E+02 -0.18429104921E+03  0.47148912006E+03  0.40000000000E+03 0.  1.
<mgrwt>
<rscale>  2 0.43386337E+03</rscale>
<asrwt>0</asrwt>
<pdfrwt beam="1">  1       21 0.30957550E-01 0.43398018E+03</pdfrwt>
<pdfrwt beam="2">  1       21 0.17587997E+00 0.43398018E+03</pdfrwt>
<totfact> 0.16616264E+03</totfact>
</mgrwt>
</event>
<event>
 6    1  0.9399121E-004  0.4074159E+03  0.7818608E-02  0.1041270E+00
         21   -1    0    0  503  502  0.00000000000E+00  0.00000000000E+00  0.94093562787E+02  0.94093562787E+02  0.00000000000E+00 0. -1.
         21   -1    0    0  501  503 -0.00000000000E+00 -0.00000000000E+00 -0.18512196856E+04  0.18512196856E+04  0.00000000000E+00 0. -1.
    9000007    2    1    2  501    0 -0.40078495154E+02  0.64119892562E+02 -0.10916726084E+04  0.11652196475E+04  0.40033747820E+03 0.  0.
    9000005    1    3    3    0    0  0.15971663814E+03  0.55417172898E+01 -0.73544344399E+03  0.75260758329E+03  0.99999687468E+00 0.  0.
          4    1    3    3  501    0 -0.19979513329E+03  0.58578175273E+02 -0.35622916445E+03  0.41261206418E+03  0.00000000000E+00 0.  1.
   -9000007    1    1    2    0  502  0.40078495154E+02 -0.64119892562E+02 -0.66545351441E+03  0.78009360095E+03  0.40000000000E+03 0. -1.
<mgrwt>
<rscale>  2 0.40733301E+03</rscale>
<asrwt>0</asrwt>
<pdfrwt beam="1">  1       21 0.14475933E-01 0.40741593E+03</pdfrwt>
<pdfrwt beam="2">  1       21 0.28480302E+00 0.40741593E+03</pdfrwt>
<totfact> 0.14604296E+03</totfact>
</mgrwt>
</event>
<event>
 6    1  0.9399121E-004  0.5115914E+03  0.7818608E-02  0.1010812E+00
         21   -1    0    0  503  502  0.00000000000E+00  0.00000000000E+00  0.12933272415E+04  0.12933272415E+04  0.00000000000E+00 0.  1.
         21   -1    0    0  501  503 -0.00000000000E+00 -0.00000000000E+00 -0.20584642141E+03  0.20584642141E+03  0.00000000000E+00 0. -1.
    9000007    2    1    2  501    0  0.31588333697E+03  0.44084853690E+02  0.44488074153E+03  0.67779639402E+03  0.39970404133E+03 0.  0.
    9000005    1    3    3    0    0  0.48087210363E+02 -0.12453591376E+03  0.20576898898E+01  0.13351706894E+03  0.99999687468E+00 0.  0.
          4    1    3    3  501    0  0.26779612661E+03  0.16862076745E+03  0.44282305164E+03  0.54427932508E+03  0.00000000000E+00 0.  1.
   -9000007    1    1    2    0  502 -0.31588333697E+03 -0.44084853690E+02  0.64260007855E+03  0.82137726889E+03  0.40000000000E+03 0.  1.
<mgrwt>
<rscale>  2 0.51153354E+03</rscale>
<asrwt>0</asrwt>
<pdfrwt beam="1">  1       21 0.19897342E+00 0.51159140E+03</pdfrwt>
<pdfrwt beam="2">  1       21 0.31668681E-01 0.51159140E+03</pdfrwt>
<totfact> 0.10644275E+03</totfact>
</mgrwt>
</event>
<event>
 6    1  0.9399121E-004  0.5227806E+03  0.7818608E-02  0.1008018E+00
         21   -1    0    0  503  502  0.00000000000E+00  0.00000000000E+00  0.10405371820E+04  0.10405371820E+04  0.00000000000E+00 0. -1.
         21   -1    0    0  501  503 -0.00000000000E+00 -0.00000000000E+00 -0.26744983025E+03  0.26744983025E+03  0.00000000000E+00 0. -1.
    9000007    2    1    2  501    0 -0.32202554838E+03  0.96284121399E+02  0.47567772469E+03  0.70680187261E+03  0.40041041884E+03 0.  0.
    9000005    1    3    3    0    0 -0.24501558996E+03  0.23588761890E+03  0.21862296574E+03  0.40431746093E+03  0.99999687468E+00 0.  0.
          4    1    3    3  501    0 -0.77009958419E+02 -0.13960349750E+03  0.25705475895E+03  0.30248441167E+03  0.00000000000E+00 0.  1.
   -9000007    1    1    2    0  502  0.32202554838E+03 -0.96284121399E+02  0.29740962703E+03  0.60118513961E+03  0.40000000000E+03 0. -1.
<mgrwt>
<rscale>  2 0.52270204E+03</rscale>
<asrwt>0</asrwt>
<pdfrwt beam="1">  1       21 0.16008264E+00 0.52278063E+03</pdfrwt>
<pdfrwt beam="2">  1       21 0.41146128E-01 0.52278063E+03</pdfrwt>
<totfact> 0.11756083E+03</totfact>
</mgrwt>
</event>
<event>
 6    1  0.9399121E-004  0.6019829E+03  0.7818608E-02  0.9902086E-01
         21   -1    0    0  503  502  0.00000000000E+00  0.00000000000E+00  0.12494893981E+04  0.12494893981E+04  0.00000000000E+00 0. -1.
         21   -1    0    0  501  503 -0.00000000000E+00 -0.00000000000E+00 -0.52583814601E+03  0.52583814601E+03  0.00000000000E+00 0.  1.
    9000007    2    1    2  501    0 -0.62489049438E+02  0.44550930924E+03 -0.23378406514E+03  0.64436962597E+03  0.39771069867E+03 0.  0.
    9000005    1    3    3    0    0  0.82842467790E+02 -0.28249907641E+02  0.16700717698E+02  0.89111423042E+02  0.99999687468E+00 0.  0.
          4    1    3    3  501    0 -0.14533151723E+03  0.47375921688E+03 -0.25048478284E+03  0.55525820292E+03  0.00000000000E+00 0.  1.
   -9000007    1    1    2    0  502  0.62489049438E+02 -0.44550930924E+03  0.95743531722E+03  0.11309579181E+04  0.40000000000E+03 0. -1.
<mgrwt>
<rscale>  2 0.60160287E+03</rscale>
<asrwt>0</asrwt>
<pdfrwt beam="1">  1       21 0.19222914E+00 0.60198291E+03</pdfrwt>
<pdfrwt beam="2">  1       21 0.80898177E-01 0.60198291E+03</pdfrwt>
<totfact> 0.15194659E+02</totfact>
</mgrwt>
</event>
<event>
 6    1  0.9399121E-004  0.4249540E+03  0.7818608E-02  0.1035511E+00
         21   -1    0    0  503  502  0.00000000000E+00  0.00000000000E+00  0.26512622122E+03  0.26512622122E+03  0.00000000000E+00 0.  1.
         21   -1    0    0  501  503 -0.00000000000E+00 -0.00000000000E+00 -0.72671294093E+03  0.72671294093E+03  0.00000000000E+00 0.  1.
    9000007    2    1    2  501    0 -0.91355272640E+02  0.11063500882E+03 -0.35607547628E+03  0.55398243501E+03  0.39940067911E+03 0.  0.
    9000005    1    3    3    0    0 -0.20364554271E+03  0.14342609706E+03 -0.92663193143E+02  0.26576308950E+03  0.99999687468E+00 0.  0.
          4    1    3    3  501    0  0.11229027007E+03 -0.32791088240E+02 -0.26341228314E+03  0.28821934551E+03  0.00000000000E+00 0.  1.
   -9000007    1    1    2    0  502  0.91355272640E+02 -0.11063500882E+03 -0.10551124343E+03  0.43785672715E+03  0.40000000000E+03 0. -1.
<mgrwt>
<rscale>  2 0.42481290E+03</rscale>
<asrwt>0</asrwt>
<pdfrwt beam="1">  1       21 0.40788649E-01 0.42495399E+03</pdfrwt>
<pdfrwt beam="2">  1       21 0.11180199E+00 0.42495399E+03</pdfrwt>
<totfact> 0.31894002E+03</totfact>
</mgrwt>
</event>
<event>
 6    1  0.9399121E-004  0.4970016E+03  0.7818608E-02  0.1014629E+00
         21   -1    0    0  503  502  0.00000000000E+00  0.00000000000E+00  0.22703901772E+03  0.22703901772E+03  0.00000000000E+00 0. -1.
         21   -1    0    0  501  503 -0.00000000000E+00 -0.00000000000E+00 -0.11882760087E+04  0.11882760087E+04  0.00000000000E+00 0. -1.
    9000007    2    1    2  501    0 -0.26955934225E+02  0.29208715545E+03 -0.68883370523E+03  0.84941302179E+03  0.40120952052E+03 0.  0.
    9000005    1    3    3    0    0  0.58450915229E+02  0.30415727646E+03 -0.23854795285E+03  0.39094025645E+03  0.99999687468E+00 0.  0.
          4    1    3    3  501    0 -0.85406849453E+02 -0.12070121009E+02 -0.45028575238E+03  0.45847276533E+03  0.00000000000E+00 0.  1.
   -9000007    1    1    2    0  502  0.26955934225E+02 -0.29208715545E+03 -0.27240328575E+03  0.56590200464E+03  0.40000000000E+03 0. -1.
<mgrwt>
<rscale>  2 0.49675747E+03</rscale>
<asrwt>0</asrwt>
<pdfrwt beam="1">  1       21 0.34929080E-01 0.49700162E+03</pdfrwt>
<pdfrwt beam="2">  1       21 0.18281169E+00 0.49700162E+03</pdfrwt>
<totfact> 0.11341724E+03</totfact>
</mgrwt>
</event>
<event>
 6    1  0.9399121E-004  0.4181487E+03  0.7818608E-02  0.1037678E+00
         21   -1    0    0  503  502  0.00000000000E+00  0.00000000000E+00  0.13746246487E+04  0.13746246487E+04  0.00000000000E+00 0. -1.
         21   -1    0    0  501  503 -0.00000000000E+00 -0.00000000000E+00 -0.27143677747E+03  0.27143677747E+03  0.00000000000E+00 0. -1.
    9000007    2    1    2  501    0  0.12173216129E+03 -0.54387183387E+01 -0.48452631184E+02  0.42085771022E+03  0.39990655913E+03 0.  0.
    9000005    1    3    3    0    0 -0.63845572060E+02  0.12141821779E+03  0.83109513766E+02  0.16039586015E+03  0.99999687468E+00 0.  0.
          4    1    3    3  501    0  0.18557773335E+03 -0.12685693613E+03 -0.13156214495E+03  0.26046185007E+03  0.00000000000E+00 0.  1.
   -9000007    1    1    2    0  502 -0.12173216129E+03  0.54387183387E+01  0.11516405024E+04  0.12252037160E+04  0.40000000000E+03 0. -1.
<mgrwt>
<rscale>  2 0.41812631E+03</rscale>
<asrwt>0</asrwt>
<pdfrwt beam="1">  1       21 0.21148071E+00 0.41814866E+03</pdfrwt>
<pdfrwt beam="2">  1       21 0.41759505E-01 0.41814866E+03</pdfrwt>
<totfact> 0.52341238E+02</totfact>
</mgrwt>
</event>
<event>
 6    1  0.9399121E-004  0.4148787E+03  0.7818608E-02  0.1038752E+00
         21   -1    0    0  503  502  0.00000000000E+00  0.00000000000E+00  0.42484688870E+03  0.42484688870E+03  0.00000000000E+00 0. -1.
         21   -1    0    0  501  503 -0.00000000000E+00 -0.00000000000E+00 -0.43939077668E+03  0.43939077668E+03  0.00000000000E+00 0. -1.
    9000007    2    1    2  501    0  0.10727614305E+03  0.24822574589E+02 -0.12803583584E+03  0.43411587646E+03  0.39992385257E+03 0.  0.
    9000005    1    3    3    0    0 -0.23144403557E+02 -0.10640033281E+03 -0.20626613812E+03  0.23324539431E+03  0.99999687468E+00 0.  0.
          4    1    3    3  501    0  0.13042054661E+03  0.13122290740E+03  0.78230302277E+02  0.20087048215E+03  0.00000000000E+00 0.  1.
   -9000007    1    1    2    0  502 -0.10727614305E+03 -0.24822574589E+02  0.11349194787E+03  0.43012178893E+03  0.40000000000E+03 0. -1.
<mgrwt>
<rscale>  2 0.41486034E+03</rscale>
<asrwt>0</asrwt>
<pdfrwt beam="1">  1       21 0.65361060E-01 0.41487869E+03</pdfrwt>
<pdfrwt beam="2">  1       21 0.67598581E-01 0.41487869E+03</pdfrwt>
<totfact> 0.38171773E+03</totfact>
</mgrwt>
</event>
<event>
 6    1  0.9399121E-004  0.7781330E+03  0.7818608E-02  0.9592299E-01
         21   -1    0    0  503  502  0.00000000000E+00  0.00000000000E+00  0.55307959743E+03  0.55307959743E+03  0.00000000000E+00 0.  1.
         21   -1    0    0  501  503 -0.00000000000E+00 -0.00000000000E+00 -0.11651872224E+04  0.11651872224E+04  0.00000000000E+00 0. -1.
    9000007    2    1    2  501    0 -0.62776755852E+03  0.22671329386E+03 -0.94349543235E+02  0.78362011848E+03  0.39958431980E+03 0.  0.
    9000005    1    3    3    0    0 -0.67290932536E+03  0.17529342731E+03 -0.12851106180E+03  0.70714272875E+03  0.99999687468E+00 0.  0.
          4    1    3    3  501    0  0.45141766843E+02  0.51419866544E+02  0.34161518569E+02  0.76477389731E+02  0.00000000000E+00 0.  1.
   -9000007    1    1    2    0  502  0.62776755852E+03 -0.22671329386E+03 -0.51775808174E+03  0.93464670135E+03  0.40000000000E+03 0. -1.
<mgrwt>
<rscale>  2 0.77807963E+03</rscale>
<asrwt>0</asrwt>
<pdfrwt beam="1">  1       21 0.85089170E-01 0.77813304E+03</pdfrwt>
<pdfrwt beam="2">  1       21 0.17925957E+00 0.77813304E+03</pdfrwt>
<totfact> 0.15681700E+02</totfact>
</mgrwt>
</event>
<event>
 6    1  0.9399121E-004  0.4703642E+03  0.7818608E-02  0.1021841E+00
         21   -1    0    0  503  502  0.00000000000E+00  0.00000000000E+00  0.16967853355E+04  0.16967853355E+04  0.00000000000E+00 0.  1.
         21   -1    0    0  501  503 -0.00000000000E+00 -0.00000000000E+00 -0.13841111761E+03  0.13841111761E+03  0.00000000000E+00 0.  1.
    9000007    2    1    2  501    0 -0.10213375456E+03  0.22541328517E+03  0.55673740986E+03  0.72861670083E+03  0.39960392921E+03 0.  0.
    9000005    1    3    3    0    0  0.25470864993E+02 -0.36522516959E+02 -0.42963110596E+02  0.61882857677E+02  0.99999687468E+00 0.  0.
          4    1    3    3  501    0 -0.12760461955E+03  0.26193580213E+03  0.59970052046E+03  0.66673384315E+03  0.00000000000E+00 0.  1.
   -9000007    1    1    2    0  502  0.10213375456E+03 -0.22541328517E+03  0.10016368080E+04  0.11065797523E+04  0.40000000000E+03 0.  1.
<mgrwt>
<rscale>  2 0.47027995E+03</rscale>
<asrwt>0</asrwt>
<pdfrwt beam="1">  1       21 0.26104388E+00 0.47036417E+03</pdfrwt>
<pdfrwt beam="2">  1       21 0.21294019E-01 0.47036417E+03</pdfrwt>
<totfact> 0.95197795E+02</totfact>
</mgrwt>
</event>
<event>
 6    1  0.9399121E-004  0.4492294E+03  0.7818608E-02  0.1027995E+00
         21   -1    0    0  503  502  0.00000000000E+00  0.00000000000E+00  0.25292447312E+03  0.25292447312E+03  0.00000000000E+00 0.  1.
         21   -1    0    0  501  503 -0.00000000000E+00 -0.00000000000E+00 -0.96751921178E+03  0.96751921178E+03  0.00000000000E+00 0.  1.
    9000007    2    1    2  501    0  0.25744772688E+01  0.20318299875E+03 -0.61376184645E+03  0.76059889472E+03  0.40064587303E+03 0.  0.
    9000005    1    3    3    0    0  0.16607885211E+03  0.91515841027E+02 -0.10976424377E+03  0.21910391024E+03  0.99999687468E+00 0.  0.
          4    1    3    3  501    0 -0.16350437484E+03  0.11166715772E+03 -0.50399760268E+03  0.54149498448E+03  0.00000000000E+00 0.  1.
   -9000007    1    1    2    0  502 -0.25744772688E+01 -0.20318299875E+03 -0.10083289221E+03  0.45984479019E+03  0.40000000000E+03 0.  1.
<mgrwt>
<rscale>  2 0.44908537E+03</rscale>
<asrwt>0</asrwt>
<pdfrwt beam="1">  1       21 0.38911457E-01 0.44922942E+03</pdfrwt>
<pdfrwt beam="2">  1       21 0.14884911E+00 0.44922942E+03</pdfrwt>
<totfact> 0.16578676E+03</totfact>
</mgrwt>
</event>
<event>
 6    1  0.9399121E-004  0.4981458E+03  0.7818608E-02  0.1014292E+00
         21   -1    0    0  503  502  0.00000000000E+00  0.00000000000E+00  0.25944234629E+03  0.25944234629E+03  0.00000000000E+00 0. -1.
         21   -1    0    0  501  503 -0.00000000000E+00 -0.00000000000E+00 -0.11868773744E+04  0.11868773744E+04  0.00000000000E+00 0. -1.
    9000007    2    1    2  501    0  0.23338696852E+03 -0.18352050666E+03 -0.78274016270E+03  0.92758485826E+03  0.39947747562E+03 0.  0.
    9000005    1    3    3    0    0  0.23168925573E+02 -0.80094544379E+02 -0.65588206078E+03  0.66116126081E+03  0.99999687468E+00 0.  0.
          4    1    3    3  501    0  0.21021804295E+03 -0.10342596228E+03 -0.12685810192E+03  0.26642359745E+03  0.00000000000E+00 0.  1.
   -9000007    1    1    2    0  502 -0.23338696852E+03  0.18352050666E+03 -0.14469486542E+03  0.51873486245E+03  0.40000000000E+03 0. -1.
<mgrwt>
<rscale>  2 0.49804091E+03</rscale>
<asrwt>0</asrwt>
<pdfrwt beam="1">  1       21 0.39914207E-01 0.49814582E+03</pdfrwt>
<pdfrwt beam="2">  1       21 0.18259652E+00 0.49814582E+03</pdfrwt>
<totfact> 0.86597967E+02</totfact>
</mgrwt>
</event>
<event>
 6    1  0.9399121E-004  0.4630972E+03  0.7818608E-02  0.1023978E+00
         21   -1    0    0  503  502  0.00000000000E+00  0.00000000000E+00  0.76509697583E+03  0.76509697583E+03  0.00000000000E+00 0. -1.
         21   -1    0    0  501  503 -0.00000000000E+00 -0.00000000000E+00 -0.28696003339E+03  0.28696003339E+03  0.00000000000E+00 0. -1.
    9000007    2    1    2  501    0  0.22916597511E+03  0.27777530073E+02  0.15478712976E+03  0.48828069127E+03  0.40146026280E+03 0.  0.
    9000005    1    3    3    0    0  0.18414188609E+03  0.14118235068E+03  0.24431404688E+03  0.33694368054E+03  0.99999687468E+00 0.  0.
          4    1    3    3  501    0  0.45024089015E+02 -0.11340482061E+03 -0.89526917122E+02  0.15133701074E+03  0.00000000000E+00 0.  1.
   -9000007    1    1    2    0  502 -0.22916597511E+03 -0.27777530073E+02  0.32334981268E+03  0.56377631795E+03  0.40000000000E+03 0. -1.
<mgrwt>
<rscale>  2 0.46278050E+03</rscale>
<asrwt>0</asrwt>
<pdfrwt beam="1">  1       21 0.11770723E+00 0.46309716E+03</pdfrwt>
<pdfrwt beam="2">  1       21 0.44147698E-01 0.46309716E+03</pdfrwt>
<totfact> 0.23459027E+03</totfact>
</mgrwt>
</event>
<event>
 6    1  0.9399121E-004  0.4294299E+03  0.7818608E-02  0.1034044E+00
         21   -1    0    0  503  502  0.00000000000E+00  0.00000000000E+00  0.18464303490E+04  0.18464303490E+04  0.00000000000E+00 0. -1.
         21   -1    0    0  501  503 -0.00000000000E+00 -0.00000000000E+00 -0.11966575081E+03  0.11966575081E+03  0.00000000000E+00 0. -1.
    9000007    2    1    2  501    0 -0.15582769833E+03 -0.91844584952E+01  0.46351405031E+03  0.63186651966E+03  0.40005424381E+03 0.  0.
    9000005    1    3    3    0    0 -0.28621158489E+03  0.39225404839E+02  0.33672854129E+03  0.44366971299E+03  0.99999687468E+00 0.  0.
          4    1    3    3  501    0  0.13038388657E+03 -0.48409863334E+02  0.12678550902E+03  0.18819680667E+03  0.00000000000E+00 0.  1.
   -9000007    1    1    2    0  502  0.15582769833E+03  0.91844584952E+01  0.12632505478E+04  0.13342295801E+04  0.40000000000E+03 0. -1.
<mgrwt>
<rscale>  2 0.42941725E+03</rscale>
<asrwt>0</asrwt>
<pdfrwt beam="1">  1       21 0.28406619E+00 0.42942988E+03</pdfrwt>
<pdfrwt beam="2">  1       21 0.18410117E-01 0.42942988E+03</pdfrwt>
<totfact> 0.93073728E+02</totfact>
</mgrwt>
</event>
<event>
 6    1  0.9399121E-004  0.5583442E+03  0.7818608E-02  0.9996267E-01
         21   -1    0    0  503  502  0.00000000000E+00  0.00000000000E+00  0.16427709233E+04  0.16427709233E+04  0.00000000000E+00 0. -1.
         21   -1    0    0  501  503 -0.00000000000E+00 -0.00000000000E+00 -0.19841506242E+03  0.19841506242E+03  0.00000000000E+00 0.  1.
    9000007    2    1    2  501    0 -0.28379757593E+03  0.26515231226E+03  0.52748733617E+03  0.76810877303E+03  0.40112514828E+03 0.  0.
    9000005    1    3    3    0    0 -0.21115455639E+03 -0.23891001780E+02  0.38045846971E+03  0.43578282873E+03  0.99999687468E+00 0.  0.
          4    1    3    3  501    0 -0.72643019545E+02  0.28904331404E+03  0.14702886646E+03  0.33232594430E+03  0.00000000000E+00 0.  1.
   -9000007    1    1    2    0  502  0.28379757593E+03 -0.26515231226E+03  0.91686852471E+03  0.10730772127E+04  0.40000000000E+03 0. -1.
<mgrwt>
<rscale>  2 0.55814210E+03</rscale>
<asrwt>0</asrwt>
<pdfrwt beam="1">  1       21 0.25273398E+00 0.55834416E+03</pdfrwt>
<pdfrwt beam="2">  1       21 0.30525395E-01 0.55834416E+03</pdfrwt>
<totfact> 0.50873967E+02</totfact>
</mgrwt>
</event>
<event>
 6    1  0.9399121E-004  0.5546515E+03  0.7818608E-02  0.1000503E+00
         21   -1    0    0  503  502  0.00000000000E+00  0.00000000000E+00  0.67421490336E+03  0.67421490336E+03  0.00000000000E+00 0.  1.
         21   -1    0    0  501  503 -0.00000000000E+00 -0.00000000000E+00 -0.48376071508E+03  0.48376071508E+03  0.00000000000E+00 0. -1.
    9000007    2    1    2  501    0  0.12910732298E+03  0.35975043668E+03  0.23616598809E+03  0.60283721572E+03  0.40193190615E+03 0.  0.
    9000005    1    3    3    0    0  0.89869897921E+02  0.22937447289E+03 -0.79660374165E+02  0.25891315643E+03  0.99999687468E+00 0.  0.
          4    1    3    3  501    0  0.39237425057E+02  0.13037596379E+03  0.31582636226E+03  0.34392405929E+03  0.00000000000E+00 0.  1.
   -9000007    1    1    2    0  502 -0.12910732298E+03 -0.35975043668E+03 -0.45711799805E+02  0.55513840272E+03  0.40000000000E+03 0. -1.
<mgrwt>
<rscale>  2 0.55430162E+03</rscale>
<asrwt>0</asrwt>
<pdfrwt beam="1">  1       21 0.10372537E+00 0.55465154E+03</pdfrwt>
<pdfrwt beam="2">  1       21 0.74424725E-01 0.55465154E+03</pdfrwt>
<totfact> 0.99593413E+02</totfact>
</mgrwt>
</event>
<event>
 6    1  0.9399121E-004  0.4328433E+03  0.7818608E-02  0.1032999E+00
         21   -1    0    0  503  502  0.00000000000E+00  0.00000000000E+00  0.15327262743E+04  0.15327262743E+04  0.00000000000E+00 0. -1.
         21   -1    0    0  501  503 -0.00000000000E+00 -0.00000000000E+00 -0.13106685274E+03  0.13106685274E+03  0.00000000000E+00 0. -1.
    9000007    2    1    2  501    0  0.13992802296E+02 -0.16479551308E+03  0.48310218028E+03  0.64836180728E+03  0.39953968125E+03 0.  0.
    9000005    1    3    3    0    0  0.18074037923E+03 -0.19126736617E+03  0.28015015091E+03  0.38436362614E+03  0.99999687468E+00 0.  0.
          4    1    3    3  501    0 -0.16674757694E+03  0.26471853089E+02  0.20295202937E+03  0.26399818114E+03  0.00000000000E+00 0.  1.
   -9000007    1    1    2    0  502 -0.13992802296E+02  0.16479551308E+03  0.91855724130E+03  0.10154313198E+04  0.40000000000E+03 0. -1.
<mgrwt>
<rscale>  2 0.43273697E+03</rscale>
<asrwt>0</asrwt>
<pdfrwt beam="1">  1       21 0.23580403E+00 0.43284334E+03</pdfrwt>
<pdfrwt beam="2">  1       21 0.20164132E-01 0.43284334E+03</pdfrwt>
<totfact> 0.15387390E+03</totfact>
</mgrwt>
</event>
<event>
 6    1  0.9399121E-004  0.5207983E+03  0.7818608E-02  0.1008758E+00
         21   -1    0    0  503  502  0.00000000000E+00  0.00000000000E+00  0.78250433951E+03  0.78250433951E+03  0.00000000000E+00 0. -1.
         21   -1    0    0  501  503 -0.00000000000E+00 -0.00000000000E+00 -0.41217574070E+03  0.41217574070E+03  0.00000000000E+00 0. -1.
    9000007    2    1    2  501    0  0.31762626883E+03  0.76554961213E+02 -0.57576919519E+02  0.52397131975E+03  0.40556594226E+03 0.  0.
    9000005    1    3    3    0    0  0.15806376991E+03 -0.82891776190E+02 -0.19138602103E+03  0.26169602778E+03  0.99999687468E+00 0.  0.
          4    1    3    3  501    0  0.15956249892E+03  0.15944673740E+03  0.13380910151E+03  0.26227529197E+03  0.00000000000E+00 0.  1.
   -9000007    1    1    2    0  502 -0.31762626883E+03 -0.76554961213E+02  0.42790551833E+03  0.67070876046E+03  0.40000000000E+03 0. -1.
<mgrwt>
<rscale>  2 0.51971424E+03</rscale>
<asrwt>0</asrwt>
<pdfrwt beam="1">  1       21 0.12038528E+00 0.52079827E+03</pdfrwt>
<pdfrwt beam="2">  1       21 0.63411653E-01 0.52079827E+03</pdfrwt>
<totfact> 0.99549549E+02</totfact>
</mgrwt>
</event>
<event>
 6    1  0.9399121E-004  0.4241458E+03  0.7818608E-02  0.1035753E+00
         21   -1    0    0  503  502  0.00000000000E+00  0.00000000000E+00  0.31692555130E+03  0.31692555130E+03  0.00000000000E+00 0. -1.
         21   -1    0    0  501  503 -0.00000000000E+00 -0.00000000000E+00 -0.12146610951E+04  0.12146610951E+04  0.00000000000E+00 0. -1.
    9000007    2    1    2  501    0  0.13728069019E+03  0.27632097513E+02 -0.10080617373E+04  0.10936581252E+04  0.40036247066E+03 0.  0.
    9000005    1    3    3    0    0  0.13914047760E+03 -0.17341623266E+03 -0.49679738723E+03  0.54428109118E+03  0.99999687468E+00 0.  0.
          4    1    3    3  501    0 -0.18597874134E+01  0.20104833017E+03 -0.51126435003E+03  0.54937703399E+03  0.00000000000E+00 0.  1.
   -9000007    1    1    2    0  502 -0.13728069019E+03 -0.27632097513E+02  0.11032619349E+03  0.43792852120E+03  0.40000000000E+03 0. -1.
<mgrwt>
<rscale>  2 0.42406021E+03</rscale>
<asrwt>0</asrwt>
<pdfrwt beam="1">  1       21 0.48757776E-01 0.42414576E+03</pdfrwt>
<pdfrwt beam="2">  1       21 0.18687094E+00 0.42414576E+03</pdfrwt>
<totfact> 0.55057560E+02</totfact>
</mgrwt>
</event>
<event>
 6    1  0.9399121E-004  0.4418576E+03  0.7818608E-02  0.1030200E+00
         21   -1    0    0  503  502  0.00000000000E+00  0.00000000000E+00  0.17240248267E+04  0.17240248267E+04  0.00000000000E+00 0. -1.
         21   -1    0    0  501  503 -0.00000000000E+00 -0.00000000000E+00 -0.13232906618E+03  0.13232906618E+03  0.00000000000E+00 0. -1.
    9000007    2    1    2  501    0 -0.74782228734E+02  0.17144440341E+03  0.44291404929E+03  0.62562850301E+03  0.40031562989E+03 0.  0.
    9000005    1    3    3    0    0 -0.82161338907E+02  0.24691957786E+03  0.47631189512E+03  0.54276494449E+03  0.99999687468E+00 0.  0.
          4    1    3    3  501    0  0.73791101733E+01 -0.75475174453E+02 -0.33397845827E+02  0.82863558526E+02  0.00000000000E+00 0.  1.
   -9000007    1    1    2    0  502  0.74782228734E+02 -0.17144440341E+03  0.11487817112E+04  0.12307253898E+04  0.40000000000E+03 0. -1.
<mgrwt>
<rscale>  2 0.44178613E+03</rscale>
<asrwt>0</asrwt>
<pdfrwt beam="1">  1       21 0.26523457E+00 0.44185763E+03</pdfrwt>
<pdfrwt beam="2">  1       21 0.20358319E-01 0.44185763E+03</pdfrwt>
<totfact> 0.99244280E+02</totfact>
</mgrwt>
</event>
<event>
 6    1  0.9399121E-004  0.4420681E+03  0.7818608E-02  0.1030134E+00
         21   -1    0    0  503  502  0.00000000000E+00  0.00000000000E+00  0.13962499915E+03  0.13962499915E+03  0.00000000000E+00 0.  1.
         21   -1    0    0  501  503 -0.00000000000E+00 -0.00000000000E+00 -0.15005066080E+04  0.15005066080E+04  0.00000000000E+00 0.  1.
    9000007    2    1    2  501    0  0.18660730180E+03 -0.24534529964E+02 -0.46677290769E+03  0.64270762623E+03  0.39971479484E+03 0.  0.
    9000005    1    3    3    0    0  0.85318041373E+02  0.17834288712E+03 -0.30762014654E+03  0.36567267894E+03  0.99999687468E+00 0.  0.
          4    1    3    3  501    0  0.10128926043E+03 -0.20287741708E+03 -0.15915276115E+03  0.27703494730E+03  0.00000000000E+00 0.  1.
   -9000007    1    1    2    0  502 -0.18660730180E+03  0.24534529964E+02 -0.89410870116E+03  0.99742398093E+03  0.40000000000E+03 0.  1.
<mgrwt>
<rscale>  2 0.44200360E+03</rscale>
<asrwt>0</asrwt>
<pdfrwt beam="1">  1       21 0.21480770E-01 0.44206813E+03</pdfrwt>
<pdfrwt beam="2">  1       21 0.23084716E+00 0.44206813E+03</pdfrwt>
<totfact> 0.14581800E+03</totfact>
</mgrwt>
</event>
<event>
 6    1  0.9399121E-004  0.4385240E+03  0.7818608E-02  0.1031438E+00
         21   -1    0    0  503  502  0.00000000000E+00  0.00000000000E+00  0.13318132011E+04  0.13318132011E+04  0.00000000000E+00 0. -1.
         21   -1    0    0  501  503 -0.00000000000E+00 -0.00000000000E+00 -0.34240296190E+03  0.34240296190E+03  0.00000000000E+00 0. -1.
    9000007    2    1    2  501    0 -0.21523100902E+02  0.17076200993E+03 -0.14277094617E+03  0.46117983031E+03  0.40333656530E+03 0.  0.
    9000005    1    3    3    0    0 -0.17105743154E+03 -0.81832460980E+01 -0.15030325371E+03  0.22785890036E+03  0.99999687468E+00 0.  0.
          4    1    3    3  501    0  0.14953433064E+03  0.17894525603E+03  0.75323075443E+01  0.23332092995E+03  0.00000000000E+00 0.  1.
   -9000007    1    1    2    0  502  0.21523100902E+02 -0.17076200993E+03  0.11321811854E+04  0.12130363327E+04  0.40000000000E+03 0. -1.
<mgrwt>
<rscale>  2 0.43775526E+03</rscale>
<asrwt>0</asrwt>
<pdfrwt beam="1">  1       21 0.20489434E+00 0.43852399E+03</pdfrwt>
<pdfrwt beam="2">  1       21 0.52677380E-01 0.43852399E+03</pdfrwt>
<totfact> 0.35058465E+02</totfact>
</mgrwt>
</event>
<event>
 6    1  0.9399121E-004  0.4550909E+03  0.7818608E-02  0.1026361E+00
         21   -1    0    0  503  502  0.00000000000E+00  0.00000000000E+00  0.22166810393E+04  0.22166810393E+04  0.00000000000E+00 0.  1.
         21   -1    0    0  501  503 -0.00000000000E+00 -0.00000000000E+00 -0.13546902917E+03  0.13546902917E+03  0.00000000000E+00 0.  1.
    9000007    2    1    2  501    0  0.21134566055E+03  0.49404285934E+02  0.16973494858E+04  0.17567861383E+04  0.39773670583E+03 0.  0.
    9000005    1    3    3    0    0  0.10144532078E+03 -0.10500318738E+03  0.13758957493E+04  0.13836209508E+04  0.99999687468E+00 0.  0.
          4    1    3    3  501    0  0.10990033977E+03  0.15440747331E+03  0.32145373651E+03  0.37316518756E+03  0.00000000000E+00 0.  1.
   -9000007    1    1    2    0  502 -0.21134566055E+03 -0.49404285934E+02  0.38386252428E+03  0.59536393009E+03  0.40000000000E+03 0.  1.
<mgrwt>
<rscale>  2 0.45459313E+03</rscale>
<asrwt>0</asrwt>
<pdfrwt beam="1">  1       21 0.34102783E+00 0.45509095E+03</pdfrwt>
<pdfrwt beam="2">  1       21 0.20841391E-01 0.45509095E+03</pdfrwt>
<totfact> 0.32847387E+02</totfact>
</mgrwt>
</event>
<event>
 6    1  0.9399121E-004  0.4053766E+03  0.7818608E-02  0.1041940E+00
         21   -1    0    0  503  502  0.00000000000E+00  0.00000000000E+00  0.10151498970E+04  0.10151498970E+04  0.00000000000E+00 0.  1.
         21   -1    0    0  501  503 -0.00000000000E+00 -0.00000000000E+00 -0.23124642954E+03  0.23124642954E+03  0.00000000000E+00 0.  1.
    9000007    2    1    2  501    0  0.58587925287E+02  0.28872108123E+02  0.50574126378E+02  0.40851920781E+03  0.40008006358E+03 0.  0.
    9000005    1    3    3    0    0  0.14826073848E+02 -0.18187325121E+03 -0.16099629106E+02  0.18318812741E+03  0.99999687468E+00 0.  0.
          4    1    3    3  501    0  0.43761851440E+02  0.21074535934E+03  0.66673755484E+02  0.22533108040E+03  0.00000000000E+00 0.  1.
   -9000007    1    1    2    0  502 -0.58587925287E+02 -0.28872108123E+02  0.73332934108E+03  0.83787711874E+03  0.40000000000E+03 0.  1.
<mgrwt>
<rscale>  2 0.40535686E+03</rscale>
<asrwt>0</asrwt>
<pdfrwt beam="1">  1       21 0.15617690E+00 0.40537662E+03</pdfrwt>
<pdfrwt beam="2">  1       21 0.35576374E-01 0.40537662E+03</pdfrwt>
<totfact> 0.17785321E+03</totfact>
</mgrwt>
</event>
<event>
 6    1  0.9399121E-004  0.5110366E+03  0.7818608E-02  0.1010960E+00
         21   -1    0    0  503  502  0.00000000000E+00  0.00000000000E+00  0.18406820108E+03  0.18406820108E+03  0.00000000000E+00 0.  1.
         21   -1    0    0  501  503 -0.00000000000E+00 -0.00000000000E+00 -0.18664854484E+04  0.18664854484E+04  0.00000000000E+00 0.  1.
    9000007    2    1    2  501    0 -0.17530335488E+03 -0.26470205510E+03 -0.13440986459E+04  0.14379706590E+04  0.40044974969E+03 0.  0.
    9000005    1    3    3    0    0  0.17962039714E+02 -0.19444212578E+03 -0.21558962653E+03  0.29087843202E+03  0.99999687468E+00 0.  0.
          4    1    3    3  501    0 -0.19326539459E+03 -0.70259929314E+02 -0.11285090193E+04  0.11470922270E+04  0.00000000000E+00 0.  1.
   -9000007    1    1    2    0  502  0.17530335488E+03  0.26470205510E+03 -0.33831860148E+03  0.61258299055E+03  0.40000000000E+03 0.  1.
<mgrwt>
<rscale>  2 0.51094853E+03</rscale>
<asrwt>0</asrwt>
<pdfrwt beam="1">  1       21 0.28318186E-01 0.51103664E+03</pdfrwt>
<pdfrwt beam="2">  1       21 0.28715159E+00 0.51103664E+03</pdfrwt>
<totfact> 0.37195574E+02</totfact>
</mgrwt>
</event>
<event>
 6    1  0.9399121E-004  0.4733948E+03  0.7818608E-02  0.1020984E+00
         21   -1    0    0  503  502  0.00000000000E+00  0.00000000000E+00  0.42055378414E+03  0.42055378414E+03  0.00000000000E+00 0.  1.
         21   -1    0    0  501  503 -0.00000000000E+00 -0.00000000000E+00 -0.75448297427E+03  0.75448297427E+03  0.00000000000E+00 0.  1.
    9000007    2    1    2  501    0  0.86917358550E+02 -0.23779828191E+03 -0.48555270994E+03  0.67795292055E+03  0.39969498152E+03 0.  0.
    9000005    1    3    3    0    0 -0.13704329144E+03 -0.79802419122E+02 -0.55565521922E+02  0.16804111713E+03  0.99999687468E+00 0.  0.
          4    1    3    3  501    0  0.22396064999E+03 -0.15799586278E+03 -0.42998718802E+03  0.50991180342E+03  0.00000000000E+00 0.  1.
   -9000007    1    1    2    0  502 -0.86917358550E+02  0.23779828191E+03  0.15162351982E+03  0.49708383786E+03  0.40000000000E+03 0.  1.
<mgrwt>
<rscale>  2 0.47333038E+03</rscale>
<asrwt>0</asrwt>
<pdfrwt beam="1">  1       21 0.64700583E-01 0.47339481E+03</pdfrwt>
<pdfrwt beam="2">  1       21 0.11607430E+00 0.47339481E+03</pdfrwt>
<totfact> 0.10627258E+03</totfact>
</mgrwt>
</event>
<event>
 6    1  0.9399121E-004  0.5740875E+03  0.7818608E-02  0.9960838E-01
         21   -1    0    0  503  502  0.00000000000E+00  0.00000000000E+00  0.14552241718E+04  0.14552241718E+04  0.00000000000E+00 0. -1.
         21   -1    0    0  501  503 -0.00000000000E+00 -0.00000000000E+00 -0.34504871825E+03  0.34504871825E+03  0.00000000000E+00 0. -1.
    9000007    2    1    2  501    0 -0.40964815625E+03 -0.42009516540E+02  0.27066869675E+02  0.57442599266E+03  0.39957001164E+03 0.  0.
    9000005    1    3    3    0    0 -0.23304341326E+03 -0.73986937261E+02 -0.17760764349E+03  0.30220650947E+03  0.99999687468E+00 0.  0.
          4    1    3    3  501    0 -0.17660474300E+03  0.31977420721E+02  0.20467451317E+03  0.27221948318E+03  0.00000000000E+00 0.  1.
   -9000007    1    1    2    0  502  0.40964815625E+03  0.42009516540E+02  0.10831085838E+04  0.12258468974E+04  0.40000000000E+03 0. -1.
<mgrwt>
<rscale>  2 0.57401257E+03</rscale>
<asrwt>0</asrwt>
<pdfrwt beam="1">  1       21 0.22388064E+00 0.57408746E+03</pdfrwt>
<pdfrwt beam="2">  1       21 0.53084419E-01 0.57408746E+03</pdfrwt>
<totfact> 0.24362295E+02</totfact>
</mgrwt>
</event>
<event>
 6    1  0.9399121E-004  0.4252341E+03  0.7818608E-02  0.1035503E+00
         21   -1    0    0  503  502  0.00000000000E+00  0.00000000000E+00  0.79534232102E+03  0.79534232102E+03  0.00000000000E+00 0.  1.
         21   -1    0    0  501  503 -0.00000000000E+00 -0.00000000000E+00 -0.27043717288E+03  0.27043717288E+03  0.00000000000E+00 0.  1.
    9000007    2    1    2  501    0 -0.71423351076E+02  0.11992285613E+03  0.48092764710E+02  0.42794500479E+03  0.40167303446E+03 0.  0.
    9000005    1    3    3    0    0  0.79600004697E+02  0.16266263273E+02  0.18314997014E+03  0.20036382813E+03  0.99999687468E+00 0.  0.
          4    1    3    3  501    0 -0.15102335577E+03  0.10365659286E+03 -0.13505720543E+03  0.22758117666E+03  0.00000000000E+00 0.  1.
   -9000007    1    1    2    0  502  0.71423351076E+02 -0.11992285613E+03  0.47681238343E+03  0.63783448911E+03  0.40000000000E+03 0.  1.
<mgrwt>
<rscale>  2 0.42483852E+03</rscale>
<asrwt>0</asrwt>
<pdfrwt beam="1">  1       21 0.12236036E+00 0.42523407E+03</pdfrwt>
<pdfrwt beam="2">  1       21 0.41605719E-01 0.42523407E+03</pdfrwt>
<totfact> 0.24395087E+03</totfact>
</mgrwt>
</event>
<event>
 6    1  0.9399121E-004  0.4613472E+03  0.7818608E-02  0.1024398E+00
         21   -1    0    0  503  502  0.00000000000E+00  0.00000000000E+00  0.10511704427E+03  0.10511704427E+03  0.00000000000E+00 0.  1.
         21   -1    0    0  501  503 -0.00000000000E+00 -0.00000000000E+00 -0.21949283946E+04  0.21949283946E+04  0.00000000000E+00 0.  1.
    9000007    2    1    2  501    0  0.20811185830E+03 -0.97625172936E+02 -0.13653790051E+04  0.14411837255E+04  0.39988683772E+03 0.  0.
    9000005    1    3    3    0    0  0.29862274162E+03 -0.47344681268E+02 -0.63278770233E+03  0.70131186848E+03  0.99999687468E+00 0.  0.
          4    1    3    3  501    0 -0.90510883320E+02 -0.50280491668E+02 -0.73259130280E+03  0.73987185700E+03  0.00000000000E+00 0.  1.
   -9000007    1    1    2    0  502 -0.20811185830E+03  0.97625172936E+02 -0.72443234524E+03  0.85886171342E+03  0.40000000000E+03 0.  1.
<mgrwt>
<rscale>  2 0.46132265E+03</rscale>
<asrwt>0</asrwt>
<pdfrwt beam="1">  1       21 0.16171854E-01 0.46134718E+03</pdfrwt>
<pdfrwt beam="2">  1       21 0.33768127E+00 0.46134718E+03</pdfrwt>
<totfact> 0.55381872E+02</totfact>
</mgrwt>
</event>
<event>
 6    1  0.9399121E-004  0.4052770E+03  0.7818608E-02  0.1042023E+00
         21   -1    0    0  503  502  0.00000000000E+00  0.00000000000E+00  0.71242174504E+03  0.71242174504E+03  0.00000000000E+00 0.  1.
         21   -1    0    0  501  503 -0.00000000000E+00 -0.00000000000E+00 -0.23465649270E+03  0.23465649270E+03  0.00000000000E+00 0.  1.
    9000007    2    1    2  501    0  0.27408232813E+02 -0.59145871244E+02  0.17330406257E+03  0.44017976527E+03  0.39934256264E+03 0.  0.
    9000005    1    3    3    0    0  0.18307517953E+03  0.75637032844E+01 -0.18665515277E+02  0.18418233471E+03  0.99999687468E+00 0.  0.
          4    1    3    3  501    0 -0.15566694671E+03 -0.66709574529E+02  0.19196957784E+03  0.25599743055E+03  0.00000000000E+00 0.  1.
   -9000007    1    1    2    0  502 -0.27408232813E+02  0.59145871244E+02  0.30446118977E+03  0.50689847247E+03  0.40000000000E+03 0.  1.
<mgrwt>
<rscale>  2 0.40511468E+03</rscale>
<asrwt>0</asrwt>
<pdfrwt beam="1">  1       21 0.10960334E+00 0.40527700E+03</pdfrwt>
<pdfrwt beam="2">  1       21 0.36100999E-01 0.40527700E+03</pdfrwt>
<totfact> 0.43326144E+03</totfact>
</mgrwt>
</event>
<event>
 6    1  0.9399121E-004  0.4406999E+03  0.7818608E-02  0.1030538E+00
         21   -1    0    0  503  502  0.00000000000E+00  0.00000000000E+00  0.55506644940E+03  0.55506644940E+03  0.00000000000E+00 0. -1.
         21   -1    0    0  501  503 -0.00000000000E+00 -0.00000000000E+00 -0.36150194717E+03  0.36150194717E+03  0.00000000000E+00 0. -1.
    9000007    2    1    2  501    0 -0.12976207935E+02  0.18452101428E+03  0.14459317050E+02  0.44086359940E+03  0.39991906024E+03 0.  0.
    9000005    1    3    3    0    0 -0.14323420335E+02  0.30925998602E+03 -0.23462065449E+02  0.31048086549E+03  0.99999687468E+00 0.  0.
          4    1    3    3  501    0  0.13472124004E+01 -0.12473897174E+03  0.37921382500E+02  0.13038273391E+03  0.00000000000E+00 0.  1.
   -9000007    1    1    2    0  502  0.12976207935E+02 -0.18452101428E+03  0.17910518518E+03  0.47570479716E+03  0.40000000000E+03 0. -1.
<mgrwt>
<rscale>  2 0.44068152E+03</rscale>
<asrwt>0</asrwt>
<pdfrwt beam="1">  1       21 0.85394838E-01 0.44069988E+03</pdfrwt>
<pdfrwt beam="2">  1       21 0.55615684E-01 0.44069988E+03</pdfrwt>
<totfact> 0.31577422E+03</totfact>
</mgrwt>
</event>
<event>
 6    1  0.9399121E-004  0.5278668E+03  0.7818608E-02  0.1006875E+00
         21   -1    0    0  503  502  0.00000000000E+00  0.00000000000E+00  0.23523227778E+03  0.23523227778E+03  0.00000000000E+00 0.  1.
         21   -1    0    0  501  503 -0.00000000000E+00 -0.00000000000E+00 -0.11951034963E+04  0.11951034963E+04  0.00000000000E+00 0.  1.
    9000007    2    1    2  501    0  0.14939943851E+03 -0.30688308021E+03 -0.56130260929E+03  0.77052189621E+03  0.40267351068E+03 0.  0.
    9000005    1    3    3    0    0  0.43001118399E+02  0.78690967218E+02 -0.24401914352E+03  0.25997635836E+03  0.99999687468E+00 0.  0.
          4    1    3    3  501    0  0.10639832011E+03 -0.38557404743E+03 -0.31728346576E+03  0.51054553785E+03  0.00000000000E+00 0.  1.
   -9000007    1    1    2    0  502 -0.14939943851E+03  0.30688308021E+03 -0.39856860919E+03  0.65981387783E+03  0.40000000000E+03 0.  1.
<mgrwt>
<rscale>  2 0.52735693E+03</rscale>
<asrwt>0</asrwt>
<pdfrwt beam="1">  1       21 0.36189581E-01 0.52786681E+03</pdfrwt>
<pdfrwt beam="2">  1       21 0.18386208E+00 0.52786681E+03</pdfrwt>
<totfact> 0.10253992E+03</totfact>
</mgrwt>
</event>
<event>
 6    1  0.9399121E-004  0.4363331E+03  0.7818608E-02  0.1031906E+00
         21   -1    0    0  503  502  0.00000000000E+00  0.00000000000E+00  0.33096252119E+03  0.33096252119E+03  0.00000000000E+00 0.  1.
         21   -1    0    0  501  503 -0.00000000000E+00 -0.00000000000E+00 -0.61273647169E+03  0.61273647169E+03  0.00000000000E+00 0.  1.
    9000007    2    1    2  501    0  0.12721504150E+03  0.11917589224E+03 -0.25828704700E+03  0.50673424063E+03  0.39960084072E+03 0.  0.
    9000005    1    3    3    0    0 -0.96006605280E+01  0.22460972314E+03 -0.39955865833E+02  0.22834003507E+03  0.99999687468E+00 0.  0.
          4    1    3    3  501    0  0.13681570203E+03 -0.10543383089E+03 -0.21833118116E+03  0.27839420555E+03  0.00000000000E+00 0.  1.
   -9000007    1    1    2    0  502 -0.12721504150E+03 -0.11917589224E+03 -0.23486903509E+02  0.43696475225E+03  0.40000000000E+03 0.  1.
<mgrwt>
<rscale>  2 0.43624158E+03</rscale>
<asrwt>0</asrwt>
<pdfrwt beam="1">  1       21 0.50917312E-01 0.43633308E+03</pdfrwt>
<pdfrwt beam="2">  1       21 0.94267148E-01 0.43633308E+03</pdfrwt>
<totfact> 0.30254543E+03</totfact>
</mgrwt>
</event>
<event>
 6    1  0.9399121E-004  0.8348711E+03  0.7818608E-02  0.9511107E-01
         21   -1    0    0  503  502  0.00000000000E+00  0.00000000000E+00  0.79388099651E+03  0.79388099651E+03  0.00000000000E+00 0.  1.
         21   -1    0    0  501  503 -0.00000000000E+00 -0.00000000000E+00 -0.88981543764E+03  0.88981543764E+03  0.00000000000E+00 0. -1.
    9000007    2    1    2  501    0 -0.59913675828E+03 -0.42195365301E+03 -0.14796947034E+03  0.84720531963E+03  0.39856260367E+03 0.  0.
    9000005    1    3    3    0    0 -0.59594755906E+03 -0.26760238307E+03 -0.20175824418E+03  0.68371918042E+03  0.99999687468E+00 0.  0.
          4    1    3    3  501    0 -0.31891992172E+01 -0.15435126994E+03  0.53788773846E+02  0.16348613921E+03  0.00000000000E+00 0.  1.
   -9000007    1    1    2    0  502  0.59913675828E+03  0.42195365301E+03  0.52035029207E+02  0.83649111452E+03  0.40000000000E+03 0.  1.
<mgrwt>
<rscale>  2 0.83469911E+03</rscale>
<asrwt>0</asrwt>
<pdfrwt beam="1">  1       21 0.12213554E+00 0.83487109E+03</pdfrwt>
<pdfrwt beam="2">  1       21 0.13689468E+00 0.83487109E+03</pdfrwt>
<totfact> 0.13488799E+02</totfact>
</mgrwt>
</event>
<event>
 6    1  0.9399121E-004  0.4409197E+03  0.7818608E-02  0.1030484E+00
         21   -1    0    0  503  502  0.00000000000E+00  0.00000000000E+00  0.22480159935E+03  0.22480159935E+03  0.00000000000E+00 0.  1.
         21   -1    0    0  501  503 -0.00000000000E+00 -0.00000000000E+00 -0.88180191729E+03  0.88180191729E+03  0.00000000000E+00 0.  1.
    9000007    2    1    2  501    0 -0.79772448673E+02  0.16747107144E+03 -0.25053259078E+03  0.50691508373E+03  0.39973256027E+03 0.  0.
    9000005    1    3    3    0    0  0.48806922904E+02 -0.31490683896E+01  0.91433454527E+02  0.10369719840E+03  0.99999687468E+00 0.  0.
          4    1    3    3  501    0 -0.12857937158E+03  0.17062013983E+03 -0.34196604531E+03  0.40321788534E+03  0.00000000000E+00 0.  1.
   -9000007    1    1    2    0  502  0.79772448673E+02 -0.16747107144E+03 -0.40646772716E+03  0.59968843291E+03  0.40000000000E+03 0.  1.
<mgrwt>
<rscale>  2 0.44085906E+03</rscale>
<asrwt>0</asrwt>
<pdfrwt beam="1">  1       21 0.34584862E-01 0.44091972E+03</pdfrwt>
<pdfrwt beam="2">  1       21 0.13566183E+00 0.44091972E+03</pdfrwt>
<totfact> 0.27087808E+03</totfact>
</mgrwt>
</event>
<event>
 6    1  0.9399121E-004  0.6773167E+03  0.7818608E-02  0.9757017E-01
         21   -1    0    0  503  502  0.00000000000E+00  0.00000000000E+00  0.10697258171E+04  0.10697258171E+04  0.00000000000E+00 0. -1.
         21   -1    0    0  501  503 -0.00000000000E+00 -0.00000000000E+00 -0.57050806467E+03  0.57050806467E+03  0.00000000000E+00 0. -1.
    9000007    2    1    2  501    0 -0.39201932667E+01  0.54657350269E+03 -0.15948710290E+03  0.69543228979E+03  0.39928933360E+03 0.  0.
    9000005    1    3    3    0    0 -0.17733216074E+03  0.19944301928E+03  0.20539375588E+02  0.26766972021E+03  0.99999687468E+00 0.  0.
          4    1    3    3  501    0  0.17341196748E+03  0.34713048342E+03 -0.18002647849E+03  0.42776256958E+03  0.00000000000E+00 0.  1.
   -9000007    1    1    2    0  502  0.39201932667E+01 -0.54657350269E+03  0.65870485531E+03  0.94480159196E+03  0.40000000000E+03 0. -1.
<mgrwt>
<rscale>  2 0.67721185E+03</rscale>
<asrwt>0</asrwt>
<pdfrwt beam="1">  1       21 0.16457320E+00 0.67731674E+03</pdfrwt>
<pdfrwt beam="2">  1       21 0.87770472E-01 0.67731674E+03</pdfrwt>
<totfact> 0.19282197E+02</totfact>
</mgrwt>
</event>
<event>
 6    1  0.9399121E-004  0.4432088E+03  0.7818608E-02  0.1029993E+00
         21   -1    0    0  503  502  0.00000000000E+00  0.00000000000E+00  0.13257389692E+03  0.13257389692E+03  0.00000000000E+00 0. -1.
         21   -1    0    0  501  503 -0.00000000000E+00 -0.00000000000E+00 -0.19267729190E+04  0.19267729190E+04  0.00000000000E+00 0. -1.
    9000007    2    1    2  501    0  0.62686598410E+02 -0.17288450181E+03 -0.13997393831E+04  0.14682317109E+04  0.40325594318E+03 0.  0.
    9000005    1    3    3    0    0 -0.16356529067E+03 -0.13819204480E+03 -0.65550458095E+03  0.68959256174E+03  0.99999687468E+00 0.  0.
          4    1    3    3  501    0  0.22625188908E+03 -0.34692457014E+02 -0.74423480212E+03  0.77863914914E+03  0.00000000000E+00 0.  1.
   -9000007    1    1    2    0  502 -0.62686598410E+02  0.17288450181E+03 -0.39445963898E+03  0.59111510501E+03  0.40000000000E+03 0. -1.
<mgrwt>
<rscale>  2 0.44246682E+03</rscale>
<asrwt>0</asrwt>
<pdfrwt beam="1">  1       21 0.20395984E-01 0.44320877E+03</pdfrwt>
<pdfrwt beam="2">  1       21 0.29642661E+00 0.44320877E+03</pdfrwt>
<totfact> 0.64100669E+02</totfact>
</mgrwt>
</event>
<event>
 6    1  0.9399121E-004  0.4030613E+03  0.7818608E-02  0.1042982E+00
         21   -1    0    0  503  502  0.00000000000E+00  0.00000000000E+00  0.23995025663E+03  0.23995025663E+03  0.00000000000E+00 0. -1.
         21   -1    0    0  501  503 -0.00000000000E+00 -0.00000000000E+00 -0.15088519169E+04  0.15088519169E+04  0.00000000000E+00 0. -1.
    9000007    2    1    2  501    0  0.49223206136E+02  0.59585630516E+01  0.17783631357E+02  0.40046339259E+03  0.39698393263E+03 0.  0.
    9000005    1    3    3    0    0  0.11257202635E+03 -0.17384930856E+03  0.30730496234E+02  0.20938339618E+03  0.99999687468E+00 0.  0.
          4    1    3    3  501    0 -0.63348820217E+02  0.17980787161E+03 -0.12946864877E+02  0.19107999641E+03  0.00000000000E+00 0.  1.
   -9000007    1    1    2    0  502 -0.49223206136E+02 -0.59585630516E+01 -0.12866852916E+04  0.13483387809E+04  0.40000000000E+03 0. -1.
<mgrwt>
<rscale>  2 0.40231098E+03</rscale>
<asrwt>0</asrwt>
<pdfrwt beam="1">  1       21 0.36915425E-01 0.40306132E+03</pdfrwt>
<pdfrwt beam="2">  1       21 0.23213106E+00 0.40306132E+03</pdfrwt>
<totfact> 0.50248265E+02</totfact>
</mgrwt>
</event>
<event>
 6    1  0.9399121E-004  0.4170298E+03  0.7818608E-02  0.1038136E+00
         21   -1    0    0  503  502  0.00000000000E+00  0.00000000000E+00  0.22418062328E+04  0.22418062328E+04  0.00000000000E+00 0. -1.
         21   -1    0    0  501  503 -0.00000000000E+00 -0.00000000000E+00 -0.12613841480E+04  0.12613841480E+04  0.00000000000E+00 0. -1.
    9000007    2    1    2  501    0  0.29304534739E+02  0.10980549032E+03 -0.12067824978E+04  0.12768076897E+04  0.40124540855E+03 0.  0.
    9000005    1    3    3    0    0  0.19050772293E+03 -0.73341948053E+01 -0.81810261501E+03  0.84002373276E+03  0.99999687468E+00 0.  0.
          4    1    3    3  501    0 -0.16120318819E+03  0.11713968512E+03 -0.38867988281E+03  0.43678395691E+03  0.00000000000E+00 0.  1.
   -9000007    1    1    2    0  502 -0.29304534739E+02 -0.10980549032E+03  0.21872045826E+04  0.22263826912E+04  0.40000000000E+03 0. -1.
<mgrwt>
<rscale>  2 0.41672997E+03</rscale>
<asrwt>0</asrwt>
<pdfrwt beam="1">  1       21 0.34489327E+00 0.41702983E+03</pdfrwt>
<pdfrwt beam="2">  1       21 0.19405910E+00 0.41702983E+03</pdfrwt>
<totfact> 0.19608420E+00</totfact>
</mgrwt>
</event>
<event>
 6    1  0.9399121E-004  0.4551570E+03  0.7818608E-02  0.1026281E+00
         21   -1    0    0  503  502  0.00000000000E+00  0.00000000000E+00  0.42252412640E+03  0.42252412640E+03  0.00000000000E+00 0.  1.
         21   -1    0    0  501  503 -0.00000000000E+00 -0.00000000000E+00 -0.49200988072E+03  0.49200988072E+03  0.00000000000E+00 0.  1.
    9000007    2    1    2  501    0  0.13099239443E+03  0.17013125606E+03  0.67945007567E+00  0.45515746484E+03  0.40132805092E+03 0.  0.
    9000005    1    3    3    0    0  0.22908425279E+02  0.29099640255E+03  0.15695331311E+02  0.29232010821E+03  0.99999687468E+00 0.  0.
          4    1    3    3  501    0  0.10808396915E+03 -0.12086514649E+03 -0.15015881235E+02  0.16283735663E+03  0.00000000000E+00 0.  1.
   -9000007    1    1    2    0  502 -0.13099239443E+03 -0.17013125606E+03 -0.70165204389E+02  0.45937654228E+03  0.40000000000E+03 0.  1.
<mgrwt>
<rscale>  2 0.45486404E+03</rscale>
<asrwt>0</asrwt>
<pdfrwt beam="1">  1       21 0.65003712E-01 0.45515696E+03</pdfrwt>
<pdfrwt beam="2">  1       21 0.75693828E-01 0.45515696E+03</pdfrwt>
<totfact> 0.29495726E+03</totfact>
</mgrwt>
</event>
<event>
 6    1  0.9399121E-004  0.4624263E+03  0.7818608E-02  0.1024093E+00
         21   -1    0    0  503  502  0.00000000000E+00  0.00000000000E+00  0.20184924703E+03  0.20184924703E+03  0.00000000000E+00 0.  1.
         21   -1    0    0  501  503 -0.00000000000E+00 -0.00000000000E+00 -0.11290862220E+04  0.11290862220E+04  0.00000000000E+00 0.  1.
    9000007    2    1    2  501    0  0.12379912165E+03 -0.19624439343E+03 -0.62936404355E+03  0.78087513799E+03  0.39978593942E+03 0.  0.
    9000005    1    3    3    0    0 -0.44306174633E+02 -0.54492405753E+02  0.36843914172E+02  0.79315404561E+02  0.99999687468E+00 0.  0.
          4    1    3    3  501    0  0.16810529628E+03 -0.14175198768E+03 -0.66620795772E+03  0.70155973343E+03  0.00000000000E+00 0.  1.
   -9000007    1    1    2    0  502 -0.12379912165E+03  0.19624439343E+03 -0.29787293138E+03  0.55006033098E+03  0.40000000000E+03 0.  1.
<mgrwt>
<rscale>  2 0.46238001E+03</rscale>
<asrwt>0</asrwt>
<pdfrwt beam="1">  1       21 0.31053730E-01 0.46242630E+03</pdfrwt>
<pdfrwt beam="2">  1       21 0.17370558E+00 0.46242630E+03</pdfrwt>
<totfact> 0.16914138E+03</totfact>
</mgrwt>
</event>
<event>
 6    1  0.9399121E-004  0.4397589E+03  0.7818608E-02  0.1030848E+00
         21   -1    0    0  503  502  0.00000000000E+00  0.00000000000E+00  0.11414282946E+04  0.11414282946E+04  0.00000000000E+00 0. -1.
         21   -1    0    0  501  503 -0.00000000000E+00 -0.00000000000E+00 -0.17013070344E+03  0.17013070344E+03  0.00000000000E+00 0. -1.
    9000007    2    1    2  501    0  0.14061320536E+03 -0.11535753036E+03  0.43977230505E+03  0.62192245382E+03  0.40038534556E+03 0.  0.
    9000005    1    3    3    0    0  0.19622122261E+03 -0.48181090140E+02  0.48375269935E+03  0.52425362161E+03  0.99999687468E+00 0.  0.
          4    1    3    3  501    0 -0.55608017242E+02 -0.67176440219E+02 -0.43980394300E+02  0.97668832208E+02  0.00000000000E+00 0.  1.
   -9000007    1    1    2    0  502 -0.14061320536E+03  0.11535753036E+03  0.53152528609E+03  0.68963654420E+03  0.40000000000E+03 0.  1.
<mgrwt>
<rscale>  2 0.43967113E+03</rscale>
<asrwt>0</asrwt>
<pdfrwt beam="1">  1       21 0.17560435E+00 0.43975886E+03</pdfrwt>
<pdfrwt beam="2">  1       21 0.26173955E-01 0.43975886E+03</pdfrwt>
<totfact> 0.23190664E+03</totfact>
</mgrwt>
</event>
<event>
 6    1  0.9399121E-004  0.5584625E+03  0.7818608E-02  0.9996156E-01
         21   -1    0    0  503  502  0.00000000000E+00  0.00000000000E+00  0.17800916001E+04  0.17800916001E+04  0.00000000000E+00 0.  1.
         21   -1    0    0  501  503 -0.00000000000E+00 -0.00000000000E+00 -0.17561767117E+03  0.17561767117E+03  0.00000000000E+00 0.  1.
    9000007    2    1    2  501    0  0.38971146230E+03 -0.23030799134E+01  0.86550819905E+03  0.10294530011E+04  0.39848301202E+03 0.  0.
    9000005    1    3    3    0    0  0.31653300247E+01 -0.64630473686E+02  0.46454046345E+03  0.46902660864E+03  0.99999687468E+00 0.  0.
          4    1    3    3  501    0  0.38654613228E+03  0.62327393773E+02  0.40096773561E+03  0.56042639248E+03  0.00000000000E+00 0.  1.
   -9000007    1    1    2    0  502 -0.38971146230E+03  0.23030799134E+01  0.73896572985E+03  0.92625627011E+03  0.40000000000E+03 0.  1.
<mgrwt>
<rscale>  2 0.55819088E+03</rscale>
<asrwt>0</asrwt>
<pdfrwt beam="1">  1       21 0.27386023E+00 0.55846247E+03</pdfrwt>
<pdfrwt beam="2">  1       21 0.27018104E-01 0.55846247E+03</pdfrwt>
<totfact> 0.48087864E+02</totfact>
</mgrwt>
</event>
<event>
 6    1  0.9399121E-004  0.5153442E+03  0.7818608E-02  0.1009958E+00
         21   -1    0    0  503  502  0.00000000000E+00  0.00000000000E+00  0.44322039519E+03  0.44322039519E+03  0.00000000000E+00 0.  1.
         21   -1    0    0  501  503 -0.00000000000E+00 -0.00000000000E+00 -0.89872014349E+03  0.89872014349E+03  0.00000000000E+00 0.  1.
    9000007    2    1    2  501    0  0.26944481959E+03 -0.18160159068E+03 -0.61613566260E+03  0.80214099671E+03  0.39777804782E+03 0.  0.
    9000005    1    3    3    0    0  0.58847449545E+02 -0.12325199335E+03 -0.56013716822E+03  0.57654897745E+03  0.99999687468E+00 0.  0.
          4    1    3    3  501    0  0.21059737005E+03 -0.58349597323E+02 -0.55998494381E+02  0.22559201926E+03  0.00000000000E+00 0.  1.
   -9000007    1    1    2    0  502 -0.26944481959E+03  0.18160159068E+03  0.16063591431E+03  0.53979954197E+03  0.40000000000E+03 0.  1.
<mgrwt>
<rscale>  2 0.51491298E+03</rscale>
<asrwt>0</asrwt>
<pdfrwt beam="1">  1       21 0.68187753E-01 0.51534420E+03</pdfrwt>
<pdfrwt beam="2">  1       21 0.13826464E+00 0.51534420E+03</pdfrwt>
<totfact> 0.59144472E+02</totfact>
</mgrwt>
</event>
<event>
 6    1  0.9399121E-004  0.4455812E+03  0.7818608E-02  0.1029265E+00
         21   -1    0    0  503  502  0.00000000000E+00  0.00000000000E+00  0.79223099988E+02  0.79223099988E+02  0.00000000000E+00 0.  1.
         21   -1    0    0  501  503 -0.00000000000E+00 -0.00000000000E+00 -0.26040628151E+04  0.26040628151E+04  0.00000000000E+00 0.  1.
    9000007    2    1    2  501    0  0.99561352236E+01  0.19607010517E+03 -0.15392998779E+04  0.16016984791E+04  0.39680132730E+03 0.  0.
    9000005    1    3    3    0    0 -0.19318233057E+03  0.10050470892E+03 -0.72178627545E+03  0.75392110779E+03  0.99999687468E+00 0.  0.
          4    1    3    3  501    0  0.20313846580E+03  0.95565396253E+02 -0.81751360241E+03  0.84777737135E+03  0.00000000000E+00 0.  1.
   -9000007    1    1    2    0  502 -0.99561352236E+01 -0.19607010517E+03 -0.98553983722E+03  0.10815874359E+04  0.40000000000E+03 0. -1.
<mgrwt>
<rscale>  2 0.44486216E+03</rscale>
<asrwt>0</asrwt>
<pdfrwt beam="1">  1       21 0.12188169E-01 0.44558121E+03</pdfrwt>
<pdfrwt beam="2">  1       21 0.40062507E+00 0.44558121E+03</pdfrwt>
<totfact> 0.38150511E+02</totfact>
</mgrwt>
</event>
<event>
 6    1  0.9399121E-004  0.4435832E+03  0.7818608E-02  0.1029791E+00
         21   -1    0    0  503  502  0.00000000000E+00  0.00000000000E+00  0.21606846478E+04  0.21606846478E+04  0.00000000000E+00 0.  1.
         21   -1    0    0  501  503 -0.00000000000E+00 -0.00000000000E+00 -0.92439420971E+02  0.92439420971E+02  0.00000000000E+00 0.  1.
    9000007    2    1    2  501    0 -0.16553854113E+03  0.88072912010E+02  0.88142026375E+03  0.98674602907E+03  0.40200273397E+03 0.  0.
    9000005    1    3    3    0    0 -0.18929202143E+03  0.32301739250E+02  0.90239496105E+03  0.92260096329E+03  0.99999687468E+00 0.  0.
          4    1    3    3  501    0  0.23753480297E+02  0.55771172760E+02 -0.20974697305E+02  0.64145065783E+02  0.00000000000E+00 0.  1.
   -9000007    1    1    2    0  502  0.16553854113E+03 -0.88072912010E+02  0.11868249630E+04  0.12663780397E+04  0.40000000000E+03 0.  1.
<mgrwt>
<rscale>  2 0.44312894E+03</rscale>
<asrwt>0</asrwt>
<pdfrwt beam="1">  1       21 0.33241299E+00 0.44358319E+03</pdfrwt>
<pdfrwt beam="2">  1       21 0.14221451E-01 0.44358319E+03</pdfrwt>
<totfact> 0.76476132E+02</totfact>
</mgrwt>
</event>
<event>
 6    1  0.9399121E-004  0.5521581E+03  0.7818608E-02  0.1001051E+00
         21   -1    0    0  503  502  0.00000000000E+00  0.00000000000E+00  0.63432536284E+03  0.63432536284E+03  0.00000000000E+00 0. -1.
         21   -1    0    0  501  503 -0.00000000000E+00 -0.00000000000E+00 -0.66171164535E+03  0.66171164535E+03  0.00000000000E+00 0.  1.
    9000007    2    1    2  501    0  0.27608622893E+03  0.26202085721E+03 -0.35345636023E+03  0.65478804639E+03  0.39866960217E+03 0.  0.
    9000005    1    3    3    0    0  0.15160161261E+03  0.73725225854E+02  0.63912962208E+02  0.18028955767E+03  0.99999687468E+00 0.  0.
          4    1    3    3  501    0  0.12448461632E+03  0.18829563136E+03 -0.41736932244E+03  0.47449848872E+03  0.00000000000E+00 0.  1.
   -9000007    1    1    2    0  502 -0.27608622893E+03 -0.26202085721E+03  0.32607007772E+03  0.64124896179E+03  0.40000000000E+03 0. -1.
<mgrwt>
<rscale>  2 0.55191716E+03</rscale>
<asrwt>0</asrwt>
<pdfrwt beam="1">  1       21 0.97588517E-01 0.55215807E+03</pdfrwt>
<pdfrwt beam="2">  1       21 0.10180179E+00 0.55215807E+03</pdfrwt>
<totfact> 0.55158605E+02</totfact>
</mgrwt>
</event>
<event>
 6    1  0.9399121E-004  0.4253944E+03  0.7818608E-02  0.1035337E+00
         21   -1    0    0  503  502  0.00000000000E+00  0.00000000000E+00  0.13806933464E+04  0.13806933464E+04  0.00000000000E+00 0. -1.
         21   -1    0    0  501  503 -0.00000000000E+00 -0.00000000000E+00 -0.17101277534E+03  0.17101277534E+03  0.00000000000E+00 0. -1.
    9000007    2    1    2  501    0  0.68977364678E+01 -0.14415294404E+03  0.22971625187E+03  0.48345628349E+03  0.40016593012E+03 0.  0.
    9000005    1    3    3    0    0  0.85663005775E+02  0.12025411004E+03  0.10188998449E+03  0.17939278267E+03  0.99999687468E+00 0.  0.
          4    1    3    3  501    0 -0.78765269308E+02 -0.26440705408E+03  0.12782626738E+03  0.30406350082E+03  0.00000000000E+00 0.  1.
   -9000007    1    1    2    0  502 -0.68977364678E+01  0.14415294404E+03  0.97996431914E+03  0.10682498382E+04  0.40000000000E+03 0. -1.
<mgrwt>
<rscale>  2 0.42535540E+03</rscale>
<asrwt>0</asrwt>
<pdfrwt beam="1">  1       21 0.21241435E+00 0.42539443E+03</pdfrwt>
<pdfrwt beam="2">  1       21 0.26309659E-01 0.42539443E+03</pdfrwt>
<totfact> 0.13010800E+03</totfact>
</mgrwt>
</event>
<event>
 6    1  0.9399121E-004  0.4282658E+03  0.7818608E-02  0.1034418E+00
         21   -1    0    0  503  502  0.00000000000E+00  0.00000000000E+00  0.23854185522E+03  0.23854185522E+03  0.00000000000E+00 0.  1.
         21   -1    0    0  501  503 -0.00000000000E+00 -0.00000000000E+00 -0.91925928902E+03  0.91925928902E+03  0.00000000000E+00 0.  1.
    9000007    2    1    2  501    0  0.12075329949E+03 -0.93969136791E+02 -0.10602284821E+03  0.44108263275E+03  0.39987683924E+03 0.  0.
    9000005    1    3    3    0    0  0.16239455578E+03  0.11996945837E+03 -0.94226945679E+02  0.22281018822E+03  0.99999687468E+00 0.  0.
          4    1    3    3  501    0 -0.41641256292E+02 -0.21393859516E+03 -0.11795902535E+02  0.21827244453E+03  0.00000000000E+00 0.  1.
   -9000007    1    1    2    0  502 -0.12075329949E+03  0.93969136791E+02 -0.57469458558E+03  0.71671851149E+03  0.40000000000E+03 0.  1.
<mgrwt>
<rscale>  2 0.42823700E+03</rscale>
<asrwt>0</asrwt>
<pdfrwt beam="1">  1       21 0.36698747E-01 0.42826576E+03</pdfrwt>
<pdfrwt beam="2">  1       21 0.14142451E+00 0.42826576E+03</pdfrwt>
<totfact> 0.21621504E+03</totfact>
</mgrwt>
</event>
<event>
 6    1  0.9399121E-004  0.5007074E+03  0.7818608E-02  0.1013623E+00
         21   -1    0    0  503  502  0.00000000000E+00  0.00000000000E+00  0.38958655266E+03  0.38958655266E+03  0.00000000000E+00 0. -1.
         21   -1    0    0  501  503 -0.00000000000E+00 -0.00000000000E+00 -0.64673812400E+03  0.64673812400E+03  0.00000000000E+00 0. -1.
    9000007    2    1    2  501    0  0.21655166914E+03 -0.20931626245E+03 -0.16816021753E+03  0.52777046698E+03  0.39944446914E+03 0.  0.
    9000005    1    3    3    0    0  0.27619832335E+03 -0.73439202723E+02 -0.23015522726E+03  0.36694857808E+03  0.99999687468E+00 0.  0.
          4    1    3    3  501    0 -0.59646654213E+02 -0.13587705973E+03  0.61995009739E+02  0.16082188891E+03  0.00000000000E+00 0.  1.
   -9000007    1    1    2    0  502 -0.21655166914E+03  0.20931626245E+03 -0.88991353816E+02  0.50855420969E+03  0.40000000000E+03 0. -1.
<mgrwt>
<rscale>  2 0.50059646E+03</rscale>
<asrwt>0</asrwt>
<pdfrwt beam="1">  1       21 0.59936393E-01 0.50070742E+03</pdfrwt>
<pdfrwt beam="2">  1       21 0.99498173E-01 0.50070742E+03</pdfrwt>
<totfact> 0.18245196E+03</totfact>
</mgrwt>
</event>
<event>
 6    1  0.9399121E-004  0.4712701E+03  0.7818608E-02  0.1021816E+00
         21   -1    0    0  503  502  0.00000000000E+00  0.00000000000E+00  0.91206117860E+03  0.91206117860E+03  0.00000000000E+00 0.  1.
         21   -1    0    0  501  503 -0.00000000000E+00 -0.00000000000E+00 -0.29479746846E+03  0.29479746846E+03  0.00000000000E+00 0.  1.
    9000007    2    1    2  501    0 -0.14051593951E+03 -0.19742261848E+03  0.53399775016E+02  0.47428581323E+03  0.40419682967E+03 0.  0.
    9000005    1    3    3    0    0  0.18400724505E+02 -0.27659898978E+03  0.92960063841E+02  0.29238358585E+03  0.99999687468E+00 0.  0.
          4    1    3    3  501    0 -0.15891666401E+03  0.79176371304E+02 -0.39560288825E+02  0.18190222738E+03  0.00000000000E+00 0.  1.
   -9000007    1    1    2    0  502  0.14051593951E+03  0.19742261848E+03  0.56386393512E+03  0.73257283383E+03  0.40000000000E+03 0.  1.
<mgrwt>
<rscale>  2 0.47036887E+03</rscale>
<asrwt>0</asrwt>
<pdfrwt beam="1">  1       21 0.14031710E+00 0.47127009E+03</pdfrwt>
<pdfrwt beam="2">  1       21 0.45353457E-01 0.47127009E+03</pdfrwt>
<totfact> 0.14013607E+03</totfact>
</mgrwt>
</event>
<event>
 6    1  0.9399121E-004  0.5908542E+03  0.7818608E-02  0.9924694E-01
         21   -1    0    0  503  502  0.00000000000E+00  0.00000000000E+00  0.59449905635E+03  0.59449905635E+03  0.00000000000E+00 0.  1.
         21   -1    0    0  501  503 -0.00000000000E+00 -0.00000000000E+00 -0.63381074987E+03  0.63381074987E+03  0.00000000000E+00 0.  1.
    9000007    2    1    2  501    0  0.41666918737E+03  0.12448073794E+03 -0.18657891932E+03  0.61937934909E+03  0.39963785997E+03 0.  0.
    9000005    1    3    3    0    0  0.30472240865E+03  0.70573147233E+01 -0.29505321336E+03  0.42422040348E+03  0.99999687468E+00 0.  0.
          4    1    3    3  501    0  0.11194677873E+03  0.11742342321E+03  0.10847429403E+03  0.19515894561E+03  0.00000000000E+00 0.  1.
   -9000007    1    1    2    0  502 -0.41666918737E+03 -0.12448073794E+03  0.14726722580E+03  0.60893045713E+03  0.40000000000E+03 0.  1.
<mgrwt>
<rscale>  2 0.59079290E+03</rscale>
<asrwt>0</asrwt>
<pdfrwt beam="1">  1       21 0.91461394E-01 0.59085418E+03</pdfrwt>
<pdfrwt beam="2">  1       21 0.97509346E-01 0.59085418E+03</pdfrwt>
<totfact> 0.70699360E+02</totfact>
</mgrwt>
</event>
<event>
 6    1  0.9399121E-004  0.4174140E+03  0.7818608E-02  0.1038194E+00
         21   -1    0    0  503  502  0.00000000000E+00  0.00000000000E+00  0.21724373743E+03  0.21724373743E+03  0.00000000000E+00 0.  1.
         21   -1    0    0  501  503 -0.00000000000E+00 -0.00000000000E+00 -0.12890360957E+04  0.12890360957E+04  0.00000000000E+00 0.  1.
    9000007    2    1    2  501    0 -0.99392672071E+02  0.38742548493E+02 -0.10033059315E+04  0.10866725418E+04  0.40355239115E+03 0.  0.
    9000005    1    3    3    0    0 -0.63180893927E+02  0.20743360452E+03 -0.35666937702E+03  0.41741414703E+03  0.99999687468E+00 0.  0.
          4    1    3    3  501    0 -0.36211778144E+02 -0.16869105603E+03 -0.64663655453E+03  0.66925839473E+03  0.00000000000E+00 0.  1.
   -9000007    1    1    2    0  502  0.99392672071E+02 -0.38742548493E+02 -0.68486426706E+02  0.41960729137E+03  0.40000000000E+03 0.  1.
<mgrwt>
<rscale>  2 0.41655295E+03</rscale>
<asrwt>0</asrwt>
<pdfrwt beam="1">  1       21 0.33422113E-01 0.41741397E+03</pdfrwt>
<pdfrwt beam="2">  1       21 0.19831325E+00 0.41741397E+03</pdfrwt>
<totfact> 0.10061970E+03</totfact>
</mgrwt>
</event>
<event>
 6    1  0.9399121E-004  0.4255047E+03  0.7818608E-02  0.1035322E+00
         21   -1    0    0  503  502  0.00000000000E+00  0.00000000000E+00  0.14273323069E+03  0.14273323069E+03  0.00000000000E+00 0.  1.
         21   -1    0    0  501  503 -0.00000000000E+00 -0.00000000000E+00 -0.12913399526E+04  0.12913399526E+04  0.00000000000E+00 0.  1.
    9000007    2    1    2  501    0  0.23754962709E+01  0.14389917993E+03 -0.67243760160E+03  0.79575535641E+03  0.40042682508E+03 0.  0.
    9000005    1    3    3    0    0  0.13329326646E+02 -0.71678304860E+02  0.15675894114E+02  0.74580050861E+02  0.99999687468E+00 0.  0.
          4    1    3    3  501    0 -0.10953830375E+02  0.21557748480E+03 -0.68811349572E+03  0.72117530555E+03  0.00000000000E+00 0.  1.
   -9000007    1    1    2    0  502 -0.23754962709E+01 -0.14389917993E+03 -0.47616912027E+03  0.63831782685E+03  0.40000000000E+03 0.  1.
<mgrwt>
<rscale>  2 0.42540426E+03</rscale>
<asrwt>0</asrwt>
<pdfrwt beam="1">  1       21 0.21958959E-01 0.42550471E+03</pdfrwt>
<pdfrwt beam="2">  1       21 0.19866768E+00 0.42550471E+03</pdfrwt>
<totfact> 0.22727511E+03</totfact>
</mgrwt>
</event>
<event>
 6    1  0.9399121E-004  0.5022507E+03  0.7818608E-02  0.1013211E+00
         21   -1    0    0  503  502  0.00000000000E+00  0.00000000000E+00  0.20603427975E+03  0.20603427975E+03  0.00000000000E+00 0.  1.
         21   -1    0    0  501  503 -0.00000000000E+00 -0.00000000000E+00 -0.18066559250E+04  0.18066559250E+04  0.00000000000E+00 0.  1.
    9000007    2    1    2  501    0  0.22855260871E+03 -0.20004879057E+03 -0.13718275074E+04  0.14607820864E+04  0.39964706978E+03 0.  0.
    9000005    1    3    3    0    0 -0.35506400532E+02  0.68170426637E+02 -0.56822313660E+03  0.57339902730E+03  0.99999687468E+00 0.  0.
          4    1    3    3  501    0  0.26405900924E+03 -0.26821921720E+03 -0.80360437080E+03  0.88738305912E+03  0.00000000000E+00 0.  1.
   -9000007    1    1    2    0  502 -0.22855260871E+03  0.20004879057E+03 -0.22879413782E+03  0.55190811831E+03  0.40000000000E+03 0.  1.
<mgrwt>
<rscale>  2 0.50218047E+03</rscale>
<asrwt>0</asrwt>
<pdfrwt beam="1">  1       21 0.31697582E-01 0.50225075E+03</pdfrwt>
<pdfrwt beam="2">  1       21 0.27794706E+00 0.50225075E+03</pdfrwt>
<totfact> 0.33931536E+02</totfact>
</mgrwt>
</event>
<event>
 6    1  0.9399121E-004  0.5224205E+03  0.7818608E-02  0.1008355E+00
         21   -1    0    0  503  502  0.00000000000E+00  0.00000000000E+00  0.31473740933E+03  0.31473740933E+03  0.00000000000E+00 0. -1.
         21   -1    0    0  501  503 -0.00000000000E+00 -0.00000000000E+00 -0.14725047871E+04  0.14725047871E+04  0.00000000000E+00 0. -1.
    9000007    2    1    2  501    0  0.20272491440E+02 -0.33542834599E+03 -0.11538253034E+04  0.12648068520E+04  0.39433538109E+03 0.  0.
    9000005    1    3    3    0    0  0.20376821786E+03 -0.12593838592E+03 -0.52407120943E+03  0.57622356443E+03  0.99999687468E+00 0.  0.
          4    1    3    3  501    0 -0.18349572642E+03 -0.20948996007E+03 -0.62975409402E+03  0.68858328756E+03  0.00000000000E+00 0.  1.
   -9000007    1    1    2    0  502 -0.20272491440E+02  0.33542834599E+03 -0.39420743548E+01  0.52243534447E+03  0.40000000000E+03 0. -1.
<mgrwt>
<rscale>  2 0.52133600E+03</rscale>
<asrwt>0</asrwt>
<pdfrwt beam="1">  1       21 0.48421139E-01 0.52242047E+03</pdfrwt>
<pdfrwt beam="2">  1       21 0.22653920E+00 0.52242047E+03</pdfrwt>
<totfact> 0.29174416E+02</totfact>
</mgrwt>
</event>
<event>
 6    1  0.9399121E-004  0.4273478E+03  0.7818608E-02  0.1035202E+00
         21   -1    0    0  503  502  0.00000000000E+00  0.00000000000E+00  0.63962423556E+03  0.63962423556E+03  0.00000000000E+00 0. -1.
         21   -1    0    0  501  503 -0.00000000000E+00 -0.00000000000E+00 -0.29544278637E+03  0.29544278637E+03  0.00000000000E+00 0.  1.
    9000007    2    1    2  501    0  0.15869268899E+02 -0.14958040695E+03  0.68818670979E+02  0.42668646422E+03  0.39331818854E+03 0.  0.
    9000005    1    3    3    0    0  0.10211812531E+03 -0.24349378932E+03  0.11905000458E+03  0.28963984625E+03  0.99999687468E+00 0.  0.
          4    1    3    3  501    0 -0.86248856413E+02  0.93913382371E+02 -0.50231333598E+02  0.13704661797E+03  0.00000000000E+00 0.  1.
   -9000007    1    1    2    0  502 -0.15869268899E+02  0.14958040695E+03  0.27536277821E+03  0.50838055772E+03  0.40000000000E+03 0. -1.
<mgrwt>
<rscale>  2 0.42577724E+03</rscale>
<asrwt>0</asrwt>
<pdfrwt beam="1">  1       21 0.98403728E-01 0.42734779E+03</pdfrwt>
<pdfrwt beam="2">  1       21 0.45452737E-01 0.42734779E+03</pdfrwt>
<totfact> 0.34803661E+03</totfact>
</mgrwt>
</event>
<event>
 6    1  0.9399121E-004  0.4894596E+03  0.7818608E-02  0.1016593E+00
         21   -1    0    0  503  502  0.00000000000E+00  0.00000000000E+00  0.10203553337E+04  0.10203553337E+04  0.00000000000E+00 0. -1.
         21   -1    0    0  501  503 -0.00000000000E+00 -0.00000000000E+00 -0.29233849170E+03  0.29233849170E+03  0.00000000000E+00 0.  1.
    9000007    2    1    2  501    0 -0.27448679027E+03 -0.65021069888E+02  0.72225119202E+02  0.49438244135E+03  0.39953321878E+03 0.  0.
    9000005    1    3    3    0    0 -0.11236537831E+03 -0.20349972587E+03 -0.64316109541E+02  0.24119634867E+03  0.99999687468E+00 0.  0.
          4    1    3    3  501    0 -0.16212141196E+03  0.13847865598E+03  0.13654122874E+03  0.25318609268E+03  0.00000000000E+00 0.  1.
   -9000007    1    1    2    0  502  0.27448679027E+03  0.65021069888E+02  0.65579172275E+03  0.81831138400E+03  0.40000000000E+03 0. -1.
<mgrwt>
<rscale>  2 0.48936426E+03</rscale>
<asrwt>0</asrwt>
<pdfrwt beam="1">  1       21 0.15697774E+00 0.48945964E+03</pdfrwt>
<pdfrwt beam="2">  1       21 0.44975153E-01 0.48945964E+03</pdfrwt>
<totfact> 0.10441627E+03</totfact>
</mgrwt>
</event>
<event>
 6    1  0.9399121E-004  0.4569282E+03  0.7818608E-02  0.1025677E+00
         21   -1    0    0  503  502  0.00000000000E+00  0.00000000000E+00  0.60604041393E+03  0.60604041393E+03  0.00000000000E+00 0.  1.
         21   -1    0    0  501  503 -0.00000000000E+00 -0.00000000000E+00 -0.34488622040E+03  0.34488622040E+03  0.00000000000E+00 0.  1.
    9000007    2    1    2  501    0 -0.21715466536E+03 -0.40229362162E+02  0.14655600309E+03  0.47985626218E+03  0.40001102490E+03 0.  0.
    9000005    1    3    3    0    0 -0.15177497298E+03 -0.51104726831E+02  0.28469003180E+03  0.32664468422E+03  0.99999687468E+00 0.  0.
          4    1    3    3  501    0 -0.65379692385E+02  0.10875364669E+02 -0.13813402871E+03  0.15321157796E+03  0.00000000000E+00 0.  1.
   -9000007    1    1    2    0  502  0.21715466536E+03  0.40229362162E+02  0.11459819043E+03  0.47107037215E+03  0.40000000000E+03 0.  1.
<mgrwt>
<rscale>  2 0.45692578E+03</rscale>
<asrwt>0</asrwt>
<pdfrwt beam="1">  1       21 0.93236987E-01 0.45692819E+03</pdfrwt>
<pdfrwt beam="2">  1       21 0.53059419E-01 0.45692819E+03</pdfrwt>
<totfact> 0.28227997E+03</totfact>
</mgrwt>
</event>
<event>
 6    1  0.9399121E-004  0.5586558E+03  0.7818608E-02  0.9995146E-01
         21   -1    0    0  503  502  0.00000000000E+00  0.00000000000E+00  0.42047481797E+03  0.42047481797E+03  0.00000000000E+00 0. -1.
         21   -1    0    0  501  503 -0.00000000000E+00 -0.00000000000E+00 -0.17817293165E+04  0.17817293165E+04  0.00000000000E+00 0. -1.
    9000007    2    1    2  501    0  0.38974867495E+03  0.10135900769E+02 -0.15217278567E+04  0.16210342240E+04  0.40011188372E+03 0.  0.
    9000005    1    3    3    0    0  0.14762358330E+03 -0.72172555889E+02 -0.11944034671E+04  0.12056542798E+04  0.99999687468E+00 0.  0.
          4    1    3    3  501    0  0.24212509166E+03  0.82308456658E+02 -0.32732438963E+03  0.41537994426E+03  0.00000000000E+00 0.  1.
   -9000007    1    1    2    0  502 -0.38974867495E+03 -0.10135900769E+02  0.16047335817E+03  0.58116991044E+03  0.40000000000E+03 0. -1.
<mgrwt>
<rscale>  2 0.55863575E+03</rscale>
<asrwt>0</asrwt>
<pdfrwt beam="1">  1       21 0.64688433E-01 0.55865578E+03</pdfrwt>
<pdfrwt beam="2">  1       21 0.27411221E+00 0.55865578E+03</pdfrwt>
<totfact> 0.77373210E+01</totfact>
</mgrwt>
</event>
<event>
 6    1  0.9399121E-004  0.4399960E+03  0.7818608E-02  0.1030753E+00
         21   -1    0    0  503  502  0.00000000000E+00  0.00000000000E+00  0.65278231012E+03  0.65278231012E+03  0.00000000000E+00 0.  1.
         21   -1    0    0  501  503 -0.00000000000E+00 -0.00000000000E+00 -0.62631694501E+03  0.62631694501E+03  0.00000000000E+00 0.  1.
    9000007    2    1    2  501    0 -0.12376151419E+03  0.13498633202E+03 -0.45085033058E+03  0.62997022668E+03  0.40007279798E+03 0.  0.
    9000005    1    3    3    0    0  0.13526992900E+03  0.30603664854E+02 -0.63743404483E+02  0.15263931211E+03  0.99999687468E+00 0.  0.
          4    1    3    3  501    0 -0.25903144319E+03  0.10438266716E+03 -0.38710692610E+03  0.47733091456E+03  0.00000000000E+00 0.  1.
   -9000007    1    1    2    0  502  0.12376151419E+03 -0.13498633202E+03  0.47731569569E+03  0.64912902845E+03  0.40000000000E+03 0.  1.
<mgrwt>
<rscale>  2 0.43997944E+03</rscale>
<asrwt>0</asrwt>
<pdfrwt beam="1">  1       21 0.10042805E+00 0.43999598E+03</pdfrwt>
<pdfrwt beam="2">  1       21 0.96356453E-01 0.43999598E+03</pdfrwt>
<totfact> 0.61501638E+02</totfact>
</mgrwt>
</event>
<event>
 6    1  0.9399121E-004  0.4886894E+03  0.7818608E-02  0.1016819E+00
         21   -1    0    0  503  502  0.00000000000E+00  0.00000000000E+00  0.73096956923E+03  0.73096956923E+03  0.00000000000E+00 0.  1.
         21   -1    0    0  501  503 -0.00000000000E+00 -0.00000000000E+00 -0.81663332004E+03  0.81663332004E+03  0.00000000000E+00 0.  1.
    9000007    2    1    2  501    0  0.28039554123E+03  0.13989704607E+02 -0.64244238658E+03  0.80677914462E+03  0.39917790112E+03 0.  0.
    9000005    1    3    3    0    0  0.47387027693E+02 -0.14360868424E+03 -0.42539623779E+03  0.45147751185E+03  0.99999687468E+00 0.  0.
          4    1    3    3  501    0  0.23300851353E+03  0.15759838885E+03 -0.21704614879E+03  0.35530163277E+03  0.00000000000E+00 0.  1.
   -9000007    1    1    2    0  502 -0.28039554123E+03 -0.13989704607E+02  0.55677863578E+03  0.74082374465E+03  0.40000000000E+03 0.  1.
<mgrwt>
<rscale>  2 0.48852119E+03</rscale>
<asrwt>0</asrwt>
<pdfrwt beam="1">  1       21 0.11245686E+00 0.48868944E+03</pdfrwt>
<pdfrwt beam="2">  1       21 0.12563590E+00 0.48868944E+03</pdfrwt>
<totfact> 0.23510613E+02</totfact>
</mgrwt>
</event>
<event>
 6    1  0.9399121E-004  0.5491604E+03  0.7818608E-02  0.1001842E+00
         21   -1    0    0  503  502  0.00000000000E+00  0.00000000000E+00  0.10039574912E+04  0.10039574912E+04  0.00000000000E+00 0.  1.
         21   -1    0    0  501  503 -0.00000000000E+00 -0.00000000000E+00 -0.52620929594E+03  0.52620929594E+03  0.00000000000E+00 0.  1.
    9000007    2    1    2  501    0 -0.32696992459E+03  0.17825542202E+03 -0.26359690991E+03  0.60914730199E+03  0.40359977396E+03 0.  0.
    9000005    1    3    3    0    0 -0.40648593251E+01  0.14864666970E+02  0.97029316946E+02  0.98250545781E+02  0.99999687468E+00 0.  0.
          4    1    3    3  501    0 -0.32290506527E+03  0.16339075505E+03 -0.36062622686E+03  0.51089675621E+03  0.00000000000E+00 0.  1.
   -9000007    1    1    2    0  502  0.32696992459E+03 -0.17825542202E+03  0.74134510518E+03  0.92101948516E+03  0.40000000000E+03 0.  1.
<mgrwt>
<rscale>  2 0.54849913E+03</rscale>
<asrwt>0</asrwt>
<pdfrwt beam="1">  1       21 0.15445500E+00 0.54916036E+03</pdfrwt>
<pdfrwt beam="2">  1       21 0.80955276E-01 0.54916036E+03</pdfrwt>
<totfact> 0.29201821E+02</totfact>
</mgrwt>
</event>
<event>
 6    1  0.9399121E-004  0.5016112E+03  0.7818608E-02  0.1013409E+00
         21   -1    0    0  503  502  0.00000000000E+00  0.00000000000E+00  0.41729133432E+03  0.41729133432E+03  0.00000000000E+00 0. -1.
         21   -1    0    0  501  503 -0.00000000000E+00 -0.00000000000E+00 -0.60891564082E+03  0.60891564082E+03  0.00000000000E+00 0. -1.
    9000007    2    1    2  501    0  0.12126531633E+03 -0.27732383137E+03 -0.15023729675E+03  0.52289129988E+03  0.39903669226E+03 0.  0.
    9000005    1    3    3    0    0  0.20918126385E+03 -0.27783021942E+03  0.12074900964E+01  0.34777706939E+03  0.99999687468E+00 0.  0.
          4    1    3    3  501    0 -0.87915947524E+02  0.50638805158E+00 -0.15144478684E+03  0.17511423049E+03  0.00000000000E+00 0.  1.
   -9000007    1    1    2    0  502 -0.12126531633E+03  0.27732383137E+03 -0.41387009751E+02  0.50331567526E+03  0.40000000000E+03 0. -1.
<mgrwt>
<rscale>  2 0.50141912E+03</rscale>
<asrwt>0</asrwt>
<pdfrwt beam="1">  1       21 0.64198666E-01 0.50161119E+03</pdfrwt>
<pdfrwt beam="2">  1       21 0.93679330E-01 0.50161119E+03</pdfrwt>
<totfact> 0.18122880E+03</totfact>
</mgrwt>
</event>
<event>
 6    1  0.9399121E-004  0.4321624E+03  0.7818608E-02  0.1033227E+00
         21   -1    0    0  503  502  0.00000000000E+00  0.00000000000E+00  0.28261560221E+03  0.28261560221E+03  0.00000000000E+00 0. -1.
         21   -1    0    0  501  503 -0.00000000000E+00 -0.00000000000E+00 -0.67934820778E+03  0.67934820778E+03  0.00000000000E+00 0. -1.
    9000007    2    1    2  501    0 -0.57472800226E+02 -0.15143961933E+03 -0.27986420026E+03  0.51486728212E+03  0.40065854108E+03 0.  0.
    9000005    1    3    3    0    0  0.14063536190E+03 -0.14279585208E+03 -0.23986216821E+03  0.31257610293E+03  0.99999687468E+00 0.  0.
          4    1    3    3  501    0 -0.19810816212E+03 -0.86437672491E+01 -0.40002032044E+02  0.20229117919E+03  0.00000000000E+00 0.  1.
   -9000007    1    1    2    0  502  0.57472800226E+02  0.15143961933E+03 -0.11686840532E+03  0.44709652787E+03  0.40000000000E+03 0. -1.
<mgrwt>
<rscale>  2 0.43200971E+03</rscale>
<asrwt>0</asrwt>
<pdfrwt beam="1">  1       21 0.43479324E-01 0.43216241E+03</pdfrwt>
<pdfrwt beam="2">  1       21 0.10451511E+00 0.43216241E+03</pdfrwt>
<totfact> 0.32910655E+03</totfact>
</mgrwt>
</event>
<event>
 6    1  0.9399121E-004  0.4227890E+03  0.7818608E-02  0.1036172E+00
         21   -1    0    0  503  502  0.00000000000E+00  0.00000000000E+00  0.30288497447E+03  0.30288497447E+03  0.00000000000E+00 0. -1.
         21   -1    0    0  501  503 -0.00000000000E+00 -0.00000000000E+00 -0.62328712170E+03  0.62328712170E+03  0.00000000000E+00 0. -1.
    9000007    2    1    2  501    0  0.12424338595E+03  0.57568385658E+02 -0.26721547440E+03  0.50005079872E+03  0.39987017088E+03 0.  0.
    9000005    1    3    3    0    0  0.42865874658E+02  0.10374292721E+03 -0.35464998002E+03  0.37199151399E+03  0.99999687468E+00 0.  0.
          4    1    3    3  501    0  0.81377511295E+02 -0.46174541550E+02  0.87434505621E+02  0.12805928473E+03  0.00000000000E+00 0.  1.
   -9000007    1    1    2    0  502 -0.12424338595E+03 -0.57568385658E+02 -0.53186672823E+02  0.42612129746E+03  0.40000000000E+03 0. -1.
<mgrwt>
<rscale>  2 0.42275829E+03</rscale>
<asrwt>0</asrwt>
<pdfrwt beam="1">  1       21 0.46597689E-01 0.42278900E+03</pdfrwt>
<pdfrwt beam="2">  1       21 0.95890326E-01 0.42278900E+03</pdfrwt>
<totfact> 0.35213362E+03</totfact>
</mgrwt>
</event>
<event>
 6    1  0.9399121E-004  0.4051424E+03  0.7818608E-02  0.1042038E+00
         21   -1    0    0  503  502  0.00000000000E+00  0.00000000000E+00  0.33301497461E+03  0.33301497461E+03  0.00000000000E+00 0.  1.
         21   -1    0    0  501  503 -0.00000000000E+00 -0.00000000000E+00 -0.62315041557E+03  0.62315041557E+03  0.00000000000E+00 0.  1.
    9000007    2    1    2  501    0  0.60707628930E+02 -0.14908480800E+02 -0.36398098594E+03  0.54463064861E+03  0.40029077714E+03 0.  0.
    9000005    1    3    3    0    0 -0.21252820646E+02  0.40259042515E+02  0.78773225050E+02  0.90987328064E+02  0.99999687468E+00 0.  0.
          4    1    3    3  501    0  0.81960449577E+02 -0.55167523315E+02 -0.44275421099E+03  0.45364332054E+03  0.00000000000E+00 0.  1.
   -9000007    1    1    2    0  502 -0.60707628930E+02  0.14908480800E+02  0.73845544982E+02  0.41153474158E+03  0.40000000000E+03 0.  1.
<mgrwt>
<rscale>  2 0.40507058E+03</rscale>
<asrwt>0</asrwt>
<pdfrwt beam="1">  1       21 0.51233074E-01 0.40514243E+03</pdfrwt>
<pdfrwt beam="2">  1       21 0.95869294E-01 0.40514243E+03</pdfrwt>
<totfact> 0.29022417E+03</totfact>
</mgrwt>
</event>
<event>
 6    1  0.9399121E-004  0.7505396E+03  0.7818608E-02  0.9635333E-01
         21   -1    0    0  503  502  0.00000000000E+00  0.00000000000E+00  0.45850261626E+03  0.45850261626E+03  0.00000000000E+00 0.  1.
         21   -1    0    0  501  503 -0.00000000000E+00 -0.00000000000E+00 -0.17269459911E+04  0.17269459911E+04  0.00000000000E+00 0. -1.
    9000007    2    1    2  501    0  0.25293191201E+03  0.58252481207E+03 -0.12226250404E+04  0.14335117559E+04  0.39602304987E+03 0.  0.
    9000005    1    3    3    0    0  0.16929208834E+03  0.56265511109E+03 -0.74808679616E+03  0.95124940988E+03  0.99999687468E+00 0.  0.
          4    1    3    3  501    0  0.83639823670E+02  0.19869700985E+02 -0.47453824426E+03  0.48226234602E+03  0.00000000000E+00 0.  1.
   -9000007    1    1    2    0  502 -0.25293191201E+03 -0.58252481207E+03 -0.45818334395E+02  0.75193685145E+03  0.40000000000E+03 0.  1.
<mgrwt>
<rscale>  2 0.75001107E+03</rscale>
<asrwt>0</asrwt>
<pdfrwt beam="1">  1       21 0.70538862E-01 0.75053961E+03</pdfrwt>
<pdfrwt beam="2">  1       21 0.26568401E+00 0.75053961E+03</pdfrwt>
<totfact> 0.66107529E+01</totfact>
</mgrwt>
</event>
<event>
 6    1  0.9399121E-004  0.4616181E+03  0.7818608E-02  0.1024315E+00
         21   -1    0    0  503  502  0.00000000000E+00  0.00000000000E+00  0.82071185726E+03  0.82071185726E+03  0.00000000000E+00 0. -1.
         21   -1    0    0  501  503 -0.00000000000E+00 -0.00000000000E+00 -0.26024926899E+03  0.26024926899E+03  0.00000000000E+00 0.  1.
    9000007    2    1    2  501    0  0.17408817846E+03 -0.15094567316E+03  0.25377539431E+03  0.52675148624E+03  0.39996735789E+03 0.  0.
    9000005    1    3    3    0    0  0.89039567607E+02 -0.19006198150E+03  0.33994403588E+03  0.39951789564E+03  0.99999687468E+00 0.  0.
          4    1    3    3  501    0  0.85048610857E+02  0.39116308340E+02 -0.86168641574E+02  0.12723359060E+03  0.00000000000E+00 0.  1.
   -9000007    1    1    2    0  502 -0.17408817846E+03  0.15094567316E+03  0.30668719397E+03  0.55420964000E+03  0.40000000000E+03 0. -1.
<mgrwt>
<rscale>  2 0.46161105E+03</rscale>
<asrwt>0</asrwt>
<pdfrwt beam="1">  1       21 0.12626336E+00 0.46161812E+03</pdfrwt>
<pdfrwt beam="2">  1       21 0.40038350E-01 0.46161812E+03</pdfrwt>
<totfact> 0.24028064E+03</totfact>
</mgrwt>
</event>
<event>
 6    1  0.9399121E-004  0.4647031E+03  0.7818608E-02  0.1023483E+00
         21   -1    0    0  503  502  0.00000000000E+00  0.00000000000E+00  0.67960226458E+03  0.67960226458E+03  0.00000000000E+00 0.  1.
         21   -1    0    0  501  503 -0.00000000000E+00 -0.00000000000E+00 -0.34765294442E+03  0.34765294442E+03  0.00000000000E+00 0. -1.
    9000007    2    1    2  501    0 -0.18741454183E+03 -0.14174182430E+03  0.14131304540E+02  0.46491790249E+03  0.40091645893E+03 0.  0.
    9000005    1    3    3    0    0 -0.23240705176E+03 -0.11854628581E+03 -0.14461493371E+03  0.29829639393E+03  0.99999687468E+00 0.  0.
          4    1    3    3  501    0  0.44992509926E+02 -0.23195538489E+02  0.15874623825E+03  0.16662150856E+03  0.00000000000E+00 0.  1.
   -9000007    1    1    2    0  502  0.18741454183E+03  0.14174182430E+03  0.31781801563E+03  0.56233730652E+03  0.40000000000E+03 0.  1.
<mgrwt>
<rscale>  2 0.46450536E+03</rscale>
<asrwt>0</asrwt>
<pdfrwt beam="1">  1       21 0.10455419E+00 0.46470309E+03</pdfrwt>
<pdfrwt beam="2">  1       21 0.53485069E-01 0.46470309E+03</pdfrwt>
<totfact> 0.20961104E+03</totfact>
</mgrwt>
</event>
<event>
 6    1  0.9399121E-004  0.4612896E+03  0.7818608E-02  0.1024408E+00
         21   -1    0    0  503  502  0.00000000000E+00  0.00000000000E+00  0.22143547257E+04  0.22143547257E+04  0.00000000000E+00 0. -1.
         21   -1    0    0  501  503 -0.00000000000E+00 -0.00000000000E+00 -0.20331934349E+03  0.20331934349E+03  0.00000000000E+00 0. -1.
    9000007    2    1    2  501    0 -0.70507214129E+02  0.21865520807E+03  0.12765489761E+03  0.47862703081E+03  0.40000836801E+03 0.  0.
    9000005    1    3    3    0    0 -0.71455857832E+02  0.33500435297E+03  0.73737109062E+02  0.35038838076E+03  0.99999687468E+00 0.  0.
          4    1    3    3  501    0  0.94864370252E+00 -0.11634914490E+03  0.53917788552E+02  0.12823865005E+03  0.00000000000E+00 0.  1.
   -9000007    1    1    2    0  502  0.70507214129E+02 -0.21865520807E+03  0.18833804846E+04  0.19390470384E+04  0.40000000000E+03 0. -1.
<mgrwt>
<rscale>  2 0.46128775E+03</rscale>
<asrwt>0</asrwt>
<pdfrwt beam="1">  1       21 0.34066994E+00 0.46128956E+03</pdfrwt>
<pdfrwt beam="2">  1       21 0.31279900E-01 0.46128956E+03</pdfrwt>
<totfact> 0.14883588E+02</totfact>
</mgrwt>
</event>
<event>
 6    1  0.9399121E-004  0.4120539E+03  0.7818608E-02  0.1039702E+00
         21   -1    0    0  503  502  0.00000000000E+00  0.00000000000E+00  0.17329837565E+04  0.17329837565E+04  0.00000000000E+00 0. -1.
         21   -1    0    0  501  503 -0.00000000000E+00 -0.00000000000E+00 -0.21302724326E+03  0.21302724326E+03  0.00000000000E+00 0.  1.
    9000007    2    1    2  501    0  0.14803771162E+02  0.97822596055E+02  0.44667230352E+02  0.41425812148E+03  0.39978271324E+03 0.  0.
    9000005    1    3    3    0    0  0.93828170684E+02 -0.84829318507E+01  0.19337783687E+03  0.21510851572E+03  0.99999687468E+00 0.  0.
          4    1    3    3  501    0 -0.79024399522E+02  0.10630552791E+03 -0.14871060652E+03  0.19914960576E+03  0.00000000000E+00 0.  1.
   -9000007    1    1    2    0  502 -0.14803771162E+02 -0.97822596055E+02  0.14752892829E+04  0.15317528783E+04  0.40000000000E+03 0. -1.
<mgrwt>
<rscale>  2 0.41200115E+03</rscale>
<asrwt>0</asrwt>
<pdfrwt beam="1">  1       21 0.26661288E+00 0.41205389E+03</pdfrwt>
<pdfrwt beam="2">  1       21 0.32773423E-01 0.41205389E+03</pdfrwt>
<totfact> 0.39072049E+02</totfact>
</mgrwt>
</event>
<event>
 6    1  0.9399121E-004  0.4220346E+03  0.7818608E-02  0.1036563E+00
         21   -1    0    0  503  502  0.00000000000E+00  0.00000000000E+00  0.57974685956E+03  0.57974685956E+03  0.00000000000E+00 0.  1.
         21   -1    0    0  501  503 -0.00000000000E+00 -0.00000000000E+00 -0.30647763141E+03  0.30647763141E+03  0.00000000000E+00 0.  1.
    9000007    2    1    2  501    0 -0.17801862747E+02 -0.13340283577E+03  0.11573164603E+03  0.43574550956E+03  0.39795365597E+03 0.  0.
    9000005    1    3    3    0    0  0.10006688196E+02  0.67602099790E+02  0.20349087238E+03  0.21466185698E+03  0.99999687468E+00 0.  0.
          4    1    3    3  501    0 -0.27808550942E+02 -0.20100493556E+03 -0.87759226359E+02  0.22108365258E+03  0.00000000000E+00 0.  1.
   -9000007    1    1    2    0  502  0.17801862747E+02  0.13340283577E+03  0.15753758213E+03  0.45047898141E+03  0.40000000000E+03 0.  1.
<mgrwt>
<rscale>  2 0.42154904E+03</rscale>
<asrwt>0</asrwt>
<pdfrwt beam="1">  1       21 0.89191825E-01 0.42203462E+03</pdfrwt>
<pdfrwt beam="2">  1       21 0.47150405E-01 0.42203462E+03</pdfrwt>
<totfact> 0.40819314E+03</totfact>
</mgrwt>
</event>
<event>
 6    1  0.9399121E-004  0.5647871E+03  0.7818608E-02  0.9982418E-01
         21   -1    0    0  503  502  0.00000000000E+00  0.00000000000E+00  0.26078600305E+03  0.26078600305E+03  0.00000000000E+00 0. -1.
         21   -1    0    0  501  503 -0.00000000000E+00 -0.00000000000E+00 -0.13194201615E+04  0.13194201615E+04  0.00000000000E+00 0. -1.
    9000007    2    1    2  501    0  0.39130001384E+03  0.76608214417E+02 -0.74665193844E+03  0.93497951836E+03  0.39713104037E+03 0.  0.
    9000005    1    3    3    0    0  0.63061571908E+02  0.19320390762E+03 -0.18936218416E+03  0.27778327624E+03  0.99999687468E+00 0.  0.
          4    1    3    3  501    0  0.32823844193E+03 -0.11659569320E+03 -0.55728975427E+03  0.65719624212E+03  0.00000000000E+00 0.  1.
   -9000007    1    1    2    0  502 -0.39130001384E+03 -0.76608214417E+02 -0.31198222000E+03  0.64522664618E+03  0.40000000000E+03 0. -1.
<mgrwt>
<rscale>  2 0.56427940E+03</rscale>
<asrwt>0</asrwt>
<pdfrwt beam="1">  1       21 0.40120923E-01 0.56478715E+03</pdfrwt>
<pdfrwt beam="2">  1       21 0.20298772E+00 0.56478715E+03</pdfrwt>
<totfact> 0.60542158E+02</totfact>
</mgrwt>
</event>
<event>
 6    1  0.9399121E-004  0.4956340E+03  0.7818608E-02  0.1014980E+00
         21   -1    0    0  503  502  0.00000000000E+00  0.00000000000E+00  0.65325434994E+03  0.65325434994E+03  0.00000000000E+00 0. -1.
         21   -1    0    0  501  503 -0.00000000000E+00 -0.00000000000E+00 -0.42126943204E+03  0.42126943204E+03  0.00000000000E+00 0.  1.
    9000007    2    1    2  501    0 -0.39214470618E+02 -0.29002638869E+03 -0.61365954170E+02  0.49858297340E+03  0.39895628857E+03 0.  0.
    9000005    1    3    3    0    0  0.74397440758E+02 -0.27569289895E+03  0.98384021231E+02  0.30202974911E+03  0.99999687468E+00 0.  0.
          4    1    3    3  501    0 -0.11361191138E+03 -0.14333489739E+02 -0.15974997540E+03  0.19655322428E+03  0.00000000000E+00 0.  1.
   -9000007    1    1    2    0  502  0.39214470618E+02  0.29002638869E+03  0.29335087207E+03  0.57594080858E+03  0.40000000000E+03 0. -1.
<mgrwt>
<rscale>  2 0.49542340E+03</rscale>
<asrwt>0</asrwt>
<pdfrwt beam="1">  1       21 0.10050067E+00 0.49563402E+03</pdfrwt>
<pdfrwt beam="2">  1       21 0.64810682E-01 0.49563402E+03</pdfrwt>
<totfact> 0.15003909E+03</totfact>
</mgrwt>
</event>
<event>
 6    1  0.9399121E-004  0.4043053E+03  0.7818608E-02  0.1042312E+00
         21   -1    0    0  503  502  0.00000000000E+00  0.00000000000E+00  0.63496343480E+03  0.63496343480E+03  0.00000000000E+00 0.  1.
         21   -1    0    0  501  503 -0.00000000000E+00 -0.00000000000E+00 -0.25994508375E+03  0.25994508375E+03  0.00000000000E+00 0.  1.
    9000007    2    1    2  501    0  0.33286361976E+02 -0.48526250723E+02  0.14271031318E+03  0.42861483066E+03  0.39985204848E+03 0.  0.
    9000005    1    3    3    0    0  0.21608071781E+03 -0.15172721362E+02  0.96528746209E+02  0.23714950332E+03  0.99999687468E+00 0.  0.
          4    1    3    3  501    0 -0.18279435584E+03 -0.33353529361E+02  0.46181566975E+02  0.19146532735E+03  0.00000000000E+00 0.  1.
   -9000007    1    1    2    0  502 -0.33286361976E+02  0.48526250723E+02  0.23230803787E+03  0.46629368789E+03  0.40000000000E+03 0.  1.
<mgrwt>
<rscale>  2 0.40426871E+03</rscale>
<asrwt>0</asrwt>
<pdfrwt beam="1">  1       21 0.97686682E-01 0.40430530E+03</pdfrwt>
<pdfrwt beam="2">  1       21 0.39991552E-01 0.40430530E+03</pdfrwt>
<totfact> 0.46599464E+03</totfact>
</mgrwt>
</event>
<event>
 6    1  0.9399121E-004  0.4536065E+03  0.7818608E-02  0.1026695E+00
         21   -1    0    0  503  502  0.00000000000E+00  0.00000000000E+00  0.16874317126E+03  0.16874317126E+03  0.00000000000E+00 0.  1.
         21   -1    0    0  501  503 -0.00000000000E+00 -0.00000000000E+00 -0.14671430116E+04  0.14671430116E+04  0.00000000000E+00 0.  1.
    9000007    2    1    2  501    0  0.10410392675E+03 -0.18546369116E+03 -0.98673756591E+03  0.10860063945E+04  0.40065503448E+03 0.  0.
    9000005    1    3    3    0    0  0.22535390168E+02  0.12680855816E+03 -0.23667414617E+03  0.26945111930E+03  0.99999687468E+00 0.  0.
          4    1    3    3  501    0  0.81568536581E+02 -0.31227224932E+03 -0.75006341974E+03  0.81655527522E+03  0.00000000000E+00 0.  1.
   -9000007    1    1    2    0  502 -0.10410392675E+03  0.18546369116E+03 -0.31166227438E+03  0.54987978830E+03  0.40000000000E+03 0.  1.
<mgrwt>
<rscale>  2 0.45346182E+03</rscale>
<asrwt>0</asrwt>
<pdfrwt beam="1">  1       21 0.25960487E-01 0.45360651E+03</pdfrwt>
<pdfrwt beam="2">  1       21 0.22571432E+00 0.45360651E+03</pdfrwt>
<totfact> 0.10831181E+03</totfact>
</mgrwt>
</event>
<event>
 6    1  0.9399121E-004  0.5434680E+03  0.7818608E-02  0.1003040E+00
         21   -1    0    0  503  502  0.00000000000E+00  0.00000000000E+00  0.17950967308E+03  0.17950967308E+03  0.00000000000E+00 0.  1.
         21   -1    0    0  501  503 -0.00000000000E+00 -0.00000000000E+00 -0.16644096717E+04  0.16644096717E+04  0.00000000000E+00 0.  1.
    9000007    2    1    2  501    0  0.33474456361E+03  0.15265496651E+03 -0.64053165139E+03  0.83977026846E+03  0.39946945527E+03 0.  0.
    9000005    1    3    3    0    0  0.35176637704E+02 -0.40644828979E+02 -0.41376570533E+03  0.41724388176E+03  0.99999687468E+00 0.  0.
          4    1    3    3  501    0  0.29956792591E+03  0.19329979549E+03 -0.22676594606E+03  0.42252638670E+03  0.00000000000E+00 0.  1.
   -9000007    1    1    2    0  502 -0.33474456361E+03 -0.15265496651E+03 -0.84436834722E+03  0.10041490763E+04  0.40000000000E+03 0.  1.
<mgrwt>
<rscale>  2 0.54337038E+03</rscale>
<asrwt>0</asrwt>
<pdfrwt beam="1">  1       21 0.27616873E-01 0.54346800E+03</pdfrwt>
<pdfrwt beam="2">  1       21 0.25606303E+00 0.54346800E+03</pdfrwt>
<totfact> 0.59583585E+02</totfact>
</mgrwt>
</event>
<event>
 6    1  0.9399121E-004  0.5594040E+03  0.7818608E-02  0.9994734E-01
         21   -1    0    0  503  502  0.00000000000E+00  0.00000000000E+00  0.61646431701E+03  0.61646431701E+03  0.00000000000E+00 0.  1.
         21   -1    0    0  501  503 -0.00000000000E+00 -0.00000000000E+00 -0.11127358895E+04  0.11127358895E+04  0.00000000000E+00 0.  1.
    9000007    2    1    2  501    0 -0.38211781903E+03  0.83179637868E+02 -0.88659936307E+03  0.10470794958E+04  0.39671672541E+03 0.  0.
    9000005    1    3    3    0    0 -0.30311028815E+03 -0.12673214958E+03 -0.58891783312E+03  0.67436051092E+03  0.99999687468E+00 0.  0.
          4    1    3    3  501    0 -0.79007530885E+02  0.20991178745E+03 -0.29768152995E+03  0.37271898492E+03  0.00000000000E+00 0.  1.
   -9000007    1    1    2    0  502  0.38211781903E+03 -0.83179637868E+02  0.39032779061E+03  0.68212071065E+03  0.40000000000E+03 0.  1.
<mgrwt>
<rscale>  2 0.55881738E+03</rscale>
<asrwt>0</asrwt>
<pdfrwt beam="1">  1       21 0.94840665E-01 0.55940404E+03</pdfrwt>
<pdfrwt beam="2">  1       21 0.17119014E+00 0.55940404E+03</pdfrwt>
<totfact> 0.14952161E+02</totfact>
</mgrwt>
</event>
<event>
 6    1  0.9399121E-004  0.5629520E+03  0.7818608E-02  0.9985407E-01
         21   -1    0    0  503  502  0.00000000000E+00  0.00000000000E+00  0.48420987096E+03  0.48420987096E+03  0.00000000000E+00 0.  1.
         21   -1    0    0  501  503 -0.00000000000E+00 -0.00000000000E+00 -0.73738383040E+03  0.73738383040E+03  0.00000000000E+00 0. -1.
    9000007    2    1    2  501    0  0.17709917066E+03 -0.35433146691E+03 -0.33138877623E+03  0.65323425326E+03  0.39997695425E+03 0.  0.
    9000005    1    3    3    0    0  0.20105392754E+03 -0.17227103659E+03 -0.38012703881E+03  0.46324675655E+03  0.99999687468E+00 0.  0.
          4    1    3    3  501    0 -0.23954756886E+02 -0.18206043032E+03  0.48738262579E+02  0.18998749671E+03  0.00000000000E+00 0.  1.
   -9000007    1    1    2    0  502 -0.17709917066E+03  0.35433146691E+03  0.78214816791E+02  0.56835944811E+03  0.40000000000E+03 0.  1.
<mgrwt>
<rscale>  2 0.56294786E+03</rscale>
<asrwt>0</asrwt>
<pdfrwt beam="1">  1       21 0.74493827E-01 0.56295196E+03</pdfrwt>
<pdfrwt beam="2">  1       21 0.11344367E+00 0.56295196E+03</pdfrwt>
<totfact> 0.79297438E+02</totfact>
</mgrwt>
</event>
<event>
 6    1  0.9399121E-004  0.4027329E+03  0.7818608E-02  0.1042863E+00
         21   -1    0    0  503  502  0.00000000000E+00  0.00000000000E+00  0.74869295395E+03  0.74869295395E+03  0.00000000000E+00 0. -1.
         21   -1    0    0  501  503 -0.00000000000E+00 -0.00000000000E+00 -0.22186196035E+03  0.22186196035E+03  0.00000000000E+00 0. -1.
    9000007    2    1    2  501    0  0.37960781372E+02 -0.22573484838E+02  0.18788391324E+03  0.44440312402E+03  0.40030387038E+03 0.  0.
    9000005    1    3    3    0    0 -0.10432497206E+01  0.18828596476E+03  0.86755597214E+02  0.20731673000E+03  0.99999687468E+00 0.  0.
          4    1    3    3  501    0  0.39004031093E+02 -0.21085944960E+03  0.10112831602E+03  0.23708639402E+03  0.00000000000E+00 0.  1.
   -9000007    1    1    2    0  502 -0.37960781372E+02  0.22573484838E+02  0.33894708036E+03  0.52615179029E+03  0.40000000000E+03 0. -1.
<mgrwt>
<rscale>  2 0.40265735E+03</rscale>
<asrwt>0</asrwt>
<pdfrwt beam="1">  1       21 0.11518353E+00 0.40273288E+03</pdfrwt>
<pdfrwt beam="2">  1       21 0.34132610E-01 0.40273288E+03</pdfrwt>
<totfact> 0.42935082E+03</totfact>
</mgrwt>
</event>
<event>
 6    1  0.9399121E-004  0.4739391E+03  0.7818608E-02  0.1020814E+00
         21   -1    0    0  503  502  0.00000000000E+00  0.00000000000E+00  0.65969519689E+03  0.65969519689E+03  0.00000000000E+00 0.  1.
         21   -1    0    0  501  503 -0.00000000000E+00 -0.00000000000E+00 -0.38096246770E+03  0.38096246770E+03  0.00000000000E+00 0. -1.
    9000007    2    1    2  501    0 -0.65079285667E+02  0.24572944026E+03 -0.30237807865E+02  0.47490059304E+03  0.39999747126E+03 0.  0.
    9000005    1    3    3    0    0  0.74247841790E+02  0.44402220712E+02 -0.17160618190E+03  0.19218215545E+03  0.99999687468E+00 0.  0.
          4    1    3    3  501    0 -0.13932712746E+03  0.20132721955E+03  0.14136837404E+03  0.28271843759E+03  0.00000000000E+00 0.  1.
   -9000007    1    1    2    0  502  0.65079285667E+02 -0.24572944026E+03  0.30897053706E+03  0.56575707155E+03  0.40000000000E+03 0.  1.
<mgrwt>
<rscale>  2 0.47393857E+03</rscale>
<asrwt>0</asrwt>
<pdfrwt beam="1">  1       21 0.10149157E+00 0.47393910E+03</pdfrwt>
<pdfrwt beam="2">  1       21 0.58609610E-01 0.47393910E+03</pdfrwt>
<totfact> 0.18429598E+03</totfact>
</mgrwt>
</event>
<event>
 6    1  0.9399121E-004  0.5830746E+03  0.7818608E-02  0.9941254E-01
         21   -1    0    0  503  502  0.00000000000E+00  0.00000000000E+00  0.98015374527E+03  0.98015374527E+03  0.00000000000E+00 0. -1.
         21   -1    0    0  501  503 -0.00000000000E+00 -0.00000000000E+00 -0.35809188893E+03  0.35809188893E+03  0.00000000000E+00 0. -1.
    9000007    2    1    2  501    0 -0.12550165865E+03  0.40498623763E+03  0.19200461721E+03  0.61387435653E+03  0.40026420472E+03 0.  0.
    9000005    1    3    3    0    0 -0.74863000978E+02  0.46857126934E+03  0.89215912669E+02  0.48282914414E+03  0.99999687468E+00 0.  0.
          4    1    3    3  501    0 -0.50638657668E+02 -0.63585031708E+02  0.10278870454E+03  0.13104521239E+03  0.00000000000E+00 0.  1.
   -9000007    1    1    2    0  502  0.12550165865E+03 -0.40498623763E+03  0.43005723913E+03  0.72437127768E+03  0.40000000000E+03 0. -1.
<mgrwt>
<rscale>  2 0.58302923E+03</rscale>
<asrwt>0</asrwt>
<pdfrwt beam="1">  1       21 0.15079288E+00 0.58307457E+03</pdfrwt>
<pdfrwt beam="2">  1       21 0.55091060E-01 0.58307457E+03</pdfrwt>
<totfact> 0.73134865E+02</totfact>
</mgrwt>
</event>
<event>
 6    1  0.9399121E-004  0.4256073E+03  0.7818608E-02  0.1035522E+00
         21   -1    0    0  503  502  0.00000000000E+00  0.00000000000E+00  0.12413038961E+04  0.12413038961E+04  0.00000000000E+00 0. -1.
         21   -1    0    0  501  503 -0.00000000000E+00 -0.00000000000E+00 -0.22040840586E+03  0.22040840586E+03  0.00000000000E+00 0. -1.
    9000007    2    1    2  501    0 -0.14470321236E+03  0.14233474906E+02  0.81084775984E+02  0.43002155851E+03  0.39648731179E+03 0.  0.
    9000005    1    3    3    0    0 -0.17712056257E+03  0.17954290245E+03  0.67121283608E+02  0.26098585060E+03  0.99999687468E+00 0.  0.
          4    1    3    3  501    0  0.32417350208E+02 -0.16530942755E+03  0.13963492376E+02  0.16903570791E+03  0.00000000000E+00 0.  1.
   -9000007    1    1    2    0  502  0.14470321236E+03 -0.14233474906E+02  0.93981071423E+03  0.10316907434E+04  0.40000000000E+03 0. -1.
<mgrwt>
<rscale>  2 0.42478003E+03</rscale>
<asrwt>0</asrwt>
<pdfrwt beam="1">  1       21 0.19096983E+00 0.42560734E+03</pdfrwt>
<pdfrwt beam="2">  1       21 0.33908986E-01 0.42560734E+03</pdfrwt>
<totfact> 0.10911356E+03</totfact>
</mgrwt>
</event>
<event>
 6    1  0.9399121E-004  0.4558907E+03  0.7818608E-02  0.1025987E+00
         21   -1    0    0  503  502  0.00000000000E+00  0.00000000000E+00  0.29815516674E+04  0.29815516674E+04  0.00000000000E+00 0.  1.
         21   -1    0    0  501  503 -0.00000000000E+00 -0.00000000000E+00 -0.22600360082E+03  0.22600360082E+03  0.00000000000E+00 0.  1.
    9000007    2    1    2  501    0  0.19809707661E+03  0.92703390856E+02  0.43951862783E+02  0.45790250053E+03  0.39988318709E+03 0.  0.
    9000005    1    3    3    0    0  0.20953112962E+02 -0.12755065045E+03  0.10758392811E+03  0.16817699888E+03  0.99999687468E+00 0.  0.
          4    1    3    3  501    0  0.17714396365E+03  0.22025404130E+03 -0.63632065330E+02  0.28972550165E+03  0.00000000000E+00 0.  1.
   -9000007    1    1    2    0  502 -0.19809707661E+03 -0.92703390856E+02  0.27115962037E+04  0.27496527676E+04  0.40000000000E+03 0.  1.
<mgrwt>
<rscale>  2 0.45586512E+03</rscale>
<asrwt>0</asrwt>
<pdfrwt beam="1">  1       21 0.45870023E+00 0.45589074E+03</pdfrwt>
<pdfrwt beam="2">  1       21 0.34769787E-01 0.45589074E+03</pdfrwt>
<totfact> 0.21016850E+01</totfact>
</mgrwt>
</event>
<event>
 6    1  0.9399121E-004  0.7680919E+03  0.7818608E-02  0.9607403E-01
         21   -1    0    0  503  502  0.00000000000E+00  0.00000000000E+00  0.13735567131E+04  0.13735567131E+04  0.00000000000E+00 0. -1.
         21   -1    0    0  501  503 -0.00000000000E+00 -0.00000000000E+00 -0.92411958509E+03  0.92411958509E+03  0.00000000000E+00 0. -1.
    9000007    2    1    2  501    0 -0.32450627186E+03  0.56979014722E+03 -0.61577607005E+03  0.98441916813E+03  0.39991973918E+03 0.  0.
    9000005    1    3    3    0    0 -0.30549110386E+03  0.31151118308E+03 -0.16877262177E+03  0.46781324220E+03  0.99999687468E+00 0.  0.
          4    1    3    3  501    0 -0.19015167994E+02  0.25827896414E+03 -0.44700344828E+03  0.51660592593E+03  0.00000000000E+00 0.  1.
   -9000007    1    1    2    0  502  0.32450627186E+03 -0.56979014722E+03  0.10652131981E+04  0.13132571301E+04  0.40000000000E+03 0. -1.
<mgrwt>
<rscale>  2 0.76808143E+03</rscale>
<asrwt>0</asrwt>
<pdfrwt beam="1">  1       21 0.21131642E+00 0.76809188E+03</pdfrwt>
<pdfrwt beam="2">  1       21 0.14217224E+00 0.76809188E+03</pdfrwt>
<totfact> 0.25834697E+01</totfact>
</mgrwt>
</event>
<event>
 6    1  0.9399121E-004  0.4179668E+03  0.7818608E-02  0.1037858E+00
         21   -1    0    0  503  502  0.00000000000E+00  0.00000000000E+00  0.15060958812E+04  0.15060958812E+04  0.00000000000E+00 0. -1.
         21   -1    0    0  501  503 -0.00000000000E+00 -0.00000000000E+00 -0.24793310825E+03  0.24793310825E+03  0.00000000000E+00 0. -1.
    9000007    2    1    2  501    0 -0.45239069517E+02  0.10652555316E+03 -0.11194321987E+02  0.41811667894E+03  0.40162417442E+03 0.  0.
    9000005    1    3    3    0    0 -0.19385763425E+03  0.43679306190E+02 -0.11175260655E+03  0.22798751985E+03  0.99999687468E+00 0.  0.
          4    1    3    3  501    0  0.14861856473E+03  0.62846246972E+02  0.10055828457E+03  0.19012915909E+03  0.00000000000E+00 0.  1.
   -9000007    1    1    2    0  502  0.45239069517E+02 -0.10652555316E+03  0.12693570950E+04  0.13359123105E+04  0.40000000000E+03 0. -1.
<mgrwt>
<rscale>  2 0.41757614E+03</rscale>
<asrwt>0</asrwt>
<pdfrwt beam="1">  1       21 0.23170705E+00 0.41796680E+03</pdfrwt>
<pdfrwt beam="2">  1       21 0.38143556E-01 0.41796680E+03</pdfrwt>
<totfact> 0.46893229E+02</totfact>
</mgrwt>
</event>
<event>
 6    1  0.9399121E-004  0.4287967E+03  0.7818608E-02  0.1034444E+00
         21   -1    0    0  503  502  0.00000000000E+00  0.00000000000E+00  0.32906325843E+03  0.32906325843E+03  0.00000000000E+00 0.  1.
         21   -1    0    0  501  503 -0.00000000000E+00 -0.00000000000E+00 -0.57841604617E+03  0.57841604617E+03  0.00000000000E+00 0.  1.
    9000007    2    1    2  501    0 -0.97460705093E+02 -0.11986665718E+03 -0.21476491006E+03  0.47728989768E+03  0.39725945589E+03 0.  0.
    9000005    1    3    3    0    0  0.14948502075E+03  0.35226817884E+01 -0.88185595551E+02  0.17359688929E+03  0.99999687468E+00 0.  0.
          4    1    3    3  501    0 -0.24694572584E+03 -0.12338933896E+03 -0.12657931451E+03  0.30369300839E+03  0.00000000000E+00 0.  1.
   -9000007    1    1    2    0  502  0.97460705093E+02  0.11986665718E+03 -0.34587877683E+02  0.43018940692E+03  0.40000000000E+03 0.  1.
<mgrwt>
<rscale>  2 0.42815642E+03</rscale>
<asrwt>0</asrwt>
<pdfrwt beam="1">  1       21 0.50625117E-01 0.42879669E+03</pdfrwt>
<pdfrwt beam="2">  1       21 0.88987084E-01 0.42879669E+03</pdfrwt>
<totfact> 0.35218418E+03</totfact>
</mgrwt>
</event>
<event>
 6    1  0.9399121E-004  0.4114715E+03  0.7818608E-02  0.1039958E+00
         21   -1    0    0  503  502  0.00000000000E+00  0.00000000000E+00  0.72936788373E+03  0.72936788373E+03  0.00000000000E+00 0.  1.
         21   -1    0    0  501  503 -0.00000000000E+00 -0.00000000000E+00 -0.23505671345E+03  0.23505671345E+03  0.00000000000E+00 0.  1.
    9000007    2    1    2  501    0 -0.38248134111E+02 -0.84043169602E+02  0.30596466427E+03  0.51276036299E+03  0.40097710652E+03 0.  0.
    9000005    1    3    3    0    0  0.13669820057E+03  0.71365712501E+02  0.41630522093E+02  0.15972965700E+03  0.99999687468E+00 0.  0.
          4    1    3    3  501    0 -0.17494633469E+03 -0.15540888210E+03  0.26433414217E+03  0.35303070599E+03  0.00000000000E+00 0.  1.
   -9000007    1    1    2    0  502  0.38248134111E+02  0.84043169602E+02  0.18834650602E+03  0.45166423419E+03  0.40000000000E+03 0.  1.
<mgrwt>
<rscale>  2 0.41123328E+03</rscale>
<asrwt>0</asrwt>
<pdfrwt beam="1">  1       21 0.11221044E+00 0.41147152E+03</pdfrwt>
<pdfrwt beam="2">  1       21 0.36162572E-01 0.41147152E+03</pdfrwt>
<totfact> 0.40636052E+03</totfact>
</mgrwt>
</event>
<event>
 6    1  0.9399121E-004  0.7513868E+03  0.7818608E-02  0.9633178E-01
         21   -1    0    0  503  502  0.00000000000E+00  0.00000000000E+00  0.96534655378E+03  0.96534655378E+03  0.00000000000E+00 0.  1.
         21   -1    0    0  501  503 -0.00000000000E+00 -0.00000000000E+00 -0.58712570053E+03  0.58712570053E+03  0.00000000000E+00 0.  1.
    9000007    2    1    2  501    0 -0.23305231207E+03 -0.59183408320E+03  0.23745256994E+03  0.78801383701E+03  0.40000140268E+03 0.  0.
    9000005    1    3    3    0    0 -0.32469130919E+03 -0.39005977294E+03  0.74526349808E+02  0.51295833119E+03  0.99999687468E+00 0.  0.
          4    1    3    3  501    0  0.91638997118E+02 -0.20177431026E+03  0.16292622013E+03  0.27505550582E+03  0.00000000000E+00 0.  1.
   -9000007    1    1    2    0  502  0.23305231207E+03  0.59183408320E+03  0.14076828332E+03  0.76445841730E+03  0.40000000000E+03 0.  1.
<mgrwt>
<rscale>  2 0.75138659E+03</rscale>
<asrwt>0</asrwt>
<pdfrwt beam="1">  1       21 0.14851485E+00 0.75138677E+03</pdfrwt>
<pdfrwt beam="2">  1       21 0.90327031E-01 0.75138677E+03</pdfrwt>
<totfact> 0.23464509E+02</totfact>
</mgrwt>
</event>
<event>
 6    1  0.9399121E-004  0.4069210E+03  0.7818608E-02  0.1041413E+00
         21   -1    0    0  503  502  0.00000000000E+00  0.00000000000E+00  0.11947294126E+03  0.11947294126E+03  0.00000000000E+00 0.  1.
         21   -1    0    0  501  503 -0.00000000000E+00 -0.00000000000E+00 -0.17262721802E+04  0.17262721802E+04  0.00000000000E+00 0.  1.
    9000007    2    1    2  501    0 -0.34502074677E+02 -0.65980427735E+02 -0.12132990137E+04  0.12797184107E+04  0.40005112690E+03 0.  0.
    9000005    1    3    3    0    0  0.15412889471E+03  0.68613893520E+02 -0.40184317295E+03  0.43582395322E+03  0.99999687468E+00 0.  0.
          4    1    3    3  501    0 -0.18863096939E+03 -0.13459432126E+03 -0.81145584071E+03  0.84389445747E+03  0.00000000000E+00 0.  1.
   -9000007    1    1    2    0  502  0.34502074677E+02  0.65980427735E+02 -0.39350022528E+03  0.56602671076E+03  0.40000000000E+03 0.  1.
<mgrwt>
<rscale>  2 0.40690845E+03</rscale>
<asrwt>0</asrwt>
<pdfrwt beam="1">  1       21 0.18380454E-01 0.40692102E+03</pdfrwt>
<pdfrwt beam="2">  1       21 0.26558032E+00 0.40692102E+03</pdfrwt>
<totfact> 0.12213250E+03</totfact>
</mgrwt>
</event>
<event>
 6    1  0.9399121E-004  0.5010344E+03  0.7818608E-02  0.1013524E+00
         21   -1    0    0  503  502  0.00000000000E+00  0.00000000000E+00  0.11769313345E+04  0.11769313345E+04  0.00000000000E+00 0. -1.
         21   -1    0    0  501  503 -0.00000000000E+00 -0.00000000000E+00 -0.22016085603E+03  0.22016085603E+03  0.00000000000E+00 0. -1.
    9000007    2    1    2  501    0 -0.15490030198E+03 -0.25849911386E+03  0.35430610938E+03  0.61365156644E+03  0.40027431897E+03 0.  0.
    9000005    1    3    3    0    0 -0.12908879000E+03 -0.10692252243E+03 -0.55002204238E+02  0.17641594024E+03  0.99999687468E+00 0.  0.
          4    1    3    3  501    0 -0.25811511977E+02 -0.15157659143E+03  0.40930831361E+03  0.43723562619E+03  0.00000000000E+00 0.  1.
   -9000007    1    1    2    0  502  0.15490030198E+03  0.25849911386E+03  0.60246436906E+03  0.78344062404E+03  0.40000000000E+03 0. -1.
<mgrwt>
<rscale>  2 0.50097957E+03</rscale>
<asrwt>0</asrwt>
<pdfrwt beam="1">  1       21 0.18106636E+00 0.50103436E+03</pdfrwt>
<pdfrwt beam="2">  1       21 0.33870902E-01 0.50103436E+03</pdfrwt>
<totfact> 0.12397126E+03</totfact>
</mgrwt>
</event>
<event>
 6    1  0.9399121E-004  0.4320609E+03  0.7818608E-02  0.1033215E+00
         21   -1    0    0  503  502  0.00000000000E+00  0.00000000000E+00  0.26255682372E+03  0.26255682372E+03  0.00000000000E+00 0.  1.
         21   -1    0    0  501  503 -0.00000000000E+00 -0.00000000000E+00 -0.81288200958E+03  0.81288200958E+03  0.00000000000E+00 0.  1.
    9000007    2    1    2  501    0  0.15515896900E+03  0.51012531738E+02 -0.46559822973E+03  0.63514888207E+03  0.39994475470E+03 0.  0.
    9000005    1    3    3    0    0  0.24950084690E+03  0.88169569794E+02 -0.46351300336E+03  0.53373200196E+03  0.99999687468E+00 0.  0.
          4    1    3    3  501    0 -0.94341877898E+02 -0.37157038056E+02 -0.20852263757E+01  0.10141688011E+03  0.00000000000E+00 0.  1.
   -9000007    1    1    2    0  502 -0.15515896900E+03 -0.51012531738E+02 -0.84726956127E+02  0.44028995123E+03  0.40000000000E+03 0. -1.
<mgrwt>
<rscale>  2 0.43204807E+03</rscale>
<asrwt>0</asrwt>
<pdfrwt beam="1">  1       21 0.40393358E-01 0.43206086E+03</pdfrwt>
<pdfrwt beam="2">  1       21 0.12505877E+00 0.43206086E+03</pdfrwt>
<totfact> 0.24456587E+03</totfact>
</mgrwt>
</event>
<event>
 6    1  0.9399121E-004  0.9405660E+03  0.7818608E-02  0.9376274E-01
         21   -1    0    0  503  502  0.00000000000E+00  0.00000000000E+00  0.88107764042E+03  0.88107764042E+03  0.00000000000E+00 0.  1.
         21   -1    0    0  501  503 -0.00000000000E+00 -0.00000000000E+00 -0.15072747291E+04  0.15072747291E+04  0.00000000000E+00 0. -1.
    9000007    2    1    2  501    0 -0.13515864229E+03 -0.84036772215E+03 -0.10031707626E+04  0.13751421653E+04  0.40022322385E+03 0.  0.
    9000005    1    3    3    0    0  0.61406810758E+02 -0.50414362806E+03 -0.76623693317E+03  0.91926689915E+03  0.99999687468E+00 0.  0.
          4    1    3    3  501    0 -0.19656545305E+03 -0.33622409408E+03 -0.23693382939E+03  0.45587526615E+03  0.00000000000E+00 0.  1.
   -9000007    1    1    2    0  502  0.13515864229E+03  0.84036772215E+03  0.37697367393E+03  0.10132102042E+04  0.40000000000E+03 0.  1.
<mgrwt>
<rscale>  2 0.94054226E+03</rscale>
<asrwt>0</asrwt>
<pdfrwt beam="1">  1       21 0.13555041E+00 0.94056600E+03</pdfrwt>
<pdfrwt beam="2">  1       21 0.23188842E+00 0.94056600E+03</pdfrwt>
<totfact> 0.20348391E+01</totfact>
</mgrwt>
</event>
<event>
 6    1  0.9399121E-004  0.5484491E+03  0.7818608E-02  0.1001877E+00
         21   -1    0    0  503  502  0.00000000000E+00  0.00000000000E+00  0.14947463661E+04  0.14947463661E+04  0.00000000000E+00 0.  1.
         21   -1    0    0  501  503 -0.00000000000E+00 -0.00000000000E+00 -0.20745506268E+03  0.20745506268E+03  0.00000000000E+00 0.  1.
    9000007    2    1    2  501    0  0.27464283368E+03 -0.25567120988E+03  0.49427257072E+03  0.73800478699E+03  0.39943614984E+03 0.  0.
    9000005    1    3    3    0    0  0.34700145606E+03 -0.14860318132E+03  0.22531778883E+03  0.43961576628E+03  0.99999687468E+00 0.  0.
          4    1    3    3  501    0 -0.72358622386E+02 -0.10706802856E+03  0.26895478190E+03  0.29838902071E+03  0.00000000000E+00 0.  1.
   -9000007    1    1    2    0  502 -0.27464283368E+03  0.25567120988E+03  0.79301873273E+03  0.96419664183E+03  0.40000000000E+03 0.  1.
<mgrwt>
<rscale>  2 0.54834633E+03</rscale>
<asrwt>0</asrwt>
<pdfrwt beam="1">  1       21 0.22996097E+00 0.54844913E+03</pdfrwt>
<pdfrwt beam="2">  1       21 0.31916165E-01 0.54844913E+03</pdfrwt>
<totfact> 0.64872251E+02</totfact>
</mgrwt>
</event>
<event>
 6    1  0.9399121E-004  0.5127388E+03  0.7818608E-02  0.1010513E+00
         21   -1    0    0  503  502  0.00000000000E+00  0.00000000000E+00  0.50547521108E+03  0.50547521108E+03  0.00000000000E+00 0. -1.
         21   -1    0    0  501  503 -0.00000000000E+00 -0.00000000000E+00 -0.52696814217E+03  0.52696814217E+03  0.00000000000E+00 0.  1.
    9000007    2    1    2  501    0  0.23062942266E+03 -0.22270644522E+03  0.48635083703E+02  0.51504019343E+03  0.40014114777E+03 0.  0.
    9000005    1    3    3    0    0 -0.59040910733E+02 -0.55771650955E+02  0.14578234501E+03  0.16688258837E+03  0.99999687468E+00 0.  0.
          4    1    3    3  501    0  0.28967033339E+03 -0.16693479426E+03 -0.97147261304E+02  0.34815760506E+03  0.00000000000E+00 0.  1.
   -9000007    1    1    2    0  502 -0.23062942266E+03  0.22270644522E+03 -0.70128014794E+02  0.51740315982E+03  0.40000000000E+03 0. -1.
<mgrwt>
<rscale>  2 0.51271122E+03</rscale>
<asrwt>0</asrwt>
<pdfrwt beam="1">  1       21 0.77765417E-01 0.51273875E+03</pdfrwt>
<pdfrwt beam="2">  1       21 0.81072022E-01 0.51273875E+03</pdfrwt>
<totfact> 0.16456886E+03</totfact>
</mgrwt>
</event>
<event>
 6    1  0.9399121E-004  0.4315601E+03  0.7818608E-02  0.1033417E+00
         21   -1    0    0  503  502  0.00000000000E+00  0.00000000000E+00  0.97066252876E+03  0.97066252876E+03  0.00000000000E+00 0.  1.
         21   -1    0    0  501  503 -0.00000000000E+00 -0.00000000000E+00 -0.11620557033E+04  0.11620557033E+04  0.00000000000E+00 0.  1.
    9000007    2    1    2  501    0 -0.14234796512E+03 -0.77337860154E+02 -0.10701785429E+04  0.11536841103E+04  0.39932546256E+03 0.  0.
    9000005    1    3    3    0    0  0.44974062942E+01 -0.72778802690E+02  0.54671880536E+00  0.72926536183E+02  0.99999687468E+00 0.  0.
          4    1    3    3  501    0 -0.14684537142E+03 -0.45590574636E+01 -0.10707252617E+04  0.10807575742E+04  0.00000000000E+00 0.  1.
   -9000007    1    1    2    0  502  0.14234796512E+03  0.77337860154E+02  0.87878536836E+03  0.97903412168E+03  0.40000000000E+03 0.  1.
<mgrwt>
<rscale>  2 0.43140369E+03</rscale>
<asrwt>0</asrwt>
<pdfrwt beam="1">  1       21 0.14933270E+00 0.43156006E+03</pdfrwt>
<pdfrwt beam="2">  1       21 0.17877780E+00 0.43156006E+03</pdfrwt>
<totfact> 0.44356149E+01</totfact>
</mgrwt>
</event>
<event>
 6    1  0.9399121E-004  0.4177064E+03  0.7818608E-02  0.1037837E+00
         21   -1    0    0  503  502  0.00000000000E+00  0.00000000000E+00  0.22752368054E+03  0.22752368054E+03  0.00000000000E+00 0. -1.
         21   -1    0    0  501  503 -0.00000000000E+00 -0.00000000000E+00 -0.80486828953E+03  0.80486828953E+03  0.00000000000E+00 0. -1.
    9000007    2    1    2  501    0 -0.54785353819E+02  0.10713161058E+03 -0.40147327154E+03  0.57917089342E+03  0.39972430380E+03 0.  0.
    9000005    1    3    3    0    0  0.41433043909E+02  0.12266437163E+03  0.33231987489E+02  0.13367352087E+03  0.99999687468E+00 0.  0.
          4    1    3    3  501    0 -0.96218397728E+02 -0.15532761052E+02 -0.43470525903E+03  0.44549737256E+03  0.00000000000E+00 0.  1.
   -9000007    1    1    2    0  502  0.54785353819E+02 -0.10713161058E+03 -0.17587133745E+03  0.45322107665E+03  0.40000000000E+03 0.  1.
<mgrwt>
<rscale>  2 0.41764036E+03</rscale>
<asrwt>0</asrwt>
<pdfrwt beam="1">  1       21 0.35003643E-01 0.41770638E+03</pdfrwt>
<pdfrwt beam="2">  1       21 0.12382589E+00 0.41770638E+03</pdfrwt>
<totfact> 0.33786213E+03</totfact>
</mgrwt>
</event>
<event>
 6    1  0.9399121E-004  0.4695705E+03  0.7818608E-02  0.1022199E+00
         21   -1    0    0  503  502  0.00000000000E+00  0.00000000000E+00  0.19515663980E+03  0.19515663980E+03  0.00000000000E+00 0. -1.
         21   -1    0    0  501  503 -0.00000000000E+00 -0.00000000000E+00 -0.12388399121E+04  0.12388399121E+04  0.00000000000E+00 0.  1.
    9000007    2    1    2  501    0  0.20225243594E+03 -0.13232046143E+03 -0.30514320375E+03  0.56000788767E+03  0.40259372462E+03 0.  0.
    9000005    1    3    3    0    0  0.25853485516E+03 -0.22737044563E+03 -0.28665803693E+03  0.44800828230E+03  0.99999687468E+00 0.  0.
          4    1    3    3  501    0 -0.56282419221E+02  0.95049984201E+02 -0.18485166816E+02  0.11199960537E+03  0.00000000000E+00 0.  1.
   -9000007    1    1    2    0  502 -0.20225243594E+03  0.13232046143E+03 -0.73854006857E+03  0.87398866425E+03  0.40000000000E+03 0.  1.
<mgrwt>
<rscale>  2 0.46901405E+03</rscale>
<asrwt>0</asrwt>
<pdfrwt beam="1">  1       21 0.30024099E-01 0.46957051E+03</pdfrwt>
<pdfrwt beam="2">  1       21 0.19059075E+00 0.46957051E+03</pdfrwt>
<totfact> 0.13730512E+03</totfact>
</mgrwt>
</event>
<event>
 6    1  0.9399121E-004  0.7043936E+03  0.7818608E-02  0.9710437E-01
         21   -1    0    0  503  502  0.00000000000E+00  0.00000000000E+00  0.16617006976E+03  0.16617006976E+03  0.00000000000E+00 0. -1.
         21   -1    0    0  501  503 -0.00000000000E+00 -0.00000000000E+00 -0.30901996226E+04  0.30901996226E+04  0.00000000000E+00 0. -1.
    9000007    2    1    2  501    0 -0.25153717526E+03 -0.52239770334E+03 -0.17691813566E+04  0.19036521803E+04  0.39713806184E+03 0.  0.
    9000005    1    3    3    0    0 -0.29459067828E+03 -0.43579295006E+03 -0.10141699394E+04  0.11424713690E+04  0.99999687468E+00 0.  0.
          4    1    3    3  501    0  0.43053503017E+02 -0.86604753287E+02 -0.75501141722E+03  0.76118081133E+03  0.00000000000E+00 0.  1.
   -9000007    1    1    2    0  502  0.25153717526E+03  0.52239770334E+03 -0.11548481963E+04  0.13527175121E+04  0.40000000000E+03 0. -1.
<mgrwt>
<rscale>  2 0.70398792E+03</rscale>
<asrwt>0</asrwt>
<pdfrwt beam="1">  1       21 0.25564628E-01 0.70439358E+03</pdfrwt>
<pdfrwt beam="2">  1       21 0.47541529E+00 0.70439358E+03</pdfrwt>
<totfact> 0.25656606E+01</totfact>
</mgrwt>
</event>
<event>
 6    1  0.9399121E-004  0.4248932E+03  0.7818608E-02  0.1035501E+00
         21   -1    0    0  503  502  0.00000000000E+00  0.00000000000E+00  0.31357826303E+03  0.31357826303E+03  0.00000000000E+00 0. -1.
         21   -1    0    0  501  503 -0.00000000000E+00 -0.00000000000E+00 -0.95700755254E+03  0.95700755254E+03  0.00000000000E+00 0. -1.
    9000007    2    1    2  501    0  0.14099736791E+03  0.22150568309E+02 -0.72289216791E+03  0.83851492500E+03  0.40020405745E+03 0.  0.
    9000005    1    3    3    0    0 -0.12395226230E+03  0.62138596281E+02 -0.37208948821E+03  0.39708557730E+03  0.99999687468E+00 0.  0.
          4    1    3    3  501    0  0.26494963020E+03 -0.39988027971E+02 -0.35080267970E+03  0.44142934770E+03  0.00000000000E+00 0.  1.
   -9000007    1    1    2    0  502 -0.14099736791E+03 -0.22150568309E+02  0.79462878398E+02  0.43207089057E+03  0.40000000000E+03 0. -1.
<mgrwt>
<rscale>  2 0.42484510E+03</rscale>
<asrwt>0</asrwt>
<pdfrwt beam="1">  1       21 0.48242810E-01 0.42489315E+03</pdfrwt>
<pdfrwt beam="2">  1       21 0.14723193E+00 0.42489315E+03</pdfrwt>
<totfact> 0.11026956E+03</totfact>
</mgrwt>
</event>
<event>
 6    1  0.9399121E-004  0.5566619E+03  0.7818608E-02  0.9999703E-01
         21   -1    0    0  503  502  0.00000000000E+00  0.00000000000E+00  0.31462904352E+03  0.31462904352E+03  0.00000000000E+00 0. -1.
         21   -1    0    0  501  503 -0.00000000000E+00 -0.00000000000E+00 -0.10223059819E+04  0.10223059819E+04  0.00000000000E+00 0. -1.
    9000007    2    1    2  501    0  0.31489102122E+03  0.22491332621E+03 -0.22562305212E+03  0.60064818677E+03  0.40016262078E+03 0.  0.
    9000005    1    3    3    0    0  0.17012812651E+03  0.14782521430E+03 -0.33482195728E+03  0.40361196276E+03  0.99999687468E+00 0.  0.
          4    1    3    3  501    0  0.14476289470E+03  0.77088111914E+02  0.10919890516E+03  0.19703622400E+03  0.00000000000E+00 0.  1.
   -9000007    1    1    2    0  502 -0.31489102122E+03 -0.22491332621E+03 -0.48205388630E+03  0.73628683870E+03  0.40000000000E+03 0. -1.
<mgrwt>
<rscale>  2 0.55663269E+03</rscale>
<asrwt>0</asrwt>
<pdfrwt beam="1">  1       21 0.48404468E-01 0.55666191E+03</pdfrwt>
<pdfrwt beam="2">  1       21 0.15727784E+00 0.55666191E+03</pdfrwt>
<totfact> 0.86753843E+02</totfact>
</mgrwt>
</event>
<event>
 6    1  0.9399121E-004  0.4138000E+03  0.7818608E-02  0.1039229E+00
         21   -1    0    0  503  502  0.00000000000E+00  0.00000000000E+00  0.74206578782E+03  0.74206578782E+03  0.00000000000E+00 0. -1.
         21   -1    0    0  501  503 -0.00000000000E+00 -0.00000000000E+00 -0.32758148823E+03  0.32758148823E+03  0.00000000000E+00 0. -1.
    9000007    2    1    2  501    0 -0.20111262115E+02 -0.97850327109E+02 -0.84534083948E+02  0.42234634411E+03  0.40156104599E+03 0.  0.
    9000005    1    3    3    0    0 -0.19490101156E+03 -0.65874250249E+02 -0.12415220736E+03  0.24029272095E+03  0.99999687468E+00 0.  0.
          4    1    3    3  501    0  0.17478974945E+03 -0.31976076860E+02  0.39618123411E+02  0.18205362316E+03  0.00000000000E+00 0.  1.
   -9000007    1    1    2    0  502  0.20111262115E+02  0.97850327109E+02  0.49901838354E+03  0.64730093194E+03  0.40000000000E+03 0. -1.
<mgrwt>
<rscale>  2 0.41342078E+03</rscale>
<asrwt>0</asrwt>
<pdfrwt beam="1">  1       21 0.11416397E+00 0.41379998E+03</pdfrwt>
<pdfrwt beam="2">  1       21 0.50397152E-01 0.41379998E+03</pdfrwt>
<totfact> 0.19527746E+03</totfact>
</mgrwt>
</event>
<event>
 6    1  0.9399121E-004  0.4583643E+03  0.7818608E-02  0.1025272E+00
         21   -1    0    0  503  502  0.00000000000E+00  0.00000000000E+00  0.17386762017E+03  0.17386762017E+03  0.00000000000E+00 0. -1.
         21   -1    0    0  501  503 -0.00000000000E+00 -0.00000000000E+00 -0.37304044660E+04  0.37304044660E+04  0.00000000000E+00 0. -1.
    9000007    2    1    2  501    0 -0.10787464367E+03 -0.19611455282E+03 -0.33834296782E+04  0.34143088752E+04  0.39976349468E+03 0.  0.
    9000005    1    3    3    0    0 -0.25030259991E+03 -0.19146405298E+03 -0.22532659248E+04  0.22751962999E+04  0.99999687468E+00 0.  0.
          4    1    3    3  501    0  0.14242795624E+03 -0.46504998412E+01 -0.11301637534E+04  0.11391125753E+04  0.00000000000E+00 0.  1.
   -9000007    1    1    2    0  502  0.10787464367E+03  0.19611455282E+03 -0.17310716762E+03  0.48996321092E+03  0.40000000000E+03 0. -1.
<mgrwt>
<rscale>  2 0.45831272E+03</rscale>
<asrwt>0</asrwt>
<pdfrwt beam="1">  1       21 0.26748863E-01 0.45836433E+03</pdfrwt>
<pdfrwt beam="2">  1       21 0.57390841E+00 0.45836433E+03</pdfrwt>
<totfact> 0.51645897E+00</totfact>
</mgrwt>
</event>
<event>
 6    1  0.9399121E-004  0.4379359E+03  0.7818608E-02  0.1031752E+00
         21   -1    0    0  503  502  0.00000000000E+00  0.00000000000E+00  0.26978220450E+04  0.26978220450E+04  0.00000000000E+00 0.  1.
         21   -1    0    0  501  503 -0.00000000000E+00 -0.00000000000E+00 -0.76548372645E+02  0.76548372645E+02  0.00000000000E+00 0. -1.
    9000007    2    1    2  501    0  0.16292781538E+03  0.72404155205E+02  0.90831134394E+03  0.10063127904E+04  0.39477601227E+03 0.  0.
    9000005    1    3    3    0    0  0.28452107304E+03  0.91053437884E+02  0.52864252482E+03  0.60721239167E+03  0.99999687468E+00 0.  0.
          4    1    3    3  501    0 -0.12159325766E+03 -0.18649282679E+02  0.37966881912E+03  0.39910039873E+03  0.00000000000E+00 0.  1.
   -9000007    1    1    2    0  502 -0.16292781538E+03 -0.72404155205E+02  0.17129623284E+04  0.17680576273E+04  0.40000000000E+03 0.  1.
<mgrwt>
<rscale>  2 0.43673942E+03</rscale>
<asrwt>0</asrwt>
<pdfrwt beam="1">  1       21 0.41504947E+00 0.43793588E+03</pdfrwt>
<pdfrwt beam="2">  1       21 0.11776675E-01 0.43793588E+03</pdfrwt>
<totfact> 0.32932283E+02</totfact>
</mgrwt>
</event>
<event>
 6    1  0.9399121E-004  0.6004061E+03  0.7818608E-02  0.9904879E-01
         21   -1    0    0  503  502  0.00000000000E+00  0.00000000000E+00  0.23516637845E+03  0.23516637845E+03  0.00000000000E+00 0.  1.
         21   -1    0    0  501  503 -0.00000000000E+00 -0.00000000000E+00 -0.25868828958E+04  0.25868828958E+04  0.00000000000E+00 0.  1.
    9000007    2    1    2  501    0  0.29133080798E+03  0.34002039147E+03 -0.20768310372E+04  0.21617088064E+04  0.39908683297E+03 0.  0.
    9000005    1    3    3    0    0 -0.10115316935E+03  0.62058382867E+02 -0.39044258005E+03  0.40808040245E+03  0.99999687468E+00 0.  0.
          4    1    3    3  501    0  0.39248397733E+03  0.27796200860E+03 -0.16863884571E+04  0.17536284039E+04  0.00000000000E+00 0.  1.
   -9000007    1    1    2    0  502 -0.29133080798E+03 -0.34002039147E+03 -0.27488548015E+03  0.66034046785E+03  0.40000000000E+03 0.  1.
<mgrwt>
<rscale>  2 0.60025407E+03</rscale>
<asrwt>0</asrwt>
<pdfrwt beam="1">  1       21 0.36179443E-01 0.60040612E+03</pdfrwt>
<pdfrwt beam="2">  1       21 0.39798198E+00 0.60040612E+03</pdfrwt>
<totfact> 0.44681124E+01</totfact>
</mgrwt>
</event>
<event>
 6    1  0.9399121E-004  0.4848285E+03  0.7818608E-02  0.1017821E+00
         21   -1    0    0  503  502  0.00000000000E+00  0.00000000000E+00  0.25707550083E+04  0.25707550083E+04  0.00000000000E+00 0.  1.
         21   -1    0    0  501  503 -0.00000000000E+00 -0.00000000000E+00 -0.16246650596E+03  0.16246650596E+03  0.00000000000E+00 0.  1.
    9000007    2    1    2  501    0 -0.27384514992E+03 -0.22357199493E+01  0.21078878527E+04  0.21629262268E+04  0.40007811542E+03 0.  0.
    9000005    1    3    3    0    0  0.54695437093E+02 -0.53520902875E+02  0.91418430335E+02  0.11922418916E+03  0.99999687468E+00 0.  0.
          4    1    3    3  501    0 -0.32854058701E+03  0.51285182925E+02  0.20164694224E+04  0.20437020377E+04  0.00000000000E+00 0.  1.
   -9000007    1    1    2    0  502  0.27384514992E+03  0.22357199493E+01  0.30040064960E+03  0.57029528742E+03  0.40000000000E+03 0.  1.
<mgrwt>
<rscale>  2 0.48481237E+03</rscale>
<asrwt>0</asrwt>
<pdfrwt beam="1">  1       21 0.39550074E+00 0.48482849E+03</pdfrwt>
<pdfrwt beam="2">  1       21 0.24994849E-01 0.48482849E+03</pdfrwt>
<totfact> 0.10374246E+02</totfact>
</mgrwt>
</event>
<event>
 6    1  0.9399121E-004  0.5008821E+03  0.7818608E-02  0.1013555E+00
         21   -1    0    0  503  502  0.00000000000E+00  0.00000000000E+00  0.37730824425E+03  0.37730824425E+03  0.00000000000E+00 0.  1.
         21   -1    0    0  501  503 -0.00000000000E+00 -0.00000000000E+00 -0.90920381552E+03  0.90920381552E+03  0.00000000000E+00 0. -1.
    9000007    2    1    2  501    0  0.99474740863E+01  0.30114627990E+03  0.67540884436E+02  0.50541533172E+03  0.40011854784E+03 0.  0.
    9000005    1    3    3    0    0 -0.37390552641E+01  0.14010313381E+02  0.19172577378E+03  0.19227595206E+03  0.99999687468E+00 0.  0.
          4    1    3    3  501    0  0.13686529350E+02  0.28713596652E+03 -0.12418488934E+03  0.31313937966E+03  0.00000000000E+00 0.  1.
   -9000007    1    1    2    0  502 -0.99474740863E+01 -0.30114627990E+03 -0.59943645571E+03  0.78109672805E+03  0.40000000000E+03 0. -1.
<mgrwt>
<rscale>  2 0.50085843E+03</rscale>
<asrwt>0</asrwt>
<pdfrwt beam="1">  1       21 0.58047422E-01 0.50088211E+03</pdfrwt>
<pdfrwt beam="2">  1       21 0.13987751E+00 0.50088211E+03</pdfrwt>
<totfact> 0.82382440E+02</totfact>
</mgrwt>
</event>
<event>
 6    1  0.9399121E-004  0.4892160E+03  0.7818608E-02  0.1016676E+00
         21   -1    0    0  503  502  0.00000000000E+00  0.00000000000E+00  0.82081072651E+03  0.82081072651E+03  0.00000000000E+00 0.  1.
         21   -1    0    0  501  503 -0.00000000000E+00 -0.00000000000E+00 -0.70852007491E+03  0.70852007491E+03  0.00000000000E+00 0. -1.
    9000007    2    1    2  501    0 -0.17074226089E+03 -0.22400758408E+03 -0.53072728621E+03  0.72136769227E+03  0.39920868946E+03 0.  0.
    9000005    1    3    3    0    0 -0.71984934097E+02 -0.32876563240E+03 -0.30834023917E+03  0.45644646440E+03  0.99999687468E+00 0.  0.
          4    1    3    3  501    0 -0.98757326794E+02  0.10475804831E+03 -0.22238704705E+03  0.26492122787E+03  0.00000000000E+00 0.  1.
   -9000007    1    1    2    0  502  0.17074226089E+03  0.22400758408E+03  0.64301793782E+03  0.80796310914E+03  0.40000000000E+03 0.  1.
<mgrwt>
<rscale>  2 0.48905425E+03</rscale>
<asrwt>0</asrwt>
<pdfrwt beam="1">  1       21 0.12627857E+00 0.48921602E+03</pdfrwt>
<pdfrwt beam="2">  1       21 0.10900309E+00 0.48921602E+03</pdfrwt>
<totfact> 0.25070767E+02</totfact>
</mgrwt>
</event>
<event>
 6    1  0.9399121E-004  0.4725711E+03  0.7818608E-02  0.1021596E+00
         21   -1    0    0  503  502  0.00000000000E+00  0.00000000000E+00  0.39445490040E+03  0.39445490040E+03  0.00000000000E+00 0. -1.
         21   -1    0    0  501  503 -0.00000000000E+00 -0.00000000000E+00 -0.57096014688E+03  0.57096014688E+03  0.00000000000E+00 0. -1.
    9000007    2    1    2  501    0 -0.35390212551E+02 -0.23824252495E+03 -0.15744446368E+03  0.49810863680E+03  0.40658515352E+03 0.  0.
    9000005    1    3    3    0    0 -0.13600648560E+03 -0.26892074095E+03  0.86776957726E+01  0.30148371670E+03  0.99999687468E+00 0.  0.
          4    1    3    3  501    0  0.10061627305E+03  0.30678215994E+02 -0.16612215946E+03  0.19662492009E+03  0.00000000000E+00 0.  1.
   -9000007    1    1    2    0  502  0.35390212551E+02  0.23824252495E+03 -0.19060782794E+02  0.46730641049E+03  0.40000000000E+03 0. -1.
<mgrwt>
<rscale>  2 0.47115133E+03</rscale>
<asrwt>0</asrwt>
<pdfrwt beam="1">  1       21 0.60685369E-01 0.47257111E+03</pdfrwt>
<pdfrwt beam="2">  1       21 0.87840023E-01 0.47257111E+03</pdfrwt>
<totfact> 0.24157895E+03</totfact>
</mgrwt>
</event>
<event>
 6    1  0.9399121E-004  0.4836437E+03  0.7818608E-02  0.1018527E+00
         21   -1    0    0  503  502  0.00000000000E+00  0.00000000000E+00  0.16010715656E+04  0.16010715656E+04  0.00000000000E+00 0.  1.
         21   -1    0    0  501  503 -0.00000000000E+00 -0.00000000000E+00 -0.38191625247E+03  0.38191625247E+03  0.00000000000E+00 0. -1.
    9000007    2    1    2  501    0 -0.26037882634E+03 -0.25708809277E+02 -0.17097934712E+03  0.51297678080E+03  0.40675934460E+03 0.  0.
    9000005    1    3    3    0    0 -0.30457912020E+03  0.72026908045E+02 -0.21919903394E+01  0.31298901061E+03  0.99999687468E+00 0.  0.
          4    1    3    3  501    0  0.44200293862E+02 -0.97735717322E+02 -0.16878735678E+03  0.19998777019E+03  0.00000000000E+00 0.  1.
   -9000007    1    1    2    0  502  0.26037882634E+03  0.25708809277E+02  0.13901346603E+04  0.14700110373E+04  0.40000000000E+03 0.  1.
<mgrwt>
<rscale>  2 0.48221973E+03</rscale>
<asrwt>0</asrwt>
<pdfrwt beam="1">  1       21 0.24631870E+00 0.48364371E+03</pdfrwt>
<pdfrwt beam="2">  1       21 0.58756347E-01 0.48364371E+03</pdfrwt>
<totfact> 0.14733302E+02</totfact>
</mgrwt>
</event>
<event>
 6    1  0.9399121E-004  0.4288247E+03  0.7818608E-02  0.1034441E+00
         21   -1    0    0  503  502  0.00000000000E+00  0.00000000000E+00  0.22267903533E+03  0.22267903533E+03  0.00000000000E+00 0.  1.
         21   -1    0    0  501  503 -0.00000000000E+00 -0.00000000000E+00 -0.84516658318E+03  0.84516658318E+03  0.00000000000E+00 0.  1.
    9000007    2    1    2  501    0  0.92398337426E+00 -0.15456320729E+03 -0.40104017175E+03  0.58521783319E+03  0.39718516353E+03 0.  0.
    9000005    1    3    3    0    0  0.15626949052E+03 -0.20792004908E+03 -0.21890317282E+03  0.33995661420E+03  0.99999687468E+00 0.  0.
          4    1    3    3  501    0 -0.15534550714E+03  0.53356841794E+02 -0.18213699894E+03  0.24526121898E+03  0.00000000000E+00 0.  1.
   -9000007    1    1    2    0  502 -0.92398337426E+00  0.15456320729E+03 -0.22144737610E+03  0.48262778533E+03  0.40000000000E+03 0.  1.
<mgrwt>
<rscale>  2 0.42816710E+03</rscale>
<asrwt>0</asrwt>
<pdfrwt beam="1">  1       21 0.34258314E-01 0.42882472E+03</pdfrwt>
<pdfrwt beam="2">  1       21 0.13002563E+00 0.42882472E+03</pdfrwt>
<totfact> 0.30981358E+03</totfact>
</mgrwt>
</event>
<event>
 6    1  0.9399121E-004  0.4555390E+03  0.7818608E-02  0.1026114E+00
         21   -1    0    0  503  502  0.00000000000E+00  0.00000000000E+00  0.14665981067E+03  0.14665981067E+03  0.00000000000E+00 0.  1.
         21   -1    0    0  501  503 -0.00000000000E+00 -0.00000000000E+00 -0.17131125449E+04  0.17131125449E+04  0.00000000000E+00 0.  1.
    9000007    2    1    2  501    0 -0.40867734063E+02 -0.21321990423E+03 -0.11723144814E+04  0.12577110118E+04  0.40047827258E+03 0.  0.
    9000005    1    3    3    0    0 -0.15597681369E+03 -0.76023083301E+01 -0.18232320266E+03  0.24006105832E+03  0.99999687468E+00 0.  0.
          4    1    3    3  501    0  0.11510907963E+03 -0.20561759590E+03 -0.98999127871E+03  0.10176499535E+04  0.00000000000E+00 0.  1.
   -9000007    1    1    2    0  502  0.40867734063E+02  0.21321990423E+03 -0.39413825283E+03  0.60206134371E+03  0.40000000000E+03 0.  1.
<mgrwt>
<rscale>  2 0.45543382E+03</rscale>
<asrwt>0</asrwt>
<pdfrwt beam="1">  1       21 0.22563048E-01 0.45553896E+03</pdfrwt>
<pdfrwt beam="2">  1       21 0.26355577E+00 0.45553896E+03</pdfrwt>
<totfact> 0.82844643E+02</totfact>
</mgrwt>
</event>
<event>
 6    1  0.9399121E-004  0.4847257E+03  0.7818608E-02  0.1017867E+00
         21   -1    0    0  503  502  0.00000000000E+00  0.00000000000E+00  0.95683024018E+03  0.95683024018E+03  0.00000000000E+00 0.  1.
         21   -1    0    0  501  503 -0.00000000000E+00 -0.00000000000E+00 -0.25562596784E+03  0.25562596784E+03  0.00000000000E+00 0.  1.
    9000007    2    1    2  501    0  0.27205880939E+03  0.24982304022E+02  0.47200860441E+03  0.67657304400E+03  0.40039836407E+03 0.  0.
    9000005    1    3    3    0    0  0.20596966868E+03  0.18392638026E+03  0.15713335967E+03  0.31771734369E+03  0.99999687468E+00 0.  0.
          4    1    3    3  501    0  0.66089140710E+02 -0.15894407624E+03  0.31487524474E+03  0.35885570030E+03  0.00000000000E+00 0.  1.
   -9000007    1    1    2    0  502 -0.27205880939E+03 -0.24982304022E+02  0.22919566794E+03  0.53588316402E+03  0.40000000000E+03 0.  1.
<mgrwt>
<rscale>  2 0.48464338E+03</rscale>
<asrwt>0</asrwt>
<pdfrwt beam="1">  1       21 0.14720465E+00 0.48472566E+03</pdfrwt>
<pdfrwt beam="2">  1       21 0.39327072E-01 0.48472566E+03</pdfrwt>
<totfact> 0.16485558E+03</totfact>
</mgrwt>
</event>
<event>
 6    1  0.9399121E-004  0.5290626E+03  0.7818608E-02  0.1006552E+00
         21   -1    0    0  503  502  0.00000000000E+00  0.00000000000E+00  0.14021736565E+04  0.14021736565E+04  0.00000000000E+00 0. -1.
         21   -1    0    0  501  503 -0.00000000000E+00 -0.00000000000E+00 -0.21281789664E+03  0.21281789664E+03  0.00000000000E+00 0.  1.
    9000007    2    1    2  501    0 -0.34257006784E+03  0.50526780416E+02  0.38849221801E+03  0.65515322322E+03  0.39798534587E+03 0.  0.
    9000005    1    3    3    0    0 -0.20402675102E+03 -0.11580436960E+03  0.36971590577E+03  0.43786803734E+03  0.99999687468E+00 0.  0.
          4    1    3    3  501    0 -0.13854331682E+03  0.16633115002E+03  0.18776312232E+02  0.21728518588E+03  0.00000000000E+00 0.  1.
   -9000007    1    1    2    0  502  0.34257006784E+03 -0.50526780416E+02  0.80086354188E+03  0.95983832994E+03  0.40000000000E+03 0. -1.
<mgrwt>
<rscale>  2 0.52868178E+03</rscale>
<asrwt>0</asrwt>
<pdfrwt beam="1">  1       21 0.21571902E+00 0.52906257E+03</pdfrwt>
<pdfrwt beam="2">  1       21 0.32741216E-01 0.52906257E+03</pdfrwt>
<totfact> 0.76650150E+02</totfact>
</mgrwt>
</event>
<event>
 6    1  0.9399121E-004  0.5270174E+03  0.7818608E-02  0.1007194E+00
         21   -1    0    0  503  502  0.00000000000E+00  0.00000000000E+00  0.12612001593E+04  0.12612001593E+04  0.00000000000E+00 0.  1.
         21   -1    0    0  501  503 -0.00000000000E+00 -0.00000000000E+00 -0.41586063060E+03  0.41586063060E+03  0.00000000000E+00 0.  1.
    9000007    2    1    2  501    0  0.11865108730E+03 -0.31564974444E+03  0.10009654515E+04  0.11312290672E+04  0.40501175996E+03 0.  0.
    9000005    1    3    3    0    0 -0.97732625366E+02 -0.29304694744E+03  0.56193236816E+03  0.64124657180E+03  0.99999687468E+00 0.  0.
          4    1    3    3  501    0  0.21638371266E+03 -0.22602797008E+02  0.43903308331E+03  0.48998249538E+03  0.00000000000E+00 0.  1.
   -9000007    1    1    2    0  502 -0.11865108730E+03  0.31564974444E+03 -0.15562592277E+03  0.54583172271E+03  0.40000000000E+03 0.  1.
<mgrwt>
<rscale>  2 0.52605436E+03</rscale>
<asrwt>0</asrwt>
<pdfrwt beam="1">  1       21 0.19403079E+00 0.52701743E+03</pdfrwt>
<pdfrwt beam="2">  1       21 0.63978559E-01 0.52701743E+03</pdfrwt>
<totfact> 0.25994951E+02</totfact>
</mgrwt>
</event>
<event>
 6    1  0.9399121E-004  0.4141681E+03  0.7818608E-02  0.1039020E+00
         21   -1    0    0  503  502  0.00000000000E+00  0.00000000000E+00  0.33675394104E+03  0.33675394104E+03  0.00000000000E+00 0. -1.
         21   -1    0    0  501  503 -0.00000000000E+00 -0.00000000000E+00 -0.53171315329E+03  0.53171315329E+03  0.00000000000E+00 0. -1.
    9000007    2    1    2  501    0  0.66197189542E+02  0.84576423342E+02 -0.18757036412E+03  0.45423306101E+03  0.39951194341E+03 0.  0.
    9000005    1    3    3    0    0  0.20033551521E+03 -0.58517299394E+02 -0.49863754329E+02  0.21458328680E+03  0.99999687468E+00 0.  0.
          4    1    3    3  501    0 -0.13413832567E+03  0.14309372274E+03 -0.13770660979E+03  0.23964977421E+03  0.00000000000E+00 0.  1.
   -9000007    1    1    2    0  502 -0.66197189542E+02 -0.84576423342E+02 -0.73888481359E+01  0.41423403333E+03  0.40000000000E+03 0. -1.
<mgrwt>
<rscale>  2 0.41405024E+03</rscale>
<asrwt>0</asrwt>
<pdfrwt beam="1">  1       21 0.51808299E-01 0.41416813E+03</pdfrwt>
<pdfrwt beam="2">  1       21 0.81802023E-01 0.41416813E+03</pdfrwt>
<totfact> 0.41037628E+03</totfact>
</mgrwt>
</event>
<event>
 6    1  0.9399121E-004  0.4258076E+03  0.7818608E-02  0.1035354E+00
         21   -1    0    0  503  502  0.00000000000E+00  0.00000000000E+00  0.32958122820E+03  0.32958122820E+03  0.00000000000E+00 0.  1.
         21   -1    0    0  501  503 -0.00000000000E+00 -0.00000000000E+00 -0.64598156634E+03  0.64598156634E+03  0.00000000000E+00 0.  1.
    9000007    2    1    2  501    0  0.87491591969E+02  0.11686461314E+03 -0.34830806191E+03  0.54856136678E+03  0.39785543941E+03 0.  0.
    9000005    1    3    3    0    0 -0.91136809036E+02 -0.85015230845E+02 -0.21338442123E+03  0.24711822809E+03  0.99999687468E+00 0.  0.
          4    1    3    3  501    0  0.17862840100E+03  0.20187984399E+03 -0.13492364068E+03  0.30144313870E+03  0.00000000000E+00 0.  1.
   -9000007    1    1    2    0  502 -0.87491591969E+02 -0.11686461314E+03  0.31907723769E+02  0.42700142776E+03  0.40000000000E+03 0.  1.
<mgrwt>
<rscale>  2 0.42530322E+03</rscale>
<asrwt>0</asrwt>
<pdfrwt beam="1">  1       21 0.50704805E-01 0.42580760E+03</pdfrwt>
<pdfrwt beam="2">  1       21 0.99381778E-01 0.42580760E+03</pdfrwt>
<totfact> 0.26989777E+03</totfact>
</mgrwt>
</event>
<event>
 6    1  0.9399121E-004  0.5115480E+03  0.7818608E-02  0.1011057E+00
         21   -1    0    0  503  502  0.00000000000E+00  0.00000000000E+00  0.51196234781E+03  0.51196234781E+03  0.00000000000E+00 0.  1.
         21   -1    0    0  501  503 -0.00000000000E+00 -0.00000000000E+00 -0.66290491018E+03  0.66290491018E+03  0.00000000000E+00 0.  1.
    9000007    2    1    2  501    0  0.13478898079E+03 -0.28199819355E+03 -0.36036252360E+03  0.62573360333E+03  0.40495721183E+03 0.  0.
    9000005    1    3    3    0    0 -0.10102967420E+02  0.52994671886E+02  0.52075817296E+02  0.74989305503E+02  0.99999687468E+00 0.  0.
          4    1    3    3  501    0  0.14489194821E+03 -0.33499286544E+03 -0.41243834090E+03  0.55074429783E+03  0.00000000000E+00 0.  1.
   -9000007    1    1    2    0  502 -0.13478898079E+03  0.28199819355E+03  0.20941996123E+03  0.54913365465E+03  0.40000000000E+03 0.  1.
<mgrwt>
<rscale>  2 0.51056640E+03</rscale>
<asrwt>0</asrwt>
<pdfrwt beam="1">  1       21 0.78763439E-01 0.51154804E+03</pdfrwt>
<pdfrwt beam="2">  1       21 0.10198537E+00 0.51154804E+03</pdfrwt>
<totfact> 0.92510907E+02</totfact>
</mgrwt>
</event>
<event>
 6    1  0.9399121E-004  0.4547217E+03  0.7818608E-02  0.1026817E+00
         21   -1    0    0  503  502  0.00000000000E+00  0.00000000000E+00  0.17281717623E+04  0.17281717623E+04  0.00000000000E+00 0. -1.
         21   -1    0    0  501  503 -0.00000000000E+00 -0.00000000000E+00 -0.14002325215E+03  0.14002325215E+03  0.00000000000E+00 0. -1.
    9000007    2    1    2  501    0  0.10661110223E+03  0.17146628667E+03  0.42774893787E+03  0.62429237279E+03  0.40743735506E+03 0.  0.
    9000005    1    3    3    0    0  0.13994341342E+03  0.12114785783E+02  0.43917376736E+03  0.46109166651E+03  0.99999687468E+00 0.  0.
          4    1    3    3  501    0 -0.33332311190E+02  0.15935150088E+03 -0.11424829486E+02  0.16320070628E+03  0.00000000000E+00 0.  1.
   -9000007    1    1    2    0  502 -0.10661110223E+03 -0.17146628667E+03  0.11603995722E+04  0.12439026416E+04  0.40000000000E+03 0. -1.
<mgrwt>
<rscale>  2 0.45304953E+03</rscale>
<asrwt>0</asrwt>
<pdfrwt beam="1">  1       21 0.26587256E+00 0.45472169E+03</pdfrwt>
<pdfrwt beam="2">  1       21 0.21542040E-01 0.45472169E+03</pdfrwt>
<totfact> 0.87705882E+02</totfact>
</mgrwt>
</event>
<event>
 6    1  0.9399121E-004  0.4027029E+03  0.7818608E-02  0.1042879E+00
         21   -1    0    0  503  502  0.00000000000E+00  0.00000000000E+00  0.71670540249E+03  0.71670540249E+03  0.00000000000E+00 0. -1.
         21   -1    0    0  501  503 -0.00000000000E+00 -0.00000000000E+00 -0.22862241339E+03  0.22862241339E+03  0.00000000000E+00 0. -1.
    9000007    2    1    2  501    0 -0.23940739399E+02 -0.39956121599E+02  0.29390743374E+03  0.49825534194E+03  0.39963377673E+03 0.  0.
    9000005    1    3    3    0    0  0.25442092854E+02 -0.18411734222E+03  0.22808504719E+02  0.18726378101E+03  0.99999687468E+00 0.  0.
          4    1    3    3  501    0 -0.49382832253E+02  0.14416122062E+03  0.27109892902E+03  0.31099156093E+03  0.00000000000E+00 0.  1.
   -9000007    1    1    2    0  502  0.23940739399E+02  0.39956121599E+02  0.19417555536E+03  0.44707247394E+03  0.40000000000E+03 0. -1.
<mgrwt>
<rscale>  2 0.40261196E+03</rscale>
<asrwt>0</asrwt>
<pdfrwt beam="1">  1       21 0.11026237E+00 0.40270293E+03</pdfrwt>
<pdfrwt beam="2">  1       21 0.35172679E-01 0.40270293E+03</pdfrwt>
<totfact> 0.45044209E+03</totfact>
</mgrwt>
</event>
<event>
 6    1  0.9399121E-004  0.5673583E+03  0.7818608E-02  0.9976275E-01
         21   -1    0    0  503  502  0.00000000000E+00  0.00000000000E+00  0.54179673212E+03  0.54179673212E+03  0.00000000000E+00 0.  1.
         21   -1    0    0  501  503 -0.00000000000E+00 -0.00000000000E+00 -0.61554410925E+03  0.61554410925E+03  0.00000000000E+00 0.  1.
    9000007    2    1    2  501    0  0.13181118226E+03 -0.37819037968E+03 -0.14827815499E+03  0.58641441186E+03  0.40186229002E+03 0.  0.
    9000005    1    3    3    0    0  0.96594382086E+02  0.65719201685E+02  0.73996154446E+00  0.11683764658E+03  0.99999687468E+00 0.  0.
          4    1    3    3  501    0  0.35216800175E+02 -0.44390958136E+03 -0.14901811654E+03  0.46957676529E+03  0.00000000000E+00 0.  1.
   -9000007    1    1    2    0  502 -0.13181118226E+03  0.37819037968E+03  0.74530777862E+02  0.57092642950E+03  0.40000000000E+03 0.  1.
<mgrwt>
<rscale>  2 0.56702864E+03</rscale>
<asrwt>0</asrwt>
<pdfrwt beam="1">  1       21 0.83353344E-01 0.56735831E+03</pdfrwt>
<pdfrwt beam="2">  1       21 0.94699093E-01 0.56735831E+03</pdfrwt>
<totfact> 0.95261545E+02</totfact>
</mgrwt>
</event>
<event>
 6    1  0.9399121E-004  0.4776916E+03  0.7818608E-02  0.1019785E+00
         21   -1    0    0  503  502  0.00000000000E+00  0.00000000000E+00  0.18474894233E+03  0.18474894233E+03  0.00000000000E+00 0. -1.
         21   -1    0    0  501  503 -0.00000000000E+00 -0.00000000000E+00 -0.12569316217E+04  0.12569316217E+04  0.00000000000E+00 0. -1.
    9000007    2    1    2  501    0 -0.48788055799E+02  0.25617152644E+03 -0.63221461910E+03  0.79239170735E+03  0.40023139298E+03 0.  0.
    9000005    1    3    3    0    0 -0.11458723940E+03  0.10468332423E+03 -0.17871227791E+02  0.15623448589E+03  0.99999687468E+00 0.  0.
          4    1    3    3  501    0  0.65799183603E+02  0.15148820222E+03 -0.61434339131E+03  0.63615722146E+03  0.00000000000E+00 0.  1.
   -9000007    1    1    2    0  502  0.48788055799E+02 -0.25617152644E+03 -0.43996806028E+03  0.64928885669E+03  0.40000000000E+03 0. -1.
<mgrwt>
<rscale>  2 0.47764316E+03</rscale>
<asrwt>0</asrwt>
<pdfrwt beam="1">  1       21 0.28422915E-01 0.47769163E+03</pdfrwt>
<pdfrwt beam="2">  1       21 0.19337409E+00 0.47769163E+03</pdfrwt>
<totfact> 0.14602435E+03</totfact>
</mgrwt>
</event>
<event>
 6    1  0.9399121E-004  0.6232445E+03  0.7818608E-02  0.9858443E-01
         21   -1    0    0  503  502  0.00000000000E+00  0.00000000000E+00  0.89117372000E+03  0.89117372000E+03  0.00000000000E+00 0.  1.
         21   -1    0    0  501  503 -0.00000000000E+00 -0.00000000000E+00 -0.53385401172E+03  0.53385401172E+03  0.00000000000E+00 0. -1.
    9000007    2    1    2  501    0  0.22811491945E+03  0.41963004225E+03  0.48421440864E+03  0.78923841613E+03  0.40038468394E+03 0.  0.
    9000005    1    3    3    0    0  0.17787816626E+03  0.44985281937E+03  0.24366430780E+03  0.54164702161E+03  0.99999687468E+00 0.  0.
          4    1    3    3  501    0  0.50236753188E+02 -0.30222777119E+02  0.24055010084E+03  0.24759139453E+03  0.00000000000E+00 0.  1.
   -9000007    1    1    2    0  502 -0.22811491945E+03 -0.41963004225E+03 -0.12689470036E+03  0.63578931559E+03  0.40000000000E+03 0. -1.
<mgrwt>
<rscale>  2 0.62318271E+03</rscale>
<asrwt>0</asrwt>
<pdfrwt beam="1">  1       21 0.13710365E+00 0.62324448E+03</pdfrwt>
<pdfrwt beam="2">  1       21 0.82131387E-01 0.62324448E+03</pdfrwt>
<totfact> 0.37986400E+02</totfact>
</mgrwt>
</event>
<event>
 6    1  0.9399121E-004  0.4863244E+03  0.7818608E-02  0.1017421E+00
         21   -1    0    0  503  502  0.00000000000E+00  0.00000000000E+00  0.20216903428E+04  0.20216903428E+04  0.00000000000E+00 0. -1.
         21   -1    0    0  501  503 -0.00000000000E+00 -0.00000000000E+00 -0.12161195908E+03  0.12161195908E+03  0.00000000000E+00 0. -1.
    9000007    2    1    2  501    0 -0.23541058207E+03 -0.14474159027E+03  0.74039131217E+03  0.88582770014E+03  0.40017889636E+03 0.  0.
    9000005    1    3    3    0    0 -0.29017242218E+03 -0.15607427632E+03  0.31188465797E+03  0.45368739699E+03  0.99999687468E+00 0.  0.
          4    1    3    3  501    0  0.54761840110E+02  0.11332686048E+02  0.42850665421E+03  0.43214030315E+03  0.00000000000E+00 0.  1.
   -9000007    1    1    2    0  502  0.23541058207E+03  0.14474159027E+03  0.11596870715E+04  0.12574746017E+04  0.40000000000E+03 0. -1.
<mgrwt>
<rscale>  2 0.48628759E+03</rscale>
<asrwt>0</asrwt>
<pdfrwt beam="1">  1       21 0.31102926E+00 0.48632440E+03</pdfrwt>
<pdfrwt beam="2">  1       21 0.18709534E-01 0.48632440E+03</pdfrwt>
<totfact> 0.60236800E+02</totfact>
</mgrwt>
</event>
<event>
 6    1  0.9399121E-004  0.5536524E+03  0.7818608E-02  0.1000671E+00
         21   -1    0    0  503  502  0.00000000000E+00  0.00000000000E+00  0.54984061680E+03  0.54984061680E+03  0.00000000000E+00 0.  1.
         21   -1    0    0  501  503 -0.00000000000E+00 -0.00000000000E+00 -0.55830328002E+03  0.55830328002E+03  0.00000000000E+00 0. -1.
    9000007    2    1    2  501    0  0.17727613043E+03 -0.33873286551E+03  0.20846967373E+02  0.55404477659E+03  0.40045503845E+03 0.  0.
    9000005    1    3    3    0    0  0.80982479783E+02  0.86005006496E+02  0.46413174778E+01  0.11822675245E+03  0.99999687468E+00 0.  0.
          4    1    3    3  501    0  0.96293650643E+02 -0.42473787201E+03  0.16205649895E+02  0.43581802413E+03  0.00000000000E+00 0.  1.
   -9000007    1    1    2    0  502 -0.17727613043E+03  0.33873286551E+03 -0.29309630584E+02  0.55409912023E+03  0.40000000000E+03 0. -1.
<mgrwt>
<rscale>  2 0.55357016E+03</rscale>
<asrwt>0</asrwt>
<pdfrwt beam="1">  1       21 0.84590864E-01 0.55365243E+03</pdfrwt>
<pdfrwt beam="2">  1       21 0.85892813E-01 0.55365243E+03</pdfrwt>
<totfact> 0.11663563E+03</totfact>
</mgrwt>
</event>
<event>
 6    1  0.9399121E-004  0.4234985E+03  0.7818608E-02  0.1035990E+00
         21   -1    0    0  503  502  0.00000000000E+00  0.00000000000E+00  0.27215347504E+03  0.27215347504E+03  0.00000000000E+00 0. -1.
         21   -1    0    0  501  503 -0.00000000000E+00 -0.00000000000E+00 -0.65793655740E+03  0.65793655740E+03  0.00000000000E+00 0. -1.
    9000007    2    1    2  501    0 -0.83066176085E+02  0.10891056552E+03 -0.19513891875E+03  0.46629406650E+03  0.40073614505E+03 0.  0.
    9000005    1    3    3    0    0 -0.10121948111E+03  0.25198633885E+03 -0.16862956862E+03  0.31965517316E+03  0.99999687468E+00 0.  0.
          4    1    3    3  501    0  0.18153305023E+02 -0.14307577333E+03 -0.26509350136E+02  0.14663889334E+03  0.00000000000E+00 0.  1.
   -9000007    1    1    2    0  502  0.83066176085E+02 -0.10891056552E+03 -0.19064416361E+03  0.46379596593E+03  0.40000000000E+03 0. -1.
<mgrwt>
<rscale>  2 0.42332424E+03</rscale>
<asrwt>0</asrwt>
<pdfrwt beam="1">  1       21 0.41869766E-01 0.42349848E+03</pdfrwt>
<pdfrwt beam="2">  1       21 0.10122101E+00 0.42349848E+03</pdfrwt>
<totfact> 0.38617975E+03</totfact>
</mgrwt>
</event>
<event>
 6    1  0.9399121E-004  0.4866511E+03  0.7818608E-02  0.1017369E+00
         21   -1    0    0  503  502  0.00000000000E+00  0.00000000000E+00  0.71545140391E+03  0.71545140391E+03  0.00000000000E+00 0.  1.
         21   -1    0    0  501  503 -0.00000000000E+00 -0.00000000000E+00 -0.35493991623E+03  0.35493991623E+03  0.00000000000E+00 0.  1.
    9000007    2    1    2  501    0  0.11931462875E+03 -0.25018663716E+03  0.39857591204E+02  0.48759782723E+03  0.39916623041E+03 0.  0.
    9000005    1    3    3    0    0 -0.45022597729E+02  0.51524537617E+02 -0.96214905498E+02  0.11806828667E+03  0.99999687468E+00 0.  0.
          4    1    3    3  501    0  0.16433722648E+03 -0.30171117478E+03  0.13607249670E+03  0.36952954057E+03  0.00000000000E+00 0.  1.
   -9000007    1    1    2    0  502 -0.11931462875E+03  0.25018663716E+03  0.32065389648E+03  0.58279349291E+03  0.40000000000E+03 0.  1.
<mgrwt>
<rscale>  2 0.48647978E+03</rscale>
<asrwt>0</asrwt>
<pdfrwt beam="1">  1       21 0.11006945E+00 0.48665114E+03</pdfrwt>
<pdfrwt beam="2">  1       21 0.54606141E-01 0.48665114E+03</pdfrwt>
<totfact> 0.17510506E+03</totfact>
</mgrwt>
</event>
<event>
 6    1  0.9399121E-004  0.4382340E+03  0.7818608E-02  0.1031363E+00
         21   -1    0    0  503  502  0.00000000000E+00  0.00000000000E+00  0.19107066838E+03  0.19107066838E+03  0.00000000000E+00 0. -1.
         21   -1    0    0  501  503 -0.00000000000E+00 -0.00000000000E+00 -0.12021549902E+04  0.12021549902E+04  0.00000000000E+00 0.  1.
    9000007    2    1    2  501    0 -0.72730169654E+02 -0.16358294170E+03 -0.78865580720E+03  0.90177525363E+03  0.39896311789E+03 0.  0.
    9000005    1    3    3    0    0  0.12795652325E+03  0.54779229323E+02 -0.28793529498E+03  0.31981458675E+03  0.99999687468E+00 0.  0.
          4    1    3    3  501    0 -0.20068669290E+03 -0.21836217102E+03 -0.50072051222E+03  0.58196066688E+03  0.00000000000E+00 0.  1.
   -9000007    1    1    2    0  502  0.72730169654E+02  0.16358294170E+03 -0.22242851460E+03  0.49145040493E+03  0.40000000000E+03 0. -1.
<mgrwt>
<rscale>  2 0.43799727E+03</rscale>
<asrwt>0</asrwt>
<pdfrwt beam="1">  1       21 0.29395488E-01 0.43823402E+03</pdfrwt>
<pdfrwt beam="2">  1       21 0.18494692E+00 0.43823402E+03</pdfrwt>
<totfact> 0.15871801E+03</totfact>
</mgrwt>
</event>
<event>
 6    1  0.9399121E-004  0.4635921E+03  0.7818608E-02  0.1023802E+00
         21   -1    0    0  503  502  0.00000000000E+00  0.00000000000E+00  0.68859103995E+03  0.68859103995E+03  0.00000000000E+00 0. -1.
         21   -1    0    0  501  503 -0.00000000000E+00 -0.00000000000E+00 -0.42038529245E+03  0.42038529245E+03  0.00000000000E+00 0. -1.
    9000007    2    1    2  501    0 -0.83116414120E+02 -0.21911032955E+03 -0.14808747003E+03  0.48590513440E+03  0.39906919957E+03 0.  0.
    9000005    1    3    3    0    0 -0.64101522195E+02 -0.28209991990E+03 -0.23791462210E+03  0.37455805606E+03  0.99999687468E+00 0.  0.
          4    1    3    3  501    0 -0.19014891926E+02  0.62989590346E+02  0.89827152068E+02  0.11134707834E+03  0.00000000000E+00 0.  1.
   -9000007    1    1    2    0  502  0.83116414120E+02  0.21911032955E+03  0.41629321754E+03  0.62307119800E+03  0.40000000000E+03 0. -1.
<mgrwt>
<rscale>  2 0.46339129E+03</rscale>
<asrwt>0</asrwt>
<pdfrwt beam="1">  1       21 0.10593708E+00 0.46359214E+03</pdfrwt>
<pdfrwt beam="2">  1       21 0.64674661E-01 0.46359214E+03</pdfrwt>
<totfact> 0.13403219E+03</totfact>
</mgrwt>
</event>
<event>
 6    1  0.9399121E-004  0.4372749E+03  0.7818608E-02  0.1032096E+00
         21   -1    0    0  503  502  0.00000000000E+00  0.00000000000E+00  0.77269048724E+03  0.77269048724E+03  0.00000000000E+00 0.  1.
         21   -1    0    0  501  503 -0.00000000000E+00 -0.00000000000E+00 -0.41952714359E+03  0.41952714359E+03  0.00000000000E+00 0.  1.
    9000007    2    1    2  501    0 -0.17363068790E+03  0.32583592681E+02 -0.21002149907E+03  0.47920537753E+03  0.39283515308E+03 0.  0.
    9000005    1    3    3    0    0  0.22400259614E+02 -0.10666209886E+03 -0.21240906776E+03  0.23874083653E+03  0.99999687468E+00 0.  0.
          4    1    3    3  501    0 -0.19603094751E+03  0.13924569154E+03  0.23875686987E+01  0.24046454100E+03  0.00000000000E+00 0.  1.
   -9000007    1    1    2    0  502  0.17363068790E+03 -0.32583592681E+02  0.56318484272E+03  0.71301225330E+03  0.40000000000E+03 0.  1.
<mgrwt>
<rscale>  2 0.43562951E+03</rscale>
<asrwt>0</asrwt>
<pdfrwt beam="1">  1       21 0.11887546E+00 0.43727486E+03</pdfrwt>
<pdfrwt beam="2">  1       21 0.64542638E-01 0.43727486E+03</pdfrwt>
<totfact> 0.10213163E+03</totfact>
</mgrwt>
</event>
<event>
 6    1  0.9399121E-004  0.4375336E+03  0.7818608E-02  0.1031528E+00
         21   -1    0    0  503  502  0.00000000000E+00  0.00000000000E+00  0.77696946387E+03  0.77696946387E+03  0.00000000000E+00 0. -1.
         21   -1    0    0  501  503 -0.00000000000E+00 -0.00000000000E+00 -0.24695442960E+03  0.24695442960E+03  0.00000000000E+00 0. -1.
    9000007    2    1    2  501    0  0.12839831936E+02  0.17612221670E+03  0.23728148538E+03  0.49773302777E+03  0.40031458521E+03 0.  0.
    9000005    1    3    3    0    0 -0.12774533877E+02  0.17080905810E+03  0.34591112531E+03  0.38599796586E+03  0.99999687468E+00 0.  0.
          4    1    3    3  501    0  0.25614365813E+02  0.53131585998E+01 -0.10862963993E+03  0.11173506191E+03  0.00000000000E+00 0.  1.
   -9000007    1    1    2    0  502 -0.12839831936E+02 -0.17612221670E+03  0.29273354889E+03  0.52619086570E+03  0.40000000000E+03 0. -1.
<mgrwt>
<rscale>  2 0.43746164E+03</rscale>
<asrwt>0</asrwt>
<pdfrwt beam="1">  1       21 0.11953376E+00 0.43753361E+03</pdfrwt>
<pdfrwt beam="2">  1       21 0.37992990E-01 0.43753361E+03</pdfrwt>
<totfact> 0.31064019E+03</totfact>
</mgrwt>
</event>
<event>
 6    1  0.9399121E-004  0.5341880E+03  0.7818608E-02  0.1005312E+00
         21   -1    0    0  503  502  0.00000000000E+00  0.00000000000E+00  0.42021226517E+03  0.42021226517E+03  0.00000000000E+00 0. -1.
         21   -1    0    0  501  503 -0.00000000000E+00 -0.00000000000E+00 -0.71614015385E+03  0.71614015385E+03  0.00000000000E+00 0.  1.
    9000007    2    1    2  501    0 -0.32974095232E+03  0.12258433803E+03 -0.28069866508E+03  0.60344722593E+03  0.40199601781E+03 0.  0.
    9000005    1    3    3    0    0 -0.14697040418E+03  0.12209573492E+03  0.73620750612E+02  0.20476494599E+03  0.99999687468E+00 0.  0.
          4    1    3    3  501    0 -0.18277054814E+03  0.48860310337E+00 -0.35431941570E+03  0.39868227994E+03  0.00000000000E+00 0.  1.
   -9000007    1    1    2    0  502  0.32974095232E+03 -0.12258433803E+03 -0.15229223595E+02  0.53290519308E+03  0.40000000000E+03 0. -1.
<mgrwt>
<rscale>  2 0.53381249E+03</rscale>
<asrwt>0</asrwt>
<pdfrwt beam="1">  1       21 0.64648041E-01 0.53418799E+03</pdfrwt>
<pdfrwt beam="2">  1       21 0.11017541E+00 0.53418799E+03</pdfrwt>
<totfact> 0.11865635E+03</totfact>
</mgrwt>
</event>
<event>
 6    1  0.9399121E-004  0.4194105E+03  0.7818608E-02  0.1037272E+00
         21   -1    0    0  503  502  0.00000000000E+00  0.00000000000E+00  0.47699315728E+03  0.47699315728E+03  0.00000000000E+00 0. -1.
         21   -1    0    0  501  503 -0.00000000000E+00 -0.00000000000E+00 -0.60670880911E+03  0.60670880911E+03  0.00000000000E+00 0. -1.
    9000007    2    1    2  501    0 -0.62858634533E+02  0.10869458717E+03 -0.40429335737E+03  0.58254466814E+03  0.40017427497E+03 0.  0.
    9000005    1    3    3    0    0 -0.10335934016E+03 -0.13543655302E+03 -0.14038643055E+03  0.22076132580E+03  0.99999687468E+00 0.  0.
          4    1    3    3  501    0  0.40500705627E+02  0.24413114019E+03 -0.26390692682E+03  0.36178334234E+03  0.00000000000E+00 0.  1.
   -9000007    1    1    2    0  502  0.62858634533E+02 -0.10869458717E+03  0.27457770554E+03  0.50115729826E+03  0.40000000000E+03 0. -1.
<mgrwt>
<rscale>  2 0.41936893E+03</rscale>
<asrwt>0</asrwt>
<pdfrwt beam="1">  1       21 0.73383563E-01 0.41941050E+03</pdfrwt>
<pdfrwt beam="2">  1       21 0.93339816E-01 0.41941050E+03</pdfrwt>
<totfact> 0.13969420E+03</totfact>
</mgrwt>
</event>
<event>
 6    1  0.9399121E-004  0.4528380E+03  0.7818608E-02  0.1026888E+00
         21   -1    0    0  503  502  0.00000000000E+00  0.00000000000E+00  0.64624677801E+03  0.64624677801E+03  0.00000000000E+00 0. -1.
         21   -1    0    0  501  503 -0.00000000000E+00 -0.00000000000E+00 -0.36663743640E+03  0.36663743640E+03  0.00000000000E+00 0. -1.
    9000007    2    1    2  501    0 -0.20939741525E+03 -0.34856435705E+02 -0.46131551507E+02  0.45505863408E+03  0.39985996522E+03 0.  0.
    9000005    1    3    3    0    0 -0.24350399888E+03  0.13114132779E+03  0.93794609579E+01  0.27673311982E+03  0.99999687468E+00 0.  0.
          4    1    3    3  501    0  0.34106583628E+02 -0.16599776349E+03 -0.55511012465E+02  0.17832551426E+03  0.00000000000E+00 0.  1.
   -9000007    1    1    2    0  502  0.20939741525E+03  0.34856435705E+02  0.32574089311E+03  0.55782558033E+03  0.40000000000E+03 0. -1.
<mgrwt>
<rscale>  2 0.45280707E+03</rscale>
<asrwt>0</asrwt>
<pdfrwt beam="1">  1       21 0.99422581E-01 0.45283799E+03</pdfrwt>
<pdfrwt beam="2">  1       21 0.56405759E-01 0.45283799E+03</pdfrwt>
<totfact> 0.21229186E+03</totfact>
</mgrwt>
</event>
<event>
 6    1  0.9399121E-004  0.5046266E+03  0.7818608E-02  0.1012899E+00
         21   -1    0    0  503  502  0.00000000000E+00  0.00000000000E+00  0.46708358225E+03  0.46708358225E+03  0.00000000000E+00 0.  1.
         21   -1    0    0  501  503 -0.00000000000E+00 -0.00000000000E+00 -0.54840084152E+03  0.54840084152E+03  0.00000000000E+00 0.  1.
    9000007    2    1    2  501    0 -0.28097343650E+03 -0.12530721648E+03  0.22925627323E+02  0.50020338402E+03  0.39373832741E+03 0.  0.
    9000005    1    3    3    0    0 -0.16162474560E+03  0.75847295111E+02 -0.12990975715E+03  0.22080062401E+03  0.99999687468E+00 0.  0.
          4    1    3    3  501    0 -0.11934869091E+03 -0.20115451159E+03  0.15283538448E+03  0.27940276001E+03  0.00000000000E+00 0.  1.
   -9000007    1    1    2    0  502  0.28097343650E+03  0.12530721648E+03 -0.10424288659E+03  0.51528103975E+03  0.40000000000E+03 0.  1.
<mgrwt>
<rscale>  2 0.50338478E+03</rscale>
<asrwt>0</asrwt>
<pdfrwt beam="1">  1       21 0.71859013E-01 0.50462657E+03</pdfrwt>
<pdfrwt beam="2">  1       21 0.84369360E-01 0.50462657E+03</pdfrwt>
<totfact> 0.18011772E+03</totfact>
</mgrwt>
</event>
<event>
 6    1  0.9399121E-004  0.5176321E+03  0.7818608E-02  0.1009429E+00
         21   -1    0    0  503  502  0.00000000000E+00  0.00000000000E+00  0.46100334347E+03  0.46100334347E+03  0.00000000000E+00 0. -1.
         21   -1    0    0  501  503 -0.00000000000E+00 -0.00000000000E+00 -0.57849814903E+03  0.57849814903E+03  0.00000000000E+00 0. -1.
    9000007    2    1    2  501    0 -0.22850769427E+03 -0.23066957679E+03 -0.61639161810E+02  0.52128911043E+03  0.40313611893E+03 0.  0.
    9000005    1    3    3    0    0 -0.31878667706E+03 -0.15614479986E+03 -0.13872955787E+03  0.38112076067E+03  0.99999687468E+00 0.  0.
          4    1    3    3  501    0  0.90278982785E+02 -0.74524776932E+02  0.77090396060E+02  0.14016834976E+03  0.00000000000E+00 0.  1.
   -9000007    1    1    2    0  502  0.22850769427E+03  0.23066957679E+03 -0.55855643752E+02  0.51821238208E+03  0.40000000000E+03 0. -1.
<mgrwt>
<rscale>  2 0.51702131E+03</rscale>
<asrwt>0</asrwt>
<pdfrwt beam="1">  1       21 0.70923592E-01 0.51763206E+03</pdfrwt>
<pdfrwt beam="2">  1       21 0.88999715E-01 0.51763206E+03</pdfrwt>
<totfact> 0.16289084E+03</totfact>
</mgrwt>
</event>
<event>
 6    1  0.9399121E-004  0.4381011E+03  0.7818608E-02  0.1031359E+00
         21   -1    0    0  503  502  0.00000000000E+00  0.00000000000E+00  0.21220596169E+04  0.21220596169E+04  0.00000000000E+00 0.  1.
         21   -1    0    0  501  503 -0.00000000000E+00 -0.00000000000E+00 -0.15307032481E+03  0.15307032481E+03  0.00000000000E+00 0. -1.
    9000007    2    1    2  501    0  0.16073707333E+03 -0.78077745082E+02  0.17123022539E+04  0.17673693912E+04  0.39960357283E+03 0.  0.
    9000005    1    3    3    0    0  0.20612697129E+03 -0.17445830526E+03  0.71337046942E+03  0.76277287262E+03  0.99999687468E+00 0.  0.
          4    1    3    3  501    0 -0.45389897961E+02  0.96380560180E+02  0.99893178447E+03  0.10045965186E+04  0.00000000000E+00 0.  1.
   -9000007    1    1    2    0  502 -0.16073707333E+03  0.78077745082E+02  0.25668703819E+03  0.50776055045E+03  0.40000000000E+03 0. -1.
<mgrwt>
<rscale>  2 0.43801055E+03</rscale>
<asrwt>0</asrwt>
<pdfrwt beam="1">  1       21 0.32647069E+00 0.43810106E+03</pdfrwt>
<pdfrwt beam="2">  1       21 0.23549282E-01 0.43810106E+03</pdfrwt>
<totfact> 0.32172696E+02</totfact>
</mgrwt>
</event>
<event>
 6    1  0.9399121E-004  0.4361944E+03  0.7818608E-02  0.1031976E+00
         21   -1    0    0  503  502  0.00000000000E+00  0.00000000000E+00  0.89039829027E+03  0.89039829027E+03  0.00000000000E+00 0. -1.
         21   -1    0    0  501  503 -0.00000000000E+00 -0.00000000000E+00 -0.28687632480E+03  0.28687632480E+03  0.00000000000E+00 0. -1.
    9000007    2    1    2  501    0 -0.13931706161E+03  0.10419360386E+03  0.35506886038E+01  0.43549898604E+03  0.39922576159E+03 0.  0.
    9000005    1    3    3    0    0  0.12552408512E+03  0.71910411027E+02 -0.67146066939E+02  0.15948980362E+03  0.99999687468E+00 0.  0.
          4    1    3    3  501    0 -0.26484114673E+03  0.32283192830E+02  0.70696755542E+02  0.27600918243E+03  0.00000000000E+00 0.  1.
   -9000007    1    1    2    0  502  0.13931706161E+03 -0.10419360386E+03  0.59997127687E+03  0.74177562903E+03  0.40000000000E+03 0. -1.
<mgrwt>
<rscale>  2 0.43601682E+03</rscale>
<asrwt>0</asrwt>
<pdfrwt beam="1">  1       21 0.13698435E+00 0.43619440E+03</pdfrwt>
<pdfrwt beam="2">  1       21 0.44134820E-01 0.43619440E+03</pdfrwt>
<totfact> 0.16038274E+03</totfact>
</mgrwt>
</event>
<event>
 6    1  0.9399121E-004  0.5594438E+03  0.7818608E-02  0.9993384E-01
         21   -1    0    0  503  502  0.00000000000E+00  0.00000000000E+00  0.36800700563E+03  0.36800700563E+03  0.00000000000E+00 0. -1.
         21   -1    0    0  501  503 -0.00000000000E+00 -0.00000000000E+00 -0.85341778761E+03  0.85341778761E+03  0.00000000000E+00 0.  1.
    9000007    2    1    2  501    0  0.20030136027E+03 -0.33594155967E+03 -0.27971798705E+03  0.62536532278E+03  0.39982779820E+03 0.  0.
    9000005    1    3    3    0    0  0.21195935902E+03 -0.41951489400E+03 -0.20547878579E+03  0.51297372990E+03  0.99999687468E+00 0.  0.
          4    1    3    3  501    0 -0.11657998746E+02  0.83573334331E+02 -0.74239201259E+02  0.11239159288E+03  0.00000000000E+00 0.  1.
   -9000007    1    1    2    0  502 -0.20030136027E+03  0.33594155967E+03 -0.20569279493E+03  0.59605947046E+03  0.40000000000E+03 0. -1.
<mgrwt>
<rscale>  2 0.55941302E+03</rscale>
<asrwt>0</asrwt>
<pdfrwt beam="1">  1       21 0.56616462E-01 0.55944380E+03</pdfrwt>
<pdfrwt beam="2">  1       21 0.13129504E+00 0.55944380E+03</pdfrwt>
<totfact> 0.10070197E+03</totfact>
</mgrwt>
</event>
<event>
 6    1  0.9399121E-004  0.5413596E+03  0.7818608E-02  0.1003582E+00
         21   -1    0    0  503  502  0.00000000000E+00  0.00000000000E+00  0.52485143719E+03  0.52485143719E+03  0.00000000000E+00 0.  1.
         21   -1    0    0  501  503 -0.00000000000E+00 -0.00000000000E+00 -0.56320775379E+03  0.56320775379E+03  0.00000000000E+00 0.  1.
    9000007    2    1    2  501    0  0.10653820004E+03 -0.34888375433E+03 -0.75395161966E+02  0.54543396289E+03  0.39842629849E+03 0.  0.
    9000005    1    3    3    0    0 -0.57939670835E+02  0.60923055112E+02 -0.60528689529E+02  0.10360186461E+03  0.99999687468E+00 0.  0.
          4    1    3    3  501    0  0.16447787087E+03 -0.40980680944E+03 -0.14866472436E+02  0.44183209828E+03  0.00000000000E+00 0.  1.
   -9000007    1    1    2    0  502 -0.10653820004E+03  0.34888375433E+03  0.37038845362E+02  0.54262522810E+03  0.40000000000E+03 0.  1.
<mgrwt>
<rscale>  2 0.54106897E+03</rscale>
<asrwt>0</asrwt>
<pdfrwt beam="1">  1       21 0.80746374E-01 0.54135964E+03</pdfrwt>
<pdfrwt beam="2">  1       21 0.86647347E-01 0.54135964E+03</pdfrwt>
<totfact> 0.12788239E+03</totfact>
</mgrwt>
</event>
<event>
 6    1  0.9399121E-004  0.4191932E+03  0.7818608E-02  0.1038553E+00
         21   -1    0    0  503  502  0.00000000000E+00  0.00000000000E+00  0.38416591816E+03  0.38416591816E+03  0.00000000000E+00 0.  1.
         21   -1    0    0  501  503 -0.00000000000E+00 -0.00000000000E+00 -0.48991058663E+03  0.48991058663E+03  0.00000000000E+00 0.  1.
    9000007    2    1    2  501    0 -0.57308412261E+02 -0.17603822803E+02  0.83656656852E+02  0.42745920695E+03  0.41488406655E+03 0.  0.
    9000005    1    3    3    0    0 -0.64400511338E+02  0.88178065688E+02 -0.14141507470E+03  0.17866734586E+03  0.99999687468E+00 0.  0.
          4    1    3    3  501    0  0.70920990773E+01 -0.10578188849E+03  0.22507173155E+03  0.24879186109E+03  0.00000000000E+00 0.  1.
   -9000007    1    1    2    0  502  0.57308412261E+02  0.17603822803E+02 -0.18940132532E+03  0.44661729784E+03  0.40000000000E+03 0.  1.
<mgrwt>
<rscale>  2 0.41546232E+03</rscale>
<asrwt>0</asrwt>
<pdfrwt beam="1">  1       21 0.59102449E-01 0.41919320E+03</pdfrwt>
<pdfrwt beam="2">  1       21 0.75370860E-01 0.41919320E+03</pdfrwt>
<totfact> 0.37208363E+03</totfact>
</mgrwt>
</event>
<event>
 6    1  0.9399121E-004  0.6346858E+03  0.7818608E-02  0.9836034E-01
         21   -1    0    0  503  502  0.00000000000E+00  0.00000000000E+00  0.27216415759E+04  0.27216415759E+04  0.00000000000E+00 0.  1.
         21   -1    0    0  501  503 -0.00000000000E+00 -0.00000000000E+00 -0.14832601277E+03  0.14832601277E+03  0.00000000000E+00 0. -1.
    9000007    2    1    2  501    0 -0.44031515852E+03 -0.22072865078E+03  0.12162104973E+04  0.13718578678E+04  0.40028422354E+03 0.  0.
    9000005    1    3    3    0    0 -0.17331142925E+03 -0.30814858877E+03  0.66091609222E+03  0.74953551298E+03  0.99999687468E+00 0.  0.
          4    1    3    3  501    0 -0.26700372926E+03  0.87419937986E+02  0.55529440505E+03  0.62232235479E+03  0.00000000000E+00 0.  1.
   -9000007    1    1    2    0  502  0.44031515852E+03  0.22072865078E+03  0.13571050659E+04  0.14981097210E+04  0.40000000000E+03 0. -1.
<mgrwt>
<rscale>  2 0.63464097E+03</rscale>
<asrwt>0</asrwt>
<pdfrwt beam="1">  1       21 0.41871405E+00 0.63468578E+03</pdfrwt>
<pdfrwt beam="2">  1       21 0.22819389E-01 0.63468578E+03</pdfrwt>
<totfact> 0.80495207E+01</totfact>
</mgrwt>
</event>
<event>
 6    1  0.9399121E-004  0.7350322E+03  0.7818608E-02  0.9659222E-01
         21   -1    0    0  503  502  0.00000000000E+00  0.00000000000E+00  0.41398390019E+03  0.41398390019E+03  0.00000000000E+00 0. -1.
         21   -1    0    0  501  503 -0.00000000000E+00 -0.00000000000E+00 -0.17706540819E+04  0.17706540819E+04  0.00000000000E+00 0. -1.
    9000007    2    1    2  501    0  0.43628291602E+03  0.43541911795E+03 -0.12387894095E+04  0.14404414573E+04  0.40042452437E+03 0.  0.
    9000005    1    3    3    0    0  0.56040669014E+02  0.33655915487E+03 -0.61249191915E+03  0.70111338051E+03  0.99999687468E+00 0.  0.
          4    1    3    3  501    0  0.38024224701E+03  0.98859963084E+02 -0.62629749036E+03  0.73932807679E+03  0.00000000000E+00 0.  1.
   -9000007    1    1    2    0  502 -0.43628291602E+03 -0.43541911795E+03 -0.11788077224E+03  0.74419652482E+03  0.40000000000E+03 0. -1.
<mgrwt>
<rscale>  2 0.73497444E+03</rscale>
<asrwt>0</asrwt>
<pdfrwt beam="1">  1       21 0.63689831E-01 0.73503224E+03</pdfrwt>
<pdfrwt beam="2">  1       21 0.27240832E+00 0.73503224E+03</pdfrwt>
<totfact> 0.76074398E+01</totfact>
</mgrwt>
</event>
<event>
 6    1  0.9399121E-004  0.6429593E+03  0.7818608E-02  0.9820263E-01
         21   -1    0    0  503  502  0.00000000000E+00  0.00000000000E+00  0.25914358019E+03  0.25914358019E+03  0.00000000000E+00 0.  1.
         21   -1    0    0  501  503 -0.00000000000E+00 -0.00000000000E+00 -0.16321719326E+04  0.16321719326E+04  0.00000000000E+00 0.  1.
    9000007    2    1    2  501    0 -0.12936160439E+03  0.48597416893E+03 -0.83077471557E+03  0.10505157006E+04  0.40061364374E+03 0.  0.
    9000005    1    3    3    0    0 -0.84385316625E+02  0.21325517066E+03 -0.71493424235E+03  0.75081996534E+03  0.99999687468E+00 0.  0.
          4    1    3    3  501    0 -0.44976287762E+02  0.27271899826E+03 -0.11584047322E+03  0.29969573522E+03  0.00000000000E+00 0.  1.
   -9000007    1    1    2    0  502  0.12936160439E+03 -0.48597416893E+03 -0.54225363681E+03  0.84079981220E+03  0.40000000000E+03 0.  1.
<mgrwt>
<rscale>  2 0.64286370E+03</rscale>
<asrwt>0</asrwt>
<pdfrwt beam="1">  1       21 0.39868243E-01 0.64295926E+03</pdfrwt>
<pdfrwt beam="2">  1       21 0.25110338E+00 0.64295926E+03</pdfrwt>
<totfact> 0.29244578E+02</totfact>
</mgrwt>
</event>
<event>
 6    1  0.9399121E-004  0.4107371E+03  0.7818608E-02  0.1040130E+00
         21   -1    0    0  503  502  0.00000000000E+00  0.00000000000E+00  0.15431263245E+04  0.15431263245E+04  0.00000000000E+00 0.  1.
         21   -1    0    0  501  503 -0.00000000000E+00 -0.00000000000E+00 -0.12105422316E+03  0.12105422316E+03  0.00000000000E+00 0.  1.
    9000007    2    1    2  501    0  0.87385602128E+02  0.32690703993E+02  0.45177855442E+03  0.61053236503E+03  0.39992621935E+03 0.  0.
    9000005    1    3    3    0    0  0.29920757650E+02 -0.57335610166E+02  0.49212873839E+03  0.49636107731E+03  0.99999687468E+00 0.  0.
          4    1    3    3  501    0  0.57464844478E+02  0.90026314160E+02 -0.40350183967E+02  0.11417128771E+03  0.00000000000E+00 0.  1.
   -9000007    1    1    2    0  502 -0.87385602128E+02 -0.32690703993E+02  0.97029354693E+03  0.10536481827E+04  0.40000000000E+03 0.  1.
<mgrwt>
<rscale>  2 0.41071909E+03</rscale>
<asrwt>0</asrwt>
<pdfrwt beam="1">  1       21 0.23740404E+00 0.41073705E+03</pdfrwt>
<pdfrwt beam="2">  1       21 0.18623728E-01 0.41073705E+03</pdfrwt>
<totfact> 0.17674360E+03</totfact>
</mgrwt>
</event>
<event>
 6    1  0.9399121E-004  0.4488702E+03  0.7818608E-02  0.1028146E+00
         21   -1    0    0  503  502  0.00000000000E+00  0.00000000000E+00  0.21965079498E+03  0.21965079498E+03  0.00000000000E+00 0.  1.
         21   -1    0    0  501  503 -0.00000000000E+00 -0.00000000000E+00 -0.93855727671E+03  0.93855727671E+03  0.00000000000E+00 0.  1.
    9000007    2    1    2  501    0  0.75009702877E+02  0.18660911411E+03 -0.45177347103E+03  0.63685458086E+03  0.40129175302E+03 0.  0.
    9000005    1    3    3    0    0 -0.65535256496E+02 -0.10218107301E+03 -0.79152185498E+02  0.14492035740E+03  0.99999687468E+00 0.  0.
          4    1    3    3  501    0  0.14054495937E+03  0.28879018712E+03 -0.37262128553E+03  0.49193422346E+03  0.00000000000E+00 0.  1.
   -9000007    1    1    2    0  502 -0.75009702877E+02 -0.18660911411E+03 -0.26713301070E+03  0.52135349083E+03  0.40000000000E+03 0.  1.
<mgrwt>
<rscale>  2 0.44858134E+03</rscale>
<asrwt>0</asrwt>
<pdfrwt beam="1">  1       21 0.33792430E-01 0.44887024E+03</pdfrwt>
<pdfrwt beam="2">  1       21 0.14439343E+00 0.44887024E+03</pdfrwt>
<totfact> 0.23973449E+03</totfact>
</mgrwt>
</event>
<event>
 6    1  0.9399121E-004  0.4741578E+03  0.7818608E-02  0.1020830E+00
         21   -1    0    0  503  502  0.00000000000E+00  0.00000000000E+00  0.47673155852E+03  0.47673155852E+03  0.00000000000E+00 0.  1.
         21   -1    0    0  501  503 -0.00000000000E+00 -0.00000000000E+00 -0.47916786220E+03  0.47916786220E+03  0.00000000000E+00 0.  1.
    9000007    2    1    2  501    0 -0.21299861163E+03 -0.13569019610E+03 -0.65498977288E+02  0.47866034156E+03  0.40130458344E+03 0.  0.
    9000005    1    3    3    0    0 -0.44740187780E+02 -0.14541655868E+03  0.14420163622E+03  0.20962531293E+03  0.99999687468E+00 0.  0.
          4    1    3    3  501    0 -0.16825842385E+03  0.97263625793E+01 -0.20970061351E+03  0.26903502863E+03  0.00000000000E+00 0.  1.
   -9000007    1    1    2    0  502  0.21299861163E+03  0.13569019610E+03  0.63062673613E+02  0.47723907916E+03  0.40000000000E+03 0.  1.
<mgrwt>
<rscale>  2 0.47388164E+03</rscale>
<asrwt>0</asrwt>
<pdfrwt beam="1">  1       21 0.73343317E-01 0.47415779E+03</pdfrwt>
<pdfrwt beam="2">  1       21 0.73718132E-01 0.47415779E+03</pdfrwt>
<totfact> 0.23725825E+03</totfact>
</mgrwt>
</event>
<event>
 6    1  0.9399121E-004  0.4121843E+03  0.7818608E-02  0.1039676E+00
         21   -1    0    0  503  502  0.00000000000E+00  0.00000000000E+00  0.17884531469E+04  0.17884531469E+04  0.00000000000E+00 0. -1.
         21   -1    0    0  501  503 -0.00000000000E+00 -0.00000000000E+00 -0.16458354586E+03  0.16458354586E+03  0.00000000000E+00 0. -1.
    9000007    2    1    2  501    0  0.99444761330E+02 -0.25766405839E+01  0.17627878099E+03  0.44790710301E+03  0.39956309223E+03 0.  0.
    9000005    1    3    3    0    0 -0.13824763179E+03 -0.40261400573E+02 -0.88680879574E+01  0.14426722098E+03  0.99999687468E+00 0.  0.
          4    1    3    3  501    0  0.23769239312E+03  0.37684759989E+02  0.18514686894E+03  0.30363988203E+03  0.00000000000E+00 0.  1.
   -9000007    1    1    2    0  502 -0.99444761330E+02  0.25766405839E+01  0.14475908201E+04  0.15051295898E+04  0.40000000000E+03 0. -1.
<mgrwt>
<rscale>  2 0.41207827E+03</rscale>
<asrwt>0</asrwt>
<pdfrwt beam="1">  1       21 0.27514662E+00 0.41218430E+03</pdfrwt>
<pdfrwt beam="2">  1       21 0.25320547E-01 0.41218430E+03</pdfrwt>
<totfact> 0.57753659E+02</totfact>
</mgrwt>
</event>
<event>
 6    1  0.9399121E-004  0.4007055E+03  0.7818608E-02  0.1043562E+00
         21   -1    0    0  503  502  0.00000000000E+00  0.00000000000E+00  0.17579031686E+04  0.17579031686E+04  0.00000000000E+00 0. -1.
         21   -1    0    0  501  503 -0.00000000000E+00 -0.00000000000E+00 -0.24115338053E+03  0.24115338053E+03  0.00000000000E+00 0. -1.
    9000007    2    1    2  501    0 -0.17602745243E+02  0.32714543345E+01 -0.29515521756E+02  0.40179108359E+03  0.40030532069E+03 0.  0.
    9000005    1    3    3    0    0 -0.13307893806E+03  0.11822166932E+03 -0.12070305684E+03  0.21507346367E+03  0.99999687468E+00 0.  0.
          4    1    3    3  501    0  0.11547619282E+03 -0.11495021499E+03  0.91187535080E+02  0.18671761992E+03  0.00000000000E+00 0.  1.
   -9000007    1    1    2    0  502  0.17602745243E+02 -0.32714543345E+01  0.15462653098E+04  0.15972654655E+04  0.40000000000E+03 0. -1.
<mgrwt>
<rscale>  2 0.40062924E+03</rscale>
<asrwt>0</asrwt>
<pdfrwt beam="1">  1       21 0.27044663E+00 0.40070551E+03</pdfrwt>
<pdfrwt beam="2">  1       21 0.37100521E-01 0.40070551E+03</pdfrwt>
<totfact> 0.29052264E+02</totfact>
</mgrwt>
</event>
<event>
 6    1  0.9399121E-004  0.4685374E+03  0.7818608E-02  0.1022342E+00
         21   -1    0    0  503  502  0.00000000000E+00  0.00000000000E+00  0.29321176776E+03  0.29321176776E+03  0.00000000000E+00 0.  1.
         21   -1    0    0  501  503 -0.00000000000E+00 -0.00000000000E+00 -0.78865108532E+03  0.78865108532E+03  0.00000000000E+00 0.  1.
    9000007    2    1    2  501    0 -0.14757497076E+03 -0.19400718513E+03 -0.12571280711E+03  0.48510925871E+03  0.40013763024E+03 0.  0.
    9000005    1    3    3    0    0 -0.50683864104E+02 -0.68381478050E+02  0.14684925458E+03  0.16973680857E+03  0.99999687468E+00 0.  0.
          4    1    3    3  501    0 -0.96891106651E+02 -0.12562570708E+03 -0.27256206169E+03  0.31537245013E+03  0.00000000000E+00 0.  1.
   -9000007    1    1    2    0  502  0.14757497076E+03  0.19400718513E+03 -0.36972651045E+03  0.59675359438E+03  0.40000000000E+03 0. -1.
<mgrwt>
<rscale>  2 0.46850800E+03</rscale>
<asrwt>0</asrwt>
<pdfrwt beam="1">  1       21 0.45109503E-01 0.46853739E+03</pdfrwt>
<pdfrwt beam="2">  1       21 0.12133094E+00 0.46853739E+03</pdfrwt>
<totfact> 0.20718399E+03</totfact>
</mgrwt>
</event>
<event>
 6    1  0.9399121E-004  0.4444896E+03  0.7818608E-02  0.1029389E+00
         21   -1    0    0  503  502  0.00000000000E+00  0.00000000000E+00  0.67436233422E+03  0.67436233422E+03  0.00000000000E+00 0. -1.
         21   -1    0    0  501  503 -0.00000000000E+00 -0.00000000000E+00 -0.37523983777E+03  0.37523983777E+03  0.00000000000E+00 0.  1.
    9000007    2    1    2  501    0 -0.19313161695E+03  0.16467384000E+02 -0.96316724652E+02  0.45467093748E+03  0.39984716298E+03 0.  0.
    9000005    1    3    3    0    0  0.79570372124E+01 -0.14344109640E+03 -0.13222905959E+03  0.19525415942E+03  0.99999687468E+00 0.  0.
          4    1    3    3  501    0 -0.20108865417E+03  0.15990848040E+03  0.35912334936E+02  0.25941677806E+03  0.00000000000E+00 0.  1.
   -9000007    1    1    2    0  502  0.19313161695E+03 -0.16467384000E+02  0.39543922110E+03  0.59493123450E+03  0.40000000000E+03 0. -1.
<mgrwt>
<rscale>  2 0.44445520E+03</rscale>
<asrwt>0</asrwt>
<pdfrwt beam="1">  1       21 0.10374805E+00 0.44448959E+03</pdfrwt>
<pdfrwt beam="2">  1       21 0.57729206E-01 0.44448959E+03</pdfrwt>
<totfact> 0.18249456E+03</totfact>
</mgrwt>
</event>
<event>
 6    1  0.9399121E-004  0.4034443E+03  0.7818608E-02  0.1042602E+00
         21   -1    0    0  503  502  0.00000000000E+00  0.00000000000E+00  0.43798234528E+03  0.43798234528E+03  0.00000000000E+00 0.  1.
         21   -1    0    0  501  503 -0.00000000000E+00 -0.00000000000E+00 -0.41793988474E+03  0.41793988474E+03  0.00000000000E+00 0.  1.
    9000007    2    1    2  501    0  0.50498065330E+02  0.11551487475E+02 -0.13258207431E+03  0.42467086468E+03  0.40010479305E+03 0.  0.
    9000005    1    3    3    0    0  0.11223926267E+03 -0.98864581263E+02  0.85694615413E+02  0.17238452546E+03  0.99999687468E+00 0.  0.
          4    1    3    3  501    0 -0.61741197338E+02  0.11041606874E+03 -0.21827668972E+03  0.25228633923E+03  0.00000000000E+00 0.  1.
   -9000007    1    1    2    0  502 -0.50498065330E+02 -0.11551487475E+02  0.15262453485E+03  0.43125136533E+03  0.40000000000E+03 0.  1.
<mgrwt>
<rscale>  2 0.40341836E+03</rscale>
<asrwt>0</asrwt>
<pdfrwt beam="1">  1       21 0.67381899E-01 0.40344434E+03</pdfrwt>
<pdfrwt beam="2">  1       21 0.64298444E-01 0.40344434E+03</pdfrwt>
<totfact> 0.40041068E+03</totfact>
</mgrwt>
</event>
<event>
 6    1  0.9399121E-004  0.5826681E+03  0.7818608E-02  0.9943737E-01
         21   -1    0    0  503  502  0.00000000000E+00  0.00000000000E+00  0.33403930670E+03  0.33403930670E+03  0.00000000000E+00 0. -1.
         21   -1    0    0  501  503 -0.00000000000E+00 -0.00000000000E+00 -0.12444323163E+04  0.12444323163E+04  0.00000000000E+00 0. -1.
    9000007    2    1    2  501    0  0.24371758224E+03  0.34656005098E+03 -0.11225725775E+03  0.59027993755E+03  0.39538156751E+03 0.  0.
    9000005    1    3    3    0    0  0.33215415203E+03  0.24151518174E+03  0.34832315928E+01  0.41069343386E+03  0.99999687468E+00 0.  0.
          4    1    3    3  501    0 -0.88436569796E+02  0.10504486924E+03 -0.11574048935E+03  0.17958650368E+03  0.00000000000E+00 0.  1.
   -9000007    1    1    2    0  502 -0.24371758224E+03 -0.34656005098E+03 -0.79813575180E+03  0.98819168542E+03  0.40000000000E+03 0. -1.
<mgrwt>
<rscale>  2 0.58187630E+03</rscale>
<asrwt>0</asrwt>
<pdfrwt beam="1">  1       21 0.51390662E-01 0.58266811E+03</pdfrwt>
<pdfrwt beam="2">  1       21 0.19145113E+00 0.58266811E+03</pdfrwt>
<totfact> 0.42724232E+02</totfact>
</mgrwt>
</event>
<event>
 6    1  0.9399121E-004  0.4525227E+03  0.7818608E-02  0.1027000E+00
         21   -1    0    0  503  502  0.00000000000E+00  0.00000000000E+00  0.35709820292E+03  0.35709820292E+03  0.00000000000E+00 0.  1.
         21   -1    0    0  501  503 -0.00000000000E+00 -0.00000000000E+00 -0.89549023796E+03  0.89549023796E+03  0.00000000000E+00 0.  1.
    9000007    2    1    2  501    0 -0.82406293208E+02 -0.19489997301E+03 -0.64497919309E+03  0.78768240854E+03  0.39958556101E+03 0.  0.
    9000005    1    3    3    0    0 -0.81835566716E+02  0.83719779130E+02 -0.39965380226E+03  0.41644954442E+03  0.99999687468E+00 0.  0.
          4    1    3    3  501    0 -0.57072649156E+00 -0.27861975214E+03 -0.24532539083E+03  0.37123286412E+03  0.00000000000E+00 0.  1.
   -9000007    1    1    2    0  502  0.82406293208E+02  0.19489997301E+03  0.10658715805E+03  0.46490603234E+03  0.40000000000E+03 0.  1.
<mgrwt>
<rscale>  2 0.45243110E+03</rscale>
<asrwt>0</asrwt>
<pdfrwt beam="1">  1       21 0.54938186E-01 0.45252270E+03</pdfrwt>
<pdfrwt beam="2">  1       21 0.13776773E+00 0.45252270E+03</pdfrwt>
<totfact> 0.98590144E+02</totfact>
</mgrwt>
</event>
<event>
 6    1  0.9399121E-004  0.4569738E+03  0.7818608E-02  0.1025664E+00
         21   -1    0    0  503  502  0.00000000000E+00  0.00000000000E+00  0.40630356620E+03  0.40630356620E+03  0.00000000000E+00 0. -1.
         21   -1    0    0  501  503 -0.00000000000E+00 -0.00000000000E+00 -0.63213503515E+03  0.63213503515E+03  0.00000000000E+00 0. -1.
    9000007    2    1    2  501    0 -0.51138170649E+01  0.22085612357E+03 -0.33743626911E+03  0.56805661843E+03  0.40002688359E+03 0.  0.
    9000005    1    3    3    0    0  0.48813991026E+02 -0.10078998761E+03 -0.16422839915E+03  0.19877976357E+03  0.99999687468E+00 0.  0.
          4    1    3    3  501    0 -0.53927808091E+02  0.32164611118E+03 -0.17320786996E+03  0.36927685486E+03  0.00000000000E+00 0.  1.
   -9000007    1    1    2    0  502  0.51138170649E+01 -0.22085612357E+03  0.11160480015E+03  0.47038198292E+03  0.40000000000E+03 0. -1.
<mgrwt>
<rscale>  2 0.45696795E+03</rscale>
<asrwt>0</asrwt>
<pdfrwt beam="1">  1       21 0.62508241E-01 0.45697384E+03</pdfrwt>
<pdfrwt beam="2">  1       21 0.97251544E-01 0.45697384E+03</pdfrwt>
<totfact> 0.17856604E+03</totfact>
</mgrwt>
</event>
<event>
 6    1  0.9399121E-004  0.5561041E+03  0.7818608E-02  0.1000115E+00
         21   -1    0    0  503  502  0.00000000000E+00  0.00000000000E+00  0.68809558870E+03  0.68809558870E+03  0.00000000000E+00 0.  1.
         21   -1    0    0  501  503 -0.00000000000E+00 -0.00000000000E+00 -0.46609984670E+03  0.46609984670E+03  0.00000000000E+00 0.  1.
    9000007    2    1    2  501    0 -0.11256588576E+03  0.36956832144E+03  0.70006558517E+00  0.55567760004E+03  0.39940616200E+03 0.  0.
    9000005    1    3    3    0    0 -0.11940628329E+03  0.16500398349E+03  0.18877780655E+03  0.27770890388E+03  0.99999687468E+00 0.  0.
          4    1    3    3  501    0  0.68403975335E+01  0.20456433794E+03 -0.18807774096E+03  0.27796869615E+03  0.00000000000E+00 0.  1.
   -9000007    1    1    2    0  502  0.11256588576E+03 -0.36956832144E+03  0.22129567642E+03  0.59851783536E+03  0.40000000000E+03 0.  1.
<mgrwt>
<rscale>  2 0.55599737E+03</rscale>
<asrwt>0</asrwt>
<pdfrwt beam="1">  1       21 0.10586086E+00 0.55610415E+03</pdfrwt>
<pdfrwt beam="2">  1       21 0.71707669E-01 0.55610415E+03</pdfrwt>
<totfact> 0.10303066E+03</totfact>
</mgrwt>
</event>
<event>
 6    1  0.9399121E-004  0.6328967E+03  0.7818608E-02  0.9839692E-01
         21   -1    0    0  503  502  0.00000000000E+00  0.00000000000E+00  0.13014041243E+04  0.13014041243E+04  0.00000000000E+00 0. -1.
         21   -1    0    0  501  503 -0.00000000000E+00 -0.00000000000E+00 -0.54408690097E+03  0.54408690097E+03  0.00000000000E+00 0.  1.
    9000007    2    1    2  501    0  0.48089835892E+03  0.92549271726E+02 -0.22970796159E+03  0.67329338196E+03  0.40091100168E+03 0.  0.
    9000005    1    3    3    0    0  0.17666903813E+03  0.17428779382E+03  0.48670556871E+02  0.25289920365E+03  0.99999687468E+00 0.  0.
          4    1    3    3  501    0  0.30422932078E+03 -0.81738522089E+02 -0.27837851846E+03  0.42039417831E+03  0.00000000000E+00 0.  1.
   -9000007    1    1    2    0  502 -0.48089835892E+03 -0.92549271726E+02  0.98702518490E+03  0.11721976433E+04  0.40000000000E+03 0. -1.
<mgrwt>
<rscale>  2 0.63275248E+03</rscale>
<asrwt>0</asrwt>
<pdfrwt beam="1">  1       21 0.20021602E+00 0.63289670E+03</pdfrwt>
<pdfrwt beam="2">  1       21 0.83705677E-01 0.63289670E+03</pdfrwt>
<totfact> 0.12226819E+02</totfact>
</mgrwt>
</event>
<event>
 6    1  0.9399121E-004  0.4386100E+03  0.7818608E-02  0.1031306E+00
         21   -1    0    0  503  502  0.00000000000E+00  0.00000000000E+00  0.22742125574E+03  0.22742125574E+03  0.00000000000E+00 0. -1.
         21   -1    0    0  501  503 -0.00000000000E+00 -0.00000000000E+00 -0.14551094302E+04  0.14551094302E+04  0.00000000000E+00 0. -1.
    9000007    2    1    2  501    0 -0.17445185728E+03  0.44105548654E+02 -0.67354495136E+02  0.44206585480E+03  0.39812917758E+03 0.  0.
    9000005    1    3    3    0    0 -0.16239194135E+03 -0.22708641227E+00  0.14929838070E+03  0.22059510569E+03  0.99999687468E+00 0.  0.
          4    1    3    3  501    0 -0.12059915927E+02  0.44332635066E+02 -0.21665287583E+03  0.22147074911E+03  0.00000000000E+00 0.  1.
   -9000007    1    1    2    0  502  0.17445185728E+03 -0.44105548654E+02 -0.11603336794E+04  0.12404648312E+04  0.40000000000E+03 0. -1.
<mgrwt>
<rscale>  2 0.43818303E+03</rscale>
<asrwt>0</asrwt>
<pdfrwt beam="1">  1       21 0.34987886E-01 0.43861002E+03</pdfrwt>
<pdfrwt beam="2">  1       21 0.22386299E+00 0.43861002E+03</pdfrwt>
<totfact> 0.61940291E+02</totfact>
</mgrwt>
</event>
<event>
 6    1  0.9399121E-004  0.4678167E+03  0.7818608E-02  0.1022627E+00
         21   -1    0    0  503  502  0.00000000000E+00  0.00000000000E+00  0.34077636099E+03  0.34077636099E+03  0.00000000000E+00 0.  1.
         21   -1    0    0  501  503 -0.00000000000E+00 -0.00000000000E+00 -0.87890500860E+03  0.87890500860E+03  0.00000000000E+00 0. -1.
    9000007    2    1    2  501    0  0.89474735175E+02 -0.22549226453E+03 -0.58641308497E+03  0.74937947029E+03  0.39854334101E+03 0.  0.
    9000005    1    3    3    0    0 -0.10506192698E+03 -0.40836120746E+02 -0.94513100532E+01  0.11311907228E+03  0.99999687468E+00 0.  0.
          4    1    3    3  501    0  0.19453666215E+03 -0.18465614379E+03 -0.57696177492E+03  0.63626039801E+03  0.00000000000E+00 0.  1.
   -9000007    1    1    2    0  502 -0.89474735175E+02  0.22549226453E+03  0.48284437368E+02  0.47030189931E+03  0.40000000000E+03 0. -1.
<mgrwt>
<rscale>  2 0.46750519E+03</rscale>
<asrwt>0</asrwt>
<pdfrwt beam="1">  1       21 0.52427133E-01 0.46781673E+03</pdfrwt>
<pdfrwt beam="2">  1       21 0.13521615E+00 0.46781673E+03</pdfrwt>
<totfact> 0.11381405E+03</totfact>
</mgrwt>
</event>
<event>
 6    1  0.9399121E-004  0.5589848E+03  0.7818608E-02  0.9994430E-01
         21   -1    0    0  503  502  0.00000000000E+00  0.00000000000E+00  0.56202324470E+03  0.56202324470E+03  0.00000000000E+00 0.  1.
         21   -1    0    0  501  503 -0.00000000000E+00 -0.00000000000E+00 -0.69742254392E+03  0.69742254392E+03  0.00000000000E+00 0. -1.
    9000007    2    1    2  501    0  0.38861392753E+03 -0.35958748841E+02 -0.35144768492E+03  0.66028744456E+03  0.40018772835E+03 0.  0.
    9000005    1    3    3    0    0  0.11952443955E+03 -0.16699256871E+03 -0.28901665816E+03  0.35454793518E+03  0.99999687468E+00 0.  0.
          4    1    3    3  501    0  0.26908948799E+03  0.13103381987E+03 -0.62431026758E+02  0.30573950938E+03  0.00000000000E+00 0.  1.
   -9000007    1    1    2    0  502 -0.38861392753E+03  0.35958748841E+02  0.21604838569E+03  0.59915834406E+03  0.40000000000E+03 0.  1.
<mgrwt>
<rscale>  2 0.55895123E+03</rscale>
<asrwt>0</asrwt>
<pdfrwt beam="1">  1       21 0.86465115E-01 0.55898482E+03</pdfrwt>
<pdfrwt beam="2">  1       21 0.10729578E+00 0.55898482E+03</pdfrwt>
<totfact> 0.64542313E+02</totfact>
</mgrwt>
</event>
<event>
 6    1  0.9399121E-004  0.4105307E+03  0.7818608E-02  0.1040209E+00
         21   -1    0    0  503  502  0.00000000000E+00  0.00000000000E+00  0.39011494793E+03  0.39011494793E+03  0.00000000000E+00 0. -1.
         21   -1    0    0  501  503 -0.00000000000E+00 -0.00000000000E+00 -0.43340055900E+03  0.43340055900E+03  0.00000000000E+00 0. -1.
    9000007    2    1    2  501    0 -0.79484680662E+02  0.45403821731E+02 -0.46554706293E+02  0.41316199047E+03  0.40019516265E+03 0.  0.
    9000005    1    3    3    0    0 -0.21260469223E+03  0.38026518297E+02  0.79047505835E+02  0.22999191165E+03  0.99999687468E+00 0.  0.
          4    1    3    3  501    0  0.13312001157E+03  0.73773034338E+01 -0.12560221213E+03  0.18317007882E+03  0.00000000000E+00 0.  1.
   -9000007    1    1    2    0  502  0.79484680662E+02 -0.45403821731E+02  0.32690952279E+01  0.41035351646E+03  0.40000000000E+03 0. -1.
<mgrwt>
<rscale>  2 0.41048317E+03</rscale>
<asrwt>0</asrwt>
<pdfrwt beam="1">  1       21 0.60017685E-01 0.41053074E+03</pdfrwt>
<pdfrwt beam="2">  1       21 0.66677009E-01 0.41053074E+03</pdfrwt>
<totfact> 0.47572194E+03</totfact>
</mgrwt>
</event>
<event>
 6    1  0.9399121E-004  0.5167045E+03  0.7818608E-02  0.1009512E+00
         21   -1    0    0  503  502  0.00000000000E+00  0.00000000000E+00  0.13975546384E+04  0.13975546384E+04  0.00000000000E+00 0. -1.
         21   -1    0    0  501  503 -0.00000000000E+00 -0.00000000000E+00 -0.20037274206E+03  0.20037274206E+03  0.00000000000E+00 0. -1.
    9000007    2    1    2  501    0  0.20028371691E+03  0.25849540255E+03  0.42598756709E+03  0.66966333729E+03  0.40006266708E+03 0.  0.
    9000005    1    3    3    0    0  0.13426749676E+02  0.23949046987E+03  0.43823055989E+02  0.24383892839E+03  0.99999687468E+00 0.  0.
          4    1    3    3  501    0  0.18685696724E+03  0.19004932680E+02  0.38216451110E+03  0.42582440890E+03  0.00000000000E+00 0.  1.
   -9000007    1    1    2    0  502 -0.20028371691E+03 -0.25849540255E+03  0.77119432929E+03  0.92826404322E+03  0.40000000000E+03 0. -1.
<mgrwt>
<rscale>  2 0.51669241E+03</rscale>
<asrwt>0</asrwt>
<pdfrwt beam="1">  1       21 0.21500840E+00 0.51670454E+03</pdfrwt>
<pdfrwt beam="2">  1       21 0.30826577E-01 0.51670454E+03</pdfrwt>
<totfact> 0.87863004E+02</totfact>
</mgrwt>
</event>
<event>
 6    1  0.9399121E-004  0.4359144E+03  0.7818608E-02  0.1032116E+00
         21   -1    0    0  503  502  0.00000000000E+00  0.00000000000E+00  0.91470660579E+03  0.91470660579E+03  0.00000000000E+00 0. -1.
         21   -1    0    0  501  503 -0.00000000000E+00 -0.00000000000E+00 -0.24387008640E+03  0.24387008640E+03  0.00000000000E+00 0. -1.
    9000007    2    1    2  501    0  0.16879939820E+03  0.17878649875E+02  0.11087101285E+03  0.44979304998E+03  0.40150781233E+03 0.  0.
    9000005    1    3    3    0    0  0.25893048168E+03  0.12025737334E+03  0.20623031994E+02  0.28623965418E+03  0.99999687468E+00 0.  0.
          4    1    3    3  501    0 -0.90131083475E+02 -0.10237872347E+03  0.90247980852E+02  0.16355339579E+03  0.00000000000E+00 0.  1.
   -9000007    1    1    2    0  502 -0.16879939820E+03 -0.17878649875E+02  0.55996550655E+03  0.70878364222E+03  0.40000000000E+03 0. -1.
<mgrwt>
<rscale>  2 0.43556693E+03</rscale>
<asrwt>0</asrwt>
<pdfrwt beam="1">  1       21 0.14072409E+00 0.43591445E+03</pdfrwt>
<pdfrwt beam="2">  1       21 0.37518475E-01 0.43591445E+03</pdfrwt>
<totfact> 0.20880798E+03</totfact>
</mgrwt>
</event>
<event>
 6    1  0.9399121E-004  0.4605053E+03  0.7818608E-02  0.1024711E+00
         21   -1    0    0  503  502  0.00000000000E+00  0.00000000000E+00  0.37098496714E+03  0.37098496714E+03  0.00000000000E+00 0. -1.
         21   -1    0    0  501  503 -0.00000000000E+00 -0.00000000000E+00 -0.90130299094E+03  0.90130299094E+03  0.00000000000E+00 0.  1.
    9000007    2    1    2  501    0 -0.21731286649E+02  0.22500100029E+03 -0.65084775595E+03  0.79728783673E+03  0.40120742044E+03 0.  0.
    9000005    1    3    3    0    0 -0.43970207613E+01  0.22069745735E+03 -0.93622992448E+02  0.23977690919E+03  0.99999687468E+00 0.  0.
          4    1    3    3  501    0 -0.17334265888E+02  0.43035429379E+01 -0.55722476351E+03  0.55751092754E+03  0.00000000000E+00 0.  1.
   -9000007    1    1    2    0  502  0.21731286649E+02 -0.22500100029E+03  0.12052973216E+03  0.47500012135E+03  0.40000000000E+03 0. -1.
<mgrwt>
<rscale>  2 0.46024214E+03</rscale>
<asrwt>0</asrwt>
<pdfrwt beam="1">  1       21 0.57074611E-01 0.46050526E+03</pdfrwt>
<pdfrwt beam="2">  1       21 0.13866200E+00 0.46050526E+03</pdfrwt>
<totfact> 0.88926995E+02</totfact>
</mgrwt>
</event>
<event>
 6    1  0.9399121E-004  0.5440018E+03  0.7818608E-02  0.1002953E+00
         21   -1    0    0  503  502  0.00000000000E+00  0.00000000000E+00  0.61161918983E+03  0.61161918983E+03  0.00000000000E+00 0.  1.
         21   -1    0    0  501  503 -0.00000000000E+00 -0.00000000000E+00 -0.51619178242E+03  0.51619178242E+03  0.00000000000E+00 0. -1.
    9000007    2    1    2  501    0 -0.23762413434E+03 -0.28190909798E+03 -0.95467511717E+02  0.55128791209E+03  0.39858041532E+03 0.  0.
    9000005    1    3    3    0    0  0.76721566584E+02 -0.20563753130E+03 -0.37257118211E+02  0.22262543859E+03  0.99999687468E+00 0.  0.
          4    1    3    3  501    0 -0.31434570093E+03 -0.76271566682E+02 -0.58210393506E+02  0.32866247350E+03  0.00000000000E+00 0.  1.
   -9000007    1    1    2    0  502  0.23762413434E+03  0.28190909798E+03  0.19089491913E+03  0.57652306016E+03  0.40000000000E+03 0. -1.
<mgrwt>
<rscale>  2 0.54374088E+03</rscale>
<asrwt>0</asrwt>
<pdfrwt beam="1">  1       21 0.94095260E-01 0.54400181E+03</pdfrwt>
<pdfrwt beam="2">  1       21 0.79414120E-01 0.54400181E+03</pdfrwt>
<totfact> 0.10912302E+03</totfact>
</mgrwt>
</event>
<event>
 6    1  0.9399121E-004  0.4597970E+03  0.7818608E-02  0.1024865E+00
         21   -1    0    0  503  502  0.00000000000E+00  0.00000000000E+00  0.54120764851E+03  0.54120764851E+03  0.00000000000E+00 0.  1.
         21   -1    0    0  501  503 -0.00000000000E+00 -0.00000000000E+00 -0.45738611027E+03  0.45738611027E+03  0.00000000000E+00 0.  1.
    9000007    2    1    2  501    0 -0.21300614507E+03  0.75674510993E+02 -0.14923705680E+03  0.48340975460E+03  0.40039360918E+03 0.  0.
    9000005    1    3    3    0    0  0.81148813722E+02 -0.82699295758E+02 -0.83764114068E+02  0.14297457916E+03  0.99999687468E+00 0.  0.
          4    1    3    3  501    0 -0.29415495879E+03  0.15837380675E+03 -0.65472942733E+02  0.34043517544E+03  0.00000000000E+00 0.  1.
   -9000007    1    1    2    0  502  0.21300614507E+03 -0.75674510993E+02  0.23305859504E+03  0.51518400419E+03  0.40000000000E+03 0.  1.
<mgrwt>
<rscale>  2 0.45971131E+03</rscale>
<asrwt>0</asrwt>
<pdfrwt beam="1">  1       21 0.83262715E-01 0.45979701E+03</pdfrwt>
<pdfrwt beam="2">  1       21 0.70367094E-01 0.45979701E+03</pdfrwt>
<totfact> 0.19789283E+03</totfact>
</mgrwt>
</event>
<event>
 6    1  0.9399121E-004  0.5177082E+03  0.7818608E-02  0.1009385E+00
         21   -1    0    0  503  502  0.00000000000E+00  0.00000000000E+00  0.62145248253E+03  0.62145248253E+03  0.00000000000E+00 0.  1.
         21   -1    0    0  501  503 -0.00000000000E+00 -0.00000000000E+00 -0.46764815848E+03  0.46764815848E+03  0.00000000000E+00 0. -1.
    9000007    2    1    2  501    0  0.12390211604E+03  0.30441750226E+03 -0.78594442328E+02  0.52162294395E+03  0.39735583454E+03 0.  0.
    9000005    1    3    3    0    0  0.21434169578E+03  0.34640920702E+03 -0.10040673095E+03  0.41955239586E+03  0.99999687468E+00 0.  0.
          4    1    3    3  501    0 -0.90439579735E+02 -0.41991704764E+02  0.21812288622E+02  0.10207054809E+03  0.00000000000E+00 0.  1.
   -9000007    1    1    2    0  502 -0.12390211604E+03 -0.30441750226E+03  0.23239876638E+03  0.56747769706E+03  0.40000000000E+03 0.  1.
<mgrwt>
<rscale>  2 0.51719735E+03</rscale>
<asrwt>0</asrwt>
<pdfrwt beam="1">  1       21 0.95608074E-01 0.51770817E+03</pdfrwt>
<pdfrwt beam="2">  1       21 0.71945871E-01 0.51770817E+03</pdfrwt>
<totfact> 0.13287790E+03</totfact>
</mgrwt>
</event>
<event>
 6    1  0.9399121E-004  0.4029250E+03  0.7818608E-02  0.1042835E+00
         21   -1    0    0  503  502  0.00000000000E+00  0.00000000000E+00  0.36010453176E+03  0.36010453176E+03  0.00000000000E+00 0.  1.
         21   -1    0    0  501  503 -0.00000000000E+00 -0.00000000000E+00 -0.59068757662E+03  0.59068757662E+03  0.00000000000E+00 0.  1.
    9000007    2    1    2  501    0  0.41667515912E+02  0.35444317981E+01 -0.34737817719E+03  0.53199639707E+03  0.40074907814E+03 0.  0.
    9000005    1    3    3    0    0 -0.82429773756E+02 -0.12100732988E+03 -0.42916298021E+01  0.14648160146E+03  0.99999687468E+00 0.  0.
          4    1    3    3  501    0  0.12409728967E+03  0.12455176168E+03 -0.34308654738E+03  0.38551479561E+03  0.00000000000E+00 0.  1.
   -9000007    1    1    2    0  502 -0.41667515912E+02 -0.35444317981E+01  0.11679513233E+03  0.41879571131E+03  0.40000000000E+03 0.  1.
<mgrwt>
<rscale>  2 0.40273863E+03</rscale>
<asrwt>0</asrwt>
<pdfrwt beam="1">  1       21 0.55400698E-01 0.40292502E+03</pdfrwt>
<pdfrwt beam="2">  1       21 0.90875011E-01 0.40292502E+03</pdfrwt>
<totfact> 0.27903830E+03</totfact>
</mgrwt>
</event>
<event>
 6    1  0.9399121E-004  0.4369380E+03  0.7818608E-02  0.1031727E+00
         21   -1    0    0  503  502  0.00000000000E+00  0.00000000000E+00  0.20495032098E+04  0.20495032098E+04  0.00000000000E+00 0. -1.
         21   -1    0    0  501  503 -0.00000000000E+00 -0.00000000000E+00 -0.14709948936E+03  0.14709948936E+03  0.00000000000E+00 0. -1.
    9000007    2    1    2  501    0 -0.75925673826E+02  0.15728626656E+03  0.28578421362E+03  0.52209909885E+03  0.40051363856E+03 0.  0.
    9000005    1    3    3    0    0 -0.23339587372E+03  0.36754069424E+02  0.12825578179E+03  0.26884017751E+03  0.99999687468E+00 0.  0.
          4    1    3    3  501    0  0.15747019990E+03  0.12053219714E+03  0.15752843183E+03  0.25325892133E+03  0.00000000000E+00 0.  1.
   -9000007    1    1    2    0  502  0.75925673826E+02 -0.15728626656E+03  0.16166195068E+04  0.16745036003E+04  0.40000000000E+03 0. -1.
<mgrwt>
<rscale>  2 0.43682030E+03</rscale>
<asrwt>0</asrwt>
<pdfrwt beam="1">  1       21 0.31530817E+00 0.43693804E+03</pdfrwt>
<pdfrwt beam="2">  1       21 0.22630692E-01 0.43693804E+03</pdfrwt>
<totfact> 0.40593501E+02</totfact>
</mgrwt>
</event>
<event>
 6    1  0.9399121E-004  0.4076907E+03  0.7818608E-02  0.1041203E+00
         21   -1    0    0  503  502  0.00000000000E+00  0.00000000000E+00  0.49981121189E+03  0.49981121189E+03  0.00000000000E+00 0. -1.
         21   -1    0    0  501  503 -0.00000000000E+00 -0.00000000000E+00 -0.40489345462E+03  0.40489345462E+03  0.00000000000E+00 0.  1.
    9000007    2    1    2  501    0 -0.74739475329E+02  0.10345187074E+02 -0.14440482708E+03  0.43250946169E+03  0.40064781080E+03 0.  0.
    9000005    1    3    3    0    0  0.56861975174E+02 -0.13292959577E+03  0.54283138555E+02  0.15443840448E+03  0.99999687468E+00 0.  0.
          4    1    3    3  501    0 -0.13160145050E+03  0.14327478284E+03 -0.19868796563E+03  0.27807105722E+03  0.00000000000E+00 0.  1.
   -9000007    1    1    2    0  502  0.74739475329E+02 -0.10345187074E+02  0.23932258435E+03  0.47219520481E+03  0.40000000000E+03 0. -1.
<mgrwt>
<rscale>  2 0.40753142E+03</rscale>
<asrwt>0</asrwt>
<pdfrwt beam="1">  1       21 0.76894033E-01 0.40769067E+03</pdfrwt>
<pdfrwt beam="2">  1       21 0.62291301E-01 0.40769067E+03</pdfrwt>
<totfact> 0.31817437E+03</totfact>
</mgrwt>
</event>
<event>
 6    1  0.9399121E-004  0.4332793E+03  0.7818608E-02  0.1032895E+00
         21   -1    0    0  503  502  0.00000000000E+00  0.00000000000E+00  0.85577542678E+03  0.85577542678E+03  0.00000000000E+00 0. -1.
         21   -1    0    0  501  503 -0.00000000000E+00 -0.00000000000E+00 -0.22011516025E+03  0.22011516025E+03  0.00000000000E+00 0. -1.
    9000007    2    1    2  501    0 -0.80406171500E+02 -0.14582804210E+03  0.35678726815E+03  0.56062257957E+03  0.39908589518E+03 0.  0.
    9000005    1    3    3    0    0  0.19006343783E+02 -0.19647738992E+03  0.39590920685E+03  0.44239089719E+03  0.99999687468E+00 0.  0.
          4    1    3    3  501    0 -0.99412515282E+02  0.50649347821E+02 -0.39121938704E+02  0.11823168238E+03  0.00000000000E+00 0.  1.
   -9000007    1    1    2    0  502  0.80406171500E+02  0.14582804210E+03  0.27887299839E+03  0.51526800746E+03  0.40000000000E+03 0.  1.
<mgrwt>
<rscale>  2 0.43306823E+03</rscale>
<asrwt>0</asrwt>
<pdfrwt beam="1">  1       21 0.13165776E+00 0.43327932E+03</pdfrwt>
<pdfrwt beam="2">  1       21 0.33863871E-01 0.43327932E+03</pdfrwt>
<totfact> 0.30650597E+03</totfact>
</mgrwt>
</event>
<event>
 6    1  0.9399121E-004  0.4348266E+03  0.7818608E-02  0.1032908E+00
         21   -1    0    0  503  502  0.00000000000E+00  0.00000000000E+00  0.12169561610E+03  0.12169561610E+03  0.00000000000E+00 0. -1.
         21   -1    0    0  501  503 -0.00000000000E+00 -0.00000000000E+00 -0.15315887320E+04  0.15315887320E+04  0.00000000000E+00 0. -1.
    9000007    2    1    2  501    0  0.15133300799E+03 -0.10415489489E+01 -0.67192092424E+03  0.80034488964E+03  0.40764132495E+03 0.  0.
    9000005    1    3    3    0    0  0.20723456298E+03 -0.13397260742E+03 -0.23702933449E+03  0.34216769140E+03  0.99999687468E+00 0.  0.
          4    1    3    3  501    0 -0.55901554984E+02  0.13293105847E+03 -0.43489158975E+03  0.45817719824E+03  0.00000000000E+00 0.  1.
   -9000007    1    1    2    0  502 -0.15133300799E+03  0.10415489489E+01 -0.73797219171E+03  0.85293945850E+03  0.40000000000E+03 0. -1.
<mgrwt>
<rscale>  2 0.43302667E+03</rscale>
<asrwt>0</asrwt>
<pdfrwt beam="1">  1       21 0.18722402E-01 0.43482665E+03</pdfrwt>
<pdfrwt beam="2">  1       21 0.23562905E+00 0.43482665E+03</pdfrwt>
<totfact> 0.17740332E+03</totfact>
</mgrwt>
</event>
<event>
 6    1  0.9399121E-004  0.4225635E+03  0.7818608E-02  0.1036323E+00
         21   -1    0    0  503  502  0.00000000000E+00  0.00000000000E+00  0.17826068917E+03  0.17826068917E+03  0.00000000000E+00 0.  1.
         21   -1    0    0  501  503 -0.00000000000E+00 -0.00000000000E+00 -0.11828214679E+04  0.11828214679E+04  0.00000000000E+00 0.  1.
    9000007    2    1    2  501    0 -0.78921454236E+02  0.11104646010E+03 -0.76993824706E+03  0.87775240978E+03  0.39885395367E+03 0.  0.
    9000005    1    3    3    0    0  0.16199104691E+03  0.68039235298E+02 -0.35270020652E+03  0.39404171416E+03  0.99999687468E+00 0.  0.
          4    1    3    3  501    0 -0.24091250115E+03  0.43007224801E+02 -0.41723804054E+03  0.48371069563E+03  0.00000000000E+00 0.  1.
   -9000007    1    1    2    0  502  0.78921454236E+02 -0.11104646010E+03 -0.23462253167E+03  0.48332974728E+03  0.40000000000E+03 0.  1.
<mgrwt>
<rscale>  2 0.42229207E+03</rscale>
<asrwt>0</asrwt>
<pdfrwt beam="1">  1       21 0.27424721E-01 0.42256350E+03</pdfrwt>
<pdfrwt beam="2">  1       21 0.18197253E+00 0.42256350E+03</pdfrwt>
<totfact> 0.19221088E+03</totfact>
</mgrwt>
</event>
<event>
 6    1  0.9399121E-004  0.4450434E+03  0.7818608E-02  0.1029251E+00
         21   -1    0    0  503  502  0.00000000000E+00  0.00000000000E+00  0.30091171546E+03  0.30091171546E+03  0.00000000000E+00 0.  1.
         21   -1    0    0  501  503 -0.00000000000E+00 -0.00000000000E+00 -0.67239127240E+03  0.67239127240E+03  0.00000000000E+00 0.  1.
    9000007    2    1    2  501    0 -0.18953584796E+03  0.46257688527E+02 -0.11303260377E+03  0.45865899536E+03  0.39940968078E+03 0.  0.
    9000005    1    3    3    0    0 -0.12033333646E+03  0.12682050299E+03 -0.23758359254E+03  0.29497544861E+03  0.99999687468E+00 0.  0.
          4    1    3    3  501    0 -0.69202511500E+02 -0.80562814466E+02  0.12455098877E+03  0.16368354675E+03  0.00000000000E+00 0.  1.
   -9000007    1    1    2    0  502  0.18953584796E+03 -0.46257688527E+02 -0.25844695317E+03  0.51464399250E+03  0.40000000000E+03 0.  1.
<mgrwt>
<rscale>  2 0.44491070E+03</rscale>
<asrwt>0</asrwt>
<pdfrwt beam="1">  1       21 0.46294110E-01 0.44504338E+03</pdfrwt>
<pdfrwt beam="2">  1       21 0.10344481E+00 0.44504338E+03</pdfrwt>
<totfact> 0.29461166E+03</totfact>
</mgrwt>
</event>
<event>
 6    1  0.9399121E-004  0.4833624E+03  0.7818608E-02  0.1018219E+00
         21   -1    0    0  503  502  0.00000000000E+00  0.00000000000E+00  0.22323851729E+03  0.22323851729E+03  0.00000000000E+00 0. -1.
         21   -1    0    0  501  503 -0.00000000000E+00 -0.00000000000E+00 -0.15530894495E+04  0.15530894495E+04  0.00000000000E+00 0. -1.
    9000007    2    1    2  501    0  0.11037881641E+03  0.24778568384E+03 -0.11722242970E+04  0.12679704309E+04  0.40007247197E+03 0.  0.
    9000005    1    3    3    0    0  0.16419958038E+03 -0.25512436025E+02 -0.70232631825E+03  0.72171714951E+03  0.99999687468E+00 0.  0.
          4    1    3    3  501    0 -0.53820763977E+02  0.27329811987E+03 -0.46989797877E+03  0.54625328137E+03  0.00000000000E+00 0.  1.
   -9000007    1    1    2    0  502 -0.11037881641E+03 -0.24778568384E+03 -0.15762663522E+03  0.50835753595E+03  0.40000000000E+03 0. -1.
<mgrwt>
<rscale>  2 0.48334741E+03</rscale>
<asrwt>0</asrwt>
<pdfrwt beam="1">  1       21 0.34344388E-01 0.48336240E+03</pdfrwt>
<pdfrwt beam="2">  1       21 0.23893683E+00 0.48336240E+03</pdfrwt>
<totfact> 0.50555764E+02</totfact>
</mgrwt>
</event>
<event>
 6    1  0.9399121E-004  0.4005042E+03  0.7818608E-02  0.1043745E+00
         21   -1    0    0  503  502  0.00000000000E+00  0.00000000000E+00  0.47308504270E+03  0.47308504270E+03  0.00000000000E+00 0. -1.
         21   -1    0    0  501  503 -0.00000000000E+00 -0.00000000000E+00 -0.50662071328E+03  0.50662071328E+03  0.00000000000E+00 0. -1.
    9000007    2    1    2  501    0  0.14455910750E+02 -0.13952524368E+02 -0.29960511943E+03  0.49887668250E+03  0.39838558014E+03 0.  0.
    9000005    1    3    3    0    0  0.14148558722E+03 -0.55533577247E+02  0.19181559613E+02  0.15320274741E+03  0.99999687468E+00 0.  0.
          4    1    3    3  501    0 -0.12702967647E+03  0.41581052879E+02 -0.31878667904E+03  0.34567393509E+03  0.00000000000E+00 0.  1.
   -9000007    1    1    2    0  502 -0.14455910750E+02  0.13952524368E+02  0.26606944885E+03  0.48082907348E+03  0.40000000000E+03 0. -1.
<mgrwt>
<rscale>  2 0.40010054E+03</rscale>
<asrwt>0</asrwt>
<pdfrwt beam="1">  1       21 0.72782314E-01 0.40050424E+03</pdfrwt>
<pdfrwt beam="2">  1       21 0.77941649E-01 0.40050424E+03</pdfrwt>
<totfact> 0.21861680E+03</totfact>
</mgrwt>
</event>
<event>
 6    1  0.9399121E-004  0.4258608E+03  0.7818608E-02  0.1035230E+00
         21   -1    0    0  503  502  0.00000000000E+00  0.00000000000E+00  0.29013979330E+03  0.29013979330E+03  0.00000000000E+00 0.  1.
         21   -1    0    0  501  503 -0.00000000000E+00 -0.00000000000E+00 -0.62409083094E+03  0.62409083094E+03  0.00000000000E+00 0.  1.
    9000007    2    1    2  501    0  0.13451741597E+03 -0.51761797878E+02 -0.17012366280E+03  0.45858423979E+03  0.40072836863E+03 0.  0.
    9000005    1    3    3    0    0 -0.26782378880E+02  0.15153394861E+03 -0.11792505092E+03  0.19387405971E+03  0.99999687468E+00 0.  0.
          4    1    3    3  501    0  0.16129979485E+03 -0.20329574649E+03 -0.52198611887E+02  0.26471018009E+03  0.00000000000E+00 0.  1.
   -9000007    1    1    2    0  502 -0.13451741597E+03  0.51761797878E+02 -0.16382737484E+03  0.45564638445E+03  0.40000000000E+03 0.  1.
<mgrwt>
<rscale>  2 0.42568940E+03</rscale>
<asrwt>0</asrwt>
<pdfrwt beam="1">  1       21 0.44636891E-01 0.42586083E+03</pdfrwt>
<pdfrwt beam="2">  1       21 0.96013974E-01 0.42586083E+03</pdfrwt>
<totfact> 0.38371738E+03</totfact>
</mgrwt>
</event>
<event>
 6    1  0.9399121E-004  0.5515302E+03  0.7818608E-02  0.1001396E+00
         21   -1    0    0  503  502  0.00000000000E+00  0.00000000000E+00  0.98132191427E+03  0.98132191427E+03  0.00000000000E+00 0.  1.
         21   -1    0    0  501  503 -0.00000000000E+00 -0.00000000000E+00 -0.35913321230E+03  0.35913321230E+03  0.00000000000E+00 0.  1.
    9000007    2    1    2  501    0 -0.28381062349E+03  0.24245884089E+03  0.56629796825E+03  0.79049282455E+03  0.40601817359E+03 0.  0.
    9000005    1    3    3    0    0  0.10089062431E+03  0.71272687404E+02  0.79723933096E+02  0.14702251374E+03  0.99999687468E+00 0.  0.
          4    1    3    3  501    0 -0.38470124780E+03  0.17118615349E+03  0.48657403516E+03  0.64347031081E+03  0.00000000000E+00 0.  1.
   -9000007    1    1    2    0  502  0.28381062349E+03 -0.24245884089E+03  0.55890733722E+02  0.54996230202E+03  0.40000000000E+03 0.  1.
<mgrwt>
<rscale>  2 0.55042303E+03</rscale>
<asrwt>0</asrwt>
<pdfrwt beam="1">  1       21 0.15097260E+00 0.55153016E+03</pdfrwt>
<pdfrwt beam="2">  1       21 0.55251264E-01 0.55153016E+03</pdfrwt>
<totfact> 0.73239098E+02</totfact>
</mgrwt>
</event>
<event>
 6    1  0.9399121E-004  0.4477738E+03  0.7818608E-02  0.1028412E+00
         21   -1    0    0  503  502  0.00000000000E+00  0.00000000000E+00  0.13774479428E+03  0.13774479428E+03  0.00000000000E+00 0. -1.
         21   -1    0    0  501  503 -0.00000000000E+00 -0.00000000000E+00 -0.19738547100E+04  0.19738547100E+04  0.00000000000E+00 0. -1.
    9000007    2    1    2  501    0 -0.19785815610E+02  0.19955940032E+03 -0.14598355971E+04  0.15269647503E+04  0.40035727199E+03 0.  0.
    9000005    1    3    3    0    0 -0.17759299994E+03  0.48954590446E+02 -0.34616668107E+03  0.39213288134E+03  0.99999687468E+00 0.  0.
          4    1    3    3  501    0  0.15780718433E+03  0.15060480987E+03 -0.11136689161E+04  0.11348318690E+04  0.00000000000E+00 0.  1.
   -9000007    1    1    2    0  502  0.19785815610E+02 -0.19955940032E+03 -0.37627431860E+03  0.58463475400E+03  0.40000000000E+03 0. -1.
<mgrwt>
<rscale>  2 0.44769393E+03</rscale>
<asrwt>0</asrwt>
<pdfrwt beam="1">  1       21 0.21191507E-01 0.44777380E+03</pdfrwt>
<pdfrwt beam="2">  1       21 0.30366996E+00 0.44777380E+03</pdfrwt>
<totfact> 0.53761630E+02</totfact>
</mgrwt>
</event>
<event>
 6    1  0.9399121E-004  0.5136929E+03  0.7818608E-02  0.1010299E+00
         21   -1    0    0  503  502  0.00000000000E+00  0.00000000000E+00  0.52479947149E+03  0.52479947149E+03  0.00000000000E+00 0. -1.
         21   -1    0    0  501  503 -0.00000000000E+00 -0.00000000000E+00 -0.10481899281E+04  0.10481899281E+04  0.00000000000E+00 0.  1.
    9000007    2    1    2  501    0 -0.10079147900E+03  0.30613955558E+03 -0.82921152796E+03  0.97515424054E+03  0.39931652233E+03 0.  0.
    9000005    1    3    3    0    0  0.33621868194E+02  0.35936239827E+03 -0.66291646223E+03  0.75480527237E+03  0.99999687468E+00 0.  0.
          4    1    3    3  501    0 -0.13441334719E+03 -0.53222842686E+02 -0.16629506573E+03  0.22034896816E+03  0.00000000000E+00 0.  1.
   -9000007    1    1    2    0  502  0.10079147900E+03 -0.30613955558E+03  0.30582107135E+03  0.59783515906E+03  0.40000000000E+03 0. -1.
<mgrwt>
<rscale>  2 0.51355980E+03</rscale>
<asrwt>0</asrwt>
<pdfrwt beam="1">  1       21 0.80738380E-01 0.51369286E+03</pdfrwt>
<pdfrwt beam="2">  1       21 0.16125999E+00 0.51369286E+03</pdfrwt>
<totfact> 0.26440650E+02</totfact>
</mgrwt>
</event>
<event>
 6    1  0.9399121E-004  0.4624294E+03  0.7818608E-02  0.1024082E+00
         21   -1    0    0  503  502  0.00000000000E+00  0.00000000000E+00  0.49163093135E+03  0.49163093135E+03  0.00000000000E+00 0. -1.
         21   -1    0    0  501  503 -0.00000000000E+00 -0.00000000000E+00 -0.48783748806E+03  0.48783748806E+03  0.00000000000E+00 0.  1.
    9000007    2    1    2  501    0  0.21583000863E+03  0.85196075960E+02 -0.15938991975E+03  0.48909124421E+03  0.39995516582E+03 0.  0.
    9000005    1    3    3    0    0  0.22084654397E+03  0.99218432673E+02  0.75591272524E+02  0.25363858902E+03  0.99999687468E+00 0.  0.
          4    1    3    3  501    0 -0.50165353400E+01 -0.14022356713E+02 -0.23498119227E+03  0.23545265519E+03  0.00000000000E+00 0.  1.
   -9000007    1    1    2    0  502 -0.21583000863E+03 -0.85196075960E+02  0.16318336304E+03  0.49037717520E+03  0.40000000000E+03 0. -1.
<mgrwt>
<rscale>  2 0.46241972E+03</rscale>
<asrwt>0</asrwt>
<pdfrwt beam="1">  1       21 0.75635528E-01 0.46242942E+03</pdfrwt>
<pdfrwt beam="2">  1       21 0.75051921E-01 0.46242942E+03</pdfrwt>
<totfact> 0.21320627E+03</totfact>
</mgrwt>
</event>
<event>
 6    1  0.9399121E-004  0.4265940E+03  0.7818608E-02  0.1034983E+00
         21   -1    0    0  503  502  0.00000000000E+00  0.00000000000E+00  0.32990631942E+03  0.32990631942E+03  0.00000000000E+00 0.  1.
         21   -1    0    0  501  503 -0.00000000000E+00 -0.00000000000E+00 -0.10939850762E+04  0.10939850762E+04  0.00000000000E+00 0.  1.
    9000007    2    1    2  501    0  0.13565291741E+03  0.55986377764E+02 -0.88375833161E+03  0.98133135547E+03  0.40055742665E+03 0.  0.
    9000005    1    3    3    0    0 -0.49064077434E+02 -0.13559859242E+03 -0.19182650768E+03  0.23998473078E+03  0.99999687468E+00 0.  0.
          4    1    3    3  501    0  0.18471699484E+03  0.19158497019E+03 -0.69193182393E+03  0.74134662470E+03  0.00000000000E+00 0.  1.
   -9000007    1    1    2    0  502 -0.13565291741E+03 -0.55986377764E+02  0.11967957484E+03  0.44256004014E+03  0.40000000000E+03 0.  1.
<mgrwt>
<rscale>  2 0.42646310E+03</rscale>
<asrwt>0</asrwt>
<pdfrwt beam="1">  1       21 0.50754818E-01 0.42659400E+03</pdfrwt>
<pdfrwt beam="2">  1       21 0.16830540E+00 0.42659400E+03</pdfrwt>
<totfact> 0.68376364E+02</totfact>
</mgrwt>
</event>
<event>
 6    1  0.9399121E-004  0.4095469E+03  0.7818608E-02  0.1040723E+00
         21   -1    0    0  503  502  0.00000000000E+00  0.00000000000E+00  0.51815324521E+03  0.51815324521E+03  0.00000000000E+00 0. -1.
         21   -1    0    0  501  503 -0.00000000000E+00 -0.00000000000E+00 -0.66597182385E+03  0.66597182385E+03  0.00000000000E+00 0. -1.
    9000007    2    1    2  501    0 -0.59774241380E+02 -0.47138868012E+02 -0.49961478565E+03  0.64602135780E+03  0.40240977608E+03 0.  0.
    9000005    1    3    3    0    0 -0.21013152272E+03  0.14165547144E+02 -0.14412536977E+03  0.25520392194E+03  0.99999687468E+00 0.  0.
          4    1    3    3  501    0  0.15035728134E+03 -0.61304415156E+02 -0.35548941588E+03  0.39081743586E+03  0.00000000000E+00 0.  1.
   -9000007    1    1    2    0  502  0.59774241380E+02  0.47138868012E+02  0.35179620701E+03  0.53810371126E+03  0.40000000000E+03 0. -1.
<mgrwt>
<rscale>  2 0.40895373E+03</rscale>
<asrwt>0</asrwt>
<pdfrwt beam="1">  1       21 0.79715884E-01 0.40954690E+03</pdfrwt>
<pdfrwt beam="2">  1       21 0.10245720E+00 0.40954690E+03</pdfrwt>
<totfact> 0.92754417E+02</totfact>
</mgrwt>
</event>
<event>
 6    1  0.9399121E-004  0.4109892E+03  0.7818608E-02  0.1040048E+00
         21   -1    0    0  503  502  0.00000000000E+00  0.00000000000E+00  0.42006499911E+03  0.42006499911E+03  0.00000000000E+00 0.  1.
         21   -1    0    0  501  503 -0.00000000000E+00 -0.00000000000E+00 -0.40747017374E+03  0.40747017374E+03  0.00000000000E+00 0.  1.
    9000007    2    1    2  501    0  0.39620527008E+02 -0.85197078058E+02  0.54196550143E+02  0.41454724110E+03  0.40010476226E+03 0.  0.
    9000005    1    3    3    0    0 -0.17733354391E+03 -0.77966262572E+02  0.31949722832E+02  0.19633570404E+03  0.99999687468E+00 0.  0.
          4    1    3    3  501    0  0.21695407092E+03 -0.72308154856E+01  0.22246827311E+02  0.21821153706E+03  0.00000000000E+00 0.  1.
   -9000007    1    1    2    0  502 -0.39620527008E+02  0.85197078058E+02 -0.41601724768E+02  0.41298793175E+03  0.40000000000E+03 0.  1.
<mgrwt>
<rscale>  2 0.41096373E+03</rscale>
<asrwt>0</asrwt>
<pdfrwt beam="1">  1       21 0.64625385E-01 0.41098923E+03</pdfrwt>
<pdfrwt beam="2">  1       21 0.62687719E-01 0.41098923E+03</pdfrwt>
<totfact> 0.46337218E+03</totfact>
</mgrwt>
</event>
<event>
 6    1  0.9399121E-004  0.6687278E+03  0.7818608E-02  0.9772451E-01
         21   -1    0    0  503  502  0.00000000000E+00  0.00000000000E+00  0.13790450766E+04  0.13790450766E+04  0.00000000000E+00 0.  1.
         21   -1    0    0  501  503 -0.00000000000E+00 -0.00000000000E+00 -0.94731662235E+03  0.94731662235E+03  0.00000000000E+00 0.  1.
    9000007    2    1    2  501    0  0.25138652078E+03 -0.47268765092E+03 -0.72758252828E+03  0.98821718046E+03  0.40070944852E+03 0.  0.
    9000005    1    3    3    0    0 -0.10588839751E+03 -0.93896362366E+02 -0.10291058883E+03  0.17498705346E+03  0.99999687468E+00 0.  0.
          4    1    3    3  501    0  0.35727491829E+03 -0.37879128855E+03 -0.62467193945E+03  0.81323012700E+03  0.00000000000E+00 0.  1.
   -9000007    1    1    2    0  502 -0.25138652078E+03  0.47268765092E+03  0.11593109825E+04  0.13381445185E+04  0.40000000000E+03 0.  1.
<mgrwt>
<rscale>  2 0.66862155E+03</rscale>
<asrwt>0</asrwt>
<pdfrwt beam="1">  1       21 0.21216078E+00 0.66872779E+03</pdfrwt>
<pdfrwt beam="2">  1       21 0.14574102E+00 0.66872779E+03</pdfrwt>
<totfact> 0.24798222E+01</totfact>
</mgrwt>
</event>
<event>
 6    1  0.9399121E-004  0.5795201E+03  0.7818608E-02  0.9948846E-01
         21   -1    0    0  503  502  0.00000000000E+00  0.00000000000E+00  0.87491393964E+03  0.87491393964E+03  0.00000000000E+00 0.  1.
         21   -1    0    0  501  503 -0.00000000000E+00 -0.00000000000E+00 -0.38969743472E+03  0.38969743472E+03  0.00000000000E+00 0.  1.
    9000007    2    1    2  501    0 -0.88045936353E+02 -0.40998955902E+03  0.16507934505E+03  0.60254542105E+03  0.39995783385E+03 0.  0.
    9000005    1    3    3    0    0 -0.20758421212E+03 -0.82351665321E+02  0.11176417230E+03  0.24973031876E+03  0.99999687468E+00 0.  0.
          4    1    3    3  501    0  0.11953827577E+03 -0.32763789370E+03  0.53315172750E+02  0.35281510229E+03  0.00000000000E+00 0.  1.
   -9000007    1    1    2    0  502  0.88045936353E+02  0.40998955902E+03  0.32013715986E+03  0.66206595331E+03  0.40000000000E+03 0.  1.
<mgrwt>
<rscale>  2 0.57951281E+03</rscale>
<asrwt>0</asrwt>
<pdfrwt beam="1">  1       21 0.13460214E+00 0.57952008E+03</pdfrwt>
<pdfrwt beam="2">  1       21 0.59953452E-01 0.57952008E+03</pdfrwt>
<totfact> 0.82649565E+02</totfact>
</mgrwt>
</event>
<event>
 6    1  0.9399121E-004  0.4018441E+03  0.7818608E-02  0.1043159E+00
         21   -1    0    0  503  502  0.00000000000E+00  0.00000000000E+00  0.15084754280E+03  0.15084754280E+03  0.00000000000E+00 0. -1.
         21   -1    0    0  501  503 -0.00000000000E+00 -0.00000000000E+00 -0.10947871688E+04  0.10947871688E+04  0.00000000000E+00 0. -1.
    9000007    2    1    2  501    0 -0.37582019646E+02  0.81422244226E+01 -0.56559672560E+03  0.69370894275E+03  0.39981712973E+03 0.  0.
    9000005    1    3    3    0    0  0.12805646814E+03 -0.38757936496E+02 -0.38520588075E+02  0.13923172187E+03  0.99999687468E+00 0.  0.
          4    1    3    3  501    0 -0.16563848779E+03  0.46900160919E+02 -0.52707613752E+03  0.55447722088E+03  0.00000000000E+00 0.  1.
   -9000007    1    1    2    0  502  0.37582019646E+02 -0.81422244226E+01 -0.37834290036E+03  0.55192576881E+03  0.40000000000E+03 0.  1.
<mgrwt>
<rscale>  2 0.40179861E+03</rscale>
<asrwt>0</asrwt>
<pdfrwt beam="1">  1       21 0.23207313E-01 0.40184413E+03</pdfrwt>
<pdfrwt beam="2">  1       21 0.16842881E+00 0.40184413E+03</pdfrwt>
<totfact> 0.33523670E+03</totfact>
</mgrwt>
</event>
<event>
 6    1  0.9399121E-004  0.5314592E+03  0.7818608E-02  0.1005888E+00
         21   -1    0    0  503  502  0.00000000000E+00  0.00000000000E+00  0.43820325728E+03  0.43820325728E+03  0.00000000000E+00 0. -1.
         21   -1    0    0  501  503 -0.00000000000E+00 -0.00000000000E+00 -0.77800643725E+03  0.77800643725E+03  0.00000000000E+00 0.  1.
    9000007    2    1    2  501    0 -0.20852379652E+03  0.28071219162E+03 -0.42195040124E+03  0.67859489357E+03  0.40020917061E+03 0.  0.
    9000005    1    3    3    0    0  0.10394717991E+02  0.29544568445E+03 -0.32310845536E+03  0.43794551778E+03  0.99999687468E+00 0.  0.
          4    1    3    3  501    0 -0.21891851451E+03 -0.14733492832E+02 -0.98841945876E+02  0.24064937580E+03  0.00000000000E+00 0.  1.
   -9000007    1    1    2    0  502  0.20852379652E+03 -0.28071219162E+03  0.82147221266E+02  0.53761480095E+03  0.40000000000E+03 0. -1.
<mgrwt>
<rscale>  2 0.53141983E+03</rscale>
<asrwt>0</asrwt>
<pdfrwt beam="1">  1       21 0.67415887E-01 0.53145921E+03</pdfrwt>
<pdfrwt beam="2">  1       21 0.11969330E+00 0.53145921E+03</pdfrwt>
<totfact> 0.87789711E+02</totfact>
</mgrwt>
</event>
<event>
 6    1  0.9399121E-004  0.5210691E+03  0.7818608E-02  0.1008707E+00
         21   -1    0    0  503  502  0.00000000000E+00  0.00000000000E+00  0.69600782063E+03  0.69600782063E+03  0.00000000000E+00 0.  1.
         21   -1    0    0  501  503 -0.00000000000E+00 -0.00000000000E+00 -0.77260151366E+03  0.77260151366E+03  0.00000000000E+00 0.  1.
    9000007    2    1    2  501    0 -0.21828964937E+03 -0.24310501960E+03 -0.55736162601E+03  0.76299738218E+03  0.40590959768E+03 0.  0.
    9000005    1    3    3    0    0  0.27039242385E+02 -0.39214370267E+02  0.54856656613E+02  0.72657692178E+02  0.99999687468E+00 0.  0.
          4    1    3    3  501    0 -0.24532889175E+03 -0.20389064933E+03 -0.61221828262E+03  0.69033969000E+03  0.00000000000E+00 0.  1.
   -9000007    1    1    2    0  502  0.21828964937E+03  0.24310501960E+03  0.48076793298E+03  0.70561195211E+03  0.40000000000E+03 0.  1.
<mgrwt>
<rscale>  2 0.51991774E+03</rscale>
<asrwt>0</asrwt>
<pdfrwt beam="1">  1       21 0.10707813E+00 0.52106912E+03</pdfrwt>
<pdfrwt beam="2">  1       21 0.11886177E+00 0.52106912E+03</pdfrwt>
<totfact> 0.30197911E+02</totfact>
</mgrwt>
</event>
<event>
 6    1  0.9399121E-004  0.4602583E+03  0.7818608E-02  0.1024815E+00
         21   -1    0    0  503  502  0.00000000000E+00  0.00000000000E+00  0.53116691382E+03  0.53116691382E+03  0.00000000000E+00 0.  1.
         21   -1    0    0  501  503 -0.00000000000E+00 -0.00000000000E+00 -0.14986614766E+04  0.14986614766E+04  0.00000000000E+00 0.  1.
    9000007    2    1    2  501    0  0.16799625102E+03  0.15367166810E+03 -0.13534986734E+04  0.14291313825E+04  0.39827142443E+03 0.  0.
    9000005    1    3    3    0    0 -0.78571731049E+02  0.12725309380E+02 -0.47690971496E+02  0.92794822996E+02  0.99999687468E+00 0.  0.
          4    1    3    3  501    0  0.24656798207E+03  0.14094635872E+03 -0.13058077019E+04  0.13363365595E+04  0.00000000000E+00 0.  1.
   -9000007    1    1    2    0  502 -0.16799625102E+03 -0.15367166810E+03  0.38600411063E+03  0.60069700795E+03  0.40000000000E+03 0.  1.
<mgrwt>
<rscale>  2 0.45988249E+03</rscale>
<asrwt>0</asrwt>
<pdfrwt beam="1">  1       21 0.81717988E-01 0.46025832E+03</pdfrwt>
<pdfrwt beam="2">  1       21 0.23056330E+00 0.46025832E+03</pdfrwt>
<totfact> 0.89072691E+01</totfact>
</mgrwt>
</event>
<event>
 6    1  0.9399121E-004  0.4736304E+03  0.7818608E-02  0.1021112E+00
         21   -1    0    0  503  502  0.00000000000E+00  0.00000000000E+00  0.47641154288E+03  0.47641154288E+03  0.00000000000E+00 0. -1.
         21   -1    0    0  501  503 -0.00000000000E+00 -0.00000000000E+00 -0.12561653097E+04  0.12561653097E+04  0.00000000000E+00 0. -1.
    9000007    2    1    2  501    0  0.13426093861E+03 -0.21517383831E+03 -0.10756616562E+04  0.11741081791E+04  0.39642935970E+03 0.  0.
    9000005    1    3    3    0    0 -0.43629319430E+02  0.78232076842E+02 -0.46591782130E+03  0.47445146386E+03  0.99999687468E+00 0.  0.
          4    1    3    3  501    0  0.17789025804E+03 -0.29340591516E+03 -0.60974383489E+03  0.69965671521E+03  0.00000000000E+00 0.  1.
   -9000007    1    1    2    0  502 -0.13426093861E+03  0.21517383831E+03  0.29590788935E+03  0.55846867353E+03  0.40000000000E+03 0. -1.
<mgrwt>
<rscale>  2 0.47287571E+03</rscale>
<asrwt>0</asrwt>
<pdfrwt beam="1">  1       21 0.73294084E-01 0.47363043E+03</pdfrwt>
<pdfrwt beam="2">  1       21 0.19325620E+00 0.47363043E+03</pdfrwt>
<totfact> 0.19874609E+02</totfact>
</mgrwt>
</event>
<event>
 6    1  0.9399121E-004  0.4093767E+03  0.7818608E-02  0.1040630E+00
         21   -1    0    0  503  502  0.00000000000E+00  0.00000000000E+00  0.69406466725E+03  0.69406466725E+03  0.00000000000E+00 0. -1.
         21   -1    0    0  501  503 -0.00000000000E+00 -0.00000000000E+00 -0.41698758663E+03  0.41698758663E+03  0.00000000000E+00 0. -1.
    9000007    2    1    2  501    0  0.83927618897E+02  0.80407561334E+01 -0.22218439285E+03  0.46578446617E+03  0.40060050615E+03 0.  0.
    9000005    1    3    3    0    0  0.13109264911E+03 -0.13583092656E+03 -0.24853895469E+03  0.31210244352E+03  0.99999687468E+00 0.  0.
          4    1    3    3  501    0 -0.47165030209E+02  0.14387168269E+03  0.26354561848E+02  0.15368202265E+03  0.00000000000E+00 0.  1.
   -9000007    1    1    2    0  502 -0.83927618897E+02 -0.80407561334E+01  0.49926147346E+03  0.64526778771E+03  0.40000000000E+03 0. -1.
<mgrwt>
<rscale>  2 0.40922970E+03</rscale>
<asrwt>0</asrwt>
<pdfrwt beam="1">  1       21 0.10677918E+00 0.40937668E+03</pdfrwt>
<pdfrwt beam="2">  1       21 0.64151937E-01 0.40937668E+03</pdfrwt>
<totfact> 0.13684296E+03</totfact>
</mgrwt>
</event>
<event>
 6    1  0.9399121E-004  0.4627370E+03  0.7818608E-02  0.1024003E+00
         21   -1    0    0  503  502  0.00000000000E+00  0.00000000000E+00  0.10022270378E+03  0.10022270378E+03  0.00000000000E+00 0. -1.
         21   -1    0    0  501  503 -0.00000000000E+00 -0.00000000000E+00 -0.21393284395E+04  0.21393284395E+04  0.00000000000E+00 0. -1.
    9000007    2    1    2  501    0 -0.10934741993E+03 -0.20535014327E+03 -0.10656833321E+04  0.11617400674E+04  0.39979179598E+03 0.  0.
    9000005    1    3    3    0    0  0.98700502252E+02 -0.11707736011E+03 -0.13543446951E+03  0.20443187843E+03  0.99999687468E+00 0.  0.
          4    1    3    3  501    0 -0.20804792218E+03 -0.88272783165E+02 -0.93024886262E+03  0.95730818892E+03  0.00000000000E+00 0.  1.
   -9000007    1    1    2    0  502  0.10934741993E+03  0.20535014327E+03 -0.97342240363E+03  0.10778110760E+04  0.40000000000E+03 0. -1.
<mgrwt>
<rscale>  2 0.46269201E+03</rscale>
<asrwt>0</asrwt>
<pdfrwt beam="1">  1       21 0.15418877E-01 0.46273701E+03</pdfrwt>
<pdfrwt beam="2">  1       21 0.32912746E+00 0.46273701E+03</pdfrwt>
<totfact> 0.68173107E+02</totfact>
</mgrwt>
</event>
<event>
 6    1  0.9399121E-004  0.5018545E+03  0.7818608E-02  0.1013389E+00
         21   -1    0    0  503  502  0.00000000000E+00  0.00000000000E+00  0.35508958622E+03  0.35508958622E+03  0.00000000000E+00 0. -1.
         21   -1    0    0  501  503 -0.00000000000E+00 -0.00000000000E+00 -0.89416618777E+03  0.89416618777E+03  0.00000000000E+00 0. -1.
    9000007    2    1    2  501    0 -0.19239646505E+03  0.23110809280E+03 -0.55541607297E+03  0.74856192677E+03  0.40178426273E+03 0.  0.
    9000005    1    3    3    0    0 -0.89134004134E+02  0.20728544945E+03 -0.59428883575E+03  0.63568258474E+03  0.99999687468E+00 0.  0.
          4    1    3    3  501    0 -0.10326246092E+03  0.23822643349E+02  0.38872762785E+02  0.11287934203E+03  0.00000000000E+00 0.  1.
   -9000007    1    1    2    0  502  0.19239646505E+03 -0.23110809280E+03  0.16339471413E+02  0.50069384722E+03  0.40000000000E+03 0. -1.
<mgrwt>
<rscale>  2 0.50149729E+03</rscale>
<asrwt>0</asrwt>
<pdfrwt beam="1">  1       21 0.54629167E-01 0.50185450E+03</pdfrwt>
<pdfrwt beam="2">  1       21 0.13756403E+00 0.50185450E+03</pdfrwt>
<totfact> 0.98229116E+02</totfact>
</mgrwt>
</event>
<event>
 6    1  0.9399121E-004  0.5500359E+03  0.7818608E-02  0.1001803E+00
         21   -1    0    0  503  502  0.00000000000E+00  0.00000000000E+00  0.67944424905E+03  0.67944424905E+03  0.00000000000E+00 0. -1.
         21   -1    0    0  501  503 -0.00000000000E+00 -0.00000000000E+00 -0.16305703368E+04  0.16305703368E+04  0.00000000000E+00 0.  1.
    9000007    2    1    2  501    0 -0.20645583577E+03 -0.31609403658E+03 -0.14615017201E+04  0.15596661747E+04  0.39246891172E+03 0.  0.
    9000005    1    3    3    0    0 -0.89667667953E+02  0.58943278184E+02 -0.64179271382E+03  0.65070230384E+03  0.99999687468E+00 0.  0.
          4    1    3    3  501    0 -0.11678816781E+03 -0.37503731477E+03 -0.81970900625E+03  0.90896387087E+03  0.00000000000E+00 0.  1.
   -9000007    1    1    2    0  502  0.20645583577E+03  0.31609403658E+03  0.51037563231E+03  0.75034841117E+03  0.40000000000E+03 0. -1.
<mgrwt>
<rscale>  2 0.54866770E+03</rscale>
<asrwt>0</asrwt>
<pdfrwt beam="1">  1       21 0.10452989E+00 0.55003586E+03</pdfrwt>
<pdfrwt beam="2">  1       21 0.25085697E+00 0.55003586E+03</pdfrwt>
<totfact> 0.35124535E+01</totfact>
</mgrwt>
</event>
<event>
 6    1  0.9399121E-004  0.6679745E+03  0.7818608E-02  0.9775610E-01
         21   -1    0    0  503  502  0.00000000000E+00  0.00000000000E+00  0.55592292496E+03  0.55592292496E+03  0.00000000000E+00 0.  1.
         21   -1    0    0  501  503 -0.00000000000E+00 -0.00000000000E+00 -0.80544560355E+03  0.80544560355E+03  0.00000000000E+00 0.  1.
    9000007    2    1    2  501    0 -0.11863437104E+03 -0.51604575548E+03 -0.19330364545E+03  0.69538210565E+03  0.40720097958E+03 0.  0.
    9000005    1    3    3    0    0  0.56935071204E+02 -0.38241453694E+03  0.21793421673E+02  0.38724466894E+03  0.99999687468E+00 0.  0.
          4    1    3    3  501    0 -0.17556944225E+03 -0.13363121854E+03 -0.21509706712E+03  0.30813743671E+03  0.00000000000E+00 0.  1.
   -9000007    1    1    2    0  502  0.11863437104E+03  0.51604575548E+03 -0.56219033136E+02  0.66598642286E+03  0.40000000000E+03 0.  1.
<mgrwt>
<rscale>  2 0.66688054E+03</rscale>
<asrwt>0</asrwt>
<pdfrwt beam="1">  1       21 0.85526604E-01 0.66797453E+03</pdfrwt>
<pdfrwt beam="2">  1       21 0.12391471E+00 0.66797453E+03</pdfrwt>
<totfact> 0.44406378E+02</totfact>
</mgrwt>
</event>
<event>
 6    1  0.9399121E-004  0.4401753E+03  0.7818608E-02  0.1030749E+00
         21   -1    0    0  503  502  0.00000000000E+00  0.00000000000E+00  0.37350766407E+03  0.37350766407E+03  0.00000000000E+00 0. -1.
         21   -1    0    0  501  503 -0.00000000000E+00 -0.00000000000E+00 -0.60702591951E+03  0.60702591951E+03  0.00000000000E+00 0. -1.
    9000007    2    1    2  501    0 -0.72308955824E+02 -0.16700069053E+03 -0.30471000513E+03  0.53535263053E+03  0.40079475553E+03 0.  0.
    9000005    1    3    3    0    0  0.70681244036E+02  0.10643139646E+03 -0.58137680304E+02  0.14037261227E+03  0.99999687468E+00 0.  0.
          4    1    3    3  501    0 -0.14299019986E+03 -0.27343208699E+03 -0.24657232482E+03  0.39498001826E+03  0.00000000000E+00 0.  1.
   -9000007    1    1    2    0  502  0.72308955824E+02  0.16700069053E+03  0.71191749687E+02  0.44518095304E+03  0.40000000000E+03 0. -1.
<mgrwt>
<rscale>  2 0.43999426E+03</rscale>
<asrwt>0</asrwt>
<pdfrwt beam="1">  1       21 0.57462718E-01 0.44017525E+03</pdfrwt>
<pdfrwt beam="2">  1       21 0.93388603E-01 0.44017525E+03</pdfrwt>
<totfact> 0.23815522E+03</totfact>
</mgrwt>
</event>
<event>
 6    1  0.9399121E-004  0.4362393E+03  0.7818608E-02  0.1031999E+00
         21   -1    0    0  503  502  0.00000000000E+00  0.00000000000E+00  0.21906280725E+03  0.21906280725E+03  0.00000000000E+00 0.  1.
         21   -1    0    0  501  503 -0.00000000000E+00 -0.00000000000E+00 -0.88771315096E+03  0.88771315096E+03  0.00000000000E+00 0.  1.
    9000007    2    1    2  501    0 -0.50831672896E+02  0.16649590589E+03 -0.24807853362E+03  0.50081771452E+03  0.39871127234E+03 0.  0.
    9000005    1    3    3    0    0 -0.18397059006E+03  0.87425986911E+02 -0.27645553680E+03  0.34339065948E+03  0.99999687468E+00 0.  0.
          4    1    3    3  501    0  0.13313891716E+03  0.79069918980E+02  0.28377003185E+02  0.15742705504E+03  0.00000000000E+00 0.  1.
   -9000007    1    1    2    0  502  0.50831672896E+02 -0.16649590589E+03 -0.42057181010E+03  0.60595824369E+03  0.40000000000E+03 0.  1.
<mgrwt>
<rscale>  2 0.43594368E+03</rscale>
<asrwt>0</asrwt>
<pdfrwt beam="1">  1       21 0.33701970E-01 0.43623932E+03</pdfrwt>
<pdfrwt beam="2">  1       21 0.13657125E+00 0.43623932E+03</pdfrwt>
<totfact> 0.28092786E+03</totfact>
</mgrwt>
</event>
<event>
 6    1  0.9399121E-004  0.4207105E+03  0.7818608E-02  0.1036836E+00
         21   -1    0    0  503  502  0.00000000000E+00  0.00000000000E+00  0.30444181488E+04  0.30444181488E+04  0.00000000000E+00 0.  1.
         21   -1    0    0  501  503 -0.00000000000E+00 -0.00000000000E+00 -0.13812070100E+03  0.13812070100E+03  0.00000000000E+00 0.  1.
    9000007    2    1    2  501    0  0.52341040900E+01  0.13024430871E+03  0.24223726981E+03  0.48546495245E+03  0.40000793664E+03 0.  0.
    9000005    1    3    3    0    0 -0.19347553106E+03  0.22813623252E+02  0.11262475251E+03  0.22503016997E+03  0.99999687468E+00 0.  0.
          4    1    3    3  501    0  0.19870963515E+03  0.10743068546E+03  0.12961251731E+03  0.26043478248E+03  0.00000000000E+00 0.  1.
   -9000007    1    1    2    0  502 -0.52341040900E+01 -0.13024430871E+03  0.26640601780E+04  0.26970738973E+04  0.40000000000E+03 0.  1.
<mgrwt>
<rscale>  2 0.42070861E+03</rscale>
<asrwt>0</asrwt>
<pdfrwt beam="1">  1       21 0.46837198E+00 0.42071050E+03</pdfrwt>
<pdfrwt beam="2">  1       21 0.21249341E-01 0.42071050E+03</pdfrwt>
<totfact> 0.48777771E+01</totfact>
</mgrwt>
</event>
<event>
 6    1  0.9399121E-004  0.4715649E+03  0.7818608E-02  0.1021561E+00
         21   -1    0    0  503  502  0.00000000000E+00  0.00000000000E+00  0.18349821468E+03  0.18349821468E+03  0.00000000000E+00 0. -1.
         21   -1    0    0  501  503 -0.00000000000E+00 -0.00000000000E+00 -0.14009375854E+04  0.14009375854E+04  0.00000000000E+00 0. -1.
    9000007    2    1    2  501    0  0.19288109475E+03 -0.15518469727E+03 -0.90268253614E+03  0.10184346765E+04  0.40135772360E+03 0.  0.
    9000005    1    3    3    0    0  0.29615461702E+03 -0.60937639231E+02 -0.76333560569E+03  0.82103787974E+03  0.99999687468E+00 0.  0.
          4    1    3    3  501    0 -0.10327352227E+03 -0.94247058042E+02 -0.13934693045E+03  0.19739679678E+03  0.00000000000E+00 0.  1.
   -9000007    1    1    2    0  502 -0.19288109475E+03  0.15518469727E+03 -0.31475683460E+03  0.56600112359E+03  0.40000000000E+03 0. -1.
<mgrwt>
<rscale>  2 0.47127585E+03</rscale>
<asrwt>0</asrwt>
<pdfrwt beam="1">  1       21 0.28230495E-01 0.47156487E+03</pdfrwt>
<pdfrwt beam="2">  1       21 0.21552885E+00 0.47156487E+03</pdfrwt>
<totfact> 0.10585700E+03</totfact>
</mgrwt>
</event>
<event>
 6    1  0.9399121E-004  0.5984301E+03  0.7818608E-02  0.9908787E-01
         21   -1    0    0  503  502  0.00000000000E+00  0.00000000000E+00  0.27228176964E+03  0.27228176964E+03  0.00000000000E+00 0.  1.
         21   -1    0    0  501  503 -0.00000000000E+00 -0.00000000000E+00 -0.14019042962E+04  0.14019042962E+04  0.00000000000E+00 0. -1.
    9000007    2    1    2  501    0 -0.39862230129E+01  0.44478177232E+03 -0.77362866310E+03  0.97806944791E+03  0.40033963282E+03 0.  0.
    9000005    1    3    3    0    0  0.90790524075E+02 -0.43499065307E+02 -0.11787687790E+03  0.15501950291E+03  0.99999687468E+00 0.  0.
          4    1    3    3  501    0 -0.94776747088E+02  0.48828083762E+03 -0.65575178520E+03  0.82304994500E+03  0.00000000000E+00 0.  1.
   -9000007    1    1    2    0  502  0.39862230129E+01 -0.44478177232E+03 -0.35599386349E+03  0.69611661796E+03  0.40000000000E+03 0.  1.
<mgrwt>
<rscale>  2 0.59837326E+03</rscale>
<asrwt>0</asrwt>
<pdfrwt beam="1">  1       21 0.41889503E-01 0.59843006E+03</pdfrwt>
<pdfrwt beam="2">  1       21 0.21567758E+00 0.59843006E+03</pdfrwt>
<totfact> 0.45060670E+02</totfact>
</mgrwt>
</event>
<event>
 6    1  0.9399121E-004  0.4741722E+03  0.7818608E-02  0.1020791E+00
         21   -1    0    0  503  502  0.00000000000E+00  0.00000000000E+00  0.20308611636E+03  0.20308611636E+03  0.00000000000E+00 0.  1.
         21   -1    0    0  501  503 -0.00000000000E+00 -0.00000000000E+00 -0.11800579438E+04  0.11800579438E+04  0.00000000000E+00 0.  1.
    9000007    2    1    2  501    0  0.29407334301E+02  0.25180620355E+03 -0.31519164681E+03  0.56937249336E+03  0.40070950390E+03 0.  0.
    9000005    1    3    3    0    0  0.20077201964E+03  0.20552021440E+03 -0.13863571666E+03  0.31901226360E+03  0.99999687468E+00 0.  0.
          4    1    3    3  501    0 -0.17136468534E+03  0.46285989150E+02 -0.17655593015E+03  0.25036022976E+03  0.00000000000E+00 0.  1.
   -9000007    1    1    2    0  502 -0.29407334301E+02 -0.25180620355E+03 -0.66178018063E+03  0.81377156680E+03  0.40000000000E+03 0.  1.
<mgrwt>
<rscale>  2 0.47402226E+03</rscale>
<asrwt>0</asrwt>
<pdfrwt beam="1">  1       21 0.31244019E-01 0.47417219E+03</pdfrwt>
<pdfrwt beam="2">  1       21 0.18154737E+00 0.47417219E+03</pdfrwt>
<totfact> 0.14623187E+03</totfact>
</mgrwt>
</event>
<event>
 6    1  0.9399121E-004  0.1186892E+04  0.7818608E-02  0.9124512E-01
         21   -1    0    0  503  502  0.00000000000E+00  0.00000000000E+00  0.19648463044E+04  0.19648463044E+04  0.00000000000E+00 0.  1.
         21   -1    0    0  501  503 -0.00000000000E+00 -0.00000000000E+00 -0.75949068807E+03  0.75949068807E+03  0.00000000000E+00 0. -1.
    9000007    2    1    2  501    0  0.73659009673E+03 -0.84032651233E+03  0.27914039144E+03  0.12188177263E+04  0.39860215001E+03 0.  0.
    9000005    1    3    3    0    0  0.64096240853E+03 -0.44957078472E+03  0.15807279225E+03  0.79870814899E+03  0.99999687468E+00 0.  0.
          4    1    3    3  501    0  0.95627688199E+02 -0.39075572761E+03  0.12106759918E+03  0.42010957735E+03  0.00000000000E+00 0.  1.
   -9000007    1    1    2    0  502 -0.73659009673E+03  0.84032651233E+03  0.92621522491E+03  0.15055192662E+04  0.40000000000E+03 0.  1.
<mgrwt>
<rscale>  2 0.11867748E+04</rscale>
<asrwt>0</asrwt>
<pdfrwt beam="1">  1       21 0.30228404E+00 0.11868924E+04</pdfrwt>
<pdfrwt beam="2">  1       21 0.11684472E+00 0.11868924E+04</pdfrwt>
<totfact> 0.10099816E+01</totfact>
</mgrwt>
</event>
<event>
 6    1  0.9399121E-004  0.4020876E+03  0.7818608E-02  0.1043070E+00
         21   -1    0    0  503  502  0.00000000000E+00  0.00000000000E+00  0.73909544402E+03  0.73909544402E+03  0.00000000000E+00 0.  1.
         21   -1    0    0  501  503 -0.00000000000E+00 -0.00000000000E+00 -0.21870439154E+03  0.21870439154E+03  0.00000000000E+00 0.  1.
    9000007    2    1    2  501    0  0.49057944204E+01 -0.39420560964E+02  0.25529998480E+03  0.47629041550E+03  0.40012051961E+03 0.  0.
    9000005    1    3    3    0    0 -0.11371596323E+03  0.13904184497E+03  0.69272869580E+02  0.19251931176E+03  0.99999687468E+00 0.  0.
          4    1    3    3  501    0  0.11862175765E+03 -0.17846240594E+03  0.18602711522E+03  0.28377110374E+03  0.00000000000E+00 0.  1.
   -9000007    1    1    2    0  502 -0.49057944204E+01  0.39420560964E+02  0.26509106767E+03  0.48150942006E+03  0.40000000000E+03 0.  1.
<mgrwt>
<rscale>  2 0.40205766E+03</rscale>
<asrwt>0</asrwt>
<pdfrwt beam="1">  1       21 0.11370699E+00 0.40208765E+03</pdfrwt>
<pdfrwt beam="2">  1       21 0.33646830E-01 0.40208765E+03</pdfrwt>
<totfact> 0.45645499E+03</totfact>
</mgrwt>
</event>
<event>
 6    1  0.9399121E-004  0.4138050E+03  0.7818608E-02  0.1039127E+00
         21   -1    0    0  503  502  0.00000000000E+00  0.00000000000E+00  0.80479955271E+03  0.80479955271E+03  0.00000000000E+00 0.  1.
         21   -1    0    0  501  503 -0.00000000000E+00 -0.00000000000E+00 -0.21830721402E+03  0.21830721402E+03  0.00000000000E+00 0.  1.
    9000007    2    1    2  501    0 -0.59724357809E+02 -0.86120718916E+02  0.37598380468E+03  0.55910502101E+03  0.40031340971E+03 0.  0.
    9000005    1    3    3    0    0 -0.43520238980E+02  0.15718541767E+03  0.10220863016E+03  0.19248083229E+03  0.99999687468E+00 0.  0.
          4    1    3    3  501    0 -0.16204118829E+02 -0.24330613658E+03  0.27377517452E+03  0.36662418871E+03  0.00000000000E+00 0.  1.
   -9000007    1    1    2    0  502  0.59724357809E+02  0.86120718916E+02  0.21050853401E+03  0.46400174572E+03  0.40000000000E+03 0.  1.
<mgrwt>
<rscale>  2 0.41372921E+03</rscale>
<asrwt>0</asrwt>
<pdfrwt beam="1">  1       21 0.12381531E+00 0.41380503E+03</pdfrwt>
<pdfrwt beam="2">  1       21 0.33585726E-01 0.41380503E+03</pdfrwt>
<totfact> 0.36785658E+03</totfact>
</mgrwt>
</event>
<event>
 6    1  0.9399121E-004  0.5096625E+03  0.7818608E-02  0.1011318E+00
         21   -1    0    0  503  502  0.00000000000E+00  0.00000000000E+00  0.16070027233E+03  0.16070027233E+03  0.00000000000E+00 0. -1.
         21   -1    0    0  501  503 -0.00000000000E+00 -0.00000000000E+00 -0.16209041639E+04  0.16209041639E+04  0.00000000000E+00 0. -1.
    9000007    2    1    2  501    0  0.26225503880E+03 -0.17600608622E+03 -0.78422603570E+03  0.93502194800E+03  0.39937416092E+03 0.  0.
    9000005    1    3    3    0    0  0.18928166166E+03 -0.14169422958E+03 -0.81508085680E+03  0.84868286494E+03  0.99999687468E+00 0.  0.
          4    1    3    3  501    0  0.72973377137E+02 -0.34311856642E+02  0.30854821102E+02  0.86339083052E+02  0.00000000000E+00 0.  1.
   -9000007    1    1    2    0  502 -0.26225503880E+03  0.17600608622E+03 -0.67597785589E+03  0.84658248825E+03  0.40000000000E+03 0. -1.
<mgrwt>
<rscale>  2 0.50953968E+03</rscale>
<asrwt>0</asrwt>
<pdfrwt beam="1">  1       21 0.24723118E-01 0.50966248E+03</pdfrwt>
<pdfrwt beam="2">  1       21 0.24936988E+00 0.50966248E+03</pdfrwt>
<totfact> 0.82615636E+02</totfact>
</mgrwt>
</event>
<event>
 6    1  0.9399121E-004  0.4631210E+03  0.7818608E-02  0.1023961E+00
         21   -1    0    0  503  502  0.00000000000E+00  0.00000000000E+00  0.73089084954E+03  0.73089084954E+03  0.00000000000E+00 0.  1.
         21   -1    0    0  501  503 -0.00000000000E+00 -0.00000000000E+00 -0.46029471913E+03  0.46029471913E+03  0.00000000000E+00 0. -1.
    9000007    2    1    2  501    0 -0.21251373087E+03  0.96534828574E+02 -0.22414852090E+03  0.51350324712E+03  0.39870034668E+03 0.  0.
    9000005    1    3    3    0    0 -0.32898136089E+03  0.94645329063E+02 -0.19275579798E+03  0.39286418999E+03  0.99999687468E+00 0.  0.
          4    1    3    3  501    0  0.11646763002E+03  0.18894995107E+01 -0.31392722917E+02  0.12063905712E+03  0.00000000000E+00 0.  1.
   -9000007    1    1    2    0  502  0.21251373087E+03 -0.96534828574E+02  0.49474465132E+03  0.67768232155E+03  0.40000000000E+03 0.  1.
<mgrwt>
<rscale>  2 0.46284023E+03</rscale>
<asrwt>0</asrwt>
<pdfrwt beam="1">  1       21 0.11244475E+00 0.46312100E+03</pdfrwt>
<pdfrwt beam="2">  1       21 0.70814572E-01 0.46312100E+03</pdfrwt>
<totfact> 0.94374729E+02</totfact>
</mgrwt>
</event>
<event>
 6    1  0.9399121E-004  0.4083747E+03  0.7818608E-02  0.1041340E+00
         21   -1    0    0  503  502  0.00000000000E+00  0.00000000000E+00  0.82843293809E+03  0.82843293809E+03  0.00000000000E+00 0. -1.
         21   -1    0    0  501  503 -0.00000000000E+00 -0.00000000000E+00 -0.24891702089E+03  0.24891702089E+03  0.00000000000E+00 0. -1.
    9000007    2    1    2  501    0 -0.62023130037E+02  0.54065038631E+02  0.52988788983E+03  0.66597076875E+03  0.39492529923E+03 0.  0.
    9000005    1    3    3    0    0 -0.21393079606E+02 -0.82066888662E+02 -0.28746963657E+02  0.89554597777E+02  0.99999687468E+00 0.  0.
          4    1    3    3  501    0 -0.40630050431E+02  0.13613192729E+03  0.55863485349E+03  0.57641617097E+03  0.00000000000E+00 0.  1.
   -9000007    1    1    2    0  502  0.62023130037E+02 -0.54065038631E+02  0.49628027370E+02  0.41137919024E+03  0.40000000000E+03 0. -1.
<mgrwt>
<rscale>  2 0.40712666E+03</rscale>
<asrwt>0</asrwt>
<pdfrwt beam="1">  1       21 0.12745122E+00 0.40837470E+03</pdfrwt>
<pdfrwt beam="2">  1       21 0.38294927E-01 0.40837470E+03</pdfrwt>
<totfact> 0.26235096E+03</totfact>
</mgrwt>
</event>
<event>
 6    1  0.9399121E-004  0.4444122E+03  0.7818608E-02  0.1029438E+00
         21   -1    0    0  503  502  0.00000000000E+00  0.00000000000E+00  0.62935094106E+03  0.62935094106E+03  0.00000000000E+00 0.  1.
         21   -1    0    0  501  503 -0.00000000000E+00 -0.00000000000E+00 -0.96268739662E+03  0.96268739662E+03  0.00000000000E+00 0.  1.
    9000007    2    1    2  501    0 -0.17608374376E+03 -0.80602034630E+02 -0.82032895883E+03  0.93274790771E+03  0.39947075716E+03 0.  0.
    9000005    1    3    3    0    0  0.76195372634E+02  0.78003459721E+02 -0.41854428774E+03  0.43251658389E+03  0.99999687468E+00 0.  0.
          4    1    3    3  501    0 -0.25227911640E+03 -0.15860549435E+03 -0.40178467109E+03  0.50023132382E+03  0.00000000000E+00 0.  1.
   -9000007    1    1    2    0  502  0.17608374376E+03  0.80602034630E+02  0.48699250328E+03  0.65929042997E+03  0.40000000000E+03 0.  1.
<mgrwt>
<rscale>  2 0.44429304E+03</rscale>
<asrwt>0</asrwt>
<pdfrwt beam="1">  1       21 0.96823222E-01 0.44441217E+03</pdfrwt>
<pdfrwt beam="2">  1       21 0.14810575E+00 0.44441217E+03</pdfrwt>
<totfact> 0.22478224E+02</totfact>
</mgrwt>
</event>
<event>
 6    1  0.9399121E-004  0.5993757E+03  0.7818608E-02  0.9907024E-01
         21   -1    0    0  503  502  0.00000000000E+00  0.00000000000E+00  0.35205101341E+03  0.35205101341E+03  0.00000000000E+00 0. -1.
         21   -1    0    0  501  503 -0.00000000000E+00 -0.00000000000E+00 -0.10297681537E+04  0.10297681537E+04  0.00000000000E+00 0. -1.
    9000007    2    1    2  501    0  0.27175434196E+03  0.35307160891E+03 -0.26970194345E+03  0.65725972564E+03  0.40092546097E+03 0.  0.
    9000005    1    3    3    0    0 -0.56392478226E+02 -0.52259313069E+02 -0.22418896513E+02  0.80092161399E+02  0.99999687468E+00 0.  0.
          4    1    3    3  501    0  0.32814682019E+03  0.40533092198E+03 -0.24728304693E+03  0.57716756424E+03  0.00000000000E+00 0.  1.
   -9000007    1    1    2    0  502 -0.27175434196E+03 -0.35307160891E+03 -0.40801519689E+03  0.72455944151E+03  0.40000000000E+03 0. -1.
<mgrwt>
<rscale>  2 0.59922096E+03</rscale>
<asrwt>0</asrwt>
<pdfrwt beam="1">  1       21 0.54161694E-01 0.59937568E+03</pdfrwt>
<pdfrwt beam="2">  1       21 0.15842587E+00 0.59937568E+03</pdfrwt>
<totfact> 0.65814115E+02</totfact>
</mgrwt>
</event>
<event>
 6    1  0.9399121E-004  0.5415649E+03  0.7818608E-02  0.1003566E+00
         21   -1    0    0  503  502  0.00000000000E+00  0.00000000000E+00  0.23373276830E+03  0.23373276830E+03  0.00000000000E+00 0.  1.
         21   -1    0    0  501  503 -0.00000000000E+00 -0.00000000000E+00 -0.12522983492E+04  0.12522983492E+04  0.00000000000E+00 0.  1.
    9000007    2    1    2  501    0 -0.25469017630E+03 -0.26158262399E+03 -0.48332626537E+03  0.72460240782E+03  0.39768305915E+03 0.  0.
    9000005    1    3    3    0    0 -0.40623940810E+02  0.60310228053E+02  0.32782928142E+02  0.79770599509E+02  0.99999687468E+00 0.  0.
          4    1    3    3  501    0 -0.21406623549E+03 -0.32189285204E+03 -0.51610919352E+03  0.64483180831E+03  0.00000000000E+00 0.  1.
   -9000007    1    1    2    0  502  0.25469017630E+03  0.26158262399E+03 -0.53523931556E+03  0.76142870973E+03  0.40000000000E+03 0.  1.
<mgrwt>
<rscale>  2 0.54113715E+03</rscale>
<asrwt>0</asrwt>
<pdfrwt beam="1">  1       21 0.35958888E-01 0.54156491E+03</pdfrwt>
<pdfrwt beam="2">  1       21 0.19266128E+00 0.54156491E+03</pdfrwt>
<totfact> 0.89834030E+02</totfact>
</mgrwt>
</event>
<event>
 6    1  0.9399121E-004  0.4276050E+03  0.7818608E-02  0.1034622E+00
         21   -1    0    0  503  502  0.00000000000E+00  0.00000000000E+00  0.36320954722E+03  0.36320954722E+03  0.00000000000E+00 0.  1.
         21   -1    0    0  501  503 -0.00000000000E+00 -0.00000000000E+00 -0.58598249352E+03  0.58598249352E+03  0.00000000000E+00 0.  1.
    9000007    2    1    2  501    0  0.55866585330E+02 -0.14044547980E+03 -0.28957828772E+03  0.51639998699E+03  0.39995919003E+03 0.  0.
    9000005    1    3    3    0    0  0.12377384658E+03  0.10934007814E+03 -0.14576557838E+03  0.22028123302E+03  0.99999687468E+00 0.  0.
          4    1    3    3  501    0 -0.67907261255E+02 -0.24978555794E+03 -0.14381270934E+03  0.29611875397E+03  0.00000000000E+00 0.  1.
   -9000007    1    1    2    0  502 -0.55866585330E+02  0.14044547980E+03  0.66805341420E+02  0.43279205376E+03  0.40000000000E+03 0.  1.
<mgrwt>
<rscale>  2 0.42759542E+03</rscale>
<asrwt>0</asrwt>
<pdfrwt beam="1">  1       21 0.55878393E-01 0.42760497E+03</pdfrwt>
<pdfrwt beam="2">  1       21 0.90151151E-01 0.42760497E+03</pdfrwt>
<totfact> 0.27646828E+03</totfact>
</mgrwt>
</event>
<event>
 6    1  0.9399121E-004  0.4565232E+03  0.7818608E-02  0.1025813E+00
         21   -1    0    0  503  502  0.00000000000E+00  0.00000000000E+00  0.86038492431E+03  0.86038492431E+03  0.00000000000E+00 0.  1.
         21   -1    0    0  501  503 -0.00000000000E+00 -0.00000000000E+00 -0.44071688222E+03  0.44071688222E+03  0.00000000000E+00 0.  1.
    9000007    2    1    2  501    0 -0.16675258230E+03 -0.14274430757E+03 -0.22686216204E+03  0.50978412955E+03  0.40028871722E+03 0.  0.
    9000005    1    3    3    0    0 -0.14726619358E+03  0.82754190714E+02  0.25444058937E+02  0.17083321686E+03  0.99999687468E+00 0.  0.
          4    1    3    3  501    0 -0.19486388716E+02 -0.22549849829E+03 -0.25230622098E+03  0.33895091270E+03  0.00000000000E+00 0.  1.
   -9000007    1    1    2    0  502  0.16675258230E+03  0.14274430757E+03  0.64653020413E+03  0.79131767698E+03  0.40000000000E+03 0.  1.
<mgrwt>
<rscale>  2 0.45645989E+03</rscale>
<asrwt>0</asrwt>
<pdfrwt beam="1">  1       21 0.13236691E+00 0.45652318E+03</pdfrwt>
<pdfrwt beam="2">  1       21 0.67802597E-01 0.45652318E+03</pdfrwt>
<totfact> 0.68822044E+02</totfact>
</mgrwt>
</event>
<event>
 6    1  0.9399121E-004  0.5654323E+03  0.7818608E-02  0.9979857E-01
         21   -1    0    0  503  502  0.00000000000E+00  0.00000000000E+00  0.16015587242E+04  0.16015587242E+04  0.00000000000E+00 0.  1.
         21   -1    0    0  501  503 -0.00000000000E+00 -0.00000000000E+00 -0.25094469879E+03  0.25094469879E+03  0.00000000000E+00 0.  1.
    9000007    2    1    2  501    0  0.17754700272E+03  0.35803736024E+03  0.25637387404E+03  0.62080735724E+03  0.39995064947E+03 0.  0.
    9000005    1    3    3    0    0  0.12100684122E+03 -0.51869281776E+02  0.13730716476E+03  0.19022969143E+03  0.99999687468E+00 0.  0.
          4    1    3    3  501    0  0.56540161497E+02  0.40990664202E+03  0.11906670928E+03  0.43057766581E+03  0.00000000000E+00 0.  1.
   -9000007    1    1    2    0  502 -0.17754700272E+03 -0.35803736024E+03  0.10942401514E+04  0.12316960658E+04  0.40000000000E+03 0.  1.
<mgrwt>
<rscale>  2 0.56542358E+03</rscale>
<asrwt>0</asrwt>
<pdfrwt beam="1">  1       21 0.24639364E+00 0.56543230E+03</pdfrwt>
<pdfrwt beam="2">  1       21 0.38606878E-01 0.56543230E+03</pdfrwt>
<totfact> 0.34485298E+02</totfact>
</mgrwt>
</event>
<event>
 6    1  0.9399121E-004  0.7532413E+03  0.7818608E-02  0.9630361E-01
         21   -1    0    0  503  502  0.00000000000E+00  0.00000000000E+00  0.21435588898E+04  0.21435588898E+04  0.00000000000E+00 0. -1.
         21   -1    0    0  501  503 -0.00000000000E+00 -0.00000000000E+00 -0.32724378596E+03  0.32724378596E+03  0.00000000000E+00 0. -1.
    9000007    2    1    2  501    0 -0.51396875829E+03 -0.37801137939E+03  0.36779833839E+03  0.83824109738E+03  0.40039484534E+03 0.  0.
    9000005    1    3    3    0    0 -0.43331980400E+03 -0.46427367796E+03  0.30571677141E+03  0.70482610969E+03  0.99999687468E+00 0.  0.
          4    1    3    3  501    0 -0.80648954293E+02  0.86262298571E+02  0.62081566981E+02  0.13341498770E+03  0.00000000000E+00 0.  1.
   -9000007    1    1    2    0  502  0.51396875829E+03  0.37801137939E+03  0.14485167655E+04  0.16325615784E+04  0.40000000000E+03 0. -1.
<mgrwt>
<rscale>  2 0.75318888E+03</rscale>
<asrwt>0</asrwt>
<pdfrwt beam="1">  1       21 0.32977828E+00 0.75324134E+03</pdfrwt>
<pdfrwt beam="2">  1       21 0.50345199E-01 0.75324134E+03</pdfrwt>
<totfact> 0.56112487E+01</totfact>
</mgrwt>
</event>
<event>
 6    1  0.9399121E-004  0.4045235E+03  0.7818608E-02  0.1042292E+00
         21   -1    0    0  503  502  0.00000000000E+00  0.00000000000E+00  0.22444931573E+03  0.22444931573E+03  0.00000000000E+00 0. -1.
         21   -1    0    0  501  503 -0.00000000000E+00 -0.00000000000E+00 -0.10726791355E+04  0.10726791355E+04  0.00000000000E+00 0. -1.
    9000007    2    1    2  501    0 -0.54640386096E+02  0.43752992621E+01 -0.79222014042E+03  0.88952349639E+03  0.40079244592E+03 0.  0.
    9000005    1    3    3    0    0  0.14603221198E+02 -0.10903302818E+03 -0.73776441552E+03  0.74592143561E+03  0.99999687468E+00 0.  0.
          4    1    3    3  501    0 -0.69243607294E+02  0.11340832744E+03 -0.54455724896E+02  0.14360206077E+03  0.00000000000E+00 0.  1.
   -9000007    1    1    2    0  502  0.54640386096E+02 -0.43752992621E+01 -0.56009679349E+02  0.40760495485E+03  0.40000000000E+03 0. -1.
<mgrwt>
<rscale>  2 0.40432712E+03</rscale>
<asrwt>0</asrwt>
<pdfrwt beam="1">  1       21 0.34530664E-01 0.40452355E+03</pdfrwt>
<pdfrwt beam="2">  1       21 0.16502756E+00 0.40452355E+03</pdfrwt>
<totfact> 0.16212889E+03</totfact>
</mgrwt>
</event>
<event>
 6    1  0.9399121E-004  0.5571284E+03  0.7818608E-02  0.9998879E-01
         21   -1    0    0  503  502  0.00000000000E+00  0.00000000000E+00  0.71249854286E+03  0.71249854286E+03  0.00000000000E+00 0.  1.
         21   -1    0    0  501  503 -0.00000000000E+00 -0.00000000000E+00 -0.48139540404E+03  0.48139540404E+03  0.00000000000E+00 0.  1.
    9000007    2    1    2  501    0 -0.16739179852E+03  0.34896248004E+03  0.30048263587E+03  0.63299436471E+03  0.40074583543E+03 0.  0.
    9000005    1    3    3    0    0 -0.13716207203E+03  0.40533426353E+03  0.34942192767E+03  0.55245450738E+03  0.99999687468E+00 0.  0.
          4    1    3    3  501    0 -0.30229726487E+02 -0.56371783492E+02 -0.48939291799E+02  0.80539857334E+02  0.00000000000E+00 0.  1.
   -9000007    1    1    2    0  502  0.16739179852E+03 -0.34896248004E+03 -0.69379497048E+02  0.56089958218E+03  0.40000000000E+03 0.  1.
<mgrwt>
<rscale>  2 0.55699429E+03</rscale>
<asrwt>0</asrwt>
<pdfrwt beam="1">  1       21 0.10961516E+00 0.55712840E+03</pdfrwt>
<pdfrwt beam="2">  1       21 0.74060831E-01 0.55712840E+03</pdfrwt>
<totfact> 0.87742529E+02</totfact>
</mgrwt>
</event>
<event>
 6    1  0.9399121E-004  0.4745378E+03  0.7818608E-02  0.1020770E+00
         21   -1    0    0  503  502  0.00000000000E+00  0.00000000000E+00  0.35992423811E+03  0.35992423811E+03  0.00000000000E+00 0.  1.
         21   -1    0    0  501  503 -0.00000000000E+00 -0.00000000000E+00 -0.94364760617E+03  0.94364760617E+03  0.00000000000E+00 0.  1.
    9000007    2    1    2  501    0  0.22620267464E+03 -0.11839982694E+03 -0.67124721609E+03  0.82103003986E+03  0.39790869833E+03 0.  0.
    9000005    1    3    3    0    0  0.20418992588E+03 -0.14545355825E+03 -0.13709080053E+03  0.28573615631E+03  0.99999687468E+00 0.  0.
          4    1    3    3  501    0  0.22012748765E+02  0.27053731307E+02 -0.53415641556E+03  0.53529388355E+03  0.00000000000E+00 0.  1.
   -9000007    1    1    2    0  502 -0.22620267464E+03  0.11839982694E+03  0.87523848030E+02  0.48254180442E+03  0.40000000000E+03 0.  1.
<mgrwt>
<rscale>  2 0.47409687E+03</rscale>
<asrwt>0</asrwt>
<pdfrwt beam="1">  1       21 0.55372960E-01 0.47453785E+03</pdfrwt>
<pdfrwt beam="2">  1       21 0.14517655E+00 0.47453785E+03</pdfrwt>
<totfact> 0.83489648E+02</totfact>
</mgrwt>
</event>
<event>
 6    1  0.9399121E-004  0.4183332E+03  0.7818608E-02  0.1037660E+00
         21   -1    0    0  503  502  0.00000000000E+00  0.00000000000E+00  0.29446862094E+03  0.29446862094E+03  0.00000000000E+00 0. -1.
         21   -1    0    0  501  503 -0.00000000000E+00 -0.00000000000E+00 -0.79496306352E+03  0.79496306352E+03  0.00000000000E+00 0.  1.
    9000007    2    1    2  501    0  0.12215498764E+03  0.89924816656E+01 -0.52436967582E+03  0.67041768411E+03  0.39936650900E+03 0.  0.
    9000005    1    3    3    0    0 -0.36647344127E+02 -0.14304464858E+03 -0.65383509879E+02  0.16149551906E+03  0.99999687468E+00 0.  0.
          4    1    3    3  501    0  0.15880233177E+03  0.15203713025E+03 -0.45898616594E+03  0.50892216505E+03  0.00000000000E+00 0.  1.
   -9000007    1    1    2    0  502 -0.12215498764E+03 -0.89924816656E+01  0.23875233240E+02  0.41901400036E+03  0.40000000000E+03 0. -1.
<mgrwt>
<rscale>  2 0.41818174E+03</rscale>
<asrwt>0</asrwt>
<pdfrwt beam="1">  1       21 0.45302866E-01 0.41833325E+03</pdfrwt>
<pdfrwt beam="2">  1       21 0.12230201E+00 0.41833325E+03</pdfrwt>
<totfact> 0.20515610E+03</totfact>
</mgrwt>
</event>
<event>
 6    1  0.9399121E-004  0.5155554E+03  0.7818608E-02  0.1009861E+00
         21   -1    0    0  503  502  0.00000000000E+00  0.00000000000E+00  0.53296892565E+03  0.53296892565E+03  0.00000000000E+00 0. -1.
         21   -1    0    0  501  503 -0.00000000000E+00 -0.00000000000E+00 -0.54773169890E+03  0.54773169890E+03  0.00000000000E+00 0.  1.
    9000007    2    1    2  501    0 -0.11022705932E+03 -0.30601855014E+03 -0.17065455078E+03  0.54209167184E+03  0.39867662000E+03 0.  0.
    9000005    1    3    3    0    0 -0.94463310084E+02 -0.10431034820E+02  0.10216376651E+03  0.13953694357E+03  0.99999687468E+00 0.  0.
          4    1    3    3  501    0 -0.15763749238E+02 -0.29558751532E+03 -0.27281831729E+03  0.40255472827E+03  0.00000000000E+00 0.  1.
   -9000007    1    1    2    0  502  0.11022705932E+03  0.30601855014E+03  0.15589177753E+03  0.53860895271E+03  0.40000000000E+03 0. -1.
<mgrwt>
<rscale>  2 0.51529868E+03</rscale>
<asrwt>0</asrwt>
<pdfrwt beam="1">  1       21 0.81995219E-01 0.51555539E+03</pdfrwt>
<pdfrwt beam="2">  1       21 0.84266415E-01 0.51555539E+03</pdfrwt>
<totfact> 0.13288770E+03</totfact>
</mgrwt>
</event>
<event>
 6    1  0.9399121E-004  0.6371097E+03  0.7818608E-02  0.9831725E-01
         21   -1    0    0  503  502  0.00000000000E+00  0.00000000000E+00  0.16263542899E+04  0.16263542899E+04  0.00000000000E+00 0.  1.
         21   -1    0    0  501  503 -0.00000000000E+00 -0.00000000000E+00 -0.67632451257E+03  0.67632451257E+03  0.00000000000E+00 0. -1.
    9000007    2    1    2  501    0 -0.39107068159E+03  0.30491390109E+03 -0.44006225945E+03  0.77354027512E+03  0.39849843157E+03 0.  0.
    9000005    1    3    3    0    0 -0.15929001055E+03 -0.78121914912E+02 -0.19313236243E+03  0.26225455279E+03  0.99999687468E+00 0.  0.
          4    1    3    3  501    0 -0.23178067105E+03  0.38303581601E+03 -0.24692989702E+03  0.51128572233E+03  0.00000000000E+00 0.  1.
   -9000007    1    1    2    0  502  0.39107068159E+03 -0.30491390109E+03  0.13900920368E+04  0.15291385273E+04  0.40000000000E+03 0.  1.
<mgrwt>
<rscale>  2 0.63687415E+03</rscale>
<asrwt>0</asrwt>
<pdfrwt beam="1">  1       21 0.25020835E+00 0.63710970E+03</pdfrwt>
<pdfrwt beam="2">  1       21 0.10404993E+00 0.63710970E+03</pdfrwt>
<totfact> 0.34359191E+01</totfact>
</mgrwt>
</event>
<event>
 6    1  0.9399121E-004  0.4066369E+03  0.7818608E-02  0.1041516E+00
         21   -1    0    0  503  502  0.00000000000E+00  0.00000000000E+00  0.92943587300E+03  0.92943587300E+03  0.00000000000E+00 0. -1.
         21   -1    0    0  501  503 -0.00000000000E+00 -0.00000000000E+00 -0.72649790182E+03  0.72649790182E+03  0.00000000000E+00 0. -1.
    9000007    2    1    2  501    0 -0.72066043951E+02  0.75983715864E+01 -0.61804523090E+03  0.73981988014E+03  0.40012785166E+03 0.  0.
    9000005    1    3    3    0    0  0.23489873641E+02 -0.16911493688E+03 -0.43780693760E+03  0.46992291989E+03  0.99999687468E+00 0.  0.
          4    1    3    3  501    0 -0.95555917593E+02  0.17671330847E+03 -0.18023829330E+03  0.26989696024E+03  0.00000000000E+00 0.  1.
   -9000007    1    1    2    0  502  0.72066043951E+02 -0.75983715864E+01  0.82098320207E+03  0.91611389468E+03  0.40000000000E+03 0. -1.
<mgrwt>
<rscale>  2 0.40660542E+03</rscale>
<asrwt>0</asrwt>
<pdfrwt beam="1">  1       21 0.14299013E+00 0.40663687E+03</pdfrwt>
<pdfrwt beam="2">  1       21 0.11176891E+00 0.40663687E+03</pdfrwt>
<totfact> 0.17741055E+02</totfact>
</mgrwt>
</event>
<event>
 6    1  0.9399121E-004  0.4715890E+03  0.7818608E-02  0.1021515E+00
         21   -1    0    0  503  502  0.00000000000E+00  0.00000000000E+00  0.18408999770E+03  0.18408999770E+03  0.00000000000E+00 0. -1.
         21   -1    0    0  501  503 -0.00000000000E+00 -0.00000000000E+00 -0.12845885903E+04  0.12845885903E+04  0.00000000000E+00 0. -1.
    9000007    2    1    2  501    0 -0.24805038735E+03  0.17149230466E+02 -0.73160554067E+03  0.87042682283E+03  0.40071572966E+03 0.  0.
    9000005    1    3    3    0    0 -0.56895892057E+02 -0.11582863630E+03 -0.57619543774E+03  0.59047065802E+03  0.99999687468E+00 0.  0.
          4    1    3    3  501    0 -0.19115449529E+03  0.13297786677E+03 -0.15541010294E+03  0.27995616481E+03  0.00000000000E+00 0.  1.
   -9000007    1    1    2    0  502  0.24805038735E+03 -0.17149230466E+02 -0.36889305194E+03  0.59825176518E+03  0.40000000000E+03 0. -1.
<mgrwt>
<rscale>  2 0.47143692E+03</rscale>
<asrwt>0</asrwt>
<pdfrwt beam="1">  1       21 0.28321538E-01 0.47158900E+03</pdfrwt>
<pdfrwt beam="2">  1       21 0.19762902E+00 0.47158900E+03</pdfrwt>
<totfact> 0.13798103E+03</totfact>
</mgrwt>
</event>
<event>
 6    1  0.9399121E-004  0.4810672E+03  0.7818608E-02  0.1018880E+00
         21   -1    0    0  503  502  0.00000000000E+00  0.00000000000E+00  0.14216913064E+03  0.14216913064E+03  0.00000000000E+00 0.  1.
         21   -1    0    0  501  503 -0.00000000000E+00 -0.00000000000E+00 -0.17733933408E+04  0.17733933408E+04  0.00000000000E+00 0. -1.
    9000007    2    1    2  501    0 -0.11037541078E+03 -0.24339862323E+03 -0.10913622630E+04  0.11924604433E+04  0.39933031271E+03 0.  0.
    9000005    1    3    3    0    0  0.35733023368E+02 -0.25291481848E+03 -0.33082910192E+03  0.41796130089E+03  0.99999687468E+00 0.  0.
          4    1    3    3  501    0 -0.14610843415E+03  0.95161952571E+01 -0.76053316107E+03  0.77449914240E+03  0.00000000000E+00 0.  1.
   -9000007    1    1    2    0  502  0.11037541078E+03  0.24339862323E+03 -0.53986194716E+03  0.72310202813E+03  0.40000000000E+03 0.  1.
<mgrwt>
<rscale>  2 0.48092794E+03</rscale>
<asrwt>0</asrwt>
<pdfrwt beam="1">  1       21 0.21872175E-01 0.48106717E+03</pdfrwt>
<pdfrwt beam="2">  1       21 0.27282974E+00 0.48106717E+03</pdfrwt>
<totfact> 0.76266113E+02</totfact>
</mgrwt>
</event>
<event>
 6    1  0.9399121E-004  0.5747540E+03  0.7818608E-02  0.9959221E-01
         21   -1    0    0  503  502  0.00000000000E+00  0.00000000000E+00  0.77304940765E+03  0.77304940765E+03  0.00000000000E+00 0.  1.
         21   -1    0    0  501  503 -0.00000000000E+00 -0.00000000000E+00 -0.93252850507E+03  0.93252850507E+03  0.00000000000E+00 0. -1.
    9000007    2    1    2  501    0 -0.14058110148E+03 -0.38802416269E+03 -0.70743530071E+03  0.91148610591E+03  0.40002052405E+03 0.  0.
    9000005    1    3    3    0    0  0.64753047764E+02 -0.30995410914E+03 -0.57091083922E+03  0.65284354428E+03  0.99999687468E+00 0.  0.
          4    1    3    3  501    0 -0.20533414924E+03 -0.78070053545E+02 -0.13652446149E+03  0.25864256164E+03  0.00000000000E+00 0.  1.
   -9000007    1    1    2    0  502  0.14058110148E+03  0.38802416269E+03  0.54795620329E+03  0.79409180681E+03  0.40000000000E+03 0.  1.
<mgrwt>
<rscale>  2 0.57475048E+03</rscale>
<asrwt>0</asrwt>
<pdfrwt beam="1">  1       21 0.11893068E+00 0.57475405E+03</pdfrwt>
<pdfrwt beam="2">  1       21 0.14346592E+00 0.57475405E+03</pdfrwt>
<totfact> 0.13870295E+02</totfact>
</mgrwt>
</event>
<event>
 6    1  0.9399121E-004  0.4252492E+03  0.7818608E-02  0.1035433E+00
         21   -1    0    0  503  502  0.00000000000E+00  0.00000000000E+00  0.15252007465E+03  0.15252007465E+03  0.00000000000E+00 0.  1.
         21   -1    0    0  501  503 -0.00000000000E+00 -0.00000000000E+00 -0.12233661562E+04  0.12233661562E+04  0.00000000000E+00 0.  1.
    9000007    2    1    2  501    0 -0.61351249309E+01 -0.14421927989E+03 -0.65909985802E+03  0.78396411345E+03  0.39918700867E+03 0.  0.
    9000005    1    3    3    0    0 -0.21980910285E+01  0.13172111796E+03 -0.32461298945E+03  0.35032824242E+03  0.99999687468E+00 0.  0.
          4    1    3    3  501    0 -0.39370339024E+01 -0.27594039786E+03 -0.33448686857E+03  0.43363587103E+03  0.00000000000E+00 0.  1.
   -9000007    1    1    2    0  502  0.61351249309E+01  0.14421927989E+03 -0.41174622348E+03  0.59192211735E+03  0.40000000000E+03 0.  1.
<mgrwt>
<rscale>  2 0.42505786E+03</rscale>
<asrwt>0</asrwt>
<pdfrwt beam="1">  1       21 0.23464627E-01 0.42524915E+03</pdfrwt>
<pdfrwt beam="2">  1       21 0.18821017E+00 0.42524915E+03</pdfrwt>
<totfact> 0.23546982E+03</totfact>
</mgrwt>
</event>
<event>
 6    1  0.9399121E-004  0.4845361E+03  0.7818608E-02  0.1017957E+00
         21   -1    0    0  503  502  0.00000000000E+00  0.00000000000E+00  0.15044788196E+04  0.15044788196E+04  0.00000000000E+00 0.  1.
         21   -1    0    0  501  503 -0.00000000000E+00 -0.00000000000E+00 -0.25201651561E+03  0.25201651561E+03  0.00000000000E+00 0.  1.
    9000007    2    1    2  501    0  0.15883535369E+03 -0.22062192171E+03  0.83821575937E+02  0.49173296497E+03  0.40108920494E+03 0.  0.
    9000005    1    3    3    0    0  0.12303497075E+03  0.81380334490E+02 -0.54991060010E+02  0.15743373065E+03  0.99999687468E+00 0.  0.
          4    1    3    3  501    0  0.35800382936E+02 -0.30200225620E+03  0.13881263595E+03  0.33429923432E+03  0.00000000000E+00 0.  1.
   -9000007    1    1    2    0  502 -0.15883535369E+03  0.22062192171E+03  0.11686407280E+04  0.12647623702E+04  0.40000000000E+03 0.  1.
<mgrwt>
<rscale>  2 0.48431065E+03</rscale>
<asrwt>0</asrwt>
<pdfrwt beam="1">  1       21 0.23145827E+00 0.48453612E+03</pdfrwt>
<pdfrwt beam="2">  1       21 0.38771773E-01 0.48453612E+03</pdfrwt>
<totfact> 0.43965581E+02</totfact>
</mgrwt>
</event>
<event>
 6    1  0.9399121E-004  0.5855757E+03  0.7818608E-02  0.9935837E-01
         21   -1    0    0  503  502  0.00000000000E+00  0.00000000000E+00  0.87765773913E+03  0.87765773913E+03  0.00000000000E+00 0. -1.
         21   -1    0    0  501  503 -0.00000000000E+00 -0.00000000000E+00 -0.39100306303E+03  0.39100306303E+03  0.00000000000E+00 0.  1.
    9000007    2    1    2  501    0  0.27992990948E+03 -0.32332351298E+03  0.22401972054E+03  0.62688516524E+03  0.39987663965E+03 0.  0.
    9000005    1    3    3    0    0  0.42479015665E+02 -0.32352507794E+03  0.21201128358E+03  0.38913073277E+03  0.99999687468E+00 0.  0.
          4    1    3    3  501    0  0.23745089381E+03  0.20156495961E+00  0.12008436962E+02  0.23775443247E+03  0.00000000000E+00 0.  1.
   -9000007    1    1    2    0  502 -0.27992990948E+03  0.32332351298E+03  0.26263495556E+03  0.64177563693E+03  0.40000000000E+03 0. -1.
<mgrwt>
<rscale>  2 0.58555459E+03</rscale>
<asrwt>0</asrwt>
<pdfrwt beam="1">  1       21 0.13502427E+00 0.58557566E+03</pdfrwt>
<pdfrwt beam="2">  1       21 0.60154317E-01 0.58557566E+03</pdfrwt>
<totfact> 0.81204939E+02</totfact>
</mgrwt>
</event>
<event>
 6    1  0.9399121E-004  0.4253230E+03  0.7818608E-02  0.1035426E+00
         21   -1    0    0  503  502  0.00000000000E+00  0.00000000000E+00  0.72273795290E+03  0.72273795290E+03  0.00000000000E+00 0.  1.
         21   -1    0    0  501  503 -0.00000000000E+00 -0.00000000000E+00 -0.26134848575E+03  0.26134848575E+03  0.00000000000E+00 0.  1.
    9000007    2    1    2  501    0 -0.82995623102E+02 -0.11836983177E+03  0.12667088663E+03  0.44285061327E+03  0.39896298278E+03 0.  0.
    9000005    1    3    3    0    0 -0.19275835797E+03  0.70915820613E+02  0.55487998297E+02  0.21275515535E+03  0.99999687468E+00 0.  0.
          4    1    3    3  501    0  0.10976273487E+03 -0.18928565238E+03  0.71182888337E+02  0.23009545792E+03  0.00000000000E+00 0.  1.
   -9000007    1    1    2    0  502  0.82995623102E+02  0.11836983177E+03  0.33471858052E+03  0.54123582538E+03  0.40000000000E+03 0.  1.
<mgrwt>
<rscale>  2 0.42507905E+03</rscale>
<asrwt>0</asrwt>
<pdfrwt beam="1">  1       21 0.11119045E+00 0.42532304E+03</pdfrwt>
<pdfrwt beam="2">  1       21 0.40207459E-01 0.42532304E+03</pdfrwt>
<totfact> 0.33297717E+03</totfact>
</mgrwt>
</event>
<event>
 6    1  0.9399121E-004  0.6501472E+03  0.7818608E-02  0.9807247E-01
         21   -1    0    0  503  502  0.00000000000E+00  0.00000000000E+00  0.66966808795E+03  0.66966808795E+03  0.00000000000E+00 0.  1.
         21   -1    0    0  501  503 -0.00000000000E+00 -0.00000000000E+00 -0.64640237177E+03  0.64640237177E+03  0.00000000000E+00 0.  1.
    9000007    2    1    2  501    0  0.51042225136E+03  0.10145662536E+02  0.11755505425E+03  0.66068943435E+03  0.40256369525E+03 0.  0.
    9000005    1    3    3    0    0  0.13629778165E+03  0.73941384198E+02  0.21853483694E+03  0.26796061004E+03  0.99999687468E+00 0.  0.
          4    1    3    3  501    0  0.37412446970E+03 -0.63795721662E+02 -0.10097978269E+03  0.39272882431E+03  0.00000000000E+00 0.  1.
   -9000007    1    1    2    0  502 -0.51042225136E+03 -0.10145662536E+02 -0.94289338071E+02  0.65538102537E+03  0.40000000000E+03 0.  1.
<mgrwt>
<rscale>  2 0.64975073E+03</rscale>
<asrwt>0</asrwt>
<pdfrwt beam="1">  1       21 0.10302586E+00 0.65014717E+03</pdfrwt>
<pdfrwt beam="2">  1       21 0.99446519E-01 0.65014717E+03</pdfrwt>
<totfact> 0.49533936E+02</totfact>
</mgrwt>
</event>
<event>
 6    1  0.9399121E-004  0.8581484E+03  0.7818608E-02  0.9479586E-01
         21   -1    0    0  503  502  0.00000000000E+00  0.00000000000E+00  0.39173678530E+03  0.39173678530E+03  0.00000000000E+00 0.  1.
         21   -1    0    0  501  503 -0.00000000000E+00 -0.00000000000E+00 -0.20122418104E+04  0.20122418104E+04  0.00000000000E+00 0. -1.
    9000007    2    1    2  501    0 -0.71151961318E+03  0.26369471364E+03 -0.11196143252E+04  0.14106576228E+04  0.40077877894E+03 0.  0.
    9000005    1    3    3    0    0 -0.68380793785E+03  0.34915427351E+03 -0.10168074810E+04  0.12741273312E+04  0.99999687468E+00 0.  0.
          4    1    3    3  501    0 -0.27711675330E+02 -0.85459559878E+02 -0.10280684413E+03  0.13653029160E+03  0.00000000000E+00 0.  1.
   -9000007    1    1    2    0  502  0.71151961318E+03 -0.26369471364E+03 -0.50089069993E+03  0.99332097291E+03  0.40000000000E+03 0.  1.
<mgrwt>
<rscale>  2 0.85805754E+03</rscale>
<asrwt>0</asrwt>
<pdfrwt beam="1">  1       21 0.60267197E-01 0.85814841E+03</pdfrwt>
<pdfrwt beam="2">  1       21 0.30957567E+00 0.85814841E+03</pdfrwt>
<totfact> 0.48607540E+01</totfact>
</mgrwt>
</event>
<event>
 6    1  0.9399121E-004  0.4450252E+03  0.7818608E-02  0.1029274E+00
         21   -1    0    0  503  502  0.00000000000E+00  0.00000000000E+00  0.26171103170E+04  0.26171103170E+04  0.00000000000E+00 0.  1.
         21   -1    0    0  501  503 -0.00000000000E+00 -0.00000000000E+00 -0.78369297427E+02  0.78369297427E+02  0.00000000000E+00 0.  1.
    9000007    2    1    2  501    0  0.19495023457E+03  0.64712790269E+01  0.10124335452E+04  0.11056173633E+04  0.39914984536E+03 0.  0.
    9000005    1    3    3    0    0 -0.27194247490E+02 -0.15523298970E+03  0.49885188879E+03  0.52315486726E+03  0.99999687468E+00 0.  0.
          4    1    3    3  501    0  0.22214448206E+03  0.16170426873E+03  0.51358165644E+03  0.58246249602E+03  0.00000000000E+00 0.  1.
   -9000007    1    1    2    0  502 -0.19495023457E+03 -0.64712790269E+01  0.15263074743E+04  0.15898622511E+04  0.40000000000E+03 0.  1.
<mgrwt>
<rscale>  2 0.44483413E+03</rscale>
<asrwt>0</asrwt>
<pdfrwt beam="1">  1       21 0.40263229E+00 0.44502525E+03</pdfrwt>
<pdfrwt beam="2">  1       21 0.12056817E-01 0.44502525E+03</pdfrwt>
<totfact> 0.37786989E+02</totfact>
</mgrwt>
</event>
<event>
 6    1  0.9399121E-004  0.5099796E+03  0.7818608E-02  0.1011208E+00
         21   -1    0    0  503  502  0.00000000000E+00  0.00000000000E+00  0.26195248570E+03  0.26195248570E+03  0.00000000000E+00 0.  1.
         21   -1    0    0  501  503 -0.00000000000E+00 -0.00000000000E+00 -0.13294804320E+04  0.13294804320E+04  0.00000000000E+00 0.  1.
    9000007    2    1    2  501    0 -0.54974892916E+02  0.31153972425E+03 -0.93418707690E+03  0.10643095677E+04  0.39996265157E+03 0.  0.
    9000005    1    3    3    0    0 -0.57827105601E+02  0.17546541688E+03 -0.83397704906E+02  0.20270240216E+03  0.99999687468E+00 0.  0.
          4    1    3    3  501    0  0.28522126844E+01  0.13607430737E+03 -0.85078937199E+03  0.86160716556E+03  0.00000000000E+00 0.  1.
   -9000007    1    1    2    0  502  0.54974892916E+02 -0.31153972425E+03 -0.13334086938E+03  0.52712334997E+03  0.40000000000E+03 0.  1.
<mgrwt>
<rscale>  2 0.50997232E+03</rscale>
<asrwt>0</asrwt>
<pdfrwt beam="1">  1       21 0.40300383E-01 0.50997965E+03</pdfrwt>
<pdfrwt beam="2">  1       21 0.20453545E+00 0.50997965E+03</pdfrwt>
<totfact> 0.59875794E+02</totfact>
</mgrwt>
</event>
<event>
 6    1  0.9399121E-004  0.4035932E+03  0.7818608E-02  0.1042879E+00
         21   -1    0    0  503  502  0.00000000000E+00  0.00000000000E+00  0.77537364522E+03  0.77537364522E+03  0.00000000000E+00 0. -1.
         21   -1    0    0  501  503 -0.00000000000E+00 -0.00000000000E+00 -0.20909968351E+03  0.20909968351E+03  0.00000000000E+00 0. -1.
    9000007    2    1    2  501    0 -0.24148256396E+01 -0.53681165378E+02  0.31673772764E+03  0.50996744782E+03  0.39605114674E+03 0.  0.
    9000005    1    3    3    0    0 -0.10072493016E+03 -0.13999329506E+03  0.57261396220E+01  0.17256135977E+03  0.99999687468E+00 0.  0.
          4    1    3    3  501    0  0.98310104517E+02  0.86312129677E+02  0.31101158801E+03  0.33740608806E+03  0.00000000000E+00 0.  1.
   -9000007    1    1    2    0  502  0.24148256396E+01  0.53681165378E+02  0.24953623407E+03  0.47450588091E+03  0.40000000000E+03 0.  1.
<mgrwt>
<rscale>  2 0.40261132E+03</rscale>
<asrwt>0</asrwt>
<pdfrwt beam="1">  1       21 0.11928825E+00 0.40359323E+03</pdfrwt>
<pdfrwt beam="2">  1       21 0.32169182E-01 0.40359323E+03</pdfrwt>
<totfact> 0.44272491E+03</totfact>
</mgrwt>
</event>
<event>
 6    1  0.9399121E-004  0.4020027E+03  0.7818608E-02  0.1043099E+00
         21   -1    0    0  503  502  0.00000000000E+00  0.00000000000E+00  0.83313437312E+03  0.83313437312E+03  0.00000000000E+00 0. -1.
         21   -1    0    0  501  503 -0.00000000000E+00 -0.00000000000E+00 -0.12145380457E+04  0.12145380457E+04  0.00000000000E+00 0. -1.
    9000007    2    1    2  501    0 -0.34076385721E+02 -0.18612950278E+02 -0.11292570882E+04  0.11986774993E+04  0.40012314869E+03 0.  0.
    9000005    1    3    3    0    0 -0.12784509977E+03 -0.17602381491E+03 -0.56610965350E+03  0.60647332401E+03  0.99999687468E+00 0.  0.
          4    1    3    3  501    0  0.93768714046E+02  0.15741086463E+03 -0.56314743474E+03  0.59220417534E+03  0.00000000000E+00 0.  1.
   -9000007    1    1    2    0  502  0.34076385721E+02  0.18612950278E+02  0.74785341566E+03  0.84899491947E+03  0.40000000000E+03 0. -1.
<mgrwt>
<rscale>  2 0.40197206E+03</rscale>
<asrwt>0</asrwt>
<pdfrwt beam="1">  1       21 0.12817452E+00 0.40200271E+03</pdfrwt>
<pdfrwt beam="2">  1       21 0.18685201E+00 0.40200271E+03</pdfrwt>
<totfact> 0.59486911E+01</totfact>
</mgrwt>
</event>
<event>
 6    1  0.9399121E-004  0.5544628E+03  0.7818608E-02  0.1000675E+00
         21   -1    0    0  503  502  0.00000000000E+00  0.00000000000E+00  0.38008888843E+03  0.38008888843E+03  0.00000000000E+00 0.  1.
         21   -1    0    0  501  503 -0.00000000000E+00 -0.00000000000E+00 -0.10594254090E+04  0.10594254090E+04  0.00000000000E+00 0.  1.
    9000007    2    1    2  501    0  0.23151930112E+03  0.29969294797E+03 -0.69423858208E+03  0.88847970568E+03  0.40498386229E+03 0.  0.
    9000005    1    3    3    0    0  0.21085241382E+02 -0.30727733758E+02  0.40985694344E+02  0.55404044624E+02  0.99999687468E+00 0.  0.
          4    1    3    3  501    0  0.21043405974E+03  0.33042068173E+03 -0.73522427642E+03  0.83307566106E+03  0.00000000000E+00 0.  1.
   -9000007    1    1    2    0  502 -0.23151930112E+03 -0.29969294797E+03  0.14902061512E+02  0.55103459174E+03  0.40000000000E+03 0.  1.
<mgrwt>
<rscale>  2 0.55355311E+03</rscale>
<asrwt>0</asrwt>
<pdfrwt beam="1">  1       21 0.58475214E-01 0.55446278E+03</pdfrwt>
<pdfrwt beam="2">  1       21 0.16298852E+00 0.55446278E+03</pdfrwt>
<totfact> 0.52240093E+02</totfact>
</mgrwt>
</event>
<event>
 6    1  0.9399121E-004  0.4218871E+03  0.7818608E-02  0.1036638E+00
         21   -1    0    0  503  502  0.00000000000E+00  0.00000000000E+00  0.70900435558E+03  0.70900435558E+03  0.00000000000E+00 0. -1.
         21   -1    0    0  501  503 -0.00000000000E+00 -0.00000000000E+00 -0.71588792997E+03  0.71588792997E+03  0.00000000000E+00 0. -1.
    9000007    2    1    2  501    0 -0.52274601029E+00 -0.13412115787E+03 -0.57836759694E+03  0.71455240473E+03  0.39760194122E+03 0.  0.
    9000005    1    3    3    0    0  0.17992596057E+03  0.19986636491E+02 -0.27815449831E+03  0.33187910729E+03  0.99999687468E+00 0.  0.
          4    1    3    3  501    0 -0.18044870658E+03 -0.15410779436E+03 -0.30021309863E+03  0.38267329744E+03  0.00000000000E+00 0.  1.
   -9000007    1    1    2    0  502  0.52274601029E+00  0.13412115787E+03  0.57148402255E+03  0.71033988082E+03  0.40000000000E+03 0. -1.
<mgrwt>
<rscale>  2 0.42131775E+03</rscale>
<asrwt>0</asrwt>
<pdfrwt beam="1">  1       21 0.10907759E+00 0.42188714E+03</pdfrwt>
<pdfrwt beam="2">  1       21 0.11013660E+00 0.42188714E+03</pdfrwt>
<totfact> 0.36522553E+02</totfact>
</mgrwt>
</event>
<event>
 6    1  0.9399121E-004  0.5066403E+03  0.7818608E-02  0.1012081E+00
         21   -1    0    0  503  502  0.00000000000E+00  0.00000000000E+00  0.28315457138E+03  0.28315457138E+03  0.00000000000E+00 0. -1.
         21   -1    0    0  501  503 -0.00000000000E+00 -0.00000000000E+00 -0.91042595911E+03  0.91042595911E+03  0.00000000000E+00 0. -1.
    9000007    2    1    2  501    0  0.29491905344E+03  0.96843573792E+02 -0.35564196472E+03  0.61900375641E+03  0.40041043632E+03 0.  0.
    9000005    1    3    3    0    0  0.36677652100E+03  0.13263600784E+03 -0.36982320306E+03  0.53748258432E+03  0.99999687468E+00 0.  0.
          4    1    3    3  501    0 -0.71857467561E+02 -0.35792434045E+02  0.14181238331E+02  0.81521172095E+02  0.00000000000E+00 0.  1.
   -9000007    1    1    2    0  502 -0.29491905344E+03 -0.96843573792E+02 -0.27162942301E+03  0.57457677408E+03  0.40000000000E+03 0. -1.
<mgrwt>
<rscale>  2 0.50655925E+03</rscale>
<asrwt>0</asrwt>
<pdfrwt beam="1">  1       21 0.43562241E-01 0.50664035E+03</pdfrwt>
<pdfrwt beam="2">  1       21 0.14006553E+00 0.50664035E+03</pdfrwt>
<totfact> 0.15120271E+03</totfact>
</mgrwt>
</event>
<event>
 6    1  0.9399121E-004  0.4224063E+03  0.7818608E-02  0.1036316E+00
         21   -1    0    0  503  502  0.00000000000E+00  0.00000000000E+00  0.14198964173E+03  0.14198964173E+03  0.00000000000E+00 0. -1.
         21   -1    0    0  501  503 -0.00000000000E+00 -0.00000000000E+00 -0.13010088636E+04  0.13010088636E+04  0.00000000000E+00 0.  1.
    9000007    2    1    2  501    0 -0.12775595832E+03  0.45885682067E+02 -0.71416564496E+03  0.82954778556E+03  0.39961216120E+03 0.  0.
    9000005    1    3    3    0    0 -0.22565486176E+03  0.15627644462E+03 -0.46281124016E+03  0.53808706339E+03  0.99999687468E+00 0.  0.
          4    1    3    3  501    0  0.97898903441E+02 -0.11039076255E+03 -0.25135440480E+03  0.29146072217E+03  0.00000000000E+00 0.  1.
   -9000007    1    1    2    0  502  0.12775595832E+03 -0.45885682067E+02 -0.44485357693E+03  0.61345071979E+03  0.40000000000E+03 0. -1.
<mgrwt>
<rscale>  2 0.42231446E+03</rscale>
<asrwt>0</asrwt>
<pdfrwt beam="1">  1       21 0.21844561E-01 0.42240630E+03</pdfrwt>
<pdfrwt beam="2">  1       21 0.20015521E+00 0.42240630E+03</pdfrwt>
<totfact> 0.22469128E+03</totfact>
</mgrwt>
</event>
<event>
 6    1  0.9399121E-004  0.5172232E+03  0.7818608E-02  0.1009399E+00
         21   -1    0    0  503  502  0.00000000000E+00  0.00000000000E+00  0.15708448873E+04  0.15708448873E+04  0.00000000000E+00 0.  1.
         21   -1    0    0  501  503 -0.00000000000E+00 -0.00000000000E+00 -0.19451325832E+03  0.19451325832E+03  0.00000000000E+00 0. -1.
    9000007    2    1    2  501    0  0.32537822049E+03  0.36325185090E+02  0.37627210541E+03  0.63960970298E+03  0.40041150007E+03 0.  0.
    9000005    1    3    3    0    0  0.37517801357E+02  0.50387107686E+02 -0.78904953471E+02  0.10086346076E+03  0.99999687468E+00 0.  0.
          4    1    3    3  501    0  0.28786041914E+03 -0.14061922597E+02  0.45517705888E+03  0.53874624222E+03  0.00000000000E+00 0.  1.
   -9000007    1    1    2    0  502 -0.32537822049E+03 -0.36325185090E+02  0.10000595236E+04  0.11257484427E+04  0.40000000000E+03 0.  1.
<mgrwt>
<rscale>  2 0.51714359E+03</rscale>
<asrwt>0</asrwt>
<pdfrwt beam="1">  1       21 0.24166844E+00 0.51722324E+03</pdfrwt>
<pdfrwt beam="2">  1       21 0.29925118E-01 0.51722324E+03</pdfrwt>
<totfact> 0.63104849E+02</totfact>
</mgrwt>
</event>
<event>
 6    1  0.9399121E-004  0.6215353E+03  0.7818608E-02  0.9861829E-01
         21   -1    0    0  503  502  0.00000000000E+00  0.00000000000E+00  0.10551588984E+04  0.10551588984E+04  0.00000000000E+00 0.  1.
         21   -1    0    0  501  503 -0.00000000000E+00 -0.00000000000E+00 -0.65704490116E+03  0.65704490116E+03  0.00000000000E+00 0.  1.
    9000007    2    1    2  501    0  0.47469463015E+03 -0.31162601601E+02 -0.37077685934E+03  0.72351818271E+03  0.39962104757E+03 0.  0.
    9000005    1    3    3    0    0  0.12464445919E+03  0.16884310873E+03 -0.72594876914E+02  0.22207037785E+03  0.99999687468E+00 0.  0.
          4    1    3    3  501    0  0.35005017095E+03 -0.20000571033E+03 -0.29818198243E+03  0.50144780486E+03  0.00000000000E+00 0.  1.
   -9000007    1    1    2    0  502 -0.47469463015E+03  0.31162601601E+02  0.76889085656E+03  0.98868561683E+03  0.40000000000E+03 0.  1.
<mgrwt>
<rscale>  2 0.62147431E+03</rscale>
<asrwt>0</asrwt>
<pdfrwt beam="1">  1       21 0.16233214E+00 0.62153528E+03</pdfrwt>
<pdfrwt beam="2">  1       21 0.10108383E+00 0.62153528E+03</pdfrwt>
<totfact> 0.14536161E+02</totfact>
</mgrwt>
</event>
<event>
 6    1  0.9399121E-004  0.5204948E+03  0.7818608E-02  0.1008579E+00
         21   -1    0    0  503  502  0.00000000000E+00  0.00000000000E+00  0.49750877258E+03  0.49750877258E+03  0.00000000000E+00 0.  1.
         21   -1    0    0  501  503 -0.00000000000E+00 -0.00000000000E+00 -0.62933829382E+03  0.62933829382E+03  0.00000000000E+00 0.  1.
    9000007    2    1    2  501    0 -0.14749050527E+03  0.29859906787E+03 -0.27303397810E+03  0.58753866566E+03  0.39967396459E+03 0.  0.
    9000005    1    3    3    0    0 -0.11187353349E+03  0.20451626725E+03  0.59109903600E+02  0.24049443187E+03  0.99999687468E+00 0.  0.
          4    1    3    3  501    0 -0.35616971780E+02  0.94082800622E+02 -0.33214388170E+03  0.34704423378E+03  0.00000000000E+00 0.  1.
   -9000007    1    1    2    0  502  0.14749050527E+03 -0.29859906787E+03  0.14120445686E+03  0.53930840075E+03  0.40000000000E+03 0.  1.
<mgrwt>
<rscale>  2 0.52043217E+03</rscale>
<asrwt>0</asrwt>
<pdfrwt beam="1">  1       21 0.76539811E-01 0.52049482E+03</pdfrwt>
<pdfrwt beam="2">  1       21 0.96821276E-01 0.52049482E+03</pdfrwt>
<totfact> 0.11179532E+03</totfact>
</mgrwt>
</event>
<event>
 6    1  0.9399121E-004  0.4407709E+03  0.7818608E-02  0.1030534E+00
         21   -1    0    0  503  502  0.00000000000E+00  0.00000000000E+00  0.70373078944E+03  0.70373078944E+03  0.00000000000E+00 0. -1.
         21   -1    0    0  501  503 -0.00000000000E+00 -0.00000000000E+00 -0.63897461770E+03  0.63897461770E+03  0.00000000000E+00 0. -1.
    9000007    2    1    2  501    0  0.74011323472E+02 -0.16891773968E+03 -0.47369701143E+03  0.64704549796E+03  0.40033503345E+03 0.  0.
    9000005    1    3    3    0    0  0.22343302910E+03 -0.78844099604E+02 -0.38311183374E+03  0.45046019544E+03  0.99999687468E+00 0.  0.
          4    1    3    3  501    0 -0.14942170562E+03 -0.90073640075E+02 -0.90585177694E+02  0.19658530252E+03  0.00000000000E+00 0.  1.
   -9000007    1    1    2    0  502 -0.74011323472E+02  0.16891773968E+03  0.53845318317E+03  0.69565990919E+03  0.40000000000E+03 0. -1.
<mgrwt>
<rscale>  2 0.44069485E+03</rscale>
<asrwt>0</asrwt>
<pdfrwt beam="1">  1       21 0.10826628E+00 0.44077094E+03</pdfrwt>
<pdfrwt beam="2">  1       21 0.98303787E-01 0.44077094E+03</pdfrwt>
<totfact> 0.48712559E+02</totfact>
</mgrwt>
</event>
<event>
 6    1  0.9399121E-004  0.5443026E+03  0.7818608E-02  0.1002824E+00
         21   -1    0    0  503  502  0.00000000000E+00  0.00000000000E+00  0.52888052712E+03  0.52888052712E+03  0.00000000000E+00 0. -1.
         21   -1    0    0  501  503 -0.00000000000E+00 -0.00000000000E+00 -0.57963331939E+03  0.57963331939E+03  0.00000000000E+00 0.  1.
    9000007    2    1    2  501    0 -0.22044623296E+03 -0.29600605878E+03  0.76297112284E+02  0.54962404816E+03  0.40006151591E+03 0.  0.
    9000005    1    3    3    0    0 -0.11420699238E+03 -0.34116395072E+03  0.17283895039E+03  0.39913704557E+03  0.99999687468E+00 0.  0.
          4    1    3    3  501    0 -0.10623924058E+03  0.45157891941E+02 -0.96541838110E+02  0.15048700259E+03  0.00000000000E+00 0.  1.
   -9000007    1    1    2    0  502  0.22044623296E+03  0.29600605878E+03 -0.12704990456E+03  0.55888979835E+03  0.40000000000E+03 0. -1.
<mgrwt>
<rscale>  2 0.54429132E+03</rscale>
<asrwt>0</asrwt>
<pdfrwt beam="1">  1       21 0.81366235E-01 0.54430262E+03</pdfrwt>
<pdfrwt beam="2">  1       21 0.89174357E-01 0.54430262E+03</pdfrwt>
<totfact> 0.11724847E+03</totfact>
</mgrwt>
</event>
<event>
 6    1  0.9399121E-004  0.5706681E+03  0.7818608E-02  0.9968432E-01
         21   -1    0    0  503  502  0.00000000000E+00  0.00000000000E+00  0.14227861178E+04  0.14227861178E+04  0.00000000000E+00 0.  1.
         21   -1    0    0  501  503 -0.00000000000E+00 -0.00000000000E+00 -0.47978221806E+03  0.47978221806E+03  0.00000000000E+00 0. -1.
    9000007    2    1    2  501    0  0.35068623257E+03  0.20659430011E+03 -0.21671957910E+03  0.61004344793E+03  0.39940404835E+03 0.  0.
    9000005    1    3    3    0    0  0.41716823359E+03  0.19492322775E+03 -0.93960382624E+02  0.46995101163E+03  0.99999687468E+00 0.  0.
          4    1    3    3  501    0 -0.66482001015E+02  0.11671072358E+02 -0.12275919648E+03  0.14009243630E+03  0.00000000000E+00 0.  1.
   -9000007    1    1    2    0  502 -0.35068623257E+03 -0.20659430011E+03  0.11597234789E+04  0.12925248880E+04  0.40000000000E+03 0.  1.
<mgrwt>
<rscale>  2 0.57056364E+03</rscale>
<asrwt>0</asrwt>
<pdfrwt beam="1">  1       21 0.21889017E+00 0.57066806E+03</pdfrwt>
<pdfrwt beam="2">  1       21 0.73812650E-01 0.57066806E+03</pdfrwt>
<totfact> 0.12637285E+02</totfact>
</mgrwt>
</event>
<event>
 6    1  0.9399121E-004  0.4384747E+03  0.7818608E-02  0.1031298E+00
         21   -1    0    0  503  502  0.00000000000E+00  0.00000000000E+00  0.23137656582E+03  0.23137656582E+03  0.00000000000E+00 0.  1.
         21   -1    0    0  501  503 -0.00000000000E+00 -0.00000000000E+00 -0.11359696184E+04  0.11359696184E+04  0.00000000000E+00 0.  1.
    9000007    2    1    2  501    0  0.11283245730E+03  0.13974595219E+03 -0.80733352348E+03  0.91821423196E+03  0.39883563415E+03 0.  0.
    9000005    1    3    3    0    0  0.64688551715E+02  0.11189731562E+03 -0.22240458076E+02  0.13115355860E+03  0.99999687468E+00 0.  0.
          4    1    3    3  501    0  0.48143905582E+02  0.27848636574E+02 -0.78509306540E+03  0.78706067336E+03  0.00000000000E+00 0.  1.
   -9000007    1    1    2    0  502 -0.11283245730E+03 -0.13974595219E+03 -0.97259529142E+02  0.44913195231E+03  0.40000000000E+03 0.  1.
<mgrwt>
<rscale>  2 0.43820901E+03</rscale>
<asrwt>0</asrwt>
<pdfrwt beam="1">  1       21 0.35596395E-01 0.43847474E+03</pdfrwt>
<pdfrwt beam="2">  1       21 0.17476456E+00 0.43847474E+03</pdfrwt>
<totfact> 0.12758548E+03</totfact>
</mgrwt>
</event>
<event>
 6    1  0.9399121E-004  0.4690456E+03  0.7818608E-02  0.1022193E+00
         21   -1    0    0  503  502  0.00000000000E+00  0.00000000000E+00  0.29467839745E+03  0.29467839745E+03  0.00000000000E+00 0.  1.
         21   -1    0    0  501  503 -0.00000000000E+00 -0.00000000000E+00 -0.81127282240E+03  0.81127282240E+03  0.00000000000E+00 0.  1.
    9000007    2    1    2  501    0  0.15049505606E+03 -0.19327434248E+03 -0.41451431225E+03  0.62592613429E+03  0.39994709295E+03 0.  0.
    9000005    1    3    3    0    0  0.72728622896E+02  0.11397164163E+03 -0.53167915279E+02  0.14528184640E+03  0.99999687468E+00 0.  0.
          4    1    3    3  501    0  0.77766433167E+02 -0.30724598411E+03 -0.36134639697E+03  0.48064428789E+03  0.00000000000E+00 0.  1.
   -9000007    1    1    2    0  502 -0.15049505606E+03  0.19327434248E+03 -0.10208011271E+03  0.48002508556E+03  0.40000000000E+03 0.  1.
<mgrwt>
<rscale>  2 0.46903428E+03</rscale>
<asrwt>0</asrwt>
<pdfrwt beam="1">  1       21 0.45335138E-01 0.46904556E+03</pdfrwt>
<pdfrwt beam="2">  1       21 0.12481120E+00 0.46904556E+03</pdfrwt>
<totfact> 0.19064044E+03</totfact>
</mgrwt>
</event>
<event>
 6    1  0.9399121E-004  0.8933217E+03  0.7818608E-02  0.9433988E-01
         21   -1    0    0  503  502  0.00000000000E+00  0.00000000000E+00  0.13063193420E+04  0.13063193420E+04  0.00000000000E+00 0. -1.
         21   -1    0    0  501  503 -0.00000000000E+00 -0.00000000000E+00 -0.63605008663E+03  0.63605008663E+03  0.00000000000E+00 0.  1.
    9000007    2    1    2  501    0  0.47540883221E+03 -0.64188007267E+03  0.14181930826E+03  0.90444701725E+03  0.39986010728E+03 0.  0.
    9000005    1    3    3    0    0  0.17237646493E+03 -0.21879850485E+03  0.24842237613E+03  0.37323063693E+03  0.99999687468E+00 0.  0.
          4    1    3    3  501    0  0.30303236727E+03 -0.42308156782E+03 -0.10660306787E+03  0.53121638032E+03  0.00000000000E+00 0.  1.
   -9000007    1    1    2    0  502 -0.47540883221E+03  0.64188007267E+03  0.52844994710E+03  0.10379224114E+04  0.40000000000E+03 0. -1.
<mgrwt>
<rscale>  2 0.89330600E+03</rscale>
<asrwt>0</asrwt>
<pdfrwt beam="1">  1       21 0.20097221E+00 0.89332166E+03</pdfrwt>
<pdfrwt beam="2">  1       21 0.97853860E-01 0.89332166E+03</pdfrwt>
<totfact> 0.76292160E+01</totfact>
</mgrwt>
</event>
<event>
 6    1  0.9399121E-004  0.4485693E+03  0.7818608E-02  0.1028204E+00
         21   -1    0    0  503  502  0.00000000000E+00  0.00000000000E+00  0.32082702037E+03  0.32082702037E+03  0.00000000000E+00 0.  1.
         21   -1    0    0  501  503 -0.00000000000E+00 -0.00000000000E+00 -0.11210065364E+04  0.11210065364E+04  0.00000000000E+00 0. -1.
    9000007    2    1    2  501    0 -0.18985325706E+03 -0.71903878967E+02 -0.87888595518E+03  0.98641163093E+03  0.39919037613E+03 0.  0.
    9000005    1    3    3    0    0 -0.21149479518E+03  0.97209127328E+02 -0.28201461640E+03  0.36566775450E+03  0.99999687468E+00 0.  0.
          4    1    3    3  501    0  0.21641538119E+02 -0.16911300629E+03 -0.59687133877E+03  0.62074387642E+03  0.00000000000E+00 0.  1.
   -9000007    1    1    2    0  502  0.18985325706E+03  0.71903878967E+02  0.78706439097E+02  0.45542192589E+03  0.40000000000E+03 0.  1.
<mgrwt>
<rscale>  2 0.44838875E+03</rscale>
<asrwt>0</asrwt>
<pdfrwt beam="1">  1       21 0.49358004E-01 0.44856931E+03</pdfrwt>
<pdfrwt beam="2">  1       21 0.17246254E+00 0.44856931E+03</pdfrwt>
<totfact> 0.66991342E+02</totfact>
</mgrwt>
</event>
<event>
 6    1  0.9399121E-004  0.4156936E+03  0.7818608E-02  0.1038596E+00
         21   -1    0    0  503  502  0.00000000000E+00  0.00000000000E+00  0.10671153228E+04  0.10671153228E+04  0.00000000000E+00 0. -1.
         21   -1    0    0  501  503 -0.00000000000E+00 -0.00000000000E+00 -0.20603739130E+03  0.20603739130E+03  0.00000000000E+00 0. -1.
    9000007    2    1    2  501    0  0.49216433821E+02 -0.95813969138E+02  0.13473277912E+03  0.43698296196E+03  0.40149547099E+03 0.  0.
    9000005    1    3    3    0    0  0.10611516020E+03 -0.18358766753E+03  0.21737477755E+03  0.30367359583E+03  0.99999687468E+00 0.  0.
          4    1    3    3  501    0 -0.56898726384E+02  0.87773698390E+02 -0.82641998428E+02  0.13330936613E+03  0.00000000000E+00 0.  1.
   -9000007    1    1    2    0  502 -0.49216433821E+02  0.95813969138E+02  0.72634515242E+03  0.83616975220E+03  0.40000000000E+03 0. -1.
<mgrwt>
<rscale>  2 0.41533210E+03</rscale>
<asrwt>0</asrwt>
<pdfrwt beam="1">  1       21 0.16417159E+00 0.41569362E+03</pdfrwt>
<pdfrwt beam="2">  1       21 0.31698061E-01 0.41569362E+03</pdfrwt>
<totfact> 0.19434091E+03</totfact>
</mgrwt>
</event>
<event>
 6    1  0.9399121E-004  0.4347720E+03  0.7818608E-02  0.1032369E+00
         21   -1    0    0  503  502  0.00000000000E+00  0.00000000000E+00  0.50606488349E+03  0.50606488349E+03  0.00000000000E+00 0. -1.
         21   -1    0    0  501  503 -0.00000000000E+00 -0.00000000000E+00 -0.57512177518E+03  0.57512177518E+03  0.00000000000E+00 0. -1.
    9000007    2    1    2  501    0 -0.16754445574E+03  0.30912005334E+02 -0.35464150388E+03  0.56100854740E+03  0.39991661289E+03 0.  0.
    9000005    1    3    3    0    0  0.26874643778E+02  0.18395771170E+03 -0.13042243541E+03  0.22709843201E+03  0.99999687468E+00 0.  0.
          4    1    3    3  501    0 -0.19441909952E+03 -0.15304570636E+03 -0.22421906847E+03  0.33391011539E+03  0.00000000000E+00 0.  1.
   -9000007    1    1    2    0  502  0.16754445574E+03 -0.30912005334E+02  0.28558461218E+03  0.52017811126E+03  0.40000000000E+03 0. -1.
<mgrwt>
<rscale>  2 0.43475282E+03</rscale>
<asrwt>0</asrwt>
<pdfrwt beam="1">  1       21 0.77856136E-01 0.43477201E+03</pdfrwt>
<pdfrwt beam="2">  1       21 0.88480273E-01 0.43477201E+03</pdfrwt>
<totfact> 0.13766493E+03</totfact>
</mgrwt>
</event>
<event>
 6    1  0.9399121E-004  0.4305415E+03  0.7818608E-02  0.1033791E+00
         21   -1    0    0  503  502  0.00000000000E+00  0.00000000000E+00  0.94645170472E+03  0.94645170472E+03  0.00000000000E+00 0. -1.
         21   -1    0    0  501  503 -0.00000000000E+00 -0.00000000000E+00 -0.53032712865E+03  0.53032712865E+03  0.00000000000E+00 0. -1.
    9000007    2    1    2  501    0 -0.12701995158E+03  0.90135919628E+02 -0.37873631286E+03  0.57341712019E+03  0.40138192154E+03 0.  0.
    9000005    1    3    3    0    0 -0.22667628805E+03 -0.42380507587E+02 -0.10501192212E+03  0.25339051041E+03  0.99999687468E+00 0.  0.
          4    1    3    3  501    0  0.99656336464E+02  0.13251642721E+03 -0.27372439074E+03  0.32002660977E+03  0.00000000000E+00 0.  1.
   -9000007    1    1    2    0  502  0.12701995158E+03 -0.90135919628E+02  0.79486088893E+03  0.90336171319E+03  0.40000000000E+03 0. -1.
<mgrwt>
<rscale>  2 0.43021915E+03</rscale>
<asrwt>0</asrwt>
<pdfrwt beam="1">  1       21 0.14560795E+00 0.43054152E+03</pdfrwt>
<pdfrwt beam="2">  1       21 0.81588789E-01 0.43054152E+03</pdfrwt>
<totfact> 0.35502290E+02</totfact>
</mgrwt>
</event>
<event>
 6    1  0.9399121E-004  0.4665236E+03  0.7818608E-02  0.1022933E+00
         21   -1    0    0  503  502  0.00000000000E+00  0.00000000000E+00  0.71319136293E+03  0.71319136293E+03  0.00000000000E+00 0. -1.
         21   -1    0    0  501  503 -0.00000000000E+00 -0.00000000000E+00 -0.39047904656E+03  0.39047904656E+03  0.00000000000E+00 0. -1.
    9000007    2    1    2  501    0  0.16293235788E+03 -0.17634429464E+03 -0.97011539779E+02  0.47612568684E+03  0.39954995598E+03 0.  0.
    9000005    1    3    3    0    0  0.21410289542E+03 -0.11404882935E+03  0.10066404296E+03  0.26264317018E+03  0.99999687468E+00 0.  0.
          4    1    3    3  501    0 -0.51170537541E+02 -0.62295465293E+02 -0.19767558274E+03  0.21348251666E+03  0.00000000000E+00 0.  1.
   -9000007    1    1    2    0  502 -0.16293235788E+03  0.17634429464E+03  0.41972385615E+03  0.62754472264E+03  0.40000000000E+03 0. -1.
<mgrwt>
<rscale>  2 0.46642711E+03</rscale>
<asrwt>0</asrwt>
<pdfrwt beam="1">  1       21 0.10972175E+00 0.46652359E+03</pdfrwt>
<pdfrwt beam="2">  1       21 0.60073699E-01 0.46652359E+03</pdfrwt>
<totfact> 0.14445960E+03</totfact>
</mgrwt>
</event>
<event>
 6    1  0.9399121E-004  0.4145445E+03  0.7818608E-02  0.1039216E+00
         21   -1    0    0  503  502  0.00000000000E+00  0.00000000000E+00  0.15370457526E+04  0.15370457526E+04  0.00000000000E+00 0. -1.
         21   -1    0    0  501  503 -0.00000000000E+00 -0.00000000000E+00 -0.17289155147E+03  0.17289155147E+03  0.00000000000E+00 0. -1.
    9000007    2    1    2  501    0 -0.83562910294E+02  0.36119445220E+02  0.17135136375E+03  0.44856266378E+03  0.40442527020E+03 0.  0.
    9000005    1    3    3    0    0 -0.17860796382E+03  0.17130003399E+03  0.12315432370E+03  0.27642809883E+03  0.99999687468E+00 0.  0.
          4    1    3    3  501    0  0.95045053529E+02 -0.13518058877E+03  0.48197040051E+02  0.17213456495E+03  0.00000000000E+00 0.  1.
   -9000007    1    1    2    0  502  0.83562910294E+02 -0.36119445220E+02  0.11928028373E+04  0.12613746403E+04  0.40000000000E+03 0. -1.
<mgrwt>
<rscale>  2 0.41346127E+03</rscale>
<asrwt>0</asrwt>
<pdfrwt beam="1">  1       21 0.23646857E+00 0.41454454E+03</pdfrwt>
<pdfrwt beam="2">  1       21 0.26598701E-01 0.41454454E+03</pdfrwt>
<totfact> 0.90169379E+02</totfact>
</mgrwt>
</event>
<event>
 6    1  0.9399121E-004  0.4608631E+03  0.7818608E-02  0.1024577E+00
         21   -1    0    0  503  502  0.00000000000E+00  0.00000000000E+00  0.29354135951E+03  0.29354135951E+03  0.00000000000E+00 0. -1.
         21   -1    0    0  501  503 -0.00000000000E+00 -0.00000000000E+00 -0.10565486273E+04  0.10565486273E+04  0.00000000000E+00 0.  1.
    9000007    2    1    2  501    0 -0.88732643740E+02 -0.21100064747E+03 -0.76085800618E+03  0.88922192040E+03  0.39926928614E+03 0.  0.
    9000005    1    3    3    0    0 -0.22088996476E+03 -0.13126199338E+03 -0.26174713091E+03  0.36678965085E+03  0.99999687468E+00 0.  0.
          4    1    3    3  501    0  0.13215732102E+03 -0.79738654086E+02 -0.49911087527E+03  0.52243226955E+03  0.00000000000E+00 0.  1.
   -9000007    1    1    2    0  502  0.88732643740E+02  0.21100064747E+03 -0.21492615985E+01  0.46086806639E+03  0.40000000000E+03 0. -1.
<mgrwt>
<rscale>  2 0.46070446E+03</rscale>
<asrwt>0</asrwt>
<pdfrwt beam="1">  1       21 0.45160208E-01 0.46086305E+03</pdfrwt>
<pdfrwt beam="2">  1       21 0.16254595E+00 0.46086305E+03</pdfrwt>
<totfact> 0.95044389E+02</totfact>
</mgrwt>
</event>
<event>
 6    1  0.9399121E-004  0.6864469E+03  0.7818608E-02  0.9740710E-01
         21   -1    0    0  503  502  0.00000000000E+00  0.00000000000E+00  0.66957196623E+03  0.66957196623E+03  0.00000000000E+00 0.  1.
         21   -1    0    0  501  503 -0.00000000000E+00 -0.00000000000E+00 -0.73773985011E+03  0.73773985011E+03  0.00000000000E+00 0.  1.
    9000007    2    1    2  501    0 -0.38843822586E+03  0.40034660218E+03 -0.18520717732E+03  0.71099302916E+03  0.40005966029E+03 0.  0.
    9000005    1    3    3    0    0 -0.79587462654E+02  0.29563169152E+03  0.48231726909E+02  0.30993476849E+03  0.99999687468E+00 0.  0.
          4    1    3    3  501    0 -0.30885076320E+03  0.10471491066E+03 -0.23343890423E+03  0.40105826067E+03  0.00000000000E+00 0.  1.
   -9000007    1    1    2    0  502  0.38843822586E+03 -0.40034660218E+03  0.11703929344E+03  0.69631878719E+03  0.40000000000E+03 0.  1.
<mgrwt>
<rscale>  2 0.68643824E+03</rscale>
<asrwt>0</asrwt>
<pdfrwt beam="1">  1       21 0.10301107E+00 0.68644693E+03</pdfrwt>
<pdfrwt beam="2">  1       21 0.11349844E+00 0.68644693E+03</pdfrwt>
<totfact> 0.35263133E+02</totfact>
</mgrwt>
</event>
<event>
 6    1  0.9399121E-004  0.4726967E+03  0.7818608E-02  0.1021439E+00
         21   -1    0    0  503  502  0.00000000000E+00  0.00000000000E+00  0.96475522170E+03  0.96475522170E+03  0.00000000000E+00 0. -1.
         21   -1    0    0  501  503 -0.00000000000E+00 -0.00000000000E+00 -0.29701996697E+03  0.29701996697E+03  0.00000000000E+00 0.  1.
    9000007    2    1    2  501    0 -0.24250682825E+03  0.30485160233E+02  0.63533735764E+03  0.79189378824E+03  0.40460265334E+03 0.  0.
    9000005    1    3    3    0    0 -0.68025972129E+02 -0.13490629682E+01  0.60876127461E+03  0.61255256289E+03  0.99999687468E+00 0.  0.
          4    1    3    3  501    0 -0.17448085612E+03  0.31834223201E+02  0.26576083035E+02  0.17934122534E+03  0.00000000000E+00 0.  1.
   -9000007    1    1    2    0  502  0.24250682825E+03 -0.30485160233E+02  0.32397897090E+02  0.46988140044E+03  0.40000000000E+03 0.  1.
<mgrwt>
<rscale>  2 0.47171027E+03</rscale>
<asrwt>0</asrwt>
<pdfrwt beam="1">  1       21 0.14842388E+00 0.47269675E+03</pdfrwt>
<pdfrwt beam="2">  1       21 0.45695380E-01 0.47269675E+03</pdfrwt>
<totfact> 0.11853517E+03</totfact>
</mgrwt>
</event>
<event>
 6    1  0.9399121E-004  0.4430490E+03  0.7818608E-02  0.1029957E+00
         21   -1    0    0  503  502  0.00000000000E+00  0.00000000000E+00  0.12892635696E+04  0.12892635696E+04  0.00000000000E+00 0. -1.
         21   -1    0    0  501  503 -0.00000000000E+00 -0.00000000000E+00 -0.17789587463E+03  0.17789587463E+03  0.00000000000E+00 0. -1.
    9000007    2    1    2  501    0 -0.14754515752E+03  0.12051059989E+03  0.27274023570E+03  0.51869310660E+03  0.39794839423E+03 0.  0.
    9000005    1    3    3    0    0  0.87650981377E+02  0.15659442418E+03  0.35994977754E+02  0.18303318452E+03  0.99999687468E+00 0.  0.
          4    1    3    3  501    0 -0.23519613890E+03 -0.36083824285E+02  0.23674525795E+03  0.33565992208E+03  0.00000000000E+00 0.  1.
   -9000007    1    1    2    0  502  0.14754515752E+03 -0.12051059989E+03  0.83862745932E+03  0.94846633768E+03  0.40000000000E+03 0. -1.
<mgrwt>
<rscale>  2 0.44258539E+03</rscale>
<asrwt>0</asrwt>
<pdfrwt beam="1">  1       21 0.19834824E+00 0.44304896E+03</pdfrwt>
<pdfrwt beam="2">  1       21 0.27368597E-01 0.44304896E+03</pdfrwt>
<totfact> 0.14780447E+03</totfact>
</mgrwt>
</event>
<event>
 6    1  0.9399121E-004  0.4913182E+03  0.7818608E-02  0.1016092E+00
         21   -1    0    0  503  502  0.00000000000E+00  0.00000000000E+00  0.17269644387E+03  0.17269644387E+03  0.00000000000E+00 0.  1.
         21   -1    0    0  501  503 -0.00000000000E+00 -0.00000000000E+00 -0.22631552851E+04  0.22631552851E+04  0.00000000000E+00 0.  1.
    9000007    2    1    2  501    0  0.17781194385E+03  0.22310644583E+03 -0.17985382719E+04  0.18643526543E+04  0.39959645974E+03 0.  0.
    9000005    1    3    3    0    0  0.19512240068E+02 -0.48649365875E+02 -0.10643410918E+04  0.10656314785E+04  0.99999687468E+00 0.  0.
          4    1    3    3  501    0  0.15829970378E+03  0.27175581170E+03 -0.73419718006E+03  0.79872117576E+03  0.00000000000E+00 0.  1.
   -9000007    1    1    2    0  502 -0.17781194385E+03 -0.22310644583E+03 -0.29192056937E+03  0.57149907468E+03  0.40000000000E+03 0.  1.
<mgrwt>
<rscale>  2 0.49123606E+03</rscale>
<asrwt>0</asrwt>
<pdfrwt beam="1">  1       21 0.26568683E-01 0.49131820E+03</pdfrwt>
<pdfrwt beam="2">  1       21 0.34817774E+00 0.49131820E+03</pdfrwt>
<totfact> 0.18152388E+02</totfact>
</mgrwt>
</event>
<event>
 6    1  0.9399121E-004  0.4246199E+03  0.7818608E-02  0.1035642E+00
         21   -1    0    0  503  502  0.00000000000E+00  0.00000000000E+00  0.33372539972E+03  0.33372539972E+03  0.00000000000E+00 0. -1.
         21   -1    0    0  501  503 -0.00000000000E+00 -0.00000000000E+00 -0.54250819379E+03  0.54250819379E+03  0.00000000000E+00 0. -1.
    9000007    2    1    2  501    0  0.13422496188E+03  0.39533656212E+02 -0.13877373060E+03  0.44672163869E+03  0.40090251160E+03 0.  0.
    9000005    1    3    3    0    0  0.15371681074E+03  0.20412849411E+02 -0.27071614095E+03  0.31198360741E+03  0.99999687468E+00 0.  0.
          4    1    3    3  501    0 -0.19491848865E+02  0.19120806802E+02  0.13194241035E+03  0.13473803128E+03  0.00000000000E+00 0.  1.
   -9000007    1    1    2    0  502 -0.13422496188E+03 -0.39533656212E+02 -0.70009063472E+02  0.42951195482E+03  0.40000000000E+03 0. -1.
<mgrwt>
<rscale>  2 0.42440676E+03</rscale>
<asrwt>0</asrwt>
<pdfrwt beam="1">  1       21 0.51342369E-01 0.42461992E+03</pdfrwt>
<pdfrwt beam="2">  1       21 0.83462800E-01 0.42461992E+03</pdfrwt>
<totfact> 0.39777775E+03</totfact>
</mgrwt>
</event>
<event>
 6    1  0.9399121E-004  0.8353355E+03  0.7818608E-02  0.9510441E-01
         21   -1    0    0  503  502  0.00000000000E+00  0.00000000000E+00  0.53529865865E+03  0.53529865865E+03  0.00000000000E+00 0. -1.
         21   -1    0    0  501  503 -0.00000000000E+00 -0.00000000000E+00 -0.13579551006E+04  0.13579551006E+04  0.00000000000E+00 0.  1.
    9000007    2    1    2  501    0 -0.13259587058E+03  0.72125145775E+03 -0.22005815057E+03  0.86324888983E+03  0.39873264973E+03 0.  0.
    9000005    1    3    3    0    0 -0.20688889512E+03  0.44956687658E+03  0.16891942313E+02  0.49517646264E+03  0.99999687468E+00 0.  0.
          4    1    3    3  501    0  0.74293024543E+02  0.27168458117E+03 -0.23695009288E+03  0.36807242719E+03  0.00000000000E+00 0.  1.
   -9000007    1    1    2    0  502  0.13259587058E+03 -0.72125145775E+03 -0.60259829134E+03  0.10300048694E+04  0.40000000000E+03 0.  1.
<mgrwt>
<rscale>  2 0.83518389E+03</rscale>
<asrwt>0</asrwt>
<pdfrwt beam="1">  1       21 0.82353641E-01 0.83533546E+03</pdfrwt>
<pdfrwt beam="2">  1       21 0.20891617E+00 0.83533546E+03</pdfrwt>
<totfact> 0.10376741E+02</totfact>
</mgrwt>
</event>
<event>
 6    1  0.9399121E-004  0.4114920E+03  0.7818608E-02  0.1040473E+00
         21   -1    0    0  503  502  0.00000000000E+00  0.00000000000E+00  0.62701326813E+03  0.62701326813E+03  0.00000000000E+00 0.  1.
         21   -1    0    0  501  503 -0.00000000000E+00 -0.00000000000E+00 -0.28616040159E+03  0.28616040159E+03  0.00000000000E+00 0.  1.
    9000007    2    1    2  501    0  0.56205933280E+02  0.78527691120E+02  0.46041831809E+02  0.40697286826E+03  0.39265934347E+03 0.  0.
    9000005    1    3    3    0    0 -0.60245611174E+02 -0.49404478057E+02  0.17475998364E+03  0.19134363850E+03  0.99999687468E+00 0.  0.
          4    1    3    3  501    0  0.11645154445E+03  0.12793216918E+03 -0.12871815183E+03  0.21562922976E+03  0.00000000000E+00 0.  1.
   -9000007    1    1    2    0  502 -0.56205933280E+02 -0.78527691120E+02  0.29481103473E+03  0.50620080147E+03  0.40000000000E+03 0.  1.
<mgrwt>
<rscale>  2 0.40969735E+03</rscale>
<asrwt>0</asrwt>
<pdfrwt beam="1">  1       21 0.96463580E-01 0.41149205E+03</pdfrwt>
<pdfrwt beam="2">  1       21 0.44024677E-01 0.41149205E+03</pdfrwt>
<totfact> 0.39261115E+03</totfact>
</mgrwt>
</event>
<event>
 6    1  0.9399121E-004  0.5544150E+03  0.7818608E-02  0.1000511E+00
         21   -1    0    0  503  502  0.00000000000E+00  0.00000000000E+00  0.71520316876E+03  0.71520316876E+03  0.00000000000E+00 0. -1.
         21   -1    0    0  501  503 -0.00000000000E+00 -0.00000000000E+00 -0.50206845468E+03  0.50206845468E+03  0.00000000000E+00 0. -1.
    9000007    2    1    2  501    0 -0.37970922012E+03  0.50430865214E+02 -0.12506813593E+03  0.56834671888E+03  0.40081615514E+03 0.  0.
    9000005    1    3    3    0    0 -0.32788498485E+03  0.74989825026E+02  0.88017911905E+02  0.34767828514E+03  0.99999687468E+00 0.  0.
          4    1    3    3  501    0 -0.51824235273E+02 -0.24558959813E+02 -0.21308604783E+03  0.22066843374E+03  0.00000000000E+00 0.  1.
   -9000007    1    1    2    0  502  0.37970922012E+03 -0.50430865214E+02  0.33820285001E+03  0.64892490456E+03  0.40000000000E+03 0. -1.
<mgrwt>
<rscale>  2 0.55426747E+03</rscale>
<asrwt>0</asrwt>
<pdfrwt beam="1">  1       21 0.11003126E+00 0.55441497E+03</pdfrwt>
<pdfrwt beam="2">  1       21 0.77241301E-01 0.55441497E+03</pdfrwt>
<totfact> 0.78990268E+02</totfact>
</mgrwt>
</event>
<event>
 6    1  0.9399121E-004  0.4401461E+03  0.7818608E-02  0.1030724E+00
         21   -1    0    0  503  502  0.00000000000E+00  0.00000000000E+00  0.28279807788E+03  0.28279807788E+03  0.00000000000E+00 0.  1.
         21   -1    0    0  501  503 -0.00000000000E+00 -0.00000000000E+00 -0.83128179115E+03  0.83128179115E+03  0.00000000000E+00 0.  1.
    9000007    2    1    2  501    0 -0.18002436337E+03 -0.36329095942E+02 -0.50816008650E+03  0.67209053715E+03  0.39968793075E+03 0.  0.
    9000005    1    3    3    0    0 -0.78400705493E+01 -0.72105556555E+02 -0.48994763748E+03  0.49528816406E+03  0.99999687468E+00 0.  0.
          4    1    3    3  501    0 -0.17218429283E+03  0.35776460613E+02 -0.18212449021E+02  0.17680237309E+03  0.00000000000E+00 0.  1.
   -9000007    1    1    2    0  502  0.18002436337E+03  0.36329095942E+02 -0.40323626764E+02  0.44198933188E+03  0.40000000000E+03 0.  1.
<mgrwt>
<rscale>  2 0.44007517E+03</rscale>
<asrwt>0</asrwt>
<pdfrwt beam="1">  1       21 0.43507396E-01 0.44014608E+03</pdfrwt>
<pdfrwt beam="2">  1       21 0.12788951E+00 0.44014608E+03</pdfrwt>
<totfact> 0.19729821E+03</totfact>
</mgrwt>
</event>
<event>
 6    1  0.9399121E-004  0.4241633E+03  0.7818608E-02  0.1035730E+00
         21   -1    0    0  503  502  0.00000000000E+00  0.00000000000E+00  0.95490194191E+03  0.95490194191E+03  0.00000000000E+00 0. -1.
         21   -1    0    0  501  503 -0.00000000000E+00 -0.00000000000E+00 -0.25135135623E+03  0.25135135623E+03  0.00000000000E+00 0. -1.
    9000007    2    1    2  501    0 -0.12414439889E+03  0.67101952745E+02  0.65368191789E+03  0.77916854324E+03  0.39986130741E+03 0.  0.
    9000005    1    3    3    0    0 -0.66735587948E+02  0.52205055480E+02  0.69925574188E+03  0.70437106631E+03  0.99999687468E+00 0.  0.
          4    1    3    3  501    0 -0.57408810944E+02  0.14896897265E+02 -0.45573823987E+02  0.74797476929E+02  0.00000000000E+00 0.  1.
   -9000007    1    1    2    0  502  0.12414439889E+03 -0.67101952745E+02  0.49868667783E+02  0.42708475490E+03  0.40000000000E+03 0. -1.
<mgrwt>
<rscale>  2 0.42413060E+03</rscale>
<asrwt>0</asrwt>
<pdfrwt beam="1">  1       21 0.14690799E+00 0.42416330E+03</pdfrwt>
<pdfrwt beam="2">  1       21 0.38669440E-01 0.42416330E+03</pdfrwt>
<totfact> 0.17579648E+03</totfact>
</mgrwt>
</event>
<event>
 6    1  0.9399121E-004  0.4235564E+03  0.7818608E-02  0.1035949E+00
         21   -1    0    0  503  502  0.00000000000E+00  0.00000000000E+00  0.48736320494E+03  0.48736320494E+03  0.00000000000E+00 0. -1.
         21   -1    0    0  501  503 -0.00000000000E+00 -0.00000000000E+00 -0.71706781018E+03  0.71706781018E+03  0.00000000000E+00 0. -1.
    9000007    2    1    2  501    0 -0.13472777789E+03  0.29793941540E+02 -0.53521411683E+03  0.68253513015E+03  0.40045074597E+03 0.  0.
    9000005    1    3    3    0    0 -0.46432822857E+01 -0.17460669752E+03 -0.16630876740E+03  0.24118180901E+03  0.99999687468E+00 0.  0.
          4    1    3    3  501    0 -0.13008449560E+03  0.20440063906E+03 -0.36890534943E+03  0.44135332114E+03  0.00000000000E+00 0.  1.
   -9000007    1    1    2    0  502  0.13472777789E+03 -0.29793941540E+02  0.30550951159E+03  0.52189588498E+03  0.40000000000E+03 0.  1.
<mgrwt>
<rscale>  2 0.42344986E+03</rscale>
<asrwt>0</asrwt>
<pdfrwt beam="1">  1       21 0.74978955E-01 0.42355643E+03</pdfrwt>
<pdfrwt beam="2">  1       21 0.11031812E+00 0.42355643E+03</pdfrwt>
<totfact> 0.88411882E+02</totfact>
</mgrwt>
</event>
<event>
 6    1  0.9399121E-004  0.8016085E+03  0.7818608E-02  0.9557772E-01
         21   -1    0    0  503  502  0.00000000000E+00  0.00000000000E+00  0.17514075740E+04  0.17514075740E+04  0.00000000000E+00 0.  1.
         21   -1    0    0  501  503 -0.00000000000E+00 -0.00000000000E+00 -0.55201222797E+03  0.55201222797E+03  0.00000000000E+00 0. -1.
    9000007    2    1    2  501    0  0.65104382716E+03 -0.24158580498E+03 -0.67384562824E+02  0.80443577820E+03  0.40044284971E+03 0.  0.
    9000005    1    3    3    0    0  0.22458683264E+03  0.39467918833E+01 -0.19346297759E+03  0.29645192907E+03  0.99999687468E+00 0.  0.
          4    1    3    3  501    0  0.42645699452E+03 -0.24553259687E+03  0.12607841476E+03  0.50798384912E+03  0.00000000000E+00 0.  1.
   -9000007    1    1    2    0  502 -0.65104382716E+03  0.24158580498E+03  0.12667799089E+04  0.14989840238E+04  0.40000000000E+03 0.  1.
<mgrwt>
<rscale>  2 0.80155325E+03</rscale>
<asrwt>0</asrwt>
<pdfrwt beam="1">  1       21 0.26944732E+00 0.80160853E+03</pdfrwt>
<pdfrwt beam="2">  1       21 0.84924959E-01 0.80160853E+03</pdfrwt>
<totfact> 0.39961027E+01</totfact>
</mgrwt>
</event>
<event>
 6    1  0.9399121E-004  0.4050643E+03  0.7818608E-02  0.1042055E+00
         21   -1    0    0  503  502  0.00000000000E+00  0.00000000000E+00  0.32702077146E+03  0.32702077146E+03  0.00000000000E+00 0.  1.
         21   -1    0    0  501  503 -0.00000000000E+00 -0.00000000000E+00 -0.50531422139E+03  0.50531422139E+03  0.00000000000E+00 0.  1.
    9000007    2    1    2  501    0 -0.59900220013E+02 -0.18602148972E+02 -0.12525526274E+03  0.42398817260E+03  0.40017872677E+03 0.  0.
    9000005    1    3    3    0    0 -0.14850902330E+03 -0.38278489358E+02  0.98670880003E+02  0.18236533471E+03  0.99999687468E+00 0.  0.
          4    1    3    3  501    0  0.88608803283E+02  0.19676340386E+02 -0.22392614274E+03  0.24162283790E+03  0.00000000000E+00 0.  1.
   -9000007    1    1    2    0  502  0.59900220013E+02  0.18602148972E+02 -0.53038187191E+02  0.40834682025E+03  0.40000000000E+03 0. -1.
<mgrwt>
<rscale>  2 0.40502015E+03</rscale>
<asrwt>0</asrwt>
<pdfrwt beam="1">  1       21 0.50310888E-01 0.40506430E+03</pdfrwt>
<pdfrwt beam="2">  1       21 0.77740649E-01 0.40506430E+03</pdfrwt>
<totfact> 0.49284884E+03</totfact>
</mgrwt>
</event>
<event>
 6    1  0.9399121E-004  0.4510474E+03  0.7818608E-02  0.1027431E+00
         21   -1    0    0  503  502  0.00000000000E+00  0.00000000000E+00  0.42320925089E+03  0.42320925089E+03  0.00000000000E+00 0. -1.
         21   -1    0    0  501  503 -0.00000000000E+00 -0.00000000000E+00 -0.62921185275E+03  0.62921185275E+03  0.00000000000E+00 0. -1.
    9000007    2    1    2  501    0 -0.18398694802E+03  0.96640122801E+02 -0.35891638974E+03  0.57642411111E+03  0.40031646315E+03 0.  0.
    9000005    1    3    3    0    0 -0.12919422675E+03  0.19463577409E+03 -0.39464160599E+03  0.45860356514E+03  0.99999687468E+00 0.  0.
          4    1    3    3  501    0 -0.54792721266E+02 -0.97995651292E+02  0.35725216253E+02  0.11782054597E+03  0.00000000000E+00 0.  1.
   -9000007    1    1    2    0  502  0.18398694802E+03 -0.96640122801E+02  0.15291378788E+03  0.47599699253E+03  0.40000000000E+03 0. -1.
<mgrwt>
<rscale>  2 0.45097720E+03</rscale>
<asrwt>0</asrwt>
<pdfrwt beam="1">  1       21 0.65109116E-01 0.45104743E+03</pdfrwt>
<pdfrwt beam="2">  1       21 0.96801823E-01 0.45104743E+03</pdfrwt>
<totfact> 0.16535101E+03</totfact>
</mgrwt>
</event>
<event>
 6    1  0.9399121E-004  0.4308458E+03  0.7818608E-02  0.1033612E+00
         21   -1    0    0  503  502  0.00000000000E+00  0.00000000000E+00  0.53343025231E+03  0.53343025231E+03  0.00000000000E+00 0. -1.
         21   -1    0    0  501  503 -0.00000000000E+00 -0.00000000000E+00 -0.37689479557E+03  0.37689479557E+03  0.00000000000E+00 0. -1.
    9000007    2    1    2  501    0  0.43289305850E+02 -0.15412388799E+03 -0.48217449116E+02  0.43330105550E+03  0.39974585108E+03 0.  0.
    9000005    1    3    3    0    0  0.21711023982E+03 -0.69338431837E+02 -0.70632311296E+02  0.23860971849E+03  0.99999687468E+00 0.  0.
          4    1    3    3  501    0 -0.17382093397E+03 -0.84785456148E+02  0.22414862180E+02  0.19469133701E+03  0.00000000000E+00 0.  1.
   -9000007    1    1    2    0  502 -0.43289305850E+02  0.15412388799E+03  0.20475290585E+03  0.47702399238E+03  0.40000000000E+03 0. -1.
<mgrwt>
<rscale>  2 0.43078684E+03</rscale>
<asrwt>0</asrwt>
<pdfrwt beam="1">  1       21 0.82066192E-01 0.43084584E+03</pdfrwt>
<pdfrwt beam="2">  1       21 0.57983815E-01 0.43084584E+03</pdfrwt>
<totfact> 0.31760861E+03</totfact>
</mgrwt>
</event>
<event>
 6    1  0.9399121E-004  0.4806085E+03  0.7818608E-02  0.1018971E+00
         21   -1    0    0  503  502  0.00000000000E+00  0.00000000000E+00  0.30123730207E+03  0.30123730207E+03  0.00000000000E+00 0.  1.
         21   -1    0    0  501  503 -0.00000000000E+00 -0.00000000000E+00 -0.96104467838E+03  0.96104467838E+03  0.00000000000E+00 0.  1.
    9000007    2    1    2  501    0  0.12176129909E+03  0.23697837313E+03 -0.61370238839E+03  0.77946707473E+03  0.39994216555E+03 0.  0.
    9000005    1    3    3    0    0 -0.71384976768E+02  0.12301257476E+03 -0.18511640940E+02  0.14342799344E+03  0.99999687468E+00 0.  0.
          4    1    3    3  501    0  0.19314627586E+03  0.11396579836E+03 -0.59519074745E+03  0.63603908129E+03  0.00000000000E+00 0.  1.
   -9000007    1    1    2    0  502 -0.12176129909E+03 -0.23697837313E+03 -0.46104987923E+02  0.48281490573E+03  0.40000000000E+03 0.  1.
<mgrwt>
<rscale>  2 0.48059650E+03</rscale>
<asrwt>0</asrwt>
<pdfrwt beam="1">  1       21 0.46344200E-01 0.48060853E+03</pdfrwt>
<pdfrwt beam="2">  1       21 0.14785303E+00 0.48060853E+03</pdfrwt>
<totfact> 0.11591144E+03</totfact>
</mgrwt>
</event>
<event>
 6    1  0.9399121E-004  0.4251596E+03  0.7818608E-02  0.1035520E+00
         21   -1    0    0  503  502  0.00000000000E+00  0.00000000000E+00  0.19204946810E+03  0.19204946810E+03  0.00000000000E+00 0. -1.
         21   -1    0    0  501  503 -0.00000000000E+00 -0.00000000000E+00 -0.96036618840E+03  0.96036618840E+03  0.00000000000E+00 0. -1.
    9000007    2    1    2  501    0 -0.43957163197E+02 -0.13250391932E+03 -0.47293681603E+03  0.63594803053E+03  0.40158578752E+03 0.  0.
    9000005    1    3    3    0    0  0.17122855554E+03 -0.22939382940E+02 -0.26991277844E+03  0.32046737974E+03  0.99999687468E+00 0.  0.
          4    1    3    3  501    0 -0.21518571873E+03 -0.10956453638E+03 -0.20302403759E+03  0.31548065078E+03  0.00000000000E+00 0.  1.
   -9000007    1    1    2    0  502  0.43957163197E+02  0.13250391932E+03 -0.29537990427E+03  0.51646762597E+03  0.40000000000E+03 0. -1.
<mgrwt>
<rscale>  2 0.42478470E+03</rscale>
<asrwt>0</asrwt>
<pdfrwt beam="1">  1       21 0.29546072E-01 0.42515958E+03</pdfrwt>
<pdfrwt beam="2">  1       21 0.14774864E+00 0.42515958E+03</pdfrwt>
<totfact> 0.29745579E+03</totfact>
</mgrwt>
</event>
<event>
 6    1  0.9399121E-004  0.7795411E+03  0.7818608E-02  0.9590187E-01
         21   -1    0    0  503  502  0.00000000000E+00  0.00000000000E+00  0.15930299165E+04  0.15930299165E+04  0.00000000000E+00 0.  1.
         21   -1    0    0  501  503 -0.00000000000E+00 -0.00000000000E+00 -0.10143178800E+04  0.10143178800E+04  0.00000000000E+00 0. -1.
    9000007    2    1    2  501    0 -0.61497857274E+03 -0.26300533047E+03 -0.74046410400E+03  0.10751610787E+04  0.40039206661E+03 0.  0.
    9000005    1    3    3    0    0 -0.41980269438E+03 -0.83984966806E+02 -0.19840441592E+03  0.47186130283E+03  0.99999687468E+00 0.  0.
          4    1    3    3  501    0 -0.19517587836E+03 -0.17902036367E+03 -0.54205968808E+03  0.60329977585E+03  0.00000000000E+00 0.  1.
   -9000007    1    1    2    0  502  0.61497857274E+03  0.26300533047E+03  0.13191761405E+04  0.15321867179E+04  0.40000000000E+03 0.  1.
<mgrwt>
<rscale>  2 0.77949072E+03</rscale>
<asrwt>0</asrwt>
<pdfrwt beam="1">  1       21 0.24508153E+00 0.77954105E+03</pdfrwt>
<pdfrwt beam="2">  1       21 0.15604890E+00 0.77954105E+03</pdfrwt>
<totfact> 0.12033799E+01</totfact>
</mgrwt>
</event>
<event>
 6    1  0.9399121E-004  0.4031185E+03  0.7818608E-02  0.1042724E+00
         21   -1    0    0  503  502  0.00000000000E+00  0.00000000000E+00  0.49701595190E+03  0.49701595190E+03  0.00000000000E+00 0. -1.
         21   -1    0    0  501  503 -0.00000000000E+00 -0.00000000000E+00 -0.33015358269E+03  0.33015358269E+03  0.00000000000E+00 0. -1.
    9000007    2    1    2  501    0 -0.27015016679E+02 -0.39917250621E+02  0.12527406836E+03  0.42213523383E+03  0.40022664256E+03 0.  0.
    9000005    1    3    3    0    0  0.85881923898E+02 -0.28534959274E+02  0.24259017678E+03  0.25892265759E+03  0.99999687468E+00 0.  0.
          4    1    3    3  501    0 -0.11289694058E+03 -0.11382291347E+02 -0.11731610841E+03  0.16321257623E+03  0.00000000000E+00 0.  1.
   -9000007    1    1    2    0  502  0.27015016679E+02  0.39917250621E+02  0.41588300852E+02  0.40503430076E+03  0.40000000000E+03 0.  1.
<mgrwt>
<rscale>  2 0.40306228E+03</rscale>
<asrwt>0</asrwt>
<pdfrwt beam="1">  1       21 0.76463993E-01 0.40311855E+03</pdfrwt>
<pdfrwt beam="2">  1       21 0.50792859E-01 0.40311855E+03</pdfrwt>
<totfact> 0.50196918E+03</totfact>
</mgrwt>
</event>
<event>
 6    1  0.9399121E-004  0.4105045E+03  0.7818608E-02  0.1040217E+00
         21   -1    0    0  503  502  0.00000000000E+00  0.00000000000E+00  0.60600110363E+03  0.60600110363E+03  0.00000000000E+00 0. -1.
         21   -1    0    0  501  503 -0.00000000000E+00 -0.00000000000E+00 -0.62530869511E+03  0.62530869511E+03  0.00000000000E+00 0. -1.
    9000007    2    1    2  501    0  0.56309253930E+02  0.73097101207E+02 -0.46850731560E+03  0.62279167211E+03  0.39982051448E+03 0.  0.
    9000005    1    3    3    0    0 -0.69615384229E+02  0.18187907168E+03 -0.10103437350E+03  0.21939745454E+03  0.99999687468E+00 0.  0.
          4    1    3    3  501    0  0.12592463816E+03 -0.10878197047E+03 -0.36747294209E+03  0.40339421757E+03  0.00000000000E+00 0.  1.
   -9000007    1    1    2    0  502 -0.56309253930E+02 -0.73097101207E+02  0.44919972412E+03  0.60851812662E+03  0.40000000000E+03 0. -1.
<mgrwt>
<rscale>  2 0.41046074E+03</rscale>
<asrwt>0</asrwt>
<pdfrwt beam="1">  1       21 0.93230940E-01 0.41050447E+03</pdfrwt>
<pdfrwt beam="2">  1       21 0.96201337E-01 0.41050447E+03</pdfrwt>
<totfact> 0.74830166E+02</totfact>
</mgrwt>
</event>
<event>
 6    1  0.9399121E-004  0.4152739E+03  0.7818608E-02  0.1038633E+00
         21   -1    0    0  503  502  0.00000000000E+00  0.00000000000E+00  0.61296869315E+03  0.61296869315E+03  0.00000000000E+00 0.  1.
         21   -1    0    0  501  503 -0.00000000000E+00 -0.00000000000E+00 -0.39192458475E+03  0.39192458475E+03  0.00000000000E+00 0.  1.
    9000007    2    1    2  501    0 -0.94071018938E+02  0.58506059557E+02 -0.15652716417E+03  0.44379401620E+03  0.40022501182E+03 0.  0.
    9000005    1    3    3    0    0  0.10764571645E+03 -0.34681360163E+02 -0.18797672289E+03  0.21937785976E+03  0.99999687468E+00 0.  0.
          4    1    3    3  501    0 -0.20171673539E+03  0.93187419720E+02  0.31449558711E+02  0.22441615644E+03  0.00000000000E+00 0.  1.
   -9000007    1    1    2    0  502  0.94071018938E+02 -0.58506059557E+02  0.37757127257E+03  0.56109926170E+03  0.40000000000E+03 0. -1.
<mgrwt>
<rscale>  2 0.41521963E+03</rscale>
<asrwt>0</asrwt>
<pdfrwt beam="1">  1       21 0.94302876E-01 0.41527386E+03</pdfrwt>
<pdfrwt beam="2">  1       21 0.60296090E-01 0.41527386E+03</pdfrwt>
<totfact> 0.21151873E+03</totfact>
</mgrwt>
</event>
<event>
 6    1  0.9399121E-004  0.4717386E+03  0.7818608E-02  0.1021436E+00
         21   -1    0    0  503  502  0.00000000000E+00  0.00000000000E+00  0.62477619321E+03  0.62477619321E+03  0.00000000000E+00 0. -1.
         21   -1    0    0  501  503 -0.00000000000E+00 -0.00000000000E+00 -0.35697176200E+03  0.35697176200E+03  0.00000000000E+00 0.  1.
    9000007    2    1    2  501    0  0.94073446441E+02  0.23154283835E+03  0.15779409864E+03  0.49742969973E+03  0.40009427551E+03 0.  0.
    9000005    1    3    3    0    0  0.13980560596E+03 -0.64158031337E+02  0.12149388091E+03  0.19601944683E+03  0.99999687468E+00 0.  0.
          4    1    3    3  501    0 -0.45732159521E+02  0.29570086968E+03  0.36300217730E+02  0.30141025290E+03  0.00000000000E+00 0.  1.
   -9000007    1    1    2    0  502 -0.94073446441E+02 -0.23154283835E+03  0.11001033257E+03  0.48431825548E+03  0.40000000000E+03 0.  1.
<mgrwt>
<rscale>  2 0.47171863E+03</rscale>
<asrwt>0</asrwt>
<pdfrwt beam="1">  1       21 0.96119414E-01 0.47173862E+03</pdfrwt>
<pdfrwt beam="2">  1       21 0.54918733E-01 0.47173862E+03</pdfrwt>
<totfact> 0.24238087E+03</totfact>
</mgrwt>
</event>
<event>
 6    1  0.9399121E-004  0.5173495E+03  0.7818608E-02  0.1009383E+00
         21   -1    0    0  503  502  0.00000000000E+00  0.00000000000E+00  0.24268573583E+04  0.24268573583E+04  0.00000000000E+00 0.  1.
         21   -1    0    0  501  503 -0.00000000000E+00 -0.00000000000E+00 -0.24583754164E+03  0.24583754164E+03  0.00000000000E+00 0. -1.
    9000007    2    1    2  501    0 -0.28419742963E+03  0.16215103894E+03  0.98027602648E+02  0.52655471298E+03  0.40073596849E+03 0.  0.
    9000005    1    3    3    0    0 -0.35896265540E+03  0.40586445549E+02  0.15256226644E+02  0.36157322906E+03  0.99999687468E+00 0.  0.
          4    1    3    3  501    0  0.74765225762E+02  0.12156459339E+03  0.82771376004E+02  0.16498148391E+03  0.00000000000E+00 0.  1.
   -9000007    1    1    2    0  502  0.28419742963E+03 -0.16215103894E+03  0.20829922141E+04  0.21461401870E+04  0.40000000000E+03 0.  1.
<mgrwt>
<rscale>  2 0.51720693E+03</rscale>
<asrwt>0</asrwt>
<pdfrwt beam="1">  1       21 0.37336266E+00 0.51734945E+03</pdfrwt>
<pdfrwt beam="2">  1       21 0.37821162E-01 0.51734945E+03</pdfrwt>
<totfact> 0.61407532E+01</totfact>
</mgrwt>
</event>
<event>
 6    1  0.9399121E-004  0.4341687E+03  0.7818608E-02  0.1032632E+00
         21   -1    0    0  503  502  0.00000000000E+00  0.00000000000E+00  0.23668449966E+03  0.23668449966E+03  0.00000000000E+00 0. -1.
         21   -1    0    0  501  503 -0.00000000000E+00 -0.00000000000E+00 -0.89087579992E+03  0.89087579992E+03  0.00000000000E+00 0.  1.
    9000007    2    1    2  501    0  0.15969313152E+03  0.45915434396E+02 -0.14205104606E+03  0.45681611337E+03  0.40111387208E+03 0.  0.
    9000005    1    3    3    0    0  0.12285880267E+03  0.12101762678E+03  0.10094461740E+03  0.19982584207E+03  0.99999687468E+00 0.  0.
          4    1    3    3  501    0  0.36834328857E+02 -0.75102192383E+02 -0.24299566346E+03  0.25699027130E+03  0.00000000000E+00 0.  1.
   -9000007    1    1    2    0  502 -0.15969313152E+03 -0.45915434396E+02 -0.51214025419E+03  0.67074418621E+03  0.40000000000E+03 0.  1.
<mgrwt>
<rscale>  2 0.43391126E+03</rscale>
<asrwt>0</asrwt>
<pdfrwt beam="1">  1       21 0.36413000E-01 0.43416870E+03</pdfrwt>
<pdfrwt beam="2">  1       21 0.13705781E+00 0.43416870E+03</pdfrwt>
<totfact> 0.23818466E+03</totfact>
</mgrwt>
</event>
<event>
 6    1  0.9399121E-004  0.4174599E+03  0.7818608E-02  0.1037964E+00
         21   -1    0    0  503  502  0.00000000000E+00  0.00000000000E+00  0.33280454122E+03  0.33280454122E+03  0.00000000000E+00 0. -1.
         21   -1    0    0  501  503 -0.00000000000E+00 -0.00000000000E+00 -0.59277978900E+03  0.59277978900E+03  0.00000000000E+00 0. -1.
    9000007    2    1    2  501    0  0.94613772756E+02 -0.68088929066E+02 -0.28931566165E+03  0.50791373257E+03  0.40085525991E+03 0.  0.
    9000005    1    3    3    0    0  0.22062746899E+03 -0.58660436524E+02 -0.30456728853E+03  0.38063073986E+03  0.99999687468E+00 0.  0.
          4    1    3    3  501    0 -0.12601369624E+03 -0.94284925419E+01  0.15251626882E+02  0.12728299271E+03  0.00000000000E+00 0.  1.
   -9000007    1    1    2    0  502 -0.94613772756E+02  0.68088929066E+02  0.29340413869E+02  0.41767059765E+03  0.40000000000E+03 0. -1.
<mgrwt>
<rscale>  2 0.41725450E+03</rscale>
<asrwt>0</asrwt>
<pdfrwt beam="1">  1       21 0.51200699E-01 0.41745995E+03</pdfrwt>
<pdfrwt beam="2">  1       21 0.91196890E-01 0.41745995E+03</pdfrwt>
<totfact> 0.32579068E+03</totfact>
</mgrwt>
</event>
<event>
 6    1  0.9399121E-004  0.4393720E+03  0.7818608E-02  0.1030961E+00
         21   -1    0    0  503  502  0.00000000000E+00  0.00000000000E+00  0.60608719700E+03  0.60608719700E+03  0.00000000000E+00 0.  1.
         21   -1    0    0  501  503 -0.00000000000E+00 -0.00000000000E+00 -0.33705208050E+03  0.33705208050E+03  0.00000000000E+00 0.  1.
    9000007    2    1    2  501    0 -0.79812975191E+02  0.16257827940E+03  0.24575277223E+03  0.50343042440E+03  0.40030733095E+03 0.  0.
    9000005    1    3    3    0    0  0.14506673293E+03  0.10150630878E+03  0.19789876177E+03  0.26554247801E+03  0.99999687468E+00 0.  0.
          4    1    3    3  501    0 -0.22487970812E+03  0.61071970619E+02  0.47854010460E+02  0.23788794639E+03  0.00000000000E+00 0.  1.
   -9000007    1    1    2    0  502  0.79812975191E+02 -0.16257827940E+03  0.23282344274E+02  0.43970885310E+03  0.40000000000E+03 0.  1.
<mgrwt>
<rscale>  2 0.43930200E+03</rscale>
<asrwt>0</asrwt>
<pdfrwt beam="1">  1       21 0.93244184E-01 0.43937201E+03</pdfrwt>
<pdfrwt beam="2">  1       21 0.51854166E-01 0.43937201E+03</pdfrwt>
<totfact> 0.29834659E+03</totfact>
</mgrwt>
</event>
<event>
 6    1  0.9399121E-004  0.4124589E+03  0.7818608E-02  0.1039582E+00
         21   -1    0    0  503  502  0.00000000000E+00  0.00000000000E+00  0.23306768527E+03  0.23306768527E+03  0.00000000000E+00 0.  1.
         21   -1    0    0  501  503 -0.00000000000E+00 -0.00000000000E+00 -0.77159093764E+03  0.77159093764E+03  0.00000000000E+00 0.  1.
    9000007    2    1    2  501    0 -0.82659433914E+01  0.98617758678E+02 -0.38709631244E+03  0.56565531281E+03  0.40041052640E+03 0.  0.
    9000005    1    3    3    0    0 -0.27306148341E+01 -0.51312009047E+02  0.68702656945E+02  0.85798797164E+02  0.99999687468E+00 0.  0.
          4    1    3    3  501    0 -0.55353285573E+01  0.14992976773E+03 -0.45579896939E+03  0.47985651564E+03  0.00000000000E+00 0.  1.
   -9000007    1    1    2    0  502  0.82659433914E+01 -0.98617758678E+02 -0.15142693993E+03  0.43900331011E+03  0.40000000000E+03 0.  1.
<mgrwt>
<rscale>  2 0.41235927E+03</rscale>
<asrwt>0</asrwt>
<pdfrwt beam="1">  1       21 0.35856567E-01 0.41245894E+03</pdfrwt>
<pdfrwt beam="2">  1       21 0.11870630E+00 0.41245894E+03</pdfrwt>
<totfact> 0.35907128E+03</totfact>
</mgrwt>
</event>
<event>
 6    1  0.9399121E-004  0.4335606E+03  0.7818608E-02  0.1032774E+00
         21   -1    0    0  503  502  0.00000000000E+00  0.00000000000E+00  0.37005525475E+03  0.37005525475E+03  0.00000000000E+00 0. -1.
         21   -1    0    0  501  503 -0.00000000000E+00 -0.00000000000E+00 -0.53807385308E+03  0.53807385308E+03  0.00000000000E+00 0.  1.
    9000007    2    1    2  501    0 -0.15586123246E+03  0.57632632363E+02 -0.19232434146E+03  0.47430309057E+03  0.40045040306E+03 0.  0.
    9000005    1    3    3    0    0 -0.53541461270E+02 -0.16813180540E+03 -0.32631113421E+02  0.17944576233E+03  0.99999687468E+00 0.  0.
          4    1    3    3  501    0 -0.10231977119E+03  0.22576443776E+03 -0.15969322804E+03  0.29485732824E+03  0.00000000000E+00 0.  1.
   -9000007    1    1    2    0  502  0.15586123246E+03 -0.57632632363E+02  0.24305743138E+02  0.43382601726E+03  0.40000000000E+03 0. -1.
<mgrwt>
<rscale>  2 0.43345654E+03</rscale>
<asrwt>0</asrwt>
<pdfrwt beam="1">  1       21 0.56931578E-01 0.43356057E+03</pdfrwt>
<pdfrwt beam="2">  1       21 0.82780593E-01 0.43356057E+03</pdfrwt>
<totfact> 0.32360053E+03</totfact>
</mgrwt>
</event>
<event>
 6    1  0.9399121E-004  0.4270272E+03  0.7818608E-02  0.1034836E+00
         21   -1    0    0  503  502  0.00000000000E+00  0.00000000000E+00  0.13766108152E+04  0.13766108152E+04  0.00000000000E+00 0. -1.
         21   -1    0    0  501  503 -0.00000000000E+00 -0.00000000000E+00 -0.23991882020E+03  0.23991882020E+03  0.00000000000E+00 0. -1.
    9000007    2    1    2  501    0  0.14756362474E+03  0.24024439703E+02  0.26954603993E+02  0.42746728462E+03  0.39956167446E+03 0.  0.
    9000005    1    3    3    0    0  0.26089057009E+03  0.11098600715E+03  0.24837536371E+02  0.28460443874E+03  0.99999687468E+00 0.  0.
          4    1    3    3  501    0 -0.11332694535E+03 -0.86961567451E+02  0.21170676220E+01  0.14286284588E+03  0.00000000000E+00 0.  1.
   -9000007    1    1    2    0  502 -0.14756362474E+03 -0.24024439703E+02  0.11097373910E+04  0.11890623507E+04  0.40000000000E+03 0. -1.
<mgrwt>
<rscale>  2 0.42692449E+03</rscale>
<asrwt>0</asrwt>
<pdfrwt beam="1">  1       21 0.21178627E+00 0.42702716E+03</pdfrwt>
<pdfrwt beam="2">  1       21 0.36910589E-01 0.42702716E+03</pdfrwt>
<totfact> 0.66811262E+02</totfact>
</mgrwt>
</event>
<event>
 6    1  0.9399121E-004  0.5572347E+03  0.7818608E-02  0.9999423E-01
         21   -1    0    0  503  502  0.00000000000E+00  0.00000000000E+00  0.92243284410E+03  0.92243284410E+03  0.00000000000E+00 0.  1.
         21   -1    0    0  501  503 -0.00000000000E+00 -0.00000000000E+00 -0.35101507029E+03  0.35101507029E+03  0.00000000000E+00 0.  1.
    9000007    2    1    2  501    0 -0.36841351362E+03  0.11247612762E+03  0.15216439692E+03  0.57763702748E+03  0.40265510742E+03 0.  0.
    9000005    1    3    3    0    0 -0.70419143678E+02  0.13675583749E+03 -0.10254255649E+03  0.18487019978E+03  0.99999687468E+00 0.  0.
          4    1    3    3  501    0 -0.29799436994E+03 -0.24279709872E+02  0.25470695341E+03  0.39276682770E+03  0.00000000000E+00 0.  1.
   -9000007    1    1    2    0  502  0.36841351362E+03 -0.11247612762E+03  0.41925337689E+03  0.69581088691E+03  0.40000000000E+03 0.  1.
<mgrwt>
<rscale>  2 0.55675522E+03</rscale>
<asrwt>0</asrwt>
<pdfrwt beam="1">  1       21 0.14191274E+00 0.55723472E+03</pdfrwt>
<pdfrwt beam="2">  1       21 0.54002319E-01 0.55723472E+03</pdfrwt>
<totfact> 0.90854183E+02</totfact>
</mgrwt>
</event>
<event>
 6    1  0.9399121E-004  0.4241388E+03  0.7818608E-02  0.1035741E+00
         21   -1    0    0  503  502  0.00000000000E+00  0.00000000000E+00  0.73655965696E+03  0.73655965696E+03  0.00000000000E+00 0.  1.
         21   -1    0    0  501  503 -0.00000000000E+00 -0.00000000000E+00 -0.24414374039E+03  0.24414374039E+03  0.00000000000E+00 0.  1.
    9000007    2    1    2  501    0 -0.11935377922E+03 -0.75155974566E+02  0.24871883377E+03  0.49153878979E+03  0.39981943233E+03 0.  0.
    9000005    1    3    3    0    0 -0.29275165614E+02  0.64249869450E+02 -0.89967964764E+02  0.11436920793E+03  0.99999687468E+00 0.  0.
          4    1    3    3  501    0 -0.90078613609E+02 -0.13940584402E+03  0.33868679854E+03  0.37716958186E+03  0.00000000000E+00 0.  1.
   -9000007    1    1    2    0  502  0.11935377922E+03  0.75155974566E+02  0.24369708279E+03  0.48916460756E+03  0.40000000000E+03 0.  1.
<mgrwt>
<rscale>  2 0.42409625E+03</rscale>
<asrwt>0</asrwt>
<pdfrwt beam="1">  1       21 0.11331687E+00 0.42413883E+03</pdfrwt>
<pdfrwt beam="2">  1       21 0.37560576E-01 0.42413883E+03</pdfrwt>
<totfact> 0.36538485E+03</totfact>
</mgrwt>
</event>
<event>
 6    1  0.9399121E-004  0.4260500E+03  0.7818608E-02  0.1035116E+00
         21   -1    0    0  503  502  0.00000000000E+00  0.00000000000E+00  0.71059306577E+03  0.71059306577E+03  0.00000000000E+00 0. -1.
         21   -1    0    0  501  503 -0.00000000000E+00 -0.00000000000E+00 -0.50420980827E+03  0.50420980827E+03  0.00000000000E+00 0. -1.
    9000007    2    1    2  501    0  0.14600010704E+03 -0.14016746380E+02 -0.32345322071E+03  0.53492112397E+03  0.40000765299E+03 0.  0.
    9000005    1    3    3    0    0  0.97732572907E+02  0.93534483413E+02 -0.38059019563E+03  0.40391862101E+03  0.99999687468E+00 0.  0.
          4    1    3    3  501    0  0.48267534132E+02 -0.10755122979E+03  0.57136974914E+02  0.13100250297E+03  0.00000000000E+00 0.  1.
   -9000007    1    1    2    0  502 -0.14600010704E+03  0.14016746380E+02  0.52983647821E+03  0.67988175007E+03  0.40000000000E+03 0. -1.
<mgrwt>
<rscale>  2 0.42604823E+03</rscale>
<asrwt>0</asrwt>
<pdfrwt beam="1">  1       21 0.10932201E+00 0.42605002E+03</pdfrwt>
<pdfrwt beam="2">  1       21 0.77570740E-01 0.42605002E+03</pdfrwt>
<totfact> 0.83570828E+02</totfact>
</mgrwt>
</event>
<event>
 6    1  0.9399121E-004  0.4332310E+03  0.7818608E-02  0.1032864E+00
         21   -1    0    0  503  502  0.00000000000E+00  0.00000000000E+00  0.34358645086E+03  0.34358645086E+03  0.00000000000E+00 0.  1.
         21   -1    0    0  501  503 -0.00000000000E+00 -0.00000000000E+00 -0.61815606688E+03  0.61815606688E+03  0.00000000000E+00 0. -1.
    9000007    2    1    2  501    0 -0.10415565021E+03  0.12977163786E+03 -0.30160383296E+03  0.52766887613E+03  0.39972552247E+03 0.  0.
    9000005    1    3    3    0    0  0.77727546111E+02  0.11263058888E+03 -0.31605301562E+03  0.34440924734E+03  0.99999687468E+00 0.  0.
          4    1    3    3  501    0 -0.18188319632E+03  0.17141048986E+02  0.14449182664E+02  0.18325962879E+03  0.00000000000E+00 0.  1.
   -9000007    1    1    2    0  502  0.10415565021E+03 -0.12977163786E+03  0.27034216938E+02  0.43407364162E+03  0.40000000000E+03 0.  1.
<mgrwt>
<rscale>  2 0.43316761E+03</rscale>
<asrwt>0</asrwt>
<pdfrwt beam="1">  1       21 0.52859454E-01 0.43323097E+03</pdfrwt>
<pdfrwt beam="2">  1       21 0.95100934E-01 0.43323097E+03</pdfrwt>
<totfact> 0.27377111E+03</totfact>
</mgrwt>
</event>
<event>
 6    1  0.9399121E-004  0.4151386E+03  0.7818608E-02  0.1038696E+00
         21   -1    0    0  503  502  0.00000000000E+00  0.00000000000E+00  0.78370190192E+03  0.78370190192E+03  0.00000000000E+00 0.  1.
         21   -1    0    0  501  503 -0.00000000000E+00 -0.00000000000E+00 -0.21996142731E+03  0.21996142731E+03  0.00000000000E+00 0.  1.
    9000007    2    1    2  501    0  0.31243454810E+02  0.10492595576E+03  0.29999945648E+03  0.51219111811E+03  0.40044282728E+03 0.  0.
    9000005    1    3    3    0    0  0.67630359829E+02  0.70133901344E+02 -0.81718647446E+02  0.12716747628E+03  0.99999687468E+00 0.  0.
          4    1    3    3  501    0 -0.36386905019E+02  0.34792054419E+02  0.38171810392E+03  0.38502364183E+03  0.00000000000E+00 0.  1.
   -9000007    1    1    2    0  502 -0.31243454810E+02 -0.10492595576E+03  0.26374101813E+03  0.49147221112E+03  0.40000000000E+03 0.  1.
<mgrwt>
<rscale>  2 0.41503179E+03</rscale>
<asrwt>0</asrwt>
<pdfrwt beam="1">  1       21 0.12056952E+00 0.41513861E+03</pdfrwt>
<pdfrwt beam="2">  1       21 0.33840220E-01 0.41513861E+03</pdfrwt>
<totfact> 0.38753294E+03</totfact>
</mgrwt>
</event>
<event>
 6    1  0.9399121E-004  0.4222743E+03  0.7818608E-02  0.1036412E+00
         21   -1    0    0  503  502  0.00000000000E+00  0.00000000000E+00  0.10410098683E+04  0.10410098683E+04  0.00000000000E+00 0.  1.
         21   -1    0    0  501  503 -0.00000000000E+00 -0.00000000000E+00 -0.42866097533E+03  0.42866097533E+03  0.00000000000E+00 0.  1.
    9000007    2    1    2  501    0  0.10209443022E+03 -0.88838584028E+02 -0.26383028065E+03  0.49704269733E+03  0.39891033991E+03 0.  0.
    9000005    1    3    3    0    0 -0.34211288275E+02 -0.18089026633E+03  0.23855778342E+01  0.18411515872E+03  0.99999687468E+00 0.  0.
          4    1    3    3  501    0  0.13630571850E+03  0.92051682298E+02 -0.26621585848E+03  0.31292753860E+03  0.00000000000E+00 0.  1.
   -9000007    1    1    2    0  502 -0.10209443022E+03  0.88838584028E+02  0.87617917359E+03  0.97262814627E+03  0.40000000000E+03 0.  1.
<mgrwt>
<rscale>  2 0.42201603E+03</rscale>
<asrwt>0</asrwt>
<pdfrwt beam="1">  1       21 0.16015536E+00 0.42227428E+03</pdfrwt>
<pdfrwt beam="2">  1       21 0.65947843E-01 0.42227428E+03</pdfrwt>
<totfact> 0.44554938E+02</totfact>
</mgrwt>
</event>
<event>
 6    1  0.9399121E-004  0.4473085E+03  0.7818608E-02  0.1028613E+00
         21   -1    0    0  503  502  0.00000000000E+00  0.00000000000E+00  0.82551079364E+02  0.82551079364E+02  0.00000000000E+00 0.  1.
         21   -1    0    0  501  503 -0.00000000000E+00 -0.00000000000E+00 -0.25516819716E+04  0.25516819716E+04  0.00000000000E+00 0.  1.
    9000007    2    1    2  501    0  0.16619303458E+03 -0.11164582407E+03 -0.93123571368E+03  0.10326068477E+04  0.39873805022E+03 0.  0.
    9000005    1    3    3    0    0  0.37698695479E+02  0.13452657011E+03 -0.50439703740E+03  0.52338891948E+03  0.99999687468E+00 0.  0.
          4    1    3    3  501    0  0.12849433910E+03 -0.24617239419E+03 -0.42683867629E+03  0.50921792821E+03  0.00000000000E+00 0.  1.
   -9000007    1    1    2    0  502 -0.16619303458E+03  0.11164582407E+03 -0.15378951785E+04  0.16016262033E+04  0.40000000000E+03 0.  1.
<mgrwt>
<rscale>  2 0.44702622E+03</rscale>
<asrwt>0</asrwt>
<pdfrwt beam="1">  1       21 0.12700166E-01 0.44730852E+03</pdfrwt>
<pdfrwt beam="2">  1       21 0.39256646E+00 0.44730852E+03</pdfrwt>
<totfact> 0.39799953E+02</totfact>
</mgrwt>
</event>
<event>
 6    1  0.9399121E-004  0.4160789E+03  0.7818608E-02  0.1038516E+00
         21   -1    0    0  503  502  0.00000000000E+00  0.00000000000E+00  0.55011335784E+03  0.55011335784E+03  0.00000000000E+00 0. -1.
         21   -1    0    0  501  503 -0.00000000000E+00 -0.00000000000E+00 -0.31384272191E+03  0.31384272191E+03  0.00000000000E+00 0. -1.
    9000007    2    1    2  501    0 -0.10361955514E+03 -0.48832375342E+02  0.13759071418E+03  0.43633552359E+03  0.39791440213E+03 0.  0.
    9000005    1    3    3    0    0 -0.59601454695E+02 -0.86716883251E+02  0.27106501849E+03  0.29077378748E+03  0.99999687468E+00 0.  0.
          4    1    3    3  501    0 -0.44018100446E+02  0.37884507910E+02 -0.13347430431E+03  0.14556173611E+03  0.00000000000E+00 0.  1.
   -9000007    1    1    2    0  502  0.10361955514E+03  0.48832375342E+02  0.98679921754E+02  0.42762055616E+03  0.40000000000E+03 0.  1.
<mgrwt>
<rscale>  2 0.41557680E+03</rscale>
<asrwt>0</asrwt>
<pdfrwt beam="1">  1       21 0.84632824E-01 0.41607885E+03</pdfrwt>
<pdfrwt beam="2">  1       21 0.48283496E-01 0.41607885E+03</pdfrwt>
<totfact> 0.44006634E+03</totfact>
</mgrwt>
</event>
<event>
 6    1  0.9399121E-004  0.4826306E+03  0.7818608E-02  0.1018418E+00
         21   -1    0    0  503  502  0.00000000000E+00  0.00000000000E+00  0.45859908324E+03  0.45859908324E+03  0.00000000000E+00 0.  1.
         21   -1    0    0  501  503 -0.00000000000E+00 -0.00000000000E+00 -0.51566113300E+03  0.51566113300E+03  0.00000000000E+00 0.  1.
    9000007    2    1    2  501    0  0.23227974004E+03 -0.13758059196E+03 -0.88421976974E+02  0.49066354344E+03  0.40006245753E+03 0.  0.
    9000005    1    3    3    0    0  0.11138315824E+02 -0.84083533197E+02 -0.21441739168E+03  0.23058603705E+03  0.99999687468E+00 0.  0.
          4    1    3    3  501    0  0.22114142422E+03 -0.53497058766E+02  0.12599541470E+03  0.26007750639E+03  0.00000000000E+00 0.  1.
   -9000007    1    1    2    0  502 -0.23227974004E+03  0.13758059196E+03  0.31359927211E+02  0.48359667281E+03  0.40000000000E+03 0.  1.
<mgrwt>
<rscale>  2 0.48261763E+03</rscale>
<asrwt>0</asrwt>
<pdfrwt beam="1">  1       21 0.70553705E-01 0.48263057E+03</pdfrwt>
<pdfrwt beam="2">  1       21 0.79332482E-01 0.48263057E+03</pdfrwt>
<totfact> 0.21828021E+03</totfact>
</mgrwt>
</event>
<event>
 6    1  0.9399121E-004  0.4014643E+03  0.7818608E-02  0.1043277E+00
         21   -1    0    0  503  502  0.00000000000E+00  0.00000000000E+00  0.10598783984E+04  0.10598783984E+04  0.00000000000E+00 0. -1.
         21   -1    0    0  501  503 -0.00000000000E+00 -0.00000000000E+00 -0.24958862255E+03  0.24958862255E+03  0.00000000000E+00 0. -1.
    9000007    2    1    2  501    0 -0.60310380086E+01  0.33722102673E+02 -0.41568279255E+01  0.40144894623E+03  0.39996302776E+03 0.  0.
    9000005    1    3    3    0    0  0.13808828787E+03  0.15796171640E+03  0.14167456058E+02  0.21029026582E+03  0.99999687468E+00 0.  0.
          4    1    3    3  501    0 -0.14411932588E+03 -0.12423961372E+03 -0.18324283983E+02  0.19115868040E+03  0.00000000000E+00 0.  1.
   -9000007    1    1    2    0  502  0.60310380086E+01 -0.33722102673E+02  0.81444660375E+03  0.90801807471E+03  0.40000000000E+03 0. -1.
<mgrwt>
<rscale>  2 0.40145505E+03</rscale>
<asrwt>0</asrwt>
<pdfrwt beam="1">  1       21 0.16305821E+00 0.40146426E+03</pdfrwt>
<pdfrwt beam="2">  1       21 0.38398250E-01 0.40146426E+03</pdfrwt>
<totfact> 0.13537520E+03</totfact>
</mgrwt>
</event>
<event>
 6    1  0.9399121E-004  0.5674246E+03  0.7818608E-02  0.9976560E-01
         21   -1    0    0  503  502  0.00000000000E+00  0.00000000000E+00  0.35658391873E+04  0.35658391873E+04  0.00000000000E+00 0.  1.
         21   -1    0    0  501  503 -0.00000000000E+00 -0.00000000000E+00 -0.90936479002E+02  0.90936479002E+02  0.00000000000E+00 0. -1.
    9000007    2    1    2  501    0 -0.55644663640E+02 -0.39560636991E+03  0.19300447585E+04  0.20117264836E+04  0.40295154352E+03 0.  0.
    9000005    1    3    3    0    0 -0.31020017562E+02 -0.46289708129E+03  0.13547442197E+04  0.14319807436E+04  0.99999687468E+00 0.  0.
          4    1    3    3  501    0 -0.24624646078E+02  0.67290711379E+02  0.57530053886E+03  0.57974573999E+03  0.00000000000E+00 0.  1.
   -9000007    1    1    2    0  502  0.55644663640E+02  0.39560636991E+03  0.15448579497E+04  0.16450491827E+04  0.40000000000E+03 0.  1.
<mgrwt>
<rscale>  2 0.56690083E+03</rscale>
<asrwt>0</asrwt>
<pdfrwt beam="1">  1       21 0.54859054E+00 0.56742460E+03</pdfrwt>
<pdfrwt beam="2">  1       21 0.13990230E-01 0.56742460E+03</pdfrwt>
<totfact> 0.25639298E+01</totfact>
</mgrwt>
</event>
<event>
 6    1  0.9399121E-004  0.4907289E+03  0.7818608E-02  0.1016307E+00
         21   -1    0    0  503  502  0.00000000000E+00  0.00000000000E+00  0.42027396209E+03  0.42027396209E+03  0.00000000000E+00 0.  1.
         21   -1    0    0  501  503 -0.00000000000E+00 -0.00000000000E+00 -0.75960696510E+03  0.75960696510E+03  0.00000000000E+00 0.  1.
    9000007    2    1    2  501    0 -0.13780307127E+03  0.24628381039E+03 -0.46331450941E+03  0.67488903058E+03  0.40145917259E+03 0.  0.
    9000005    1    3    3    0    0 -0.21842635691E+03  0.10853431353E+03 -0.75199799036E+02  0.25523671439E+03  0.99999687468E+00 0.  0.
          4    1    3    3  501    0  0.80623285640E+02  0.13774949686E+03 -0.38811471037E+03  0.41965231619E+03  0.00000000000E+00 0.  1.
   -9000007    1    1    2    0  502  0.13780307127E+03 -0.24628381039E+03  0.12398150640E+03  0.50499189661E+03  0.40000000000E+03 0.  1.
<mgrwt>
<rscale>  2 0.49043039E+03</rscale>
<asrwt>0</asrwt>
<pdfrwt beam="1">  1       21 0.64657533E-01 0.49072892E+03</pdfrwt>
<pdfrwt beam="2">  1       21 0.11686261E+00 0.49072892E+03</pdfrwt>
<totfact> 0.10393331E+03</totfact>
</mgrwt>
</event>
<event>
 6    1  0.9399121E-004  0.4726671E+03  0.7818608E-02  0.1021275E+00
         21   -1    0    0  503  502  0.00000000000E+00  0.00000000000E+00  0.61960174632E+03  0.61960174632E+03  0.00000000000E+00 0. -1.
         21   -1    0    0  501  503 -0.00000000000E+00 -0.00000000000E+00 -0.38725172531E+03  0.38725172531E+03  0.00000000000E+00 0.  1.
    9000007    2    1    2  501    0  0.37560487422E+02 -0.24615115420E+03 -0.18576612198E+02  0.47303200692E+03  0.40176237769E+03 0.  0.
    9000005    1    3    3    0    0 -0.82480445620E+02 -0.21477103936E+03  0.14180608355E+03  0.27025837375E+03  0.99999687468E+00 0.  0.
          4    1    3    3  501    0  0.12004093304E+03 -0.31380114840E+02 -0.16038269575E+03  0.20277363317E+03  0.00000000000E+00 0.  1.
   -9000007    1    1    2    0  502 -0.37560487422E+02  0.24615115420E+03  0.25092663320E+03  0.53382146470E+03  0.40000000000E+03 0. -1.
<mgrwt>
<rscale>  2 0.47229238E+03</rscale>
<asrwt>0</asrwt>
<pdfrwt beam="1">  1       21 0.95323345E-01 0.47266710E+03</pdfrwt>
<pdfrwt beam="2">  1       21 0.59577189E-01 0.47266710E+03</pdfrwt>
<totfact> 0.20706237E+03</totfact>
</mgrwt>
</event>
<event>
 6    1  0.9399121E-004  0.1022759E+04  0.7818608E-02  0.9284086E-01
         21   -1    0    0  503  502  0.00000000000E+00  0.00000000000E+00  0.33994438456E+04  0.33994438456E+04  0.00000000000E+00 0.  1.
         21   -1    0    0  501  503 -0.00000000000E+00 -0.00000000000E+00 -0.32542300990E+03  0.32542300990E+03  0.00000000000E+00 0. -1.
    9000007    2    1    2  501    0 -0.92731090954E+03  0.16164933269E+03  0.10998992466E+04  0.15015378024E+04  0.39849892063E+03 0.  0.
    9000005    1    3    3    0    0 -0.62124566164E+03 -0.11449268405E+02  0.46612758146E+03  0.77675812196E+03  0.99999687468E+00 0.  0.
          4    1    3    3  501    0 -0.30606524790E+03  0.17309860110E+03  0.63377166515E+03  0.72477968047E+03  0.00000000000E+00 0.  1.
   -9000007    1    1    2    0  502  0.92731090954E+03 -0.16164933269E+03  0.19741215890E+04  0.22233290530E+04  0.40000000000E+03 0.  1.
<mgrwt>
<rscale>  2 0.10226125E+04</rscale>
<asrwt>0</asrwt>
<pdfrwt beam="1">  1       21 0.52299133E+00 0.10227590E+04</pdfrwt>
<pdfrwt beam="2">  1       21 0.50065081E-01 0.10227590E+04</pdfrwt>
<totfact> 0.25866921E+00</totfact>
</mgrwt>
</event>
<event>
 6    1  0.9399121E-004  0.6695079E+03  0.7818608E-02  0.9770942E-01
         21   -1    0    0  503  502  0.00000000000E+00  0.00000000000E+00  0.36471964184E+03  0.36471964184E+03  0.00000000000E+00 0. -1.
         21   -1    0    0  501  503 -0.00000000000E+00 -0.00000000000E+00 -0.15487390140E+04  0.15487390140E+04  0.00000000000E+00 0. -1.
    9000007    2    1    2  501    0  0.31079123852E+02 -0.53598038015E+03 -0.10269044167E+04  0.12257625100E+04  0.39965005945E+03 0.  0.
    9000005    1    3    3    0    0  0.14504695613E+03 -0.53365048470E+03 -0.81081358495E+03  0.98144848507E+03  0.99999687468E+00 0.  0.
          4    1    3    3  501    0 -0.11396783228E+03 -0.23298954435E+01 -0.21609083174E+03  0.24431402492E+03  0.00000000000E+00 0.  1.
   -9000007    1    1    2    0  502 -0.31079123852E+02  0.53598038015E+03 -0.15711495551E+03  0.68769614590E+03  0.40000000000E+03 0. -1.
<mgrwt>
<rscale>  2 0.66945568E+03</rscale>
<asrwt>0</asrwt>
<pdfrwt beam="1">  1       21 0.56110714E-01 0.66950794E+03</pdfrwt>
<pdfrwt beam="2">  1       21 0.23826754E+00 0.66950794E+03</pdfrwt>
<totfact> 0.16849065E+02</totfact>
</mgrwt>
</event>
<event>
 6    1  0.9399121E-004  0.4310257E+03  0.7818608E-02  0.1033560E+00
         21   -1    0    0  503  502  0.00000000000E+00  0.00000000000E+00  0.15604129745E+03  0.15604129745E+03  0.00000000000E+00 0.  1.
         21   -1    0    0  501  503 -0.00000000000E+00 -0.00000000000E+00 -0.17628842635E+04  0.17628842635E+04  0.00000000000E+00 0.  1.
    9000007    2    1    2  501    0  0.28599123592E+02 -0.15800401114E+03 -0.13502907693E+04  0.14173259128E+04  0.39968037718E+03 0.  0.
    9000005    1    3    3    0    0 -0.96221210858E+02 -0.32358087865E+02 -0.66468776667E+02  0.12134523285E+03  0.99999687468E+00 0.  0.
          4    1    3    3  501    0  0.12482033445E+03 -0.12564592327E+03 -0.12838219926E+04  0.12959806799E+04  0.00000000000E+00 0.  1.
   -9000007    1    1    2    0  502 -0.28599123592E+02  0.15800401114E+03 -0.25655219675E+03  0.50159964819E+03  0.40000000000E+03 0.  1.
<mgrwt>
<rscale>  2 0.43095156E+03</rscale>
<asrwt>0</asrwt>
<pdfrwt beam="1">  1       21 0.24006353E-01 0.43102573E+03</pdfrwt>
<pdfrwt beam="2">  1       21 0.27121297E+00 0.43102573E+03</pdfrwt>
<totfact> 0.66917858E+02</totfact>
</mgrwt>
</event>
<event>
 6    1  0.9399121E-004  0.4611341E+03  0.7818608E-02  0.1024466E+00
         21   -1    0    0  503  502  0.00000000000E+00  0.00000000000E+00  0.29482852269E+03  0.29482852269E+03  0.00000000000E+00 0.  1.
         21   -1    0    0  501  503 -0.00000000000E+00 -0.00000000000E+00 -0.97873607336E+03  0.97873607336E+03  0.00000000000E+00 0.  1.
    9000007    2    1    2  501    0 -0.21667853424E+03  0.74312603854E+02 -0.66880572088E+03  0.81237047688E+03  0.40021587816E+03 0.  0.
    9000005    1    3    3    0    0  0.11852931924E+03  0.40799147266E+01 -0.17697022249E+03  0.21303827090E+03  0.99999687468E+00 0.  0.
          4    1    3    3  501    0 -0.33520785348E+03  0.70232689128E+02 -0.49183549839E+03  0.59933220599E+03  0.00000000000E+00 0.  1.
   -9000007    1    1    2    0  502  0.21667853424E+03 -0.74312603854E+02 -0.15101829782E+02  0.46119411917E+03  0.40000000000E+03 0.  1.
<mgrwt>
<rscale>  2 0.46108730E+03</rscale>
<asrwt>0</asrwt>
<pdfrwt beam="1">  1       21 0.45358234E-01 0.46113414E+03</pdfrwt>
<pdfrwt beam="2">  1       21 0.15057478E+00 0.46113414E+03</pdfrwt>
<totfact> 0.11632686E+03</totfact>
</mgrwt>
</event>
<event>
 6    1  0.9399121E-004  0.5097893E+03  0.7818608E-02  0.1011277E+00
         21   -1    0    0  503  502  0.00000000000E+00  0.00000000000E+00  0.23280385607E+03  0.23280385607E+03  0.00000000000E+00 0.  1.
         21   -1    0    0  501  503 -0.00000000000E+00 -0.00000000000E+00 -0.11278284845E+04  0.11278284845E+04  0.00000000000E+00 0.  1.
    9000007    2    1    2  501    0 -0.21744512001E+03 -0.22859322819E+03 -0.51856003054E+03  0.72717923444E+03  0.40043462578E+03 0.  0.
    9000005    1    3    3    0    0 -0.57491997999E+02  0.30947063898E+02  0.49862006169E+02  0.82160028304E+02  0.99999687468E+00 0.  0.
          4    1    3    3  501    0 -0.15995312201E+03 -0.25954029209E+03 -0.56842203671E+03  0.64501920613E+03  0.00000000000E+00 0.  1.
   -9000007    1    1    2    0  502  0.21744512001E+03  0.22859322819E+03 -0.37646459787E+03  0.63345310611E+03  0.40000000000E+03 0.  1.
<mgrwt>
<rscale>  2 0.50970395E+03</rscale>
<asrwt>0</asrwt>
<pdfrwt beam="1">  1       21 0.35815978E-01 0.50978930E+03</pdfrwt>
<pdfrwt beam="2">  1       21 0.17351208E+00 0.50978930E+03</pdfrwt>
<totfact> 0.12494309E+03</totfact>
</mgrwt>
</event>
<event>
 6    1  0.9399121E-004  0.4961119E+03  0.7818608E-02  0.1014806E+00
         21   -1    0    0  503  502  0.00000000000E+00  0.00000000000E+00  0.40591837307E+03  0.40591837307E+03  0.00000000000E+00 0.  1.
         21   -1    0    0  501  503 -0.00000000000E+00 -0.00000000000E+00 -0.72144030601E+03  0.72144030601E+03  0.00000000000E+00 0. -1.
    9000007    2    1    2  501    0  0.24807066454E+03  0.15680554207E+03 -0.38302354428E+03  0.62667564546E+03  0.39986034626E+03 0.  0.
    9000005    1    3    3    0    0  0.34173493172E+03  0.12882813375E+03 -0.19321457487E+03  0.41317347874E+03  0.99999687468E+00 0.  0.
          4    1    3    3  501    0 -0.93664267185E+02  0.27977408320E+02 -0.18980896941E+03  0.21350216672E+03  0.00000000000E+00 0.  1.
   -9000007    1    1    2    0  502 -0.24807066454E+03 -0.15680554207E+03  0.67501611337E+02  0.50068303362E+03  0.40000000000E+03 0.  1.
<mgrwt>
<rscale>  2 0.49608377E+03</rscale>
<asrwt>0</asrwt>
<pdfrwt beam="1">  1       21 0.62448981E-01 0.49611192E+03</pdfrwt>
<pdfrwt beam="2">  1       21 0.11099082E+00 0.49611192E+03</pdfrwt>
<totfact> 0.12746961E+03</totfact>
</mgrwt>
</event>
<event>
 6    1  0.9399121E-004  0.4506264E+03  0.7818608E-02  0.1027543E+00
         21   -1    0    0  503  502  0.00000000000E+00  0.00000000000E+00  0.93468457139E+03  0.93468457139E+03  0.00000000000E+00 0. -1.
         21   -1    0    0  501  503 -0.00000000000E+00 -0.00000000000E+00 -0.65429544959E+03  0.65429544959E+03  0.00000000000E+00 0. -1.
    9000007    2    1    2  501    0 -0.54904107288E+02 -0.20012421046E+03 -0.50917563875E+03  0.67987239715E+03  0.39987808730E+03 0.  0.
    9000005    1    3    3    0    0 -0.17640438405E+03  0.23865690975E+02 -0.30581087999E+03  0.35384936376E+03  0.99999687468E+00 0.  0.
          4    1    3    3  501    0  0.12150027676E+03 -0.22398990143E+03 -0.20336475876E+03  0.32602303339E+03  0.00000000000E+00 0.  1.
   -9000007    1    1    2    0  502  0.54904107288E+02  0.20012421046E+03  0.78956476055E+03  0.90910762384E+03  0.40000000000E+03 0. -1.
<mgrwt>
<rscale>  2 0.45059935E+03</rscale>
<asrwt>0</asrwt>
<pdfrwt beam="1">  1       21 0.14379763E+00 0.45062641E+03</pdfrwt>
<pdfrwt beam="2">  1       21 0.10066084E+00 0.45062641E+03</pdfrwt>
<totfact> 0.22083558E+02</totfact>
</mgrwt>
</event>
<event>
 6    1  0.9399121E-004  0.4415184E+03  0.7818608E-02  0.1030357E+00
         21   -1    0    0  503  502  0.00000000000E+00  0.00000000000E+00  0.34774841757E+03  0.34774841757E+03  0.00000000000E+00 0. -1.
         21   -1    0    0  501  503 -0.00000000000E+00 -0.00000000000E+00 -0.72897314622E+03  0.72897314622E+03  0.00000000000E+00 0. -1.
    9000007    2    1    2  501    0  0.17526740344E+03  0.57867956205E+02 -0.45049186588E+03  0.63077840669E+03  0.40108741448E+03 0.  0.
    9000005    1    3    3    0    0  0.30303718388E+03  0.44372891107E+02 -0.36490938692E+03  0.47640355680E+03  0.99999687468E+00 0.  0.
          4    1    3    3  501    0 -0.12776978043E+03  0.13495065098E+02 -0.85582478968E+02  0.15437484989E+03  0.00000000000E+00 0.  1.
   -9000007    1    1    2    0  502 -0.17526740344E+03 -0.57867956205E+02  0.69267137233E+02  0.44594315710E+03  0.40000000000E+03 0. -1.
<mgrwt>
<rscale>  2 0.44127127E+03</rscale>
<asrwt>0</asrwt>
<pdfrwt beam="1">  1       21 0.53499757E-01 0.44151838E+03</pdfrwt>
<pdfrwt beam="2">  1       21 0.11214971E+00 0.44151838E+03</pdfrwt>
<totfact> 0.17766223E+03</totfact>
</mgrwt>
</event>
<event>
 6    1  0.9399121E-004  0.4795608E+03  0.7818608E-02  0.1019273E+00
         21   -1    0    0  503  502  0.00000000000E+00  0.00000000000E+00  0.29412986176E+04  0.29412986176E+04  0.00000000000E+00 0.  1.
         21   -1    0    0  501  503 -0.00000000000E+00 -0.00000000000E+00 -0.15206564113E+03  0.15206564113E+03  0.00000000000E+00 0. -1.
    9000007    2    1    2  501    0 -0.25778391174E+03 -0.59380078770E+02  0.31609091103E+03  0.57415600715E+03  0.39970378734E+03 0.  0.
    9000005    1    3    3    0    0 -0.99957371652E+02 -0.21173987586E+03  0.25551962389E+03  0.34657831635E+03  0.99999687468E+00 0.  0.
          4    1    3    3  501    0 -0.15782654009E+03  0.15235979709E+03  0.60571287134E+02  0.22757769080E+03  0.00000000000E+00 0.  1.
   -9000007    1    1    2    0  502  0.25778391174E+03  0.59380078770E+02  0.24731420654E+04  0.25192082516E+04  0.40000000000E+03 0.  1.
<mgrwt>
<rscale>  2 0.47949900E+03</rscale>
<asrwt>0</asrwt>
<pdfrwt beam="1">  1       21 0.45250744E+00 0.47956078E+03</pdfrwt>
<pdfrwt beam="2">  1       21 0.23394716E-01 0.47956078E+03</pdfrwt>
<totfact> 0.49820193E+01</totfact>
</mgrwt>
</event>
<event>
 6    1  0.9399121E-004  0.4378980E+03  0.7818608E-02  0.1031483E+00
         21   -1    0    0  503  502  0.00000000000E+00  0.00000000000E+00  0.88413828049E+03  0.88413828049E+03  0.00000000000E+00 0.  1.
         21   -1    0    0  501  503 -0.00000000000E+00 -0.00000000000E+00 -0.39320215719E+03  0.39320215719E+03  0.00000000000E+00 0.  1.
    9000007    2    1    2  501    0  0.13202672323E+03 -0.11968136776E+03 -0.18308138880E+03  0.47356541191E+03  0.39873640290E+03 0.  0.
    9000005    1    3    3    0    0 -0.14357215533E+03 -0.28601921384E+02 -0.65891457469E+02  0.16054195045E+03  0.99999687468E+00 0.  0.
          4    1    3    3  501    0  0.27559887857E+03 -0.91079446381E+02 -0.11718993133E+03  0.31302346146E+03  0.00000000000E+00 0.  1.
   -9000007    1    1    2    0  502 -0.13202672323E+03  0.11968136776E+03  0.67401751210E+03  0.80377502577E+03  0.40000000000E+03 0.  1.
<mgrwt>
<rscale>  2 0.43760926E+03</rscale>
<asrwt>0</asrwt>
<pdfrwt beam="1">  1       21 0.13602127E+00 0.43789803E+03</pdfrwt>
<pdfrwt beam="2">  1       21 0.60492640E-01 0.43789803E+03</pdfrwt>
<totfact> 0.83210093E+02</totfact>
</mgrwt>
</event>
<event>
 6    1  0.9399121E-004  0.4761056E+03  0.7818608E-02  0.1020258E+00
         21   -1    0    0  503  502  0.00000000000E+00  0.00000000000E+00  0.21058735950E+03  0.21058735950E+03  0.00000000000E+00 0. -1.
         21   -1    0    0  501  503 -0.00000000000E+00 -0.00000000000E+00 -0.10753525614E+04  0.10753525614E+04  0.00000000000E+00 0. -1.
    9000007    2    1    2  501    0 -0.23124470105E+02  0.25718049444E+03 -0.41863030119E+03  0.63347314206E+03  0.39919963026E+03 0.  0.
    9000005    1    3    3    0    0  0.14173243611E+03 -0.23613099354E+02 -0.17710413433E+03  0.22806257101E+03  0.99999687468E+00 0.  0.
          4    1    3    3  501    0 -0.16485690621E+03  0.28079359379E+03 -0.24152616686E+03  0.40541057105E+03  0.00000000000E+00 0.  1.
   -9000007    1    1    2    0  502  0.23124470105E+02 -0.25718049444E+03 -0.44613490068E+03  0.65246677880E+03  0.40000000000E+03 0. -1.
<mgrwt>
<rscale>  2 0.47593746E+03</rscale>
<asrwt>0</asrwt>
<pdfrwt beam="1">  1       21 0.32398055E-01 0.47610561E+03</pdfrwt>
<pdfrwt beam="2">  1       21 0.16543886E+00 0.47610561E+03</pdfrwt>
<totfact> 0.17756723E+03</totfact>
</mgrwt>
</event>
<event>
 6    1  0.9399121E-004  0.5245976E+03  0.7818608E-02  0.1007558E+00
         21   -1    0    0  503  502  0.00000000000E+00  0.00000000000E+00  0.85612572072E+03  0.85612572072E+03  0.00000000000E+00 0. -1.
         21   -1    0    0  501  503 -0.00000000000E+00 -0.00000000000E+00 -0.33696007192E+03  0.33696007192E+03  0.00000000000E+00 0. -1.
    9000007    2    1    2  501    0 -0.25299525084E+03 -0.22626545614E+03  0.13127405310E+03  0.54065760226E+03  0.39984385986E+03 0.  0.
    9000005    1    3    3    0    0  0.67054272578E+02 -0.19067058075E+03  0.41227784291E+02  0.20628203030E+03  0.99999687468E+00 0.  0.
          4    1    3    3  501    0 -0.32004952341E+03 -0.35594875391E+02  0.90046268813E+02  0.33437557195E+03  0.00000000000E+00 0.  1.
   -9000007    1    1    2    0  502  0.25299525084E+03  0.22626545614E+03  0.38789159570E+03  0.65242819038E+03  0.40000000000E+03 0. -1.
<mgrwt>
<rscale>  2 0.52456785E+03</rscale>
<asrwt>0</asrwt>
<pdfrwt beam="1">  1       21 0.13171165E+00 0.52459761E+03</pdfrwt>
<pdfrwt beam="2">  1       21 0.51840011E-01 0.52459761E+03</pdfrwt>
<totfact> 0.12227919E+03</totfact>
</mgrwt>
</event>
<event>
 6    1  0.9399121E-004  0.5422897E+03  0.7818608E-02  0.1003456E+00
         21   -1    0    0  503  502  0.00000000000E+00  0.00000000000E+00  0.48259961145E+03  0.48259961145E+03  0.00000000000E+00 0.  1.
         21   -1    0    0  501  503 -0.00000000000E+00 -0.00000000000E+00 -0.21657661316E+04  0.21657661316E+04  0.00000000000E+00 0.  1.
    9000007    2    1    2  501    0 -0.16326138870E+03  0.32775575043E+03  0.28265788498E+03  0.60911497261E+03  0.39629213584E+03 0.  0.
    9000005    1    3    3    0    0 -0.93799851171E+02  0.21115181504E+03 -0.61554885765E+02  0.23910981793E+03  0.99999687468E+00 0.  0.
          4    1    3    3  501    0 -0.69461537532E+02  0.11660393539E+03  0.34421277074E+03  0.37000515468E+03  0.00000000000E+00 0.  1.
   -9000007    1    1    2    0  502  0.16326138870E+03 -0.32775575043E+03 -0.19658244051E+04  0.20392507704E+04  0.40000000000E+03 0.  1.
<mgrwt>
<rscale>  2 0.54160611E+03</rscale>
<asrwt>0</asrwt>
<pdfrwt beam="1">  1       21 0.74246093E-01 0.54228969E+03</pdfrwt>
<pdfrwt beam="2">  1       21 0.33319479E+00 0.54228969E+03</pdfrwt>
<totfact> 0.25003581E+01</totfact>
</mgrwt>
</event>
<event>
 6    1  0.9399121E-004  0.4382536E+03  0.7818608E-02  0.1031344E+00
         21   -1    0    0  503  502  0.00000000000E+00  0.00000000000E+00  0.80789539509E+03  0.80789539509E+03  0.00000000000E+00 0.  1.
         21   -1    0    0  501  503 -0.00000000000E+00 -0.00000000000E+00 -0.31815032384E+03  0.31815032384E+03  0.00000000000E+00 0.  1.
    9000007    2    1    2  501    0  0.33660427741E+02  0.17394448404E+03 -0.38760389828E+02  0.43996428768E+03  0.40084473140E+03 0.  0.
    9000005    1    3    3    0    0 -0.10291886043E+03  0.22532177807E+03  0.70633678298E+02  0.25758942527E+03  0.99999687468E+00 0.  0.
          4    1    3    3  501    0  0.13657928817E+03 -0.51377294027E+02 -0.10939406813E+03  0.18237486241E+03  0.00000000000E+00 0.  1.
   -9000007    1    1    2    0  502 -0.33660427741E+02 -0.17394448404E+03  0.52850546107E+03  0.68608143125E+03  0.40000000000E+03 0.  1.
<mgrwt>
<rscale>  2 0.43806034E+03</rscale>
<asrwt>0</asrwt>
<pdfrwt beam="1">  1       21 0.12429160E+00 0.43825359E+03</pdfrwt>
<pdfrwt beam="2">  1       21 0.48946204E-01 0.43825359E+03</pdfrwt>
<totfact> 0.16590758E+03</totfact>
</mgrwt>
</event>
<event>
 6    1  0.9399121E-004  0.4578493E+03  0.7818608E-02  0.1025431E+00
         21   -1    0    0  503  502  0.00000000000E+00  0.00000000000E+00  0.88712010825E+03  0.88712010825E+03  0.00000000000E+00 0. -1.
         21   -1    0    0  501  503 -0.00000000000E+00 -0.00000000000E+00 -0.27171953073E+03  0.27171953073E+03  0.00000000000E+00 0. -1.
    9000007    2    1    2  501    0 -0.12827408101E+03 -0.18213098653E+03  0.97906151105E+02  0.46787913541E+03  0.39962399180E+03 0.  0.
    9000005    1    3    3    0    0 -0.20100835352E+03 -0.24573250001E+02 -0.81486045946E+02  0.21828691779E+03  0.99999687468E+00 0.  0.
          4    1    3    3  501    0  0.72734272509E+02 -0.15755773653E+03  0.17939219705E+03  0.24959221763E+03  0.00000000000E+00 0.  1.
   -9000007    1    1    2    0  502  0.12827408101E+03  0.18213098653E+03  0.51749442642E+03  0.69096050356E+03  0.40000000000E+03 0. -1.
<mgrwt>
<rscale>  2 0.45776711E+03</rscale>
<asrwt>0</asrwt>
<pdfrwt beam="1">  1       21 0.13648001E+00 0.45784925E+03</pdfrwt>
<pdfrwt beam="2">  1       21 0.41803005E-01 0.45784925E+03</pdfrwt>
<totfact> 0.17974807E+03</totfact>
</mgrwt>
</event>
<event>
 6    1  0.9399121E-004  0.4231210E+03  0.7818608E-02  0.1036262E+00
         21   -1    0    0  503  502  0.00000000000E+00  0.00000000000E+00  0.53141956275E+03  0.53141956275E+03  0.00000000000E+00 0. -1.
         21   -1    0    0  501  503 -0.00000000000E+00 -0.00000000000E+00 -0.34144051763E+03  0.34144051763E+03  0.00000000000E+00 0.  1.
    9000007    2    1    2  501    0 -0.69349504858E+02  0.11925623483E+03  0.34102537850E+02  0.42194003326E+03  0.39728957350E+03 0.  0.
    9000005    1    3    3    0    0 -0.65493284421E+02 -0.53736179656E+02  0.17784125055E+03  0.19699100918E+03  0.99999687468E+00 0.  0.
          4    1    3    3  501    0 -0.38562204370E+01  0.17299241449E+03 -0.14373871270E+03  0.22494902408E+03  0.00000000000E+00 0.  1.
   -9000007    1    1    2    0  502  0.69349504858E+02 -0.11925623483E+03  0.15587650727E+03  0.45092004711E+03  0.40000000000E+03 0. -1.
<mgrwt>
<rscale>  2 0.42247922E+03</rscale>
<asrwt>0</asrwt>
<pdfrwt beam="1">  1       21 0.81756856E-01 0.42312103E+03</pdfrwt>
<pdfrwt beam="2">  1       21 0.52529310E-01 0.42312103E+03</pdfrwt>
<totfact> 0.39764285E+03</totfact>
</mgrwt>
</event>
<event>
 6    1  0.9399121E-004  0.5494477E+03  0.7818608E-02  0.1001628E+00
         21   -1    0    0  503  502  0.00000000000E+00  0.00000000000E+00  0.31230150712E+03  0.31230150712E+03  0.00000000000E+00 0.  1.
         21   -1    0    0  501  503 -0.00000000000E+00 -0.00000000000E+00 -0.97386533861E+03  0.97386533861E+03  0.00000000000E+00 0.  1.
    9000007    2    1    2  501    0 -0.24563268492E+02 -0.37588488080E+03 -0.38669845912E+03  0.67180231982E+03  0.39986230237E+03 0.  0.
    9000005    1    3    3    0    0 -0.20844619788E+03 -0.24353695202E+03 -0.19654545876E+03  0.37602018797E+03  0.99999687468E+00 0.  0.
          4    1    3    3  501    0  0.18388292939E+03 -0.13234792878E+03 -0.19015300036E+03  0.29578213185E+03  0.00000000000E+00 0.  1.
   -9000007    1    1    2    0  502  0.24563268492E+02  0.37588488080E+03 -0.27486537237E+03  0.61436452591E+03  0.40000000000E+03 0.  1.
<mgrwt>
<rscale>  2 0.54942266E+03</rscale>
<asrwt>0</asrwt>
<pdfrwt beam="1">  1       21 0.48046386E-01 0.54944772E+03</pdfrwt>
<pdfrwt beam="2">  1       21 0.14982543E+00 0.54944772E+03</pdfrwt>
<totfact> 0.10101106E+03</totfact>
</mgrwt>
</event>
<event>
 6    1  0.9399121E-004  0.4698151E+03  0.7818608E-02  0.1021981E+00
         21   -1    0    0  503  502  0.00000000000E+00  0.00000000000E+00  0.47037262240E+03  0.47037262240E+03  0.00000000000E+00 0.  1.
         21   -1    0    0  501  503 -0.00000000000E+00 -0.00000000000E+00 -0.93193595822E+03  0.93193595822E+03  0.00000000000E+00 0.  1.
    9000007    2    1    2  501    0  0.23319309320E+03  0.78929358666E+02 -0.72490114911E+03  0.86383326430E+03  0.40014668580E+03 0.  0.
    9000005    1    3    3    0    0 -0.70597742893E+02  0.58921506499E+01  0.38206729983E+01  0.70953197791E+02  0.99999687468E+00 0.  0.
          4    1    3    3  501    0  0.30379083610E+03  0.73037208017E+02 -0.72872182211E+03  0.79288006651E+03  0.00000000000E+00 0.  1.
   -9000007    1    1    2    0  502 -0.23319309320E+03 -0.78929358666E+02  0.26333781329E+03  0.53847531632E+03  0.40000000000E+03 0.  1.
<mgrwt>
<rscale>  2 0.46978387E+03</rscale>
<asrwt>0</asrwt>
<pdfrwt beam="1">  1       21 0.72365019E-01 0.46981510E+03</pdfrwt>
<pdfrwt beam="2">  1       21 0.14337476E+00 0.46981510E+03</pdfrwt>
<totfact> 0.47824957E+02</totfact>
</mgrwt>
</event>
<event>
 6    1  0.9399121E-004  0.4294479E+03  0.7818608E-02  0.1034338E+00
         21   -1    0    0  503  502  0.00000000000E+00  0.00000000000E+00  0.14849871066E+04  0.14849871066E+04  0.00000000000E+00 0.  1.
         21   -1    0    0  501  503 -0.00000000000E+00 -0.00000000000E+00 -0.75639046066E+03  0.75639046066E+03  0.00000000000E+00 0.  1.
    9000007    2    1    2  501    0  0.52924533005E+01 -0.15619689729E+03 -0.66141937159E+03  0.78653392969E+03  0.39589715414E+03 0.  0.
    9000005    1    3    3    0    0  0.12337335321E+03  0.84390051741E+02 -0.16682462819E+03  0.22399580728E+03  0.99999687468E+00 0.  0.
          4    1    3    3  501    0 -0.11808089991E+03 -0.24058694903E+03 -0.49459474340E+03  0.56253812241E+03  0.00000000000E+00 0.  1.
   -9000007    1    1    2    0  502 -0.52924533005E+01  0.15619689729E+03  0.13900160175E+04  0.14548436375E+04  0.40000000000E+03 0.  1.
<mgrwt>
<rscale>  2 0.42848996E+03</rscale>
<asrwt>0</asrwt>
<pdfrwt beam="1">  1       21 0.22845955E+00 0.42944788E+03</pdfrwt>
<pdfrwt beam="2">  1       21 0.11636776E+00 0.42944788E+03</pdfrwt>
<totfact> 0.39887247E+01</totfact>
</mgrwt>
</event>
<event>
 6    1  0.9399121E-004  0.4669825E+03  0.7818608E-02  0.1023365E+00
         21   -1    0    0  503  502  0.00000000000E+00  0.00000000000E+00  0.55765533837E+03  0.55765533837E+03  0.00000000000E+00 0. -1.
         21   -1    0    0  501  503 -0.00000000000E+00 -0.00000000000E+00 -0.47035851022E+03  0.47035851022E+03  0.00000000000E+00 0.  1.
    9000007    2    1    2  501    0  0.22428789667E+03  0.13012075073E+02 -0.17600620116E+03  0.49904989904E+03  0.40938764539E+03 0.  0.
    9000005    1    3    3    0    0 -0.97211669986E+01  0.17680807430E+03 -0.10046048897E+03  0.20359004411E+03  0.99999687468E+00 0.  0.
          4    1    3    3  501    0  0.23400906366E+03 -0.16379599923E+03 -0.75545712192E+02  0.29545985492E+03  0.00000000000E+00 0.  1.
   -9000007    1    1    2    0  502 -0.22428789667E+03 -0.13012075073E+02  0.26330302931E+03  0.52896394956E+03  0.40000000000E+03 0. -1.
<mgrwt>
<rscale>  2 0.46491690E+03</rscale>
<asrwt>0</asrwt>
<pdfrwt beam="1">  1       21 0.85793129E-01 0.46698246E+03</pdfrwt>
<pdfrwt beam="2">  1       21 0.72362847E-01 0.46698246E+03</pdfrwt>
<totfact> 0.17274282E+03</totfact>
</mgrwt>
</event>
<event>
 6    1  0.9399121E-004  0.4098097E+03  0.7818608E-02  0.1040490E+00
         21   -1    0    0  503  502  0.00000000000E+00  0.00000000000E+00  0.42013139177E+03  0.42013139177E+03  0.00000000000E+00 0. -1.
         21   -1    0    0  501  503 -0.00000000000E+00 -0.00000000000E+00 -0.43265697558E+03  0.43265697558E+03  0.00000000000E+00 0. -1.
    9000007    2    1    2  501    0  0.88744037566E+02  0.82756775919E+01 -0.12499567877E+03  0.42782541213E+03  0.39933278417E+03 0.  0.
    9000005    1    3    3    0    0  0.20052218147E+03  0.10395126698E+03  0.12816865856E+02  0.22623059743E+03  0.99999687468E+00 0.  0.
          4    1    3    3  501    0 -0.11177814390E+03 -0.95675589391E+02 -0.13781254462E+03  0.20159481470E+03  0.00000000000E+00 0.  1.
   -9000007    1    1    2    0  502 -0.88744037566E+02 -0.82756775919E+01  0.11247009496E+03  0.42496295521E+03  0.40000000000E+03 0. -1.
<mgrwt>
<rscale>  2 0.40964680E+03</rscale>
<asrwt>0</asrwt>
<pdfrwt beam="1">  1       21 0.64635599E-01 0.40980970E+03</pdfrwt>
<pdfrwt beam="2">  1       21 0.66562611E-01 0.40980970E+03</pdfrwt>
<totfact> 0.40575480E+03</totfact>
</mgrwt>
</event>
<event>
 6    1  0.9399121E-004  0.4117136E+03  0.7818608E-02  0.1039825E+00
         21   -1    0    0  503  502  0.00000000000E+00  0.00000000000E+00  0.63428800384E+03  0.63428800384E+03  0.00000000000E+00 0. -1.
         21   -1    0    0  501  503 -0.00000000000E+00 -0.00000000000E+00 -0.44055413574E+03  0.44055413574E+03  0.00000000000E+00 0.  1.
    9000007    2    1    2  501    0 -0.83409531220E+02 -0.50507038206E+02 -0.24043843217E+03  0.47649968151E+03  0.39966635586E+03 0.  0.
    9000005    1    3    3    0    0 -0.60678503327E+02 -0.22562968149E+03 -0.15447009893E+03  0.28009399386E+03  0.99999687468E+00 0.  0.
          4    1    3    3  501    0 -0.22731027893E+02  0.17512264329E+03 -0.85968333242E+02  0.19640568765E+03  0.00000000000E+00 0.  1.
   -9000007    1    1    2    0  502  0.83409531220E+02  0.50507038206E+02  0.43417230027E+03  0.59834245807E+03  0.40000000000E+03 0. -1.
<mgrwt>
<rscale>  2 0.41163257E+03</rscale>
<asrwt>0</asrwt>
<pdfrwt beam="1">  1       21 0.97582770E-01 0.41171363E+03</pdfrwt>
<pdfrwt beam="2">  1       21 0.67777559E-01 0.41171363E+03</pdfrwt>
<totfact> 0.15067911E+03</totfact>
</mgrwt>
</event>
<event>
 6    1  0.9399121E-004  0.7971333E+03  0.7818608E-02  0.9564457E-01
         21   -1    0    0  503  502  0.00000000000E+00  0.00000000000E+00  0.73530581932E+03  0.73530581932E+03  0.00000000000E+00 0. -1.
         21   -1    0    0  501  503 -0.00000000000E+00 -0.00000000000E+00 -0.94882570155E+03  0.94882570155E+03  0.00000000000E+00 0. -1.
    9000007    2    1    2  501    0 -0.32488977840E+03 -0.60816789639E+03  0.14607121464E+03  0.80964463403E+03  0.39845460891E+03 0.  0.
    9000005    1    3    3    0    0 -0.32178278433E+03 -0.61923347474E+03  0.35791594271E+02  0.69876769727E+03  0.99999687468E+00 0.  0.
          4    1    3    3  501    0 -0.31069940684E+01  0.11065578350E+02  0.11027962037E+03  0.11087693676E+03  0.00000000000E+00 0.  1.
   -9000007    1    1    2    0  502  0.32488977840E+03  0.60816789639E+03 -0.35959109688E+03  0.87448688684E+03  0.40000000000E+03 0. -1.
<mgrwt>
<rscale>  2 0.79693968E+03</rscale>
<asrwt>0</asrwt>
<pdfrwt beam="1">  1       21 0.11312397E+00 0.79713334E+03</pdfrwt>
<pdfrwt beam="2">  1       21 0.14597318E+00 0.79713334E+03</pdfrwt>
<totfact> 0.13932658E+02</totfact>
</mgrwt>
</event>
<event>
 6    1  0.9399121E-004  0.4219048E+03  0.7818608E-02  0.1036453E+00
         21   -1    0    0  503  502  0.00000000000E+00  0.00000000000E+00  0.40518154095E+03  0.40518154095E+03  0.00000000000E+00 0. -1.
         21   -1    0    0  501  503 -0.00000000000E+00 -0.00000000000E+00 -0.46239743684E+03  0.46239743684E+03  0.00000000000E+00 0.  1.
    9000007    2    1    2  501    0 -0.48375901074E+02 -0.12515346881E+03  0.68449182126E+02  0.42735706739E+03  0.39993143657E+03 0.  0.
    9000005    1    3    3    0    0 -0.19473388048E+03  0.37630384915E+02  0.63993629329E+02  0.20840708881E+03  0.99999687468E+00 0.  0.
          4    1    3    3  501    0  0.14635797941E+03 -0.16278385372E+03  0.44555527972E+01  0.21894997858E+03  0.00000000000E+00 0.  1.
   -9000007    1    1    2    0  502  0.48375901074E+02  0.12515346881E+03 -0.12566507802E+03  0.44022191040E+03  0.40000000000E+03 0.  1.
<mgrwt>
<rscale>  2 0.42188850E+03</rscale>
<asrwt>0</asrwt>
<pdfrwt beam="1">  1       21 0.62335622E-01 0.42190475E+03</pdfrwt>
<pdfrwt beam="2">  1       21 0.71138067E-01 0.42190475E+03</pdfrwt>
<totfact> 0.37705153E+03</totfact>
</mgrwt>
</event>
<event>
 6    1  0.9399121E-004  0.4534615E+03  0.7818608E-02  0.1026711E+00
         21   -1    0    0  503  502  0.00000000000E+00  0.00000000000E+00  0.11150225699E+04  0.11150225699E+04  0.00000000000E+00 0.  1.
         21   -1    0    0  501  503 -0.00000000000E+00 -0.00000000000E+00 -0.50856984958E+03  0.50856984958E+03  0.00000000000E+00 0.  1.
    9000007    2    1    2  501    0  0.33831721568E+02  0.21090928536E+03 -0.34499925968E+03  0.56960561582E+03  0.39974836630E+03 0.  0.
    9000005    1    3    3    0    0  0.19558446187E+03  0.82435642191E+02 -0.65634279956E+02  0.22216609896E+03  0.99999687468E+00 0.  0.
          4    1    3    3  501    0 -0.16175274030E+03  0.12847364316E+03 -0.27936497972E+03  0.34743951686E+03  0.00000000000E+00 0.  1.
   -9000007    1    1    2    0  502 -0.33831721568E+02 -0.21090928536E+03  0.95145197995E+03  0.10539868036E+04  0.40000000000E+03 0.  1.
<mgrwt>
<rscale>  2 0.45340598E+03</rscale>
<asrwt>0</asrwt>
<pdfrwt beam="1">  1       21 0.17154193E+00 0.45346148E+03</pdfrwt>
<pdfrwt beam="2">  1       21 0.78241516E-01 0.45346148E+03</pdfrwt>
<totfact> 0.24551720E+02</totfact>
</mgrwt>
</event>
<event>
 6    1  0.9399121E-004  0.4148445E+03  0.7818608E-02  0.1038770E+00
         21   -1    0    0  503  502  0.00000000000E+00  0.00000000000E+00  0.95047158711E+03  0.95047158711E+03  0.00000000000E+00 0. -1.
         21   -1    0    0  501  503 -0.00000000000E+00 -0.00000000000E+00 -0.61436708151E+03  0.61436708151E+03  0.00000000000E+00 0. -1.
    9000007    2    1    2  501    0 -0.10126137370E+03 -0.41396673175E+02 -0.48907481063E+03  0.64131906715E+03  0.40016049923E+03 0.  0.
    9000005    1    3    3    0    0 -0.70821752472E+02 -0.21080459580E+03 -0.17427424633E+03  0.28253638909E+03  0.99999687468E+00 0.  0.
          4    1    3    3  501    0 -0.30439621230E+02  0.16940792262E+03 -0.31480056431E+03  0.35878267806E+03  0.00000000000E+00 0.  1.
   -9000007    1    1    2    0  502  0.10126137370E+03  0.41396673175E+02  0.82517931624E+03  0.92351960147E+03  0.40000000000E+03 0. -1.
<mgrwt>
<rscale>  2 0.41480581E+03</rscale>
<asrwt>0</asrwt>
<pdfrwt beam="1">  1       21 0.14622640E+00 0.41484452E+03</pdfrwt>
<pdfrwt beam="2">  1       21 0.94518012E-01 0.41484452E+03</pdfrwt>
<totfact> 0.25035199E+02</totfact>
</mgrwt>
</event>
<event>
 6    1  0.9399121E-004  0.4790973E+03  0.7818608E-02  0.1019415E+00
         21   -1    0    0  503  502  0.00000000000E+00  0.00000000000E+00  0.44522424916E+03  0.44522424916E+03  0.00000000000E+00 0.  1.
         21   -1    0    0  501  503 -0.00000000000E+00 -0.00000000000E+00 -0.71046887955E+03  0.71046887955E+03  0.00000000000E+00 0. -1.
    9000007    2    1    2  501    0  0.20581158754E+03 -0.16354050360E+03 -0.43571273930E+03  0.64759541956E+03  0.40053755176E+03 0.  0.
    9000005    1    3    3    0    0  0.29942353585E+03 -0.77925059139E+02 -0.16970042865E+03  0.35288242254E+03  0.99999687468E+00 0.  0.
          4    1    3    3  501    0 -0.93611948311E+02 -0.85615444457E+02 -0.26601231064E+03  0.29471299702E+03  0.00000000000E+00 0.  1.
   -9000007    1    1    2    0  502 -0.20581158754E+03  0.16354050360E+03  0.17046810891E+03  0.50809770914E+03  0.40000000000E+03 0.  1.
<mgrwt>
<rscale>  2 0.47898495E+03</rscale>
<asrwt>0</asrwt>
<pdfrwt beam="1">  1       21 0.68496039E-01 0.47909731E+03</pdfrwt>
<pdfrwt beam="2">  1       21 0.10930290E+00 0.47909731E+03</pdfrwt>
<totfact> 0.10846224E+03</totfact>
</mgrwt>
</event>
<event>
 6    1  0.9399121E-004  0.4658817E+03  0.7818608E-02  0.1023121E+00
         21   -1    0    0  503  502  0.00000000000E+00  0.00000000000E+00  0.31084324554E+03  0.31084324554E+03  0.00000000000E+00 0.  1.
         21   -1    0    0  501  503 -0.00000000000E+00 -0.00000000000E+00 -0.10426901430E+04  0.10426901430E+04  0.00000000000E+00 0. -1.
    9000007    2    1    2  501    0 -0.86394994677E+02 -0.22172260073E+03  0.23312726887E+02  0.46646458342E+03  0.40052555171E+03 0.  0.
    9000005    1    3    3    0    0 -0.47745602671E+02  0.37799825565E+02 -0.14326180896E+03  0.15567085561E+03  0.99999687468E+00 0.  0.
          4    1    3    3  501    0 -0.38649392006E+02 -0.25952242629E+03  0.16657453585E+03  0.31079372780E+03  0.00000000000E+00 0.  1.
   -9000007    1    1    2    0  502  0.86394994677E+02  0.22172260073E+03 -0.75515962431E+03  0.88706880509E+03  0.40000000000E+03 0. -1.
<mgrwt>
<rscale>  2 0.46576869E+03</rscale>
<asrwt>0</asrwt>
<pdfrwt beam="1">  1       21 0.47822038E-01 0.46588166E+03</pdfrwt>
<pdfrwt beam="2">  1       21 0.16041387E+00 0.46588166E+03</pdfrwt>
<totfact> 0.87229359E+02</totfact>
</mgrwt>
</event>
<event>
 6    1  0.9399121E-004  0.4119025E+03  0.7818608E-02  0.1039833E+00
         21   -1    0    0  503  502  0.00000000000E+00  0.00000000000E+00  0.18510426654E+03  0.18510426654E+03  0.00000000000E+00 0. -1.
         21   -1    0    0  501  503 -0.00000000000E+00 -0.00000000000E+00 -0.16167768834E+04  0.16167768834E+04  0.00000000000E+00 0. -1.
    9000007    2    1    2  501    0  0.82470990644E+02 -0.43487675235E+02 -0.13104246628E+04  0.13736362334E+04  0.40121199195E+03 0.  0.
    9000005    1    3    3    0    0 -0.79271550330E+02 -0.10942170757E+03 -0.15734141592E+03  0.20739915607E+03  0.99999687468E+00 0.  0.
          4    1    3    3  501    0  0.16174254097E+03  0.65934032333E+02 -0.11530832469E+04  0.11662370773E+04  0.00000000000E+00 0.  1.
   -9000007    1    1    2    0  502 -0.82470990644E+02  0.43487675235E+02 -0.12124795400E+03  0.42824491654E+03  0.40000000000E+03 0. -1.
<mgrwt>
<rscale>  2 0.41160711E+03</rscale>
<asrwt>0</asrwt>
<pdfrwt beam="1">  1       21 0.28477580E-01 0.41190254E+03</pdfrwt>
<pdfrwt beam="2">  1       21 0.24873490E+00 0.41190254E+03</pdfrwt>
<totfact> 0.66351463E+02</totfact>
</mgrwt>
</event>
<event>
 6    1  0.9399121E-004  0.4670302E+03  0.7818608E-02  0.1022775E+00
         21   -1    0    0  503  502  0.00000000000E+00  0.00000000000E+00  0.60102595447E+03  0.60102595447E+03  0.00000000000E+00 0. -1.
         21   -1    0    0  501  503 -0.00000000000E+00 -0.00000000000E+00 -0.36281412362E+03  0.36281412362E+03  0.00000000000E+00 0. -1.
    9000007    2    1    2  501    0 -0.10900587446E+03  0.21461583647E+03  0.12487488726E+03  0.48343660109E+03  0.40021865508E+03 0.  0.
    9000005    1    3    3    0    0 -0.67149863485E+02  0.67473100152E+02  0.26152436948E+03  0.27831226929E+03  0.99999687468E+00 0.  0.
          4    1    3    3  501    0 -0.41856010971E+02  0.14714273632E+03 -0.13664948222E+03  0.20512433180E+03  0.00000000000E+00 0.  1.
   -9000007    1    1    2    0  502  0.10900587446E+03 -0.21461583647E+03  0.11333694359E+03  0.48040347700E+03  0.40000000000E+03 0.  1.
<mgrwt>
<rscale>  2 0.46698335E+03</rscale>
<asrwt>0</asrwt>
<pdfrwt beam="1">  1       21 0.92465532E-01 0.46703020E+03</pdfrwt>
<pdfrwt beam="2">  1       21 0.55817557E-01 0.46703020E+03</pdfrwt>
<totfact> 0.25720843E+03</totfact>
</mgrwt>
</event>
<event>
 6    1  0.9399121E-004  0.4289000E+03  0.7818608E-02  0.1034238E+00
         21   -1    0    0  503  502  0.00000000000E+00  0.00000000000E+00  0.13543743728E+04  0.13543743728E+04  0.00000000000E+00 0.  1.
         21   -1    0    0  501  503 -0.00000000000E+00 -0.00000000000E+00 -0.17901096258E+03  0.17901096258E+03  0.00000000000E+00 0.  1.
    9000007    2    1    2  501    0  0.36882110847E+02  0.14921693487E+03  0.21076686697E+03  0.47788901847E+03  0.40041136099E+03 0.  0.
    9000005    1    3    3    0    0  0.14179783055E+03  0.72387750980E+02  0.28623828784E+03  0.32753620969E+03  0.99999687468E+00 0.  0.
          4    1    3    3  501    0 -0.10491571970E+03  0.76829183894E+02 -0.75471420874E+02  0.15035280878E+03  0.00000000000E+00 0.  1.
   -9000007    1    1    2    0  502 -0.36882110847E+02 -0.14921693487E+03  0.96459654325E+03  0.10554963169E+04  0.40000000000E+03 0.  1.
<mgrwt>
<rscale>  2 0.42880400E+03</rscale>
<asrwt>0</asrwt>
<pdfrwt beam="1">  1       21 0.20836528E+00 0.42890004E+03</pdfrwt>
<pdfrwt beam="2">  1       21 0.27540149E-01 0.42890004E+03</pdfrwt>
<totfact> 0.12618299E+03</totfact>
</mgrwt>
</event>
<event>
 6    1  0.9399121E-004  0.4609488E+03  0.7818608E-02  0.1024514E+00
         21   -1    0    0  503  502  0.00000000000E+00  0.00000000000E+00  0.17246772706E+03  0.17246772706E+03  0.00000000000E+00 0. -1.
         21   -1    0    0  501  503 -0.00000000000E+00 -0.00000000000E+00 -0.20983323232E+04  0.20983323232E+04  0.00000000000E+00 0.  1.
    9000007    2    1    2  501    0  0.44267367091E+01 -0.22880947403E+03 -0.23331253546E+03  0.51663191420E+03  0.40012551051E+03 0.  0.
    9000005    1    3    3    0    0  0.20082452006E+03 -0.12246117944E+03 -0.14588872801E+03  0.27678827519E+03  0.99999687468E+00 0.  0.
          4    1    3    3  501    0 -0.19639778335E+03 -0.10634829459E+03 -0.87423807441E+02  0.23984363901E+03  0.00000000000E+00 0.  1.
   -9000007    1    1    2    0  502 -0.44267367091E+01  0.22880947403E+03 -0.16925520606E+04  0.17541681360E+04  0.40000000000E+03 0.  1.
<mgrwt>
<rscale>  2 0.46092156E+03</rscale>
<asrwt>0</asrwt>
<pdfrwt beam="1">  1       21 0.26533496E-01 0.46094880E+03</pdfrwt>
<pdfrwt beam="2">  1       21 0.32282036E+00 0.46094880E+03</pdfrwt>
<totfact> 0.26463607E+02</totfact>
</mgrwt>
</event>
<event>
 6    1  0.9399121E-004  0.7489967E+03  0.7818608E-02  0.9637164E-01
         21   -1    0    0  503  502  0.00000000000E+00  0.00000000000E+00  0.56701745520E+03  0.56701745520E+03  0.00000000000E+00 0.  1.
         21   -1    0    0  501  503 -0.00000000000E+00 -0.00000000000E+00 -0.10592389379E+04  0.10592389379E+04  0.00000000000E+00 0.  1.
    9000007    2    1    2  501    0 -0.86746293975E+02 -0.62654787070E+03 -0.45621809886E+03  0.87700116455E+03  0.40113455985E+03 0.  0.
    9000005    1    3    3    0    0 -0.51695597152E+02 -0.12909200424E+03  0.66857381032E+02  0.15429870290E+03  0.99999687468E+00 0.  0.
          4    1    3    3  501    0 -0.35050696824E+02 -0.49745586645E+03 -0.52307547989E+03  0.72270246165E+03  0.00000000000E+00 0.  1.
   -9000007    1    1    2    0  502  0.86746293975E+02  0.62654787070E+03 -0.36003383804E+02  0.74925522850E+03  0.40000000000E+03 0.  1.
<mgrwt>
<rscale>  2 0.74884492E+03</rscale>
<asrwt>0</asrwt>
<pdfrwt beam="1">  1       21 0.87233455E-01 0.74899672E+03</pdfrwt>
<pdfrwt beam="2">  1       21 0.16295984E+00 0.74899672E+03</pdfrwt>
<totfact> 0.19676589E+02</totfact>
</mgrwt>
</event>
<event>
 6    1  0.9399121E-004  0.5419406E+03  0.7818608E-02  0.1003383E+00
         21   -1    0    0  503  502  0.00000000000E+00  0.00000000000E+00  0.86117364601E+03  0.86117364601E+03  0.00000000000E+00 0. -1.
         21   -1    0    0  501  503 -0.00000000000E+00 -0.00000000000E+00 -0.39445582756E+03  0.39445582756E+03  0.00000000000E+00 0. -1.
    9000007    2    1    2  501    0 -0.30335606448E+03  0.20385367869E+03  0.22136290811E+01  0.54194511328E+03  0.40014794949E+03 0.  0.
    9000005    1    3    3    0    0 -0.72773821096E+02  0.98514290939E+02 -0.18844060618E+03  0.22474865207E+03  0.99999687468E+00 0.  0.
          4    1    3    3  501    0 -0.23058224338E+03  0.10533938775E+03  0.19065423526E+03  0.31719646120E+03  0.00000000000E+00 0.  1.
   -9000007    1    1    2    0  502  0.30335606448E+03 -0.20385367869E+03  0.46450418937E+03  0.71368436028E+03  0.40000000000E+03 0. -1.
<mgrwt>
<rscale>  2 0.54191328E+03</rscale>
<asrwt>0</asrwt>
<pdfrwt beam="1">  1       21 0.13248825E+00 0.54194059E+03</pdfrwt>
<pdfrwt beam="2">  1       21 0.60685512E-01 0.54194059E+03</pdfrwt>
<totfact> 0.84967777E+02</totfact>
</mgrwt>
</event>
<event>
 6    1  0.9399121E-004  0.4033609E+03  0.7818608E-02  0.1042711E+00
         21   -1    0    0  503  502  0.00000000000E+00  0.00000000000E+00  0.10657191696E+03  0.10657191696E+03  0.00000000000E+00 0.  1.
         21   -1    0    0  501  503 -0.00000000000E+00 -0.00000000000E+00 -0.15990539494E+04  0.15990539494E+04  0.00000000000E+00 0. -1.
    9000007    2    1    2  501    0 -0.10506580111E+02  0.50888725354E+02 -0.93164310972E+03  0.10148000216E+04  0.39894880534E+03 0.  0.
    9000005    1    3    3    0    0  0.11011023271E+03 -0.95058054103E+02 -0.70321941161E+03  0.71810781771E+03  0.99999687468E+00 0.  0.
          4    1    3    3  501    0 -0.12061681282E+03  0.14594677946E+03 -0.22842369811E+03  0.29669220385E+03  0.00000000000E+00 0.  1.
   -9000007    1    1    2    0  502  0.10506580111E+02 -0.50888725354E+02 -0.56083892273E+03  0.69082584480E+03  0.40000000000E+03 0.  1.
<mgrwt>
<rscale>  2 0.40310009E+03</rscale>
<asrwt>0</asrwt>
<pdfrwt beam="1">  1       21 0.16395681E-01 0.40336094E+03</pdfrwt>
<pdfrwt beam="2">  1       21 0.24600827E+00 0.40336094E+03</pdfrwt>
<totfact> 0.19940673E+03</totfact>
</mgrwt>
</event>
<event>
 6    1  0.9399121E-004  0.4761969E+03  0.7818608E-02  0.1020192E+00
         21   -1    0    0  503  502  0.00000000000E+00  0.00000000000E+00  0.15711567481E+04  0.15711567481E+04  0.00000000000E+00 0.  1.
         21   -1    0    0  501  503 -0.00000000000E+00 -0.00000000000E+00 -0.14985001952E+03  0.14985001952E+03  0.00000000000E+00 0.  1.
    9000007    2    1    2  501    0 -0.34065099750E+01  0.25836379178E+03  0.87617989586E+03  0.99717894489E+03  0.39988896585E+03 0.  0.
    9000005    1    3    3    0    0  0.53769885506E+02  0.34054054426E+03  0.80080540202E+03  0.87186544534E+03  0.99999687468E+00 0.  0.
          4    1    3    3  501    0 -0.57176395481E+02 -0.82176752483E+02  0.75374493843E+02  0.12531349956E+03  0.00000000000E+00 0.  1.
   -9000007    1    1    2    0  502  0.34065099750E+01 -0.25836379178E+03  0.54512683275E+03  0.72382782275E+03  0.40000000000E+03 0. -1.
<mgrwt>
<rscale>  2 0.47617355E+03</rscale>
<asrwt>0</asrwt>
<pdfrwt beam="1">  1       21 0.24171641E+00 0.47619686E+03</pdfrwt>
<pdfrwt beam="2">  1       21 0.23053850E-01 0.47619686E+03</pdfrwt>
<totfact> 0.10713398E+03</totfact>
</mgrwt>
</event>
<event>
 6    1  0.9399121E-004  0.5080849E+03  0.7818608E-02  0.1011713E+00
         21   -1    0    0  503  502  0.00000000000E+00  0.00000000000E+00  0.74817266878E+03  0.74817266878E+03  0.00000000000E+00 0.  1.
         21   -1    0    0  501  503 -0.00000000000E+00 -0.00000000000E+00 -0.34732778045E+03  0.34732778045E+03  0.00000000000E+00 0.  1.
    9000007    2    1    2  501    0  0.30230100833E+03 -0.79982989888E+02  0.24726202714E+03  0.56505641490E+03  0.40045856670E+03 0.  0.
    9000005    1    3    3    0    0  0.13519761397E+03  0.36357294066E+02  0.31964330467E+03  0.34896001184E+03  0.99999687468E+00 0.  0.
          4    1    3    3  501    0  0.16710339436E+03 -0.11634028395E+03 -0.72381277524E+02  0.21609640306E+03  0.00000000000E+00 0.  1.
   -9000007    1    1    2    0  502 -0.30230100833E+03  0.79982989888E+02  0.15358286119E+03  0.53044403434E+03  0.40000000000E+03 0.  1.
<mgrwt>
<rscale>  2 0.50799451E+03</rscale>
<asrwt>0</asrwt>
<pdfrwt beam="1">  1       21 0.11510349E+00 0.50808488E+03</pdfrwt>
<pdfrwt beam="2">  1       21 0.53435043E-01 0.50808488E+03</pdfrwt>
<totfact> 0.16287227E+03</totfact>
</mgrwt>
</event>
<event>
 6    1  0.9399121E-004  0.5359983E+03  0.7818608E-02  0.1004828E+00
         21   -1    0    0  503  502  0.00000000000E+00  0.00000000000E+00  0.48375939871E+03  0.48375939871E+03  0.00000000000E+00 0. -1.
         21   -1    0    0  501  503 -0.00000000000E+00 -0.00000000000E+00 -0.88397984571E+03  0.88397984571E+03  0.00000000000E+00 0. -1.
    9000007    2    1    2  501    0  0.34841751667E+03 -0.76807919429E+02 -0.59229710730E+03  0.79836444182E+03  0.39909359333E+03 0.  0.
    9000005    1    3    3    0    0  0.80779104902E+02  0.61397282805E+02 -0.45705091438E+03  0.46817884238E+03  0.99999687468E+00 0.  0.
          4    1    3    3  501    0  0.26763841177E+03 -0.13820520223E+03 -0.13524619292E+03  0.33018559944E+03  0.00000000000E+00 0.  1.
   -9000007    1    1    2    0  502 -0.34841751667E+03  0.76807919429E+02  0.19207666030E+03  0.56937480260E+03  0.40000000000E+03 0. -1.
<mgrwt>
<rscale>  2 0.53582924E+03</rscale>
<asrwt>0</asrwt>
<pdfrwt beam="1">  1       21 0.74424523E-01 0.53599834E+03</pdfrwt>
<pdfrwt beam="2">  1       21 0.13599690E+00 0.53599834E+03</pdfrwt>
<totfact> 0.50277187E+02</totfact>
</mgrwt>
</event>
<event>
 6    1  0.9399121E-004  0.4755240E+03  0.7818608E-02  0.1020987E+00
         21   -1    0    0  503  502  0.00000000000E+00  0.00000000000E+00  0.69015178839E+03  0.69015178839E+03  0.00000000000E+00 0. -1.
         21   -1    0    0  501  503 -0.00000000000E+00 -0.00000000000E+00 -0.43103079360E+03  0.43103079360E+03  0.00000000000E+00 0.  1.
    9000007    2    1    2  501    0  0.17657718435E+02  0.23992144184E+03 -0.15194568641E+03  0.49920998641E+03  0.41018169832E+03 0.  0.
    9000005    1    3    3    0    0  0.18828514477E+03  0.98903557907E+01 -0.48387127544E+02  0.19465720892E+03  0.99999687468E+00 0.  0.
          4    1    3    3  501    0 -0.17062742633E+03  0.23003108604E+03 -0.10355855886E+03  0.30455277749E+03  0.00000000000E+00 0.  1.
   -9000007    1    1    2    0  502 -0.17657718435E+02 -0.23992144184E+03  0.41106668120E+03  0.62197259559E+03  0.40000000000E+03 0.  1.
<mgrwt>
<rscale>  2 0.47332022E+03</rscale>
<asrwt>0</asrwt>
<pdfrwt beam="1">  1       21 0.10617720E+00 0.47552405E+03</pdfrwt>
<pdfrwt beam="2">  1       21 0.66312430E-01 0.47552405E+03</pdfrwt>
<totfact> 0.12548556E+03</totfact>
</mgrwt>
</event>
<event>
 6    1  0.9399121E-004  0.4526192E+03  0.7818608E-02  0.1026983E+00
         21   -1    0    0  503  502  0.00000000000E+00  0.00000000000E+00  0.16457997260E+04  0.16457997260E+04  0.00000000000E+00 0.  1.
         21   -1    0    0  501  503 -0.00000000000E+00 -0.00000000000E+00 -0.13238795876E+03  0.13238795876E+03  0.00000000000E+00 0. -1.
    9000007    2    1    2  501    0 -0.19477506300E+03 -0.83227222791E+02  0.97562682628E+03  0.10752817604E+04  0.39939837795E+03 0.  0.
    9000005    1    3    3    0    0 -0.51535752167E+02  0.13748005398E+03  0.59308755454E+03  0.61099144539E+03  0.99999687468E+00 0.  0.
          4    1    3    3  501    0 -0.14323931083E+03 -0.22070727677E+03  0.38253927174E+03  0.46429031501E+03  0.00000000000E+00 0.  1.
   -9000007    1    1    2    0  502  0.19477506300E+03  0.83227222791E+02  0.53778494093E+03  0.70290592434E+03  0.40000000000E+03 0. -1.
<mgrwt>
<rscale>  2 0.45248619E+03</rscale>
<asrwt>0</asrwt>
<pdfrwt beam="1">  1       21 0.25319994E+00 0.45261915E+03</pdfrwt>
<pdfrwt beam="2">  1       21 0.20367379E-01 0.45261915E+03</pdfrwt>
<totfact> 0.11675853E+03</totfact>
</mgrwt>
</event>
<event>
 6    1  0.9399121E-004  0.4208556E+03  0.7818608E-02  0.1036804E+00
         21   -1    0    0  503  502  0.00000000000E+00  0.00000000000E+00  0.21136100993E+04  0.21136100993E+04  0.00000000000E+00 0. -1.
         21   -1    0    0  501  503 -0.00000000000E+00 -0.00000000000E+00 -0.12210189538E+03  0.12210189538E+03  0.00000000000E+00 0.  1.
    9000007    2    1    2  501    0 -0.12041125739E+03 -0.49528918302E+02  0.36950051170E+03  0.56004468334E+03  0.40020923844E+03 0.  0.
    9000005    1    3    3    0    0 -0.56457560546E+02 -0.20854532558E+03  0.31151647994E+03  0.37910701158E+03  0.99999687468E+00 0.  0.
          4    1    3    3  501    0 -0.63953696842E+02  0.15901640727E+03  0.57984031767E+02  0.18093767176E+03  0.00000000000E+00 0.  1.
   -9000007    1    1    2    0  502  0.12041125739E+03  0.49528918302E+02  0.16220076922E+04  0.16756673113E+04  0.40000000000E+03 0. -1.
<mgrwt>
<rscale>  2 0.42080583E+03</rscale>
<asrwt>0</asrwt>
<pdfrwt beam="1">  1       21 0.32517076E+00 0.42085558E+03</pdfrwt>
<pdfrwt beam="2">  1       21 0.18784909E-01 0.42085558E+03</pdfrwt>
<totfact> 0.51003329E+02</totfact>
</mgrwt>
</event>
<event>
 6    1  0.9399121E-004  0.4503080E+03  0.7818608E-02  0.1027678E+00
         21   -1    0    0  503  502  0.00000000000E+00  0.00000000000E+00  0.15009743679E+03  0.15009743679E+03  0.00000000000E+00 0.  1.
         21   -1    0    0  501  503 -0.00000000000E+00 -0.00000000000E+00 -0.13502732834E+04  0.13502732834E+04  0.00000000000E+00 0.  1.
    9000007    2    1    2  501    0 -0.70985930091E+02 -0.19276725279E+03 -0.62317664502E+03  0.76884745013E+03  0.40072316461E+03 0.  0.
    9000005    1    3    3    0    0 -0.23038717044E+03 -0.15002025454E+03 -0.30642603215E+03  0.41168220541E+03  0.99999687468E+00 0.  0.
          4    1    3    3  501    0  0.15940124035E+03 -0.42746998250E+02 -0.31675061287E+03  0.35716524473E+03  0.00000000000E+00 0.  1.
   -9000007    1    1    2    0  502  0.70985930091E+02  0.19276725279E+03 -0.57699920163E+03  0.73152327010E+03  0.40000000000E+03 0.  1.
<mgrwt>
<rscale>  2 0.45014703E+03</rscale>
<asrwt>0</asrwt>
<pdfrwt beam="1">  1       21 0.23091914E-01 0.45030797E+03</pdfrwt>
<pdfrwt beam="2">  1       21 0.20773435E+00 0.45030797E+03</pdfrwt>
<totfact> 0.17776033E+03</totfact>
</mgrwt>
</event>
<event>
 6    1  0.9399121E-004  0.5287828E+03  0.7818608E-02  0.1006679E+00
         21   -1    0    0  503  502  0.00000000000E+00  0.00000000000E+00  0.25054530117E+03  0.25054530117E+03  0.00000000000E+00 0. -1.
         21   -1    0    0  501  503 -0.00000000000E+00 -0.00000000000E+00 -0.15329287447E+04  0.15329287447E+04  0.00000000000E+00 0. -1.
    9000007    2    1    2  501    0 -0.23531594211E+03 -0.25345150657E+03 -0.11080534962E+04  0.12266956435E+04  0.39672205949E+03 0.  0.
    9000005    1    3    3    0    0 -0.14240775810E+03 -0.22295198266E+03 -0.25296033940E+03  0.36602935599E+03  0.99999687468E+00 0.  0.
          4    1    3    3  501    0 -0.92908184009E+02 -0.30499523911E+02 -0.85509315682E+03  0.86066628751E+03  0.00000000000E+00 0.  1.
   -9000007    1    1    2    0  502  0.23531594211E+03  0.25345150657E+03 -0.17432994727E+03  0.55677840234E+03  0.40000000000E+03 0. -1.
<mgrwt>
<rscale>  2 0.52816291E+03</rscale>
<asrwt>0</asrwt>
<pdfrwt beam="1">  1       21 0.38545431E-01 0.52878281E+03</pdfrwt>
<pdfrwt beam="2">  1       21 0.23583519E+00 0.52878281E+03</pdfrwt>
<totfact> 0.40924083E+02</totfact>
</mgrwt>
</event>
<event>
 6    1  0.9399121E-004  0.4270589E+03  0.7818608E-02  0.1034933E+00
         21   -1    0    0  503  502  0.00000000000E+00  0.00000000000E+00  0.28318232408E+03  0.28318232408E+03  0.00000000000E+00 0.  1.
         21   -1    0    0  501  503 -0.00000000000E+00 -0.00000000000E+00 -0.64156393967E+03  0.64156393967E+03  0.00000000000E+00 0.  1.
    9000007    2    1    2  501    0 -0.11944399118E+02 -0.14401360596E+03 -0.17193687005E+03  0.46037116697E+03  0.40186656581E+03 0.  0.
    9000005    1    3    3    0    0 -0.59136738001E+02 -0.10592015827E+03 -0.29730513866E+03  0.32110368914E+03  0.99999687468E+00 0.  0.
          4    1    3    3  501    0  0.47192338883E+02 -0.38093447690E+02  0.12536826861E+03  0.13926747783E+03  0.00000000000E+00 0.  1.
   -9000007    1    1    2    0  502  0.11944399118E+02  0.14401360596E+03 -0.18644474554E+03  0.46437509678E+03  0.40000000000E+03 0.  1.
<mgrwt>
<rscale>  2 0.42661925E+03</rscale>
<asrwt>0</asrwt>
<pdfrwt beam="1">  1       21 0.43566512E-01 0.42705892E+03</pdfrwt>
<pdfrwt beam="2">  1       21 0.98702144E-01 0.42705892E+03</pdfrwt>
<totfact> 0.37753032E+03</totfact>
</mgrwt>
</event>
<event>
 6    1  0.9399121E-004  0.4573639E+03  0.7818608E-02  0.1025551E+00
         21   -1    0    0  503  502  0.00000000000E+00  0.00000000000E+00  0.42680392460E+03  0.42680392460E+03  0.00000000000E+00 0. -1.
         21   -1    0    0  501  503 -0.00000000000E+00 -0.00000000000E+00 -0.78006651174E+03  0.78006651174E+03  0.00000000000E+00 0.  1.
    9000007    2    1    2  501    0  0.20000878901E+03  0.95626378815E+02 -0.54456090272E+03  0.71114574909E+03  0.40004222235E+03 0.  0.
    9000005    1    3    3    0    0  0.13415685801E+03 -0.14961391824E+03 -0.20418673045E+03  0.28648840808E+03  0.99999687468E+00 0.  0.
          4    1    3    3  501    0  0.65851931005E+02  0.24524029705E+03 -0.34037417227E+03  0.42465734100E+03  0.00000000000E+00 0.  1.
   -9000007    1    1    2    0  502 -0.20000878901E+03 -0.95626378815E+02  0.19129831558E+03  0.49572468725E+03  0.40000000000E+03 0. -1.
<mgrwt>
<rscale>  2 0.45735463E+03</rscale>
<asrwt>0</asrwt>
<pdfrwt beam="1">  1       21 0.65662144E-01 0.45736386E+03</pdfrwt>
<pdfrwt beam="2">  1       21 0.12001023E+00 0.45736386E+03</pdfrwt>
<totfact> 0.95146889E+02</totfact>
</mgrwt>
</event>
<event>
 6    1  0.9399121E-004  0.4302812E+03  0.7818608E-02  0.1033781E+00
         21   -1    0    0  503  502  0.00000000000E+00  0.00000000000E+00  0.11957779011E+04  0.11957779011E+04  0.00000000000E+00 0. -1.
         21   -1    0    0  501  503 -0.00000000000E+00 -0.00000000000E+00 -0.15522011488E+03  0.15522011488E+03  0.00000000000E+00 0. -1.
    9000007    2    1    2  501    0  0.15821286762E+03  0.10516280983E+02  0.48434235349E+03  0.64777862542E+03  0.39985963603E+03 0.  0.
    9000005    1    3    3    0    0  0.19755307127E+03 -0.29820394042E+02  0.44949005335E+02  0.20478741403E+03  0.99999687468E+00 0.  0.
          4    1    3    3  501    0 -0.39340203645E+02  0.40336675024E+02  0.43939334815E+03  0.44299121140E+03  0.00000000000E+00 0.  1.
   -9000007    1    1    2    0  502 -0.15821286762E+03 -0.10516280983E+02  0.55621543273E+03  0.70321939056E+03  0.40000000000E+03 0. -1.
<mgrwt>
<rscale>  2 0.43024857E+03</rscale>
<asrwt>0</asrwt>
<pdfrwt beam="1">  1       21 0.18396582E+00 0.43028119E+03</pdfrwt>
<pdfrwt beam="2">  1       21 0.23880018E-01 0.43028119E+03</pdfrwt>
<totfact> 0.24297533E+03</totfact>
</mgrwt>
</event>
<event>
 6    1  0.9399121E-004  0.6397774E+03  0.7818608E-02  0.9826309E-01
         21   -1    0    0  503  502  0.00000000000E+00  0.00000000000E+00  0.19028821550E+04  0.19028821550E+04  0.00000000000E+00 0.  1.
         21   -1    0    0  501  503 -0.00000000000E+00 -0.00000000000E+00 -0.23316415469E+03  0.23316415469E+03  0.00000000000E+00 0. -1.
    9000007    2    1    2  501    0 -0.14658671019E+02 -0.49909943634E+03  0.53650442506E+03  0.83470541234E+03  0.39947591078E+03 0.  0.
    9000005    1    3    3    0    0 -0.29744076390E+02 -0.17947594666E+03 -0.29705510810E+02  0.18433595112E+03  0.99999687468E+00 0.  0.
          4    1    3    3  501    0  0.15085405371E+02 -0.31962348968E+03  0.56620993587E+03  0.65036946122E+03  0.00000000000E+00 0.  1.
   -9000007    1    1    2    0  502  0.14658671019E+02  0.49909943634E+03  0.11332135752E+04  0.13013408973E+04  0.40000000000E+03 0. -1.
<mgrwt>
<rscale>  2 0.63969550E+03</rscale>
<asrwt>0</asrwt>
<pdfrwt beam="1">  1       21 0.29275109E+00 0.63977740E+03</pdfrwt>
<pdfrwt beam="2">  1       21 0.35871410E-01 0.63977740E+03</pdfrwt>
<totfact> 0.20173183E+02</totfact>
</mgrwt>
</event>
<event>
 6    1  0.9399121E-004  0.4384648E+03  0.7818608E-02  0.1031411E+00
         21   -1    0    0  503  502  0.00000000000E+00  0.00000000000E+00  0.13530759876E+03  0.13530759876E+03  0.00000000000E+00 0.  1.
         21   -1    0    0  501  503 -0.00000000000E+00 -0.00000000000E+00 -0.14207748462E+04  0.14207748462E+04  0.00000000000E+00 0. -1.
    9000007    2    1    2  501    0  0.11040440699E+03 -0.14164114881E+03 -0.58259398286E+03  0.72766094947E+03  0.39726988357E+03 0.  0.
    9000005    1    3    3    0    0 -0.11421891845E+03 -0.17475626209E+03 -0.26955255085E+03  0.34094763547E+03  0.99999687468E+00 0.  0.
          4    1    3    3  501    0  0.22462332545E+03  0.33115113280E+02 -0.31304143201E+03  0.38671331399E+03  0.00000000000E+00 0.  1.
   -9000007    1    1    2    0  502 -0.11040440699E+03  0.14164114881E+03 -0.70287326456E+03  0.82842149546E+03  0.40000000000E+03 0.  1.
<mgrwt>
<rscale>  2 0.43784114E+03</rscale>
<asrwt>0</asrwt>
<pdfrwt beam="1">  1       21 0.20816554E-01 0.43846476E+03</pdfrwt>
<pdfrwt beam="2">  1       21 0.21858075E+00 0.43846476E+03</pdfrwt>
<totfact> 0.18550997E+03</totfact>
</mgrwt>
</event>
<event>
 6    1  0.9399121E-004  0.5218883E+03  0.7818608E-02  0.1008219E+00
         21   -1    0    0  503  502  0.00000000000E+00  0.00000000000E+00  0.97623241140E+02  0.97623241140E+02  0.00000000000E+00 0.  1.
         21   -1    0    0  501  503 -0.00000000000E+00 -0.00000000000E+00 -0.28414324158E+04  0.28414324158E+04  0.00000000000E+00 0. -1.
    9000007    2    1    2  501    0 -0.30062365606E+03  0.14827703583E+03 -0.15697173842E+04  0.16542007257E+04  0.40000839076E+03 0.  0.
    9000005    1    3    3    0    0 -0.18157621567E+03 -0.26981088473E+02 -0.12915819132E+04  0.13045622790E+04  0.99999687468E+00 0.  0.
          4    1    3    3  501    0 -0.11904744038E+03  0.17525812431E+03 -0.27813547105E+03  0.34963844677E+03  0.00000000000E+00 0.  1.
   -9000007    1    1    2    0  502  0.30062365606E+03 -0.14827703583E+03 -0.11740917905E+04  0.12848549313E+04  0.40000000000E+03 0.  1.
<mgrwt>
<rscale>  2 0.52188667E+03</rscale>
<asrwt>0</asrwt>
<pdfrwt beam="1">  1       21 0.15018959E-01 0.52188828E+03</pdfrwt>
<pdfrwt beam="2">  1       21 0.43714348E+00 0.52188828E+03</pdfrwt>
<totfact> 0.14269473E+02</totfact>
</mgrwt>
</event>
<event>
 6    1  0.9399121E-004  0.8369994E+03  0.7818608E-02  0.9508012E-01
         21   -1    0    0  503  502  0.00000000000E+00  0.00000000000E+00  0.29014274915E+04  0.29014274915E+04  0.00000000000E+00 0.  1.
         21   -1    0    0  501  503 -0.00000000000E+00 -0.00000000000E+00 -0.24275124165E+03  0.24275124165E+03  0.00000000000E+00 0. -1.
    9000007    2    1    2  501    0 -0.14154563446E+03  0.72147962996E+03  0.12122330271E+04  0.14730216431E+04  0.39964462449E+03 0.  0.
    9000005    1    3    3    0    0 -0.23391651747E+03  0.34875844340E+03  0.42685522133E+03  0.59879526465E+03  0.99999687468E+00 0.  0.
          4    1    3    3  501    0  0.92370883014E+02  0.37272118656E+03  0.78537780578E+03  0.87422637843E+03  0.00000000000E+00 0.  1.
   -9000007    1    1    2    0  502  0.14154563446E+03 -0.72147962996E+03  0.14464432228E+04  0.16711570901E+04  0.40000000000E+03 0.  1.
<mgrwt>
<rscale>  2 0.83695697E+03</rscale>
<asrwt>0</asrwt>
<pdfrwt beam="1">  1       21 0.44637343E+00 0.83699942E+03</pdfrwt>
<pdfrwt beam="2">  1       21 0.37346347E-01 0.83699942E+03</pdfrwt>
<totfact> 0.17943044E+01</totfact>
</mgrwt>
</event>
<event>
 6    1  0.9399121E-004  0.4675455E+03  0.7818608E-02  0.1022633E+00
         21   -1    0    0  503  502  0.00000000000E+00  0.00000000000E+00  0.41049519600E+03  0.41049519600E+03  0.00000000000E+00 0. -1.
         21   -1    0    0  501  503 -0.00000000000E+00 -0.00000000000E+00 -0.61172783152E+03  0.61172783152E+03  0.00000000000E+00 0. -1.
    9000007    2    1    2  501    0 -0.19848678833E+03 -0.13857045695E+03 -0.28483228708E+03  0.54726231502E+03  0.39970968589E+03 0.  0.
    9000005    1    3    3    0    0 -0.27833195083E+03 -0.19161905208E+03 -0.29794351764E+03  0.45050846348E+03  0.99999687468E+00 0.  0.
          4    1    3    3  501    0  0.79845162502E+02  0.53048595129E+02  0.13111230562E+02  0.96753851535E+02  0.00000000000E+00 0.  1.
   -9000007    1    1    2    0  502  0.19848678833E+03  0.13857045695E+03  0.83599651562E+02  0.47496071250E+03  0.40000000000E+03 0. -1.
<mgrwt>
<rscale>  2 0.46748338E+03</rscale>
<asrwt>0</asrwt>
<pdfrwt beam="1">  1       21 0.63153107E-01 0.46754548E+03</pdfrwt>
<pdfrwt beam="2">  1       21 0.94111974E-01 0.46754548E+03</pdfrwt>
<totfact> 0.18813782E+03</totfact>
</mgrwt>
</event>
<event>
 6    1  0.9399121E-004  0.4642757E+03  0.7818608E-02  0.1023551E+00
         21   -1    0    0  503  502  0.00000000000E+00  0.00000000000E+00  0.16478044032E+04  0.16478044032E+04  0.00000000000E+00 0.  1.
         21   -1    0    0  501  503 -0.00000000000E+00 -0.00000000000E+00 -0.13090365237E+03  0.13090365237E+03  0.00000000000E+00 0.  1.
    9000007    2    1    2  501    0  0.13549346540E+02 -0.23523367252E+03  0.73363050279E+03  0.86819679976E+03  0.40004187657E+03 0.  0.
    9000005    1    3    3    0    0 -0.11249733969E+03 -0.46239728244E+02  0.25176647519E+02  0.12421202631E+03  0.99999687468E+00 0.  0.
          4    1    3    3  501    0  0.12604668623E+03 -0.18899394428E+03  0.70845385527E+03  0.74398477345E+03  0.00000000000E+00 0.  1.
   -9000007    1    1    2    0  502 -0.13549346540E+02  0.23523367252E+03  0.78327024804E+03  0.91051125580E+03  0.40000000000E+03 0.  1.
<mgrwt>
<rscale>  2 0.46426673E+03</rscale>
<asrwt>0</asrwt>
<pdfrwt beam="1">  1       21 0.25350835E+00 0.46427575E+03</pdfrwt>
<pdfrwt beam="2">  1       21 0.20139025E-01 0.46427575E+03</pdfrwt>
<totfact> 0.11810658E+03</totfact>
</mgrwt>
</event>
<event>
 6    1  0.9399121E-004  0.4732432E+03  0.7818608E-02  0.1021078E+00
         21   -1    0    0  503  502  0.00000000000E+00  0.00000000000E+00  0.33352634714E+03  0.33352634714E+03  0.00000000000E+00 0. -1.
         21   -1    0    0  501  503 -0.00000000000E+00 -0.00000000000E+00 -0.15472112291E+04  0.15472112291E+04  0.00000000000E+00 0.  1.
    9000007    2    1    2  501    0 -0.21579752793E+03  0.13187307110E+03 -0.13146027803E+04  0.13968538070E+04  0.39882453320E+03 0.  0.
    9000005    1    3    3    0    0 -0.11255367328E+03  0.17158033631E+03 -0.23660234610E+03  0.31319292992E+03  0.99999687468E+00 0.  0.
          4    1    3    3  501    0 -0.10324385465E+03 -0.39707265214E+02 -0.10780004342E+04  0.10836608771E+04  0.00000000000E+00 0.  1.
   -9000007    1    1    2    0  502  0.21579752793E+03 -0.13187307110E+03  0.10091789832E+03  0.48388376925E+03  0.40000000000E+03 0. -1.
<mgrwt>
<rscale>  2 0.47299467E+03</rscale>
<asrwt>0</asrwt>
<pdfrwt beam="1">  1       21 0.51311746E-01 0.47324315E+03</pdfrwt>
<pdfrwt beam="2">  1       21 0.23803249E+00 0.47324315E+03</pdfrwt>
<totfact> 0.22355406E+02</totfact>
</mgrwt>
</event>
<event>
 6    1  0.9399121E-004  0.4336377E+03  0.7818608E-02  0.1032736E+00
         21   -1    0    0  503  502  0.00000000000E+00  0.00000000000E+00  0.22762002537E+03  0.22762002537E+03  0.00000000000E+00 0. -1.
         21   -1    0    0  501  503 -0.00000000000E+00 -0.00000000000E+00 -0.83300649588E+03  0.83300649588E+03  0.00000000000E+00 0. -1.
    9000007    2    1    2  501    0 -0.11883471465E+03 -0.11798288807E+03 -0.25281699770E+03  0.50174649438E+03  0.39973923878E+03 0.  0.
    9000005    1    3    3    0    0 -0.11419750122E+03 -0.14597251087E+03  0.54451531888E+02  0.19317094122E+03  0.99999687468E+00 0.  0.
          4    1    3    3  501    0 -0.46372134306E+01  0.27989622802E+02 -0.30726852959E+03  0.30857555316E+03  0.00000000000E+00 0.  1.
   -9000007    1    1    2    0  502  0.11883471465E+03  0.11798288807E+03 -0.35256947281E+03  0.55888002687E+03  0.40000000000E+03 0. -1.
<mgrwt>
<rscale>  2 0.43357755E+03</rscale>
<asrwt>0</asrwt>
<pdfrwt beam="1">  1       21 0.35018466E-01 0.43363770E+03</pdfrwt>
<pdfrwt beam="2">  1       21 0.12815484E+00 0.43363770E+03</pdfrwt>
<totfact> 0.30714227E+03</totfact>
</mgrwt>
</event>
<event>
 6    1  0.9399121E-004  0.5391387E+03  0.7818608E-02  0.1004145E+00
         21   -1    0    0  503  502  0.00000000000E+00  0.00000000000E+00  0.11812081651E+04  0.11812081651E+04  0.00000000000E+00 0. -1.
         21   -1    0    0  501  503 -0.00000000000E+00 -0.00000000000E+00 -0.29573163738E+03  0.29573163738E+03  0.00000000000E+00 0.  1.
    9000007    2    1    2  501    0  0.32757489205E+03 -0.14645442022E+03  0.13829172487E+03  0.55659240247E+03  0.40238823818E+03 0.  0.
    9000005    1    3    3    0    0 -0.82682131630E+02 -0.43140257486E+02 -0.34718529854E+02  0.99517802507E+02  0.99999687468E+00 0.  0.
          4    1    3    3  501    0  0.41025702368E+03 -0.10331416274E+03  0.17301025472E+03  0.45707459997E+03  0.00000000000E+00 0.  1.
   -9000007    1    1    2    0  502 -0.32757489205E+03  0.14645442022E+03  0.74718480288E+03  0.92034740003E+03  0.40000000000E+03 0. -1.
<mgrwt>
<rscale>  2 0.53869308E+03</rscale>
<asrwt>0</asrwt>
<pdfrwt beam="1">  1       21 0.18172433E+00 0.53913867E+03</pdfrwt>
<pdfrwt beam="2">  1       21 0.45497175E-01 0.53913867E+03</pdfrwt>
<totfact> 0.65784190E+02</totfact>
</mgrwt>
</event>
<event>
 6    1  0.9399121E-004  0.4548590E+03  0.7818608E-02  0.1026308E+00
         21   -1    0    0  503  502  0.00000000000E+00  0.00000000000E+00  0.10394106555E+04  0.10394106555E+04  0.00000000000E+00 0. -1.
         21   -1    0    0  501  503 -0.00000000000E+00 -0.00000000000E+00 -0.22639850013E+03  0.22639850013E+03  0.00000000000E+00 0. -1.
    9000007    2    1    2  501    0 -0.21122552611E+03  0.47754654078E+02  0.62694175685E+03  0.77436340778E+03  0.39960729592E+03 0.  0.
    9000005    1    3    3    0    0 -0.30555706815E+03  0.11255411582E+03  0.54022928639E+03  0.63077906810E+03  0.99999687468E+00 0.  0.
          4    1    3    3  501    0  0.94331542043E+02 -0.64799461747E+02  0.86712470456E+02  0.14358433967E+03  0.00000000000E+00 0.  1.
   -9000007    1    1    2    0  502  0.21122552611E+03 -0.47754654078E+02  0.18607039852E+03  0.49144574784E+03  0.40000000000E+03 0. -1.
<mgrwt>
<rscale>  2 0.45477267E+03</rscale>
<asrwt>0</asrwt>
<pdfrwt beam="1">  1       21 0.15990933E+00 0.45485902E+03</pdfrwt>
<pdfrwt beam="2">  1       21 0.34830539E-01 0.45485902E+03</pdfrwt>
<totfact> 0.17025649E+03</totfact>
</mgrwt>
</event>
<event>
 6    1  0.9399121E-004  0.4190388E+03  0.7818608E-02  0.1037405E+00
         21   -1    0    0  503  502  0.00000000000E+00  0.00000000000E+00  0.60639450797E+03  0.60639450797E+03  0.00000000000E+00 0.  1.
         21   -1    0    0  501  503 -0.00000000000E+00 -0.00000000000E+00 -0.64741262693E+03  0.64741262693E+03  0.00000000000E+00 0. -1.
    9000007    2    1    2  501    0  0.95438406227E+02 -0.80529894173E+02 -0.48671910639E+03  0.64205316194E+03  0.39967889736E+03 0.  0.
    9000005    1    3    3    0    0  0.17797653392E+03  0.70999079458E+02 -0.41128985692E+03  0.45373655607E+03  0.99999687468E+00 0.  0.
          4    1    3    3  501    0 -0.82538127691E+02 -0.15152897363E+03 -0.75429249465E+02  0.18831660587E+03  0.00000000000E+00 0.  1.
   -9000007    1    1    2    0  502 -0.95438406227E+02  0.80529894173E+02  0.44570098743E+03  0.61175397296E+03  0.40000000000E+03 0.  1.
<mgrwt>
<rscale>  2 0.41896220E+03</rscale>
<asrwt>0</asrwt>
<pdfrwt beam="1">  1       21 0.93291463E-01 0.41903884E+03</pdfrwt>
<pdfrwt beam="2">  1       21 0.99601942E-01 0.41903884E+03</pdfrwt>
<totfact> 0.68446066E+02</totfact>
</mgrwt>
</event>
<event>
 6    1  0.9399121E-004  0.4686847E+03  0.7818608E-02  0.1022314E+00
         21   -1    0    0  503  502  0.00000000000E+00  0.00000000000E+00  0.11591509427E+03  0.11591509427E+03  0.00000000000E+00 0. -1.
         21   -1    0    0  501  503 -0.00000000000E+00 -0.00000000000E+00 -0.23024071263E+04  0.23024071263E+04  0.00000000000E+00 0. -1.
    9000007    2    1    2  501    0  0.23842775313E+03  0.53080778095E+02 -0.16023319986E+04  0.16693841009E+04  0.39963743574E+03 0.  0.
    9000005    1    3    3    0    0  0.24549565789E+03  0.11359278925E+03 -0.15822944112E+04  0.16052501498E+04  0.99999687468E+00 0.  0.
          4    1    3    3  501    0 -0.70679047689E+01 -0.60512011159E+02 -0.20037587454E+02  0.64133951097E+02  0.00000000000E+00 0.  1.
   -9000007    1    1    2    0  502 -0.23842775313E+03 -0.53080778095E+02 -0.58416003342E+03  0.74893811968E+03  0.40000000000E+03 0. -1.
<mgrwt>
<rscale>  2 0.46860735E+03</rscale>
<asrwt>0</asrwt>
<pdfrwt beam="1">  1       21 0.17833092E-01 0.46868472E+03</pdfrwt>
<pdfrwt beam="2">  1       21 0.35421646E+00 0.46868472E+03</pdfrwt>
<totfact> 0.36349087E+02</totfact>
</mgrwt>
</event>
<event>
 6    1  0.9399121E-004  0.4363962E+03  0.7818608E-02  0.1031899E+00
         21   -1    0    0  503  502  0.00000000000E+00  0.00000000000E+00  0.40437998611E+03  0.40437998611E+03  0.00000000000E+00 0.  1.
         21   -1    0    0  501  503 -0.00000000000E+00 -0.00000000000E+00 -0.47153174082E+03  0.47153174082E+03  0.00000000000E+00 0. -1.
    9000007    2    1    2  501    0 -0.11517608489E+03 -0.12931527802E+03 -0.12009352617E+02  0.43656146100E+03  0.40056673978E+03 0.  0.
    9000005    1    3    3    0    0  0.14168577538E+03 -0.29582341482E+02  0.51784079422E+02  0.15372886764E+03  0.99999687468E+00 0.  0.
          4    1    3    3  501    0 -0.25686186027E+03 -0.99732936540E+02 -0.63793432039E+02  0.28283259335E+03  0.00000000000E+00 0.  1.
   -9000007    1    1    2    0  502  0.11517608489E+03  0.12931527802E+03 -0.55142402095E+02  0.43935026593E+03  0.40000000000E+03 0. -1.
<mgrwt>
<rscale>  2 0.43626615E+03</rscale>
<asrwt>0</asrwt>
<pdfrwt beam="1">  1       21 0.62212306E-01 0.43639625E+03</pdfrwt>
<pdfrwt beam="2">  1       21 0.72543344E-01 0.43639625E+03</pdfrwt>
<totfact> 0.36044106E+03</totfact>
</mgrwt>
</event>
<event>
 6    1  0.9399121E-004  0.4486325E+03  0.7818608E-02  0.1028177E+00
         21   -1    0    0  503  502  0.00000000000E+00  0.00000000000E+00  0.61378498051E+03  0.61378498051E+03  0.00000000000E+00 0. -1.
         21   -1    0    0  501  503 -0.00000000000E+00 -0.00000000000E+00 -0.40809854075E+03  0.40809854075E+03  0.00000000000E+00 0.  1.
    9000007    2    1    2  501    0 -0.15727420210E+03  0.12639392905E+03 -0.12422009929E+03  0.46551231024E+03  0.40069998499E+03 0.  0.
    9000005    1    3    3    0    0  0.94427690541E+01 -0.32022455654E+02 -0.21550576180E+03  0.21807874018E+03  0.99999687468E+00 0.  0.
          4    1    3    3  501    0 -0.16671697115E+03  0.15841638470E+03  0.91285662511E+02  0.24743357006E+03  0.00000000000E+00 0.  1.
   -9000007    1    1    2    0  502  0.15727420210E+03 -0.12639392905E+03  0.32990653906E+03  0.55637121103E+03  0.40000000000E+03 0. -1.
<mgrwt>
<rscale>  2 0.44847610E+03</rscale>
<asrwt>0</asrwt>
<pdfrwt beam="1">  1       21 0.94428458E-01 0.44863245E+03</pdfrwt>
<pdfrwt beam="2">  1       21 0.62784391E-01 0.44863245E+03</pdfrwt>
<totfact> 0.19040297E+03</totfact>
</mgrwt>
</event>
<event>
 6    1  0.9399121E-004  0.4174279E+03  0.7818608E-02  0.1037948E+00
         21   -1    0    0  503  502  0.00000000000E+00  0.00000000000E+00  0.11211738911E+04  0.11211738911E+04  0.00000000000E+00 0.  1.
         21   -1    0    0  501  503 -0.00000000000E+00 -0.00000000000E+00 -0.40150433122E+03  0.40150433122E+03  0.00000000000E+00 0.  1.
    9000007    2    1    2  501    0  0.11122398426E+02  0.11703786726E+03 -0.23635639536E+03  0.47969826220E+03  0.40053028227E+03 0.  0.
    9000005    1    3    3    0    0 -0.16239770802E+03  0.10179513435E+03 -0.71315829534E+01  0.19179969869E+03  0.99999687468E+00 0.  0.
          4    1    3    3  501    0  0.17352010645E+03  0.15242732906E+02 -0.22922481241E+03  0.28789856351E+03  0.00000000000E+00 0.  1.
   -9000007    1    1    2    0  502 -0.11122398426E+02 -0.11703786726E+03  0.95602595526E+03  0.10429799601E+04  0.40000000000E+03 0.  1.
<mgrwt>
<rscale>  2 0.41730067E+03</rscale>
<asrwt>0</asrwt>
<pdfrwt beam="1">  1       21 0.17248829E+00 0.41742793E+03</pdfrwt>
<pdfrwt beam="2">  1       21 0.61769897E-01 0.41742793E+03</pdfrwt>
<totfact> 0.41886900E+02</totfact>
</mgrwt>
</event>
<event>
 6    1  0.9399121E-004  0.4018732E+03  0.7818608E-02  0.1043192E+00
         21   -1    0    0  503  502  0.00000000000E+00  0.00000000000E+00  0.28754284541E+03  0.28754284541E+03  0.00000000000E+00 0.  1.
         21   -1    0    0  501  503 -0.00000000000E+00 -0.00000000000E+00 -0.56956042940E+03  0.56956042940E+03  0.00000000000E+00 0.  1.
    9000007    2    1    2  501    0 -0.54895560649E+01 -0.38366107268E+02 -0.19431090407E+03  0.44577061732E+03  0.39931519181E+03 0.  0.
    9000005    1    3    3    0    0 -0.68663356442E+02  0.47162321438E+02  0.10157018245E+03  0.13136378130E+03  0.99999687468E+00 0.  0.
          4    1    3    3  501    0  0.63173800377E+02 -0.85528428706E+02 -0.29588108652E+03  0.31440683601E+03  0.00000000000E+00 0.  1.
   -9000007    1    1    2    0  502  0.54895560649E+01  0.38366107268E+02 -0.87706679921E+02  0.41133265749E+03  0.40000000000E+03 0.  1.
<mgrwt>
<rscale>  2 0.40170272E+03</rscale>
<asrwt>0</asrwt>
<pdfrwt beam="1">  1       21 0.44237361E-01 0.40187323E+03</pdfrwt>
<pdfrwt beam="2">  1       21 0.87624680E-01 0.40187323E+03</pdfrwt>
<totfact> 0.49005852E+03</totfact>
</mgrwt>
</event>
<event>
 6    1  0.9399121E-004  0.7039222E+03  0.7818608E-02  0.9710660E-01
         21   -1    0    0  503  502  0.00000000000E+00  0.00000000000E+00  0.37655908603E+03  0.37655908603E+03  0.00000000000E+00 0.  1.
         21   -1    0    0  501  503 -0.00000000000E+00 -0.00000000000E+00 -0.13387787104E+04  0.13387787104E+04  0.00000000000E+00 0. -1.
    9000007    2    1    2  501    0 -0.29897781257E+03  0.49610359419E+03 -0.59438813453E+03  0.92110450988E+03  0.39953692579E+03 0.  0.
    9000005    1    3    3    0    0 -0.10520230748E+03  0.19093230756E+03 -0.50304208420E+03  0.54824721617E+03  0.99999687468E+00 0.  0.
          4    1    3    3  501    0 -0.19377550510E+03  0.30517128663E+03 -0.91346050322E+02  0.37285729370E+03  0.00000000000E+00 0.  1.
   -9000007    1    1    2    0  502  0.29897781257E+03 -0.49610359419E+03 -0.36783148988E+03  0.79423328659E+03  0.40000000000E+03 0.  1.
<mgrwt>
<rscale>  2 0.70385646E+03</rscale>
<asrwt>0</asrwt>
<pdfrwt beam="1">  1       21 0.57932166E-01 0.70392223E+03</pdfrwt>
<pdfrwt beam="2">  1       21 0.20596596E+00 0.70392223E+03</pdfrwt>
<totfact> 0.25165496E+02</totfact>
</mgrwt>
</event>
<event>
 6    1  0.9399121E-004  0.4936351E+03  0.7818608E-02  0.1015469E+00
         21   -1    0    0  503  502  0.00000000000E+00  0.00000000000E+00  0.57840934483E+03  0.57840934483E+03  0.00000000000E+00 0.  1.
         21   -1    0    0  501  503 -0.00000000000E+00 -0.00000000000E+00 -0.63380851262E+03  0.63380851262E+03  0.00000000000E+00 0. -1.
    9000007    2    1    2  501    0  0.18755435635E+03 -0.21969204559E+03 -0.37884485139E+03  0.62225316214E+03  0.40029282393E+03 0.  0.
    9000005    1    3    3    0    0  0.23851085983E+03 -0.28513468505E+03 -0.38974159003E+03  0.53859885431E+03  0.99999687468E+00 0.  0.
          4    1    3    3  501    0 -0.50956503481E+02  0.65442639451E+02  0.10896738643E+02  0.83654307830E+02  0.00000000000E+00 0.  1.
   -9000007    1    1    2    0  502 -0.18755435635E+03  0.21969204559E+03  0.32344568359E+03  0.58996469532E+03  0.40000000000E+03 0.  1.
<mgrwt>
<rscale>  2 0.49357570E+03</rscale>
<asrwt>0</asrwt>
<pdfrwt beam="1">  1       21 0.88986053E-01 0.49363506E+03</pdfrwt>
<pdfrwt beam="2">  1       21 0.97509002E-01 0.49363506E+03</pdfrwt>
<totfact> 0.78090753E+02</totfact>
</mgrwt>
</event>
<event>
 6    1  0.9399121E-004  0.4570538E+03  0.7818608E-02  0.1025713E+00
         21   -1    0    0  503  502  0.00000000000E+00  0.00000000000E+00  0.36201094752E+03  0.36201094752E+03  0.00000000000E+00 0. -1.
         21   -1    0    0  501  503 -0.00000000000E+00 -0.00000000000E+00 -0.63795693487E+03  0.63795693487E+03  0.00000000000E+00 0. -1.
    9000007    2    1    2  501    0  0.16125999239E+03  0.15130553951E+03 -0.29392658851E+03  0.54256056561E+03  0.39884956624E+03 0.  0.
    9000005    1    3    3    0    0  0.17656626860E+02  0.24859825989E+03 -0.69158201322E+02  0.25864397943E+03  0.99999687468E+00 0.  0.
          4    1    3    3  501    0  0.14360336553E+03 -0.97292720376E+02 -0.22476838719E+03  0.28391658618E+03  0.00000000000E+00 0.  1.
   -9000007    1    1    2    0  502 -0.16125999239E+03 -0.15130553951E+03  0.17980601163E+02  0.45740731679E+03  0.40000000000E+03 0. -1.
<mgrwt>
<rscale>  2 0.45680194E+03</rscale>
<asrwt>0</asrwt>
<pdfrwt beam="1">  1       21 0.55693992E-01 0.45705377E+03</pdfrwt>
<pdfrwt beam="2">  1       21 0.98147220E-01 0.45705377E+03</pdfrwt>
<totfact> 0.22478368E+03</totfact>
</mgrwt>
</event>
<event>
 6    1  0.9399121E-004  0.4942925E+03  0.7818608E-02  0.1015302E+00
         21   -1    0    0  503  502  0.00000000000E+00  0.00000000000E+00  0.15353337013E+04  0.15353337013E+04  0.00000000000E+00 0. -1.
         21   -1    0    0  501  503 -0.00000000000E+00 -0.00000000000E+00 -0.34109293802E+03  0.34109293802E+03  0.00000000000E+00 0. -1.
    9000007    2    1    2  501    0 -0.13642644137E+03  0.25567613598E+03 -0.88245038636E+02  0.50210779258E+03  0.40042800615E+03 0.  0.
    9000005    1    3    3    0    0 -0.47327056874E+01  0.21592550087E+03 -0.22236126502E+03  0.30998669746E+03  0.99999687468E+00 0.  0.
          4    1    3    3  501    0 -0.13169373568E+03  0.39750635113E+02  0.13411622638E+03  0.19212109512E+03  0.00000000000E+00 0.  1.
   -9000007    1    1    2    0  502  0.13642644137E+03 -0.25567613598E+03  0.12824858019E+04  0.13743188467E+04  0.40000000000E+03 0. -1.
<mgrwt>
<rscale>  2 0.49420578E+03</rscale>
<asrwt>0</asrwt>
<pdfrwt beam="1">  1       21 0.23620518E+00 0.49429247E+03</pdfrwt>
<pdfrwt beam="2">  1       21 0.52475837E-01 0.49429247E+03</pdfrwt>
<totfact> 0.21633613E+02</totfact>
</mgrwt>
</event>
<event>
 6    1  0.9399121E-004  0.4766686E+03  0.7818608E-02  0.1020322E+00
         21   -1    0    0  503  502  0.00000000000E+00  0.00000000000E+00  0.53776004496E+03  0.53776004496E+03  0.00000000000E+00 0. -1.
         21   -1    0    0  501  503 -0.00000000000E+00 -0.00000000000E+00 -0.11742586918E+04  0.11742586918E+04  0.00000000000E+00 0. -1.
    9000007    2    1    2  501    0  0.73373282571E+01  0.25201178173E+03 -0.10051599118E+04  0.11124564775E+04  0.40453577282E+03 0.  0.
    9000005    1    3    3    0    0  0.19836645510E+03  0.17802808393E+03 -0.64870392142E+03  0.70132804509E+03  0.99999687468E+00 0.  0.
          4    1    3    3  501    0 -0.19102912684E+03  0.73983697804E+02 -0.35645599037E+03  0.41112843238E+03  0.00000000000E+00 0.  1.
   -9000007    1    1    2    0  502 -0.73373282571E+01 -0.25201178173E+03  0.36866126494E+03  0.59956225930E+03  0.40000000000E+03 0. -1.
<mgrwt>
<rscale>  2 0.47570487E+03</rscale>
<asrwt>0</asrwt>
<pdfrwt beam="1">  1       21 0.82732315E-01 0.47666861E+03</pdfrwt>
<pdfrwt beam="2">  1       21 0.18065518E+00 0.47666861E+03</pdfrwt>
<totfact> 0.18354138E+02</totfact>
</mgrwt>
</event>
<event>
 6    1  0.9399121E-004  0.4555979E+03  0.7818608E-02  0.1026142E+00
         21   -1    0    0  503  502  0.00000000000E+00  0.00000000000E+00  0.64299293752E+03  0.64299293752E+03  0.00000000000E+00 0. -1.
         21   -1    0    0  501  503 -0.00000000000E+00 -0.00000000000E+00 -0.44567491024E+03  0.44567491024E+03  0.00000000000E+00 0. -1.
    9000007    2    1    2  501    0  0.16101122927E+03  0.14387509035E+03 -0.18790973180E+03  0.49282803378E+03  0.40117919437E+03 0.  0.
    9000005    1    3    3    0    0  0.22042278075E+03 -0.24799568831E+02 -0.21854541428E+03  0.31139094236E+03  0.99999687468E+00 0.  0.
          4    1    3    3  501    0 -0.59411551488E+02  0.16867465918E+03  0.30635682480E+02  0.18143709141E+03  0.00000000000E+00 0.  1.
   -9000007    1    1    2    0  502 -0.16101122927E+03 -0.14387509035E+03  0.38522775907E+03  0.59583981399E+03  0.40000000000E+03 0. -1.
<mgrwt>
<rscale>  2 0.45533813E+03</rscale>
<asrwt>0</asrwt>
<pdfrwt beam="1">  1       21 0.98921991E-01 0.45559785E+03</pdfrwt>
<pdfrwt beam="2">  1       21 0.68565371E-01 0.45559785E+03</pdfrwt>
<totfact> 0.13955912E+03</totfact>
</mgrwt>
</event>
<event>
 6    1  0.9399121E-004  0.5572446E+03  0.7818608E-02  0.9998384E-01
         21   -1    0    0  503  502  0.00000000000E+00  0.00000000000E+00  0.89825099189E+03  0.89825099189E+03  0.00000000000E+00 0. -1.
         21   -1    0    0  501  503 -0.00000000000E+00 -0.00000000000E+00 -0.39826397717E+03  0.39826397717E+03  0.00000000000E+00 0.  1.
    9000007    2    1    2  501    0  0.36741909781E+03 -0.12459828785E+03  0.14265712978E+02  0.55729462996E+03  0.39981529140E+03 0.  0.
    9000005    1    3    3    0    0 -0.17364833477E+01  0.11446309957E+03  0.25755714222E+02  0.11734212094E+03  0.99999687468E+00 0.  0.
          4    1    3    3  501    0  0.36915558116E+03 -0.23906138742E+03 -0.11490001244E+02  0.43995250902E+03  0.00000000000E+00 0.  1.
   -9000007    1    1    2    0  502 -0.36741909781E+03  0.12459828785E+03  0.48572130174E+03  0.73922033910E+03  0.40000000000E+03 0.  1.
<mgrwt>
<rscale>  2 0.55721144E+03</rscale>
<asrwt>0</asrwt>
<pdfrwt beam="1">  1       21 0.13819246E+00 0.55724458E+03</pdfrwt>
<pdfrwt beam="2">  1       21 0.61271381E-01 0.55724458E+03</pdfrwt>
<totfact> 0.74025535E+02</totfact>
</mgrwt>
</event>
<event>
 6    1  0.9399121E-004  0.4143899E+03  0.7818608E-02  0.1038973E+00
         21   -1    0    0  503  502  0.00000000000E+00  0.00000000000E+00  0.22751582071E+03  0.22751582071E+03  0.00000000000E+00 0. -1.
         21   -1    0    0  501  503 -0.00000000000E+00 -0.00000000000E+00 -0.85646899306E+03  0.85646899306E+03  0.00000000000E+00 0. -1.
    9000007    2    1    2  501    0 -0.81356909757E+02  0.66709851908E+02 -0.50282367064E+03  0.65157551425E+03  0.40081149674E+03 0.  0.
    9000005    1    3    3    0    0  0.15982692378E+03  0.97592347051E+01 -0.25498013925E+03  0.30109094910E+03  0.99999687468E+00 0.  0.
          4    1    3    3  501    0 -0.24118383354E+03  0.56950617203E+02 -0.24784353139E+03  0.35048456515E+03  0.00000000000E+00 0.  1.
   -9000007    1    1    2    0  502  0.81356909757E+02 -0.66709851908E+02 -0.12612950171E+03  0.43240929952E+03  0.40000000000E+03 0. -1.
<mgrwt>
<rscale>  2 0.41419357E+03</rscale>
<asrwt>0</asrwt>
<pdfrwt beam="1">  1       21 0.35002434E-01 0.41438992E+03</pdfrwt>
<pdfrwt beam="2">  1       21 0.13176446E+00 0.41438992E+03</pdfrwt>
<totfact> 0.28824284E+03</totfact>
</mgrwt>
</event>
<event>
 6    1  0.9399121E-004  0.4569420E+03  0.7818608E-02  0.1025686E+00
         21   -1    0    0  503  502  0.00000000000E+00  0.00000000000E+00  0.17740515534E+03  0.17740515534E+03  0.00000000000E+00 0.  1.
         21   -1    0    0  501  503 -0.00000000000E+00 -0.00000000000E+00 -0.21525518957E+04  0.21525518957E+04  0.00000000000E+00 0.  1.
    9000007    2    1    2  501    0  0.32902973235E+02 -0.21802312490E+03 -0.17721860316E+04  0.18301473493E+04  0.40022406341E+03 0.  0.
    9000005    1    3    3    0    0 -0.37124234674E+02  0.60106134929E+02 -0.10603795770E+04  0.10627308236E+04  0.99999687468E+00 0.  0.
          4    1    3    3  501    0  0.70027207909E+02 -0.27812925982E+03 -0.71180645464E+03  0.76741652568E+03  0.00000000000E+00 0.  1.
   -9000007    1    1    2    0  502 -0.32902973235E+02  0.21802312490E+03 -0.20296070874E+03  0.49980970171E+03  0.40000000000E+03 0.  1.
<mgrwt>
<rscale>  2 0.45689293E+03</rscale>
<asrwt>0</asrwt>
<pdfrwt beam="1">  1       21 0.27293103E-01 0.45694200E+03</pdfrwt>
<pdfrwt beam="2">  1       21 0.33116181E+00 0.45694200E+03</pdfrwt>
<totfact> 0.22341760E+02</totfact>
</mgrwt>
</event>
<event>
 6    1  0.9399121E-004  0.7432964E+03  0.7818608E-02  0.9645968E-01
         21   -1    0    0  503  502  0.00000000000E+00  0.00000000000E+00  0.19986478444E+04  0.19986478444E+04  0.00000000000E+00 0. -1.
         21   -1    0    0  501  503 -0.00000000000E+00 -0.00000000000E+00 -0.30203442632E+03  0.30203442632E+03  0.00000000000E+00 0.  1.
    9000007    2    1    2  501    0  0.49188684758E+03 -0.38778812250E+03  0.51318422005E+03  0.90324283893E+03  0.40019655621E+03 0.  0.
    9000005    1    3    3    0    0  0.47941765986E+03 -0.45789896338E+03  0.41566267763E+03  0.78248911482E+03  0.99999687468E+00 0.  0.
          4    1    3    3  501    0  0.12469187721E+02  0.70110840879E+02  0.97521542421E+02  0.12075372411E+03  0.00000000000E+00 0.  1.
   -9000007    1    1    2    0  502 -0.49188684758E+03  0.38778812250E+03  0.11834291980E+04  0.13974394318E+04  0.40000000000E+03 0. -1.
<mgrwt>
<rscale>  2 0.74326998E+03</rscale>
<asrwt>0</asrwt>
<pdfrwt beam="1">  1       21 0.30748428E+00 0.74329643E+03</pdfrwt>
<pdfrwt beam="2">  1       21 0.46466836E-01 0.74329643E+03</pdfrwt>
<totfact> 0.91749078E+01</totfact>
</mgrwt>
</event>
<event>
 6    1  0.9399121E-004  0.4192760E+03  0.7818608E-02  0.1037331E+00
         21   -1    0    0  503  502  0.00000000000E+00  0.00000000000E+00  0.54897314054E+03  0.54897314054E+03  0.00000000000E+00 0. -1.
         21   -1    0    0  501  503 -0.00000000000E+00 -0.00000000000E+00 -0.32209667069E+03  0.32209667069E+03  0.00000000000E+00 0. -1.
    9000007    2    1    2  501    0 -0.33500537192E+02 -0.11987549718E+03  0.14906626692E+03  0.44498666384E+03  0.40037477223E+03 0.  0.
    9000005    1    3    3    0    0 -0.11262631226E+02  0.65731836476E+02 -0.10812233556E+03  0.12703920903E+03  0.99999687468E+00 0.  0.
          4    1    3    3  501    0 -0.22237905966E+02 -0.18560733366E+03  0.25718860249E+03  0.31794745481E+03  0.00000000000E+00 0.  1.
   -9000007    1    1    2    0  502  0.33500537192E+02  0.11987549718E+03  0.77810202930E+02  0.42608314740E+03  0.40000000000E+03 0.  1.
<mgrwt>
<rscale>  2 0.41918652E+03</rscale>
<asrwt>0</asrwt>
<pdfrwt beam="1">  1       21 0.84457406E-01 0.41927602E+03</pdfrwt>
<pdfrwt beam="2">  1       21 0.49553334E-01 0.41927602E+03</pdfrwt>
<totfact> 0.41807308E+03</totfact>
</mgrwt>
</event>
<event>
 6    1  0.9399121E-004  0.5379735E+03  0.7818608E-02  0.1004326E+00
         21   -1    0    0  503  502  0.00000000000E+00  0.00000000000E+00  0.14285377248E+04  0.14285377248E+04  0.00000000000E+00 0. -1.
         21   -1    0    0  501  503 -0.00000000000E+00 -0.00000000000E+00 -0.35756407318E+03  0.35756407318E+03  0.00000000000E+00 0.  1.
    9000007    2    1    2  501    0 -0.35641846200E+03 -0.48799678761E+02 -0.52591570476E+02  0.54038339602E+03  0.39979096126E+03 0.  0.
    9000005    1    3    3    0    0 -0.52502470657E+01 -0.16580037974E+03  0.40070591136E+01  0.16593488944E+03  0.99999687468E+00 0.  0.
          4    1    3    3  501    0 -0.35116821493E+03  0.11700070098E+03 -0.56598629590E+02  0.37444850658E+03  0.00000000000E+00 0.  1.
   -9000007    1    1    2    0  502  0.35641846200E+03  0.48799678761E+02  0.11235652221E+04  0.12457184020E+04  0.40000000000E+03 0. -1.
<mgrwt>
<rscale>  2 0.53793468E+03</rscale>
<asrwt>0</asrwt>
<pdfrwt beam="1">  1       21 0.21977503E+00 0.53797354E+03</pdfrwt>
<pdfrwt beam="2">  1       21 0.55009858E-01 0.53797354E+03</pdfrwt>
<totfact> 0.24346625E+02</totfact>
</mgrwt>
</event>
<event>
 6    1  0.9399121E-004  0.4674236E+03  0.7818608E-02  0.1022816E+00
         21   -1    0    0  503  502  0.00000000000E+00  0.00000000000E+00  0.13669640088E+04  0.13669640088E+04  0.00000000000E+00 0.  1.
         21   -1    0    0  501  503 -0.00000000000E+00 -0.00000000000E+00 -0.28350822431E+03  0.28350822431E+03  0.00000000000E+00 0.  1.
    9000007    2    1    2  501    0 -0.22378279275E+03  0.91684634610E+02 -0.58362438692E+01  0.46512758550E+03  0.39727169356E+03 0.  0.
    9000005    1    3    3    0    0 -0.19135285803E+03  0.15240609199E+03  0.15539608243E+03  0.28981455377E+03  0.99999687468E+00 0.  0.
          4    1    3    3  501    0 -0.32429934722E+02 -0.60721457380E+02 -0.16123232630E+03  0.17531303173E+03  0.00000000000E+00 0.  1.
   -9000007    1    1    2    0  502  0.22378279275E+03 -0.91684634610E+02  0.10892920284E+04  0.11853446476E+04  0.40000000000E+03 0.  1.
<mgrwt>
<rscale>  2 0.46683934E+03</rscale>
<asrwt>0</asrwt>
<pdfrwt beam="1">  1       21 0.21030215E+00 0.46742359E+03</pdfrwt>
<pdfrwt beam="2">  1       21 0.43616651E-01 0.46742359E+03</pdfrwt>
<totfact> 0.47464284E+02</totfact>
</mgrwt>
</event>
<event>
 6    1  0.9399121E-004  0.4205947E+03  0.7818608E-02  0.1036937E+00
         21   -1    0    0  503  502  0.00000000000E+00  0.00000000000E+00  0.11203518727E+04  0.11203518727E+04  0.00000000000E+00 0. -1.
         21   -1    0    0  501  503 -0.00000000000E+00 -0.00000000000E+00 -0.36956036051E+03  0.36956036051E+03  0.00000000000E+00 0. -1.
    9000007    2    1    2  501    0 -0.83992999551E+02  0.95850686543E+02 -0.18862788138E+03  0.46095597802E+03  0.40082135417E+03 0.  0.
    9000005    1    3    3    0    0 -0.11946750551E+03 -0.98932320384E+02 -0.21081157887E+03  0.26173003394E+03  0.99999687468E+00 0.  0.
          4    1    3    3  501    0  0.35474505956E+02  0.19478300693E+03  0.22183697490E+02  0.19922594408E+03  0.00000000000E+00 0.  1.
   -9000007    1    1    2    0  502  0.83992999551E+02 -0.95850686543E+02  0.93941939359E+03  0.10289562552E+04  0.40000000000E+03 0. -1.
<mgrwt>
<rscale>  2 0.42039894E+03</rscale>
<asrwt>0</asrwt>
<pdfrwt beam="1">  1       21 0.17236182E+00 0.42059474E+03</pdfrwt>
<pdfrwt beam="2">  1       21 0.56855441E-01 0.42059474E+03</pdfrwt>
<totfact> 0.50223591E+02</totfact>
</mgrwt>
</event>
<event>
 6    1  0.9399121E-004  0.4681718E+03  0.7818608E-02  0.1022453E+00
         21   -1    0    0  503  502  0.00000000000E+00  0.00000000000E+00  0.31962822651E+03  0.31962822651E+03  0.00000000000E+00 0. -1.
         21   -1    0    0  501  503 -0.00000000000E+00 -0.00000000000E+00 -0.72512371535E+03  0.72512371535E+03  0.00000000000E+00 0.  1.
    9000007    2    1    2  501    0 -0.24327590283E+03  0.12764707008E+01 -0.32492621936E+03  0.56969804865E+03  0.39974244750E+03 0.  0.
    9000005    1    3    3    0    0  0.73259284433E+02  0.83013178372E+02 -0.28211869549E+01  0.11075680398E+03  0.99999687468E+00 0.  0.
          4    1    3    3  501    0 -0.31653518726E+03 -0.81736707672E+02 -0.32210503241E+03  0.45894124467E+03  0.00000000000E+00 0.  1.
   -9000007    1    1    2    0  502  0.24327590283E+03 -0.12764707008E+01 -0.80569269482E+02  0.47505389321E+03  0.40000000000E+03 0. -1.
<mgrwt>
<rscale>  2 0.46811674E+03</rscale>
<asrwt>0</asrwt>
<pdfrwt beam="1">  1       21 0.49173574E-01 0.46817176E+03</pdfrwt>
<pdfrwt beam="2">  1       21 0.11155749E+00 0.46817176E+03</pdfrwt>
<totfact> 0.21338096E+03</totfact>
</mgrwt>
</event>
<event>
 6    1  0.9399121E-004  0.4919953E+03  0.7818608E-02  0.1015945E+00
         21   -1    0    0  503  502  0.00000000000E+00  0.00000000000E+00  0.50192972012E+03  0.50192972012E+03  0.00000000000E+00 0.  1.
         21   -1    0    0  501  503 -0.00000000000E+00 -0.00000000000E+00 -0.53295701444E+03  0.53295701444E+03  0.00000000000E+00 0.  1.
    9000007    2    1    2  501    0 -0.62331998593E+02 -0.27814134632E+03 -0.17638789292E+03  0.52265866992E+03  0.40101310440E+03 0.  0.
    9000005    1    3    3    0    0  0.15350958471E+03 -0.19476810167E+03 -0.14986536349E+03  0.28975926766E+03  0.99999687468E+00 0.  0.
          4    1    3    3  501    0 -0.21584158331E+03 -0.83373244643E+02 -0.26522529424E+02  0.23289940226E+03  0.00000000000E+00 0.  1.
   -9000007    1    1    2    0  502  0.62331998593E+02  0.27814134632E+03  0.14536059860E+03  0.51222806464E+03  0.40000000000E+03 0.  1.
<mgrwt>
<rscale>  2 0.49178884E+03</rscale>
<asrwt>0</asrwt>
<pdfrwt beam="1">  1       21 0.77219957E-01 0.49199532E+03</pdfrwt>
<pdfrwt beam="2">  1       21 0.81993386E-01 0.49199532E+03</pdfrwt>
<totfact> 0.16406826E+03</totfact>
</mgrwt>
</event>
<event>
 6    1  0.9399121E-004  0.4722836E+03  0.7818608E-02  0.1021310E+00
         21   -1    0    0  503  502  0.00000000000E+00  0.00000000000E+00  0.17299878150E+04  0.17299878150E+04  0.00000000000E+00 0. -1.
         21   -1    0    0  501  503 -0.00000000000E+00 -0.00000000000E+00 -0.12882615000E+03  0.12882615000E+03  0.00000000000E+00 0. -1.
    9000007    2    1    2  501    0 -0.20356605486E+03  0.14701238625E+03  0.78864007583E+03  0.91900381756E+03  0.39945346046E+03 0.  0.
    9000005    1    3    3    0    0 -0.19199081691E+03  0.25531027427E+03  0.38166938384E+03  0.49771108937E+03  0.99999687468E+00 0.  0.
          4    1    3    3  501    0 -0.11575237944E+02 -0.10829788802E+03  0.40697069199E+03  0.42129272819E+03  0.00000000000E+00 0.  1.
   -9000007    1    1    2    0  502  0.20356605486E+03 -0.14701238625E+03  0.81252158921E+03  0.93981014750E+03  0.40000000000E+03 0. -1.
<mgrwt>
<rscale>  2 0.47216784E+03</rscale>
<asrwt>0</asrwt>
<pdfrwt beam="1">  1       21 0.26615195E+00 0.47228358E+03</pdfrwt>
<pdfrwt beam="2">  1       21 0.19819409E-01 0.47228358E+03</pdfrwt>
<totfact> 0.10154630E+03</totfact>
</mgrwt>
</event>
<event>
 6    1  0.9399121E-004  0.4630364E+03  0.7818608E-02  0.1024039E+00
         21   -1    0    0  503  502  0.00000000000E+00  0.00000000000E+00  0.16465769829E+03  0.16465769829E+03  0.00000000000E+00 0.  1.
         21   -1    0    0  501  503 -0.00000000000E+00 -0.00000000000E+00 -0.13302502245E+04  0.13302502245E+04  0.00000000000E+00 0.  1.
    9000007    2    1    2  501    0 -0.12729119982E+03  0.19096031986E+03 -0.70240315497E+03  0.84129237298E+03  0.40216137483E+03 0.  0.
    9000005    1    3    3    0    0 -0.24096645586E+03  0.15866386042E+02 -0.47327280130E+03  0.53132355443E+03  0.99999687468E+00 0.  0.
          4    1    3    3  501    0  0.11367525604E+03  0.17509393381E+03 -0.22913035368E+03  0.30996881854E+03  0.00000000000E+00 0.  1.
   -9000007    1    1    2    0  502  0.12729119982E+03 -0.19096031986E+03 -0.46318937120E+03  0.65361554977E+03  0.40000000000E+03 0.  1.
<mgrwt>
<rscale>  2 0.46256665E+03</rscale>
<asrwt>0</asrwt>
<pdfrwt beam="1">  1       21 0.25331953E-01 0.46303635E+03</pdfrwt>
<pdfrwt beam="2">  1       21 0.20465389E+00 0.46303635E+03</pdfrwt>
<totfact> 0.15476783E+03</totfact>
</mgrwt>
</event>
<event>
 6    1  0.9399121E-004  0.4034429E+03  0.7818608E-02  0.1042601E+00
         21   -1    0    0  503  502  0.00000000000E+00  0.00000000000E+00  0.30849003706E+03  0.30849003706E+03  0.00000000000E+00 0. -1.
         21   -1    0    0  501  503 -0.00000000000E+00 -0.00000000000E+00 -0.99623609828E+03  0.99623609828E+03  0.00000000000E+00 0. -1.
    9000007    2    1    2  501    0  0.25539242289E+01 -0.52532757048E+02 -0.79132554551E+03  0.88819891815E+03  0.39991872442E+03 0.  0.
    9000005    1    3    3    0    0 -0.12108903758E+03 -0.61179704773E+02 -0.74280821739E+03  0.75509639061E+03  0.99999687468E+00 0.  0.
          4    1    3    3  501    0  0.12364296181E+03  0.86469477259E+01 -0.48517328114E+02  0.13310252754E+03  0.00000000000E+00 0.  1.
   -9000007    1    1    2    0  502 -0.25539242289E+01  0.52532757048E+02  0.10357948429E+03  0.41652721719E+03  0.40000000000E+03 0. -1.
<mgrwt>
<rscale>  2 0.40342280E+03</rscale>
<asrwt>0</asrwt>
<pdfrwt beam="1">  1       21 0.47460006E-01 0.40344295E+03</pdfrwt>
<pdfrwt beam="2">  1       21 0.15326709E+00 0.40344295E+03</pdfrwt>
<totfact> 0.10339956E+03</totfact>
</mgrwt>
</event>
<event>
 6    1  0.9399121E-004  0.8941869E+03  0.7818608E-02  0.9432991E-01
         21   -1    0    0  503  502  0.00000000000E+00  0.00000000000E+00  0.12804569041E+04  0.12804569041E+04  0.00000000000E+00 0. -1.
         21   -1    0    0  501  503 -0.00000000000E+00 -0.00000000000E+00 -0.10236733820E+04  0.10236733820E+04  0.00000000000E+00 0.  1.
    9000007    2    1    2  501    0  0.79120744164E+03  0.11645192147E+03 -0.59131578621E+03  0.10717169210E+04  0.39918984717E+03 0.  0.
    9000005    1    3    3    0    0  0.12441614769E+03 -0.61289313317E+02  0.31407189811E+02  0.14220818999E+03  0.99999687468E+00 0.  0.
          4    1    3    3  501    0  0.66679129395E+03  0.17774123479E+03 -0.62272297602E+03  0.92950873105E+03  0.00000000000E+00 0.  1.
   -9000007    1    1    2    0  502 -0.79120744164E+03 -0.11645192147E+03  0.84809930830E+03  0.12324133651E+04  0.40000000000E+03 0. -1.
<mgrwt>
<rscale>  2 0.89409639E+03</rscale>
<asrwt>0</asrwt>
<pdfrwt beam="1">  1       21 0.19699337E+00 0.89418693E+03</pdfrwt>
<pdfrwt beam="2">  1       21 0.15748821E+00 0.89418693E+03</pdfrwt>
<totfact> 0.23309506E+01</totfact>
</mgrwt>
</event>
<event>
 6    1  0.9399121E-004  0.5186264E+03  0.7818608E-02  0.1009039E+00
         21   -1    0    0  503  502  0.00000000000E+00  0.00000000000E+00  0.47535511816E+03  0.47535511816E+03  0.00000000000E+00 0. -1.
         21   -1    0    0  501  503 -0.00000000000E+00 -0.00000000000E+00 -0.67374887481E+03  0.67374887481E+03  0.00000000000E+00 0.  1.
    9000007    2    1    2  501    0 -0.26786054629E+03  0.19293534522E+03 -0.32932586347E+03  0.61420537053E+03  0.39977417768E+03 0.  0.
    9000005    1    3    3    0    0 -0.35696510014E+03  0.81781838827E+02 -0.18083977026E+03  0.40843160306E+03  0.99999687468E+00 0.  0.
          4    1    3    3  501    0  0.89104553849E+02  0.11115350639E+03 -0.14848609321E+03  0.20577376747E+03  0.00000000000E+00 0.  1.
   -9000007    1    1    2    0  502  0.26786054629E+03 -0.19293534522E+03  0.13093210682E+03  0.53489862244E+03  0.40000000000E+03 0.  1.
<mgrwt>
<rscale>  2 0.51858283E+03</rscale>
<asrwt>0</asrwt>
<pdfrwt beam="1">  1       21 0.73131557E-01 0.51862638E+03</pdfrwt>
<pdfrwt beam="2">  1       21 0.10365367E+00 0.51862638E+03</pdfrwt>
<totfact> 0.10511674E+03</totfact>
</mgrwt>
</event>
<event>
 6    1  0.9399121E-004  0.5430838E+03  0.7818608E-02  0.1003643E+00
         21   -1    0    0  503  502  0.00000000000E+00  0.00000000000E+00  0.50309487750E+03  0.50309487750E+03  0.00000000000E+00 0. -1.
         21   -1    0    0  501  503 -0.00000000000E+00 -0.00000000000E+00 -0.10889738338E+04  0.10889738338E+04  0.00000000000E+00 0. -1.
    9000007    2    1    2  501    0  0.18754523333E+03  0.30007573843E+03 -0.84028595910E+03  0.10005101036E+04  0.41197246383E+03 0.  0.
    9000005    1    3    3    0    0  0.23991812943E+03  0.37188052777E+03 -0.76610303485E+03  0.88474329371E+03  0.99999687468E+00 0.  0.
          4    1    3    3  501    0 -0.52372896100E+02 -0.71804789331E+02 -0.74182924249E+02  0.11576680987E+03  0.00000000000E+00 0.  1.
   -9000007    1    1    2    0  502 -0.18754523333E+03 -0.30007573843E+03  0.25440700277E+03  0.59155860775E+03  0.40000000000E+03 0. -1.
<mgrwt>
<rscale>  2 0.54081329E+03</rscale>
<asrwt>0</asrwt>
<pdfrwt beam="1">  1       21 0.77399213E-01 0.54308376E+03</pdfrwt>
<pdfrwt beam="2">  1       21 0.16753443E+00 0.54308376E+03</pdfrwt>
<totfact> 0.25849133E+02</totfact>
</mgrwt>
</event>
<event>
 6    1  0.9399121E-004  0.6392657E+03  0.7818608E-02  0.9827219E-01
         21   -1    0    0  503  502  0.00000000000E+00  0.00000000000E+00  0.16333646395E+04  0.16333646395E+04  0.00000000000E+00 0. -1.
         21   -1    0    0  501  503 -0.00000000000E+00 -0.00000000000E+00 -0.33434064252E+03  0.33434064252E+03  0.00000000000E+00 0. -1.
    9000007    2    1    2  501    0 -0.47498518598E+03 -0.15106159677E+03  0.15580268313E+03  0.65797801828E+03  0.40028747615E+03 0.  0.
    9000005    1    3    3    0    0 -0.34708716932E+03  0.94476491800E+02  0.58023243066E+02  0.36436658373E+03  0.99999687468E+00 0.  0.
          4    1    3    3  501    0 -0.12789801665E+03 -0.24553808857E+03  0.97779440067E+02  0.29361143455E+03  0.00000000000E+00 0.  1.
   -9000007    1    1    2    0  502  0.47498518598E+03  0.15106159677E+03  0.11432213138E+04  0.13097272637E+04  0.40000000000E+03 0. -1.
<mgrwt>
<rscale>  2 0.63922067E+03</rscale>
<asrwt>0</asrwt>
<pdfrwt beam="1">  1       21 0.25128686E+00 0.63926567E+03</pdfrwt>
<pdfrwt beam="2">  1       21 0.51437023E-01 0.63926567E+03</pdfrwt>
<totfact> 0.17050133E+02</totfact>
</mgrwt>
</event>
<event>
 6    1  0.9399121E-004  0.4900842E+03  0.7818608E-02  0.1016447E+00
         21   -1    0    0  503  502  0.00000000000E+00  0.00000000000E+00  0.81295387002E+03  0.81295387002E+03  0.00000000000E+00 0.  1.
         21   -1    0    0  501  503 -0.00000000000E+00 -0.00000000000E+00 -0.56076308660E+03  0.56076308660E+03  0.00000000000E+00 0.  1.
    9000007    2    1    2  501    0 -0.82501224643E+02 -0.27088016121E+03 -0.34678933551E+03  0.59979209161E+03  0.39913055023E+03 0.  0.
    9000005    1    3    3    0    0  0.23480316873E+02 -0.12825797191E+03  0.69073446234E+02  0.14755871241E+03  0.99999687468E+00 0.  0.
          4    1    3    3  501    0 -0.10598154152E+03 -0.14262218930E+03 -0.41586278175E+03  0.45223337920E+03  0.00000000000E+00 0.  1.
   -9000007    1    1    2    0  502  0.82501224643E+02  0.27088016121E+03  0.59898011894E+03  0.77392486501E+03  0.40000000000E+03 0.  1.
<mgrwt>
<rscale>  2 0.48990675E+03</rscale>
<asrwt>0</asrwt>
<pdfrwt beam="1">  1       21 0.12506983E+00 0.49008419E+03</pdfrwt>
<pdfrwt beam="2">  1       21 0.86271244E-01 0.49008419E+03</pdfrwt>
<totfact> 0.45220709E+02</totfact>
</mgrwt>
</event>
<event>
 6    1  0.9399121E-004  0.5591298E+03  0.7818608E-02  0.9994058E-01
         21   -1    0    0  503  502  0.00000000000E+00  0.00000000000E+00  0.32161003458E+03  0.32161003458E+03  0.00000000000E+00 0. -1.
         21   -1    0    0  501  503 -0.00000000000E+00 -0.00000000000E+00 -0.13454032920E+04  0.13454032920E+04  0.00000000000E+00 0. -1.
    9000007    2    1    2  501    0 -0.35528211842E+03 -0.16228747668E+03 -0.72787449067E+02  0.56384758370E+03  0.40007933731E+03 0.  0.
    9000005    1    3    3    0    0 -0.36715327988E+03 -0.15770217862E+03  0.82517909476E+02  0.40802170708E+03  0.99999687468E+00 0.  0.
          4    1    3    3  501    0  0.11871161460E+02 -0.45852980606E+01 -0.15530535854E+03  0.15582587662E+03  0.00000000000E+00 0.  1.
   -9000007    1    1    2    0  502  0.35528211842E+03  0.16228747668E+03 -0.95100580837E+03  0.11031657429E+04  0.40000000000E+03 0. -1.
<mgrwt>
<rscale>  2 0.55911556E+03</rscale>
<asrwt>0</asrwt>
<pdfrwt beam="1">  1       21 0.49478468E-01 0.55912976E+03</pdfrwt>
<pdfrwt beam="2">  1       21 0.20698512E+00 0.55912976E+03</pdfrwt>
<totfact> 0.36733370E+02</totfact>
</mgrwt>
</event>
<event>
 6    1  0.9399121E-004  0.4215001E+03  0.7818608E-02  0.1036586E+00
         21   -1    0    0  503  502  0.00000000000E+00  0.00000000000E+00  0.19174601529E+04  0.19174601529E+04  0.00000000000E+00 0. -1.
         21   -1    0    0  501  503 -0.00000000000E+00 -0.00000000000E+00 -0.95965264356E+02  0.95965264356E+02  0.00000000000E+00 0. -1.
    9000007    2    1    2  501    0  0.12771712414E+03 -0.36751050507E+02  0.10981240047E+04  0.11762111441E+04  0.39991751949E+03 0.  0.
    9000005    1    3    3    0    0  0.42922131752E+02  0.18124047229E+03  0.53237125163E+03  0.56401291452E+03  0.99999687468E+00 0.  0.
          4    1    3    3  501    0  0.84794992389E+02 -0.21799152280E+03  0.56575275307E+03  0.61219822962E+03  0.00000000000E+00 0.  1.
   -9000007    1    1    2    0  502 -0.12771712414E+03  0.36751050507E+02  0.72337088385E+03  0.83721427312E+03  0.40000000000E+03 0. -1.
<mgrwt>
<rscale>  2 0.42148049E+03</rscale>
<asrwt>0</asrwt>
<pdfrwt beam="1">  1       21 0.29499384E+00 0.42150006E+03</pdfrwt>
<pdfrwt beam="2">  1       21 0.14763888E-01 0.42150006E+03</pdfrwt>
<totfact> 0.12138676E+03</totfact>
</mgrwt>
</event>
<event>
 6    1  0.9399121E-004  0.4680526E+03  0.7818608E-02  0.1022523E+00
         21   -1    0    0  503  502  0.00000000000E+00  0.00000000000E+00  0.50008920222E+03  0.50008920222E+03  0.00000000000E+00 0.  1.
         21   -1    0    0  501  503 -0.00000000000E+00 -0.00000000000E+00 -0.57566917194E+03  0.57566917194E+03  0.00000000000E+00 0.  1.
    9000007    2    1    2  501    0 -0.18821117835E+03 -0.15378496236E+03 -0.30138496143E+03  0.55608428727E+03  0.39915357604E+03 0.  0.
    9000005    1    3    3    0    0  0.12324414224E+03 -0.78445144792E+02 -0.10962511647E+03  0.18265110318E+03  0.99999687468E+00 0.  0.
          4    1    3    3  501    0 -0.31145532060E+03 -0.75339817568E+02 -0.19175984496E+03  0.37343318409E+03  0.00000000000E+00 0.  1.
   -9000007    1    1    2    0  502  0.18821117835E+03  0.15378496236E+03  0.22580499171E+03  0.51967408689E+03  0.40000000000E+03 0.  1.
<mgrwt>
<rscale>  2 0.46787174E+03</rscale>
<asrwt>0</asrwt>
<pdfrwt beam="1">  1       21 0.76936800E-01 0.46805263E+03</pdfrwt>
<pdfrwt beam="2">  1       21 0.88564488E-01 0.46805263E+03</pdfrwt>
<totfact> 0.13931467E+03</totfact>
</mgrwt>
</event>
<event>
 6    1  0.9399121E-004  0.5101083E+03  0.7818608E-02  0.1011175E+00
         21   -1    0    0  503  502  0.00000000000E+00  0.00000000000E+00  0.45062819600E+03  0.45062819600E+03  0.00000000000E+00 0.  1.
         21   -1    0    0  501  503 -0.00000000000E+00 -0.00000000000E+00 -0.66778212832E+03  0.66778212832E+03  0.00000000000E+00 0. -1.
    9000007    2    1    2  501    0  0.29360854182E+03  0.11824576374E+03 -0.31429130454E+03  0.59915729779E+03  0.40002800766E+03 0.  0.
    9000005    1    3    3    0    0  0.27724858048E+03 -0.33408450570E+02 -0.34469788862E+03  0.44362206253E+03  0.99999687468E+00 0.  0.
          4    1    3    3  501    0  0.16359961340E+02  0.15165421431E+03  0.30406584075E+02  0.15553523526E+03  0.00000000000E+00 0.  1.
   -9000007    1    1    2    0  502 -0.29360854182E+03 -0.11824576374E+03  0.97137372229E+02  0.51925302653E+03  0.40000000000E+03 0.  1.
<mgrwt>
<rscale>  2 0.51010278E+03</rscale>
<asrwt>0</asrwt>
<pdfrwt beam="1">  1       21 0.69327415E-01 0.51010827E+03</pdfrwt>
<pdfrwt beam="2">  1       21 0.10273571E+00 0.51010827E+03</pdfrwt>
<totfact> 0.12163123E+03</totfact>
</mgrwt>
</event>
<event>
 6    1  0.9399121E-004  0.6698640E+03  0.7818608E-02  0.9771281E-01
         21   -1    0    0  503  502  0.00000000000E+00  0.00000000000E+00  0.18397130490E+04  0.18397130490E+04  0.00000000000E+00 0.  1.
         21   -1    0    0  501  503 -0.00000000000E+00 -0.00000000000E+00 -0.45843918880E+03  0.45843918880E+03  0.00000000000E+00 0. -1.
    9000007    2    1    2  501    0 -0.53667522409E+03  0.26409758004E+02 -0.97658448077E+02  0.67458870534E+03  0.39599870887E+03 0.  0.
    9000005    1    3    3    0    0 -0.44432879526E+03 -0.12560475433E+03 -0.15602611703E+03  0.48739078961E+03  0.99999687468E+00 0.  0.
          4    1    3    3  501    0 -0.92346428829E+02  0.15201451233E+03  0.58367668949E+02  0.18719791574E+03  0.00000000000E+00 0.  1.
   -9000007    1    1    2    0  502  0.53667522409E+03 -0.26409758004E+02  0.14789323082E+04  0.16235635324E+04  0.40000000000E+03 0.  1.
<mgrwt>
<rscale>  2 0.66926780E+03</rscale>
<asrwt>0</asrwt>
<pdfrwt beam="1">  1       21 0.28303277E+00 0.66986399E+03</pdfrwt>
<pdfrwt beam="2">  1       21 0.70529107E-01 0.66986399E+03</pdfrwt>
<totfact> 0.53357715E+01</totfact>
</mgrwt>
</event>
<event>
 6    1  0.9399121E-004  0.4784353E+03  0.7818608E-02  0.1019579E+00
         21   -1    0    0  503  502  0.00000000000E+00  0.00000000000E+00  0.11343849096E+03  0.11343849096E+03  0.00000000000E+00 0.  1.
         21   -1    0    0  501  503 -0.00000000000E+00 -0.00000000000E+00 -0.20570076155E+04  0.20570076155E+04  0.00000000000E+00 0.  1.
    9000007    2    1    2  501    0  0.26241836536E+03 -0.60813701715E+01 -0.11228368503E+04  0.12204451341E+04  0.39977912826E+03 0.  0.
    9000005    1    3    3    0    0  0.24360798048E+01  0.51688159514E+02 -0.80115121486E+03  0.80282119391E+03  0.99999687468E+00 0.  0.
          4    1    3    3  501    0  0.25998228555E+03 -0.57769529686E+02 -0.32168563540E+03  0.41762394015E+03  0.00000000000E+00 0.  1.
   -9000007    1    1    2    0  502 -0.26241836536E+03  0.60813701715E+01 -0.82073227424E+03  0.95000097238E+03  0.40000000000E+03 0.  1.
<mgrwt>
<rscale>  2 0.47838918E+03</rscale>
<asrwt>0</asrwt>
<pdfrwt beam="1">  1       21 0.17452077E-01 0.47843535E+03</pdfrwt>
<pdfrwt beam="2">  1       21 0.31646269E+00 0.47843535E+03</pdfrwt>
<totfact> 0.63958377E+02</totfact>
</mgrwt>
</event>
<event>
 6    1  0.9399121E-004  0.4662696E+03  0.7818608E-02  0.1023067E+00
         21   -1    0    0  503  502  0.00000000000E+00  0.00000000000E+00  0.50699105350E+03  0.50699105350E+03  0.00000000000E+00 0.  1.
         21   -1    0    0  501  503 -0.00000000000E+00 -0.00000000000E+00 -0.42823648914E+03  0.42823648914E+03  0.00000000000E+00 0.  1.
    9000007    2    1    2  501    0 -0.13173397298E+03 -0.20013376645E+03  0.56136720121E+02  0.46840966489E+03  0.39855855116E+03 0.  0.
    9000005    1    3    3    0    0 -0.21257460636E+03  0.17269112041E+02  0.94564106616E+02  0.23330142681E+03  0.99999687468E+00 0.  0.
          4    1    3    3  501    0  0.80840633374E+02 -0.21740287849E+03 -0.38427386495E+02  0.23510823808E+03  0.00000000000E+00 0.  1.
   -9000007    1    1    2    0  502  0.13173397298E+03  0.20013376645E+03  0.22617844237E+02  0.46681787775E+03  0.40000000000E+03 0.  1.
<mgrwt>
<rscale>  2 0.46596032E+03</rscale>
<asrwt>0</asrwt>
<pdfrwt beam="1">  1       21 0.77998623E-01 0.46626963E+03</pdfrwt>
<pdfrwt beam="2">  1       21 0.65882537E-01 0.46626963E+03</pdfrwt>
<totfact> 0.26620581E+03</totfact>
</mgrwt>
</event>
<event>
 6    1  0.9399121E-004  0.4893387E+03  0.7818608E-02  0.1016644E+00
         21   -1    0    0  503  502  0.00000000000E+00  0.00000000000E+00  0.63427605559E+03  0.63427605559E+03  0.00000000000E+00 0.  1.
         21   -1    0    0  501  503 -0.00000000000E+00 -0.00000000000E+00 -0.40847241839E+03  0.40847241839E+03  0.00000000000E+00 0.  1.
    9000007    2    1    2  501    0 -0.62330332655E+02  0.27489509308E+03 -0.31850176757E+02  0.48972237114E+03  0.39920068195E+03 0.  0.
    9000005    1    3    3    0    0 -0.13427267590E+02  0.60129396369E+02  0.17624448957E+03  0.18670553265E+03  0.99999687468E+00 0.  0.
          4    1    3    3  501    0 -0.48903065065E+02  0.21476569671E+03 -0.20809466633E+03  0.30301683850E+03  0.00000000000E+00 0.  1.
   -9000007    1    1    2    0  502  0.62330332655E+02 -0.27489509308E+03  0.25765381395E+03  0.55302610283E+03  0.40000000000E+03 0.  1.
<mgrwt>
<rscale>  2 0.48917535E+03</rscale>
<asrwt>0</asrwt>
<pdfrwt beam="1">  1       21 0.97580931E-01 0.48933872E+03</pdfrwt>
<pdfrwt beam="2">  1       21 0.62841911E-01 0.48933872E+03</pdfrwt>
<totfact> 0.17297931E+03</totfact>
</mgrwt>
</event>
<event>
 6    1  0.9399121E-004  0.4531995E+03  0.7818608E-02  0.1026783E+00
         21   -1    0    0  503  502  0.00000000000E+00  0.00000000000E+00  0.15081353603E+04  0.15081353603E+04  0.00000000000E+00 0.  1.
         21   -1    0    0  501  503 -0.00000000000E+00 -0.00000000000E+00 -0.30096479106E+03  0.30096479106E+03  0.00000000000E+00 0. -1.
    9000007    2    1    2  501    0 -0.27598178729E+02 -0.21092817728E+03 -0.65764789166E+02  0.45794628072E+03  0.40017175449E+03 0.  0.
    9000005    1    3    3    0    0 -0.14005088495E+03 -0.21559829283E+03 -0.16699440722E+03  0.30656974130E+03  0.99999687468E+00 0.  0.
          4    1    3    3  501    0  0.11245270622E+03  0.46701155422E+01  0.10122961805E+03  0.15137653942E+03  0.00000000000E+00 0.  1.
   -9000007    1    1    2    0  502  0.27598178729E+02  0.21092817728E+03  0.12729353584E+04  0.13511538706E+04  0.40000000000E+03 0.  1.
<mgrwt>
<rscale>  2 0.45316158E+03</rscale>
<asrwt>0</asrwt>
<pdfrwt beam="1">  1       21 0.23202082E+00 0.45319950E+03</pdfrwt>
<pdfrwt beam="2">  1       21 0.46302276E-01 0.45319950E+03</pdfrwt>
<totfact> 0.30639504E+02</totfact>
</mgrwt>
</event>
<event>
 6    1  0.9399121E-004  0.4042942E+03  0.7818608E-02  0.1042310E+00
         21   -1    0    0  503  502  0.00000000000E+00  0.00000000000E+00  0.39741171120E+03  0.39741171120E+03  0.00000000000E+00 0.  1.
         21   -1    0    0  501  503 -0.00000000000E+00 -0.00000000000E+00 -0.43375112455E+03  0.43375112455E+03  0.00000000000E+00 0.  1.
    9000007    2    1    2  501    0 -0.57172726740E+02 -0.13603849837E+02 -0.11289743969E+03  0.41968389728E+03  0.39991868715E+03 0.  0.
    9000005    1    3    3    0    0 -0.14257825087E+03  0.63561132796E+02  0.94503506030E+02  0.18248421266E+03  0.99999687468E+00 0.  0.
          4    1    3    3  501    0  0.85405524134E+02 -0.77164982633E+02 -0.20740094572E+03  0.23719968462E+03  0.00000000000E+00 0.  1.
   -9000007    1    1    2    0  502  0.57172726740E+02  0.13603849837E+02  0.76558026337E+02  0.41147893848E+03  0.40000000000E+03 0.  1.
<mgrwt>
<rscale>  2 0.40427407E+03</rscale>
<asrwt>0</asrwt>
<pdfrwt beam="1">  1       21 0.61140263E-01 0.40429418E+03</pdfrwt>
<pdfrwt beam="2">  1       21 0.66730942E-01 0.40429418E+03</pdfrwt>
<totfact> 0.45703336E+03</totfact>
</mgrwt>
</event>
<event>
 6    1  0.9399121E-004  0.6389480E+03  0.7818608E-02  0.9827818E-01
         21   -1    0    0  503  502  0.00000000000E+00  0.00000000000E+00  0.15661426478E+04  0.15661426478E+04  0.00000000000E+00 0.  1.
         21   -1    0    0  501  503 -0.00000000000E+00 -0.00000000000E+00 -0.47419631630E+03  0.47419631630E+03  0.00000000000E+00 0. -1.
    9000007    2    1    2  501    0 -0.49552865632E+03  0.52018369703E+02 -0.13873266873E+03  0.65367917828E+03  0.39974386141E+03 0.  0.
    9000005    1    3    3    0    0 -0.21122294397E+03 -0.17379201920E+03 -0.86421664547E+02  0.28685972546E+03  0.99999687468E+00 0.  0.
          4    1    3    3  501    0 -0.28430571235E+03  0.22581038890E+03 -0.52311004183E+02  0.36681945282E+03  0.00000000000E+00 0.  1.
   -9000007    1    1    2    0  502  0.49552865632E+03 -0.52018369703E+02  0.12306790002E+04  0.13866597858E+04  0.40000000000E+03 0.  1.
<mgrwt>
<rscale>  2 0.63890793E+03</rscale>
<asrwt>0</asrwt>
<pdfrwt beam="1">  1       21 0.24094502E+00 0.63894801E+03</pdfrwt>
<pdfrwt beam="2">  1       21 0.72953280E-01 0.63894801E+03</pdfrwt>
<totfact> 0.91206653E+01</totfact>
</mgrwt>
</event>
<event>
 6    1  0.9399121E-004  0.4500275E+03  0.7818608E-02  0.1027763E+00
         21   -1    0    0  503  502  0.00000000000E+00  0.00000000000E+00  0.12382098186E+04  0.12382098186E+04  0.00000000000E+00 0.  1.
         21   -1    0    0  501  503 -0.00000000000E+00 -0.00000000000E+00 -0.40926790945E+03  0.40926790945E+03  0.00000000000E+00 0. -1.
    9000007    2    1    2  501    0  0.18585507224E+03 -0.89345825514E+02 -0.22421295511E+03  0.50220048976E+03  0.39926068960E+03 0.  0.
    9000005    1    3    3    0    0  0.14668631856E+03 -0.23924219428E+03 -0.20180566437E+03  0.34565912362E+03  0.99999687468E+00 0.  0.
          4    1    3    3  501    0  0.39168753681E+02  0.14989636877E+03 -0.22407290739E+02  0.15654136614E+03  0.00000000000E+00 0.  1.
   -9000007    1    1    2    0  502 -0.18585507224E+03  0.89345825514E+02  0.10531548643E+04  0.11452772383E+04  0.40000000000E+03 0.  1.
<mgrwt>
<rscale>  2 0.44986320E+03</rscale>
<asrwt>0</asrwt>
<pdfrwt beam="1">  1       21 0.19049382E+00 0.45002754E+03</pdfrwt>
<pdfrwt beam="2">  1       21 0.62964294E-01 0.45002754E+03</pdfrwt>
<totfact> 0.29528386E+02</totfact>
</mgrwt>
</event>
<event>
 6    1  0.9399121E-004  0.4930864E+03  0.7818608E-02  0.1015617E+00
         21   -1    0    0  503  502  0.00000000000E+00  0.00000000000E+00  0.94314782418E+03  0.94314782418E+03  0.00000000000E+00 0. -1.
         21   -1    0    0  501  503 -0.00000000000E+00 -0.00000000000E+00 -0.67590928545E+03  0.67590928545E+03  0.00000000000E+00 0.  1.
    9000007    2    1    2  501    0 -0.23469619698E+03 -0.16748696580E+03 -0.50320779590E+03  0.70433215471E+03  0.39966424624E+03 0.  0.
    9000005    1    3    3    0    0 -0.23271582278E+03 -0.22634269143E+03 -0.17094973414E+03  0.36689573414E+03  0.99999687468E+00 0.  0.
          4    1    3    3  501    0 -0.19803741975E+01  0.58855725629E+02 -0.33225806176E+03  0.33743642057E+03  0.00000000000E+00 0.  1.
   -9000007    1    1    2    0  502  0.23469619698E+03  0.16748696580E+03  0.77044633463E+03  0.91472495491E+03  0.40000000000E+03 0. -1.
<mgrwt>
<rscale>  2 0.49301829E+03</rscale>
<asrwt>0</asrwt>
<pdfrwt beam="1">  1       21 0.14509966E+00 0.49308639E+03</pdfrwt>
<pdfrwt beam="2">  1       21 0.10398604E+00 0.49308639E+03</pdfrwt>
<totfact> 0.19494524E+02</totfact>
</mgrwt>
</event>
<event>
 6    1  0.9399121E-004  0.6360184E+03  0.7818608E-02  0.9833436E-01
         21   -1    0    0  503  502  0.00000000000E+00  0.00000000000E+00  0.23440433251E+04  0.23440433251E+04  0.00000000000E+00 0. -1.
         21   -1    0    0  501  503 -0.00000000000E+00 -0.00000000000E+00 -0.37894341944E+03  0.37894341944E+03  0.00000000000E+00 0. -1.
    9000007    2    1    2  501    0  0.29028064624E+03  0.40032053276E+03 -0.22315082620E+02  0.63628175385E+03  0.39979635421E+03 0.  0.
    9000005    1    3    3    0    0 -0.76096532803E+02  0.14240246483E+03 -0.87276777998E+02  0.18354122225E+03  0.99999687468E+00 0.  0.
          4    1    3    3  501    0  0.36637717904E+03  0.25791806793E+03  0.64961695378E+02  0.45274053160E+03  0.00000000000E+00 0.  1.
   -9000007    1    1    2    0  502 -0.29028064624E+03 -0.40032053276E+03  0.19874149883E+04  0.20867049907E+04  0.40000000000E+03 0. -1.
<mgrwt>
<rscale>  2 0.63598637E+03</rscale>
<asrwt>0</asrwt>
<pdfrwt beam="1">  1       21 0.36062204E+00 0.63601838E+03</pdfrwt>
<pdfrwt beam="2">  1       21 0.58298989E-01 0.63601838E+03</pdfrwt>
<totfact> 0.27620228E+01</totfact>
</mgrwt>
</event>
<event>
 6    1  0.9399121E-004  0.4023182E+03  0.7818608E-02  0.1043069E+00
         21   -1    0    0  503  502  0.00000000000E+00  0.00000000000E+00  0.16013394187E+03  0.16013394187E+03  0.00000000000E+00 0. -1.
         21   -1    0    0  501  503 -0.00000000000E+00 -0.00000000000E+00 -0.10114283823E+04  0.10114283823E+04  0.00000000000E+00 0. -1.
    9000007    2    1    2  501    0 -0.36298224953E+02  0.23288627343E+02 -0.39184731901E+03  0.56086470779E+03  0.39895485675E+03 0.  0.
    9000005    1    3    3    0    0 -0.17512796180E+03  0.71185002161E+01 -0.36524103207E+02  0.17904045956E+03  0.99999687468E+00 0.  0.
          4    1    3    3  501    0  0.13882973685E+03  0.16170127127E+02 -0.35532321581E+03  0.38182424823E+03  0.00000000000E+00 0.  1.
   -9000007    1    1    2    0  502  0.36298224953E+02 -0.23288627343E+02 -0.45944712145E+03  0.61069761643E+03  0.40000000000E+03 0. -1.
<mgrwt>
<rscale>  2 0.40205816E+03</rscale>
<asrwt>0</asrwt>
<pdfrwt beam="1">  1       21 0.24635991E-01 0.40231818E+03</pdfrwt>
<pdfrwt beam="2">  1       21 0.15560437E+00 0.40231818E+03</pdfrwt>
<totfact> 0.37237324E+03</totfact>
</mgrwt>
</event>
<event>
 6    1  0.9399121E-004  0.4582478E+03  0.7818608E-02  0.1025316E+00
         21   -1    0    0  503  502  0.00000000000E+00  0.00000000000E+00  0.12455299883E+03  0.12455299883E+03  0.00000000000E+00 0.  1.
         21   -1    0    0  501  503 -0.00000000000E+00 -0.00000000000E+00 -0.17381432340E+04  0.17381432340E+04  0.00000000000E+00 0. -1.
    9000007    2    1    2  501    0 -0.17970597976E+02  0.22286345250E+03 -0.64319292534E+03  0.78954107173E+03  0.39960843821E+03 0.  0.
    9000005    1    3    3    0    0  0.94789926279E+02  0.30354728053E+03 -0.42042004610E+03  0.52714333611E+03  0.99999687468E+00 0.  0.
          4    1    3    3  501    0 -0.11276052425E+03 -0.80683828030E+02 -0.22277287924E+03  0.26239773562E+03  0.00000000000E+00 0.  1.
   -9000007    1    1    2    0  502  0.17970597976E+02 -0.22286345250E+03 -0.97039730979E+03  0.10731551611E+04  0.40000000000E+03 0. -1.
<mgrwt>
<rscale>  2 0.45816235E+03</rscale>
<asrwt>0</asrwt>
<pdfrwt beam="1">  1       21 0.19161999E-01 0.45824782E+03</pdfrwt>
<pdfrwt beam="2">  1       21 0.26740666E+00 0.45824782E+03</pdfrwt>
<totfact> 0.10712782E+03</totfact>
</mgrwt>
</event>
<event>
 6    1  0.9399121E-004  0.4121362E+03  0.7818608E-02  0.1039736E+00
         21   -1    0    0  503  502  0.00000000000E+00  0.00000000000E+00  0.25192462970E+03  0.25192462970E+03  0.00000000000E+00 0.  1.
         21   -1    0    0  501  503 -0.00000000000E+00 -0.00000000000E+00 -0.11812306734E+04  0.11812306734E+04  0.00000000000E+00 0.  1.
    9000007    2    1    2  501    0  0.95253760605E+02 -0.12473050688E+01 -0.93513543493E+03  0.10219268794E+04  0.40097559829E+03 0.  0.
    9000005    1    3    3    0    0  0.20489377176E+03  0.53833997076E+01 -0.22912991718E+03  0.30742797147E+03  0.99999687468E+00 0.  0.
          4    1    3    3  501    0 -0.10964001116E+03 -0.66307047764E+01 -0.70600551775E+03  0.71449890789E+03  0.00000000000E+00 0.  1.
   -9000007    1    1    2    0  502 -0.95253760605E+02  0.12473050688E+01  0.58293912345E+01  0.41122842373E+03  0.40000000000E+03 0.  1.
<mgrwt>
<rscale>  2 0.41189874E+03</rscale>
<asrwt>0</asrwt>
<pdfrwt beam="1">  1       21 0.38757636E-01 0.41213622E+03</pdfrwt>
<pdfrwt beam="2">  1       21 0.18172779E+00 0.41213622E+03</pdfrwt>
<totfact> 0.96954501E+02</totfact>
</mgrwt>
</event>
<event>
 6    1  0.9399121E-004  0.4907028E+03  0.7818608E-02  0.1016238E+00
         21   -1    0    0  503  502  0.00000000000E+00  0.00000000000E+00  0.29643634902E+03  0.29643634902E+03  0.00000000000E+00 0. -1.
         21   -1    0    0  501  503 -0.00000000000E+00 -0.00000000000E+00 -0.86351194857E+03  0.86351194857E+03  0.00000000000E+00 0.  1.
    9000007    2    1    2  501    0  0.97997320608E+02 -0.26680666963E+03 -0.42491197696E+03  0.64906693231E+03  0.39993552061E+03 0.  0.
    9000005    1    3    3    0    0 -0.85214087084E+02 -0.46203151918E+02 -0.33469163294E+03  0.34844750112E+03  0.99999687468E+00 0.  0.
          4    1    3    3  501    0  0.18321140769E+03 -0.22060351771E+03 -0.90220344030E+02  0.30061943119E+03  0.00000000000E+00 0.  1.
   -9000007    1    1    2    0  502 -0.97997320608E+02  0.26680666963E+03 -0.14216362259E+03  0.51088136528E+03  0.40000000000E+03 0.  1.
<mgrwt>
<rscale>  2 0.49068970E+03</rscale>
<asrwt>0</asrwt>
<pdfrwt beam="1">  1       21 0.45605593E-01 0.49070284E+03</pdfrwt>
<pdfrwt beam="2">  1       21 0.13284799E+00 0.49070284E+03</pdfrwt>
<totfact> 0.15885307E+03</totfact>
</mgrwt>
</event>
<event>
 6    1  0.9399121E-004  0.4524427E+03  0.7818608E-02  0.1027062E+00
         21   -1    0    0  503  502  0.00000000000E+00  0.00000000000E+00  0.12246718612E+04  0.12246718612E+04  0.00000000000E+00 0.  1.
         21   -1    0    0  501  503 -0.00000000000E+00 -0.00000000000E+00 -0.17779287294E+03  0.17779287294E+03  0.00000000000E+00 0.  1.
    9000007    2    1    2  501    0  0.20935562223E+03 -0.82169212147E+01  0.69812543969E+03  0.83191558466E+03  0.40100762598E+03 0.  0.
    9000005    1    3    3    0    0  0.91684113695E+02  0.92205046097E+02  0.65986796082E+03  0.67255815581E+03  0.99999687468E+00 0.  0.
          4    1    3    3  501    0  0.11767150853E+03 -0.10042196731E+03  0.38257478866E+02  0.15935742885E+03  0.00000000000E+00 0.  1.
   -9000007    1    1    2    0  502 -0.20935562223E+03  0.82169212147E+01  0.34875354861E+03  0.57054914952E+03  0.40000000000E+03 0.  1.
<mgrwt>
<rscale>  2 0.45221934E+03</rscale>
<asrwt>0</asrwt>
<pdfrwt beam="1">  1       21 0.18841105E+00 0.45244272E+03</pdfrwt>
<pdfrwt beam="2">  1       21 0.27352750E-01 0.45244272E+03</pdfrwt>
<totfact> 0.17210887E+03</totfact>
</mgrwt>
</event>
<event>
 6    1  0.9399121E-004  0.4590807E+03  0.7818608E-02  0.1025071E+00
         21   -1    0    0  503  502  0.00000000000E+00  0.00000000000E+00  0.87187361980E+03  0.87187361980E+03  0.00000000000E+00 0.  1.
         21   -1    0    0  501  503 -0.00000000000E+00 -0.00000000000E+00 -0.25236596208E+03  0.25236596208E+03  0.00000000000E+00 0. -1.
    9000007    2    1    2  501    0 -0.22382847402E+03 -0.25611494480E+02  0.19335786653E+03  0.49785409437E+03  0.39964521804E+03 0.  0.
    9000005    1    3    3    0    0  0.44522101623E+01 -0.11401847175E+03 -0.73490427542E+02  0.13572721543E+03  0.99999687468E+00 0.  0.
          4    1    3    3  501    0 -0.22828068418E+03  0.88406977268E+02  0.26684829407E+03  0.36212687894E+03  0.00000000000E+00 0.  1.
   -9000007    1    1    2    0  502  0.22382847402E+03  0.25611494480E+02  0.42614979119E+03  0.62638548751E+03  0.40000000000E+03 0.  1.
<mgrwt>
<rscale>  2 0.45900346E+03</rscale>
<asrwt>0</asrwt>
<pdfrwt beam="1">  1       21 0.13413440E+00 0.45908075E+03</pdfrwt>
<pdfrwt beam="2">  1       21 0.38825533E-01 0.45908075E+03</pdfrwt>
<totfact> 0.21897827E+03</totfact>
</mgrwt>
</event>
<event>
 6    1  0.9399121E-004  0.4059873E+03  0.7818608E-02  0.1041990E+00
         21   -1    0    0  503  502  0.00000000000E+00  0.00000000000E+00  0.21037294406E+03  0.21037294406E+03  0.00000000000E+00 0.  1.
         21   -1    0    0  501  503 -0.00000000000E+00 -0.00000000000E+00 -0.13952266352E+04  0.13952266352E+04  0.00000000000E+00 0.  1.
    9000007    2    1    2  501    0  0.84213250066E+01 -0.47474754124E+02 -0.59532831801E+02  0.41032897917E+03  0.40311405593E+03 0.  0.
    9000005    1    3    3    0    0 -0.80759951433E+02  0.43147750420E+02 -0.20054429351E+03  0.22046068079E+03  0.99999687468E+00 0.  0.
          4    1    3    3  501    0  0.89181276440E+02 -0.90622504544E+02  0.14101146171E+03  0.18986829838E+03  0.00000000000E+00 0.  1.
   -9000007    1    1    2    0  502 -0.84213250066E+01  0.47474754124E+02 -0.11253208594E+04  0.11952706001E+04  0.40000000000E+03 0.  1.
<mgrwt>
<rscale>  2 0.40521215E+03</rscale>
<asrwt>0</asrwt>
<pdfrwt beam="1">  1       21 0.32365067E-01 0.40598733E+03</pdfrwt>
<pdfrwt beam="2">  1       21 0.21465026E+00 0.40598733E+03</pdfrwt>
<totfact> 0.84380863E+02</totfact>
</mgrwt>
</event>
<event>
 6    1  0.9399121E-004  0.4149676E+03  0.7818608E-02  0.1038721E+00
         21   -1    0    0  503  502  0.00000000000E+00  0.00000000000E+00  0.49747256924E+03  0.49747256924E+03  0.00000000000E+00 0.  1.
         21   -1    0    0  501  503 -0.00000000000E+00 -0.00000000000E+00 -0.64206558713E+03  0.64206558713E+03  0.00000000000E+00 0.  1.
    9000007    2    1    2  501    0  0.50099388977E+02  0.98213865255E+02 -0.45913518339E+03  0.61887253817E+03  0.40005273374E+03 0.  0.
    9000005    1    3    3    0    0 -0.11198244125E+03  0.11237274092E+03 -0.42360616425E+03  0.45233934434E+03  0.99999687468E+00 0.  0.
          4    1    3    3  501    0  0.16208183022E+03 -0.14158875660E+02 -0.35529019132E+02  0.16653319383E+03  0.00000000000E+00 0.  1.
   -9000007    1    1    2    0  502 -0.50099388977E+02 -0.98213865255E+02  0.31454216549E+03  0.52066561820E+03  0.40000000000E+03 0. -1.
<mgrwt>
<rscale>  2 0.41495488E+03</rscale>
<asrwt>0</asrwt>
<pdfrwt beam="1">  1       21 0.76534241E-01 0.41496759E+03</pdfrwt>
<pdfrwt beam="2">  1       21 0.98779322E-01 0.41496759E+03</pdfrwt>
<totfact> 0.11103299E+03</totfact>
</mgrwt>
</event>
<event>
 6    1  0.9399121E-004  0.6191886E+03  0.7818608E-02  0.9866405E-01
         21   -1    0    0  503  502  0.00000000000E+00  0.00000000000E+00  0.36824679810E+03  0.36824679810E+03  0.00000000000E+00 0.  1.
         21   -1    0    0  501  503 -0.00000000000E+00 -0.00000000000E+00 -0.11578783219E+04  0.11578783219E+04  0.00000000000E+00 0.  1.
    9000007    2    1    2  501    0  0.34477499079E+03  0.32319174731E+03 -0.15243571867E+03  0.63767636296E+03  0.40008973463E+03 0.  0.
    9000005    1    3    3    0    0  0.30765401111E+03  0.18702194090E+02 -0.39233069275E+02  0.31071047027E+03  0.99999687468E+00 0.  0.
          4    1    3    3  501    0  0.37120979672E+02  0.30448955322E+03 -0.11320264940E+03  0.32696589269E+03  0.00000000000E+00 0.  1.
   -9000007    1    1    2    0  502 -0.34477499079E+03 -0.32319174731E+03 -0.63719580514E+03  0.88844875704E+03  0.40000000000E+03 0.  1.
<mgrwt>
<rscale>  2 0.61917408E+03</rscale>
<asrwt>0</asrwt>
<pdfrwt beam="1">  1       21 0.56653353E-01 0.61918858E+03</pdfrwt>
<pdfrwt beam="2">  1       21 0.17813513E+00 0.61918858E+03</pdfrwt>
<totfact> 0.42349717E+02</totfact>
</mgrwt>
</event>
<event>
 6    1  0.9399121E-004  0.4371239E+03  0.7818608E-02  0.1031638E+00
         21   -1    0    0  503  502  0.00000000000E+00  0.00000000000E+00  0.13526364946E+03  0.13526364946E+03  0.00000000000E+00 0. -1.
         21   -1    0    0  501  503 -0.00000000000E+00 -0.00000000000E+00 -0.14126528941E+04  0.14126528941E+04  0.00000000000E+00 0. -1.
    9000007    2    1    2  501    0 -0.83156142458E+02  0.15544238320E+03 -0.64866523078E+03  0.78216778310E+03  0.39992821953E+03 0.  0.
    9000005    1    3    3    0    0 -0.21230129075E+03  0.20719031218E+03 -0.41296160578E+03  0.50846627357E+03  0.99999687468E+00 0.  0.
          4    1    3    3  501    0  0.12914514829E+03 -0.51747928987E+02 -0.23570362499E+03  0.27370150952E+03  0.00000000000E+00 0.  1.
   -9000007    1    1    2    0  502  0.83156142458E+02 -0.15544238320E+03 -0.62872401383E+03  0.76574876042E+03  0.40000000000E+03 0. -1.
<mgrwt>
<rscale>  2 0.43710745E+03</rscale>
<asrwt>0</asrwt>
<pdfrwt beam="1">  1       21 0.20809793E-01 0.43712387E+03</pdfrwt>
<pdfrwt beam="2">  1       21 0.21733121E+00 0.43712387E+03</pdfrwt>
<totfact> 0.18919715E+03</totfact>
</mgrwt>
</event>
<event>
 6    1  0.9399121E-004  0.4606257E+03  0.7818608E-02  0.1024663E+00
         21   -1    0    0  503  502  0.00000000000E+00  0.00000000000E+00  0.98437119871E+02  0.98437119871E+02  0.00000000000E+00 0. -1.
         21   -1    0    0  501  503 -0.00000000000E+00 -0.00000000000E+00 -0.21555877774E+04  0.21555877774E+04  0.00000000000E+00 0. -1.
    9000007    2    1    2  501    0 -0.16163721388E+03  0.16139829992E+03 -0.10775795838E+04  0.11715575820E+04  0.39899048662E+03 0.  0.
    9000005    1    3    3    0    0 -0.13685137829E+03  0.23481200845E+03 -0.36654041338E+03  0.45630894544E+03  0.99999687468E+00 0.  0.
          4    1    3    3  501    0 -0.24785835588E+02 -0.73413708531E+02 -0.71103917043E+03  0.71524863658E+03  0.00000000000E+00 0.  1.
   -9000007    1    1    2    0  502  0.16163721388E+03 -0.16139829992E+03 -0.97957107375E+03  0.10824673153E+04  0.40000000000E+03 0. -1.
<mgrwt>
<rscale>  2 0.46040641E+03</rscale>
<asrwt>0</asrwt>
<pdfrwt beam="1">  1       21 0.15144174E-01 0.46062566E+03</pdfrwt>
<pdfrwt beam="2">  1       21 0.33162886E+00 0.46062566E+03</pdfrwt>
<totfact> 0.68149544E+02</totfact>
</mgrwt>
</event>
<event>
 6    1  0.9399121E-004  0.5014972E+03  0.7818608E-02  0.1013889E+00
         21   -1    0    0  503  502  0.00000000000E+00  0.00000000000E+00  0.53449661865E+03  0.53449661865E+03  0.00000000000E+00 0. -1.
         21   -1    0    0  501  503 -0.00000000000E+00 -0.00000000000E+00 -0.53933253827E+03  0.53933253827E+03  0.00000000000E+00 0.  1.
    9000007    2    1    2  501    0 -0.12982322823E+03 -0.25892961960E+03 -0.20389290278E+03  0.54136103483E+03  0.40939081052E+03 0.  0.
    9000005    1    3    3    0    0 -0.27433027907E+02  0.94298969130E+02  0.33337079133E+02  0.10371705471E+03  0.99999687468E+00 0.  0.
          4    1    3    3  501    0 -0.10239020033E+03 -0.35322858873E+03 -0.23722998191E+03  0.43764398012E+03  0.00000000000E+00 0.  1.
   -9000007    1    1    2    0  502  0.12982322823E+03  0.25892961960E+03  0.19905698315E+03  0.53246812209E+03  0.40000000000E+03 0.  1.
<mgrwt>
<rscale>  2 0.49957714E+03</rscale>
<asrwt>0</asrwt>
<pdfrwt beam="1">  1       21 0.82230249E-01 0.50149721E+03</pdfrwt>
<pdfrwt beam="2">  1       21 0.82974237E-01 0.50149721E+03</pdfrwt>
<totfact> 0.13752463E+03</totfact>
</mgrwt>
</event>
<event>
 6    1  0.9399121E-004  0.4154333E+03  0.7818608E-02  0.1039335E+00
         21   -1    0    0  503  502  0.00000000000E+00  0.00000000000E+00  0.48475241546E+03  0.48475241546E+03  0.00000000000E+00 0.  1.
         21   -1    0    0  501  503 -0.00000000000E+00 -0.00000000000E+00 -0.39583811913E+03  0.39583811913E+03  0.00000000000E+00 0. -1.
    9000007    2    1    2  501    0 -0.11021550007E+03  0.20913555870E+02 -0.10879966595E+03  0.42050832003E+03  0.39039088953E+03 0.  0.
    9000005    1    3    3    0    0 -0.23781102368E+03  0.31277914088E+02  0.17728543800E+02  0.24051547175E+03  0.99999687468E+00 0.  0.
          4    1    3    3  501    0  0.12759552361E+03 -0.10364358218E+02 -0.12652820975E+03  0.17999284827E+03  0.00000000000E+00 0.  1.
   -9000007    1    1    2    0  502  0.11021550007E+03 -0.20913555870E+02  0.19771396228E+03  0.46008221456E+03  0.40000000000E+03 0.  1.
<mgrwt>
<rscale>  2 0.41310281E+03</rscale>
<asrwt>0</asrwt>
<pdfrwt beam="1">  1       21 0.74577294E-01 0.41543331E+03</pdfrwt>
<pdfrwt beam="2">  1       21 0.60898172E-01 0.41543331E+03</pdfrwt>
<totfact> 0.35749323E+03</totfact>
</mgrwt>
</event>
<event>
 6    1  0.9399121E-004  0.4204350E+03  0.7818608E-02  0.1036945E+00
         21   -1    0    0  503  502  0.00000000000E+00  0.00000000000E+00  0.25621162992E+03  0.25621162992E+03  0.00000000000E+00 0. -1.
         21   -1    0    0  501  503 -0.00000000000E+00 -0.00000000000E+00 -0.82156005812E+03  0.82156005812E+03  0.00000000000E+00 0. -1.
    9000007    2    1    2  501    0 -0.10775872398E+03  0.70342021797E+02 -0.49878208076E+03  0.65234129275E+03  0.40025698685E+03 0.  0.
    9000005    1    3    3    0    0  0.13651305334E+03  0.89788819957E+02 -0.12646659840E+03  0.20662198921E+03  0.99999687468E+00 0.  0.
          4    1    3    3  501    0 -0.24427177731E+03 -0.19446798160E+02 -0.37231548235E+03  0.44571930354E+03  0.00000000000E+00 0.  1.
   -9000007    1    1    2    0  502  0.10775872398E+03 -0.70342021797E+02 -0.66566347451E+02  0.42543039529E+03  0.40000000000E+03 0. -1.
<mgrwt>
<rscale>  2 0.42037384E+03</rscale>
<asrwt>0</asrwt>
<pdfrwt beam="1">  1       21 0.39417174E-01 0.42043501E+03</pdfrwt>
<pdfrwt beam="2">  1       21 0.12639385E+00 0.42043501E+03</pdfrwt>
<totfact> 0.25141670E+03</totfact>
</mgrwt>
</event>
<event>
 6    1  0.9399121E-004  0.4746216E+03  0.7818608E-02  0.1020647E+00
         21   -1    0    0  503  502  0.00000000000E+00  0.00000000000E+00  0.17246754341E+03  0.17246754341E+03  0.00000000000E+00 0.  1.
         21   -1    0    0  501  503 -0.00000000000E+00 -0.00000000000E+00 -0.15016784351E+04  0.15016784351E+04  0.00000000000E+00 0.  1.
    9000007    2    1    2  501    0 -0.16801709551E+02  0.25491841606E+03 -0.96716539627E+03  0.10772015615E+04  0.39961056539E+03 0.  0.
    9000005    1    3    3    0    0  0.17981684469E+03  0.45696237162E+02 -0.33656615507E+03  0.38431760362E+03  0.99999687468E+00 0.  0.
          4    1    3    3  501    0 -0.19661855424E+03  0.20922217890E+03 -0.63059924121E+03  0.69288395784E+03  0.00000000000E+00 0.  1.
   -9000007    1    1    2    0  502  0.16801709551E+02 -0.25491841606E+03 -0.36204549543E+03  0.59694441706E+03  0.40000000000E+03 0.  1.
<mgrwt>
<rscale>  2 0.47453957E+03</rscale>
<asrwt>0</asrwt>
<pdfrwt beam="1">  1       21 0.26533467E-01 0.47462163E+03</pdfrwt>
<pdfrwt beam="2">  1       21 0.23102746E+00 0.47462163E+03</pdfrwt>
<totfact> 0.95125631E+02</totfact>
</mgrwt>
</event>
<event>
 6    1  0.9399121E-004  0.4061730E+03  0.7818608E-02  0.1041756E+00
         21   -1    0    0  503  502  0.00000000000E+00  0.00000000000E+00  0.62269570405E+03  0.62269570405E+03  0.00000000000E+00 0.  1.
         21   -1    0    0  501  503 -0.00000000000E+00 -0.00000000000E+00 -0.46031969490E+03  0.46031969490E+03  0.00000000000E+00 0.  1.
    9000007    2    1    2  501    0  0.57555029941E+02 -0.40791091142E+02 -0.27230576297E+03  0.48809965904E+03  0.39889140631E+03 0.  0.
    9000005    1    3    3    0    0 -0.14527619779E+03  0.74687064549E+02 -0.64603946178E+02  0.17566445603E+03  0.99999687468E+00 0.  0.
          4    1    3    3  501    0  0.20283122773E+03 -0.11547815569E+03 -0.20770181679E+03  0.31243520301E+03  0.00000000000E+00 0.  1.
   -9000007    1    1    2    0  502 -0.57555029941E+02  0.40791091142E+02  0.43468177211E+03  0.59491573991E+03  0.40000000000E+03 0.  1.
<mgrwt>
<rscale>  2 0.40589979E+03</rscale>
<asrwt>0</asrwt>
<pdfrwt beam="1">  1       21 0.95799339E-01 0.40617299E+03</pdfrwt>
<pdfrwt beam="2">  1       21 0.70818415E-01 0.40617299E+03</pdfrwt>
<totfact> 0.14308259E+03</totfact>
</mgrwt>
</event>
<event>
 6    1  0.9399121E-004  0.4374914E+03  0.7818608E-02  0.1032052E+00
         21   -1    0    0  503  502  0.00000000000E+00  0.00000000000E+00  0.71301621319E+03  0.71301621319E+03  0.00000000000E+00 0.  1.
         21   -1    0    0  501  503 -0.00000000000E+00 -0.00000000000E+00 -0.26724871483E+03  0.26724871483E+03  0.00000000000E+00 0.  1.
    9000007    2    1    2  501    0  0.80731741738E+02  0.13765365471E+03  0.17277737947E+03  0.47037302988E+03  0.40734828047E+03 0.  0.
    9000005    1    3    3    0    0  0.20037920876E+03  0.27949133122E+02  0.22237117213E+03  0.30063752183E+03  0.99999687468E+00 0.  0.
          4    1    3    3  501    0 -0.11964746703E+03  0.10970452159E+03 -0.49593792652E+02  0.16973550805E+03  0.00000000000E+00 0.  1.
   -9000007    1    1    2    0  502 -0.80731741738E+02 -0.13765365471E+03  0.27299011888E+03  0.50989189814E+03  0.40000000000E+03 0. -1.
<mgrwt>
<rscale>  2 0.43577294E+03</rscale>
<asrwt>0</asrwt>
<pdfrwt beam="1">  1       21 0.10969480E+00 0.43749144E+03</pdfrwt>
<pdfrwt beam="2">  1       21 0.41115187E-01 0.43749144E+03</pdfrwt>
<totfact> 0.32736734E+03</totfact>
</mgrwt>
</event>
<event>
 6    1  0.9399121E-004  0.4810939E+03  0.7818608E-02  0.1018858E+00
         21   -1    0    0  503  502  0.00000000000E+00  0.00000000000E+00  0.11901945292E+04  0.11901945292E+04  0.00000000000E+00 0. -1.
         21   -1    0    0  501  503 -0.00000000000E+00 -0.00000000000E+00 -0.50717774026E+03  0.50717774026E+03  0.00000000000E+00 0. -1.
    9000007    2    1    2  501    0 -0.25321062249E+03 -0.85649016991E+02 -0.32508837881E+03  0.58035507950E+03  0.39959753604E+03 0.  0.
    9000005    1    3    3    0    0 -0.13916759919E+03 -0.18185721540E+03 -0.36042762671E+03  0.42702311594E+03  0.99999687468E+00 0.  0.
          4    1    3    3  501    0 -0.11404302330E+03  0.96208198413E+02  0.35339247902E+02  0.15333196355E+03  0.00000000000E+00 0.  1.
   -9000007    1    1    2    0  502  0.25321062249E+03  0.85649016991E+02  0.10081051677E+04  0.11170171900E+04  0.40000000000E+03 0. -1.
<mgrwt>
<rscale>  2 0.48101027E+03</rscale>
<asrwt>0</asrwt>
<pdfrwt beam="1">  1       21 0.18310685E+00 0.48109393E+03</pdfrwt>
<pdfrwt beam="2">  1       21 0.78027345E-01 0.48109393E+03</pdfrwt>
<totfact> 0.20157253E+02</totfact>
</mgrwt>
</event>
<event>
 6    1  0.9399121E-004  0.5535731E+03  0.7818608E-02  0.1000681E+00
         21   -1    0    0  503  502  0.00000000000E+00  0.00000000000E+00  0.23283342433E+03  0.23283342433E+03  0.00000000000E+00 0. -1.
         21   -1    0    0  501  503 -0.00000000000E+00 -0.00000000000E+00 -0.24367632863E+04  0.24367632863E+04  0.00000000000E+00 0.  1.
    9000007    2    1    2  501    0 -0.69356050776E+02  0.37607170050E+03 -0.20074244910E+04  0.20823535357E+04  0.40025363817E+03 0.  0.
    9000005    1    3    3    0    0 -0.30053332311E+02  0.44680885577E+03 -0.14082262934E+04  0.14777156864E+04  0.99999687468E+00 0.  0.
          4    1    3    3  501    0 -0.39302718465E+02 -0.70737155266E+02 -0.59919819759E+03  0.60463784930E+03  0.00000000000E+00 0.  1.
   -9000007    1    1    2    0  502  0.69356050776E+02 -0.37607170050E+03 -0.19650537099E+03  0.58724317495E+03  0.40000000000E+03 0. -1.
<mgrwt>
<rscale>  2 0.55352724E+03</rscale>
<asrwt>0</asrwt>
<pdfrwt beam="1">  1       21 0.35820526E-01 0.55357309E+03</pdfrwt>
<pdfrwt beam="2">  1       21 0.37488666E+00 0.55357309E+03</pdfrwt>
<totfact> 0.65719493E+01</totfact>
</mgrwt>
</event>
<event>
 6    1  0.9399121E-004  0.6766414E+03  0.7818608E-02  0.9758182E-01
         21   -1    0    0  503  502  0.00000000000E+00  0.00000000000E+00  0.57841278239E+03  0.57841278239E+03  0.00000000000E+00 0.  1.
         21   -1    0    0  501  503 -0.00000000000E+00 -0.00000000000E+00 -0.11016699997E+04  0.11016699997E+04  0.00000000000E+00 0.  1.
    9000007    2    1    2  501    0 -0.54567493923E+03  0.90817182602E+01  0.18439273431E+03  0.70099541574E+03  0.39943744882E+03 0.  0.
    9000005    1    3    3    0    0 -0.68854264537E+02  0.53409388403E+02 -0.10887267483E+03  0.13945512480E+03  0.99999687468E+00 0.  0.
          4    1    3    3  501    0 -0.47682067469E+03 -0.44327670143E+02  0.29326540914E+03  0.56154029094E+03  0.00000000000E+00 0.  1.
   -9000007    1    1    2    0  502  0.54567493923E+03 -0.90817182602E+01 -0.70764995160E+03  0.97908736633E+03  0.40000000000E+03 0.  1.
<mgrwt>
<rscale>  2 0.67655831E+03</rscale>
<asrwt>0</asrwt>
<pdfrwt beam="1">  1       21 0.88986583E-01 0.67664142E+03</pdfrwt>
<pdfrwt beam="2">  1       21 0.16948769E+00 0.67664142E+03</pdfrwt>
<totfact> 0.17153109E+02</totfact>
</mgrwt>
</event>
<event>
 6    1  0.9399121E-004  0.4387436E+03  0.7818608E-02  0.1031194E+00
         21   -1    0    0  503  502  0.00000000000E+00  0.00000000000E+00  0.64741773856E+03  0.64741773856E+03  0.00000000000E+00 0. -1.
         21   -1    0    0  501  503 -0.00000000000E+00 -0.00000000000E+00 -0.39764678723E+03  0.39764678723E+03  0.00000000000E+00 0.  1.
    9000007    2    1    2  501    0 -0.15749147516E+03 -0.83682680533E+02 -0.13818122236E+03  0.45998910772E+03  0.40086103981E+03 0.  0.
    9000005    1    3    3    0    0 -0.36669415984E+02 -0.23351600231E+03 -0.27544799116E+02  0.23797917000E+03  0.99999687468E+00 0.  0.
          4    1    3    3  501    0 -0.12082205918E+03  0.14983332178E+03 -0.11063642324E+03  0.22200993772E+03  0.00000000000E+00 0.  1.
   -9000007    1    1    2    0  502  0.15749147516E+03  0.83682680533E+02  0.38795217369E+03  0.58507541808E+03  0.40000000000E+03 0. -1.
<mgrwt>
<rscale>  2 0.43854681E+03</rscale>
<asrwt>0</asrwt>
<pdfrwt beam="1">  1       21 0.99602729E-01 0.43874358E+03</pdfrwt>
<pdfrwt beam="2">  1       21 0.61176429E-01 0.43874358E+03</pdfrwt>
<totfact> 0.17798599E+03</totfact>
</mgrwt>
</event>
<event>
 6    1  0.9399121E-004  0.1003392E+04  0.7818608E-02  0.9304921E-01
         21   -1    0    0  503  502  0.00000000000E+00  0.00000000000E+00  0.11241947271E+04  0.11241947271E+04  0.00000000000E+00 0. -1.
         21   -1    0    0  501  503 -0.00000000000E+00 -0.00000000000E+00 -0.92877899011E+03  0.92877899011E+03  0.00000000000E+00 0.  1.
    9000007    2    1    2  501    0 -0.78022241131E+03 -0.48790155410E+03 -0.97253418651E+02  0.10077703053E+04  0.39918394656E+03 0.  0.
    9000005    1    3    3    0    0 -0.61723824679E+03 -0.50497760615E+03  0.33398370167E+02  0.79818662425E+03  0.99999687468E+00 0.  0.
          4    1    3    3  501    0 -0.16298416452E+03  0.17076052050E+02 -0.13065178882E+03  0.20958368104E+03  0.00000000000E+00 0.  1.
   -9000007    1    1    2    0  502  0.78022241131E+03  0.48790155410E+03  0.29266915562E+03  0.10452034119E+04  0.40000000000E+03 0. -1.
<mgrwt>
<rscale>  2 0.10033104E+04</rscale>
<asrwt>0</asrwt>
<pdfrwt beam="1">  1       21 0.17295304E+00 0.10033917E+04</pdfrwt>
<pdfrwt beam="2">  1       21 0.14288908E+00 0.10033917E+04</pdfrwt>
<totfact> 0.44015778E+01</totfact>
</mgrwt>
</event>
<event>
 6    1  0.9399121E-004  0.4424287E+03  0.7818608E-02  0.1030010E+00
         21   -1    0    0  503  502  0.00000000000E+00  0.00000000000E+00  0.10375028831E+03  0.10375028831E+03  0.00000000000E+00 0. -1.
         21   -1    0    0  501  503 -0.00000000000E+00 -0.00000000000E+00 -0.19568515021E+04  0.19568515021E+04  0.00000000000E+00 0. -1.
    9000007    2    1    2  501    0  0.13001764442E+03 -0.13700298047E+03 -0.73105921984E+03  0.85451197588E+03  0.40008590264E+03 0.  0.
    9000005    1    3    3    0    0  0.87129401400E+02 -0.15373897443E+03 -0.77257000427E+03  0.79252294373E+03  0.99999687468E+00 0.  0.
          4    1    3    3  501    0  0.42888243021E+02  0.16735993955E+02  0.41510784430E+02  0.61989032152E+02  0.00000000000E+00 0.  1.
   -9000007    1    1    2    0  502 -0.13001764442E+03  0.13700298047E+03 -0.11220419940E+04  0.12060898145E+04  0.40000000000E+03 0. -1.
<mgrwt>
<rscale>  2 0.44240926E+03</rscale>
<asrwt>0</asrwt>
<pdfrwt beam="1">  1       21 0.15961584E-01 0.44242868E+03</pdfrwt>
<pdfrwt beam="2">  1       21 0.30105405E+00 0.44242868E+03</pdfrwt>
<totfact> 0.95475272E+02</totfact>
</mgrwt>
</event>
<event>
 6    1  0.9399121E-004  0.5218386E+03  0.7818608E-02  0.1008235E+00
         21   -1    0    0  503  502  0.00000000000E+00  0.00000000000E+00  0.74458588167E+03  0.74458588167E+03  0.00000000000E+00 0.  1.
         21   -1    0    0  501  503 -0.00000000000E+00 -0.00000000000E+00 -0.37332685884E+03  0.37332685884E+03  0.00000000000E+00 0. -1.
    9000007    2    1    2  501    0  0.33292632443E+03 -0.38413203426E+02  0.10562979158E+03  0.53235796067E+03  0.39991478307E+03 0.  0.
    9000005    1    3    3    0    0  0.37114621235E+03 -0.18618396044E+02 -0.46264544738E+02  0.37448306197E+03  0.99999687468E+00 0.  0.
          4    1    3    3  501    0 -0.38219887913E+02 -0.19794807382E+02  0.15189433632E+03  0.15787489869E+03  0.00000000000E+00 0.  1.
   -9000007    1    1    2    0  502 -0.33292632443E+03  0.38413203426E+02  0.26562923125E+03  0.58555477984E+03  0.40000000000E+03 0.  1.
<mgrwt>
<rscale>  2 0.52182226E+03</rscale>
<asrwt>0</asrwt>
<pdfrwt beam="1">  1       21 0.11455167E+00 0.52183859E+03</pdfrwt>
<pdfrwt beam="2">  1       21 0.57434901E-01 0.52183859E+03</pdfrwt>
<totfact> 0.14031491E+03</totfact>
</mgrwt>
</event>
<event>
 6    1  0.9399121E-004  0.5778473E+03  0.7818608E-02  0.9952465E-01
         21   -1    0    0  503  502  0.00000000000E+00  0.00000000000E+00  0.81363482087E+03  0.81363482087E+03  0.00000000000E+00 0. -1.
         21   -1    0    0  501  503 -0.00000000000E+00 -0.00000000000E+00 -0.42894615911E+03  0.42894615911E+03  0.00000000000E+00 0. -1.
    9000007    2    1    2  501    0  0.14156144437E+03  0.39225375094E+03  0.63112005571E+02  0.58128362366E+03  0.40000609774E+03 0.  0.
    9000005    1    3    3    0    0 -0.95469702713E+02  0.29973461331E+03  0.85120077773E+02  0.32588606933E+03  0.99999687468E+00 0.  0.
          4    1    3    3  501    0  0.23703114708E+03  0.92519137633E+02 -0.22008072202E+02  0.25539755433E+03  0.00000000000E+00 0.  1.
   -9000007    1    1    2    0  502 -0.14156144437E+03 -0.39225375094E+03  0.32157665619E+03  0.66129735631E+03  0.40000000000E+03 0. -1.
<mgrwt>
<rscale>  2 0.57784627E+03</rscale>
<asrwt>0</asrwt>
<pdfrwt beam="1">  1       21 0.12517459E+00 0.57784732E+03</pdfrwt>
<pdfrwt beam="2">  1       21 0.65991717E-01 0.57784732E+03</pdfrwt>
<totfact> 0.80777679E+02</totfact>
</mgrwt>
</event>
<event>
 6    1  0.9399121E-004  0.5039131E+03  0.7818608E-02  0.1012783E+00
         21   -1    0    0  503  502  0.00000000000E+00  0.00000000000E+00  0.10326766964E+03  0.10326766964E+03  0.00000000000E+00 0.  1.
         21   -1    0    0  501  503 -0.00000000000E+00 -0.00000000000E+00 -0.30492953067E+04  0.30492953067E+04  0.00000000000E+00 0. -1.
    9000007    2    1    2  501    0  0.30409034499E+03 -0.33719029495E+02 -0.21678738566E+04  0.22256696616E+04  0.40040039151E+03 0.  0.
    9000005    1    3    3    0    0  0.33750332640E+03 -0.67869154716E+02 -0.10147503366E+04  0.10715567941E+04  0.99999687468E+00 0.  0.
          4    1    3    3  501    0 -0.33412981409E+02  0.34150125221E+02 -0.11531235200E+04  0.11541128675E+04  0.00000000000E+00 0.  1.
   -9000007    1    1    2    0  502 -0.30409034499E+03  0.33719029495E+02 -0.77815378046E+03  0.92689331474E+03  0.40000000000E+03 0.  1.
<mgrwt>
<rscale>  2 0.50383353E+03</rscale>
<asrwt>0</asrwt>
<pdfrwt beam="1">  1       21 0.15887336E-01 0.50391307E+03</pdfrwt>
<pdfrwt beam="2">  1       21 0.46912228E+00 0.50391307E+03</pdfrwt>
<totfact> 0.78661890E+01</totfact>
</mgrwt>
</event>
<event>
 6    1  0.9399121E-004  0.4095813E+03  0.7818608E-02  0.1040633E+00
         21   -1    0    0  503  502  0.00000000000E+00  0.00000000000E+00  0.44237506175E+03  0.44237506175E+03  0.00000000000E+00 0. -1.
         21   -1    0    0  501  503 -0.00000000000E+00 -0.00000000000E+00 -0.38014957430E+03  0.38014957430E+03  0.00000000000E+00 0. -1.
    9000007    2    1    2  501    0  0.66416413004E+02 -0.57841761334E+02  0.62840767901E+02  0.41294291301E+03  0.39851734972E+03 0.  0.
    9000005    1    3    3    0    0  0.18661299267E+03 -0.90567200348E+02 -0.80975469928E+02  0.22267656710E+03  0.99999687468E+00 0.  0.
          4    1    3    3  501    0 -0.12019657967E+03  0.32725439015E+02  0.14381623783E+03  0.19026634591E+03  0.00000000000E+00 0.  1.
   -9000007    1    1    2    0  502 -0.66416413004E+02  0.57841761334E+02 -0.61528044984E+00  0.40958172303E+03  0.40000000000E+03 0. -1.
<mgrwt>
<rscale>  2 0.40921882E+03</rscale>
<asrwt>0</asrwt>
<pdfrwt beam="1">  1       21 0.68057702E-01 0.40958126E+03</pdfrwt>
<pdfrwt beam="2">  1       21 0.58484550E-01 0.40958126E+03</pdfrwt>
<totfact> 0.48102425E+03</totfact>
</mgrwt>
</event>
<event>
 6    1  0.9399121E-004  0.4130677E+03  0.7818608E-02  0.1039355E+00
         21   -1    0    0  503  502  0.00000000000E+00  0.00000000000E+00  0.88982792231E+03  0.88982792231E+03  0.00000000000E+00 0. -1.
         21   -1    0    0  501  503 -0.00000000000E+00 -0.00000000000E+00 -0.24556219399E+03  0.24556219399E+03  0.00000000000E+00 0. -1.
    9000007    2    1    2  501    0 -0.98691944652E+02  0.29746262792E+02  0.56240966644E+02  0.41678169690E+03  0.39989873275E+03 0.  0.
    9000005    1    3    3    0    0  0.12800307937E+03  0.10003207315E+03 -0.28162182273E+02  0.16487969096E+03  0.99999687468E+00 0.  0.
          4    1    3    3  501    0 -0.22669502402E+03 -0.70285810356E+02  0.84403148916E+02  0.25190200595E+03  0.00000000000E+00 0.  1.
   -9000007    1    1    2    0  502  0.98691944652E+02 -0.29746262792E+02  0.58802476167E+03  0.71860841940E+03  0.40000000000E+03 0. -1.
<mgrwt>
<rscale>  2 0.41304320E+03</rscale>
<asrwt>0</asrwt>
<pdfrwt beam="1">  1       21 0.13689660E+00 0.41306772E+03</pdfrwt>
<pdfrwt beam="2">  1       21 0.37778800E-01 0.41306772E+03</pdfrwt>
<totfact> 0.22357411E+03</totfact>
</mgrwt>
</event>
<event>
 6    1  0.9399121E-004  0.6723662E+03  0.7818608E-02  0.9765836E-01
         21   -1    0    0  503  502  0.00000000000E+00  0.00000000000E+00  0.17732437692E+04  0.17732437692E+04  0.00000000000E+00 0.  1.
         21   -1    0    0  501  503 -0.00000000000E+00 -0.00000000000E+00 -0.24558656899E+04  0.24558656899E+04  0.00000000000E+00 0. -1.
    9000007    2    1    2  501    0 -0.37752099119E+02  0.53912065054E+03 -0.23431496458E+04  0.24376216353E+04  0.39946548997E+03 0.  0.
    9000005    1    3    3    0    0 -0.14669903809E+03  0.37445983812E+03 -0.96574549610E+03  0.10461386817E+04  0.99999687468E+00 0.  0.
          4    1    3    3  501    0  0.10894693897E+03  0.16466081242E+03 -0.13774041497E+04  0.13914829536E+04  0.00000000000E+00 0.  1.
   -9000007    1    1    2    0  502  0.37752099119E+02 -0.53912065054E+03  0.16605277251E+04  0.17914878237E+04  0.40000000000E+03 0.  1.
<mgrwt>
<rscale>  2 0.67228672E+03</rscale>
<asrwt>0</asrwt>
<pdfrwt beam="1">  1       21 0.27280674E+00 0.67236619E+03</pdfrwt>
<pdfrwt beam="2">  1       21 0.37782549E+00 0.67236619E+03</pdfrwt>
<totfact> 0.31329366E-01</totfact>
</mgrwt>
</event>
<event>
 6    1  0.9399121E-004  0.4217907E+03  0.7818608E-02  0.1036516E+00
         21   -1    0    0  503  502  0.00000000000E+00  0.00000000000E+00  0.29052258435E+03  0.29052258435E+03  0.00000000000E+00 0. -1.
         21   -1    0    0  501  503 -0.00000000000E+00 -0.00000000000E+00 -0.61575906957E+03  0.61575906957E+03  0.00000000000E+00 0. -1.
    9000007    2    1    2  501    0 -0.12828385549E+03 -0.33616335553E+02 -0.19894140004E+03  0.46635296182E+03  0.40040054789E+03 0.  0.
    9000005    1    3    3    0    0  0.11351084075E+03  0.52079265079E+02 -0.16596989362E+03  0.20771125727E+03  0.99999687468E+00 0.  0.
          4    1    3    3  501    0 -0.24179469623E+03 -0.85695600633E+02 -0.32971506420E+02  0.25864170454E+03  0.00000000000E+00 0.  1.
   -9000007    1    1    2    0  502  0.12828385549E+03  0.33616335553E+02 -0.12629508519E+03  0.43992869210E+03  0.40000000000E+03 0.  1.
<mgrwt>
<rscale>  2 0.42169563E+03</rscale>
<asrwt>0</asrwt>
<pdfrwt beam="1">  1       21 0.44695782E-01 0.42179071E+03</pdfrwt>
<pdfrwt beam="2">  1       21 0.94732164E-01 0.42179071E+03</pdfrwt>
<totfact> 0.39576709E+03</totfact>
</mgrwt>
</event>
<event>
 6    1  0.9399121E-004  0.1058963E+04  0.7818608E-02  0.9246180E-01
         21   -1    0    0  503  502  0.00000000000E+00  0.00000000000E+00  0.16864480730E+04  0.16864480730E+04  0.00000000000E+00 0.  1.
         21   -1    0    0  501  503 -0.00000000000E+00 -0.00000000000E+00 -0.92708873989E+03  0.92708873989E+03  0.00000000000E+00 0. -1.
    9000007    2    1    2  501    0 -0.97297275649E+03  0.11994726733E+03 -0.31530429516E+03  0.11049065581E+04  0.40042274127E+03 0.  0.
    9000005    1    3    3    0    0 -0.78646409312E+03  0.11464402164E+02 -0.87921681327E+02  0.79144704455E+03  0.99999687468E+00 0.  0.
          4    1    3    3  501    0 -0.18650866336E+03  0.10848286516E+03 -0.22738261383E+03  0.31345951352E+03  0.00000000000E+00 0.  1.
   -9000007    1    1    2    0  502  0.97297275649E+03 -0.11994726733E+03  0.10746636283E+04  0.15086302548E+04  0.40000000000E+03 0.  1.
<mgrwt>
<rscale>  2 0.10589226E+04</rscale>
<asrwt>0</asrwt>
<pdfrwt beam="1">  1       21 0.25945355E+00 0.10589626E+04</pdfrwt>
<pdfrwt beam="2">  1       21 0.14262904E+00 0.10589626E+04</pdfrwt>
<totfact> 0.11407968E+01</totfact>
</mgrwt>
</event>
<event>
 6    1  0.9399121E-004  0.4238610E+03  0.7818608E-02  0.1036044E+00
         21   -1    0    0  503  502  0.00000000000E+00  0.00000000000E+00  0.24857158372E+03  0.24857158372E+03  0.00000000000E+00 0. -1.
         21   -1    0    0  501  503 -0.00000000000E+00 -0.00000000000E+00 -0.12630081852E+04  0.12630081852E+04  0.00000000000E+00 0.  1.
    9000007    2    1    2  501    0 -0.48489246104E+02 -0.12218265649E+03 -0.10046683462E+04  0.10904203842E+04  0.40296193340E+03 0.  0.
    9000005    1    3    3    0    0 -0.76059771679E+02 -0.19956702116E+03 -0.23966023302E+03  0.32101419297E+03  0.99999687468E+00 0.  0.
          4    1    3    3  501    0  0.27570525575E+02  0.77384364677E+02 -0.76500811323E+03  0.76940619122E+03  0.00000000000E+00 0.  1.
   -9000007    1    1    2    0  502  0.48489246104E+02  0.12218265649E+03 -0.97682552230E+01  0.42115938473E+03  0.40000000000E+03 0. -1.
<mgrwt>
<rscale>  2 0.42315550E+03</rscale>
<asrwt>0</asrwt>
<pdfrwt beam="1">  1       21 0.38241782E-01 0.42386098E+03</pdfrwt>
<pdfrwt beam="2">  1       21 0.19430895E+00 0.42386098E+03</pdfrwt>
<totfact> 0.81219461E+02</totfact>
</mgrwt>
</event>
<event>
 6    1  0.9399121E-004  0.5015898E+03  0.7818608E-02  0.1013378E+00
         21   -1    0    0  503  502  0.00000000000E+00  0.00000000000E+00  0.12900722717E+04  0.12900722717E+04  0.00000000000E+00 0. -1.
         21   -1    0    0  501  503 -0.00000000000E+00 -0.00000000000E+00 -0.30497675040E+03  0.30497675040E+03  0.00000000000E+00 0. -1.
    9000007    2    1    2  501    0 -0.20291395743E+03  0.22454012263E+03  0.13446297293E+02  0.50157083059E+03  0.39975011494E+03 0.  0.
    9000005    1    3    3    0    0 -0.30658220701E+03  0.20988371614E+03 -0.56274956402E+02  0.37578144535E+03  0.99999687468E+00 0.  0.
          4    1    3    3  501    0  0.10366824958E+03  0.14656406488E+02  0.69721253695E+02  0.12578938524E+03  0.00000000000E+00 0.  1.
   -9000007    1    1    2    0  502  0.20291395743E+03 -0.22454012263E+03  0.97164922400E+03  0.10934781915E+04  0.40000000000E+03 0. -1.
<mgrwt>
<rscale>  2 0.50153999E+03</rscale>
<asrwt>0</asrwt>
<pdfrwt beam="1">  1       21 0.19847265E+00 0.50158981E+03</pdfrwt>
<pdfrwt beam="2">  1       21 0.46919501E-01 0.50158981E+03</pdfrwt>
<totfact> 0.48000751E+02</totfact>
</mgrwt>
</event>
<event>
 6    1  0.9399121E-004  0.6076362E+03  0.7818608E-02  0.9889752E-01
         21   -1    0    0  503  502  0.00000000000E+00  0.00000000000E+00  0.82774828371E+03  0.82774828371E+03  0.00000000000E+00 0. -1.
         21   -1    0    0  501  503 -0.00000000000E+00 -0.00000000000E+00 -0.52780950422E+03  0.52780950422E+03  0.00000000000E+00 0.  1.
    9000007    2    1    2  501    0 -0.23551075832E+03  0.39211780908E+03  0.41685408233E+03  0.73677601580E+03  0.39981230350E+03 0.  0.
    9000005    1    3    3    0    0 -0.11849254898E+03  0.43151758999E+03  0.41935718203E+03  0.61327755604E+03  0.99999687468E+00 0.  0.
          4    1    3    3  501    0 -0.11701820935E+03 -0.39399780914E+02 -0.25030997010E+01  0.12349845976E+03  0.00000000000E+00 0.  1.
   -9000007    1    1    2    0  502  0.23551075832E+03 -0.39211780908E+03 -0.11691530283E+03  0.61878177213E+03  0.40000000000E+03 0.  1.
<mgrwt>
<rscale>  2 0.60760526E+03</rscale>
<asrwt>0</asrwt>
<pdfrwt beam="1">  1       21 0.12734589E+00 0.60763615E+03</pdfrwt>
<pdfrwt beam="2">  1       21 0.81201462E-01 0.60763615E+03</pdfrwt>
<totfact> 0.47613139E+02</totfact>
</mgrwt>
</event>
<event>
 6    1  0.9399121E-004  0.4048455E+03  0.7818608E-02  0.1042125E+00
         21   -1    0    0  503  502  0.00000000000E+00  0.00000000000E+00  0.56465915438E+03  0.56465915438E+03  0.00000000000E+00 0.  1.
         21   -1    0    0  501  503 -0.00000000000E+00 -0.00000000000E+00 -0.29860914495E+03  0.29860914495E+03  0.00000000000E+00 0.  1.
    9000007    2    1    2  501    0 -0.61127959143E+02 -0.81397596197E+01  0.60513703710E+02  0.40934313364E+03  0.40012124369E+03 0.  0.
    9000005    1    3    3    0    0  0.15592706076E+03  0.64497624318E+02  0.63885896557E+02  0.18043170340E+03  0.99999687468E+00 0.  0.
          4    1    3    3  501    0 -0.21705501990E+03 -0.72637383938E+02 -0.33721928468E+01  0.22891143024E+03  0.00000000000E+00 0.  1.
   -9000007    1    1    2    0  502  0.61127959143E+02  0.81397596197E+01  0.20553630572E+03  0.45392516569E+03  0.40000000000E+03 0.  1.
<mgrwt>
<rscale>  2 0.40481556E+03</rscale>
<asrwt>0</asrwt>
<pdfrwt beam="1">  1       21 0.86870639E-01 0.40484552E+03</pdfrwt>
<pdfrwt beam="2">  1       21 0.45939868E-01 0.40484552E+03</pdfrwt>
<totfact> 0.46161896E+03</totfact>
</mgrwt>
</event>
<event>
 6    1  0.9399121E-004  0.5379584E+03  0.7818608E-02  0.1004405E+00
         21   -1    0    0  503  502  0.00000000000E+00  0.00000000000E+00  0.17175362164E+04  0.17175362164E+04  0.00000000000E+00 0. -1.
         21   -1    0    0  501  503 -0.00000000000E+00 -0.00000000000E+00 -0.17074478724E+03  0.17074478724E+03  0.00000000000E+00 0. -1.
    9000007    2    1    2  501    0 -0.51581290891E+02 -0.35600362922E+03  0.65382407047E+03  0.84578883711E+03  0.39808746307E+03 0.  0.
    9000005    1    3    3    0    0  0.17155546614E+03 -0.16948723693E+03  0.24216252354E+03  0.34176145079E+03  0.99999687468E+00 0.  0.
          4    1    3    3  501    0 -0.22313675703E+03 -0.18651639229E+03  0.41166154693E+03  0.50402738631E+03  0.00000000000E+00 0.  1.
   -9000007    1    1    2    0  502  0.51581290891E+02  0.35600362922E+03  0.89296735866E+03  0.10424921665E+04  0.40000000000E+03 0.  1.
<mgrwt>
<rscale>  2 0.53760289E+03</rscale>
<asrwt>0</asrwt>
<pdfrwt beam="1">  1       21 0.26423633E+00 0.53795838E+03</pdfrwt>
<pdfrwt beam="2">  1       21 0.26268430E-01 0.53795838E+03</pdfrwt>
<totfact> 0.58720758E+02</totfact>
</mgrwt>
</event>
<event>
 6    1  0.9399121E-004  0.4023690E+03  0.7818608E-02  0.1043086E+00
         21   -1    0    0  503  502  0.00000000000E+00  0.00000000000E+00  0.52564052630E+03  0.52564052630E+03  0.00000000000E+00 0. -1.
         21   -1    0    0  501  503 -0.00000000000E+00 -0.00000000000E+00 -0.37692258857E+03  0.37692258857E+03  0.00000000000E+00 0. -1.
    9000007    2    1    2  501    0 -0.16335841723E+02 -0.21845138506E+02 -0.12003413512E+03  0.41989164641E+03  0.40144331024E+03 0.  0.
    9000005    1    3    3    0    0  0.86409059337E+02  0.18735247436E+02 -0.24062159310E+03  0.25635382987E+03  0.99999687468E+00 0.  0.
          4    1    3    3  501    0 -0.10274490106E+03 -0.40580385942E+02  0.12058745798E+03  0.16353781654E+03  0.00000000000E+00 0.  1.
   -9000007    1    1    2    0  502  0.16335841723E+02  0.21845138506E+02  0.26875207285E+03  0.48267146845E+03  0.40000000000E+03 0. -1.
<mgrwt>
<rscale>  2 0.40200851E+03</rscale>
<asrwt>0</asrwt>
<pdfrwt beam="1">  1       21 0.80867773E-01 0.40236899E+03</pdfrwt>
<pdfrwt beam="2">  1       21 0.57988091E-01 0.40236899E+03</pdfrwt>
<totfact> 0.33212473E+03</totfact>
</mgrwt>
</event>
<event>
 6    1  0.9399121E-004  0.4809779E+03  0.7818608E-02  0.1018914E+00
         21   -1    0    0  503  502  0.00000000000E+00  0.00000000000E+00  0.10506867170E+04  0.10506867170E+04  0.00000000000E+00 0. -1.
         21   -1    0    0  501  503 -0.00000000000E+00 -0.00000000000E+00 -0.24728130110E+03  0.24728130110E+03  0.00000000000E+00 0. -1.
    9000007    2    1    2  501    0  0.26673269227E+03 -0.13906354415E+02  0.18535926576E+03  0.51482003749E+03  0.39917652459E+03 0.  0.
    9000005    1    3    3    0    0  0.32395998531E+03  0.97894901451E+02  0.72810093422E+02  0.34617306872E+03  0.99999687468E+00 0.  0.
          4    1    3    3  501    0 -0.57227293038E+02 -0.11180125587E+03  0.11254917234E+03  0.16864696877E+03  0.00000000000E+00 0.  1.
   -9000007    1    1    2    0  502 -0.26673269227E+03  0.13906354415E+02  0.61804615012E+03  0.78314798059E+03  0.40000000000E+03 0. -1.
<mgrwt>
<rscale>  2 0.48080663E+03</rscale>
<asrwt>0</asrwt>
<pdfrwt beam="1">  1       21 0.16164411E+00 0.48097787E+03</pdfrwt>
<pdfrwt beam="2">  1       21 0.38043278E-01 0.48097787E+03</pdfrwt>
<totfact> 0.13660479E+03</totfact>
</mgrwt>
</event>
<event>
 6    1  0.9399121E-004  0.4067680E+03  0.7818608E-02  0.1041485E+00
         21   -1    0    0  503  502  0.00000000000E+00  0.00000000000E+00  0.12677463890E+03  0.12677463890E+03  0.00000000000E+00 0.  1.
         21   -1    0    0  501  503 -0.00000000000E+00 -0.00000000000E+00 -0.14355931521E+04  0.14355931521E+04  0.00000000000E+00 0.  1.
    9000007    2    1    2  501    0  0.67743095801E+02 -0.25399080941E+02 -0.89089031262E+03  0.97935988266E+03  0.40028238822E+03 0.  0.
    9000005    1    3    3    0    0 -0.65671542451E+02 -0.14037627128E+03 -0.71066197269E+03  0.72736489361E+03  0.99999687468E+00 0.  0.
          4    1    3    3  501    0  0.13341463825E+03  0.11497719034E+03 -0.18022833992E+03  0.25199498906E+03  0.00000000000E+00 0.  1.
   -9000007    1    1    2    0  502 -0.67743095801E+02  0.25399080941E+02 -0.41792820057E+03  0.58300790833E+03  0.40000000000E+03 0. -1.
<mgrwt>
<rscale>  2 0.40669854E+03</rscale>
<asrwt>0</asrwt>
<pdfrwt beam="1">  1       21 0.19503792E-01 0.40676803E+03</pdfrwt>
<pdfrwt beam="2">  1       21 0.22086047E+00 0.40676803E+03</pdfrwt>
<totfact> 0.20611565E+03</totfact>
</mgrwt>
</event>
<event>
 6    1  0.9399121E-004  0.7582642E+03  0.7818608E-02  0.9622734E-01
         21   -1    0    0  503  502  0.00000000000E+00  0.00000000000E+00  0.72405140958E+03  0.72405140958E+03  0.00000000000E+00 0. -1.
         21   -1    0    0  501  503 -0.00000000000E+00 -0.00000000000E+00 -0.13954766960E+04  0.13954766960E+04  0.00000000000E+00 0.  1.
    9000007    2    1    2  501    0 -0.62504987735E+02  0.64034151333E+03 -0.10319073441E+04  0.12805457213E+04  0.40127353566E+03 0.  0.
    9000005    1    3    3    0    0 -0.68768019799E+02 -0.25894060129E+02 -0.21013331036E+03  0.22261300729E+03  0.99999687468E+00 0.  0.
          4    1    3    3  501    0  0.62630320639E+01  0.66623557346E+03 -0.82177403376E+03  0.10579327141E+04  0.00000000000E+00 0.  1.
   -9000007    1    1    2    0  502  0.62504987735E+02 -0.64034151333E+03  0.36048205768E+03  0.83898238426E+03  0.40000000000E+03 0. -1.
<mgrwt>
<rscale>  2 0.75809583E+03</rscale>
<asrwt>0</asrwt>
<pdfrwt beam="1">  1       21 0.11139253E+00 0.75826419E+03</pdfrwt>
<pdfrwt beam="2">  1       21 0.21468872E+00 0.75826419E+03</pdfrwt>
<totfact> 0.46591635E+01</totfact>
</mgrwt>
</event>
<event>
 6    1  0.9399121E-004  0.4524348E+03  0.7818608E-02  0.1027041E+00
         21   -1    0    0  503  502  0.00000000000E+00  0.00000000000E+00  0.62433529055E+03  0.62433529055E+03  0.00000000000E+00 0. -1.
         21   -1    0    0  501  503 -0.00000000000E+00 -0.00000000000E+00 -0.56986627702E+03  0.56986627702E+03  0.00000000000E+00 0. -1.
    9000007    2    1    2  501    0  0.18411044806E+03  0.10140245384E+03 -0.36219752247E+03  0.57955523271E+03  0.40064711125E+03 0.  0.
    9000005    1    3    3    0    0  0.27664889676E+03  0.13102740647E+02 -0.11237054336E+03  0.29888866305E+03  0.99999687468E+00 0.  0.
          4    1    3    3  501    0 -0.92538448694E+02  0.88299713191E+02 -0.24982697911E+03  0.28066656966E+03  0.00000000000E+00 0.  1.
   -9000007    1    1    2    0  502 -0.18411044806E+03 -0.10140245384E+03  0.41666653600E+03  0.61464633486E+03  0.40000000000E+03 0. -1.
<mgrwt>
<rscale>  2 0.45229147E+03</rscale>
<asrwt>0</asrwt>
<pdfrwt beam="1">  1       21 0.96051583E-01 0.45243477E+03</pdfrwt>
<pdfrwt beam="2">  1       21 0.87671735E-01 0.45243477E+03</pdfrwt>
<totfact> 0.85285467E+02</totfact>
</mgrwt>
</event>
<event>
 6    1  0.9399121E-004  0.4617927E+03  0.7818608E-02  0.1024283E+00
         21   -1    0    0  503  502  0.00000000000E+00  0.00000000000E+00  0.62459823083E+03  0.62459823083E+03  0.00000000000E+00 0.  1.
         21   -1    0    0  501  503 -0.00000000000E+00 -0.00000000000E+00 -0.75933180503E+03  0.75933180503E+03  0.00000000000E+00 0. -1.
    9000007    2    1    2  501    0  0.10703196395E+03 -0.20444230795E+03 -0.58083194433E+03  0.74185819065E+03  0.39966902417E+03 0.  0.
    9000005    1    3    3    0    0 -0.47872329983E+01 -0.30676407163E+03 -0.42807563024E+03  0.52666579388E+03  0.99999687468E+00 0.  0.
          4    1    3    3  501    0  0.11181919695E+03  0.10232176369E+03 -0.15275631409E+03  0.21519239676E+03  0.00000000000E+00 0.  1.
   -9000007    1    1    2    0  502 -0.10703196395E+03  0.20444230795E+03  0.44609837014E+03  0.64207184522E+03  0.40000000000E+03 0.  1.
<mgrwt>
<rscale>  2 0.46172102E+03</rscale>
<asrwt>0</asrwt>
<pdfrwt beam="1">  1       21 0.96092036E-01 0.46179270E+03</pdfrwt>
<pdfrwt beam="2">  1       21 0.11682028E+00 0.46179270E+03</pdfrwt>
<totfact> 0.42169515E+02</totfact>
</mgrwt>
</event>
<event>
 6    1  0.9399121E-004  0.4127666E+03  0.7818608E-02  0.1039489E+00
         21   -1    0    0  503  502  0.00000000000E+00  0.00000000000E+00  0.97083646050E+02  0.97083646050E+02  0.00000000000E+00 0. -1.
         21   -1    0    0  501  503 -0.00000000000E+00 -0.00000000000E+00 -0.18397879134E+04  0.18397879134E+04  0.00000000000E+00 0.  1.
    9000007    2    1    2  501    0 -0.10065373110E+03  0.15656348693E+02 -0.66019947727E+03  0.77834106120E+03  0.39946860066E+03 0.  0.
    9000005    1    3    3    0    0  0.70485295694E+02 -0.17540590246E+02  0.20656195433E+02  0.75521702965E+02  0.99999687468E+00 0.  0.
          4    1    3    3  501    0 -0.17113902680E+03  0.33196938939E+02 -0.68085567270E+03  0.70281935823E+03  0.00000000000E+00 0.  1.
   -9000007    1    1    2    0  502  0.10065373110E+03 -0.15656348693E+02 -0.10825047900E+04  0.11585304982E+04  0.40000000000E+03 0.  1.
<mgrwt>
<rscale>  2 0.41263784E+03</rscale>
<asrwt>0</asrwt>
<pdfrwt beam="1">  1       21 0.14935946E-01 0.41276663E+03</pdfrwt>
<pdfrwt beam="2">  1       21 0.28304429E+00 0.41276663E+03</pdfrwt>
<totfact> 0.14080068E+03</totfact>
</mgrwt>
</event>
<event>
 6    1  0.9399121E-004  0.4312618E+03  0.7818608E-02  0.1033565E+00
         21   -1    0    0  503  502  0.00000000000E+00  0.00000000000E+00  0.28373349755E+03  0.28373349755E+03  0.00000000000E+00 0.  1.
         21   -1    0    0  501  503 -0.00000000000E+00 -0.00000000000E+00 -0.96751126380E+03  0.96751126380E+03  0.00000000000E+00 0.  1.
    9000007    2    1    2  501    0  0.15517521865E+03  0.27994159085E+02 -0.69864501413E+03  0.82103079541E+03  0.40140215473E+03 0.  0.
    9000005    1    3    3    0    0 -0.13740111914E+03  0.17074869686E+02 -0.22803349465E+03  0.26677873489E+03  0.99999687468E+00 0.  0.
          4    1    3    3  501    0  0.29257633779E+03  0.10919289398E+02 -0.47061151949E+03  0.55425206052E+03  0.00000000000E+00 0.  1.
   -9000007    1    1    2    0  502 -0.15517521865E+03 -0.27994159085E+02  0.14867247882E+02  0.43021396593E+03  0.40000000000E+03 0.  1.
<mgrwt>
<rscale>  2 0.43093520E+03</rscale>
<asrwt>0</asrwt>
<pdfrwt beam="1">  1       21 0.43651307E-01 0.43126177E+03</pdfrwt>
<pdfrwt beam="2">  1       21 0.14884789E+00 0.43126177E+03</pdfrwt>
<totfact> 0.13170047E+03</totfact>
</mgrwt>
</event>
<event>
 6    1  0.9399121E-004  0.4276466E+03  0.7818608E-02  0.1034740E+00
         21   -1    0    0  503  502  0.00000000000E+00  0.00000000000E+00  0.93074619600E+03  0.93074619600E+03  0.00000000000E+00 0.  1.
         21   -1    0    0  501  503 -0.00000000000E+00 -0.00000000000E+00 -0.28689987718E+03  0.28689987718E+03  0.00000000000E+00 0.  1.
    9000007    2    1    2  501    0  0.14327616947E+03 -0.30266023070E+02  0.66558528930E+03  0.79112916176E+03  0.40179283264E+03 0.  0.
    9000005    1    3    3    0    0  0.23421435712E+03  0.10787186985E+03  0.45927118709E+03  0.52671028912E+03  0.99999687468E+00 0.  0.
          4    1    3    3  501    0 -0.90938187650E+02 -0.13813789292E+03  0.20631410221E+03  0.26441887264E+03  0.00000000000E+00 0.  1.
   -9000007    1    1    2    0  502 -0.14327616947E+03  0.30266023070E+02 -0.21738970485E+02  0.42651691142E+03  0.40000000000E+03 0.  1.
<mgrwt>
<rscale>  2 0.42722493E+03</rscale>
<asrwt>0</asrwt>
<pdfrwt beam="1">  1       21 0.14319172E+00 0.42764655E+03</pdfrwt>
<pdfrwt beam="2">  1       21 0.44138443E-01 0.42764655E+03</pdfrwt>
<totfact> 0.14304343E+03</totfact>
</mgrwt>
</event>
<event>
 6    1  0.9399121E-004  0.4566075E+03  0.7818608E-02  0.1025927E+00
         21   -1    0    0  503  502  0.00000000000E+00  0.00000000000E+00  0.16165572742E+03  0.16165572742E+03  0.00000000000E+00 0. -1.
         21   -1    0    0  501  503 -0.00000000000E+00 -0.00000000000E+00 -0.18599481738E+04  0.18599481738E+04  0.00000000000E+00 0. -1.
    9000007    2    1    2  501    0  0.21444135449E+03  0.23432933070E+02 -0.28788270366E+03  0.53978412837E+03  0.40243789248E+03 0.  0.
    9000005    1    3    3    0    0  0.25727510998E+01  0.14488815216E+03  0.20562071439E+02  0.14636596073E+03  0.99999687468E+00 0.  0.
          4    1    3    3  501    0  0.21186860339E+03 -0.12145521909E+03 -0.30844477510E+03  0.39341816765E+03  0.00000000000E+00 0.  1.
   -9000007    1    1    2    0  502 -0.21444135449E+03 -0.23432933070E+02 -0.14104097427E+04  0.14818197729E+04  0.40000000000E+03 0. -1.
<mgrwt>
<rscale>  2 0.45606980E+03</rscale>
<asrwt>0</asrwt>
<pdfrwt beam="1">  1       21 0.24870111E-01 0.45660755E+03</pdfrwt>
<pdfrwt beam="2">  1       21 0.28614589E+00 0.45660755E+03</pdfrwt>
<totfact> 0.50072911E+02</totfact>
</mgrwt>
</event>
<event>
 6    1  0.9399121E-004  0.4980782E+03  0.7818608E-02  0.1014311E+00
         21   -1    0    0  503  502  0.00000000000E+00  0.00000000000E+00  0.56205016607E+03  0.56205016607E+03  0.00000000000E+00 0. -1.
         21   -1    0    0  501  503 -0.00000000000E+00 -0.00000000000E+00 -0.44100298596E+03  0.44100298596E+03  0.00000000000E+00 0. -1.
    9000007    2    1    2  501    0  0.82793578226E+02  0.28422976253E+03  0.58477861698E+02  0.50149931233E+03  0.40055032824E+03 0.  0.
    9000005    1    3    3    0    0 -0.52747833351E+02  0.29463416479E+03 -0.77535032138E+02  0.30919946020E+03  0.99999687468E+00 0.  0.
          4    1    3    3  501    0  0.13554141158E+03 -0.10404402261E+02  0.13601289384E+03  0.19229985213E+03  0.00000000000E+00 0.  1.
   -9000007    1    1    2    0  502 -0.82793578226E+02 -0.28422976253E+03  0.62569318409E+02  0.50155383969E+03  0.40000000000E+03 0. -1.
<mgrwt>
<rscale>  2 0.49796755E+03</rscale>
<asrwt>0</asrwt>
<pdfrwt beam="1">  1       21 0.86469256E-01 0.49807821E+03</pdfrwt>
<pdfrwt beam="2">  1       21 0.67846614E-01 0.49807821E+03</pdfrwt>
<totfact> 0.19397022E+03</totfact>
</mgrwt>
</event>
<event>
 6    1  0.9399121E-004  0.4892980E+03  0.7818608E-02  0.1016661E+00
         21   -1    0    0  503  502  0.00000000000E+00  0.00000000000E+00  0.89256481194E+03  0.89256481194E+03  0.00000000000E+00 0.  1.
         21   -1    0    0  501  503 -0.00000000000E+00 -0.00000000000E+00 -0.33298653179E+03  0.33298653179E+03  0.00000000000E+00 0.  1.
    9000007    2    1    2  501    0  0.73505364156E+02 -0.27204687230E+03  0.85271690370E+01  0.48861860165E+03  0.39907754381E+03 0.  0.
    9000005    1    3    3    0    0 -0.26525873864E+02  0.77174424923E+02  0.84518533982E+02  0.11748998437E+03  0.99999687468E+00 0.  0.
          4    1    3    3  501    0  0.10003123802E+03 -0.34922129723E+03 -0.75991364945E+02  0.37112861728E+03  0.00000000000E+00 0.  1.
   -9000007    1    1    2    0  502 -0.73505364156E+02  0.27204687230E+03  0.55105111112E+03  0.73693274208E+03  0.40000000000E+03 0.  1.
<mgrwt>
<rscale>  2 0.48910944E+03</rscale>
<asrwt>0</asrwt>
<pdfrwt beam="1">  1       21 0.13731766E+00 0.48929801E+03</pdfrwt>
<pdfrwt beam="2">  1       21 0.51228698E-01 0.48929801E+03</pdfrwt>
<totfact> 0.11386330E+03</totfact>
</mgrwt>
</event>
<event>
 6    1  0.9399121E-004  0.4655758E+03  0.7818608E-02  0.1023356E+00
         21   -1    0    0  503  502  0.00000000000E+00  0.00000000000E+00  0.33314364636E+03  0.33314364636E+03  0.00000000000E+00 0.  1.
         21   -1    0    0  501  503 -0.00000000000E+00 -0.00000000000E+00 -0.79260805908E+03  0.79260805908E+03  0.00000000000E+00 0.  1.
    9000007    2    1    2  501    0 -0.56490617965E+02 -0.22637248514E+03  0.10885018028E+02  0.46570301107E+03  0.40289591578E+03 0.  0.
    9000005    1    3    3    0    0 -0.11378073938E+03 -0.24625065868E+03 -0.13842720586E+03  0.30454644124E+03  0.99999687468E+00 0.  0.
          4    1    3    3  501    0  0.57290121418E+02  0.19878173536E+02  0.14931222389E+03  0.16115656983E+03  0.00000000000E+00 0.  1.
   -9000007    1    1    2    0  502  0.56490617965E+02  0.22637248514E+03 -0.47034943075E+03  0.66004869438E+03  0.40000000000E+03 0.  1.
<mgrwt>
<rscale>  2 0.46494858E+03</rscale>
<asrwt>0</asrwt>
<pdfrwt beam="1">  1       21 0.51252869E-01 0.46557578E+03</pdfrwt>
<pdfrwt beam="2">  1       21 0.12193970E+00 0.46557578E+03</pdfrwt>
<totfact> 0.15627956E+03</totfact>
</mgrwt>
</event>
<event>
 6    1  0.9399121E-004  0.4064955E+03  0.7818608E-02  0.1041700E+00
         21   -1    0    0  503  502  0.00000000000E+00  0.00000000000E+00  0.97779269494E+03  0.97779269494E+03  0.00000000000E+00 0.  1.
         21   -1    0    0  501  503 -0.00000000000E+00 -0.00000000000E+00 -0.18913788360E+03  0.18913788360E+03  0.00000000000E+00 0.  1.
    9000007    2    1    2  501    0 -0.56702611965E+02 -0.44982584021E+02  0.19980120813E+03  0.45139778049E+03  0.39824717750E+03 0.  0.
    9000005    1    3    3    0    0 -0.12499238464E+03  0.15166590134E+03  0.10109597330E+03  0.22101365944E+03  0.99999687468E+00 0.  0.
          4    1    3    3  501    0  0.68289772678E+02 -0.19664848536E+03  0.98705234832E+02  0.23038412105E+03  0.00000000000E+00 0.  1.
   -9000007    1    1    2    0  502  0.56702611965E+02  0.44982584021E+02  0.58885360321E+03  0.71553279805E+03  0.40000000000E+03 0.  1.
<mgrwt>
<rscale>  2 0.40606367E+03</rscale>
<asrwt>0</asrwt>
<pdfrwt beam="1">  1       21 0.15042964E+00 0.40649553E+03</pdfrwt>
<pdfrwt beam="2">  1       21 0.29098136E-01 0.40649553E+03</pdfrwt>
<totfact> 0.29427164E+03</totfact>
</mgrwt>
</event>
<event>
 6    1  0.9399121E-004  0.4233167E+03  0.7818608E-02  0.1036068E+00
         21   -1    0    0  503  502  0.00000000000E+00  0.00000000000E+00  0.23949392433E+03  0.23949392433E+03  0.00000000000E+00 0. -1.
         21   -1    0    0  501  503 -0.00000000000E+00 -0.00000000000E+00 -0.84557222896E+03  0.84557222896E+03  0.00000000000E+00 0. -1.
    9000007    2    1    2  501    0  0.13836478914E+03  0.72230122163E+01 -0.48838491517E+03  0.64569305363E+03  0.39900213955E+03 0.  0.
    9000005    1    3    3    0    0  0.21530940696E+03 -0.13602955660E+03 -0.24805281543E+03  0.35551846679E+03  0.99999687468E+00 0.  0.
          4    1    3    3  501    0 -0.76944617818E+02  0.14325256881E+03 -0.24033209974E+03  0.29017458684E+03  0.00000000000E+00 0.  1.
   -9000007    1    1    2    0  502 -0.13836478914E+03 -0.72230122163E+01 -0.11769338947E+03  0.43937309966E+03  0.40000000000E+03 0. -1.
<mgrwt>
<rscale>  2 0.42308076E+03</rscale>
<asrwt>0</asrwt>
<pdfrwt beam="1">  1       21 0.36845219E-01 0.42331665E+03</pdfrwt>
<pdfrwt beam="2">  1       21 0.13008803E+00 0.42331665E+03</pdfrwt>
<totfact> 0.26758695E+03</totfact>
</mgrwt>
</event>
<event>
 6    1  0.9399121E-004  0.4827378E+03  0.7818608E-02  0.1018448E+00
         21   -1    0    0  503  502  0.00000000000E+00  0.00000000000E+00  0.16353979141E+03  0.16353979141E+03  0.00000000000E+00 0. -1.
         21   -1    0    0  501  503 -0.00000000000E+00 -0.00000000000E+00 -0.14322273792E+04  0.14322273792E+04  0.00000000000E+00 0. -1.
    9000007    2    1    2  501    0  0.18394869877E+02 -0.26962455883E+03 -0.56709969484E+03  0.74414439878E+03  0.39888976972E+03 0.  0.
    9000005    1    3    3    0    0  0.62356340194E+02 -0.36745608964E+03 -0.41196664610E+03  0.55554460529E+03  0.99999687468E+00 0.  0.
          4    1    3    3  501    0 -0.43961470316E+02  0.97831530807E+02 -0.15513304874E+03  0.18859979349E+03  0.00000000000E+00 0.  1.
   -9000007    1    1    2    0  502 -0.18394869877E+02  0.26962455883E+03 -0.70158789292E+03  0.85162277180E+03  0.40000000000E+03 0. -1.
<mgrwt>
<rscale>  2 0.48250774E+03</rscale>
<asrwt>0</asrwt>
<pdfrwt beam="1">  1       21 0.25159969E-01 0.48273779E+03</pdfrwt>
<pdfrwt beam="2">  1       21 0.22034267E+00 0.48273779E+03</pdfrwt>
<totfact> 0.12294110E+03</totfact>
</mgrwt>
</event>
<event>
 6    1  0.9399121E-004  0.7458400E+03  0.7818608E-02  0.9641928E-01
         21   -1    0    0  503  502  0.00000000000E+00  0.00000000000E+00  0.51503348622E+03  0.51503348622E+03  0.00000000000E+00 0. -1.
         21   -1    0    0  501  503 -0.00000000000E+00 -0.00000000000E+00 -0.12234578767E+04  0.12234578767E+04  0.00000000000E+00 0.  1.
    9000007    2    1    2  501    0 -0.27345899143E+03 -0.56700747132E+03 -0.65187534958E+03  0.99051069033E+03  0.39986580716E+03 0.  0.
    9000005    1    3    3    0    0  0.90157232120E+02 -0.23651112656E+03 -0.19446412880E+03  0.31919137970E+03  0.99999687468E+00 0.  0.
          4    1    3    3  501    0 -0.36361622355E+03 -0.33049634476E+03 -0.45741122078E+03  0.67131931063E+03  0.00000000000E+00 0.  1.
   -9000007    1    1    2    0  502  0.27345899143E+03  0.56700747132E+03 -0.56549040882E+02  0.74798067258E+03  0.40000000000E+03 0. -1.
<mgrwt>
<rscale>  2 0.74582200E+03</rscale>
<asrwt>0</asrwt>
<pdfrwt beam="1">  1       21 0.79235921E-01 0.74583999E+03</pdfrwt>
<pdfrwt beam="2">  1       21 0.18822429E+00 0.74583999E+03</pdfrwt>
<totfact> 0.16168840E+02</totfact>
</mgrwt>
</event>
<event>
 6    1  0.9399121E-004  0.5558143E+03  0.7818608E-02  0.1000172E+00
         21   -1    0    0  503  502  0.00000000000E+00  0.00000000000E+00  0.14491791202E+04  0.14491791202E+04  0.00000000000E+00 0.  1.
         21   -1    0    0  501  503 -0.00000000000E+00 -0.00000000000E+00 -0.21329755461E+03  0.21329755461E+03  0.00000000000E+00 0.  1.
    9000007    2    1    2  501    0 -0.29007765804E+03  0.25397084579E+03  0.64476482702E+03  0.85126447272E+03  0.40035394610E+03 0.  0.
    9000005    1    3    3    0    0  0.65087332458E+02  0.72237782304E+02  0.50909260811E+01  0.97373382198E+02  0.99999687468E+00 0.  0.
          4    1    3    3  501    0 -0.35516499049E+03  0.18173306349E+03  0.63967390093E+03  0.75389109052E+03  0.00000000000E+00 0.  1.
   -9000007    1    1    2    0  502  0.29007765804E+03 -0.25397084579E+03  0.59111673858E+03  0.81121220210E+03  0.40000000000E+03 0.  1.
<mgrwt>
<rscale>  2 0.55575055E+03</rscale>
<asrwt>0</asrwt>
<pdfrwt beam="1">  1       21 0.22295063E+00 0.55581429E+03</pdfrwt>
<pdfrwt beam="2">  1       21 0.32815009E-01 0.55581429E+03</pdfrwt>
<totfact> 0.67800063E+02</totfact>
</mgrwt>
</event>
<event>
 6    1  0.9399121E-004  0.5961623E+03  0.7818608E-02  0.9913485E-01
         21   -1    0    0  503  502  0.00000000000E+00  0.00000000000E+00  0.44211477858E+03  0.44211477858E+03  0.00000000000E+00 0.  1.
         21   -1    0    0  501  503 -0.00000000000E+00 -0.00000000000E+00 -0.88451566096E+03  0.88451566096E+03  0.00000000000E+00 0. -1.
    9000007    2    1    2  501    0 -0.17757310140E+03 -0.40457781600E+03 -0.20685052542E+02  0.59652109384E+03  0.40024258702E+03 0.  0.
    9000005    1    3    3    0    0 -0.10900892038E+03 -0.40195988179E+03  0.12554711851E+03  0.43499168987E+03  0.99999687468E+00 0.  0.
          4    1    3    3  501    0 -0.68564181025E+02 -0.26179342092E+01 -0.14623217105E+03  0.16152940398E+03  0.00000000000E+00 0.  1.
   -9000007    1    1    2    0  502  0.17757310140E+03  0.40457781600E+03 -0.42171582983E+03  0.73010934570E+03  0.40000000000E+03 0. -1.
<mgrwt>
<rscale>  2 0.59612163E+03</rscale>
<asrwt>0</asrwt>
<pdfrwt beam="1">  1       21 0.68017659E-01 0.59616235E+03</pdfrwt>
<pdfrwt beam="2">  1       21 0.13607933E+00 0.59616235E+03</pdfrwt>
<totfact> 0.60277536E+02</totfact>
</mgrwt>
</event>
<event>
 6    1  0.9399121E-004  0.4584672E+03  0.7818608E-02  0.1025250E+00
         21   -1    0    0  503  502  0.00000000000E+00  0.00000000000E+00  0.26431571650E+03  0.26431571650E+03  0.00000000000E+00 0. -1.
         21   -1    0    0  501  503 -0.00000000000E+00 -0.00000000000E+00 -0.10864836692E+04  0.10864836692E+04  0.00000000000E+00 0.  1.
    9000007    2    1    2  501    0 -0.18440979015E+03 -0.12604332226E+03 -0.76121985084E+03  0.88862132383E+03  0.40037270895E+03 0.  0.
    9000005    1    3    3    0    0  0.10503212203E+03 -0.99263546929E+02 -0.39789051238E+03  0.42332358574E+03  0.99999687468E+00 0.  0.
          4    1    3    3  501    0 -0.28944191218E+03 -0.26779775331E+02 -0.36332933846E+03  0.46529773810E+03  0.00000000000E+00 0.  1.
   -9000007    1    1    2    0  502  0.18440979015E+03  0.12604332226E+03 -0.60948101905E+02  0.46217806191E+03  0.40000000000E+03 0. -1.
<mgrwt>
<rscale>  2 0.45838584E+03</rscale>
<asrwt>0</asrwt>
<pdfrwt beam="1">  1       21 0.40663957E-01 0.45846722E+03</pdfrwt>
<pdfrwt beam="2">  1       21 0.16715133E+00 0.45846722E+03</pdfrwt>
<totfact> 0.10939213E+03</totfact>
</mgrwt>
</event>
<event>
 6    1  0.9399121E-004  0.5642975E+03  0.7818608E-02  0.9982562E-01
         21   -1    0    0  503  502  0.00000000000E+00  0.00000000000E+00  0.41795114184E+03  0.41795114184E+03  0.00000000000E+00 0.  1.
         21   -1    0    0  501  503 -0.00000000000E+00 -0.00000000000E+00 -0.10891319893E+04  0.10891319893E+04  0.00000000000E+00 0.  1.
    9000007    2    1    2  501    0  0.29383684456E+03 -0.26780751426E+03 -0.74898916536E+03  0.93777206475E+03  0.40046313150E+03 0.  0.
    9000005    1    3    3    0    0 -0.20907937301E+02 -0.10606223528E+03  0.14116314628E+01  0.10811721552E+03  0.99999687468E+00 0.  0.
          4    1    3    3  501    0  0.31474478186E+03 -0.16174527898E+03 -0.75040079682E+03  0.82965484923E+03  0.00000000000E+00 0.  1.
   -9000007    1    1    2    0  502 -0.29383684456E+03  0.26780751426E+03  0.77808317937E+02  0.56931106634E+03  0.40000000000E+03 0.  1.
<mgrwt>
<rscale>  2 0.56421534E+03</rscale>
<asrwt>0</asrwt>
<pdfrwt beam="1">  1       21 0.64300177E-01 0.56429751E+03</pdfrwt>
<pdfrwt beam="2">  1       21 0.16755876E+00 0.56429751E+03</pdfrwt>
<totfact> 0.39004261E+02</totfact>
</mgrwt>
</event>
<event>
 6    1  0.9399121E-004  0.4336828E+03  0.7818608E-02  0.1032713E+00
         21   -1    0    0  503  502  0.00000000000E+00  0.00000000000E+00  0.16171281062E+04  0.16171281062E+04  0.00000000000E+00 0. -1.
         21   -1    0    0  501  503 -0.00000000000E+00 -0.00000000000E+00 -0.13610236287E+03  0.13610236287E+03  0.00000000000E+00 0. -1.
    9000007    2    1    2  501    0 -0.10672849062E+03 -0.12918917408E+03  0.40580766359E+03  0.59384497132E+03  0.39986394777E+03 0.  0.
    9000005    1    3    3    0    0 -0.19045885953E+03 -0.17037520516E+03  0.42749014615E+03  0.49804729972E+03  0.99999687468E+00 0.  0.
          4    1    3    3  501    0  0.83730368911E+02  0.41186031085E+02 -0.21682482561E+02  0.95797671602E+02  0.00000000000E+00 0.  1.
   -9000007    1    1    2    0  502  0.10672849062E+03  0.12918917408E+03  0.10752180797E+04  0.11593854977E+04  0.40000000000E+03 0. -1.
<mgrwt>
<rscale>  2 0.43365147E+03</rscale>
<asrwt>0</asrwt>
<pdfrwt beam="1">  1       21 0.24878893E+00 0.43368285E+03</pdfrwt>
<pdfrwt beam="2">  1       21 0.20938826E-01 0.43368285E+03</pdfrwt>
<totfact> 0.11898890E+03</totfact>
</mgrwt>
</event>
<event>
 6    1  0.9399121E-004  0.5350883E+03  0.7818608E-02  0.1005040E+00
         21   -1    0    0  503  502  0.00000000000E+00  0.00000000000E+00  0.23712041477E+03  0.23712041477E+03  0.00000000000E+00 0. -1.
         21   -1    0    0  501  503 -0.00000000000E+00 -0.00000000000E+00 -0.15380032437E+04  0.15380032437E+04  0.00000000000E+00 0. -1.
    9000007    2    1    2  501    0  0.34027710154E+03  0.10262045120E+03 -0.10624221797E+04  0.11893054750E+04  0.39923321780E+03 0.  0.
    9000005    1    3    3    0    0  0.38974847765E+03  0.11315085809E+03 -0.10639255227E+04  0.11387034339E+04  0.99999687468E+00 0.  0.
          4    1    3    3  501    0 -0.49471376112E+02 -0.10530406884E+02  0.15033430432E+01  0.50602041104E+02  0.00000000000E+00 0.  1.
   -9000007    1    1    2    0  502 -0.34027710154E+03 -0.10262045120E+03 -0.23846064927E+03  0.58581818347E+03  0.40000000000E+03 0. -1.
<mgrwt>
<rscale>  2 0.53494498E+03</rscale>
<asrwt>0</asrwt>
<pdfrwt beam="1">  1       21 0.36480063E-01 0.53508828E+03</pdfrwt>
<pdfrwt beam="2">  1       21 0.23661589E+00 0.53508828E+03</pdfrwt>
<totfact> 0.45172584E+02</totfact>
</mgrwt>
</event>
<event>
 6    1  0.9399121E-004  0.4424291E+03  0.7818608E-02  0.1030005E+00
         21   -1    0    0  503  502  0.00000000000E+00  0.00000000000E+00  0.47252180192E+03  0.47252180192E+03  0.00000000000E+00 0. -1.
         21   -1    0    0  501  503 -0.00000000000E+00 -0.00000000000E+00 -0.58376401839E+03  0.58376401839E+03  0.00000000000E+00 0. -1.
    9000007    2    1    2  501    0 -0.15441433643E+03 -0.10908599743E+03  0.22899147765E+03  0.49816172233E+03  0.39998057781E+03 0.  0.
    9000005    1    3    3    0    0 -0.26337579407E+03  0.30664386840E+02  0.13371357437E+03  0.29696369051E+03  0.99999687468E+00 0.  0.
          4    1    3    3  501    0  0.10896145763E+03 -0.13975038427E+03  0.95277903285E+02  0.20119803182E+03  0.00000000000E+00 0.  1.
   -9000007    1    1    2    0  502  0.15441433643E+03  0.10908599743E+03 -0.34023369412E+03  0.55812409798E+03  0.40000000000E+03 0. -1.
<mgrwt>
<rscale>  2 0.44242475E+03</rscale>
<asrwt>0</asrwt>
<pdfrwt beam="1">  1       21 0.72695662E-01 0.44242914E+03</pdfrwt>
<pdfrwt beam="2">  1       21 0.89809849E-01 0.44242914E+03</pdfrwt>
<totfact> 0.15492868E+03</totfact>
</mgrwt>
</event>
<event>
 6    1  0.9399121E-004  0.4836312E+03  0.7818608E-02  0.1018148E+00
         21   -1    0    0  503  502  0.00000000000E+00  0.00000000000E+00  0.13456278290E+04  0.13456278290E+04  0.00000000000E+00 0.  1.
         21   -1    0    0  501  503 -0.00000000000E+00 -0.00000000000E+00 -0.20085796497E+03  0.20085796497E+03  0.00000000000E+00 0. -1.
    9000007    2    1    2  501    0  0.60053898790E+02 -0.26497118247E+03  0.28857604109E+03  0.56318316470E+03  0.40010367059E+03 0.  0.
    9000005    1    3    3    0    0  0.23059749986E+03 -0.13104707428E+03  0.13623991407E+03  0.29817923603E+03  0.99999687468E+00 0.  0.
          4    1    3    3  501    0 -0.17054360107E+03 -0.13392410819E+03  0.15233612702E+03  0.26500392868E+03  0.00000000000E+00 0.  1.
   -9000007    1    1    2    0  502 -0.60053898790E+02  0.26497118247E+03  0.85619382299E+03  0.98330262932E+03  0.40000000000E+03 0.  1.
<mgrwt>
<rscale>  2 0.48360977E+03</rscale>
<asrwt>0</asrwt>
<pdfrwt beam="1">  1       21 0.20701966E+00 0.48363121E+03</pdfrwt>
<pdfrwt beam="2">  1       21 0.30901226E-01 0.48363121E+03</pdfrwt>
<totfact> 0.99983379E+02</totfact>
</mgrwt>
</event>
<event>
 6    1  0.9399121E-004  0.7007289E+03  0.7818608E-02  0.9716018E-01
         21   -1    0    0  503  502  0.00000000000E+00  0.00000000000E+00  0.22043237166E+04  0.22043237166E+04  0.00000000000E+00 0.  1.
         21   -1    0    0  501  503 -0.00000000000E+00 -0.00000000000E+00 -0.22273062819E+03  0.22273062819E+03  0.00000000000E+00 0. -1.
    9000007    2    1    2  501    0 -0.41861232450E+03  0.39469577885E+03  0.99178761833E+03  0.12143153355E+04  0.39987250227E+03 0.  0.
    9000005    1    3    3    0    0 -0.26449151177E+03  0.42393438847E+03  0.53833035876E+03  0.73449077644E+03  0.99999687468E+00 0.  0.
          4    1    3    3  501    0 -0.15412081273E+03 -0.29238609616E+02  0.45345725958E+03  0.47982455906E+03  0.00000000000E+00 0.  1.
   -9000007    1    1    2    0  502  0.41861232450E+03 -0.39469577885E+03  0.98980547005E+03  0.12127390093E+04  0.40000000000E+03 0.  1.
<mgrwt>
<rscale>  2 0.70071074E+03</rscale>
<asrwt>0</asrwt>
<pdfrwt beam="1">  1       21 0.33912671E+00 0.70072893E+03</pdfrwt>
<pdfrwt beam="2">  1       21 0.34266252E-01 0.70072893E+03</pdfrwt>
<totfact> 0.11215069E+02</totfact>
</mgrwt>
</event>
<event>
 6    1  0.9399121E-004  0.4774075E+03  0.7818608E-02  0.1019882E+00
         21   -1    0    0  503  502  0.00000000000E+00  0.00000000000E+00  0.76515812146E+03  0.76515812146E+03  0.00000000000E+00 0.  1.
         21   -1    0    0  501  503 -0.00000000000E+00 -0.00000000000E+00 -0.29911607339E+03  0.29911607339E+03  0.00000000000E+00 0.  1.
    9000007    2    1    2  501    0 -0.25762845528E+03  0.33158212468E+02  0.27128310559E+03  0.54910147265E+03  0.40055713183E+03 0.  0.
    9000005    1    3    3    0    0 -0.15387799258E+03 -0.15555231978E+03  0.25072086751E+03  0.33277156457E+03  0.99999687468E+00 0.  0.
          4    1    3    3  501    0 -0.10375046270E+03  0.18871053225E+03  0.20562238084E+02  0.21632990807E+03  0.00000000000E+00 0.  1.
   -9000007    1    1    2    0  502  0.25762845528E+03 -0.33158212468E+02  0.19475894247E+03  0.51517272220E+03  0.40000000000E+03 0.  1.
<mgrwt>
<rscale>  2 0.47729060E+03</rscale>
<asrwt>0</asrwt>
<pdfrwt beam="1">  1       21 0.11771663E+00 0.47740748E+03</pdfrwt>
<pdfrwt beam="2">  1       21 0.46017858E-01 0.47740748E+03</pdfrwt>
<totfact> 0.21388581E+03</totfact>
</mgrwt>
</event>
<event>
 6    1  0.9399121E-004  0.4484649E+03  0.7818608E-02  0.1028192E+00
         21   -1    0    0  503  502  0.00000000000E+00  0.00000000000E+00  0.26551673259E+03  0.26551673259E+03  0.00000000000E+00 0.  1.
         21   -1    0    0  501  503 -0.00000000000E+00 -0.00000000000E+00 -0.11405506525E+04  0.11405506525E+04  0.00000000000E+00 0.  1.
    9000007    2    1    2  501    0  0.76714484827E+02 -0.18771165316E+03 -0.84504551697E+03  0.95660094450E+03  0.39982829360E+03 0.  0.
    9000005    1    3    3    0    0 -0.16013398527E+03 -0.28730395945E+02 -0.32552548076E+03  0.36391780323E+03  0.99999687468E+00 0.  0.
          4    1    3    3  501    0  0.23684847009E+03 -0.15898125722E+03 -0.51952003621E+03  0.59268314128E+03  0.00000000000E+00 0.  1.
   -9000007    1    1    2    0  502 -0.76714484827E+02  0.18771165316E+03 -0.29988402958E+02  0.44946644060E+03  0.40000000000E+03 0.  1.
<mgrwt>
<rscale>  2 0.44842662E+03</rscale>
<asrwt>0</asrwt>
<pdfrwt beam="1">  1       21 0.40848729E-01 0.44846491E+03</pdfrwt>
<pdfrwt beam="2">  1       21 0.17546933E+00 0.44846491E+03</pdfrwt>
<totfact> 0.94740684E+02</totfact>
</mgrwt>
</event>
<event>
 6    1  0.9399121E-004  0.4556951E+03  0.7818608E-02  0.1026073E+00
         21   -1    0    0  503  502  0.00000000000E+00  0.00000000000E+00  0.72346206469E+03  0.72346206469E+03  0.00000000000E+00 0. -1.
         21   -1    0    0  501  503 -0.00000000000E+00 -0.00000000000E+00 -0.28678120503E+03  0.28678120503E+03  0.00000000000E+00 0.  1.
    9000007    2    1    2  501    0  0.31533660815E+02 -0.21601766994E+03  0.22544573315E+03  0.50797015261E+03  0.39943696857E+03 0.  0.
    9000005    1    3    3    0    0 -0.13666999524E+03 -0.14919054521E+03  0.25400306420E+03  0.32473845321E+03  0.99999687468E+00 0.  0.
          4    1    3    3  501    0  0.16820365605E+03 -0.66827124734E+02 -0.28557331049E+02  0.18323169940E+03  0.00000000000E+00 0.  1.
   -9000007    1    1    2    0  502 -0.31533660815E+02  0.21601766994E+03  0.21123512651E+03  0.50227311710E+03  0.40000000000E+03 0.  1.
<mgrwt>
<rscale>  2 0.45557149E+03</rscale>
<asrwt>0</asrwt>
<pdfrwt beam="1">  1       21 0.11130186E+00 0.45569508E+03</pdfrwt>
<pdfrwt beam="2">  1       21 0.44120186E-01 0.45569508E+03</pdfrwt>
<totfact> 0.27089745E+03</totfact>
</mgrwt>
</event>
<event>
 6    1  0.9399121E-004  0.6518708E+03  0.7818608E-02  0.9804085E-01
         21   -1    0    0  503  502  0.00000000000E+00  0.00000000000E+00  0.28380076374E+03  0.28380076374E+03  0.00000000000E+00 0.  1.
         21   -1    0    0  501  503 -0.00000000000E+00 -0.00000000000E+00 -0.35067808681E+04  0.35067808681E+04  0.00000000000E+00 0.  1.
    9000007    2    1    2  501    0  0.38347801050E+03 -0.34004126823E+03 -0.30485248728E+04  0.31174411736E+04  0.40280531591E+03 0.  0.
    9000005    1    3    3    0    0 -0.32675227681E+02 -0.16857472336E+03 -0.48026962016E+03  0.51004413133E+03  0.99999687468E+00 0.  0.
          4    1    3    3  501    0  0.41615323819E+03 -0.17146654487E+03 -0.25682552526E+04  0.26073970423E+04  0.00000000000E+00 0.  1.
   -9000007    1    1    2    0  502 -0.38347801050E+03  0.34004126823E+03 -0.17445523158E+03  0.67314045820E+03  0.40000000000E+03 0.  1.
<mgrwt>
<rscale>  2 0.65143796E+03</rscale>
<asrwt>0</asrwt>
<pdfrwt beam="1">  1       21 0.43661657E-01 0.65187082E+03</pdfrwt>
<pdfrwt beam="2">  1       21 0.53950474E+00 0.65187082E+03</pdfrwt>
<totfact> 0.30623298E+00</totfact>
</mgrwt>
</event>
<event>
 6    1  0.9399121E-004  0.4356532E+03  0.7818608E-02  0.1032096E+00
         21   -1    0    0  503  502  0.00000000000E+00  0.00000000000E+00  0.54195181473E+03  0.54195181473E+03  0.00000000000E+00 0.  1.
         21   -1    0    0  501  503 -0.00000000000E+00 -0.00000000000E+00 -0.64206576416E+03  0.64206576416E+03  0.00000000000E+00 0.  1.
    9000007    2    1    2  501    0 -0.65762771053E+02 -0.15959003649E+03 -0.44924289289E+03  0.62573025057E+03  0.39990679896E+03 0.  0.
    9000005    1    3    3    0    0 -0.10237243805E+03  0.87318895815E+01  0.37521208235E+02  0.10938557047E+03  0.99999687468E+00 0.  0.
          4    1    3    3  501    0  0.36609666992E+02 -0.16832192607E+03 -0.48676410113E+03  0.51634468009E+03  0.00000000000E+00 0.  1.
   -9000007    1    1    2    0  502  0.65762771053E+02  0.15959003649E+03  0.34912894347E+03  0.55828732833E+03  0.40000000000E+03 0.  1.
<mgrwt>
<rscale>  2 0.43563182E+03</rscale>
<asrwt>0</asrwt>
<pdfrwt beam="1">  1       21 0.83377203E-01 0.43565321E+03</pdfrwt>
<pdfrwt beam="2">  1       21 0.98779348E-01 0.43565321E+03</pdfrwt>
<totfact> 0.90314194E+02</totfact>
</mgrwt>
</event>
<event>
 6    1  0.9399121E-004  0.4527637E+03  0.7818608E-02  0.1026908E+00
         21   -1    0    0  503  502  0.00000000000E+00  0.00000000000E+00  0.19692581955E+03  0.19692581955E+03  0.00000000000E+00 0.  1.
         21   -1    0    0  501  503 -0.00000000000E+00 -0.00000000000E+00 -0.14767423349E+04  0.14767423349E+04  0.00000000000E+00 0.  1.
    9000007    2    1    2  501    0  0.20887949308E+03 -0.35774158209E+02 -0.10946506134E+04  0.11845906102E+04  0.40010563029E+03 0.  0.
    9000005    1    3    3    0    0 -0.50233222451E+02 -0.40307422922E+02 -0.50674064632E+01  0.64612255668E+02  0.99999687468E+00 0.  0.
          4    1    3    3  501    0  0.25911271553E+03  0.45332647133E+01 -0.10895832069E+04  0.11199783545E+04  0.00000000000E+00 0.  1.
   -9000007    1    1    2    0  502 -0.20887949308E+03  0.35774158209E+02 -0.18516590196E+03  0.48907754423E+03  0.40000000000E+03 0.  1.
<mgrwt>
<rscale>  2 0.45274034E+03</rscale>
<asrwt>0</asrwt>
<pdfrwt beam="1">  1       21 0.30296280E-01 0.45276368E+03</pdfrwt>
<pdfrwt beam="2">  1       21 0.22719113E+00 0.45276368E+03</pdfrwt>
<totfact> 0.78209304E+02</totfact>
</mgrwt>
</event>
<event>
 6    1  0.9399121E-004  0.4433652E+03  0.7818608E-02  0.1029788E+00
         21   -1    0    0  503  502  0.00000000000E+00  0.00000000000E+00  0.17155295628E+03  0.17155295628E+03  0.00000000000E+00 0.  1.
         21   -1    0    0  501  503 -0.00000000000E+00 -0.00000000000E+00 -0.11604283448E+04  0.11604283448E+04  0.00000000000E+00 0.  1.
    9000007    2    1    2  501    0  0.20464463726E+02  0.18803939667E+03 -0.57531261021E+03  0.72633141824E+03  0.40099266912E+03 0.  0.
    9000005    1    3    3    0    0  0.11647230732E+03 -0.82397789477E+02 -0.28168642054E+03  0.31575850518E+03  0.99999687468E+00 0.  0.
          4    1    3    3  501    0 -0.96007843593E+02  0.27043718614E+03 -0.29362618967E+03  0.41057291306E+03  0.00000000000E+00 0.  1.
   -9000007    1    1    2    0  502 -0.20464463726E+02 -0.18803939667E+03 -0.41356277827E+03  0.60564988280E+03  0.40000000000E+03 0.  1.
<mgrwt>
<rscale>  2 0.44314066E+03</rscale>
<asrwt>0</asrwt>
<pdfrwt beam="1">  1       21 0.26392763E-01 0.44336523E+03</pdfrwt>
<pdfrwt beam="2">  1       21 0.17852744E+00 0.44336523E+03</pdfrwt>
<totfact> 0.21716842E+03</totfact>
</mgrwt>
</event>
<event>
 6    1  0.9399121E-004  0.5705505E+03  0.7818608E-02  0.9968489E-01
         21   -1    0    0  503  502  0.00000000000E+00  0.00000000000E+00  0.62868510303E+03  0.62868510303E+03  0.00000000000E+00 0. -1.
         21   -1    0    0  501  503 -0.00000000000E+00 -0.00000000000E+00 -0.52565874542E+03  0.52565874542E+03  0.00000000000E+00 0. -1.
    9000007    2    1    2  501    0  0.40163489325E+03  0.64940910815E+02 -0.19304524287E+02  0.57082627884E+03  0.39992757667E+03 0.  0.
    9000005    1    3    3    0    0  0.29047155520E+03  0.70625233876E+02 -0.19923820778E+03  0.35924714540E+03  0.99999687468E+00 0.  0.
          4    1    3    3  501    0  0.11116333804E+03 -0.56843230605E+01  0.17993368349E+03  0.21157913344E+03  0.00000000000E+00 0.  1.
   -9000007    1    1    2    0  502 -0.40163489325E+03 -0.64940910815E+02  0.12233088190E+03  0.58351756960E+03  0.40000000000E+03 0. -1.
<mgrwt>
<rscale>  2 0.57053784E+03</rscale>
<asrwt>0</asrwt>
<pdfrwt beam="1">  1       21 0.96720785E-01 0.57055053E+03</pdfrwt>
<pdfrwt beam="2">  1       21 0.80870576E-01 0.57055053E+03</pdfrwt>
<totfact> 0.97047020E+02</totfact>
</mgrwt>
</event>
<event>
 6    1  0.9399121E-004  0.5783205E+03  0.7818608E-02  0.9951696E-01
         21   -1    0    0  503  502  0.00000000000E+00  0.00000000000E+00  0.15166974681E+04  0.15166974681E+04  0.00000000000E+00 0. -1.
         21   -1    0    0  501  503 -0.00000000000E+00 -0.00000000000E+00 -0.25264303904E+03  0.25264303904E+03  0.00000000000E+00 0.  1.
    9000007    2    1    2  501    0 -0.14791526333E+03  0.39060942764E+03  0.31541485632E+03  0.65831769502E+03  0.39930064601E+03 0.  0.
    9000005    1    3    3    0    0 -0.10874122079E+03 -0.58263024316E+02  0.10042397663E+03  0.15907610813E+03  0.99999687468E+00 0.  0.
          4    1    3    3  501    0 -0.39174042535E+02  0.44887245196E+03  0.21499087969E+03  0.49924158689E+03  0.00000000000E+00 0.  1.
   -9000007    1    1    2    0  502  0.14791526333E+03 -0.39060942764E+03  0.94863957273E+03  0.11110228121E+04  0.40000000000E+03 0.  1.
<mgrwt>
<rscale>  2 0.57819963E+03</rscale>
<asrwt>0</asrwt>
<pdfrwt beam="1">  1       21 0.23333807E+00 0.57832054E+03</pdfrwt>
<pdfrwt beam="2">  1       21 0.38868161E-01 0.57832054E+03</pdfrwt>
<totfact> 0.40852116E+02</totfact>
</mgrwt>
</event>
<event>
 6    1  0.9399121E-004  0.4208782E+03  0.7818608E-02  0.1036817E+00
         21   -1    0    0  503  502  0.00000000000E+00  0.00000000000E+00  0.26772703391E+03  0.26772703391E+03  0.00000000000E+00 0. -1.
         21   -1    0    0  501  503 -0.00000000000E+00 -0.00000000000E+00 -0.72706643918E+03  0.72706643918E+03  0.00000000000E+00 0. -1.
    9000007    2    1    2  501    0 -0.37408389577E+02 -0.12396096448E+03 -0.37978162857E+03  0.56689728455E+03  0.40046565084E+03 0.  0.
    9000005    1    3    3    0    0 -0.15788381065E+03 -0.19840807977E+03 -0.33132029234E+03  0.41721361422E+03  0.99999687468E+00 0.  0.
          4    1    3    3  501    0  0.12047542107E+03  0.74447115281E+02 -0.48461336237E+02  0.14968367034E+03  0.00000000000E+00 0.  1.
   -9000007    1    1    2    0  502  0.37408389577E+02  0.12396096448E+03 -0.79557776698E+02  0.42789618853E+03  0.40000000000E+03 0. -1.
<mgrwt>
<rscale>  2 0.42076738E+03</rscale>
<asrwt>0</asrwt>
<pdfrwt beam="1">  1       21 0.41188775E-01 0.42087818E+03</pdfrwt>
<pdfrwt beam="2">  1       21 0.11185637E+00 0.42087818E+03</pdfrwt>
<totfact> 0.31268223E+03</totfact>
</mgrwt>
</event>
<event>
 6    1  0.9399121E-004  0.4942687E+03  0.7818608E-02  0.1015308E+00
         21   -1    0    0  503  502  0.00000000000E+00  0.00000000000E+00  0.69662945594E+03  0.69662945594E+03  0.00000000000E+00 0.  1.
         21   -1    0    0  501  503 -0.00000000000E+00 -0.00000000000E+00 -0.35930297008E+03  0.35930297008E+03  0.00000000000E+00 0. -1.
    9000007    2    1    2  501    0  0.19178025824E+03 -0.21722241122E+03  0.85842572568E+02  0.50166768599E+03  0.40042012502E+03 0.  0.
    9000005    1    3    3    0    0  0.26145925573E+03  0.20002968297E+01  0.72100687109E+02  0.27122767681E+03  0.99999687468E+00 0.  0.
          4    1    3    3  501    0 -0.69678997490E+02 -0.21922270805E+03  0.13741885458E+02  0.23044000918E+03  0.00000000000E+00 0.  1.
   -9000007    1    1    2    0  502 -0.19178025824E+03  0.21722241122E+03  0.25148391329E+03  0.55426474002E+03  0.40000000000E+03 0. -1.
<mgrwt>
<rscale>  2 0.49418358E+03</rscale>
<asrwt>0</asrwt>
<pdfrwt beam="1">  1       21 0.10717376E+00 0.49426867E+03</pdfrwt>
<pdfrwt beam="2">  1       21 0.55277380E-01 0.49426867E+03</pdfrwt>
<totfact> 0.18171233E+03</totfact>
</mgrwt>
</event>
<event>
 6    1  0.9399121E-004  0.5921946E+03  0.7818608E-02  0.9921862E-01
         21   -1    0    0  503  502  0.00000000000E+00  0.00000000000E+00  0.34806909955E+03  0.34806909955E+03  0.00000000000E+00 0. -1.
         21   -1    0    0  501  503 -0.00000000000E+00 -0.00000000000E+00 -0.11454065096E+04  0.11454065096E+04  0.00000000000E+00 0.  1.
    9000007    2    1    2  501    0 -0.23535961191E+03 -0.36743945667E+03 -0.65819794478E+03  0.88539198661E+03  0.40036050531E+03 0.  0.
    9000005    1    3    3    0    0  0.94773827136E+02 -0.87183278978E+02 -0.28873504713E+03  0.31615175134E+03  0.99999687468E+00 0.  0.
          4    1    3    3  501    0 -0.33013343905E+03 -0.28025617769E+03 -0.36946289765E+03  0.56924023527E+03  0.00000000000E+00 0.  1.
   -9000007    1    1    2    0  502  0.23535961191E+03  0.36743945667E+03 -0.13913946531E+03  0.60808362257E+03  0.40000000000E+03 0. -1.
<mgrwt>
<rscale>  2 0.59213367E+03</rscale>
<asrwt>0</asrwt>
<pdfrwt beam="1">  1       21 0.53549092E-01 0.59219459E+03</pdfrwt>
<pdfrwt beam="2">  1       21 0.17621639E+00 0.59219459E+03</pdfrwt>
<totfact> 0.49875081E+02</totfact>
</mgrwt>
</event>
<event>
 6    1  0.9399121E-004  0.4184122E+03  0.7818608E-02  0.1037584E+00
         21   -1    0    0  503  502  0.00000000000E+00  0.00000000000E+00  0.64390512672E+03  0.64390512672E+03  0.00000000000E+00 0. -1.
         21   -1    0    0  501  503 -0.00000000000E+00 -0.00000000000E+00 -0.48261497928E+03  0.48261497928E+03  0.00000000000E+00 0. -1.
    9000007    2    1    2  501    0  0.35708010293E+02 -0.11744660941E+03 -0.29155101720E+03  0.50997011739E+03  0.39999844617E+03 0.  0.
    9000005    1    3    3    0    0  0.19260958677E+03 -0.58018380540E+02 -0.27592115346E+03  0.34146459306E+03  0.99999687468E+00 0.  0.
          4    1    3    3  501    0 -0.15690157648E+03 -0.59428228874E+02 -0.15629863741E+02  0.16850552433E+03  0.00000000000E+00 0.  1.
   -9000007    1    1    2    0  502 -0.35708010293E+02  0.11744660941E+03  0.45284116465E+03  0.61654998861E+03  0.40000000000E+03 0. -1.
<mgrwt>
<rscale>  2 0.41841183E+03</rscale>
<asrwt>0</asrwt>
<pdfrwt beam="1">  1       21 0.99062327E-01 0.41841220E+03</pdfrwt>
<pdfrwt beam="2">  1       21 0.74248459E-01 0.41841220E+03</pdfrwt>
<totfact> 0.11798158E+03</totfact>
</mgrwt>
</event>
<event>
 6    1  0.9399121E-004  0.4893815E+03  0.7818608E-02  0.1016592E+00
         21   -1    0    0  503  502  0.00000000000E+00  0.00000000000E+00  0.26106091935E+03  0.26106091935E+03  0.00000000000E+00 0. -1.
         21   -1    0    0  501  503 -0.00000000000E+00 -0.00000000000E+00 -0.10373910957E+04  0.10373910957E+04  0.00000000000E+00 0. -1.
    9000007    2    1    2  501    0 -0.79239021553E+02  0.27058349259E+03 -0.60905287588E+03  0.78127124949E+03  0.39993138245E+03 0.  0.
    9000005    1    3    3    0    0  0.46213121491E+02  0.25515975492E+03 -0.60107229123E+03  0.65462283217E+03  0.99999687468E+00 0.  0.
          4    1    3    3  501    0 -0.12545214304E+03  0.15423737673E+02 -0.79805846502E+01  0.12664841732E+03  0.00000000000E+00 0.  1.
   -9000007    1    1    2    0  502  0.79239021553E+02 -0.27058349259E+03 -0.16727730046E+03  0.51718076554E+03  0.40000000000E+03 0. -1.
<mgrwt>
<rscale>  2 0.48936747E+03</rscale>
<asrwt>0</asrwt>
<pdfrwt beam="1">  1       21 0.40163218E-01 0.48938150E+03</pdfrwt>
<pdfrwt beam="2">  1       21 0.15959863E+00 0.48938150E+03</pdfrwt>
<totfact> 0.12620328E+03</totfact>
</mgrwt>
</event>
<event>
 6    1  0.9399121E-004  0.4490857E+03  0.7818608E-02  0.1028040E+00
         21   -1    0    0  503  502  0.00000000000E+00  0.00000000000E+00  0.13358078559E+04  0.13358078559E+04  0.00000000000E+00 0.  1.
         21   -1    0    0  501  503 -0.00000000000E+00 -0.00000000000E+00 -0.34176000767E+03  0.34176000767E+03  0.00000000000E+00 0. -1.
    9000007    2    1    2  501    0 -0.19846549875E+03  0.41768974058E+02 -0.12986001386E+03  0.46748436072E+03  0.40068042494E+03 0.  0.
    9000005    1    3    3    0    0 -0.22239797065E+03  0.15252139726E+03 -0.19863788561E+03  0.33493528265E+03  0.99999687468E+00 0.  0.
          4    1    3    3  501    0  0.23932471900E+02 -0.11075242320E+03  0.68777871751E+02  0.13254907807E+03  0.00000000000E+00 0.  1.
   -9000007    1    1    2    0  502  0.19846549875E+03 -0.41768974058E+02  0.11239078621E+04  0.12100835029E+04  0.40000000000E+03 0.  1.
<mgrwt>
<rscale>  2 0.44893392E+03</rscale>
<asrwt>0</asrwt>
<pdfrwt beam="1">  1       21 0.20550890E+00 0.44908574E+03</pdfrwt>
<pdfrwt beam="2">  1       21 0.52578464E-01 0.44908574E+03</pdfrwt>
<totfact> 0.34682648E+02</totfact>
</mgrwt>
</event>
<event>
 6    1  0.9399121E-004  0.4840943E+03  0.7818608E-02  0.1018571E+00
         21   -1    0    0  503  502  0.00000000000E+00  0.00000000000E+00  0.49244307719E+03  0.49244307719E+03  0.00000000000E+00 0.  1.
         21   -1    0    0  501  503 -0.00000000000E+00 -0.00000000000E+00 -0.46806377817E+03  0.46806377817E+03  0.00000000000E+00 0. -1.
    9000007    2    1    2  501    0  0.27209783173E+03 -0.17607657388E+02  0.52906388076E+01  0.47603638507E+03  0.39017353757E+03 0.  0.
    9000005    1    3    3    0    0  0.27313958572E+03 -0.16767369856E+03 -0.29910979747E+02  0.32189341276E+03  0.99999687468E+00 0.  0.
          4    1    3    3  501    0 -0.10417539871E+01  0.15006604117E+03  0.35201618555E+02  0.15414297231E+03  0.00000000000E+00 0.  1.
   -9000007    1    1    2    0  502 -0.27209783173E+03  0.17607657388E+02  0.19088660219E+02  0.48447047029E+03  0.40000000000E+03 0. -1.
<mgrwt>
<rscale>  2 0.48205966E+03</rscale>
<asrwt>0</asrwt>
<pdfrwt beam="1">  1       21 0.75760473E-01 0.48409427E+03</pdfrwt>
<pdfrwt beam="2">  1       21 0.72009812E-01 0.48409427E+03</pdfrwt>
<totfact> 0.23159627E+03</totfact>
</mgrwt>
</event>
<event>
 6    1  0.9399121E-004  0.4143610E+03  0.7818608E-02  0.1038920E+00
         21   -1    0    0  503  502  0.00000000000E+00  0.00000000000E+00  0.11471435500E+03  0.11471435500E+03  0.00000000000E+00 0. -1.
         21   -1    0    0  501  503 -0.00000000000E+00 -0.00000000000E+00 -0.15900051836E+04  0.15900051836E+04  0.00000000000E+00 0. -1.
    9000007    2    1    2  501    0  0.63359155786E+02 -0.87639246540E+02 -0.53105149582E+03  0.67356342156E+03  0.39997121332E+03 0.  0.
    9000005    1    3    3    0    0 -0.12704080039E+03 -0.14833432420E+03 -0.36405306642E+03  0.41313202715E+03  0.99999687468E+00 0.  0.
          4    1    3    3  501    0  0.19039995618E+03  0.60695077662E+02 -0.16699842941E+03  0.26043139440E+03  0.00000000000E+00 0.  1.
   -9000007    1    1    2    0  502 -0.63359155786E+02  0.87639246540E+02 -0.94423933278E+03  0.10311561170E+04  0.40000000000E+03 0. -1.
<mgrwt>
<rscale>  2 0.41435403E+03</rscale>
<asrwt>0</asrwt>
<pdfrwt beam="1">  1       21 0.17648362E-01 0.41436098E+03</pdfrwt>
<pdfrwt beam="2">  1       21 0.24461619E+00 0.41436098E+03</pdfrwt>
<totfact> 0.17619068E+03</totfact>
</mgrwt>
</event>
<event>
 6    1  0.9399121E-004  0.4790824E+03  0.7818608E-02  0.1019466E+00
         21   -1    0    0  503  502  0.00000000000E+00  0.00000000000E+00  0.12250452412E+04  0.12250452412E+04  0.00000000000E+00 0.  1.
         21   -1    0    0  501  503 -0.00000000000E+00 -0.00000000000E+00 -0.20034249369E+03  0.20034249369E+03  0.00000000000E+00 0. -1.
    9000007    2    1    2  501    0 -0.25813309518E+03 -0.42398251975E+02  0.69745270061E+03  0.84614434926E+03  0.40135979319E+03 0.  0.
    9000005    1    3    3    0    0  0.91214959170E+02  0.32835774865E+01  0.30676387556E+03  0.32005628567E+03  0.99999687468E+00 0.  0.
          4    1    3    3  501    0 -0.34934805435E+03 -0.45681829461E+02  0.39068882505E+03  0.52608806358E+03  0.00000000000E+00 0.  1.
   -9000007    1    1    2    0  502  0.25813309518E+03  0.42398251975E+02  0.32725004688E+03  0.57924338562E+03  0.40000000000E+03 0. -1.
<mgrwt>
<rscale>  2 0.47879754E+03</rscale>
<asrwt>0</asrwt>
<pdfrwt beam="1">  1       21 0.18846849E+00 0.47908245E+03</pdfrwt>
<pdfrwt beam="2">  1       21 0.30821923E-01 0.47908245E+03</pdfrwt>
<totfact> 0.13422155E+03</totfact>
</mgrwt>
</event>
<event>
 6    1  0.9399121E-004  0.4024505E+03  0.7818608E-02  0.1043202E+00
         21   -1    0    0  503  502  0.00000000000E+00  0.00000000000E+00  0.27787892112E+03  0.27787892112E+03  0.00000000000E+00 0. -1.
         21   -1    0    0  501  503 -0.00000000000E+00 -0.00000000000E+00 -0.63289826292E+03  0.63289826292E+03  0.00000000000E+00 0. -1.
    9000007    2    1    2  501    0  0.24844445656E+02 -0.36731424970E+02 -0.31054005751E+03  0.50587614577E+03  0.39687416580E+03 0.  0.
    9000005    1    3    3    0    0  0.86574377430E+02 -0.10481748598E+03  0.41415042221E+02  0.14211978719E+03  0.99999687468E+00 0.  0.
          4    1    3    3  501    0 -0.61729931774E+02  0.68086061013E+02 -0.35195509973E+03  0.36375635858E+03  0.00000000000E+00 0.  1.
   -9000007    1    1    2    0  502 -0.24844445656E+02  0.36731424970E+02 -0.44479284282E+02  0.40490103827E+03  0.40000000000E+03 0. -1.
<mgrwt>
<rscale>  2 0.40167163E+03</rscale>
<asrwt>0</asrwt>
<pdfrwt beam="1">  1       21 0.42750604E-01 0.40245055E+03</pdfrwt>
<pdfrwt beam="2">  1       21 0.97368963E-01 0.40245055E+03</pdfrwt>
<totfact> 0.40949898E+03</totfact>
</mgrwt>
</event>
<event>
 6    1  0.9399121E-004  0.4048851E+03  0.7818608E-02  0.1042115E+00
         21   -1    0    0  503  502  0.00000000000E+00  0.00000000000E+00  0.25195826252E+04  0.25195826252E+04  0.00000000000E+00 0. -1.
         21   -1    0    0  501  503 -0.00000000000E+00 -0.00000000000E+00 -0.70761603133E+02  0.70761603133E+02  0.00000000000E+00 0. -1.
    9000007    2    1    2  501    0 -0.48978839246E+02  0.37447155425E+02  0.85625668247E+03  0.94715757068E+03  0.40016339322E+03 0.  0.
    9000005    1    3    3    0    0  0.11536024546E+03  0.31006694230E+02  0.59224765891E+02  0.13333406994E+03  0.99999687468E+00 0.  0.
          4    1    3    3  501    0 -0.16433908470E+03  0.64404611947E+01  0.79703191658E+03  0.81382350074E+03  0.00000000000E+00 0.  1.
   -9000007    1    1    2    0  502  0.48978839246E+02 -0.37447155425E+02  0.15925643396E+04  0.16431866576E+04  0.40000000000E+03 0. -1.
<mgrwt>
<rscale>  2 0.40484474E+03</rscale>
<asrwt>0</asrwt>
<pdfrwt beam="1">  1       21 0.38762803E+00 0.40488512E+03</pdfrwt>
<pdfrwt beam="2">  1       21 0.10886402E-01 0.40488512E+03</pdfrwt>
<totfact> 0.58212514E+02</totfact>
</mgrwt>
</event>
<event>
 6    1  0.9399121E-004  0.4556392E+03  0.7818608E-02  0.1027014E+00
         21   -1    0    0  503  502  0.00000000000E+00  0.00000000000E+00  0.42130986208E+03  0.42130986208E+03  0.00000000000E+00 0. -1.
         21   -1    0    0  501  503 -0.00000000000E+00 -0.00000000000E+00 -0.59933336326E+03  0.59933336326E+03  0.00000000000E+00 0. -1.
    9000007    2    1    2  501    0  0.21029591897E+03  0.58161424771E+02 -0.31670451372E+03  0.54436646955E+03  0.38526092365E+03 0.  0.
    9000005    1    3    3    0    0  0.30148249533E+03  0.10340178566E+03 -0.30629689279E+03  0.44204344899E+03  0.99999687468E+00 0.  0.
          4    1    3    3  501    0 -0.91186576363E+02 -0.45240360893E+02 -0.10407620925E+02  0.10232302056E+03  0.00000000000E+00 0.  1.
   -9000007    1    1    2    0  502 -0.21029591897E+03 -0.58161424771E+02  0.13868101254E+03  0.47627675579E+03  0.40000000000E+03 0. -1.
<mgrwt>
<rscale>  2 0.45238378E+03</rscale>
<asrwt>0</asrwt>
<pdfrwt beam="1">  1       21 0.64816903E-01 0.45563925E+03</pdfrwt>
<pdfrwt beam="2">  1       21 0.92205132E-01 0.45563925E+03</pdfrwt>
<totfact> 0.18731807E+03</totfact>
</mgrwt>
</event>
<event>
 6    1  0.9399121E-004  0.5925219E+03  0.7818608E-02  0.9921393E-01
         21   -1    0    0  503  502  0.00000000000E+00  0.00000000000E+00  0.54347661528E+03  0.54347661528E+03  0.00000000000E+00 0.  1.
         21   -1    0    0  501  503 -0.00000000000E+00 -0.00000000000E+00 -0.68054101828E+03  0.68054101828E+03  0.00000000000E+00 0. -1.
    9000007    2    1    2  501    0 -0.35782122358E+03 -0.25108993939E+03 -0.20782371771E+03  0.62728564487E+03  0.39901678775E+03 0.  0.
    9000005    1    3    3    0    0 -0.12024281146E+03  0.89455103821E+02 -0.14277465095E+03  0.20699311644E+03  0.99999687468E+00 0.  0.
          4    1    3    3  501    0 -0.23757841212E+03 -0.34054504321E+03 -0.65049066763E+02  0.42029252843E+03  0.00000000000E+00 0.  1.
   -9000007    1    1    2    0  502  0.35782122358E+03  0.25108993939E+03  0.70759314712E+02  0.59673198869E+03  0.40000000000E+03 0.  1.
<mgrwt>
<rscale>  2 0.59235599E+03</rscale>
<asrwt>0</asrwt>
<pdfrwt beam="1">  1       21 0.83611787E-01 0.59252189E+03</pdfrwt>
<pdfrwt beam="2">  1       21 0.10469862E+00 0.59252189E+03</pdfrwt>
<totfact> 0.73398241E+02</totfact>
</mgrwt>
</event>
<event>
 6    1  0.9399121E-004  0.5473719E+03  0.7818608E-02  0.1002123E+00
         21   -1    0    0  503  502  0.00000000000E+00  0.00000000000E+00  0.10356645346E+04  0.10356645346E+04  0.00000000000E+00 0. -1.
         21   -1    0    0  501  503 -0.00000000000E+00 -0.00000000000E+00 -0.34872564182E+03  0.34872564182E+03  0.00000000000E+00 0.  1.
    9000007    2    1    2  501    0  0.33771156270E+03  0.15989658473E+03  0.57224917516E+02  0.55003071670E+03  0.39955360184E+03 0.  0.
    9000005    1    3    3    0    0  0.18727212522E+03 -0.12390758214E+03  0.42070305062E+02  0.22846191884E+03  0.99999687468E+00 0.  0.
          4    1    3    3  501    0  0.15043943748E+03  0.28380416687E+03  0.15154612454E+02  0.32156879786E+03  0.00000000000E+00 0.  1.
   -9000007    1    1    2    0  502 -0.33771156270E+03 -0.15989658473E+03  0.62971397529E+03  0.83435945974E+03  0.40000000000E+03 0. -1.
<mgrwt>
<rscale>  2 0.54729037E+03</rscale>
<asrwt>0</asrwt>
<pdfrwt beam="1">  1       21 0.15933300E+00 0.54737192E+03</pdfrwt>
<pdfrwt beam="2">  1       21 0.53650099E-01 0.54737192E+03</pdfrwt>
<totfact> 0.67331103E+02</totfact>
</mgrwt>
</event>
<event>
 6    1  0.9399121E-004  0.4223154E+03  0.7818608E-02  0.1036462E+00
         21   -1    0    0  503  502  0.00000000000E+00  0.00000000000E+00  0.13582103000E+04  0.13582103000E+04  0.00000000000E+00 0. -1.
         21   -1    0    0  501  503 -0.00000000000E+00 -0.00000000000E+00 -0.13376469441E+03  0.13376469441E+03  0.00000000000E+00 0. -1.
    9000007    2    1    2  501    0  0.85886571953E+02  0.10475600318E+03  0.49894567025E+03  0.65251059396E+03  0.39808663620E+03 0.  0.
    9000005    1    3    3    0    0  0.16969001545E+03 -0.32429483076E+02  0.56504221112E+02  0.18176935857E+03  0.99999687468E+00 0.  0.
          4    1    3    3  501    0 -0.83803443498E+02  0.13718548626E+03  0.44244144914E+03  0.47074123539E+03  0.00000000000E+00 0.  1.
   -9000007    1    1    2    0  502 -0.85886571953E+02 -0.10475600318E+03  0.72549993529E+03  0.83946440041E+03  0.40000000000E+03 0. -1.
<mgrwt>
<rscale>  2 0.42186175E+03</rscale>
<asrwt>0</asrwt>
<pdfrwt beam="1">  1       21 0.20895542E+00 0.42231543E+03</pdfrwt>
<pdfrwt beam="2">  1       21 0.20579185E-01 0.42231543E+03</pdfrwt>
<totfact> 0.22042113E+03</totfact>
</mgrwt>
</event>
<event>
 6    1  0.9399121E-004  0.4345117E+03  0.7818608E-02  0.1032467E+00
         21   -1    0    0  503  502  0.00000000000E+00  0.00000000000E+00  0.10636079972E+04  0.10636079972E+04  0.00000000000E+00 0.  1.
         21   -1    0    0  501  503 -0.00000000000E+00 -0.00000000000E+00 -0.20376645174E+03  0.20376645174E+03  0.00000000000E+00 0.  1.
    9000007    2    1    2  501    0  0.15479492191E+03  0.67721720257E+02  0.65803415754E+03  0.78854888459E+03  0.40031573995E+03 0.  0.
    9000005    1    3    3    0    0  0.11946466993E+03 -0.15686619217E+03  0.22287288728E+03  0.29757710511E+03  0.99999687468E+00 0.  0.
          4    1    3    3  501    0  0.35330251984E+02  0.22458791242E+03  0.43516127026E+03  0.49097177948E+03  0.00000000000E+00 0.  1.
   -9000007    1    1    2    0  502 -0.15479492191E+03 -0.67721720257E+02  0.20180738789E+03  0.47882556433E+03  0.40000000000E+03 0.  1.
<mgrwt>
<rscale>  2 0.43443893E+03</rscale>
<asrwt>0</asrwt>
<pdfrwt beam="1">  1       21 0.16363200E+00 0.43451167E+03</pdfrwt>
<pdfrwt beam="2">  1       21 0.31348686E-01 0.43451167E+03</pdfrwt>
<totfact> 0.19892784E+03</totfact>
</mgrwt>
</event>
<event>
 6    1  0.9399121E-004  0.4194119E+03  0.7818608E-02  0.1037371E+00
         21   -1    0    0  503  502  0.00000000000E+00  0.00000000000E+00  0.36732258891E+03  0.36732258891E+03  0.00000000000E+00 0.  1.
         21   -1    0    0  501  503 -0.00000000000E+00 -0.00000000000E+00 -0.50139639484E+03  0.50139639484E+03  0.00000000000E+00 0.  1.
    9000007    2    1    2  501    0  0.10203653224E+03  0.74127246479E+02 -0.16215027962E+03  0.44836842653E+03  0.39854137821E+03 0.  0.
    9000005    1    3    3    0    0  0.35847175378E+02  0.23826313712E+03 -0.88754567265E+02  0.25677366629E+03  0.99999687468E+00 0.  0.
          4    1    3    3  501    0  0.66189356862E+02 -0.16413589064E+03 -0.73395712354E+02  0.19159476024E+03  0.00000000000E+00 0.  1.
   -9000007    1    1    2    0  502 -0.10203653224E+03 -0.74127246479E+02  0.28076473687E+02  0.42035055722E+03  0.40000000000E+03 0.  1.
<mgrwt>
<rscale>  2 0.41906370E+03</rscale>
<asrwt>0</asrwt>
<pdfrwt beam="1">  1       21 0.56511167E-01 0.41941185E+03</pdfrwt>
<pdfrwt beam="2">  1       21 0.77137907E-01 0.41941185E+03</pdfrwt>
<totfact> 0.38899698E+03</totfact>
</mgrwt>
</event>
<event>
 6    1  0.9399121E-004  0.4401559E+03  0.7818608E-02  0.1030727E+00
         21   -1    0    0  503  502  0.00000000000E+00  0.00000000000E+00  0.73513655534E+03  0.73513655534E+03  0.00000000000E+00 0.  1.
         21   -1    0    0  501  503 -0.00000000000E+00 -0.00000000000E+00 -0.39659102673E+03  0.39659102673E+03  0.00000000000E+00 0.  1.
    9000007    2    1    2  501    0 -0.11001855201E+03 -0.14708196174E+03 -0.15879746450E+03  0.46758359311E+03  0.39960054624E+03 0.  0.
    9000005    1    3    3    0    0 -0.15972555620E+03  0.59397922817E+02 -0.18738736230E+03  0.25328914323E+03  0.99999687468E+00 0.  0.
          4    1    3    3  501    0  0.49707004189E+02 -0.20647988456E+03  0.28589897792E+02  0.21429444988E+03  0.00000000000E+00 0.  1.
   -9000007    1    1    2    0  502  0.11001855201E+03  0.14708196174E+03  0.49734299312E+03  0.66414398895E+03  0.40000000000E+03 0.  1.
<mgrwt>
<rscale>  2 0.44006509E+03</rscale>
<asrwt>0</asrwt>
<pdfrwt beam="1">  1       21 0.11309793E+00 0.44015586E+03</pdfrwt>
<pdfrwt beam="2">  1       21 0.61014004E-01 0.44015586E+03</pdfrwt>
<totfact> 0.13084053E+03</totfact>
</mgrwt>
</event>
<event>
 6    1  0.9399121E-004  0.5291058E+03  0.7818608E-02  0.1006451E+00
         21   -1    0    0  503  502  0.00000000000E+00  0.00000000000E+00  0.38797762649E+03  0.38797762649E+03  0.00000000000E+00 0.  1.
         21   -1    0    0  501  503 -0.00000000000E+00 -0.00000000000E+00 -0.12076283926E+04  0.12076283926E+04  0.00000000000E+00 0.  1.
    9000007    2    1    2  501    0 -0.51420483019E+02  0.34250389532E+03 -0.91598151310E+03  0.10578025259E+04  0.39996383231E+03 0.  0.
    9000005    1    3    3    0    0  0.22596410667E+02  0.13491548871E+03 -0.79441746110E+03  0.80610972539E+03  0.99999687468E+00 0.  0.
          4    1    3    3  501    0 -0.74016893686E+02  0.20758840662E+03 -0.12156405200E+03  0.25169280055E+03  0.00000000000E+00 0.  1.
   -9000007    1    1    2    0  502  0.51420483019E+02 -0.34250389532E+03  0.96330747018E+02  0.53780349312E+03  0.40000000000E+03 0.  1.
<mgrwt>
<rscale>  2 0.52909900E+03</rscale>
<asrwt>0</asrwt>
<pdfrwt beam="1">  1       21 0.59688866E-01 0.52910583E+03</pdfrwt>
<pdfrwt beam="2">  1       21 0.18578898E+00 0.52910583E+03</pdfrwt>
<totfact> 0.34505912E+02</totfact>
</mgrwt>
</event>
<event>
 6    1  0.9399121E-004  0.5463692E+03  0.7818608E-02  0.1002379E+00
         21   -1    0    0  503  502  0.00000000000E+00  0.00000000000E+00  0.39147116109E+03  0.39147116109E+03  0.00000000000E+00 0. -1.
         21   -1    0    0  501  503 -0.00000000000E+00 -0.00000000000E+00 -0.10179776232E+04  0.10179776232E+04  0.00000000000E+00 0.  1.
    9000007    2    1    2  501    0 -0.96893592526E+02  0.35934799846E+03 -0.66677839521E+03  0.86159736205E+03  0.39904540306E+03 0.  0.
    9000005    1    3    3    0    0 -0.41629485300E+02 -0.45841668296E+02  0.17568627586E+02  0.64374911787E+02  0.99999687468E+00 0.  0.
          4    1    3    3  501    0 -0.55264107226E+02  0.40518966676E+03 -0.68434702279E+03  0.79722245026E+03  0.00000000000E+00 0.  1.
   -9000007    1    1    2    0  502  0.96893592526E+02 -0.35934799846E+03  0.40271933088E+02  0.54785142225E+03  0.40000000000E+03 0. -1.
<mgrwt>
<rscale>  2 0.54619454E+03</rscale>
<asrwt>0</asrwt>
<pdfrwt beam="1">  1       21 0.60226335E-01 0.54636925E+03</pdfrwt>
<pdfrwt beam="2">  1       21 0.15661194E+00 0.54636925E+03</pdfrwt>
<totfact> 0.54925601E+02</totfact>
</mgrwt>
</event>
<event>
 6    1  0.9399121E-004  0.6828623E+03  0.7818608E-02  0.9747677E-01
         21   -1    0    0  503  502  0.00000000000E+00  0.00000000000E+00  0.64935298666E+03  0.64935298666E+03  0.00000000000E+00 0.  1.
         21   -1    0    0  501  503 -0.00000000000E+00 -0.00000000000E+00 -0.76038441677E+03  0.76038441677E+03  0.00000000000E+00 0.  1.
    9000007    2    1    2  501    0 -0.55344277782E+03  0.14351897195E+01 -0.22482457301E+03  0.71745866804E+03  0.39736618330E+03 0.  0.
    9000005    1    3    3    0    0 -0.10603957474E+03 -0.17053583125E+03 -0.85876665801E+02  0.21840939283E+03  0.99999687468E+00 0.  0.
          4    1    3    3  501    0 -0.44740320308E+03  0.17197102097E+03 -0.13894790721E+03  0.49904927522E+03  0.00000000000E+00 0.  1.
   -9000007    1    1    2    0  502  0.55344277782E+03 -0.14351897195E+01  0.11379314290E+03  0.69227873538E+03  0.40000000000E+03 0.  1.
<mgrwt>
<rscale>  2 0.68247714E+03</rscale>
<asrwt>0</asrwt>
<pdfrwt beam="1">  1       21 0.99900459E-01 0.68286233E+03</pdfrwt>
<pdfrwt beam="2">  1       21 0.11698222E+00 0.68286233E+03</pdfrwt>
<totfact> 0.35274896E+02</totfact>
</mgrwt>
</event>
<event>
 6    1  0.9399121E-004  0.4617003E+03  0.7818608E-02  0.1024306E+00
         21   -1    0    0  503  502  0.00000000000E+00  0.00000000000E+00  0.18919787073E+03  0.18919787073E+03  0.00000000000E+00 0.  1.
         21   -1    0    0  501  503 -0.00000000000E+00 -0.00000000000E+00 -0.19305372518E+04  0.19305372518E+04  0.00000000000E+00 0.  1.
    9000007    2    1    2  501    0  0.13370235276E+03  0.18785870748E+03 -0.15546930038E+04  0.16217350389E+04  0.39973364534E+03 0.  0.
    9000005    1    3    3    0    0 -0.83072778461E+02 -0.58454076698E+02 -0.16443489509E+03  0.19328166059E+03  0.99999687468E+00 0.  0.
          4    1    3    3  501    0  0.21677513122E+03  0.24631278417E+03 -0.13902581087E+04  0.14284533783E+04  0.00000000000E+00 0.  1.
   -9000007    1    1    2    0  502 -0.13370235276E+03 -0.18785870748E+03 -0.18664637721E+03  0.49800008357E+03  0.40000000000E+03 0.  1.
<mgrwt>
<rscale>  2 0.46164265E+03</rscale>
<asrwt>0</asrwt>
<pdfrwt beam="1">  1       21 0.29107364E-01 0.46170035E+03</pdfrwt>
<pdfrwt beam="2">  1       21 0.29700573E+00 0.46170035E+03</pdfrwt>
<totfact> 0.31539965E+02</totfact>
</mgrwt>
</event>
<event>
 6    1  0.9399121E-004  0.4459601E+03  0.7818608E-02  0.1028945E+00
         21   -1    0    0  503  502  0.00000000000E+00  0.00000000000E+00  0.14302351123E+04  0.14302351123E+04  0.00000000000E+00 0. -1.
         21   -1    0    0  501  503 -0.00000000000E+00 -0.00000000000E+00 -0.24541111583E+03  0.24541111583E+03  0.00000000000E+00 0. -1.
    9000007    2    1    2  501    0  0.19523300390E+03  0.25021817580E+02  0.40791271787E+02  0.44782177313E+03  0.40017295694E+03 0.  0.
    9000005    1    3    3    0    0  0.38219505756E+02  0.20484153915E+02 -0.17534786195E+03  0.18063278735E+03  0.99999687468E+00 0.  0.
          4    1    3    3  501    0  0.15701349814E+03  0.45376636650E+01  0.21613913374E+03  0.26718898578E+03  0.00000000000E+00 0.  1.
   -9000007    1    1    2    0  502 -0.19523300390E+03 -0.25021817580E+02  0.11440327247E+04  0.12278244550E+04  0.40000000000E+03 0. -1.
<mgrwt>
<rscale>  2 0.44592130E+03</rscale>
<asrwt>0</asrwt>
<pdfrwt beam="1">  1       21 0.22003617E+00 0.44596010E+03</pdfrwt>
<pdfrwt beam="2">  1       21 0.37755557E-01 0.44596010E+03</pdfrwt>
<totfact> 0.55912831E+02</totfact>
</mgrwt>
</event>
<event>
 6    1  0.9399121E-004  0.5477107E+03  0.7818608E-02  0.1002026E+00
         21   -1    0    0  503  502  0.00000000000E+00  0.00000000000E+00  0.59228397767E+03  0.59228397767E+03  0.00000000000E+00 0.  1.
         21   -1    0    0  501  503 -0.00000000000E+00 -0.00000000000E+00 -0.74684193788E+03  0.74684193788E+03  0.00000000000E+00 0. -1.
    9000007    2    1    2  501    0  0.30058627421E+03  0.22276192144E+03 -0.45712620610E+03  0.71340830727E+03  0.40001507807E+03 0.  0.
    9000005    1    3    3    0    0  0.25271303409E+03 -0.45448969740E+02 -0.13037352426E+03  0.28797177339E+03  0.99999687468E+00 0.  0.
          4    1    3    3  501    0  0.47873240128E+02  0.26821089118E+03 -0.32675268184E+03  0.42543653388E+03  0.00000000000E+00 0.  1.
   -9000007    1    1    2    0  502 -0.30058627421E+03 -0.22276192144E+03  0.30256824589E+03  0.62571760828E+03  0.40000000000E+03 0.  1.
<mgrwt>
<rscale>  2 0.54770798E+03</rscale>
<asrwt>0</asrwt>
<pdfrwt beam="1">  1       21 0.91120613E-01 0.54771073E+03</pdfrwt>
<pdfrwt beam="2">  1       21 0.11489876E+00 0.54771073E+03</pdfrwt>
<totfact> 0.48218415E+02</totfact>
</mgrwt>
</event>
<event>
 6    1  0.9399121E-004  0.4076989E+03  0.7818608E-02  0.1041154E+00
         21   -1    0    0  503  502  0.00000000000E+00  0.00000000000E+00  0.13543321731E+04  0.13543321731E+04  0.00000000000E+00 0.  1.
         21   -1    0    0  501  503 -0.00000000000E+00 -0.00000000000E+00 -0.26750772944E+03  0.26750772944E+03  0.00000000000E+00 0. -1.
    9000007    2    1    2  501    0  0.68434618749E+02  0.38193552288E+02 -0.53184403338E+02  0.41115323138E+03  0.40009543166E+03 0.  0.
    9000005    1    3    3    0    0 -0.94548417089E+01  0.21323093140E+03 -0.45489902994E+01  0.21349125847E+03  0.99999687468E+00 0.  0.
          4    1    3    3  501    0  0.77889460458E+02 -0.17503737911E+03 -0.48635413038E+02  0.19766197291E+03  0.00000000000E+00 0.  1.
   -9000007    1    1    2    0  502 -0.68434618749E+02 -0.38193552288E+02  0.11400088470E+04  0.12106866712E+04  0.40000000000E+03 0.  1.
<mgrwt>
<rscale>  2 0.40767549E+03</rscale>
<asrwt>0</asrwt>
<pdfrwt beam="1">  1       21 0.20835879E+00 0.40769891E+03</pdfrwt>
<pdfrwt beam="2">  1       21 0.41155036E-01 0.40769891E+03</pdfrwt>
<totfact> 0.56840316E+02</totfact>
</mgrwt>
</event>
<event>
 6    1  0.9399121E-004  0.4435395E+03  0.7818608E-02  0.1029749E+00
         21   -1    0    0  503  502  0.00000000000E+00  0.00000000000E+00  0.12758176681E+03  0.12758176681E+03  0.00000000000E+00 0. -1.
         21   -1    0    0  501  503 -0.00000000000E+00 -0.00000000000E+00 -0.16585239221E+04  0.16585239221E+04  0.00000000000E+00 0. -1.
    9000007    2    1    2  501    0  0.10868518783E+03  0.15784433775E+03 -0.10051535475E+04  0.10982241838E+04  0.39879242570E+03 0.  0.
    9000005    1    3    3    0    0  0.11222950952E+03  0.30142323300E+02 -0.95328913969E+03  0.96034639912E+03  0.99999687468E+00 0.  0.
          4    1    3    3  501    0 -0.35443216960E+01  0.12770201445E+03 -0.51864407839E+02  0.13787778469E+03  0.00000000000E+00 0.  1.
   -9000007    1    1    2    0  502 -0.10868518783E+03 -0.15784433775E+03 -0.52578860781E+03  0.68788150514E+03  0.40000000000E+03 0. -1.
<mgrwt>
<rscale>  2 0.44326709E+03</rscale>
<asrwt>0</asrwt>
<pdfrwt beam="1">  1       21 0.19627966E-01 0.44353952E+03</pdfrwt>
<pdfrwt beam="2">  1       21 0.25515751E+00 0.44353952E+03</pdfrwt>
<totfact> 0.12241396E+03</totfact>
</mgrwt>
</event>
<event>
 6    1  0.9399121E-004  0.5986935E+03  0.7818608E-02  0.9908234E-01
         21   -1    0    0  503  502  0.00000000000E+00  0.00000000000E+00  0.16592271326E+04  0.16592271326E+04  0.00000000000E+00 0.  1.
         21   -1    0    0  501  503 -0.00000000000E+00 -0.00000000000E+00 -0.22167642009E+03  0.22167642009E+03  0.00000000000E+00 0.  1.
    9000007    2    1    2  501    0  0.24984700369E+03  0.36879584757E+03  0.86985558971E+03  0.10558510363E+04  0.39967331834E+03 0.  0.
    9000005    1    3    3    0    0 -0.95736715609E+02  0.56442179286E+02  0.29941008568E+03  0.31937225571E+03  0.99999687468E+00 0.  0.
          4    1    3    3  501    0  0.34558371929E+03  0.31235366829E+03  0.57044550403E+03  0.73647878055E+03  0.00000000000E+00 0.  1.
   -9000007    1    1    2    0  502 -0.24984700369E+03 -0.36879584757E+03  0.56769512285E+03  0.82505251648E+03  0.40000000000E+03 0.  1.
<mgrwt>
<rscale>  2 0.59863894E+03</rscale>
<asrwt>0</asrwt>
<pdfrwt beam="1">  1       21 0.25526570E+00 0.59869350E+03</pdfrwt>
<pdfrwt beam="2">  1       21 0.34104066E-01 0.59869350E+03</pdfrwt>
<totfact> 0.38600084E+02</totfact>
</mgrwt>
</event>
<event>
 6    1  0.9399121E-004  0.4330329E+03  0.7818608E-02  0.1032949E+00
         21   -1    0    0  503  502  0.00000000000E+00  0.00000000000E+00  0.46700509707E+03  0.46700509707E+03  0.00000000000E+00 0. -1.
         21   -1    0    0  501  503 -0.00000000000E+00 -0.00000000000E+00 -0.50640051072E+03  0.50640051072E+03  0.00000000000E+00 0. -1.
    9000007    2    1    2  501    0  0.16421806843E+03 -0.23450236142E+02 -0.24170398243E+03  0.49544510254E+03  0.39940899706E+03 0.  0.
    9000005    1    3    3    0    0  0.73426120287E+02  0.89204511211E+02 -0.31336293058E+03  0.33398527844E+03  0.99999687468E+00 0.  0.
          4    1    3    3  501    0  0.90791948143E+02 -0.11265474735E+03  0.71658948149E+02  0.16145982410E+03  0.00000000000E+00 0.  1.
   -9000007    1    1    2    0  502 -0.16421806843E+03  0.23450236142E+02  0.20230856878E+03  0.47796050525E+03  0.40000000000E+03 0. -1.
<mgrwt>
<rscale>  2 0.43289636E+03</rscale>
<asrwt>0</asrwt>
<pdfrwt beam="1">  1       21 0.71846938E-01 0.43303289E+03</pdfrwt>
<pdfrwt beam="2">  1       21 0.77907771E-01 0.43303289E+03</pdfrwt>
<totfact> 0.22241225E+03</totfact>
</mgrwt>
</event>
<event>
 6    1  0.9399121E-004  0.5012246E+03  0.7818608E-02  0.1013474E+00
         21   -1    0    0  503  502  0.00000000000E+00  0.00000000000E+00  0.18405655374E+03  0.18405655374E+03  0.00000000000E+00 0.  1.
         21   -1    0    0  501  503 -0.00000000000E+00 -0.00000000000E+00 -0.14913913129E+04  0.14913913129E+04  0.00000000000E+00 0.  1.
    9000007    2    1    2  501    0 -0.10111030286E+03 -0.28423126605E+03 -0.89829060041E+03  0.10286651908E+04  0.40026911704E+03 0.  0.
    9000005    1    3    3    0    0  0.93238256177E+02 -0.33187772500E+02 -0.28880219311E+02  0.10310124985E+03  0.99999687468E+00 0.  0.
          4    1    3    3  501    0 -0.19434855903E+03 -0.25104349355E+03 -0.86941038110E+03  0.92556394097E+03  0.00000000000E+00 0.  1.
   -9000007    1    1    2    0  502  0.10111030286E+03  0.28423126605E+03 -0.40904415876E+03  0.64678267583E+03  0.40000000000E+03 0.  1.
<mgrwt>
<rscale>  2 0.50117084E+03</rscale>
<asrwt>0</asrwt>
<pdfrwt beam="1">  1       21 0.28316393E-01 0.50122457E+03</pdfrwt>
<pdfrwt beam="2">  1       21 0.22944482E+00 0.50122457E+03</pdfrwt>
<totfact> 0.84620980E+02</totfact>
</mgrwt>
</event>
<event>
 6    1  0.9399121E-004  0.6269091E+03  0.7818608E-02  0.9851442E-01
         21   -1    0    0  503  502  0.00000000000E+00  0.00000000000E+00  0.15781395324E+04  0.15781395324E+04  0.00000000000E+00 0.  1.
         21   -1    0    0  501  503 -0.00000000000E+00 -0.00000000000E+00 -0.11358315231E+04  0.11358315231E+04  0.00000000000E+00 0. -1.
    9000007    2    1    2  501    0  0.47819318456E+03 -0.65926862747E+02 -0.97808993424E+03  0.11613779371E+04  0.39890314664E+03 0.  0.
    9000005    1    3    3    0    0  0.71206013343E+02  0.95910357139E+02 -0.49538748927E+03  0.50958694789E+03  0.99999687468E+00 0.  0.
          4    1    3    3  501    0  0.40698717122E+03 -0.16183721989E+03 -0.48270244498E+03  0.65179098925E+03  0.00000000000E+00 0.  1.
   -9000007    1    1    2    0  502 -0.47819318456E+03  0.65926862747E+02  0.14203979436E+04  0.15525931183E+04  0.40000000000E+03 0.  1.
<mgrwt>
<rscale>  2 0.62673425E+03</rscale>
<asrwt>0</asrwt>
<pdfrwt beam="1">  1       21 0.24279070E+00 0.62690914E+03</pdfrwt>
<pdfrwt beam="2">  1       21 0.17474331E+00 0.62690914E+03</pdfrwt>
<totfact> 0.96420273E+00</totfact>
</mgrwt>
</event>
<event>
 6    1  0.9399121E-004  0.4774013E+03  0.7818608E-02  0.1019973E+00
         21   -1    0    0  503  502  0.00000000000E+00  0.00000000000E+00  0.78031839939E+03  0.78031839939E+03  0.00000000000E+00 0.  1.
         21   -1    0    0  501  503 -0.00000000000E+00 -0.00000000000E+00 -0.29196504285E+03  0.29196504285E+03  0.00000000000E+00 0.  1.
    9000007    2    1    2  501    0  0.18301564930E+03  0.18551895736E+03  0.27439876319E+03  0.54913090288E+03  0.39791714694E+03 0.  0.
    9000005    1    3    3    0    0  0.16271999717E+03  0.21726669005E+03 -0.71549081567E+00  0.27144819765E+03  0.99999687468E+00 0.  0.
          4    1    3    3  501    0  0.20295652126E+02 -0.31747732696E+02  0.27511425401E+03  0.27768270523E+03  0.00000000000E+00 0.  1.
   -9000007    1    1    2    0  502 -0.18301564930E+03 -0.18551895736E+03  0.21395459335E+03  0.52315253936E+03  0.40000000000E+03 0.  1.
<mgrwt>
<rscale>  2 0.47696476E+03</rscale>
<asrwt>0</asrwt>
<pdfrwt beam="1">  1       21 0.12004898E+00 0.47740131E+03</pdfrwt>
<pdfrwt beam="2">  1       21 0.44917699E-01 0.47740131E+03</pdfrwt>
<totfact> 0.21410190E+03</totfact>
</mgrwt>
</event>
<event>
 6    1  0.9399121E-004  0.4462583E+03  0.7818608E-02  0.1028852E+00
         21   -1    0    0  503  502  0.00000000000E+00  0.00000000000E+00  0.16107562331E+04  0.16107562331E+04  0.00000000000E+00 0.  1.
         21   -1    0    0  501  503 -0.00000000000E+00 -0.00000000000E+00 -0.13387875566E+03  0.13387875566E+03  0.00000000000E+00 0.  1.
    9000007    2    1    2  501    0  0.18837390129E+03  0.59743730907E+02  0.98014608266E+03  0.10769553361E+04  0.40011549887E+03 0.  0.
    9000005    1    3    3    0    0 -0.75705518465E+01 -0.13651610679E+03  0.53740958521E+03  0.55453045266E+03  0.99999687468E+00 0.  0.
          4    1    3    3  501    0  0.19594445314E+03  0.19625983770E+03  0.44273649745E+03  0.52242488339E+03  0.00000000000E+00 0.  1.
   -9000007    1    1    2    0  502 -0.18837390129E+03 -0.59743730907E+02  0.49673139479E+03  0.66767965271E+03  0.40000000000E+03 0. -1.
<mgrwt>
<rscale>  2 0.44623239E+03</rscale>
<asrwt>0</asrwt>
<pdfrwt beam="1">  1       21 0.24780864E+00 0.44625828E+03</pdfrwt>
<pdfrwt beam="2">  1       21 0.20596733E-01 0.44625828E+03</pdfrwt>
<totfact> 0.12373109E+03</totfact>
</mgrwt>
</event>
<event>
 6    1  0.9399121E-004  0.6712229E+03  0.7818608E-02  0.9767881E-01
         21   -1    0    0  503  502  0.00000000000E+00  0.00000000000E+00  0.15936395224E+04  0.15936395224E+04  0.00000000000E+00 0.  1.
         21   -1    0    0  501  503 -0.00000000000E+00 -0.00000000000E+00 -0.30350806911E+03  0.30350806911E+03  0.00000000000E+00 0. -1.
    9000007    2    1    2  501    0 -0.49856997791E+03 -0.20486127408E+03  0.89396124669E+03  0.11177305035E+04  0.39951796382E+03 0.  0.
    9000005    1    3    3    0    0 -0.40633137556E+03 -0.27922142746E+03  0.48360145537E+03  0.69060926720E+03  0.99999687468E+00 0.  0.
          4    1    3    3  501    0 -0.92238602345E+02  0.74360153385E+02  0.41035979132E+03  0.42712123631E+03  0.00000000000E+00 0.  1.
   -9000007    1    1    2    0  502  0.49856997791E+03  0.20486127408E+03  0.39617020663E+03  0.77941708802E+03  0.40000000000E+03 0. -1.
<mgrwt>
<rscale>  2 0.67115109E+03</rscale>
<asrwt>0</asrwt>
<pdfrwt beam="1">  1       21 0.24517531E+00 0.67122289E+03</pdfrwt>
<pdfrwt beam="2">  1       21 0.46693550E-01 0.67122289E+03</pdfrwt>
<totfact> 0.22623690E+02</totfact>
</mgrwt>
</event>
<event>
 6    1  0.9399121E-004  0.4118172E+03  0.7818608E-02  0.1039769E+00
         21   -1    0    0  503  502  0.00000000000E+00  0.00000000000E+00  0.31765637626E+03  0.31765637626E+03  0.00000000000E+00 0. -1.
         21   -1    0    0  501  503 -0.00000000000E+00 -0.00000000000E+00 -0.11815199506E+04  0.11815199506E+04  0.00000000000E+00 0. -1.
    9000007    2    1    2  501    0  0.81540937534E+01 -0.97306371065E+02 -0.98695326195E+03  0.10694251311E+04  0.40007293164E+03 0.  0.
    9000005    1    3    3    0    0  0.16318008929E+03 -0.69915765362E+02 -0.20236913708E+03  0.26920294097E+03  0.99999687468E+00 0.  0.
          4    1    3    3  501    0 -0.15502599554E+03 -0.27390605702E+02 -0.78458412486E+03  0.80022219012E+03  0.00000000000E+00 0.  1.
   -9000007    1    1    2    0  502 -0.81540937534E+01  0.97306371065E+02  0.12308968759E+03  0.42975119579E+03  0.40000000000E+03 0. -1.
<mgrwt>
<rscale>  2 0.41179944E+03</rscale>
<asrwt>0</asrwt>
<pdfrwt beam="1">  1       21 0.48870212E-01 0.41181716E+03</pdfrwt>
<pdfrwt beam="2">  1       21 0.18177230E+00 0.41181716E+03</pdfrwt>
<totfact> 0.59810477E+02</totfact>
</mgrwt>
</event>
<event>
 6    1  0.9399121E-004  0.4438278E+03  0.7818608E-02  0.1029622E+00
         21   -1    0    0  503  502  0.00000000000E+00  0.00000000000E+00  0.56997038814E+03  0.56997038814E+03  0.00000000000E+00 0. -1.
         21   -1    0    0  501  503 -0.00000000000E+00 -0.00000000000E+00 -0.46715508941E+03  0.46715508941E+03  0.00000000000E+00 0.  1.
    9000007    2    1    2  501    0 -0.19023495904E+03 -0.28173378888E+02 -0.21361326190E+03  0.49204739792E+03  0.39937067646E+03 0.  0.
    9000005    1    3    3    0    0  0.60919699752E+02  0.10038353704E+03 -0.16990835086E+03  0.20653791906E+03  0.99999687468E+00 0.  0.
          4    1    3    3  501    0 -0.25115465880E+03 -0.12855691593E+03 -0.43704911043E+02  0.28550947886E+03  0.00000000000E+00 0.  1.
   -9000007    1    1    2    0  502  0.19023495904E+03  0.28173378888E+02  0.31642856063E+03  0.54507807964E+03  0.40000000000E+03 0. -1.
<mgrwt>
<rscale>  2 0.44368592E+03</rscale>
<asrwt>0</asrwt>
<pdfrwt beam="1">  1       21 0.87687752E-01 0.44382776E+03</pdfrwt>
<pdfrwt beam="2">  1       21 0.71870013E-01 0.44382776E+03</pdfrwt>
<totfact> 0.16812810E+03</totfact>
</mgrwt>
</event>
<event>
 6    1  0.9399121E-004  0.5382683E+03  0.7818608E-02  0.1004419E+00
         21   -1    0    0  503  502  0.00000000000E+00  0.00000000000E+00  0.85118468557E+03  0.85118468557E+03  0.00000000000E+00 0.  1.
         21   -1    0    0  501  503 -0.00000000000E+00 -0.00000000000E+00 -0.34794399733E+03  0.34794399733E+03  0.00000000000E+00 0.  1.
    9000007    2    1    2  501    0  0.29916271302E+03 -0.20058529123E+03  0.15246748180E+03  0.55665329016E+03  0.39608555202E+03 0.  0.
    9000005    1    3    3    0    0 -0.23787944189E+02  0.57558511619E+02 -0.64559979044E+02  0.89709751067E+02  0.99999687468E+00 0.  0.
          4    1    3    3  501    0  0.32295065721E+03 -0.25814380285E+03  0.21702746084E+03  0.46694353909E+03  0.00000000000E+00 0.  1.
   -9000007    1    1    2    0  502 -0.29916271302E+03  0.20058529123E+03  0.35077320644E+03  0.64247539274E+03  0.40000000000E+03 0.  1.
<mgrwt>
<rscale>  2 0.53754122E+03</rscale>
<asrwt>0</asrwt>
<pdfrwt beam="1">  1       21 0.13095149E+00 0.53826832E+03</pdfrwt>
<pdfrwt beam="2">  1       21 0.53529846E-01 0.53826832E+03</pdfrwt>
<totfact> 0.11532028E+03</totfact>
</mgrwt>
</event>
<event>
 6    1  0.9399121E-004  0.4550806E+03  0.7818608E-02  0.1026709E+00
         21   -1    0    0  503  502  0.00000000000E+00  0.00000000000E+00  0.88616823237E+02  0.88616823237E+02  0.00000000000E+00 0. -1.
         21   -1    0    0  501  503 -0.00000000000E+00 -0.00000000000E+00 -0.24717900579E+04  0.24717900579E+04  0.00000000000E+00 0. -1.
    9000007    2    1    2  501    0 -0.20824617339E+03 -0.61088862544E+02 -0.15178783760E+04  0.15827394989E+04  0.39244265719E+03 0.  0.
    9000005    1    3    3    0    0 -0.35002202399E+02 -0.17078279992E+03 -0.11359254944E+04  0.11492256731E+04  0.99999687468E+00 0.  0.
          4    1    3    3  501    0 -0.17324397100E+03  0.10969393738E+03 -0.38195288159E+03  0.43351382577E+03  0.00000000000E+00 0.  1.
   -9000007    1    1    2    0  502  0.20824617339E+03  0.61088862544E+02 -0.86529485864E+03  0.97766738222E+03  0.40000000000E+03 0.  1.
<mgrwt>
<rscale>  2 0.45341439E+03</rscale>
<asrwt>0</asrwt>
<pdfrwt beam="1">  1       21 0.13633358E-01 0.45508056E+03</pdfrwt>
<pdfrwt beam="2">  1       21 0.38027537E+00 0.45508056E+03</pdfrwt>
<totfact> 0.41592430E+02</totfact>
</mgrwt>
</event>
<event>
 6    1  0.9399121E-004  0.6390157E+03  0.7818608E-02  0.9827636E-01
         21   -1    0    0  503  502  0.00000000000E+00  0.00000000000E+00  0.11405949057E+04  0.11405949057E+04  0.00000000000E+00 0.  1.
         21   -1    0    0  501  503 -0.00000000000E+00 -0.00000000000E+00 -0.51331278300E+03  0.51331278300E+03  0.00000000000E+00 0.  1.
    9000007    2    1    2  501    0  0.48485046143E+03 -0.11487921628E+03 -0.14125784795E+03  0.65444238627E+03  0.40007980837E+03 0.  0.
    9000005    1    3    3    0    0  0.15867302183E+03  0.69842842590E+02  0.10802580069E+03  0.20426875464E+03  0.99999687468E+00 0.  0.
          4    1    3    3  501    0  0.32617743960E+03 -0.18472205887E+03 -0.24928364863E+03  0.45017363163E+03  0.00000000000E+00 0.  1.
   -9000007    1    1    2    0  502 -0.48485046143E+03  0.11487921628E+03  0.76853997068E+03  0.99946530246E+03  0.40000000000E+03 0.  1.
<mgrwt>
<rscale>  2 0.63900320E+03</rscale>
<asrwt>0</asrwt>
<pdfrwt beam="1">  1       21 0.17547614E+00 0.63901569E+03</pdfrwt>
<pdfrwt beam="2">  1       21 0.78971198E-01 0.63901569E+03</pdfrwt>
<totfact> 0.20809968E+02</totfact>
</mgrwt>
</event>
<event>
 6    1  0.9399121E-004  0.4882960E+03  0.7818608E-02  0.1016906E+00
         21   -1    0    0  503  502  0.00000000000E+00  0.00000000000E+00  0.60192700544E+03  0.60192700544E+03  0.00000000000E+00 0.  1.
         21   -1    0    0  501  503 -0.00000000000E+00 -0.00000000000E+00 -0.12101588539E+04  0.12101588539E+04  0.00000000000E+00 0. -1.
    9000007    2    1    2  501    0  0.85736098951E+02 -0.26661269812E+03 -0.10473285323E+04  0.11553980285E+04  0.39951788457E+03 0.  0.
    9000005    1    3    3    0    0  0.10170595936E+03 -0.25144038945E+03 -0.28750397676E+03  0.39525423244E+03  0.99999687468E+00 0.  0.
          4    1    3    3  501    0 -0.15969860408E+02 -0.15172308673E+02 -0.75982455557E+03  0.76014379603E+03  0.00000000000E+00 0.  1.
   -9000007    1    1    2    0  502 -0.85736098951E+02  0.26661269812E+03  0.43909668386E+03  0.65668783089E+03  0.40000000000E+03 0.  1.
<mgrwt>
<rscale>  2 0.48819728E+03</rscale>
<asrwt>0</asrwt>
<pdfrwt beam="1">  1       21 0.92604154E-01 0.48829603E+03</pdfrwt>
<pdfrwt beam="2">  1       21 0.18617829E+00 0.48829603E+03</pdfrwt>
<totfact> 0.12795497E+02</totfact>
</mgrwt>
</event>
<event>
 6    1  0.9399121E-004  0.4408263E+03  0.7818608E-02  0.1030509E+00
         21   -1    0    0  503  502  0.00000000000E+00  0.00000000000E+00  0.56923722400E+03  0.56923722400E+03  0.00000000000E+00 0. -1.
         21   -1    0    0  501  503 -0.00000000000E+00 -0.00000000000E+00 -0.40337048366E+03  0.40337048366E+03  0.00000000000E+00 0. -1.
    9000007    2    1    2  501    0  0.17748720022E+03  0.51499853782E+02 -0.10792308968E+03  0.45384493701E+03  0.40021730645E+03 0.  0.
    9000005    1    3    3    0    0 -0.17539339145E+02  0.83334358558E+02 -0.21345871357E+03  0.22982137874E+03  0.99999687468E+00 0.  0.
          4    1    3    3  501    0  0.19502653936E+03 -0.31834504776E+02  0.10553562389E+03  0.22402355827E+03  0.00000000000E+00 0.  1.
   -9000007    1    1    2    0  502 -0.17748720022E+03 -0.51499853782E+02  0.27378983002E+03  0.51876277064E+03  0.40000000000E+03 0. -1.
<mgrwt>
<rscale>  2 0.44077698E+03</rscale>
<asrwt>0</asrwt>
<pdfrwt beam="1">  1       21 0.87574958E-01 0.44082631E+03</pdfrwt>
<pdfrwt beam="2">  1       21 0.62056997E-01 0.44082631E+03</pdfrwt>
<totfact> 0.23430256E+03</totfact>
</mgrwt>
</event>
<event>
 6    1  0.9399121E-004  0.4038147E+03  0.7818608E-02  0.1042526E+00
         21   -1    0    0  503  502  0.00000000000E+00  0.00000000000E+00  0.58133252234E+03  0.58133252234E+03  0.00000000000E+00 0. -1.
         21   -1    0    0  501  503 -0.00000000000E+00 -0.00000000000E+00 -0.37517084907E+03  0.37517084907E+03  0.00000000000E+00 0. -1.
    9000007    2    1    2  501    0  0.33476892596E+02  0.44108922685E+02 -0.13782601299E+03  0.42603770080E+03  0.39930666567E+03 0.  0.
    9000005    1    3    3    0    0 -0.56078914462E+02  0.16536812800E+03 -0.19775493854E+03  0.26381713007E+03  0.99999687468E+00 0.  0.
          4    1    3    3  501    0  0.89555807057E+02 -0.12125920532E+03  0.59928925551E+02  0.16222057073E+03  0.00000000000E+00 0.  1.
   -9000007    1    1    2    0  502 -0.33476892596E+02 -0.44108922685E+02  0.34398768626E+03  0.53046567061E+03  0.40000000000E+03 0. -1.
<mgrwt>
<rscale>  2 0.40364288E+03</rscale>
<asrwt>0</asrwt>
<pdfrwt beam="1">  1       21 0.89435773E-01 0.40381468E+03</pdfrwt>
<pdfrwt beam="2">  1       21 0.57718592E-01 0.40381468E+03</pdfrwt>
<totfact> 0.26507914E+03</totfact>
</mgrwt>
</event>
<event>
 6    1  0.9399121E-004  0.4314219E+03  0.7818608E-02  0.1033419E+00
         21   -1    0    0  503  502  0.00000000000E+00  0.00000000000E+00  0.11487087231E+04  0.11487087231E+04  0.00000000000E+00 0. -1.
         21   -1    0    0  501  503 -0.00000000000E+00 -0.00000000000E+00 -0.25604055629E+03  0.25604055629E+03  0.00000000000E+00 0. -1.
    9000007    2    1    2  501    0 -0.11625660249E+03 -0.11229110269E+03  0.20625923136E+02  0.43182453197E+03  0.39990262358E+03 0.  0.
    9000005    1    3    3    0    0 -0.72662041458E+02  0.40060101666E+01  0.20046443956E+03  0.21326699676E+03  0.99999687468E+00 0.  0.
          4    1    3    3  501    0 -0.43594561034E+02 -0.11629711285E+03 -0.17983851642E+03  0.21855753521E+03  0.00000000000E+00 0.  1.
   -9000007    1    1    2    0  502  0.11625660249E+03  0.11229110269E+03  0.87204224367E+03  0.97292474741E+03  0.40000000000E+03 0. -1.
<mgrwt>
<rscale>  2 0.43139937E+03</rscale>
<asrwt>0</asrwt>
<pdfrwt beam="1">  1       21 0.17672442E+00 0.43142194E+03</pdfrwt>
<pdfrwt beam="2">  1       21 0.39390855E-01 0.43142194E+03</pdfrwt>
<totfact> 0.10080066E+03</totfact>
</mgrwt>
</event>
<event>
 6    1  0.9399121E-004  0.4477481E+03  0.7818608E-02  0.1028431E+00
         21   -1    0    0  503  502  0.00000000000E+00  0.00000000000E+00  0.10405566197E+03  0.10405566197E+03  0.00000000000E+00 0.  1.
         21   -1    0    0  501  503 -0.00000000000E+00 -0.00000000000E+00 -0.25512853396E+04  0.25512853396E+04  0.00000000000E+00 0.  1.
    9000007    2    1    2  501    0 -0.20106589119E+03  0.71297944819E+01 -0.56514031527E+03  0.72072509796E+03  0.39947811494E+03 0.  0.
    9000005    1    3    3    0    0  0.59712593764E+02 -0.85895200790E+02 -0.36337406974E+03  0.37813396294E+03  0.99999687468E+00 0.  0.
          4    1    3    3  501    0 -0.26077848495E+03  0.93024995272E+02 -0.20176624552E+03  0.34259113502E+03  0.00000000000E+00 0.  1.
   -9000007    1    1    2    0  502  0.20106589119E+03 -0.71297944819E+01 -0.18820893624E+04  0.19346159036E+04  0.40000000000E+03 0.  1.
<mgrwt>
<rscale>  2 0.44763147E+03</rscale>
<asrwt>0</asrwt>
<pdfrwt beam="1">  1       21 0.16008565E-01 0.44774806E+03</pdfrwt>
<pdfrwt beam="2">  1       21 0.39250540E+00 0.44774806E+03</pdfrwt>
<totfact> 0.25965529E+02</totfact>
</mgrwt>
</event>
<event>
 6    1  0.9399121E-004  0.5672493E+03  0.7818608E-02  0.9975866E-01
         21   -1    0    0  503  502  0.00000000000E+00  0.00000000000E+00  0.18996442252E+04  0.18996442252E+04  0.00000000000E+00 0.  1.
         21   -1    0    0  501  503 -0.00000000000E+00 -0.00000000000E+00 -0.29040995605E+03  0.29040995605E+03  0.00000000000E+00 0.  1.
    9000007    2    1    2  501    0 -0.23070051510E+03 -0.32921281345E+03  0.97652385570E+02  0.57559340595E+03  0.40020991537E+03 0.  0.
    9000005    1    3    3    0    0 -0.30556983857E+03 -0.12814761509E+03  0.13502742224E+03  0.35781020422E+03  0.99999687468E+00 0.  0.
          4    1    3    3  501    0  0.74869323464E+02 -0.20106519837E+03 -0.37375036668E+02  0.21778320173E+03  0.00000000000E+00 0.  1.
   -9000007    1    1    2    0  502  0.23070051510E+03  0.32921281345E+03  0.15115818835E+04  0.16144607753E+04  0.40000000000E+03 0.  1.
<mgrwt>
<rscale>  2 0.56721229E+03</rscale>
<asrwt>0</asrwt>
<pdfrwt beam="1">  1       21 0.29225295E+00 0.56724931E+03</pdfrwt>
<pdfrwt beam="2">  1       21 0.44678456E-01 0.56724931E+03</pdfrwt>
<totfact> 0.13307740E+02</totfact>
</mgrwt>
</event>
<event>
 6    1  0.9399121E-004  0.4673471E+03  0.7818608E-02  0.1022677E+00
         21   -1    0    0  503  502  0.00000000000E+00  0.00000000000E+00  0.56365049701E+03  0.56365049701E+03  0.00000000000E+00 0. -1.
         21   -1    0    0  501  503 -0.00000000000E+00 -0.00000000000E+00 -0.46227168165E+03  0.46227168165E+03  0.00000000000E+00 0. -1.
    9000007    2    1    2  501    0 -0.11934784916E+03  0.21016511872E+03 -0.15571244598E+03  0.49252813774E+03  0.39990538182E+03 0.  0.
    9000005    1    3    3    0    0  0.50342316779E+02  0.11493858118E+03 -0.24741575705E+03  0.27741806562E+03  0.99999687468E+00 0.  0.
          4    1    3    3  501    0 -0.16969016594E+03  0.95226537538E+02  0.91703311067E+02  0.21511007213E+03  0.00000000000E+00 0.  1.
   -9000007    1    1    2    0  502  0.11934784916E+03 -0.21016511872E+03  0.25709126133E+03  0.53339404091E+03  0.40000000000E+03 0. -1.
<mgrwt>
<rscale>  2 0.46732683E+03</rscale>
<asrwt>0</asrwt>
<pdfrwt beam="1">  1       21 0.86715461E-01 0.46734707E+03</pdfrwt>
<pdfrwt beam="2">  1       21 0.71118720E-01 0.46734707E+03</pdfrwt>
<totfact> 0.17517970E+03</totfact>
</mgrwt>
</event>
<event>
 6    1  0.9399121E-004  0.4099834E+03  0.7818608E-02  0.1040391E+00
         21   -1    0    0  503  502  0.00000000000E+00  0.00000000000E+00  0.93544656227E+03  0.93544656227E+03  0.00000000000E+00 0.  1.
         21   -1    0    0  501  503 -0.00000000000E+00 -0.00000000000E+00 -0.36943175690E+03  0.36943175690E+03  0.00000000000E+00 0.  1.
    9000007    2    1    2  501    0 -0.83227954050E+02  0.31880567122E+02 -0.18464117051E+03  0.44964287965E+03  0.40017882813E+03 0.  0.
    9000005    1    3    3    0    0 -0.18849774766E+03 -0.18974065866E+02  0.42517185570E+02  0.19416520572E+03  0.99999687468E+00 0.  0.
          4    1    3    3  501    0  0.10526979361E+03  0.50854632988E+02 -0.22715835608E+03  0.25547767393E+03  0.00000000000E+00 0.  1.
   -9000007    1    1    2    0  502  0.83227954050E+02 -0.31880567122E+02  0.75065597587E+03  0.85523543951E+03  0.40000000000E+03 0.  1.
<mgrwt>
<rscale>  2 0.40993972E+03</rscale>
<asrwt>0</asrwt>
<pdfrwt beam="1">  1       21 0.14391485E+00 0.40998336E+03</pdfrwt>
<pdfrwt beam="2">  1       21 0.56835655E-01 0.40998336E+03</pdfrwt>
<totfact> 0.83126908E+02</totfact>
</mgrwt>
</event>
<event>
 6    1  0.9399121E-004  0.4933320E+03  0.7818608E-02  0.1015645E+00
         21   -1    0    0  503  502  0.00000000000E+00  0.00000000000E+00  0.25503480714E+03  0.25503480714E+03  0.00000000000E+00 0.  1.
         21   -1    0    0  501  503 -0.00000000000E+00 -0.00000000000E+00 -0.97619578676E+03  0.97619578676E+03  0.00000000000E+00 0.  1.
    9000007    2    1    2  501    0  0.18275432112E+03  0.21986686542E+03 -0.45992282541E+03  0.67446677180E+03  0.40203960069E+03 0.  0.
    9000005    1    3    3    0    0  0.13465073017E+03 -0.85102792733E+02 -0.62273242105E+02  0.17103292414E+03  0.99999687468E+00 0.  0.
          4    1    3    3  501    0  0.48103590949E+02  0.30496965815E+03 -0.39764958331E+03  0.50343384765E+03  0.00000000000E+00 0.  1.
   -9000007    1    1    2    0  502 -0.18275432112E+03 -0.21986686542E+03 -0.26123815420E+03  0.55676382211E+03  0.40000000000E+03 0.  1.
<mgrwt>
<rscale>  2 0.49291625E+03</rscale>
<asrwt>0</asrwt>
<pdfrwt beam="1">  1       21 0.39236124E-01 0.49333196E+03</pdfrwt>
<pdfrwt beam="2">  1       21 0.15018397E+00 0.49333196E+03</pdfrwt>
<totfact> 0.15636250E+03</totfact>
</mgrwt>
</event>
<event>
 6    1  0.9399121E-004  0.4292690E+03  0.7818608E-02  0.1034100E+00
         21   -1    0    0  503  502  0.00000000000E+00  0.00000000000E+00  0.69247589464E+03  0.69247589464E+03  0.00000000000E+00 0.  1.
         21   -1    0    0  501  503 -0.00000000000E+00 -0.00000000000E+00 -0.43016327448E+03  0.43016327448E+03  0.00000000000E+00 0. -1.
    9000007    2    1    2  501    0 -0.30004899049E+02  0.15256725088E+03 -0.21555580270E+03  0.48035006787E+03  0.40011851197E+03 0.  0.
    9000005    1    3    3    0    0 -0.11978911326E+03  0.24254823411E+03 -0.22642576730E+03  0.35277288106E+03  0.99999687468E+00 0.  0.
          4    1    3    3  501    0  0.89784214209E+02 -0.89980983229E+02  0.10869964594E+02  0.12757718681E+03  0.00000000000E+00 0.  1.
   -9000007    1    1    2    0  502  0.30004899049E+02 -0.15256725088E+03  0.47786842287E+03  0.64228910125E+03  0.40000000000E+03 0.  1.
<mgrwt>
<rscale>  2 0.42924139E+03</rscale>
<asrwt>0</asrwt>
<pdfrwt beam="1">  1       21 0.10653475E+00 0.42926901E+03</pdfrwt>
<pdfrwt beam="2">  1       21 0.66178965E-01 0.42926901E+03</pdfrwt>
<totfact> 0.12734820E+03</totfact>
</mgrwt>
</event>
<event>
 6    1  0.9399121E-004  0.5340985E+03  0.7818608E-02  0.1005284E+00
         21   -1    0    0  503  502  0.00000000000E+00  0.00000000000E+00  0.13634706253E+04  0.13634706253E+04  0.00000000000E+00 0.  1.
         21   -1    0    0  501  503 -0.00000000000E+00 -0.00000000000E+00 -0.37054821978E+03  0.37054821978E+03  0.00000000000E+00 0. -1.
    9000007    2    1    2  501    0 -0.34131171992E+01 -0.35390611135E+03 -0.76276528221E+02  0.53884206111E+03  0.39908830231E+03 0.  0.
    9000005    1    3    3    0    0  0.10502268221E+03 -0.40116901328E+03 -0.50233794367E+02  0.41772092967E+03  0.99999687468E+00 0.  0.
          4    1    3    3  501    0 -0.10843579941E+03  0.47262901934E+02 -0.26042733854E+02  0.12112113143E+03  0.00000000000E+00 0.  1.
   -9000007    1    1    2    0  502  0.34131171992E+01  0.35390611135E+03  0.10691989337E+04  0.11951767839E+04  0.40000000000E+03 0.  1.
<mgrwt>
<rscale>  2 0.53392778E+03</rscale>
<asrwt>0</asrwt>
<pdfrwt beam="1">  1       21 0.20976471E+00 0.53409848E+03</pdfrwt>
<pdfrwt beam="2">  1       21 0.57007419E-01 0.53409848E+03</pdfrwt>
<totfact> 0.26223495E+02</totfact>
</mgrwt>
</event>
<event>
 6    1  0.9399121E-004  0.5579916E+03  0.7818608E-02  0.9996829E-01
         21   -1    0    0  503  502  0.00000000000E+00  0.00000000000E+00  0.14420236831E+04  0.14420236831E+04  0.00000000000E+00 0.  1.
         21   -1    0    0  501  503 -0.00000000000E+00 -0.00000000000E+00 -0.22394827634E+03  0.22394827634E+03  0.00000000000E+00 0. -1.
    9000007    2    1    2  501    0  0.33058465800E+03 -0.20405381192E+03  0.45001717258E+03  0.71684729674E+03  0.40053765986E+03 0.  0.
    9000005    1    3    3    0    0  0.29077766944E+03 -0.20890377591E+03  0.11012030798E+03  0.37459300962E+03  0.99999687468E+00 0.  0.
          4    1    3    3  501    0  0.39806988567E+02  0.48499639893E+01  0.33989686460E+03  0.34225428712E+03  0.00000000000E+00 0.  1.
   -9000007    1    1    2    0  502 -0.33058465800E+03  0.20405381192E+03  0.76805823421E+03  0.94912466273E+03  0.40000000000E+03 0. -1.
<mgrwt>
<rscale>  2 0.55789509E+03</rscale>
<asrwt>0</asrwt>
<pdfrwt beam="1">  1       21 0.22184979E+00 0.55799157E+03</pdfrwt>
<pdfrwt beam="2">  1       21 0.34453582E-01 0.55799157E+03</pdfrwt>
<totfact> 0.62391376E+02</totfact>
</mgrwt>
</event>
<event>
 6    1  0.9399121E-004  0.4684356E+03  0.7818608E-02  0.1022409E+00
         21   -1    0    0  503  502  0.00000000000E+00  0.00000000000E+00  0.42185064886E+03  0.42185064886E+03  0.00000000000E+00 0.  1.
         21   -1    0    0  501  503 -0.00000000000E+00 -0.00000000000E+00 -0.15606071367E+04  0.15606071367E+04  0.00000000000E+00 0.  1.
    9000007    2    1    2  501    0  0.14441036693E+03 -0.19641158990E+03 -0.13788772708E+04  0.14560645323E+04  0.39923618018E+03 0.  0.
    9000005    1    3    3    0    0 -0.13711583391E+03 -0.50082585083E+02 -0.34545410554E+03  0.37503140704E+03  0.99999687468E+00 0.  0.
          4    1    3    3  501    0  0.28152620084E+03 -0.14632900482E+03 -0.10334231652E+04  0.10810331252E+04  0.00000000000E+00 0.  1.
   -9000007    1    1    2    0  502 -0.14441036693E+03  0.19641158990E+03  0.24012078293E+03  0.52639325330E+03  0.40000000000E+03 0.  1.
<mgrwt>
<rscale>  2 0.46827245E+03</rscale>
<asrwt>0</asrwt>
<pdfrwt beam="1">  1       21 0.64900100E-01 0.46843555E+03</pdfrwt>
<pdfrwt beam="2">  1       21 0.24009340E+00 0.46843555E+03</pdfrwt>
<totfact> 0.13041325E+02</totfact>
</mgrwt>
</event>
<event>
 6    1  0.9399121E-004  0.4880417E+03  0.7818608E-02  0.1016996E+00
         21   -1    0    0  503  502  0.00000000000E+00  0.00000000000E+00  0.13125265325E+04  0.13125265325E+04  0.00000000000E+00 0. -1.
         21   -1    0    0  501  503 -0.00000000000E+00 -0.00000000000E+00 -0.44068318455E+03  0.44068318455E+03  0.00000000000E+00 0.  1.
    9000007    2    1    2  501    0 -0.72653558594E+02 -0.26873216200E+03 -0.23659782040E+03  0.54236813444E+03  0.40086051211E+03 0.  0.
    9000005    1    3    3    0    0 -0.23743495027E+03 -0.16573591477E+03 -0.10653498030E+03  0.30853598020E+03  0.99999687468E+00 0.  0.
          4    1    3    3  501    0  0.16478139168E+03 -0.10299624723E+03 -0.13006284009E+03  0.23383215425E+03  0.00000000000E+00 0.  1.
   -9000007    1    1    2    0  502  0.72653558594E+02  0.26873216200E+03  0.11084411684E+04  0.12108415826E+04  0.40000000000E+03 0. -1.
<mgrwt>
<rscale>  2 0.48786493E+03</rscale>
<asrwt>0</asrwt>
<pdfrwt beam="1">  1       21 0.20192716E+00 0.48804166E+03</pdfrwt>
<pdfrwt beam="2">  1       21 0.67797413E-01 0.48804166E+03</pdfrwt>
<totfact> 0.20569337E+02</totfact>
</mgrwt>
</event>
<event>
 6    1  0.9399121E-004  0.5411713E+03  0.7818608E-02  0.1003566E+00
         21   -1    0    0  503  502  0.00000000000E+00  0.00000000000E+00  0.44623978150E+03  0.44623978150E+03  0.00000000000E+00 0.  1.
         21   -1    0    0  501  503 -0.00000000000E+00 -0.00000000000E+00 -0.70146250155E+03  0.70146250155E+03  0.00000000000E+00 0.  1.
    9000007    2    1    2  501    0  0.28134137684E+03 -0.23176161385E+03  0.18277254730E+02  0.54134541439E+03  0.39981793815E+03 0.  0.
    9000005    1    3    3    0    0  0.60518495773E+02  0.10522939187E+03 -0.52532122741E+02  0.13227372058E+03  0.99999687468E+00 0.  0.
          4    1    3    3  501    0  0.22082288107E+03 -0.33699100571E+03  0.70809377471E+02  0.40907169381E+03  0.00000000000E+00 0.  1.
   -9000007    1    1    2    0  502 -0.28134137684E+03  0.23176161385E+03 -0.27349997478E+03  0.60635686867E+03  0.40000000000E+03 0.  1.
<mgrwt>
<rscale>  2 0.54113770E+03</rscale>
<asrwt>0</asrwt>
<pdfrwt beam="1">  1       21 0.68652274E-01 0.54117134E+03</pdfrwt>
<pdfrwt beam="2">  1       21 0.10791731E+00 0.54117134E+03</pdfrwt>
<totfact> 0.10893713E+03</totfact>
</mgrwt>
</event>
<event>
 6    1  0.9399121E-004  0.4216085E+03  0.7818608E-02  0.1036545E+00
         21   -1    0    0  503  502  0.00000000000E+00  0.00000000000E+00  0.26235344482E+03  0.26235344482E+03  0.00000000000E+00 0.  1.
         21   -1    0    0  501  503 -0.00000000000E+00 -0.00000000000E+00 -0.74166497138E+03  0.74166497138E+03  0.00000000000E+00 0.  1.
    9000007    2    1    2  501    0  0.13238590918E+03 -0.14674961542E+02 -0.38730395623E+03  0.57250158404E+03  0.40001540692E+03 0.  0.
    9000005    1    3    3    0    0 -0.16369293473E+02 -0.18558855237E+03 -0.23317137211E+03  0.29846432502E+03  0.99999687468E+00 0.  0.
          4    1    3    3  501    0  0.14875520265E+03  0.17091359083E+03 -0.15413258412E+03  0.27403725902E+03  0.00000000000E+00 0.  1.
   -9000007    1    1    2    0  502 -0.13238590918E+03  0.14674961542E+02 -0.92007570330E+02  0.43151683217E+03  0.40000000000E+03 0. -1.
<mgrwt>
<rscale>  2 0.42160482E+03</rscale>
<asrwt>0</asrwt>
<pdfrwt beam="1">  1       21 0.40362069E-01 0.42160848E+03</pdfrwt>
<pdfrwt beam="2">  1       21 0.11410230E+00 0.42160848E+03</pdfrwt>
<totfact> 0.31021755E+03</totfact>
</mgrwt>
</event>
<event>
 6    1  0.9399121E-004  0.5106052E+03  0.7818608E-02  0.1011157E+00
         21   -1    0    0  503  502  0.00000000000E+00  0.00000000000E+00  0.29160762073E+03  0.29160762073E+03  0.00000000000E+00 0. -1.
         21   -1    0    0  501  503 -0.00000000000E+00 -0.00000000000E+00 -0.13502609695E+04  0.13502609695E+04  0.00000000000E+00 0. -1.
    9000007    2    1    2  501    0 -0.27970825776E+03 -0.14993639084E+03 -0.10074792393E+04  0.11287054385E+04  0.39779884186E+03 0.  0.
    9000005    1    3    3    0    0 -0.22921554634E+03 -0.64097698351E+02 -0.10009993823E+04  0.10289067232E+04  0.99999687468E+00 0.  0.
          4    1    3    3  501    0 -0.50492711425E+02 -0.85838692486E+02 -0.64798569637E+01  0.99798715328E+02  0.00000000000E+00 0.  1.
   -9000007    1    1    2    0  502  0.27970825776E+03  0.14993639084E+03 -0.51174109448E+02  0.51316315167E+03  0.40000000000E+03 0. -1.
<mgrwt>
<rscale>  2 0.51017399E+03</rscale>
<asrwt>0</asrwt>
<pdfrwt beam="1">  1       21 0.44862711E-01 0.51060516E+03</pdfrwt>
<pdfrwt beam="2">  1       21 0.20773246E+00 0.51060516E+03</pdfrwt>
<totfact> 0.45599491E+02</totfact>
</mgrwt>
</event>
<event>
 6    1  0.9399121E-004  0.4204477E+03  0.7818608E-02  0.1036961E+00
         21   -1    0    0  503  502  0.00000000000E+00  0.00000000000E+00  0.71390451906E+03  0.71390451906E+03  0.00000000000E+00 0.  1.
         21   -1    0    0  501  503 -0.00000000000E+00 -0.00000000000E+00 -0.47621487299E+03  0.47621487299E+03  0.00000000000E+00 0.  1.
    9000007    2    1    2  501    0  0.11122775914E+03  0.66367819644E+02 -0.29373214746E+03  0.51248717282E+03  0.39948495087E+03 0.  0.
    9000005    1    3    3    0    0  0.66222808269E+02 -0.76741330497E+02 -0.34056254763E+03  0.35532877872E+03  0.99999687468E+00 0.  0.
          4    1    3    3  501    0  0.45004950873E+02  0.14310915014E+03  0.46830400176E+02  0.15715839411E+03  0.00000000000E+00 0.  1.
   -9000007    1    1    2    0  502 -0.11122775914E+03 -0.66367819644E+02  0.53142179353E+03  0.67763221922E+03  0.40000000000E+03 0.  1.
<mgrwt>
<rscale>  2 0.42032519E+03</rscale>
<asrwt>0</asrwt>
<pdfrwt beam="1">  1       21 0.10983146E+00 0.42044774E+03</pdfrwt>
<pdfrwt beam="2">  1       21 0.73263827E-01 0.42044774E+03</pdfrwt>
<totfact> 0.94342759E+02</totfact>
</mgrwt>
</event>
<event>
 6    1  0.9399121E-004  0.7033777E+03  0.7818608E-02  0.9711516E-01
         21   -1    0    0  503  502  0.00000000000E+00  0.00000000000E+00  0.58444057026E+03  0.58444057026E+03  0.00000000000E+00 0. -1.
         21   -1    0    0  501  503 -0.00000000000E+00 -0.00000000000E+00 -0.93671562986E+03  0.93671562986E+03  0.00000000000E+00 0.  1.
    9000007    2    1    2  501    0 -0.20966656182E+03  0.53910854390E+03 -0.41232012874E+03  0.81532087969E+03  0.40017765935E+03 0.  0.
    9000005    1    3    3    0    0 -0.42659956310E+02  0.22147783820E+03  0.49045757264E+02  0.23082198982E+03  0.99999687468E+00 0.  0.
          4    1    3    3  501    0 -0.16700660551E+03  0.31763070570E+03 -0.46136588600E+03  0.58449888987E+03  0.00000000000E+00 0.  1.
   -9000007    1    1    2    0  502  0.20966656182E+03 -0.53910854390E+03  0.60045069138E+02  0.70583532044E+03  0.40000000000E+03 0. -1.
<mgrwt>
<rscale>  2 0.70335248E+03</rscale>
<asrwt>0</asrwt>
<pdfrwt beam="1">  1       21 0.89913935E-01 0.70337774E+03</pdfrwt>
<pdfrwt beam="2">  1       21 0.14411009E+00 0.70337774E+03</pdfrwt>
<totfact> 0.26127694E+02</totfact>
</mgrwt>
</event>
<event>
 6    1  0.9399121E-004  0.5264504E+03  0.7818608E-02  0.1007117E+00
         21   -1    0    0  503  502  0.00000000000E+00  0.00000000000E+00  0.49336257203E+03  0.49336257203E+03  0.00000000000E+00 0.  1.
         21   -1    0    0  501  503 -0.00000000000E+00 -0.00000000000E+00 -0.90836757924E+03  0.90836757924E+03  0.00000000000E+00 0.  1.
    9000007    2    1    2  501    0  0.33019511862E+03  0.88122658491E+02  0.22561802990E+03  0.57275952756E+03  0.40044420547E+03 0.  0.
    9000005    1    3    3    0    0  0.50742719174E+02 -0.15036498290E+03  0.58287829372E+02  0.16906484756E+03  0.99999687468E+00 0.  0.
          4    1    3    3  501    0  0.27945239945E+03  0.23848764139E+03  0.16733020053E+03  0.40369468000E+03  0.00000000000E+00 0.  1.
   -9000007    1    1    2    0  502 -0.33019511862E+03 -0.88122658491E+02 -0.64062303711E+03  0.82897062371E+03  0.40000000000E+03 0.  1.
<mgrwt>
<rscale>  2 0.52636589E+03</rscale>
<asrwt>0</asrwt>
<pdfrwt beam="1">  1       21 0.75901935E-01 0.52645036E+03</pdfrwt>
<pdfrwt beam="2">  1       21 0.13974886E+00 0.52645036E+03</pdfrwt>
<totfact> 0.44869789E+02</totfact>
</mgrwt>
</event>
<event>
 6    1  0.9399121E-004  0.4511222E+03  0.7818608E-02  0.1027484E+00
         21   -1    0    0  503  502  0.00000000000E+00  0.00000000000E+00  0.80337830025E+03  0.80337830025E+03  0.00000000000E+00 0.  1.
         21   -1    0    0  501  503 -0.00000000000E+00 -0.00000000000E+00 -0.25847078731E+03  0.25847078731E+03  0.00000000000E+00 0.  1.
    9000007    2    1    2  501    0 -0.19497802134E+03 -0.65785733562E+02  0.35290348940E+03  0.57275836326E+03  0.40145619724E+03 0.  0.
    9000005    1    3    3    0    0 -0.20080832549E+03 -0.43334889936E+02 -0.13259987559E+02  0.20586093252E+03  0.99999687468E+00 0.  0.
          4    1    3    3  501    0  0.58303041501E+01 -0.22450843626E+02  0.36616347696E+03  0.36689743074E+03  0.00000000000E+00 0.  1.
   -9000007    1    1    2    0  502  0.19497802134E+03  0.65785733562E+02  0.19200402354E+03  0.48909072431E+03  0.40000000000E+03 0.  1.
<mgrwt>
<rscale>  2 0.45079804E+03</rscale>
<asrwt>0</asrwt>
<pdfrwt beam="1">  1       21 0.12359666E+00 0.45112223E+03</pdfrwt>
<pdfrwt beam="2">  1       21 0.39764737E-01 0.45112223E+03</pdfrwt>
<totfact> 0.25845879E+03</totfact>
</mgrwt>
</event>
<event>
 6    1  0.9399121E-004  0.5006353E+03  0.7818608E-02  0.1013741E+00
         21   -1    0    0  503  502  0.00000000000E+00  0.00000000000E+00  0.42244910099E+03  0.42244910099E+03  0.00000000000E+00 0. -1.
         21   -1    0    0  501  503 -0.00000000000E+00 -0.00000000000E+00 -0.61937392636E+03  0.61937392636E+03  0.00000000000E+00 0. -1.
    9000007    2    1    2  501    0 -0.30101651770E+03 -0.49769726493E+01  0.13256752417E+02  0.49885708935E+03  0.39755117900E+03 0.  0.
    9000005    1    3    3    0    0 -0.33332852326E+03 -0.10342266504E+03  0.10073669389E+03  0.36325340129E+03  0.99999687468E+00 0.  0.
          4    1    3    3  501    0  0.32312005558E+02  0.98445692392E+02 -0.87479941470E+02  0.13560368805E+03  0.00000000000E+00 0.  1.
   -9000007    1    1    2    0  502  0.30101651770E+03  0.49769726493E+01 -0.21018157779E+03  0.54296593800E+03  0.40000000000E+03 0. -1.
<mgrwt>
<rscale>  2 0.50014599E+03</rscale>
<asrwt>0</asrwt>
<pdfrwt beam="1">  1       21 0.64992170E-01 0.50063531E+03</pdfrwt>
<pdfrwt beam="2">  1       21 0.95288296E-01 0.50063531E+03</pdfrwt>
<totfact> 0.16933382E+03</totfact>
</mgrwt>
</event>
<event>
 6    1  0.9399121E-004  0.5671341E+03  0.7818608E-02  0.9976196E-01
         21   -1    0    0  503  502  0.00000000000E+00  0.00000000000E+00  0.18900085433E+03  0.18900085433E+03  0.00000000000E+00 0. -1.
         21   -1    0    0  501  503 -0.00000000000E+00 -0.00000000000E+00 -0.17997019108E+04  0.17997019108E+04  0.00000000000E+00 0.  1.
    9000007    2    1    2  501    0 -0.88556024896E+02  0.39176920538E+03 -0.10384469243E+04  0.11832214980E+04  0.40039457920E+03 0.  0.
    9000005    1    3    3    0    0  0.56712605425E+02  0.40810965028E+03 -0.66648199244E+03  0.78356177326E+03  0.99999687468E+00 0.  0.
          4    1    3    3  501    0 -0.14526863032E+03 -0.16340444906E+02 -0.37196493185E+03  0.39965972479E+03  0.00000000000E+00 0.  1.
   -9000007    1    1    2    0  502  0.88556024896E+02 -0.39176920538E+03 -0.57225413217E+03  0.80548126708E+03  0.40000000000E+03 0. -1.
<mgrwt>
<rscale>  2 0.56706447E+03</rscale>
<asrwt>0</asrwt>
<pdfrwt beam="1">  1       21 0.29077054E-01 0.56713411E+03</pdfrwt>
<pdfrwt beam="2">  1       21 0.27687722E+00 0.56713411E+03</pdfrwt>
<totfact> 0.39701543E+02</totfact>
</mgrwt>
</event>
<event>
 6    1  0.9399121E-004  0.5051944E+03  0.7818608E-02  0.1012469E+00
         21   -1    0    0  503  502  0.00000000000E+00  0.00000000000E+00  0.76917719132E+03  0.76917719132E+03  0.00000000000E+00 0. -1.
         21   -1    0    0  501  503 -0.00000000000E+00 -0.00000000000E+00 -0.73840861032E+03  0.73840861032E+03  0.00000000000E+00 0. -1.
    9000007    2    1    2  501    0  0.22367078246E+03 -0.21121414397E+03 -0.54422490322E+03  0.74256453367E+03  0.40072597600E+03 0.  0.
    9000005    1    3    3    0    0 -0.16789390761E+02  0.64293411946E+02 -0.28919582269E+03  0.29673346680E+03  0.99999687468E+00 0.  0.
          4    1    3    3  501    0  0.24046017322E+03 -0.27550755592E+03 -0.25502908053E+03  0.44583106688E+03  0.00000000000E+00 0.  1.
   -9000007    1    1    2    0  502 -0.22367078246E+03  0.21121414397E+03  0.57499348423E+03  0.76502126797E+03  0.40000000000E+03 0. -1.
<mgrwt>
<rscale>  2 0.50505038E+03</rscale>
<asrwt>0</asrwt>
<pdfrwt beam="1">  1       21 0.11833495E+00 0.50519436E+03</pdfrwt>
<pdfrwt beam="2">  1       21 0.11360132E+00 0.50519436E+03</pdfrwt>
<totfact> 0.26532596E+02</totfact>
</mgrwt>
</event>
<event>
 6    1  0.9399121E-004  0.4262965E+03  0.7818608E-02  0.1035630E+00
         21   -1    0    0  503  502  0.00000000000E+00  0.00000000000E+00  0.36852627450E+03  0.36852627450E+03  0.00000000000E+00 0. -1.
         21   -1    0    0  501  503 -0.00000000000E+00 -0.00000000000E+00 -0.10907420390E+04  0.10907420390E+04  0.00000000000E+00 0. -1.
    9000007    2    1    2  501    0  0.53326482669E+02 -0.13742267653E+03 -0.90359780105E+03  0.99598853950E+03  0.39214216679E+03 0.  0.
    9000005    1    3    3    0    0 -0.45954209133E+01 -0.20135845188E+03 -0.88513773143E+03  0.90776436790E+03  0.99999687468E+00 0.  0.
          4    1    3    3  501    0  0.57921903582E+02  0.63935775346E+02 -0.18460069617E+02  0.88224171597E+02  0.00000000000E+00 0.  1.
   -9000007    1    1    2    0  502 -0.53326482669E+02  0.13742267653E+03  0.18138203658E+03  0.46327977397E+03  0.40000000000E+03 0. -1.
<mgrwt>
<rscale>  2 0.42444338E+03</rscale>
<asrwt>0</asrwt>
<pdfrwt beam="1">  1       21 0.56696350E-01 0.42629650E+03</pdfrwt>
<pdfrwt beam="2">  1       21 0.16780647E+00 0.42629650E+03</pdfrwt>
<totfact> 0.54369370E+02</totfact>
</mgrwt>
</event>
<event>
 6    1  0.9399121E-004  0.7130310E+03  0.7818608E-02  0.9695564E-01
         21   -1    0    0  503  502  0.00000000000E+00  0.00000000000E+00  0.12151791548E+04  0.12151791548E+04  0.00000000000E+00 0. -1.
         21   -1    0    0  501  503 -0.00000000000E+00 -0.00000000000E+00 -0.96647768186E+03  0.96647768186E+03  0.00000000000E+00 0.  1.
    9000007    2    1    2  501    0  0.47830882099E+02 -0.58832426097E+03 -0.69752267980E+03  0.99685585061E+03  0.39846012187E+03 0.  0.
    9000005    1    3    3    0    0  0.20746487007E+03 -0.44359208239E+03 -0.41749570860E+03  0.64352099776E+03  0.99999687468E+00 0.  0.
          4    1    3    3  501    0 -0.15963398797E+03 -0.14473217858E+03 -0.28002697120E+03  0.35333485284E+03  0.00000000000E+00 0.  1.
   -9000007    1    1    2    0  502 -0.47830882099E+02  0.58832426097E+03  0.94622415272E+03  0.11848009860E+04  0.40000000000E+03 0. -1.
<mgrwt>
<rscale>  2 0.71281524E+03</rscale>
<asrwt>0</asrwt>
<pdfrwt beam="1">  1       21 0.18695064E+00 0.71303102E+03</pdfrwt>
<pdfrwt beam="2">  1       21 0.14868887E+00 0.71303102E+03</pdfrwt>
<totfact> 0.34203415E+01</totfact>
</mgrwt>
</event>
<event>
 6    1  0.9399121E-004  0.5349460E+03  0.7818608E-02  0.1005068E+00
         21   -1    0    0  503  502  0.00000000000E+00  0.00000000000E+00  0.53915347264E+03  0.53915347264E+03  0.00000000000E+00 0. -1.
         21   -1    0    0  501  503 -0.00000000000E+00 -0.00000000000E+00 -0.55484197640E+03  0.55484197640E+03  0.00000000000E+00 0. -1.
    9000007    2    1    2  501    0  0.53412049910E+02 -0.35116153665E+03 -0.12288288040E+03  0.54841511007E+03  0.39936406793E+03 0.  0.
    9000005    1    3    3    0    0  0.15562142518E+03 -0.34121239750E+03 -0.19522752824E+03  0.42279867072E+03  0.99999687468E+00 0.  0.
          4    1    3    3  501    0 -0.10220937527E+03 -0.99491391470E+01  0.72344647842E+02  0.12561643935E+03  0.00000000000E+00 0.  1.
   -9000007    1    1    2    0  502 -0.53412049910E+02  0.35116153665E+03  0.10719437664E+03  0.54558033898E+03  0.40000000000E+03 0. -1.
<mgrwt>
<rscale>  2 0.53482717E+03</rscale>
<asrwt>0</asrwt>
<pdfrwt beam="1">  1       21 0.82946688E-01 0.53494605E+03</pdfrwt>
<pdfrwt beam="2">  1       21 0.85360304E-01 0.53494605E+03</pdfrwt>
<totfact> 0.12468774E+03</totfact>
</mgrwt>
</event>
<event>
 6    1  0.9399121E-004  0.5238706E+03  0.7818608E-02  0.1007746E+00
         21   -1    0    0  503  502  0.00000000000E+00  0.00000000000E+00  0.35178745441E+03  0.35178745441E+03  0.00000000000E+00 0. -1.
         21   -1    0    0  501  503 -0.00000000000E+00 -0.00000000000E+00 -0.82508989631E+03  0.82508989631E+03  0.00000000000E+00 0.  1.
    9000007    2    1    2  501    0  0.29333647006E+03  0.16850545916E+03 -0.37456807297E+03  0.64378369099E+03  0.39964462346E+03 0.  0.
    9000005    1    3    3    0    0  0.42980456209E+02  0.20306591689E+03 -0.20230251332E+02  0.20855059166E+03  0.99999687468E+00 0.  0.
          4    1    3    3  501    0  0.25035601385E+03 -0.34560457730E+02 -0.35433782164E+03  0.43523309933E+03  0.00000000000E+00 0.  1.
   -9000007    1    1    2    0  502 -0.29333647006E+03 -0.16850545916E+03 -0.98734368926E+02  0.53309365973E+03  0.40000000000E+03 0.  1.
<mgrwt>
<rscale>  2 0.52380273E+03</rscale>
<asrwt>0</asrwt>
<pdfrwt beam="1">  1       21 0.54121148E-01 0.52387057E+03</pdfrwt>
<pdfrwt beam="2">  1       21 0.12693690E+00 0.52387057E+03</pdfrwt>
<totfact> 0.12272737E+03</totfact>
</mgrwt>
</event>
<event>
 6    1  0.9399121E-004  0.4461299E+03  0.7818608E-02  0.1029188E+00
         21   -1    0    0  503  502  0.00000000000E+00  0.00000000000E+00  0.77801820842E+03  0.77801820842E+03  0.00000000000E+00 0.  1.
         21   -1    0    0  501  503 -0.00000000000E+00 -0.00000000000E+00 -0.51789784681E+03  0.51789784681E+03  0.00000000000E+00 0.  1.
    9000007    2    1    2  501    0 -0.10517515603E+03  0.15617088370E+03 -0.33260845490E+03  0.55647125790E+03  0.40445113208E+03 0.  0.
    9000005    1    3    3    0    0 -0.13900800770E+03  0.11300743350E+03  0.36903208403E+02  0.18291187226E+03  0.99999687468E+00 0.  0.
          4    1    3    3  501    0  0.33832851671E+02  0.43163450196E+02 -0.36951166330E+03  0.37355938564E+03  0.00000000000E+00 0.  1.
   -9000007    1    1    2    0  502  0.10517515603E+03 -0.15617088370E+03  0.59272881651E+03  0.73944479732E+03  0.40000000000E+03 0.  1.
<mgrwt>
<rscale>  2 0.44511863E+03</rscale>
<asrwt>0</asrwt>
<pdfrwt beam="1">  1       21 0.11969511E+00 0.44612989E+03</pdfrwt>
<pdfrwt beam="2">  1       21 0.79676591E-01 0.44612989E+03</pdfrwt>
<totfact> 0.62085582E+02</totfact>
</mgrwt>
</event>
<event>
 6    1  0.9399121E-004  0.7089998E+03  0.7818608E-02  0.9702118E-01
         21   -1    0    0  503  502  0.00000000000E+00  0.00000000000E+00  0.11476736841E+04  0.11476736841E+04  0.00000000000E+00 0. -1.
         21   -1    0    0  501  503 -0.00000000000E+00 -0.00000000000E+00 -0.44539592469E+03  0.44539592469E+03  0.00000000000E+00 0.  1.
    9000007    2    1    2  501    0  0.57451835247E+03  0.10995696812E+03  0.45542980700E+03  0.84267252476E+03  0.40064797854E+03 0.  0.
    9000005    1    3    3    0    0 -0.61499695096E+02  0.28764958443E+01  0.60901013061E+02  0.86604965856E+02  0.99999687468E+00 0.  0.
          4    1    3    3  501    0  0.63601804757E+03  0.10708047227E+03  0.39452879394E+03  0.75606755890E+03  0.00000000000E+00 0.  1.
   -9000007    1    1    2    0  502 -0.57451835247E+03 -0.10995696812E+03  0.24684795244E+03  0.75039708408E+03  0.40000000000E+03 0. -1.
<mgrwt>
<rscale>  2 0.70890826E+03</rscale>
<asrwt>0</asrwt>
<pdfrwt beam="1">  1       21 0.17656518E+00 0.70899977E+03</pdfrwt>
<pdfrwt beam="2">  1       21 0.68522450E-01 0.70899977E+03</pdfrwt>
<totfact> 0.27649573E+02</totfact>
</mgrwt>
</event>
<event>
 6    1  0.9399121E-004  0.4036086E+03  0.7818608E-02  0.1042607E+00
         21   -1    0    0  503  502  0.00000000000E+00  0.00000000000E+00  0.23653210366E+03  0.23653210366E+03  0.00000000000E+00 0. -1.
         21   -1    0    0  501  503 -0.00000000000E+00 -0.00000000000E+00 -0.92602892503E+03  0.92602892503E+03  0.00000000000E+00 0. -1.
    9000007    2    1    2  501    0 -0.41424161692E+02 -0.34407918091E+02 -0.63962214037E+03  0.75588259330E+03  0.39917683601E+03 0.  0.
    9000005    1    3    3    0    0 -0.14245271487E+03  0.13725157122E+03 -0.25487759335E+03  0.32263657164E+03  0.99999687468E+00 0.  0.
          4    1    3    3  501    0  0.10102855317E+03 -0.17165948931E+03 -0.38474454701E+03  0.43324602166E+03  0.00000000000E+00 0.  1.
   -9000007    1    1    2    0  502  0.41424161692E+02  0.34407918091E+02 -0.49874681005E+02  0.40667843538E+03  0.40000000000E+03 0. -1.
<mgrwt>
<rscale>  2 0.40340445E+03</rscale>
<asrwt>0</asrwt>
<pdfrwt beam="1">  1       21 0.36389553E-01 0.40360856E+03</pdfrwt>
<pdfrwt beam="2">  1       21 0.14246599E+00 0.40360856E+03</pdfrwt>
<totfact> 0.21795444E+03</totfact>
</mgrwt>
</event>
<event>
 6    1  0.9399121E-004  0.4668074E+03  0.7818608E-02  0.1022945E+00
         21   -1    0    0  503  502  0.00000000000E+00  0.00000000000E+00  0.52490738170E+03  0.52490738170E+03  0.00000000000E+00 0. -1.
         21   -1    0    0  501  503 -0.00000000000E+00 -0.00000000000E+00 -0.53721063283E+03  0.53721063283E+03  0.00000000000E+00 0.  1.
    9000007    2    1    2  501    0  0.23032668708E+03  0.69705142978E+02 -0.26083899386E+03  0.53327096183E+03  0.39803485811E+03 0.  0.
    9000005    1    3    3    0    0  0.31992842058E+02 -0.11032149622E+03  0.47966920852E+02  0.12448373372E+03  0.99999687468E+00 0.  0.
          4    1    3    3  501    0  0.19833384502E+03  0.18002663920E+03 -0.30880591471E+03  0.40878722811E+03  0.00000000000E+00 0.  1.
   -9000007    1    1    2    0  502 -0.23032668708E+03 -0.69705142978E+02  0.24853574273E+03  0.52884705270E+03  0.40000000000E+03 0. -1.
<mgrwt>
<rscale>  2 0.46638618E+03</rscale>
<asrwt>0</asrwt>
<pdfrwt beam="1">  1       21 0.80754982E-01 0.46680744E+03</pdfrwt>
<pdfrwt beam="2">  1       21 0.82647790E-01 0.46680744E+03</pdfrwt>
<totfact> 0.14659993E+03</totfact>
</mgrwt>
</event>
<event>
 6    1  0.9399121E-004  0.4566936E+03  0.7818608E-02  0.1025765E+00
         21   -1    0    0  503  502  0.00000000000E+00  0.00000000000E+00  0.18604651642E+03  0.18604651642E+03  0.00000000000E+00 0. -1.
         21   -1    0    0  501  503 -0.00000000000E+00 -0.00000000000E+00 -0.12460932464E+04  0.12460932464E+04  0.00000000000E+00 0. -1.
    9000007    2    1    2  501    0  0.16121484143E+03 -0.14939333068E+03 -0.75763370076E+03  0.88463429928E+03  0.40032540088E+03 0.  0.
    9000005    1    3    3    0    0  0.12164536454E+03 -0.15702246602E+02 -0.73282628574E+03  0.74302053829E+03  0.99999687468E+00 0.  0.
          4    1    3    3  501    0  0.39569476888E+02 -0.13369108408E+03 -0.24807415026E+02  0.14161376099E+03  0.00000000000E+00 0.  1.
   -9000007    1    1    2    0  502 -0.16121484143E+03  0.14939333068E+03 -0.30241302918E+03  0.54750546350E+03  0.40000000000E+03 0. -1.
<mgrwt>
<rscale>  2 0.45662225E+03</rscale>
<asrwt>0</asrwt>
<pdfrwt beam="1">  1       21 0.28622540E-01 0.45669357E+03</pdfrwt>
<pdfrwt beam="2">  1       21 0.19170666E+00 0.45669357E+03</pdfrwt>
<totfact> 0.14915130E+03</totfact>
</mgrwt>
</event>
<event>
 6    1  0.9399121E-004  0.5228248E+03  0.7818608E-02  0.1008005E+00
         21   -1    0    0  503  502  0.00000000000E+00  0.00000000000E+00  0.36030231583E+03  0.36030231583E+03  0.00000000000E+00 0. -1.
         21   -1    0    0  501  503 -0.00000000000E+00 -0.00000000000E+00 -0.82253692497E+03  0.82253692497E+03  0.00000000000E+00 0. -1.
    9000007    2    1    2  501    0  0.15506513443E+03  0.29883203461E+03 -0.39640762208E+03  0.65588670684E+03  0.39962806276E+03 0.  0.
    9000005    1    3    3    0    0  0.96031233148E+02  0.34345901010E+03 -0.13031666878E+03  0.37969662036E+03  0.99999687468E+00 0.  0.
          4    1    3    3  501    0  0.59033901285E+02 -0.44626975492E+02 -0.26609095330E+03  0.27619008648E+03  0.00000000000E+00 0.  1.
   -9000007    1    1    2    0  502 -0.15506513443E+03 -0.29883203461E+03 -0.65826987053E+02  0.52695253396E+03  0.40000000000E+03 0. -1.
<mgrwt>
<rscale>  2 0.52275367E+03</rscale>
<asrwt>0</asrwt>
<pdfrwt beam="1">  1       21 0.55431126E-01 0.52282481E+03</pdfrwt>
<pdfrwt beam="2">  1       21 0.12654414E+00 0.52282481E+03</pdfrwt>
<totfact> 0.11751834E+03</totfact>
</mgrwt>
</event>
<event>
 6    1  0.9399121E-004  0.4804110E+03  0.7818608E-02  0.1019038E+00
         21   -1    0    0  503  502  0.00000000000E+00  0.00000000000E+00  0.21296425283E+03  0.21296425283E+03  0.00000000000E+00 0.  1.
         21   -1    0    0  501  503 -0.00000000000E+00 -0.00000000000E+00 -0.13507188317E+04  0.13507188317E+04  0.00000000000E+00 0. -1.
    9000007    2    1    2  501    0  0.15409853016E+03 -0.21640081816E+03 -0.91692583290E+03  0.10351558798E+04  0.40027370799E+03 0.  0.
    9000005    1    3    3    0    0 -0.40433106819E+02 -0.20748393700E+03 -0.74821202992E+03  0.77750026492E+03  0.99999687468E+00 0.  0.
          4    1    3    3  501    0  0.19453163698E+03 -0.89168811660E+01 -0.16871380298E+03  0.25765561486E+03  0.00000000000E+00 0.  1.
   -9000007    1    1    2    0  502 -0.15409853016E+03  0.21640081816E+03 -0.22082874594E+03  0.52852720472E+03  0.40000000000E+03 0.  1.
<mgrwt>
<rscale>  2 0.48035397E+03</rscale>
<asrwt>0</asrwt>
<pdfrwt beam="1">  1       21 0.32763731E-01 0.48041098E+03</pdfrwt>
<pdfrwt beam="2">  1       21 0.20780290E+00 0.48041098E+03</pdfrwt>
<totfact> 0.87998028E+02</totfact>
</mgrwt>
</event>
<event>
 6    1  0.9399121E-004  0.4424805E+03  0.7818608E-02  0.1030005E+00
         21   -1    0    0  503  502  0.00000000000E+00  0.00000000000E+00  0.62423149553E+03  0.62423149553E+03  0.00000000000E+00 0.  1.
         21   -1    0    0  501  503 -0.00000000000E+00 -0.00000000000E+00 -0.33391845129E+03  0.33391845129E+03  0.00000000000E+00 0.  1.
    9000007    2    1    2  501    0 -0.14465762711E+03 -0.12110953336E+03  0.26699270855E+02  0.44328533387E+03  0.40024453526E+03 0.  0.
    9000005    1    3    3    0    0 -0.18921561740E+03  0.41664231391E+02 -0.11291991158E+03  0.22425513254E+03  0.99999687468E+00 0.  0.
          4    1    3    3  501    0  0.44557990287E+02 -0.16277376475E+03  0.13961918244E+03  0.21903020132E+03  0.00000000000E+00 0.  1.
   -9000007    1    1    2    0  502  0.14465762711E+03  0.12110953336E+03  0.26361377338E+03  0.51486461295E+03  0.40000000000E+03 0.  1.
<mgrwt>
<rscale>  2 0.44242524E+03</rscale>
<asrwt>0</asrwt>
<pdfrwt beam="1">  1       21 0.96035615E-01 0.44248055E+03</pdfrwt>
<pdfrwt beam="2">  1       21 0.51372070E-01 0.44248055E+03</pdfrwt>
<totfact> 0.28329082E+03</totfact>
</mgrwt>
</event>
<event>
 6    1  0.9399121E-004  0.4600241E+03  0.7818608E-02  0.1024790E+00
         21   -1    0    0  503  502  0.00000000000E+00  0.00000000000E+00  0.37493023453E+03  0.37493023453E+03  0.00000000000E+00 0.  1.
         21   -1    0    0  501  503 -0.00000000000E+00 -0.00000000000E+00 -0.74904495196E+03  0.74904495196E+03  0.00000000000E+00 0.  1.
    9000007    2    1    2  501    0 -0.19061002919E+03 -0.12283333164E+03 -0.46629512378E+03  0.65502163026E+03  0.40025239919E+03 0.  0.
    9000005    1    3    3    0    0 -0.30681516839E+03 -0.88094992271E+02 -0.24398565600E+03  0.40177888888E+03  0.99999687468E+00 0.  0.
          4    1    3    3  501    0  0.11620513920E+03 -0.34738339372E+02 -0.22230946777E+03  0.25324274138E+03  0.00000000000E+00 0.  1.
   -9000007    1    1    2    0  502  0.19061002919E+03  0.12283333164E+03  0.92180406341E+02  0.46895355623E+03  0.40000000000E+03 0.  1.
<mgrwt>
<rscale>  2 0.45996922E+03</rscale>
<asrwt>0</asrwt>
<pdfrwt beam="1">  1       21 0.57681575E-01 0.46002412E+03</pdfrwt>
<pdfrwt beam="2">  1       21 0.11523768E+00 0.46002412E+03</pdfrwt>
<totfact> 0.14006111E+03</totfact>
</mgrwt>
</event>
<event>
 6    1  0.9399121E-004  0.5218405E+03  0.7818608E-02  0.1008237E+00
         21   -1    0    0  503  502  0.00000000000E+00  0.00000000000E+00  0.32771091000E+03  0.32771091000E+03  0.00000000000E+00 0.  1.
         21   -1    0    0  501  503 -0.00000000000E+00 -0.00000000000E+00 -0.13296442303E+04  0.13296442303E+04  0.00000000000E+00 0.  1.
    9000007    2    1    2  501    0 -0.29530152031E+02 -0.33365974032E+03 -0.10085800447E+04  0.11355840879E+04  0.40014580096E+03 0.  0.
    9000005    1    3    3    0    0  0.17056992783E+03 -0.23849191467E+03 -0.48044537725E+03  0.56285100529E+03  0.99999687468E+00 0.  0.
          4    1    3    3  501    0 -0.20010007986E+03 -0.95167825649E+02 -0.52813466742E+03  0.57273308262E+03  0.00000000000E+00 0.  1.
   -9000007    1    1    2    0  502  0.29530152031E+02  0.33365974032E+03  0.66467243552E+01  0.52177105241E+03  0.40000000000E+03 0.  1.
<mgrwt>
<rscale>  2 0.52181256E+03</rscale>
<asrwt>0</asrwt>
<pdfrwt beam="1">  1       21 0.50417063E-01 0.52184051E+03</pdfrwt>
<pdfrwt beam="2">  1       21 0.20456065E+00 0.52184051E+03</pdfrwt>
<totfact> 0.37192667E+02</totfact>
</mgrwt>
</event>
<event>
 6    1  0.9399121E-004  0.5440879E+03  0.7818608E-02  0.1002872E+00
         21   -1    0    0  503  502  0.00000000000E+00  0.00000000000E+00  0.10273812465E+04  0.10273812465E+04  0.00000000000E+00 0.  1.
         21   -1    0    0  501  503 -0.00000000000E+00 -0.00000000000E+00 -0.28921733518E+03  0.28921733518E+03  0.00000000000E+00 0.  1.
    9000007    2    1    2  501    0 -0.23695050013E+03  0.28264121074E+03  0.40925786836E+03  0.68082285188E+03  0.39999519911E+03 0.  0.
    9000005    1    3    3    0    0  0.72858989253E+01  0.25195960477E+03  0.69881080021E+02  0.26157425733E+03  0.99999687468E+00 0.  0.
          4    1    3    3  501    0 -0.24423639906E+03  0.30681605961E+02  0.33937678834E+03  0.41924859455E+03  0.00000000000E+00 0.  1.
   -9000007    1    1    2    0  502  0.23695050013E+03 -0.28264121074E+03  0.32890604300E+03  0.63577572983E+03  0.40000000000E+03 0.  1.
<mgrwt>
<rscale>  2 0.54408697E+03</rscale>
<asrwt>0</asrwt>
<pdfrwt beam="1">  1       21 0.15805865E+00 0.54408785E+03</pdfrwt>
<pdfrwt beam="2">  1       21 0.44494975E-01 0.54408785E+03</pdfrwt>
<totfact> 0.10268090E+03</totfact>
</mgrwt>
</event>
<event>
 6    1  0.9399121E-004  0.4569383E+03  0.7818608E-02  0.1025910E+00
         21   -1    0    0  503  502  0.00000000000E+00  0.00000000000E+00  0.98889220674E+03  0.98889220674E+03  0.00000000000E+00 0.  1.
         21   -1    0    0  501  503 -0.00000000000E+00 -0.00000000000E+00 -0.25270939991E+03  0.25270939991E+03  0.00000000000E+00 0.  1.
    9000007    2    1    2  501    0  0.17976503959E+02  0.21338080639E+03  0.11291682305E+03  0.47068331671E+03  0.40365585896E+03 0.  0.
    9000005    1    3    3    0    0  0.19327742363E+03  0.17295133218E+03  0.12972653041E+03  0.28999706632E+03  0.99999687468E+00 0.  0.
          4    1    3    3  501    0 -0.17530091967E+03  0.40429474209E+02 -0.16809707357E+02  0.18068625040E+03  0.00000000000E+00 0.  1.
   -9000007    1    1    2    0  502 -0.17976503959E+02 -0.21338080639E+03  0.62326598377E+03  0.77091828994E+03  0.40000000000E+03 0.  1.
<mgrwt>
<rscale>  2 0.45612954E+03</rscale>
<asrwt>0</asrwt>
<pdfrwt beam="1">  1       21 0.15213726E+00 0.45693826E+03</pdfrwt>
<pdfrwt beam="2">  1       21 0.38878370E-01 0.45693826E+03</pdfrwt>
<totfact> 0.15601247E+03</totfact>
</mgrwt>
</event>
<event>
 6    1  0.9399121E-004  0.4126223E+03  0.7818608E-02  0.1039510E+00
         21   -1    0    0  503  502  0.00000000000E+00  0.00000000000E+00  0.67878648791E+03  0.67878648791E+03  0.00000000000E+00 0.  1.
         21   -1    0    0  501  503 -0.00000000000E+00 -0.00000000000E+00 -0.41905835671E+03  0.41905835671E+03  0.00000000000E+00 0.  1.
    9000007    2    1    2  501    0  0.10125586734E+03 -0.21032387285E+01 -0.21806524374E+03  0.46654168177E+03  0.39981435194E+03 0.  0.
    9000005    1    3    3    0    0  0.49802850400E+02  0.12193356241E+03  0.69674916991E+02  0.14900909905E+03  0.99999687468E+00 0.  0.
          4    1    3    3  501    0  0.51453016941E+02 -0.12403680114E+03 -0.28774016073E+03  0.31753258272E+03  0.00000000000E+00 0.  1.
   -9000007    1    1    2    0  502 -0.10125586734E+03  0.21032387285E+01  0.47779337495E+03  0.63130316285E+03  0.40000000000E+03 0.  1.
<mgrwt>
<rscale>  2 0.41257732E+03</rscale>
<asrwt>0</asrwt>
<pdfrwt beam="1">  1       21 0.10442869E+00 0.41262231E+03</pdfrwt>
<pdfrwt beam="2">  1       21 0.64470516E-01 0.41262231E+03</pdfrwt>
<totfact> 0.14276036E+03</totfact>
</mgrwt>
</event>
<event>
 6    1  0.9399121E-004  0.4034289E+03  0.7818608E-02  0.1042665E+00
         21   -1    0    0  503  502  0.00000000000E+00  0.00000000000E+00  0.13871658815E+04  0.13871658815E+04  0.00000000000E+00 0.  1.
         21   -1    0    0  501  503 -0.00000000000E+00 -0.00000000000E+00 -0.14852234599E+03  0.14852234599E+03  0.00000000000E+00 0.  1.
    9000007    2    1    2  501    0 -0.28597846768E+02  0.36311803296E+02  0.97293291252E+03  0.10532584201E+04  0.40077233354E+03 0.  0.
    9000005    1    3    3    0    0  0.18227641598E+03 -0.20708192208E+02  0.39878108159E+03  0.43895429383E+03  0.99999687468E+00 0.  0.
          4    1    3    3  501    0 -0.21087426275E+03  0.57019995503E+02  0.57415183093E+03  0.61430412626E+03  0.00000000000E+00 0.  1.
   -9000007    1    1    2    0  502  0.28597846768E+02 -0.36311803296E+02  0.26571062301E+03  0.48242980741E+03  0.40000000000E+03 0. -1.
<mgrwt>
<rscale>  2 0.40323692E+03</rscale>
<asrwt>0</asrwt>
<pdfrwt beam="1">  1       21 0.21341013E+00 0.40342886E+03</pdfrwt>
<pdfrwt beam="2">  1       21 0.22849593E-01 0.40342886E+03</pdfrwt>
<totfact> 0.17031857E+03</totfact>
</mgrwt>
</event>
<event>
 6    1  0.9399121E-004  0.5614669E+03  0.7818608E-02  0.9989620E-01
         21   -1    0    0  503  502  0.00000000000E+00  0.00000000000E+00  0.19145873324E+04  0.19145873324E+04  0.00000000000E+00 0.  1.
         21   -1    0    0  501  503 -0.00000000000E+00 -0.00000000000E+00 -0.21110858368E+03  0.21110858368E+03  0.00000000000E+00 0.  1.
    9000007    2    1    2  501    0 -0.83073164177E+02  0.38515449291E+03  0.34980373461E+03  0.66019901133E+03  0.39781270442E+03 0.  0.
    9000005    1    3    3    0    0 -0.16236644138E+03  0.20789567313E+03  0.38111920999E+03  0.46350439524E+03  0.99999687468E+00 0.  0.
          4    1    3    3  501    0  0.79293277199E+02  0.17725881978E+03 -0.31315475378E+02  0.19669461609E+03  0.00000000000E+00 0.  1.
   -9000007    1    1    2    0  502  0.83073164177E+02 -0.38515449291E+03  0.13536750141E+04  0.14654969048E+04  0.40000000000E+03 0.  1.
<mgrwt>
<rscale>  2 0.56107750E+03</rscale>
<asrwt>0</asrwt>
<pdfrwt beam="1">  1       21 0.29455189E+00 0.56146695E+03</pdfrwt>
<pdfrwt beam="2">  1       21 0.32478245E-01 0.56146695E+03</pdfrwt>
<totfact> 0.24902514E+02</totfact>
</mgrwt>
</event>
<event>
 6    1  0.9399121E-004  0.5410158E+03  0.7818608E-02  0.1003599E+00
         21   -1    0    0  503  502  0.00000000000E+00  0.00000000000E+00  0.14552083016E+04  0.14552083016E+04  0.00000000000E+00 0.  1.
         21   -1    0    0  501  503 -0.00000000000E+00 -0.00000000000E+00 -0.21032110536E+03  0.21032110536E+03  0.00000000000E+00 0. -1.
    9000007    2    1    2  501    0  0.32183872213E+03 -0.17063979166E+03  0.79664310039E+03  0.96294783090E+03  0.39991273306E+03 0.  0.
    9000005    1    3    3    0    0 -0.10809191737E+02  0.43103459158E+02  0.40148871970E+03  0.40394175181E+03  0.99999687468E+00 0.  0.
          4    1    3    3  501    0  0.33264791387E+03 -0.21374325082E+03  0.39515438069E+03  0.55900607908E+03  0.00000000000E+00 0.  1.
   -9000007    1    1    2    0  502 -0.32183872213E+03  0.17063979166E+03  0.44824409584E+03  0.70258157606E+03  0.40000000000E+03 0. -1.
<mgrwt>
<rscale>  2 0.54099968E+03</rscale>
<asrwt>0</asrwt>
<pdfrwt beam="1">  1       21 0.22387819E+00 0.54101581E+03</pdfrwt>
<pdfrwt beam="2">  1       21 0.32357094E-01 0.54101581E+03</pdfrwt>
<totfact> 0.69205741E+02</totfact>
</mgrwt>
</event>
<event>
 6    1  0.9399121E-004  0.4956713E+03  0.7818608E-02  0.1015033E+00
         21   -1    0    0  503  502  0.00000000000E+00  0.00000000000E+00  0.15663079317E+03  0.15663079317E+03  0.00000000000E+00 0. -1.
         21   -1    0    0  501  503 -0.00000000000E+00 -0.00000000000E+00 -0.15794749102E+04  0.15794749102E+04  0.00000000000E+00 0.  1.
    9000007    2    1    2  501    0  0.39176610514E+02  0.29009527996E+03 -0.62140738855E+03  0.79377300838E+03  0.39779186521E+03 0.  0.
    9000005    1    3    3    0    0 -0.11161771675E+03  0.23687233810E+02 -0.15806286227E+02  0.11519738893E+03  0.99999687468E+00 0.  0.
          4    1    3    3  501    0  0.15079432726E+03  0.26640804615E+03 -0.60560110232E+03  0.67857561946E+03  0.00000000000E+00 0.  1.
   -9000007    1    1    2    0  502 -0.39176610514E+02 -0.29009527996E+03 -0.80143672844E+03  0.94233269494E+03  0.40000000000E+03 0. -1.
<mgrwt>
<rscale>  2 0.49522569E+03</rscale>
<asrwt>0</asrwt>
<pdfrwt beam="1">  1       21 0.24097045E-01 0.49567134E+03</pdfrwt>
<pdfrwt beam="2">  1       21 0.24299614E+00 0.49567134E+03</pdfrwt>
<totfact> 0.95689759E+02</totfact>
</mgrwt>
</event>
<event>
 6    1  0.9399121E-004  0.4864193E+03  0.7818608E-02  0.1017402E+00
         21   -1    0    0  503  502  0.00000000000E+00  0.00000000000E+00  0.23030473768E+03  0.23030473768E+03  0.00000000000E+00 0.  1.
         21   -1    0    0  501  503 -0.00000000000E+00 -0.00000000000E+00 -0.10384096274E+04  0.10384096274E+04  0.00000000000E+00 0. -1.
    9000007    2    1    2  501    0  0.27201352278E+03  0.48805049136E+02 -0.47107911281E+03  0.67714047814E+03  0.40028790540E+03 0.  0.
    9000005    1    3    3    0    0  0.32917021975E+03 -0.34372024892E+02 -0.19719753036E+03  0.38525619481E+03  0.99999687468E+00 0.  0.
          4    1    3    3  501    0 -0.57156696961E+02  0.83177074028E+02 -0.27388158246E+03  0.29188428334E+03  0.00000000000E+00 0.  1.
   -9000007    1    1    2    0  502 -0.27201352278E+03 -0.48805049136E+02 -0.33702577690E+03  0.59157388693E+03  0.40000000000E+03 0.  1.
<mgrwt>
<rscale>  2 0.48636002E+03</rscale>
<asrwt>0</asrwt>
<pdfrwt beam="1">  1       21 0.35431498E-01 0.48641926E+03</pdfrwt>
<pdfrwt beam="2">  1       21 0.15975533E+00 0.48641926E+03</pdfrwt>
<totfact> 0.16285868E+03</totfact>
</mgrwt>
</event>
<event>
 6    1  0.9399121E-004  0.4241085E+03  0.7818608E-02  0.1035755E+00
         21   -1    0    0  503  502  0.00000000000E+00  0.00000000000E+00  0.29255060786E+03  0.29255060786E+03  0.00000000000E+00 0.  1.
         21   -1    0    0  501  503 -0.00000000000E+00 -0.00000000000E+00 -0.66500581448E+03  0.66500581448E+03  0.00000000000E+00 0.  1.
    9000007    2    1    2  501    0 -0.12368948981E+03 -0.67593907179E+02 -0.31811941616E+03  0.52998139466E+03  0.39976529310E+03 0.  0.
    9000005    1    3    3    0    0 -0.16685621291E+03 -0.93719194093E+02  0.16026667783E+02  0.19204722649E+03  0.99999687468E+00 0.  0.
          4    1    3    3  501    0  0.43166723095E+02  0.26125286915E+02 -0.33414608395E+03  0.33793416817E+03  0.00000000000E+00 0.  1.
   -9000007    1    1    2    0  502  0.12368948981E+03  0.67593907179E+02 -0.54335790460E+02  0.42757502769E+03  0.40000000000E+03 0.  1.
<mgrwt>
<rscale>  2 0.42405316E+03</rscale>
<asrwt>0</asrwt>
<pdfrwt beam="1">  1       21 0.45007786E-01 0.42410851E+03</pdfrwt>
<pdfrwt beam="2">  1       21 0.10230859E+00 0.42410851E+03</pdfrwt>
<totfact> 0.32361144E+03</totfact>
</mgrwt>
</event>
<event>
 6    1  0.9399121E-004  0.4728440E+03  0.7818608E-02  0.1021142E+00
         21   -1    0    0  503  502  0.00000000000E+00  0.00000000000E+00  0.77307481562E+03  0.77307481562E+03  0.00000000000E+00 0. -1.
         21   -1    0    0  501  503 -0.00000000000E+00 -0.00000000000E+00 -0.34749189939E+03  0.34749189939E+03  0.00000000000E+00 0. -1.
    9000007    2    1    2  501    0  0.20447577083E+03  0.14755024048E+03 -0.17099523412E+02  0.47284057172E+03  0.39963032699E+03 0.  0.
    9000005    1    3    3    0    0  0.14842420613E+03  0.21136502818E+03 -0.16200329723E+03  0.30487864538E+03  0.99999687468E+00 0.  0.
          4    1    3    3  501    0  0.56051564700E+02 -0.63814787698E+02  0.14490377382E+03  0.16796192634E+03  0.00000000000E+00 0.  1.
   -9000007    1    1    2    0  502 -0.20447577083E+03 -0.14755024048E+03  0.44268243965E+03  0.64772614328E+03  0.40000000000E+03 0. -1.
<mgrwt>
<rscale>  2 0.47276577E+03</rscale>
<asrwt>0</asrwt>
<pdfrwt beam="1">  1       21 0.11893459E+00 0.47284396E+03</pdfrwt>
<pdfrwt beam="2">  1       21 0.53460292E-01 0.47284396E+03</pdfrwt>
<totfact> 0.15173931E+03</totfact>
</mgrwt>
</event>
<event>
 6    1  0.9399121E-004  0.4057004E+03  0.7818608E-02  0.1041849E+00
         21   -1    0    0  503  502  0.00000000000E+00  0.00000000000E+00  0.16222253523E+04  0.16222253523E+04  0.00000000000E+00 0.  1.
         21   -1    0    0  501  503 -0.00000000000E+00 -0.00000000000E+00 -0.10497727395E+03  0.10497727395E+03  0.00000000000E+00 0.  1.
    9000007    2    1    2  501    0 -0.65829214806E+02 -0.16102919207E+02  0.91806762370E+03  0.10035936111E+04  0.39969886798E+03 0.  0.
    9000005    1    3    3    0    0 -0.21959898574E+03 -0.25656013115E+02  0.34171061865E+03  0.40700011356E+03  0.99999687468E+00 0.  0.
          4    1    3    3  501    0  0.15376977093E+03  0.95530939075E+01  0.57635700505E+03  0.59659349756E+03  0.00000000000E+00 0.  1.
   -9000007    1    1    2    0  502  0.65829214806E+02  0.16102919207E+02  0.59918045462E+03  0.72360901510E+03  0.40000000000E+03 0. -1.
<mgrwt>
<rscale>  2 0.40562612E+03</rscale>
<asrwt>0</asrwt>
<pdfrwt beam="1">  1       21 0.24957311E+00 0.40570037E+03</pdfrwt>
<pdfrwt beam="2">  1       21 0.16150351E-01 0.40570037E+03</pdfrwt>
<totfact> 0.19478604E+03</totfact>
</mgrwt>
</event>
<event>
 6    1  0.9399121E-004  0.4428176E+03  0.7818608E-02  0.1029931E+00
         21   -1    0    0  503  502  0.00000000000E+00  0.00000000000E+00  0.10141728733E+04  0.10141728733E+04  0.00000000000E+00 0. -1.
         21   -1    0    0  501  503 -0.00000000000E+00 -0.00000000000E+00 -0.39374331678E+03  0.39374331678E+03  0.00000000000E+00 0. -1.
    9000007    2    1    2  501    0 -0.53177789957E+02  0.18092993682E+03  0.81284963244E+03  0.92564136695E+03  0.40065433466E+03 0.  0.
    9000005    1    3    3    0    0 -0.12142884968E+03 -0.97310881304E+02  0.26137712936E+03  0.30419299285E+03  0.99999687468E+00 0.  0.
          4    1    3    3  501    0  0.68251059722E+02  0.27824081812E+03  0.55147250308E+03  0.62144837410E+03  0.00000000000E+00 0.  1.
   -9000007    1    1    2    0  502  0.53177789957E+02 -0.18092993682E+03 -0.19242007594E+03  0.48227482311E+03  0.40000000000E+03 0. -1.
<mgrwt>
<rscale>  2 0.44266953E+03</rscale>
<asrwt>0</asrwt>
<pdfrwt beam="1">  1       21 0.15602660E+00 0.44281759E+03</pdfrwt>
<pdfrwt beam="2">  1       21 0.60575895E-01 0.44281759E+03</pdfrwt>
<totfact> 0.57218645E+02</totfact>
</mgrwt>
</event>
<event>
 6    1  0.9399121E-004  0.4706069E+03  0.7818608E-02  0.1021778E+00
         21   -1    0    0  503  502  0.00000000000E+00  0.00000000000E+00  0.20719628570E+03  0.20719628570E+03  0.00000000000E+00 0.  1.
         21   -1    0    0  501  503 -0.00000000000E+00 -0.00000000000E+00 -0.10712984473E+04  0.10712984473E+04  0.00000000000E+00 0. -1.
    9000007    2    1    2  501    0  0.45775574805E+02 -0.24367077030E+03 -0.39615696609E+03  0.61483551807E+03  0.39951411108E+03 0.  0.
    9000005    1    3    3    0    0 -0.12776668384E+03 -0.14650300821E+03 -0.36497116931E+03  0.41351228680E+03  0.99999687468E+00 0.  0.
          4    1    3    3  501    0  0.17354225864E+03 -0.97167762094E+02 -0.31185796771E+02  0.20132323126E+03  0.00000000000E+00 0.  1.
   -9000007    1    1    2    0  502 -0.45775574805E+02  0.24367077030E+03 -0.46794519551E+03  0.66365921492E+03  0.40000000000E+03 0. -1.
<mgrwt>
<rscale>  2 0.47050363E+03</rscale>
<asrwt>0</asrwt>
<pdfrwt beam="1">  1       21 0.31876352E-01 0.47060689E+03</pdfrwt>
<pdfrwt beam="2">  1       21 0.16481514E+00 0.47060689E+03</pdfrwt>
<totfact> 0.18580763E+03</totfact>
</mgrwt>
</event>
<event>
 6    1  0.9399121E-004  0.4369994E+03  0.7818608E-02  0.1031684E+00
         21   -1    0    0  503  502  0.00000000000E+00  0.00000000000E+00  0.12691346892E+03  0.12691346892E+03  0.00000000000E+00 0.  1.
         21   -1    0    0  501  503 -0.00000000000E+00 -0.00000000000E+00 -0.19545339305E+04  0.19545339305E+04  0.00000000000E+00 0.  1.
    9000007    2    1    2  501    0 -0.15316697092E+03 -0.86650809613E+02 -0.14132611406E+04  0.14792330433E+04  0.39981853535E+03 0.  0.
    9000005    1    3    3    0    0  0.75201963563E+02  0.76943811462E+02 -0.14690606400E+03  0.18209359429E+03  0.99999687468E+00 0.  0.
          4    1    3    3  501    0 -0.22836893449E+03 -0.16359462108E+03 -0.12663550766E+04  0.12971394490E+04  0.00000000000E+00 0.  1.
   -9000007    1    1    2    0  502  0.15316697092E+03  0.86650809613E+02 -0.41435932098E+03  0.60221435608E+03  0.40000000000E+03 0.  1.
<mgrwt>
<rscale>  2 0.43695788E+03</rscale>
<asrwt>0</asrwt>
<pdfrwt beam="1">  1       21 0.19525149E-01 0.43699941E+03</pdfrwt>
<pdfrwt beam="2">  1       21 0.30069753E+00 0.43699941E+03</pdfrwt>
<totfact> 0.65886749E+02</totfact>
</mgrwt>
</event>
<event>
 6    1  0.9399121E-004  0.4130736E+03  0.7818608E-02  0.1039405E+00
         21   -1    0    0  503  502  0.00000000000E+00  0.00000000000E+00  0.14696774283E+03  0.14696774283E+03  0.00000000000E+00 0.  1.
         21   -1    0    0  501  503 -0.00000000000E+00 -0.00000000000E+00 -0.20375820399E+04  0.20375820399E+04  0.00000000000E+00 0.  1.
    9000007    2    1    2  501    0 -0.55649995856E+02 -0.83239149045E+02 -0.16630477395E+04  0.17135803399E+04  0.40075443791E+03 0.  0.
    9000005    1    3    3    0    0  0.29873171891E+02  0.14655447233E+02  0.10565934894E+02  0.34926029066E+02  0.99999687468E+00 0.  0.
          4    1    3    3  501    0 -0.85523167747E+02 -0.97894596278E+02 -0.16736136744E+04  0.16786543108E+04  0.00000000000E+00 0.  1.
   -9000007    1    1    2    0  502  0.55649995856E+02  0.83239149045E+02 -0.22756655764E+03  0.47096944288E+03  0.40000000000E+03 0.  1.
<mgrwt>
<rscale>  2 0.41289050E+03</rscale>
<asrwt>0</asrwt>
<pdfrwt beam="1">  1       21 0.22610424E-01 0.41307360E+03</pdfrwt>
<pdfrwt beam="2">  1       21 0.31347413E+00 0.41307360E+03</pdfrwt>
<totfact> 0.42328149E+02</totfact>
</mgrwt>
</event>
<event>
 6    1  0.9399121E-004  0.6150725E+03  0.7818608E-02  0.9875622E-01
         21   -1    0    0  503  502  0.00000000000E+00  0.00000000000E+00  0.88344545051E+03  0.88344545051E+03  0.00000000000E+00 0.  1.
         21   -1    0    0  501  503 -0.00000000000E+00 -0.00000000000E+00 -0.42776914503E+03  0.42776914503E+03  0.00000000000E+00 0. -1.
    9000007    2    1    2  501    0  0.91896580686E+02  0.45811489441E+03  0.25800623547E+03  0.66515910676E+03  0.39693221303E+03 0.  0.
    9000005    1    3    3    0    0  0.29663691291E+02  0.26977039664E+03 -0.71406045406E+02  0.28063468210E+03  0.99999687468E+00 0.  0.
          4    1    3    3  501    0  0.62232889395E+02  0.18834449777E+03  0.32941228088E+03  0.38452442466E+03  0.00000000000E+00 0.  1.
   -9000007    1    1    2    0  502 -0.91896580686E+02 -0.45811489441E+03  0.19767007000E+03  0.64605548879E+03  0.40000000000E+03 0.  1.
<mgrwt>
<rscale>  2 0.61457428E+03</rscale>
<asrwt>0</asrwt>
<pdfrwt beam="1">  1       21 0.13591468E+00 0.61507255E+03</pdfrwt>
<pdfrwt beam="2">  1       21 0.65810638E-01 0.61507255E+03</pdfrwt>
<totfact> 0.64735740E+02</totfact>
</mgrwt>
</event>
<event>
 6    1  0.9399121E-004  0.4845673E+03  0.7818608E-02  0.1018015E+00
         21   -1    0    0  503  502  0.00000000000E+00  0.00000000000E+00  0.46740810665E+03  0.46740810665E+03  0.00000000000E+00 0. -1.
         21   -1    0    0  501  503 -0.00000000000E+00 -0.00000000000E+00 -0.50711952327E+03  0.50711952327E+03  0.00000000000E+00 0.  1.
    9000007    2    1    2  501    0 -0.16703344297E+03  0.21233899259E+03 -0.75939515817E+02  0.49048166721E+03  0.40226538125E+03 0.  0.
    9000005    1    3    3    0    0 -0.20081259201E+02  0.30498754232E+03 -0.13726862989E+02  0.30595765182E+03  0.99999687468E+00 0.  0.
          4    1    3    3  501    0 -0.14695218377E+03 -0.92648549733E+02 -0.62212652828E+02  0.18452401539E+03  0.00000000000E+00 0.  1.
   -9000007    1    1    2    0  502  0.16703344297E+03 -0.21233899259E+03  0.36228099202E+02  0.48404596271E+03  0.40000000000E+03 0. -1.
<mgrwt>
<rscale>  2 0.48409686E+03</rscale>
<asrwt>0</asrwt>
<pdfrwt beam="1">  1       21 0.71908939E-01 0.48456729E+03</pdfrwt>
<pdfrwt beam="2">  1       21 0.78018389E-01 0.48456729E+03</pdfrwt>
<totfact> 0.21714784E+03</totfact>
</mgrwt>
</event>
<event>
 6    1  0.9399121E-004  0.5272171E+03  0.7818608E-02  0.1006979E+00
         21   -1    0    0  503  502  0.00000000000E+00  0.00000000000E+00  0.29240439896E+03  0.29240439896E+03  0.00000000000E+00 0. -1.
         21   -1    0    0  501  503 -0.00000000000E+00 -0.00000000000E+00 -0.11214678090E+04  0.11214678090E+04  0.00000000000E+00 0.  1.
    9000007    2    1    2  501    0 -0.30755041497E+03 -0.15287441241E+03 -0.69174512562E+03  0.86906567814E+03  0.39850469306E+03 0.  0.
    9000005    1    3    3    0    0 -0.35088154586E+03 -0.95390267220E+02 -0.30184671419E+03  0.47257761391E+03  0.99999687468E+00 0.  0.
          4    1    3    3  501    0  0.43331130883E+02 -0.57484145187E+02 -0.38989841142E+03  0.39648806424E+03  0.00000000000E+00 0.  1.
   -9000007    1    1    2    0  502  0.30755041497E+03  0.15287441241E+03 -0.13731828446E+03  0.54480652985E+03  0.40000000000E+03 0. -1.
<mgrwt>
<rscale>  2 0.52693345E+03</rscale>
<asrwt>0</asrwt>
<pdfrwt beam="1">  1       21 0.44985292E-01 0.52721707E+03</pdfrwt>
<pdfrwt beam="2">  1       21 0.17253351E+00 0.52721707E+03</pdfrwt>
<totfact> 0.78752546E+02</totfact>
</mgrwt>
</event>
<event>
 6    1  0.9399121E-004  0.4540282E+03  0.7818608E-02  0.1026532E+00
         21   -1    0    0  503  502  0.00000000000E+00  0.00000000000E+00  0.13642510108E+04  0.13642510108E+04  0.00000000000E+00 0.  1.
         21   -1    0    0  501  503 -0.00000000000E+00 -0.00000000000E+00 -0.16652474217E+03  0.16652474217E+03  0.00000000000E+00 0.  1.
    9000007    2    1    2  501    0 -0.15994613292E+03 -0.14317631037E+03  0.36581236632E+03  0.58306115344E+03  0.40007424312E+03 0.  0.
    9000005    1    3    3    0    0 -0.13586745247E+03 -0.20140606396E+03  0.34000192950E+02  0.24531893599E+03  0.99999687468E+00 0.  0.
          4    1    3    3  501    0 -0.24078680447E+02  0.58229753583E+02  0.33181217337E+03  0.33774221745E+03  0.00000000000E+00 0.  1.
   -9000007    1    1    2    0  502  0.15994613292E+03  0.14317631037E+03  0.83191390231E+03  0.94771459952E+03  0.40000000000E+03 0.  1.
<mgrwt>
<rscale>  2 0.45401186E+03</rscale>
<asrwt>0</asrwt>
<pdfrwt beam="1">  1       21 0.20988476E+00 0.45402822E+03</pdfrwt>
<pdfrwt beam="2">  1       21 0.25619192E-01 0.45402822E+03</pdfrwt>
<totfact> 0.14045754E+03</totfact>
</mgrwt>
</event>
<event>
 6    1  0.9399121E-004  0.6147481E+03  0.7818608E-02  0.9875934E-01
         21   -1    0    0  503  502  0.00000000000E+00  0.00000000000E+00  0.85063115270E+03  0.85063115270E+03  0.00000000000E+00 0.  1.
         21   -1    0    0  501  503 -0.00000000000E+00 -0.00000000000E+00 -0.54368913436E+03  0.54368913436E+03  0.00000000000E+00 0.  1.
    9000007    2    1    2  501    0 -0.31823979217E+03  0.33915262070E+03 -0.14592623062E+03  0.63183047313E+03  0.40201270696E+03 0.  0.
    9000005    1    3    3    0    0  0.76480895819E+02 -0.19721065190E+02 -0.89721074556E+00  0.78994004952E+02  0.99999687468E+00 0.  0.
          4    1    3    3  501    0 -0.39472068799E+03  0.35887368589E+03 -0.14502901987E+03  0.55283646818E+03  0.00000000000E+00 0.  1.
   -9000007    1    1    2    0  502  0.31823979217E+03 -0.33915262070E+03  0.45286824896E+03  0.76248981394E+03  0.40000000000E+03 0.  1.
<mgrwt>
<rscale>  2 0.61441930E+03</rscale>
<asrwt>0</asrwt>
<pdfrwt beam="1">  1       21 0.13086633E+00 0.61474815E+03</pdfrwt>
<pdfrwt beam="2">  1       21 0.83644482E-01 0.61474815E+03</pdfrwt>
<totfact> 0.41268248E+02</totfact>
</mgrwt>
</event>
<event>
 6    1  0.9399121E-004  0.4052654E+03  0.7818608E-02  0.1042290E+00
         21   -1    0    0  503  502  0.00000000000E+00  0.00000000000E+00  0.57789863282E+03  0.57789863282E+03  0.00000000000E+00 0.  1.
         21   -1    0    0  501  503 -0.00000000000E+00 -0.00000000000E+00 -0.29360483660E+03  0.29360483660E+03  0.00000000000E+00 0.  1.
    9000007    2    1    2  501    0 -0.34837176386E+02  0.46059661151E+01  0.23090209313E+03  0.46642876304E+03  0.40373898821E+03 0.  0.
    9000005    1    3    3    0    0  0.18237863205E+03  0.34575281775E+02  0.96053128016E+02  0.20900865756E+03  0.99999687468E+00 0.  0.
          4    1    3    3  501    0 -0.21721580844E+03 -0.29969315660E+02  0.13484896512E+03  0.25742010549E+03  0.00000000000E+00 0.  1.
   -9000007    1    1    2    0  502  0.34837176386E+02 -0.46059661151E+01  0.53391703090E+02  0.40507470637E+03  0.40000000000E+03 0.  1.
<mgrwt>
<rscale>  2 0.40433094E+03</rscale>
<asrwt>0</asrwt>
<pdfrwt beam="1">  1       21 0.88907482E-01 0.40526536E+03</pdfrwt>
<pdfrwt beam="2">  1       21 0.45169975E-01 0.40526536E+03</pdfrwt>
<totfact> 0.45282045E+03</totfact>
</mgrwt>
</event>
<event>
 6    1  0.9399121E-004  0.6551756E+03  0.7818608E-02  0.9797151E-01
         21   -1    0    0  503  502  0.00000000000E+00  0.00000000000E+00  0.33967057607E+03  0.33967057607E+03  0.00000000000E+00 0. -1.
         21   -1    0    0  501  503 -0.00000000000E+00 -0.00000000000E+00 -0.14921501865E+04  0.14921501865E+04  0.00000000000E+00 0.  1.
    9000007    2    1    2  501    0 -0.51786271497E+03 -0.31204869172E+02 -0.93473109855E+03  0.11414803032E+04  0.40012438147E+03 0.  0.
    9000005    1    3    3    0    0 -0.42138110895E+03 -0.15808896284E+03 -0.47252522492E+03  0.65256053154E+03  0.99999687468E+00 0.  0.
          4    1    3    3  501    0 -0.96481606017E+02  0.12688409366E+03 -0.46220587364E+03  0.48891977169E+03  0.00000000000E+00 0.  1.
   -9000007    1    1    2    0  502  0.51786271497E+03  0.31204869172E+02 -0.21774851190E+03  0.69034045937E+03  0.40000000000E+03 0. -1.
<mgrwt>
<rscale>  2 0.65515660E+03</rscale>
<asrwt>0</asrwt>
<pdfrwt beam="1">  1       21 0.52257012E-01 0.65517559E+03</pdfrwt>
<pdfrwt beam="2">  1       21 0.22956157E+00 0.65517559E+03</pdfrwt>
<totfact> 0.22459065E+02</totfact>
</mgrwt>
</event>
<event>
 6    1  0.9399121E-004  0.4045823E+03  0.7818608E-02  0.1042205E+00
         21   -1    0    0  503  502  0.00000000000E+00  0.00000000000E+00  0.27921900140E+03  0.27921900140E+03  0.00000000000E+00 0. -1.
         21   -1    0    0  501  503 -0.00000000000E+00 -0.00000000000E+00 -0.60545677516E+03  0.60545677516E+03  0.00000000000E+00 0. -1.
    9000007    2    1    2  501    0 -0.27037128192E+02  0.54305684954E+02 -0.24196839279E+03  0.47141866254E+03  0.40000842311E+03 0.  0.
    9000005    1    3    3    0    0  0.71859679146E+02  0.20098932235E+03 -0.69833661733E+02  0.22458464215E+03  0.99999687468E+00 0.  0.
          4    1    3    3  501    0 -0.98896807338E+02 -0.14668363740E+03 -0.17213473106E+03  0.24683402038E+03  0.00000000000E+00 0.  1.
   -9000007    1    1    2    0  502  0.27037128192E+02 -0.54305684954E+02 -0.84269380974E+02  0.41325711402E+03  0.40000000000E+03 0. -1.
<mgrwt>
<rscale>  2 0.40458024E+03</rscale>
<asrwt>0</asrwt>
<pdfrwt beam="1">  1       21 0.42956770E-01 0.40458232E+03</pdfrwt>
<pdfrwt beam="2">  1       21 0.93147195E-01 0.40458232E+03</pdfrwt>
<totfact> 0.45039820E+03</totfact>
</mgrwt>
</event>
<event>
 6    1  0.9399121E-004  0.4625769E+03  0.7818608E-02  0.1024079E+00
         21   -1    0    0  503  502  0.00000000000E+00  0.00000000000E+00  0.32634271835E+03  0.32634271835E+03  0.00000000000E+00 0. -1.
         21   -1    0    0  501  503 -0.00000000000E+00 -0.00000000000E+00 -0.86814566324E+03  0.86814566324E+03  0.00000000000E+00 0. -1.
    9000007    2    1    2  501    0  0.22748401032E+03 -0.41042686561E+02 -0.56706926398E+03  0.73180937412E+03  0.40067933916E+03 0.  0.
    9000005    1    3    3    0    0  0.14330822896E+03  0.16424939792E+03 -0.16801236689E+03  0.27521676661E+03  0.99999687468E+00 0.  0.
          4    1    3    3  501    0  0.84175781360E+02 -0.20529208448E+03 -0.39905689709E+03  0.45659260751E+03  0.00000000000E+00 0.  1.
   -9000007    1    1    2    0  502 -0.22748401032E+03  0.41042686561E+02  0.25266319091E+02  0.46267900747E+03  0.40000000000E+03 0.  1.
<mgrwt>
<rscale>  2 0.46242978E+03</rscale>
<asrwt>0</asrwt>
<pdfrwt beam="1">  1       21 0.50206572E-01 0.46257692E+03</pdfrwt>
<pdfrwt beam="2">  1       21 0.13356087E+00 0.46257692E+03</pdfrwt>
<totfact> 0.12920441E+03</totfact>
</mgrwt>
</event>
<event>
 6    1  0.9399121E-004  0.6667453E+03  0.7818608E-02  0.9776035E-01
         21   -1    0    0  503  502  0.00000000000E+00  0.00000000000E+00  0.72351723582E+03  0.72351723582E+03  0.00000000000E+00 0.  1.
         21   -1    0    0  501  503 -0.00000000000E+00 -0.00000000000E+00 -0.61602391560E+03  0.61602391560E+03  0.00000000000E+00 0. -1.
    9000007    2    1    2  501    0 -0.40221210830E+03  0.35039226808E+03  0.15958340806E+02  0.66654191365E+03  0.39934212452E+03 0.  0.
    9000005    1    3    3    0    0 -0.46343302675E+03  0.37099719594E+03 -0.17287619744E+02  0.59389304717E+03  0.99999687468E+00 0.  0.
          4    1    3    3  501    0  0.61220918450E+02 -0.20604927866E+02  0.33245960550E+02  0.72648866482E+02  0.00000000000E+00 0.  1.
   -9000007    1    1    2    0  502  0.40221210830E+03 -0.35039226808E+03  0.91534979415E+02  0.67299923778E+03  0.40000000000E+03 0.  1.
<mgrwt>
<rscale>  2 0.66664668E+03</rscale>
<asrwt>0</asrwt>
<pdfrwt beam="1">  1       21 0.11131034E+00 0.66674532E+03</pdfrwt>
<pdfrwt beam="2">  1       21 0.94772910E-01 0.66674532E+03</pdfrwt>
<totfact> 0.45686181E+02</totfact>
</mgrwt>
</event>
<event>
 6    1  0.9399121E-004  0.7453557E+03  0.7818608E-02  0.9642733E-01
         21   -1    0    0  503  502  0.00000000000E+00  0.00000000000E+00  0.89558411789E+03  0.89558411789E+03  0.00000000000E+00 0.  1.
         21   -1    0    0  501  503 -0.00000000000E+00 -0.00000000000E+00 -0.84072088050E+03  0.84072088050E+03  0.00000000000E+00 0. -1.
    9000007    2    1    2  501    0 -0.26334825185E+03  0.57091761984E+03 -0.41720806266E+03  0.85417658216E+03  0.40031966672E+03 0.  0.
    9000005    1    3    3    0    0 -0.27994026255E+03  0.15281361464E+03 -0.24285545605E+03  0.40087195455E+03  0.99999687468E+00 0.  0.
          4    1    3    3  501    0  0.16592010700E+02  0.41810400520E+03 -0.17435260661E+03  0.45330462761E+03  0.00000000000E+00 0.  1.
   -9000007    1    1    2    0  502  0.26334825185E+03 -0.57091761984E+03  0.47207130005E+03  0.88212841623E+03  0.40000000000E+03 0.  1.
<mgrwt>
<rscale>  2 0.74531275E+03</rscale>
<asrwt>0</asrwt>
<pdfrwt beam="1">  1       21 0.13778217E+00 0.74535566E+03</pdfrwt>
<pdfrwt beam="2">  1       21 0.12934167E+00 0.74535566E+03</pdfrwt>
<totfact> 0.11709075E+02</totfact>
</mgrwt>
</event>
<event>
 6    1  0.9399121E-004  0.4025132E+03  0.7818608E-02  0.1042955E+00
         21   -1    0    0  503  502  0.00000000000E+00  0.00000000000E+00  0.16603582235E+04  0.16603582235E+04  0.00000000000E+00 0.  1.
         21   -1    0    0  501  503 -0.00000000000E+00 -0.00000000000E+00 -0.10475036396E+03  0.10475036396E+03  0.00000000000E+00 0.  1.
    9000007    2    1    2  501    0  0.22693731800E+02  0.33273274709E+02  0.10110658770E+04  0.10882422144E+04  0.40049318750E+03 0.  0.
    9000005    1    3    3    0    0 -0.14437592343E+03 -0.99038425571E+02  0.60263461680E+03  0.62755278533E+03  0.99999687468E+00 0.  0.
          4    1    3    3  501    0  0.16706965523E+03  0.13231170028E+03  0.40843126023E+03  0.46068942908E+03  0.00000000000E+00 0.  1.
   -9000007    1    1    2    0  502 -0.22693731800E+02 -0.33273274709E+02  0.54454198255E+03  0.67686637310E+03  0.40000000000E+03 0. -1.
<mgrwt>
<rscale>  2 0.40239051E+03</rscale>
<asrwt>0</asrwt>
<pdfrwt beam="1">  1       21 0.25543971E+00 0.40251324E+03</pdfrwt>
<pdfrwt beam="2">  1       21 0.16115442E-01 0.40251324E+03</pdfrwt>
<totfact> 0.18041588E+03</totfact>
</mgrwt>
</event>
<event>
 6    1  0.9399121E-004  0.4276624E+03  0.7818608E-02  0.1034668E+00
         21   -1    0    0  503  502  0.00000000000E+00  0.00000000000E+00  0.11110180469E+03  0.11110180469E+03  0.00000000000E+00 0.  1.
         21   -1    0    0  501  503 -0.00000000000E+00 -0.00000000000E+00 -0.16835935344E+04  0.16835935344E+04  0.00000000000E+00 0.  1.
    9000007    2    1    2  501    0  0.10197061977E+03  0.11179050167E+03 -0.92488079897E+03  0.10186186411E+04  0.39910439751E+03 0.  0.
    9000005    1    3    3    0    0 -0.69069490813E+02  0.19058212156E+03 -0.27268453285E+03  0.33977933143E+03  0.99999687468E+00 0.  0.
          4    1    3    3  501    0  0.17104011059E+03 -0.78791619888E+02 -0.65219626612E+03  0.67883930966E+03  0.00000000000E+00 0.  1.
   -9000007    1    1    2    0  502 -0.10197061977E+03 -0.11179050167E+03 -0.64761093076E+03  0.77607669801E+03  0.40000000000E+03 0. -1.
<mgrwt>
<rscale>  2 0.42745285E+03</rscale>
<asrwt>0</asrwt>
<pdfrwt beam="1">  1       21 0.17092585E-01 0.42766239E+03</pdfrwt>
<pdfrwt beam="2">  1       21 0.25901440E+00 0.42766239E+03</pdfrwt>
<totfact> 0.15173596E+03</totfact>
</mgrwt>
</event>
<event>
 6    1  0.9399121E-004  0.4358468E+03  0.7818608E-02  0.1032054E+00
         21   -1    0    0  503  502  0.00000000000E+00  0.00000000000E+00  0.13219984012E+03  0.13219984012E+03  0.00000000000E+00 0. -1.
         21   -1    0    0  501  503 -0.00000000000E+00 -0.00000000000E+00 -0.17013670186E+04  0.17013670186E+04  0.00000000000E+00 0. -1.
    9000007    2    1    2  501    0 -0.98174686973E+02  0.14158214939E+03 -0.11469775226E+04  0.12269962695E+04  0.40034814078E+03 0.  0.
    9000005    1    3    3    0    0  0.40622609586E+02  0.13570518387E+03 -0.10634973807E+03  0.17713655783E+03  0.99999687468E+00 0.  0.
          4    1    3    3  501    0 -0.13879729656E+03  0.58769655215E+01 -0.10406277845E+04  0.10498597117E+04  0.00000000000E+00 0.  1.
   -9000007    1    1    2    0  502  0.98174686973E+02 -0.14158214939E+03 -0.42218965593E+03  0.60657058927E+03  0.40000000000E+03 0. -1.
<mgrwt>
<rscale>  2 0.43576681E+03</rscale>
<asrwt>0</asrwt>
<pdfrwt beam="1">  1       21 0.20338437E-01 0.43584677E+03</pdfrwt>
<pdfrwt beam="2">  1       21 0.26174877E+00 0.43584677E+03</pdfrwt>
<totfact> 0.10471557E+03</totfact>
</mgrwt>
</event>
<event>
 6    1  0.9399121E-004  0.4046014E+03  0.7818608E-02  0.1042213E+00
         21   -1    0    0  503  502  0.00000000000E+00  0.00000000000E+00  0.54324622807E+03  0.54324622807E+03  0.00000000000E+00 0. -1.
         21   -1    0    0  501  503 -0.00000000000E+00 -0.00000000000E+00 -0.61597498161E+03  0.61597498161E+03  0.00000000000E+00 0. -1.
    9000007    2    1    2  501    0  0.16334456307E+02 -0.57412373633E+02 -0.45069793430E+03  0.60566570504E+03  0.40017411607E+03 0.  0.
    9000005    1    3    3    0    0 -0.12994001171E+03 -0.16523684320E+03 -0.31572469077E+03  0.37930291503E+03  0.99999687468E+00 0.  0.
          4    1    3    3  501    0  0.14627446802E+03  0.10782446957E+03 -0.13497324353E+03  0.22636279001E+03  0.00000000000E+00 0.  1.
   -9000007    1    1    2    0  502 -0.16334456307E+02  0.57412373633E+02  0.37796918076E+03  0.55355550464E+03  0.40000000000E+03 0. -1.
<mgrwt>
<rscale>  2 0.40455837E+03</rscale>
<asrwt>0</asrwt>
<pdfrwt beam="1">  1       21 0.83576343E-01 0.40460143E+03</pdfrwt>
<pdfrwt beam="2">  1       21 0.94765382E-01 0.40460143E+03</pdfrwt>
<totfact> 0.10060891E+03</totfact>
</mgrwt>
</event>
<event>
 6    1  0.9399121E-004  0.4624870E+03  0.7818608E-02  0.1024098E+00
         21   -1    0    0  503  502  0.00000000000E+00  0.00000000000E+00  0.53577429827E+03  0.53577429827E+03  0.00000000000E+00 0.  1.
         21   -1    0    0  501  503 -0.00000000000E+00 -0.00000000000E+00 -0.52132978191E+03  0.52132978191E+03  0.00000000000E+00 0.  1.
    9000007    2    1    2  501    0  0.22765237790E+03 -0.40184562826E+02  0.26346747951E+03  0.53226806729E+03  0.40056682145E+03 0.  0.
    9000005    1    3    3    0    0  0.13384629395E+03  0.25290583008E+02 -0.88321937694E+02  0.16234595364E+03  0.99999687468E+00 0.  0.
          4    1    3    3  501    0  0.93806083949E+02 -0.65475145833E+02  0.35178941721E+03  0.36992211365E+03  0.00000000000E+00 0.  1.
   -9000007    1    1    2    0  502 -0.22765237790E+03  0.40184562826E+02 -0.24902296314E+03  0.52483601289E+03  0.40000000000E+03 0.  1.
<mgrwt>
<rscale>  2 0.46236419E+03</rscale>
<asrwt>0</asrwt>
<pdfrwt beam="1">  1       21 0.82426815E-01 0.46248695E+03</pdfrwt>
<pdfrwt beam="2">  1       21 0.80204582E-01 0.46248695E+03</pdfrwt>
<totfact> 0.15011553E+03</totfact>
</mgrwt>
</event>
<event>
 6    1  0.9399121E-004  0.4723654E+03  0.7818608E-02  0.1021299E+00
         21   -1    0    0  503  502  0.00000000000E+00  0.00000000000E+00  0.53060111991E+03  0.53060111991E+03  0.00000000000E+00 0.  1.
         21   -1    0    0  501  503 -0.00000000000E+00 -0.00000000000E+00 -0.43767113050E+03  0.43767113050E+03  0.00000000000E+00 0.  1.
    9000007    2    1    2  501    0  0.24195778446E+03  0.63115380278E+02  0.14390256669E+03  0.49379851634E+03  0.40075167542E+03 0.  0.
    9000005    1    3    3    0    0 -0.35778002515E+02 -0.38369444614E+02 -0.98393942388E+02  0.11151075121E+03  0.99999687468E+00 0.  0.
          4    1    3    3  501    0  0.27773578698E+03  0.10148482489E+03  0.24229650908E+03  0.38228776513E+03  0.00000000000E+00 0.  1.
   -9000007    1    1    2    0  502 -0.24195778446E+03 -0.63115380278E+02 -0.50972577276E+02  0.47447373407E+03  0.40000000000E+03 0.  1.
<mgrwt>
<rscale>  2 0.47220588E+03</rscale>
<asrwt>0</asrwt>
<pdfrwt beam="1">  1       21 0.81630942E-01 0.47236535E+03</pdfrwt>
<pdfrwt beam="2">  1       21 0.67334020E-01 0.47236535E+03</pdfrwt>
<totfact> 0.22774946E+03</totfact>
</mgrwt>
</event>
<event>
 6    1  0.9399121E-004  0.5143600E+03  0.7818608E-02  0.1010117E+00
         21   -1    0    0  503  502  0.00000000000E+00  0.00000000000E+00  0.13964423511E+04  0.13964423511E+04  0.00000000000E+00 0.  1.
         21   -1    0    0  501  503 -0.00000000000E+00 -0.00000000000E+00 -0.24474505845E+03  0.24474505845E+03  0.00000000000E+00 0. -1.
    9000007    2    1    2  501    0 -0.25003720750E+03 -0.20425557501E+03  0.18555438766E+03  0.54680582258E+03  0.40040883078E+03 0.  0.
    9000005    1    3    3    0    0 -0.95614969103E+02 -0.31108279379E+03  0.13509252482E+03  0.35237156123E+03  0.99999687468E+00 0.  0.
          4    1    3    3  501    0 -0.15442223840E+03  0.10682721878E+03  0.50461862834E+02  0.19443426134E+03  0.00000000000E+00 0.  1.
   -9000007    1    1    2    0  502  0.25003720750E+03  0.20425557501E+03  0.96614290504E+03  0.10943815870E+04  0.40000000000E+03 0.  1.
<mgrwt>
<rscale>  2 0.51428040E+03</rscale>
<asrwt>0</asrwt>
<pdfrwt beam="1">  1       21 0.21483728E+00 0.51435997E+03</pdfrwt>
<pdfrwt beam="2">  1       21 0.37653087E-01 0.51435997E+03</pdfrwt>
<totfact> 0.58828085E+02</totfact>
</mgrwt>
</event>
<event>
 6    1  0.9399121E-004  0.4547012E+03  0.7818608E-02  0.1026334E+00
         21   -1    0    0  503  502  0.00000000000E+00  0.00000000000E+00  0.37742225900E+03  0.37742225900E+03  0.00000000000E+00 0. -1.
         21   -1    0    0  501  503 -0.00000000000E+00 -0.00000000000E+00 -0.56235538236E+03  0.56235538236E+03  0.00000000000E+00 0. -1.
    9000007    2    1    2  501    0  0.15584284528E+03  0.14988735853E+03 -0.16826478986E+03  0.48477099744E+03  0.39992082689E+03 0.  0.
    9000005    1    3    3    0    0  0.19564919978E+03  0.10813673422E+03 -0.28043788396E+03  0.35863431154E+03  0.99999687468E+00 0.  0.
          4    1    3    3  501    0 -0.39806354500E+02  0.41750624306E+02  0.11217309410E+03  0.12613668589E+03  0.00000000000E+00 0.  1.
   -9000007    1    1    2    0  502 -0.15584284528E+03 -0.14988735853E+03 -0.16668333506E+02  0.45500664392E+03  0.40000000000E+03 0.  1.
<mgrwt>
<rscale>  2 0.45468382E+03</rscale>
<asrwt>0</asrwt>
<pdfrwt beam="1">  1       21 0.58064963E-01 0.45470123E+03</pdfrwt>
<pdfrwt beam="2">  1       21 0.86516213E-01 0.45470123E+03</pdfrwt>
<totfact> 0.27751785E+03</totfact>
</mgrwt>
</event>
<event>
 6    1  0.9399121E-004  0.4385139E+03  0.7818608E-02  0.1031213E+00
         21   -1    0    0  503  502  0.00000000000E+00  0.00000000000E+00  0.50563124454E+03  0.50563124454E+03  0.00000000000E+00 0. -1.
         21   -1    0    0  501  503 -0.00000000000E+00 -0.00000000000E+00 -0.40825054050E+03  0.40825054050E+03  0.00000000000E+00 0. -1.
    9000007    2    1    2  501    0  0.95004899846E+02  0.15254028863E+03  0.16846189552E+03  0.46964422873E+03  0.39986475300E+03 0.  0.
    9000005    1    3    3    0    0  0.23478703536E+03  0.16029053127E+03  0.16686031048E+03  0.32963824049E+03  0.99999687468E+00 0.  0.
          4    1    3    3  501    0 -0.13978213551E+03 -0.77502426412E+01  0.16015850442E+01  0.14000598824E+03  0.00000000000E+00 0.  1.
   -9000007    1    1    2    0  502 -0.95004899846E+02 -0.15254028863E+03 -0.71081191484E+02  0.44423755631E+03  0.40000000000E+03 0. -1.
<mgrwt>
<rscale>  2 0.43848309E+03</rscale>
<asrwt>0</asrwt>
<pdfrwt beam="1">  1       21 0.77789422E-01 0.43851393E+03</pdfrwt>
<pdfrwt beam="2">  1       21 0.62807776E-01 0.43851393E+03</pdfrwt>
<totfact> 0.30076648E+03</totfact>
</mgrwt>
</event>
<event>
 6    1  0.9399121E-004  0.5761839E+03  0.7818608E-02  0.9956134E-01
         21   -1    0    0  503  502  0.00000000000E+00  0.00000000000E+00  0.27154460668E+03  0.27154460668E+03  0.00000000000E+00 0.  1.
         21   -1    0    0  501  503 -0.00000000000E+00 -0.00000000000E+00 -0.13082423208E+04  0.13082423208E+04  0.00000000000E+00 0.  1.
    9000007    2    1    2  501    0 -0.93304313141E+02 -0.40395964552E+03 -0.31605834746E+03  0.65717639924E+03  0.40012354425E+03 0.  0.
    9000005    1    3    3    0    0 -0.70627060335E+02 -0.13740911280E+03 -0.35469834083E+03  0.38688675205E+03  0.99999687468E+00 0.  0.
          4    1    3    3  501    0 -0.22677252806E+02 -0.26655053272E+03  0.38639993371E+02  0.27028964719E+03  0.00000000000E+00 0.  1.
   -9000007    1    1    2    0  502  0.93304313141E+02  0.40395964552E+03 -0.72063936666E+03  0.92261052825E+03  0.40000000000E+03 0.  1.
<mgrwt>
<rscale>  2 0.57616250E+03</rscale>
<asrwt>0</asrwt>
<pdfrwt beam="1">  1       21 0.41776093E-01 0.57618395E+03</pdfrwt>
<pdfrwt beam="2">  1       21 0.20126805E+00 0.57618395E+03</pdfrwt>
<totfact> 0.56914880E+02</totfact>
</mgrwt>
</event>
<event>
 6    1  0.9399121E-004  0.4152560E+03  0.7818608E-02  0.1038673E+00
         21   -1    0    0  503  502  0.00000000000E+00  0.00000000000E+00  0.57192969945E+03  0.57192969945E+03  0.00000000000E+00 0. -1.
         21   -1    0    0  501  503 -0.00000000000E+00 -0.00000000000E+00 -0.68322895291E+03  0.68322895291E+03  0.00000000000E+00 0. -1.
    9000007    2    1    2  501    0 -0.55591394465E+02  0.93943648299E+02 -0.52504503985E+03  0.66941008176E+03  0.40065165854E+03 0.  0.
    9000005    1    3    3    0    0 -0.13232847923E+03  0.20072357207E+03 -0.46786480808E+03  0.52602210736E+03  0.99999687468E+00 0.  0.
          4    1    3    3  501    0  0.76737084761E+02 -0.10677992377E+03 -0.57180231778E+02  0.14338797440E+03  0.00000000000E+00 0.  1.
   -9000007    1    1    2    0  502  0.55591394465E+02 -0.93943648299E+02  0.41374578640E+03  0.58574857060E+03  0.40000000000E+03 0. -1.
<mgrwt>
<rscale>  2 0.41509876E+03</rscale>
<asrwt>0</asrwt>
<pdfrwt beam="1">  1       21 0.87989185E-01 0.41525602E+03</pdfrwt>
<pdfrwt beam="2">  1       21 0.10511215E+00 0.41525602E+03</pdfrwt>
<totfact> 0.69048602E+02</totfact>
</mgrwt>
</event>
<event>
 6    1  0.9399121E-004  0.4216040E+03  0.7818608E-02  0.1036580E+00
         21   -1    0    0  503  502  0.00000000000E+00  0.00000000000E+00  0.14573348243E+03  0.14573348243E+03  0.00000000000E+00 0.  1.
         21   -1    0    0  501  503 -0.00000000000E+00 -0.00000000000E+00 -0.12868761288E+04  0.12868761288E+04  0.00000000000E+00 0. -1.
    9000007    2    1    2  501    0  0.87020306519E+02  0.10088291551E+03 -0.73544424938E+03  0.84751040107E+03  0.39955692911E+03 0.  0.
    9000005    1    3    3    0    0 -0.84751642098E+01  0.24670297444E+03 -0.43571312875E+03  0.50078050737E+03  0.99999687468E+00 0.  0.
          4    1    3    3  501    0  0.95495470729E+02 -0.14582005893E+03 -0.29973112062E+03  0.34672989370E+03  0.00000000000E+00 0.  1.
   -9000007    1    1    2    0  502 -0.87020306519E+02 -0.10088291551E+03 -0.40569839697E+03  0.58509921013E+03  0.40000000000E+03 0.  1.
<mgrwt>
<rscale>  2 0.42149883E+03</rscale>
<asrwt>0</asrwt>
<pdfrwt beam="1">  1       21 0.22420536E-01 0.42160396E+03</pdfrwt>
<pdfrwt beam="2">  1       21 0.19798094E+00 0.42160396E+03</pdfrwt>
<totfact> 0.22107857E+03</totfact>
</mgrwt>
</event>
<event>
 6    1  0.9399121E-004  0.5396629E+03  0.7818608E-02  0.1003938E+00
         21   -1    0    0  503  502  0.00000000000E+00  0.00000000000E+00  0.22893130271E+03  0.22893130271E+03  0.00000000000E+00 0. -1.
         21   -1    0    0  501  503 -0.00000000000E+00 -0.00000000000E+00 -0.15307342819E+04  0.15307342819E+04  0.00000000000E+00 0. -1.
    9000007    2    1    2  501    0  0.32742235362E+03 -0.15370724251E+03 -0.28885609023E+03  0.61210612476E+03  0.40050562175E+03 0.  0.
    9000005    1    3    3    0    0  0.39533083411E+03 -0.12242842489E+03 -0.12551976547E+03  0.43247126972E+03  0.99999687468E+00 0.  0.
          4    1    3    3  501    0 -0.67908480493E+02 -0.31278817623E+02 -0.16333632476E+03  0.17963485503E+03  0.00000000000E+00 0.  1.
   -9000007    1    1    2    0  502 -0.32742235362E+03  0.15370724251E+03 -0.10129468890E+04  0.11475594599E+04  0.40000000000E+03 0. -1.
<mgrwt>
<rscale>  2 0.53956911E+03</rscale>
<asrwt>0</asrwt>
<pdfrwt beam="1">  1       21 0.35220199E-01 0.53966292E+03</pdfrwt>
<pdfrwt beam="2">  1       21 0.23549759E+00 0.53966292E+03</pdfrwt>
<totfact> 0.49221649E+02</totfact>
</mgrwt>
</event>
<event>
 6    1  0.9399121E-004  0.4066024E+03  0.7818608E-02  0.1041564E+00
         21   -1    0    0  503  502  0.00000000000E+00  0.00000000000E+00  0.28892361804E+03  0.28892361804E+03  0.00000000000E+00 0.  1.
         21   -1    0    0  501  503 -0.00000000000E+00 -0.00000000000E+00 -0.78317470882E+03  0.78317470882E+03  0.00000000000E+00 0.  1.
    9000007    2    1    2  501    0 -0.37322673115E+02  0.62709986670E+02 -0.52572532128E+03  0.66427955395E+03  0.39944297215E+03 0.  0.
    9000005    1    3    3    0    0 -0.96199903593E+02  0.14304594686E+03 -0.53704755060E+03  0.56403691010E+03  0.99999687468E+00 0.  0.
          4    1    3    3  501    0  0.58877230478E+02 -0.80335960185E+02  0.11322229317E+02  0.10024264384E+03  0.00000000000E+00 0.  1.
   -9000007    1    1    2    0  502  0.37322673115E+02 -0.62709986670E+02  0.31474230499E+02  0.40781877292E+03  0.40000000000E+03 0. -1.
<mgrwt>
<rscale>  2 0.40646535E+03</rscale>
<asrwt>0</asrwt>
<pdfrwt beam="1">  1       21 0.44449787E-01 0.40660242E+03</pdfrwt>
<pdfrwt beam="2">  1       21 0.12048842E+00 0.40660242E+03</pdfrwt>
<totfact> 0.22283881E+03</totfact>
</mgrwt>
</event>
<event>
 6    1  0.9399121E-004  0.4124239E+03  0.7818608E-02  0.1039575E+00
         21   -1    0    0  503  502  0.00000000000E+00  0.00000000000E+00  0.34704978789E+03  0.34704978789E+03  0.00000000000E+00 0. -1.
         21   -1    0    0  501  503 -0.00000000000E+00 -0.00000000000E+00 -0.13116583185E+04  0.13116583185E+04  0.00000000000E+00 0. -1.
    9000007    2    1    2  501    0  0.45691054158E+02  0.89475306164E+02 -0.11387131963E+04  0.12110408891E+04  0.39982344724E+03 0.  0.
    9000005    1    3    3    0    0 -0.12889954225E+03  0.68031689146E+02 -0.91459467683E+03  0.92613596496E+03  0.99999687468E+00 0.  0.
          4    1    3    3  501    0  0.17459059640E+03  0.21443617018E+02 -0.22411851943E+03  0.28490492417E+03  0.00000000000E+00 0.  1.
   -9000007    1    1    2    0  502 -0.45691054158E+02 -0.89475306164E+02  0.17410466562E+03  0.44766721729E+03  0.40000000000E+03 0. -1.
<mgrwt>
<rscale>  2 0.41238112E+03</rscale>
<asrwt>0</asrwt>
<pdfrwt beam="1">  1       21 0.53392275E-01 0.41242394E+03</pdfrwt>
<pdfrwt beam="2">  1       21 0.20179359E+00 0.41242394E+03</pdfrwt>
<totfact> 0.36207573E+02</totfact>
</mgrwt>
</event>
<event>
 6    1  0.9399121E-004  0.4546135E+03  0.7818608E-02  0.1026516E+00
         21   -1    0    0  503  502  0.00000000000E+00  0.00000000000E+00  0.74521381028E+03  0.74521381028E+03  0.00000000000E+00 0.  1.
         21   -1    0    0  501  503 -0.00000000000E+00 -0.00000000000E+00 -0.27874337956E+03  0.27874337956E+03  0.00000000000E+00 0. -1.
    9000007    2    1    2  501    0 -0.10854312671E+03  0.18142546655E+03  0.18305977588E+03  0.49008603540E+03  0.40246320363E+03 0.  0.
    9000005    1    3    3    0    0 -0.25749221813E+03  0.15259379513E+03  0.91955357590E+02  0.31311962010E+03  0.99999687468E+00 0.  0.
          4    1    3    3  501    0  0.14894909142E+03  0.28831671412E+02  0.91104418288E+02  0.17696641529E+03  0.00000000000E+00 0.  1.
   -9000007    1    1    2    0  502  0.10854312671E+03 -0.18142546655E+03  0.28341065485E+03  0.53387115445E+03  0.40000000000E+03 0.  1.
<mgrwt>
<rscale>  2 0.45406773E+03</rscale>
<asrwt>0</asrwt>
<pdfrwt beam="1">  1       21 0.11464828E+00 0.45461351E+03</pdfrwt>
<pdfrwt beam="2">  1       21 0.42883597E-01 0.45461351E+03</pdfrwt>
<totfact> 0.26707877E+03</totfact>
</mgrwt>
</event>
<event>
 6    1  0.9399121E-004  0.4439210E+03  0.7818608E-02  0.1029672E+00
         21   -1    0    0  503  502  0.00000000000E+00  0.00000000000E+00  0.79844704514E+03  0.79844704514E+03  0.00000000000E+00 0.  1.
         21   -1    0    0  501  503 -0.00000000000E+00 -0.00000000000E+00 -0.55613105092E+03  0.55613105092E+03  0.00000000000E+00 0.  1.
    9000007    2    1    2  501    0  0.92793709087E+02 -0.16868659564E+03 -0.38477794586E+03  0.58626003062E+03  0.39822219411E+03 0.  0.
    9000005    1    3    3    0    0  0.15656862914E+03  0.86645192779E+02 -0.14719163779E+03  0.23170563932E+03  0.99999687468E+00 0.  0.
          4    1    3    3  501    0 -0.63774920058E+02 -0.25533178841E+03 -0.23758630807E+03  0.35455439130E+03  0.00000000000E+00 0.  1.
   -9000007    1    1    2    0  502 -0.92793709087E+02  0.16868659564E+03  0.62709394008E+03  0.76831806544E+03  0.40000000000E+03 0.  1.
<mgrwt>
<rscale>  2 0.44352013E+03</rscale>
<asrwt>0</asrwt>
<pdfrwt beam="1">  1       21 0.12283801E+00 0.44392098E+03</pdfrwt>
<pdfrwt beam="2">  1       21 0.85558623E-01 0.44392098E+03</pdfrwt>
<totfact> 0.49291716E+02</totfact>
</mgrwt>
</event>
<event>
 6    1  0.9399121E-004  0.4517306E+03  0.7818608E-02  0.1027211E+00
         21   -1    0    0  503  502  0.00000000000E+00  0.00000000000E+00  0.18032548811E+03  0.18032548811E+03  0.00000000000E+00 0.  1.
         21   -1    0    0  501  503 -0.00000000000E+00 -0.00000000000E+00 -0.12578591765E+04  0.12578591765E+04  0.00000000000E+00 0.  1.
    9000007    2    1    2  501    0 -0.12920877868E+03  0.16542556352E+03 -0.76666543502E+03  0.88982383769E+03  0.39993755428E+03 0.  0.
    9000005    1    3    3    0    0  0.82965289245E+02 -0.82733752582E+02 -0.13492740948E+03  0.17870231912E+03  0.99999687468E+00 0.  0.
          4    1    3    3  501    0 -0.21217406792E+03  0.24815931611E+03 -0.63173802554E+03  0.71112151857E+03  0.00000000000E+00 0.  1.
   -9000007    1    1    2    0  502  0.12920877868E+03 -0.16542556352E+03 -0.31086825340E+03  0.54836082694E+03  0.40000000000E+03 0.  1.
<mgrwt>
<rscale>  2 0.45171677E+03</rscale>
<asrwt>0</asrwt>
<pdfrwt beam="1">  1       21 0.27742382E-01 0.45173059E+03</pdfrwt>
<pdfrwt beam="2">  1       21 0.19351680E+00 0.45173059E+03</pdfrwt>
<totfact> 0.15452765E+03</totfact>
</mgrwt>
</event>
<event>
 6    1  0.9399121E-004  0.5939076E+03  0.7818608E-02  0.9918339E-01
         21   -1    0    0  503  502  0.00000000000E+00  0.00000000000E+00  0.38476690401E+03  0.38476690401E+03  0.00000000000E+00 0.  1.
         21   -1    0    0  501  503 -0.00000000000E+00 -0.00000000000E+00 -0.97066072766E+03  0.97066072766E+03  0.00000000000E+00 0. -1.
    9000007    2    1    2  501    0 -0.18492153916E+03 -0.39815855552E+03 -0.45352133127E+03  0.74694699294E+03  0.39940205477E+03 0.  0.
    9000005    1    3    3    0    0  0.10194848739E+03 -0.53825624418E+02 -0.20313953368E+03  0.23357517433E+03  0.99999687468E+00 0.  0.
          4    1    3    3  501    0 -0.28687002655E+03 -0.34433293110E+03 -0.25038179759E+03  0.51337181861E+03  0.00000000000E+00 0.  1.
   -9000007    1    1    2    0  502  0.18492153916E+03  0.39815855552E+03 -0.13237249238E+03  0.60848063874E+03  0.40000000000E+03 0.  1.
<mgrwt>
<rscale>  2 0.59380691E+03</rscale>
<asrwt>0</asrwt>
<pdfrwt beam="1">  1       21 0.59194909E-01 0.59390758E+03</pdfrwt>
<pdfrwt beam="2">  1       21 0.14933242E+00 0.59390758E+03</pdfrwt>
<totfact> 0.63960246E+02</totfact>
</mgrwt>
</event>
<event>
 6    1  0.9399121E-004  0.4428505E+03  0.7818608E-02  0.1029891E+00
         21   -1    0    0  503  502  0.00000000000E+00  0.00000000000E+00  0.18624305188E+04  0.18624305188E+04  0.00000000000E+00 0.  1.
         21   -1    0    0  501  503 -0.00000000000E+00 -0.00000000000E+00 -0.13073602789E+03  0.13073602789E+03  0.00000000000E+00 0. -1.
    9000007    2    1    2  501    0 -0.17480761030E+03 -0.73384077698E+02  0.42602843710E+03  0.61450532380E+03  0.40021699148E+03 0.  0.
    9000005    1    3    3    0    0  0.79418315009E+02  0.30794361296E+02 -0.22871179187E+02  0.88202337144E+02  0.99999687468E+00 0.  0.
          4    1    3    3  501    0 -0.25422592531E+03 -0.10417843899E+03  0.44889961629E+03  0.52630298665E+03  0.00000000000E+00 0.  1.
   -9000007    1    1    2    0  502  0.17480761030E+03  0.73384077698E+02  0.13056660538E+04  0.13786612229E+04  0.40000000000E+03 0.  1.
<mgrwt>
<rscale>  2 0.44280147E+03</rscale>
<asrwt>0</asrwt>
<pdfrwt beam="1">  1       21 0.28652775E+00 0.44285050E+03</pdfrwt>
<pdfrwt beam="2">  1       21 0.20113236E-01 0.44285050E+03</pdfrwt>
<totfact> 0.75509130E+02</totfact>
</mgrwt>
</event>
<event>
 6    1  0.9399121E-004  0.4092743E+03  0.7818608E-02  0.1040642E+00
         21   -1    0    0  503  502  0.00000000000E+00  0.00000000000E+00  0.25350448794E+03  0.25350448794E+03  0.00000000000E+00 0. -1.
         21   -1    0    0  501  503 -0.00000000000E+00 -0.00000000000E+00 -0.69372861685E+03  0.69372861685E+03  0.00000000000E+00 0. -1.
    9000007    2    1    2  501    0  0.74635461888E+02  0.40888581436E+02 -0.32425336820E+03  0.52215482306E+03  0.40032872017E+03 0.  0.
    9000005    1    3    3    0    0  0.12069866555E+03 -0.31032282154E+02 -0.39314482722E+03  0.41242578189E+03  0.99999687468E+00 0.  0.
          4    1    3    3  501    0 -0.46063203661E+02  0.71920863590E+02  0.68891459019E+02  0.10972904117E+03  0.00000000000E+00 0.  1.
   -9000007    1    1    2    0  502 -0.74635461888E+02 -0.40888581436E+02 -0.11597076070E+03  0.42507828173E+03  0.40000000000E+03 0. -1.
<mgrwt>
<rscale>  2 0.40919384E+03</rscale>
<asrwt>0</asrwt>
<pdfrwt beam="1">  1       21 0.39000692E-01 0.40927425E+03</pdfrwt>
<pdfrwt beam="2">  1       21 0.10672748E+00 0.40927425E+03</pdfrwt>
<totfact> 0.39464894E+03</totfact>
</mgrwt>
</event>
<event>
 6    1  0.9399121E-004  0.4138883E+03  0.7818608E-02  0.1039104E+00
         21   -1    0    0  503  502  0.00000000000E+00  0.00000000000E+00  0.23392530393E+03  0.23392530393E+03  0.00000000000E+00 0. -1.
         21   -1    0    0  501  503 -0.00000000000E+00 -0.00000000000E+00 -0.10239203751E+04  0.10239203751E+04  0.00000000000E+00 0. -1.
    9000007    2    1    2  501    0  0.60563820178E+02  0.87381632853E+02 -0.73088428513E+03  0.83975763675E+03  0.39962172632E+03 0.  0.
    9000005    1    3    3    0    0  0.36442253271E+02  0.18940263291E+03 -0.70618743603E+03  0.73205402121E+03  0.99999687468E+00 0.  0.
          4    1    3    3  501    0  0.24121566907E+02 -0.10202100006E+03 -0.24696849104E+02  0.10770361553E+03  0.00000000000E+00 0.  1.
   -9000007    1    1    2    0  502 -0.60563820178E+02 -0.87381632853E+02 -0.59110786032E+02  0.41808804228E+03  0.40000000000E+03 0. -1.
<mgrwt>
<rscale>  2 0.41379688E+03</rscale>
<asrwt>0</asrwt>
<pdfrwt beam="1">  1       21 0.35988508E-01 0.41388830E+03</pdfrwt>
<pdfrwt beam="2">  1       21 0.15752621E+00 0.41388830E+03</pdfrwt>
<totfact> 0.16902815E+03</totfact>
</mgrwt>
</event>
<event>
 6    1  0.9399121E-004  0.4351253E+03  0.7818608E-02  0.1032268E+00
         21   -1    0    0  503  502  0.00000000000E+00  0.00000000000E+00  0.38595066275E+03  0.38595066275E+03  0.00000000000E+00 0.  1.
         21   -1    0    0  501  503 -0.00000000000E+00 -0.00000000000E+00 -0.49035403498E+03  0.49035403498E+03  0.00000000000E+00 0. -1.
    9000007    2    1    2  501    0  0.16771629074E+03 -0.34717352472E+02 -0.52188741801E+02  0.43805771671E+03  0.39979601005E+03 0.  0.
    9000005    1    3    3    0    0  0.15528538845E+03  0.66297987589E+02  0.14081613673E+03  0.21986168238E+03  0.99999687468E+00 0.  0.
          4    1    3    3  501    0  0.12430902295E+02 -0.10101534006E+03 -0.19300487853E+03  0.21819603433E+03  0.00000000000E+00 0.  1.
   -9000007    1    1    2    0  502 -0.16771629074E+03  0.34717352472E+02 -0.52214630427E+02  0.43824698102E+03  0.40000000000E+03 0.  1.
<mgrwt>
<rscale>  2 0.43507844E+03</rscale>
<asrwt>0</asrwt>
<pdfrwt beam="1">  1       21 0.59377025E-01 0.43512533E+03</pdfrwt>
<pdfrwt beam="2">  1       21 0.75439082E-01 0.43512533E+03</pdfrwt>
<totfact> 0.36546871E+03</totfact>
</mgrwt>
</event>
<event>
 6    1  0.9399121E-004  0.7977529E+03  0.7818608E-02  0.9563322E-01
         21   -1    0    0  503  502  0.00000000000E+00  0.00000000000E+00  0.45221952029E+03  0.45221952029E+03  0.00000000000E+00 0. -1.
         21   -1    0    0  501  503 -0.00000000000E+00 -0.00000000000E+00 -0.15979728460E+04  0.15979728460E+04  0.00000000000E+00 0.  1.
    9000007    2    1    2  501    0 -0.49276952085E+03 -0.48330929395E+03 -0.21852705385E+03  0.82701689502E+03  0.39974141277E+03 0.  0.
    9000005    1    3    3    0    0  0.78009151098E+01 -0.19246372408E+03  0.33658388249E+02  0.19554290183E+03  0.99999687468E+00 0.  0.
          4    1    3    3  501    0 -0.50057043596E+03 -0.29084556987E+03 -0.25218544210E+03  0.63147399319E+03  0.00000000000E+00 0.  1.
   -9000007    1    1    2    0  502  0.49276952085E+03  0.48330929395E+03 -0.92722627189E+03  0.12231754713E+04  0.40000000000E+03 0.  1.
<mgrwt>
<rscale>  2 0.79772048E+03</rscale>
<asrwt>0</asrwt>
<pdfrwt beam="1">  1       21 0.69572234E-01 0.79775289E+03</pdfrwt>
<pdfrwt beam="2">  1       21 0.24584198E+00 0.79775289E+03</pdfrwt>
<totfact> 0.89362448E+01</totfact>
</mgrwt>
</event>
<event>
 6    1  0.9399121E-004  0.4173842E+03  0.7818608E-02  0.1037965E+00
         21   -1    0    0  503  502  0.00000000000E+00  0.00000000000E+00  0.62054165970E+03  0.62054165970E+03  0.00000000000E+00 0.  1.
         21   -1    0    0  501  503 -0.00000000000E+00 -0.00000000000E+00 -0.10425315401E+04  0.10425315401E+04  0.00000000000E+00 0.  1.
    9000007    2    1    2  501    0  0.43484867249E+02  0.10896996829E+03 -0.92201125004E+03  0.10120841387E+04  0.40055482878E+03 0.  0.
    9000005    1    3    3    0    0 -0.43046709779E+02 -0.76025723302E+02 -0.23253800968E+02  0.90413876587E+02  0.99999687468E+00 0.  0.
          4    1    3    3  501    0  0.86531577028E+02  0.18499569159E+03 -0.89875744908E+03  0.92167026208E+03  0.00000000000E+00 0.  1.
   -9000007    1    1    2    0  502 -0.43484867249E+02 -0.10896996829E+03  0.50002136963E+03  0.65098906116E+03  0.40000000000E+03 0.  1.
<mgrwt>
<rscale>  2 0.41725101E+03</rscale>
<asrwt>0</asrwt>
<pdfrwt beam="1">  1       21 0.95467949E-01 0.41738419E+03</pdfrwt>
<pdfrwt beam="2">  1       21 0.16038947E+00 0.41738419E+03</pdfrwt>
<totfact> 0.18963209E+02</totfact>
</mgrwt>
</event>
<event>
 6    1  0.9399121E-004  0.4601780E+03  0.7818608E-02  0.1024781E+00
         21   -1    0    0  503  502  0.00000000000E+00  0.00000000000E+00  0.23520580189E+03  0.23520580189E+03  0.00000000000E+00 0. -1.
         21   -1    0    0  501  503 -0.00000000000E+00 -0.00000000000E+00 -0.10713438370E+04  0.10713438370E+04  0.00000000000E+00 0. -1.
    9000007    2    1    2  501    0  0.15287440465E+03  0.16850290456E+03 -0.67984956186E+03  0.82055591533E+03  0.39919014390E+03 0.  0.
    9000005    1    3    3    0    0  0.12624980653E+03  0.26737991091E+03 -0.27795523789E+03  0.40582156753E+03  0.99999687468E+00 0.  0.
          4    1    3    3  501    0  0.26624598114E+02 -0.98877006352E+02 -0.40189432397E+03  0.41473434780E+03  0.00000000000E+00 0.  1.
   -9000007    1    1    2    0  502 -0.15287440465E+03 -0.16850290456E+03 -0.15628847322E+03  0.48599372352E+03  0.40000000000E+03 0. -1.
<mgrwt>
<rscale>  2 0.46000198E+03</rscale>
<asrwt>0</asrwt>
<pdfrwt beam="1">  1       21 0.36185508E-01 0.46017802E+03</pdfrwt>
<pdfrwt beam="2">  1       21 0.16482213E+00 0.46017802E+03</pdfrwt>
<totfact> 0.14445002E+03</totfact>
</mgrwt>
</event>
<event>
 6    1  0.9399121E-004  0.4400338E+03  0.7818608E-02  0.1030781E+00
         21   -1    0    0  503  502  0.00000000000E+00  0.00000000000E+00  0.65807716334E+03  0.65807716334E+03  0.00000000000E+00 0. -1.
         21   -1    0    0  501  503 -0.00000000000E+00 -0.00000000000E+00 -0.44391907551E+03  0.44391907551E+03  0.00000000000E+00 0. -1.
    9000007    2    1    2  501    0 -0.13289108287E+03  0.12637123947E+03 -0.21333133747E+03  0.48850056746E+03  0.39936551528E+03 0.  0.
    9000005    1    3    3    0    0 -0.14958167186E+03 -0.26569938906E+02 -0.28176775843E+03  0.32011670981E+03  0.99999687468E+00 0.  0.
          4    1    3    3  501    0  0.16690588993E+02  0.15294117837E+03  0.68436420967E+02  0.16838385765E+03  0.00000000000E+00 0.  1.
   -9000007    1    1    2    0  502  0.13289108287E+03 -0.12637123947E+03  0.42748942530E+03  0.61349567139E+03  0.40000000000E+03 0. -1.
<mgrwt>
<rscale>  2 0.43988954E+03</rscale>
<asrwt>0</asrwt>
<pdfrwt beam="1">  1       21 0.10124264E+00 0.44003378E+03</pdfrwt>
<pdfrwt beam="2">  1       21 0.68295243E-01 0.44003378E+03</pdfrwt>
<totfact> 0.13391017E+03</totfact>
</mgrwt>
</event>
<event>
 6    1  0.9399121E-004  0.4230841E+03  0.7818608E-02  0.1036074E+00
         21   -1    0    0  503  502  0.00000000000E+00  0.00000000000E+00  0.61422788860E+03  0.61422788860E+03  0.00000000000E+00 0. -1.
         21   -1    0    0  501  503 -0.00000000000E+00 -0.00000000000E+00 -0.84146521384E+03  0.84146521384E+03  0.00000000000E+00 0. -1.
    9000007    2    1    2  501    0  0.71490513412E+02  0.11785285897E+03 -0.70211048481E+03  0.81968625691E+03  0.39990778562E+03 0.  0.
    9000005    1    3    3    0    0  0.69996614700E+02 -0.29015608916E+02 -0.66350903612E+03  0.66782233613E+03  0.99999687468E+00 0.  0.
          4    1    3    3  501    0  0.14938987123E+01  0.14686846788E+03 -0.38601448691E+02  0.15186392077E+03  0.00000000000E+00 0.  1.
   -9000007    1    1    2    0  502 -0.71490513412E+02 -0.11785285897E+03  0.47487315958E+03  0.63600684553E+03  0.40000000000E+03 0. -1.
<mgrwt>
<rscale>  2 0.42306234E+03</rscale>
<asrwt>0</asrwt>
<pdfrwt beam="1">  1       21 0.94496599E-01 0.42308414E+03</pdfrwt>
<pdfrwt beam="2">  1       21 0.12945619E+00 0.42308414E+03</pdfrwt>
<totfact> 0.34386446E+02</totfact>
</mgrwt>
</event>
<event>
 6    1  0.9399121E-004  0.6962880E+03  0.7818608E-02  0.9723671E-01
         21   -1    0    0  503  502  0.00000000000E+00  0.00000000000E+00  0.59302402439E+03  0.59302402439E+03  0.00000000000E+00 0.  1.
         21   -1    0    0  501  503 -0.00000000000E+00 -0.00000000000E+00 -0.10698559105E+04  0.10698559105E+04  0.00000000000E+00 0. -1.
    9000007    2    1    2  501    0 -0.56451645726E+03 -0.76902096575E+02 -0.64236955330E+03  0.94734133895E+03  0.40028016002E+03 0.  0.
    9000005    1    3    3    0    0 -0.30573659844E+03 -0.44242704049E+02 -0.61096482648E+03  0.68462493649E+03  0.99999687468E+00 0.  0.
          4    1    3    3  501    0 -0.25877985882E+03 -0.32659392526E+02 -0.31404726822E+02  0.26271640246E+03  0.00000000000E+00 0.  1.
   -9000007    1    1    2    0  502  0.56451645726E+03  0.76902096575E+02  0.16553766721E+03  0.71553859591E+03  0.40000000000E+03 0. -1.
<mgrwt>
<rscale>  2 0.69624773E+03</rscale>
<asrwt>0</asrwt>
<pdfrwt beam="1">  1       21 0.91234465E-01 0.69628799E+03</pdfrwt>
<pdfrwt beam="2">  1       21 0.16459322E+00 0.69628799E+03</pdfrwt>
<totfact> 0.17461941E+02</totfact>
</mgrwt>
</event>
<event>
 6    1  0.9399121E-004  0.4581409E+03  0.7818608E-02  0.1025335E+00
         21   -1    0    0  503  502  0.00000000000E+00  0.00000000000E+00  0.22876698670E+03  0.22876698670E+03  0.00000000000E+00 0.  1.
         21   -1    0    0  501  503 -0.00000000000E+00 -0.00000000000E+00 -0.13774371435E+04  0.13774371435E+04  0.00000000000E+00 0.  1.
    9000007    2    1    2  501    0 -0.22246217693E+03  0.20091773313E+02 -0.10385177479E+04  0.11350070878E+04  0.39978603923E+03 0.  0.
    9000005    1    3    3    0    0 -0.21975588515E+03 -0.14542409288E+03 -0.42953762957E+03  0.50392895438E+03  0.99999687468E+00 0.  0.
          4    1    3    3  501    0 -0.27062917761E+01  0.16551586619E+03 -0.60898011836E+03  0.63107813346E+03  0.00000000000E+00 0.  1.
   -9000007    1    1    2    0  502  0.22246217693E+03 -0.20091773313E+02 -0.11015240884E+03  0.47119704232E+03  0.40000000000E+03 0.  1.
<mgrwt>
<rscale>  2 0.45809421E+03</rscale>
<asrwt>0</asrwt>
<pdfrwt beam="1">  1       21 0.35194922E-01 0.45814092E+03</pdfrwt>
<pdfrwt beam="2">  1       21 0.21191340E+00 0.45814092E+03</pdfrwt>
<totfact> 0.72333176E+02</totfact>
</mgrwt>
</event>
<event>
 6    1  0.9399121E-004  0.4088832E+03  0.7818608E-02  0.1040777E+00
         21   -1    0    0  503  502  0.00000000000E+00  0.00000000000E+00  0.62756468137E+03  0.62756468137E+03  0.00000000000E+00 0. -1.
         21   -1    0    0  501  503 -0.00000000000E+00 -0.00000000000E+00 -0.56291930571E+03  0.56291930571E+03  0.00000000000E+00 0. -1.
    9000007    2    1    2  501    0 -0.61882790590E+02 -0.55330298056E+02 -0.39985205886E+03  0.57189786670E+03  0.40036805480E+03 0.  0.
    9000005    1    3    3    0    0 -0.31500827501E+02  0.11540522023E+03 -0.37875822986E+03  0.39720204389E+03  0.99999687468E+00 0.  0.
          4    1    3    3  501    0 -0.30381963089E+02 -0.17073551828E+03 -0.21093829001E+02  0.17469582281E+03  0.00000000000E+00 0.  1.
   -9000007    1    1    2    0  502  0.61882790590E+02  0.55330298056E+02  0.46449743452E+03  0.61858612039E+03  0.40000000000E+03 0. -1.
<mgrwt>
<rscale>  2 0.40879311E+03</rscale>
<asrwt>0</asrwt>
<pdfrwt beam="1">  1       21 0.96548413E-01 0.40888324E+03</pdfrwt>
<pdfrwt beam="2">  1       21 0.86602970E-01 0.40888324E+03</pdfrwt>
<totfact> 0.88370835E+02</totfact>
</mgrwt>
</event>
<event>
 6    1  0.9399121E-004  0.4516186E+03  0.7818608E-02  0.1027310E+00
         21   -1    0    0  503  502  0.00000000000E+00  0.00000000000E+00  0.15178683584E+04  0.15178683584E+04  0.00000000000E+00 0.  1.
         21   -1    0    0  501  503 -0.00000000000E+00 -0.00000000000E+00 -0.19085034871E+03  0.19085034871E+03  0.00000000000E+00 0.  1.
    9000007    2    1    2  501    0  0.10119622997E+03 -0.18129802908E+03  0.19807900444E+03  0.49314767674E+03  0.40106070210E+03 0.  0.
    9000005    1    3    3    0    0  0.17371313349E+03 -0.23736592137E+02  0.25599920883E+03  0.31028418179E+03  0.99999687468E+00 0.  0.
          4    1    3    3  501    0 -0.72516903528E+02 -0.15756143695E+03 -0.57920204387E+02  0.18286349495E+03  0.00000000000E+00 0.  1.
   -9000007    1    1    2    0  502 -0.10119622997E+03  0.18129802908E+03  0.11289390053E+04  0.12155710304E+04  0.40000000000E+03 0.  1.
<mgrwt>
<rscale>  2 0.45138297E+03</rscale>
<asrwt>0</asrwt>
<pdfrwt beam="1">  1       21 0.23351820E+00 0.45161858E+03</pdfrwt>
<pdfrwt beam="2">  1       21 0.29361593E-01 0.45161858E+03</pdfrwt>
<totfact> 0.75982961E+02</totfact>
</mgrwt>
</event>
<event>
 6    1  0.9399121E-004  0.4721417E+03  0.7818608E-02  0.1021368E+00
         21   -1    0    0  503  502  0.00000000000E+00  0.00000000000E+00  0.49622386958E+03  0.49622386958E+03  0.00000000000E+00 0.  1.
         21   -1    0    0  501  503 -0.00000000000E+00 -0.00000000000E+00 -0.46053455757E+03  0.46053455757E+03  0.00000000000E+00 0.  1.
    9000007    2    1    2  501    0  0.25044556788E+03 -0.13957416261E+02  0.95041721335E+02  0.48090077991E+03  0.39914263037E+03 0.  0.
    9000005    1    3    3    0    0 -0.96633705572E+02 -0.67887239080E+02  0.43689145777E+02  0.12592256245E+03  0.99999687468E+00 0.  0.
          4    1    3    3  501    0  0.34707927345E+03  0.53929822819E+02  0.51352575558E+02  0.35497821745E+03  0.00000000000E+00 0.  1.
   -9000007    1    1    2    0  502 -0.25044556788E+03  0.13957416261E+02 -0.59352409323E+02  0.47585764724E+03  0.40000000000E+03 0.  1.
<mgrwt>
<rscale>  2 0.47196007E+03</rscale>
<asrwt>0</asrwt>
<pdfrwt beam="1">  1       21 0.76342133E-01 0.47214171E+03</pdfrwt>
<pdfrwt beam="2">  1       21 0.70851471E-01 0.47214171E+03</pdfrwt>
<totfact> 0.23706214E+03</totfact>
</mgrwt>
</event>
<event>
 6    1  0.9399121E-004  0.4565603E+03  0.7818608E-02  0.1025833E+00
         21   -1    0    0  503  502  0.00000000000E+00  0.00000000000E+00  0.12312715112E+04  0.12312715112E+04  0.00000000000E+00 0.  1.
         21   -1    0    0  501  503 -0.00000000000E+00 -0.00000000000E+00 -0.17306592744E+03  0.17306592744E+03  0.00000000000E+00 0.  1.
    9000007    2    1    2  501    0  0.13797921218E+03 -0.16968208694E+03  0.42244029341E+03  0.62201539625E+03  0.40077060528E+03 0.  0.
    9000005    1    3    3    0    0 -0.11194870733E+03 -0.10003768653E+03  0.32445000845E+02  0.15360250607E+03  0.99999687468E+00 0.  0.
          4    1    3    3  501    0  0.24992791951E+03 -0.69644400409E+02  0.38999529257E+03  0.46841289018E+03  0.00000000000E+00 0.  1.
   -9000007    1    1    2    0  502 -0.13797921218E+03  0.16968208694E+03  0.63576529038E+03  0.78232204243E+03  0.40000000000E+03 0.  1.
<mgrwt>
<rscale>  2 0.45639118E+03</rscale>
<asrwt>0</asrwt>
<pdfrwt beam="1">  1       21 0.18942638E+00 0.45656035E+03</pdfrwt>
<pdfrwt beam="2">  1       21 0.26625528E-01 0.45656035E+03</pdfrwt>
<totfact> 0.17825849E+03</totfact>
</mgrwt>
</event>
<event>
 6    1  0.9399121E-004  0.5899741E+03  0.7818608E-02  0.9927174E-01
         21   -1    0    0  503  502  0.00000000000E+00  0.00000000000E+00  0.91250258081E+03  0.91250258081E+03  0.00000000000E+00 0. -1.
         21   -1    0    0  501  503 -0.00000000000E+00 -0.00000000000E+00 -0.39987807079E+03  0.39987807079E+03  0.00000000000E+00 0. -1.
    9000007    2    1    2  501    0  0.10003371555E+03 -0.42000433670E+03  0.40092331095E+03  0.71330841475E+03  0.40206840985E+03 0.  0.
    9000005    1    3    3    0    0  0.21222156595E+03 -0.10799867125E+03  0.26136059081E+03  0.35357045192E+03  0.99999687468E+00 0.  0.
          4    1    3    3  501    0 -0.11218785039E+03 -0.31200566545E+03  0.13956272013E+03  0.35973796283E+03  0.00000000000E+00 0.  1.
   -9000007    1    1    2    0  502 -0.10003371555E+03  0.42000433670E+03  0.11170119907E+03  0.59907223685E+03  0.40000000000E+03 0. -1.
<mgrwt>
<rscale>  2 0.58962183E+03</rscale>
<asrwt>0</asrwt>
<pdfrwt beam="1">  1       21 0.14038501E+00 0.58997406E+03</pdfrwt>
<pdfrwt beam="2">  1       21 0.61519703E-01 0.58997406E+03</pdfrwt>
<totfact> 0.69554489E+02</totfact>
</mgrwt>
</event>
<event>
 6    1  0.9399121E-004  0.5464792E+03  0.7818608E-02  0.1002326E+00
         21   -1    0    0  503  502  0.00000000000E+00  0.00000000000E+00  0.11563897985E+04  0.11563897985E+04  0.00000000000E+00 0.  1.
         21   -1    0    0  501  503 -0.00000000000E+00 -0.00000000000E+00 -0.25944717081E+03  0.25944717081E+03  0.00000000000E+00 0. -1.
    9000007    2    1    2  501    0 -0.22581490499E+03 -0.29605251568E+03  0.39808204108E+03  0.67590362891E+03  0.39967104072E+03 0.  0.
    9000005    1    3    3    0    0 -0.30370554139E+03 -0.34072309755E+03  0.33075759731E+03  0.56367621313E+03  0.99999687468E+00 0.  0.
          4    1    3    3  501    0  0.77890636398E+02  0.44670581877E+02  0.67324443769E+02  0.11222741578E+03  0.00000000000E+00 0.  1.
   -9000007    1    1    2    0  502  0.22581490499E+03  0.29605251568E+03  0.49886058662E+03  0.73993334040E+03  0.40000000000E+03 0. -1.
<mgrwt>
<rscale>  2 0.54641896E+03</rscale>
<asrwt>0</asrwt>
<pdfrwt beam="1">  1       21 0.17790612E+00 0.54647915E+03</pdfrwt>
<pdfrwt beam="2">  1       21 0.39914950E-01 0.54647915E+03</pdfrwt>
<totfact> 0.91774660E+02</totfact>
</mgrwt>
</event>
<event>
 6    1  0.9399121E-004  0.4419020E+03  0.7818608E-02  0.1030187E+00
         21   -1    0    0  503  502  0.00000000000E+00  0.00000000000E+00  0.17489457103E+04  0.17489457103E+04  0.00000000000E+00 0. -1.
         21   -1    0    0  501  503 -0.00000000000E+00 -0.00000000000E+00 -0.12416288579E+03  0.12416288579E+03  0.00000000000E+00 0. -1.
    9000007    2    1    2  501    0  0.18431240715E+03  0.32328010917E+02  0.51448680362E+03  0.67821386528E+03  0.40032638214E+03 0.  0.
    9000005    1    3    3    0    0  0.17596835091E+03 -0.92285729065E+02  0.61016816086E+02  0.20785949136E+03  0.99999687468E+00 0.  0.
          4    1    3    3  501    0  0.83440562419E+01  0.12461373998E+03  0.45346998754E+03  0.47035437392E+03  0.00000000000E+00 0.  1.
   -9000007    1    1    2    0  502 -0.18431240715E+03 -0.32328010917E+02  0.11102960209E+04  0.11948947308E+04  0.40000000000E+03 0. -1.
<mgrwt>
<rscale>  2 0.44182807E+03</rscale>
<asrwt>0</asrwt>
<pdfrwt beam="1">  1       21 0.26906855E+00 0.44190200E+03</pdfrwt>
<pdfrwt beam="2">  1       21 0.19101984E-01 0.44190200E+03</pdfrwt>
<totfact> 0.10617747E+03</totfact>
</mgrwt>
</event>
<event>
 6    1  0.9399121E-004  0.4341604E+03  0.7818608E-02  0.1032554E+00
         21   -1    0    0  503  502  0.00000000000E+00  0.00000000000E+00  0.30343640424E+03  0.30343640424E+03  0.00000000000E+00 0. -1.
         21   -1    0    0  501  503 -0.00000000000E+00 -0.00000000000E+00 -0.11154193345E+04  0.11154193345E+04  0.00000000000E+00 0. -1.
    9000007    2    1    2  501    0  0.15653612509E+03 -0.63179562582E+02 -0.87821823384E+03  0.97967202891E+03  0.39999350293E+03 0.  0.
    9000005    1    3    3    0    0  0.24687574329E+03  0.81317792937E+02 -0.46544055541E+03  0.53310048461E+03  0.99999687468E+00 0.  0.
          4    1    3    3  501    0 -0.90339618197E+02 -0.14449735552E+03 -0.41277767843E+03  0.44657154430E+03  0.00000000000E+00 0.  1.
   -9000007    1    1    2    0  502 -0.15653612509E+03  0.63179562582E+02  0.66235303542E+02  0.43918370988E+03  0.40000000000E+03 0. -1.
<mgrwt>
<rscale>  2 0.43415886E+03</rscale>
<asrwt>0</asrwt>
<pdfrwt beam="1">  1       21 0.46682524E-01 0.43416036E+03</pdfrwt>
<pdfrwt beam="2">  1       21 0.17160297E+00 0.43416036E+03</pdfrwt>
<totfact> 0.76963974E+02</totfact>
</mgrwt>
</event>
<event>
 6    1  0.9399121E-004  0.5487945E+03  0.7818608E-02  0.1001813E+00
         21   -1    0    0  503  502  0.00000000000E+00  0.00000000000E+00  0.80986927315E+03  0.80986927315E+03  0.00000000000E+00 0.  1.
         21   -1    0    0  501  503 -0.00000000000E+00 -0.00000000000E+00 -0.37573692768E+03  0.37573692768E+03  0.00000000000E+00 0.  1.
    9000007    2    1    2  501    0 -0.28121305821E+03 -0.24918801072E+03  0.15342499749E+03  0.56918746003E+03  0.39907353459E+03 0.  0.
    9000005    1    3    3    0    0 -0.15821199025E+03  0.61574531004E+02 -0.51169376156E+02  0.17731824998E+03  0.99999687468E+00 0.  0.
          4    1    3    3  501    0 -0.12300106796E+03 -0.31076254172E+03  0.20459437365E+03  0.39186921005E+03  0.00000000000E+00 0.  1.
   -9000007    1    1    2    0  502  0.28121305821E+03  0.24918801072E+03  0.28070734797E+03  0.61641874079E+03  0.40000000000E+03 0.  1.
<mgrwt>
<rscale>  2 0.54862574E+03</rscale>
<asrwt>0</asrwt>
<pdfrwt beam="1">  1       21 0.12459527E+00 0.54879454E+03</pdfrwt>
<pdfrwt beam="2">  1       21 0.57805682E-01 0.54879454E+03</pdfrwt>
<totfact> 0.11067246E+03</totfact>
</mgrwt>
</event>
<event>
 6    1  0.9399121E-004  0.7259630E+03  0.7818608E-02  0.9674113E-01
         21   -1    0    0  503  502  0.00000000000E+00  0.00000000000E+00  0.86290115127E+03  0.86290115127E+03  0.00000000000E+00 0. -1.
         21   -1    0    0  501  503 -0.00000000000E+00 -0.00000000000E+00 -0.65542257893E+03  0.65542257893E+03  0.00000000000E+00 0.  1.
    9000007    2    1    2  501    0  0.29980939973E+03  0.52643760659E+03 -0.95758720716E+02  0.73157403322E+03  0.39875882898E+03 0.  0.
    9000005    1    3    3    0    0  0.20098944520E+03  0.27432241274E+03  0.14455939450E+03  0.36952396640E+03  0.99999687468E+00 0.  0.
          4    1    3    3  501    0  0.98819954528E+02  0.25211519384E+03 -0.24031811521E+03  0.36205006681E+03  0.00000000000E+00 0.  1.
   -9000007    1    1    2    0  502 -0.29980939973E+03 -0.52643760659E+03  0.30323729306E+03  0.78674969698E+03  0.40000000000E+03 0. -1.
<mgrwt>
<rscale>  2 0.72579212E+03</rscale>
<asrwt>0</asrwt>
<pdfrwt beam="1">  1       21 0.13275402E+00 0.72596297E+03</pdfrwt>
<pdfrwt beam="2">  1       21 0.10083424E+00 0.72596297E+03</pdfrwt>
<totfact> 0.24492874E+02</totfact>
</mgrwt>
</event>
<event>
 6    1  0.9399121E-004  0.4191463E+03  0.7818608E-02  0.1038303E+00
         21   -1    0    0  503  502  0.00000000000E+00  0.00000000000E+00  0.32184013034E+03  0.32184013034E+03  0.00000000000E+00 0. -1.
         21   -1    0    0  501  503 -0.00000000000E+00 -0.00000000000E+00 -0.75212933527E+03  0.75212933527E+03  0.00000000000E+00 0. -1.
    9000007    2    1    2  501    0  0.77240861499E+02 -0.12207595388E+02  0.73937814730E+02  0.42561766032E+03  0.41178685780E+03 0.  0.
    9000005    1    3    3    0    0 -0.74993896360E+01 -0.14986510695E+03  0.17842741932E+03  0.23313758831E+03  0.99999687468E+00 0.  0.
          4    1    3    3  501    0  0.84740251135E+02  0.13765751156E+03 -0.10448960459E+03  0.19248007200E+03  0.00000000000E+00 0.  1.
   -9000007    1    1    2    0  502 -0.77240861499E+02  0.12207595388E+02 -0.50422701966E+03  0.64835180529E+03  0.40000000000E+03 0. -1.
<mgrwt>
<rscale>  2 0.41622232E+03</rscale>
<asrwt>0</asrwt>
<pdfrwt beam="1">  1       21 0.49513866E-01 0.41914627E+03</pdfrwt>
<pdfrwt beam="2">  1       21 0.11571221E+00 0.41914627E+03</pdfrwt>
<totfact> 0.19561608E+03</totfact>
</mgrwt>
</event>
<event>
 6    1  0.9399121E-004  0.6475549E+03  0.7818608E-02  0.9811387E-01
         21   -1    0    0  503  502  0.00000000000E+00  0.00000000000E+00  0.78260346907E+03  0.78260346907E+03  0.00000000000E+00 0. -1.
         21   -1    0    0  501  503 -0.00000000000E+00 -0.00000000000E+00 -0.84458604758E+03  0.84458604758E+03  0.00000000000E+00 0.  1.
    9000007    2    1    2  501    0 -0.41156353738E+03 -0.29986379133E+03  0.46095562097E+03  0.79486313889E+03  0.40003060684E+03 0.  0.
    9000005    1    3    3    0    0 -0.11185366294E+03  0.57369330478E+02  0.25660827191E+03  0.28574689359E+03  0.99999687468E+00 0.  0.
          4    1    3    3  501    0 -0.29970987444E+03 -0.35723312181E+03  0.20434734906E+03  0.50911624529E+03  0.00000000000E+00 0.  1.
   -9000007    1    1    2    0  502  0.41156353738E+03  0.29986379133E+03 -0.52293819947E+03  0.83232637776E+03  0.40000000000E+03 0.  1.
<mgrwt>
<rscale>  2 0.64755016E+03</rscale>
<asrwt>0</asrwt>
<pdfrwt beam="1">  1       21 0.12040053E+00 0.64755488E+03</pdfrwt>
<pdfrwt beam="2">  1       21 0.12993631E+00 0.64755488E+03</pdfrwt>
<totfact> 0.17020121E+02</totfact>
</mgrwt>
</event>
<event>
 6    1  0.9399121E-004  0.4687712E+03  0.7818608E-02  0.1022271E+00
         21   -1    0    0  503  502  0.00000000000E+00  0.00000000000E+00  0.43445805035E+03  0.43445805035E+03  0.00000000000E+00 0.  1.
         21   -1    0    0  501  503 -0.00000000000E+00 -0.00000000000E+00 -0.52021362205E+03  0.52021362205E+03  0.00000000000E+00 0. -1.
    9000007    2    1    2  501    0  0.24072751958E+03 -0.42387023784E+02 -0.12247641084E+03  0.48446446435E+03  0.39994868113E+03 0.  0.
    9000005    1    3    3    0    0  0.25684306687E+03  0.82500311757E+02 -0.20068658299E+03  0.33623022920E+03  0.99999687468E+00 0.  0.
          4    1    3    3  501    0 -0.16115547294E+02 -0.12488733554E+03  0.78210172152E+02  0.14823423515E+03  0.00000000000E+00 0.  1.
   -9000007    1    1    2    0  502 -0.24072751958E+03  0.42387023784E+02  0.36720839138E+02  0.47020720804E+03  0.40000000000E+03 0. -1.
<mgrwt>
<rscale>  2 0.46876021E+03</rscale>
<asrwt>0</asrwt>
<pdfrwt beam="1">  1       21 0.66839700E-01 0.46877116E+03</pdfrwt>
<pdfrwt beam="2">  1       21 0.80032865E-01 0.46877116E+03</pdfrwt>
<totfact> 0.24269641E+03</totfact>
</mgrwt>
</event>
<event>
 6    1  0.9399121E-004  0.4122949E+03  0.7818608E-02  0.1039617E+00
         21   -1    0    0  503  502  0.00000000000E+00  0.00000000000E+00  0.47197180494E+03  0.47197180494E+03  0.00000000000E+00 0.  1.
         21   -1    0    0  501  503 -0.00000000000E+00 -0.00000000000E+00 -0.51366957945E+03  0.51366957945E+03  0.00000000000E+00 0. -1.
    9000007    2    1    2  501    0 -0.28795024171E+02 -0.95696899488E+02 -0.29037800524E+03  0.50415524010E+03  0.39983255271E+03 0.  0.
    9000005    1    3    3    0    0 -0.74186000642E+02  0.79233155389E+02 -0.30411949688E+03  0.32291039621E+03  0.99999687468E+00 0.  0.
          4    1    3    3  501    0  0.45390976472E+02 -0.17493005488E+03  0.13741491642E+02  0.18124484389E+03  0.00000000000E+00 0.  1.
   -9000007    1    1    2    0  502  0.28795024171E+02  0.95696899488E+02  0.24868023073E+03  0.48148614429E+03  0.40000000000E+03 0.  1.
<mgrwt>
<rscale>  2 0.41225424E+03</rscale>
<asrwt>0</asrwt>
<pdfrwt beam="1">  1       21 0.72611047E-01 0.41229486E+03</pdfrwt>
<pdfrwt beam="2">  1       21 0.79026089E-01 0.41229486E+03</pdfrwt>
<totfact> 0.21187785E+03</totfact>
</mgrwt>
</event>
<event>
 6    1  0.9399121E-004  0.4370854E+03  0.7818608E-02  0.1031668E+00
         21   -1    0    0  503  502  0.00000000000E+00  0.00000000000E+00  0.14186618467E+04  0.14186618467E+04  0.00000000000E+00 0.  1.
         21   -1    0    0  501  503 -0.00000000000E+00 -0.00000000000E+00 -0.13789622396E+03  0.13789622396E+03  0.00000000000E+00 0.  1.
    9000007    2    1    2  501    0  0.14569649040E+03  0.97721565522E+02  0.76146340294E+03  0.87799210690E+03  0.40033317884E+03 0.  0.
    9000005    1    3    3    0    0  0.23218023636E+03  0.27889521665E+02  0.20640458612E+03  0.31191239273E+03  0.99999687468E+00 0.  0.
          4    1    3    3  501    0 -0.86483745953E+02  0.69832043857E+02  0.55505881682E+03  0.56607971417E+03  0.00000000000E+00 0.  1.
   -9000007    1    1    2    0  502 -0.14569649040E+03 -0.97721565522E+02  0.51930221982E+03  0.67856596378E+03  0.40000000000E+03 0.  1.
<mgrwt>
<rscale>  2 0.43700907E+03</rscale>
<asrwt>0</asrwt>
<pdfrwt beam="1">  1       21 0.21825566E+00 0.43708538E+03</pdfrwt>
<pdfrwt beam="2">  1       21 0.21214805E-01 0.43708538E+03</pdfrwt>
<totfact> 0.17988371E+03</totfact>
</mgrwt>
</event>
<event>
 6    1  0.9399121E-004  0.5322960E+03  0.7818608E-02  0.1005725E+00
         21   -1    0    0  503  502  0.00000000000E+00  0.00000000000E+00  0.21938079515E+03  0.21938079515E+03  0.00000000000E+00 0. -1.
         21   -1    0    0  501  503 -0.00000000000E+00 -0.00000000000E+00 -0.16520096620E+04  0.16520096620E+04  0.00000000000E+00 0.  1.
    9000007    2    1    2  501    0  0.34049043056E+03 -0.80932440346E+02 -0.11549991487E+04  0.12717555235E+04  0.40106768127E+03 0.  0.
    9000005    1    3    3    0    0  0.26903403839E+03  0.10107765995E+03 -0.40450295009E+03  0.49620524360E+03  0.99999687468E+00 0.  0.
          4    1    3    3  501    0  0.71456392173E+02 -0.18201010029E+03 -0.75049619859E+03  0.77555027992E+03  0.00000000000E+00 0.  1.
   -9000007    1    1    2    0  502 -0.34049043056E+03  0.80932440346E+02 -0.27762971818E+03  0.59963493362E+03  0.40000000000E+03 0. -1.
<mgrwt>
<rscale>  2 0.53209493E+03</rscale>
<asrwt>0</asrwt>
<pdfrwt beam="1">  1       21 0.33750892E-01 0.53229604E+03</pdfrwt>
<pdfrwt beam="2">  1       21 0.25415533E+00 0.53229604E+03</pdfrwt>
<totfact> 0.41201675E+02</totfact>
</mgrwt>
</event>
<event>
 6    1  0.9399121E-004  0.5544855E+03  0.7818608E-02  0.1000472E+00
         21   -1    0    0  503  502  0.00000000000E+00  0.00000000000E+00  0.10068292089E+04  0.10068292089E+04  0.00000000000E+00 0.  1.
         21   -1    0    0  501  503 -0.00000000000E+00 -0.00000000000E+00 -0.32682960794E+03  0.32682960794E+03  0.00000000000E+00 0.  1.
    9000007    2    1    2  501    0 -0.38359844779E+03  0.17504859473E+02  0.16865687643E+03  0.57938726682E+03  0.39973775620E+03 0.  0.
    9000005    1    3    3    0    0  0.36506761178E+02 -0.80284539834E+02 -0.43899930649E+02  0.98521849622E+02  0.99999687468E+00 0.  0.
          4    1    3    3  501    0 -0.42010520897E+03  0.97789399308E+02  0.21255680708E+03  0.48086541720E+03  0.00000000000E+00 0.  1.
   -9000007    1    1    2    0  502  0.38359844779E+03 -0.17504859473E+02  0.51134272452E+03  0.75427155002E+03  0.40000000000E+03 0.  1.
<mgrwt>
<rscale>  2 0.55443822E+03</rscale>
<asrwt>0</asrwt>
<pdfrwt beam="1">  1       21 0.15489680E+00 0.55448552E+03</pdfrwt>
<pdfrwt beam="2">  1       21 0.50281479E-01 0.55448552E+03</pdfrwt>
<totfact> 0.83524610E+02</totfact>
</mgrwt>
</event>
<event>
 6    1  0.9399121E-004  0.5154267E+03  0.7818608E-02  0.1009848E+00
         21   -1    0    0  503  502  0.00000000000E+00  0.00000000000E+00  0.15168207337E+04  0.15168207337E+04  0.00000000000E+00 0.  1.
         21   -1    0    0  501  503 -0.00000000000E+00 -0.00000000000E+00 -0.19547063140E+03  0.19547063140E+03  0.00000000000E+00 0.  1.
    9000007    2    1    2  501    0 -0.32454394937E+03  0.55291427431E+01  0.38409128795E+03  0.64279922789E+03  0.40038154729E+03 0.  0.
    9000005    1    3    3    0    0 -0.14550020756E+03 -0.47793277773E+02  0.42483072978E+03  0.45159346403E+03  0.99999687468E+00 0.  0.
          4    1    3    3  501    0 -0.17904374181E+03  0.53322420517E+02 -0.40739441830E+02  0.19120576386E+03  0.00000000000E+00 0.  1.
   -9000007    1    1    2    0  502  0.32454394937E+03 -0.55291427431E+01  0.93725881435E+03  0.10694921372E+04  0.40000000000E+03 0.  1.
<mgrwt>
<rscale>  2 0.51535265E+03</rscale>
<asrwt>0</asrwt>
<pdfrwt beam="1">  1       21 0.23335703E+00 0.51542675E+03</pdfrwt>
<pdfrwt beam="2">  1       21 0.30072406E-01 0.51542675E+03</pdfrwt>
<totfact> 0.70508443E+02</totfact>
</mgrwt>
</event>
<event>
 6    1  0.9399121E-004  0.4509333E+03  0.7818608E-02  0.1027500E+00
         21   -1    0    0  503  502  0.00000000000E+00  0.00000000000E+00  0.32806476339E+03  0.32806476339E+03  0.00000000000E+00 0. -1.
         21   -1    0    0  501  503 -0.00000000000E+00 -0.00000000000E+00 -0.67331414318E+03  0.67331414318E+03  0.00000000000E+00 0.  1.
    9000007    2    1    2  501    0  0.85578730642E+02 -0.18798011191E+03 -0.31524880602E+03  0.55020236015E+03  0.40084982949E+03 0.  0.
    9000005    1    3    3    0    0  0.20246559847E+03  0.78405794379E+01 -0.23053790679E+03  0.30692428987E+03  0.99999687468E+00 0.  0.
          4    1    3    3  501    0 -0.11688686783E+03 -0.19582069135E+03 -0.84710899233E+02  0.24327807028E+03  0.00000000000E+00 0.  1.
   -9000007    1    1    2    0  502 -0.85578730642E+02  0.18798011191E+03 -0.30000573770E+02  0.45117654642E+03  0.40000000000E+03 0. -1.
<mgrwt>
<rscale>  2 0.45074435E+03</rscale>
<asrwt>0</asrwt>
<pdfrwt beam="1">  1       21 0.50471502E-01 0.45093328E+03</pdfrwt>
<pdfrwt beam="2">  1       21 0.10358679E+00 0.45093328E+03</pdfrwt>
<totfact> 0.24402951E+03</totfact>
</mgrwt>
</event>
<event>
 6    1  0.9399121E-004  0.4292850E+03  0.7818608E-02  0.1034096E+00
         21   -1    0    0  503  502  0.00000000000E+00  0.00000000000E+00  0.48473003741E+03  0.48473003741E+03  0.00000000000E+00 0.  1.
         21   -1    0    0  501  503 -0.00000000000E+00 -0.00000000000E+00 -0.40608845948E+03  0.40608845948E+03  0.00000000000E+00 0. -1.
    9000007    2    1    2  501    0 -0.97346216480E+02  0.12169374455E+03  0.15204945343E+03  0.45530228650E+03  0.39986933176E+03 0.  0.
    9000005    1    3    3    0    0 -0.30578273489E+02 -0.10319288680E+03 -0.73132226648E+02  0.13012734249E+03  0.99999687468E+00 0.  0.
          4    1    3    3  501    0 -0.66767942991E+02  0.22488663135E+03  0.22518168007E+03  0.32517494401E+03  0.00000000000E+00 0.  1.
   -9000007    1    1    2    0  502  0.97346216480E+02 -0.12169374455E+03 -0.73407875493E+02  0.43551621039E+03  0.40000000000E+03 0.  1.
<mgrwt>
<rscale>  2 0.42925461E+03</rscale>
<asrwt>0</asrwt>
<pdfrwt beam="1">  1       21 0.74573852E-01 0.42928505E+03</pdfrwt>
<pdfrwt beam="2">  1       21 0.62475148E-01 0.42928505E+03</pdfrwt>
<totfact> 0.33626716E+03</totfact>
</mgrwt>
</event>
<event>
 6    1  0.9399121E-004  0.5296466E+03  0.7818608E-02  0.1006329E+00
         21   -1    0    0  503  502  0.00000000000E+00  0.00000000000E+00  0.82277600066E+03  0.82277600066E+03  0.00000000000E+00 0.  1.
         21   -1    0    0  501  503 -0.00000000000E+00 -0.00000000000E+00 -0.35050017878E+03  0.35050017878E+03  0.00000000000E+00 0.  1.
    9000007    2    1    2  501    0  0.74662816304E+02 -0.33875597268E+03  0.13874318019E+03  0.54751730556E+03  0.40024415633E+03 0.  0.
    9000005    1    3    3    0    0  0.65530527872E+02  0.76823558056E+02 -0.19296853744E+02  0.10280796523E+03  0.99999687468E+00 0.  0.
          4    1    3    3  501    0  0.91322884319E+01 -0.41557953073E+03  0.15804003393E+03  0.44470934034E+03  0.00000000000E+00 0.  1.
   -9000007    1    1    2    0  502 -0.74662816304E+02  0.33875597268E+03  0.33353264170E+03  0.62575887388E+03  0.40000000000E+03 0.  1.
<mgrwt>
<rscale>  2 0.52960048E+03</rscale>
<asrwt>0</asrwt>
<pdfrwt beam="1">  1       21 0.12658092E+00 0.52964661E+03</pdfrwt>
<pdfrwt beam="2">  1       21 0.53923105E-01 0.52964661E+03</pdfrwt>
<totfact> 0.12436007E+03</totfact>
</mgrwt>
</event>
<event>
 6    1  0.9399121E-004  0.5695910E+03  0.7818608E-02  0.9971413E-01
         21   -1    0    0  503  502  0.00000000000E+00  0.00000000000E+00  0.90150491755E+03  0.90150491755E+03  0.00000000000E+00 0.  1.
         21   -1    0    0  501  503 -0.00000000000E+00 -0.00000000000E+00 -0.35931278379E+03  0.35931278379E+03  0.00000000000E+00 0. -1.
    9000007    2    1    2  501    0  0.30815331420E+03 -0.26033589909E+03  0.29185243596E+03  0.64000918842E+03  0.40212022018E+03 0.  0.
    9000005    1    3    3    0    0  0.55519030821E+02 -0.26628362785E+03  0.26055668173E+02  0.27325671279E+03  0.99999687468E+00 0.  0.
          4    1    3    3  501    0  0.25263428338E+03  0.59477287641E+01  0.26579676779E+03  0.36675247563E+03  0.00000000000E+00 0.  1.
   -9000007    1    1    2    0  502 -0.30815331420E+03  0.26033589909E+03  0.25033969780E+03  0.62080851291E+03  0.40000000000E+03 0.  1.
<mgrwt>
<rscale>  2 0.56921693E+03</rscale>
<asrwt>0</asrwt>
<pdfrwt beam="1">  1       21 0.13869306E+00 0.56959101E+03</pdfrwt>
<pdfrwt beam="2">  1       21 0.55278890E-01 0.56959101E+03</pdfrwt>
<totfact> 0.91470845E+02</totfact>
</mgrwt>
</event>
<event>
 6    1  0.9399121E-004  0.4618540E+03  0.7818608E-02  0.1024270E+00
         21   -1    0    0  503  502  0.00000000000E+00  0.00000000000E+00  0.66277502644E+03  0.66277502644E+03  0.00000000000E+00 0. -1.
         21   -1    0    0  501  503 -0.00000000000E+00 -0.00000000000E+00 -0.35172072548E+03  0.35172072548E+03  0.00000000000E+00 0.  1.
    9000007    2    1    2  501    0 -0.18635648943E+03  0.13631000075E+03  0.70314058029E+01  0.46155897593E+03  0.39959741007E+03 0.  0.
    9000005    1    3    3    0    0 -0.14140659718E+03  0.20440481664E+03 -0.14590930540E+03  0.28821464256E+03  0.99999687468E+00 0.  0.
          4    1    3    3  501    0 -0.44949892249E+02 -0.68094815891E+02  0.15294071121E+03  0.17334433336E+03  0.00000000000E+00 0.  1.
   -9000007    1    1    2    0  502  0.18635648943E+03 -0.13631000075E+03  0.30402289516E+03  0.55293677599E+03  0.40000000000E+03 0. -1.
<mgrwt>
<rscale>  2 0.46176686E+03</rscale>
<asrwt>0</asrwt>
<pdfrwt beam="1">  1       21 0.10196539E+00 0.46185404E+03</pdfrwt>
<pdfrwt beam="2">  1       21 0.54110881E-01 0.46185404E+03</pdfrwt>
<totfact> 0.21763236E+03</totfact>
</mgrwt>
</event>
<event>
 6    1  0.9399121E-004  0.6304140E+03  0.7818608E-02  0.9844572E-01
         21   -1    0    0  503  502  0.00000000000E+00  0.00000000000E+00  0.45299238758E+03  0.45299238758E+03  0.00000000000E+00 0.  1.
         21   -1    0    0  501  503 -0.00000000000E+00 -0.00000000000E+00 -0.12109060911E+04  0.12109060911E+04  0.00000000000E+00 0. -1.
    9000007    2    1    2  501    0 -0.35588382399E+03  0.33153288512E+03 -0.81637988381E+03  0.10314542959E+04  0.40106670241E+03 0.  0.
    9000005    1    3    3    0    0 -0.67076124330E+02  0.25674120583E+03 -0.15850666275E+03  0.30909644992E+03  0.99999687468E+00 0.  0.
          4    1    3    3  501    0 -0.28880769966E+03  0.74791679293E+02 -0.65787322106E+03  0.72235784599E+03  0.00000000000E+00 0.  1.
   -9000007    1    1    2    0  502  0.35588382399E+03 -0.33153288512E+03  0.58466180271E+02  0.63244418278E+03  0.40000000000E+03 0.  1.
<mgrwt>
<rscale>  2 0.63024444E+03</rscale>
<asrwt>0</asrwt>
<pdfrwt beam="1">  1       21 0.69691137E-01 0.63041403E+03</pdfrwt>
<pdfrwt beam="2">  1       21 0.18629324E+00 0.63041403E+03</pdfrwt>
<totfact> 0.23287213E+02</totfact>
</mgrwt>
</event>
<event>
 6    1  0.9399121E-004  0.4163911E+03  0.7818608E-02  0.1038253E+00
         21   -1    0    0  503  502  0.00000000000E+00  0.00000000000E+00  0.46761476062E+03  0.46761476062E+03  0.00000000000E+00 0.  1.
         21   -1    0    0  501  503 -0.00000000000E+00 -0.00000000000E+00 -0.48081628392E+03  0.48081628392E+03  0.00000000000E+00 0.  1.
    9000007    2    1    2  501    0 -0.85128849025E+02 -0.78323681008E+02 -0.23352717279E+03  0.47734197465E+03  0.39992361820E+03 0.  0.
    9000005    1    3    3    0    0 -0.45318649994E+02  0.12172639921E+03  0.40203512240E+02  0.13597212468E+03  0.99999687468E+00 0.  0.
          4    1    3    3  501    0 -0.39810199031E+02 -0.20005008021E+03 -0.27373068503E+03  0.34136984997E+03  0.00000000000E+00 0.  1.
   -9000007    1    1    2    0  502  0.85128849025E+02  0.78323681008E+02  0.22032564949E+03  0.47108906989E+03  0.40000000000E+03 0.  1.
<mgrwt>
<rscale>  2 0.41637272E+03</rscale>
<asrwt>0</asrwt>
<pdfrwt beam="1">  1       21 0.71940733E-01 0.41639107E+03</pdfrwt>
<pdfrwt beam="2">  1       21 0.73971735E-01 0.41639107E+03</pdfrwt>
<totfact> 0.25123688E+03</totfact>
</mgrwt>
</event>
<event>
 6    1  0.9399121E-004  0.4246743E+03  0.7818608E-02  0.1035595E+00
         21   -1    0    0  503  502  0.00000000000E+00  0.00000000000E+00  0.17378046386E+04  0.17378046386E+04  0.00000000000E+00 0. -1.
         21   -1    0    0  501  503 -0.00000000000E+00 -0.00000000000E+00 -0.12165011935E+03  0.12165011935E+03  0.00000000000E+00 0. -1.
    9000007    2    1    2  501    0 -0.27626906886E+02 -0.13994633811E+03  0.45013939453E+03  0.61851177190E+03  0.39947855253E+03 0.  0.
    9000005    1    3    3    0    0 -0.92423357470E+01 -0.26621566736E+03  0.18515887933E+03  0.32440871275E+03  0.99999687468E+00 0.  0.
          4    1    3    3  501    0 -0.18384571139E+02  0.12626932925E+03  0.26498051520E+03  0.29410305915E+03  0.00000000000E+00 0.  1.
   -9000007    1    1    2    0  502  0.27626906886E+02  0.13994633811E+03  0.11660151247E+04  0.12409429861E+04  0.40000000000E+03 0. -1.
<mgrwt>
<rscale>  2 0.42455142E+03</rscale>
<asrwt>0</asrwt>
<pdfrwt beam="1">  1       21 0.26735454E+00 0.42467426E+03</pdfrwt>
<pdfrwt beam="2">  1       21 0.18715404E-01 0.42467426E+03</pdfrwt>
<totfact> 0.11405942E+03</totfact>
</mgrwt>
</event>
<event>
 6    1  0.9399121E-004  0.4866556E+03  0.7818608E-02  0.1017334E+00
         21   -1    0    0  503  502  0.00000000000E+00  0.00000000000E+00  0.20372460592E+03  0.20372460592E+03  0.00000000000E+00 0.  1.
         21   -1    0    0  501  503 -0.00000000000E+00 -0.00000000000E+00 -0.16283888302E+04  0.16283888302E+04  0.00000000000E+00 0.  1.
    9000007    2    1    2  501    0 -0.51390032102E+02  0.27206304959E+03 -0.12026278439E+04  0.12973617250E+04  0.40021803583E+03 0.  0.
    9000005    1    3    3    0    0  0.13097339313E+03 -0.27829189281E+02 -0.28461718071E+03  0.31454162369E+03  0.99999687468E+00 0.  0.
          4    1    3    3  501    0 -0.18236342523E+03  0.29989223887E+03 -0.91801066315E+03  0.98282010126E+03  0.00000000000E+00 0.  1.
   -9000007    1    1    2    0  502  0.51390032102E+02 -0.27206304959E+03 -0.22203638039E+03  0.53475171114E+03  0.40000000000E+03 0.  1.
<mgrwt>
<rscale>  2 0.48661081E+03</rscale>
<asrwt>0</asrwt>
<pdfrwt beam="1">  1       21 0.31342248E-01 0.48665564E+03</pdfrwt>
<pdfrwt beam="2">  1       21 0.25052135E+00 0.48665564E+03</pdfrwt>
<totfact> 0.51425465E+02</totfact>
</mgrwt>
</event>
<event>
 6    1  0.9399121E-004  0.7117677E+03  0.7818608E-02  0.9697332E-01
         21   -1    0    0  503  502  0.00000000000E+00  0.00000000000E+00  0.37689054739E+03  0.37689054739E+03  0.00000000000E+00 0.  1.
         21   -1    0    0  501  503 -0.00000000000E+00 -0.00000000000E+00 -0.13717239407E+04  0.13717239407E+04  0.00000000000E+00 0. -1.
    9000007    2    1    2  501    0 -0.58869347080E+03  0.82567425735E+00 -0.37340743612E+03  0.80377010694E+03  0.40006572855E+03 0.  0.
    9000005    1    3    3    0    0 -0.34476796843E+03  0.14167204762E+03 -0.36542397000E+03  0.52198812149E+03  0.99999687468E+00 0.  0.
          4    1    3    3  501    0 -0.24392550237E+03 -0.14084637336E+03 -0.79834661193E+01  0.28178198545E+03  0.00000000000E+00 0.  1.
   -9000007    1    1    2    0  502  0.58869347080E+03 -0.82567425735E+00 -0.62142595714E+03  0.94484438110E+03  0.40000000000E+03 0. -1.
<mgrwt>
<rscale>  2 0.71175847E+03</rscale>
<asrwt>0</asrwt>
<pdfrwt beam="1">  1       21 0.57983162E-01 0.71176771E+03</pdfrwt>
<pdfrwt beam="2">  1       21 0.21103445E+00 0.71176771E+03</pdfrwt>
<totfact> 0.23178781E+02</totfact>
</mgrwt>
</event>
<event>
 6    1  0.9399121E-004  0.5459836E+03  0.7818608E-02  0.1002430E+00
         21   -1    0    0  503  502  0.00000000000E+00  0.00000000000E+00  0.38677681267E+03  0.38677681267E+03  0.00000000000E+00 0. -1.
         21   -1    0    0  501  503 -0.00000000000E+00 -0.00000000000E+00 -0.12874558677E+04  0.12874558677E+04  0.00000000000E+00 0.  1.
    9000007    2    1    2  501    0  0.35389309955E+03  0.11323588557E+03 -0.98070853681E+03  0.11224470249E+04  0.40004424475E+03 0.  0.
    9000005    1    3    3    0    0  0.45908228329E+02  0.10044008264E+03 -0.68985069199E+03  0.69863492101E+03  0.99999687468E+00 0.  0.
          4    1    3    3  501    0  0.30798487122E+03  0.12795802934E+02 -0.29085784482E+03  0.42381210385E+03  0.00000000000E+00 0.  1.
   -9000007    1    1    2    0  502 -0.35389309955E+03 -0.11323588557E+03  0.80029481767E+02  0.55178565553E+03  0.40000000000E+03 0. -1.
<mgrwt>
<rscale>  2 0.54597549E+03</rscale>
<asrwt>0</asrwt>
<pdfrwt beam="1">  1       21 0.59504124E-01 0.54598360E+03</pdfrwt>
<pdfrwt beam="2">  1       21 0.19807014E+00 0.54598360E+03</pdfrwt>
<totfact> 0.28416306E+02</totfact>
</mgrwt>
</event>
<event>
 6    1  0.9399121E-004  0.7389954E+03  0.7818608E-02  0.9652982E-01
         21   -1    0    0  503  502  0.00000000000E+00  0.00000000000E+00  0.34941998452E+03  0.34941998452E+03  0.00000000000E+00 0. -1.
         21   -1    0    0  501  503 -0.00000000000E+00 -0.00000000000E+00 -0.16032600431E+04  0.16032600431E+04  0.00000000000E+00 0.  1.
    9000007    2    1    2  501    0 -0.91094803362E+02 -0.61404309234E+03 -0.78410450488E+03  0.10774665263E+04  0.40095767647E+03 0.  0.
    9000005    1    3    3    0    0 -0.18425832087E+03 -0.58043832260E+03 -0.53954869620E+03  0.81361758260E+03  0.99999687468E+00 0.  0.
          4    1    3    3  501    0  0.93163517508E+02 -0.33604769740E+02 -0.24455580868E+03  0.26384894372E+03  0.00000000000E+00 0.  1.
   -9000007    1    1    2    0  502  0.91094803362E+02  0.61404309234E+03 -0.46973555371E+03  0.87521350131E+03  0.40000000000E+03 0.  1.
<mgrwt>
<rscale>  2 0.73886560E+03</rscale>
<asrwt>0</asrwt>
<pdfrwt beam="1">  1       21 0.53756921E-01 0.73899543E+03</pdfrwt>
<pdfrwt beam="2">  1       21 0.24665539E+00 0.73899543E+03</pdfrwt>
<totfact> 0.15978478E+02</totfact>
</mgrwt>
</event>
<event>
 6    1  0.9399121E-004  0.4323876E+03  0.7818608E-02  0.1033142E+00
         21   -1    0    0  503  502  0.00000000000E+00  0.00000000000E+00  0.51193024101E+03  0.51193024101E+03  0.00000000000E+00 0. -1.
         21   -1    0    0  501  503 -0.00000000000E+00 -0.00000000000E+00 -0.39054361581E+03  0.39054361581E+03  0.00000000000E+00 0. -1.
    9000007    2    1    2  501    0 -0.16175543029E+03 -0.20624178379E+02  0.17647500395E+03  0.46701443800E+03  0.40046083744E+03 0.  0.
    9000005    1    3    3    0    0 -0.14244086084E+03  0.13324637697E+03 -0.41583913548E+02  0.19943474539E+03  0.99999687468E+00 0.  0.
          4    1    3    3  501    0 -0.19314569452E+02 -0.15387055534E+03  0.21805891750E+03  0.26757969261E+03  0.00000000000E+00 0.  1.
   -9000007    1    1    2    0  502  0.16175543029E+03  0.20624178379E+02 -0.55088378745E+02  0.43545941882E+03  0.40000000000E+03 0. -1.
<mgrwt>
<rscale>  2 0.43228089E+03</rscale>
<asrwt>0</asrwt>
<pdfrwt beam="1">  1       21 0.78758498E-01 0.43238763E+03</pdfrwt>
<pdfrwt beam="2">  1       21 0.60083634E-01 0.43238763E+03</pdfrwt>
<totfact> 0.32298676E+03</totfact>
</mgrwt>
</event>
<event>
 6    1  0.9399121E-004  0.4402380E+03  0.7818608E-02  0.1030702E+00
         21   -1    0    0  503  502  0.00000000000E+00  0.00000000000E+00  0.36726896878E+03  0.36726896878E+03  0.00000000000E+00 0.  1.
         21   -1    0    0  501  503 -0.00000000000E+00 -0.00000000000E+00 -0.55049439159E+03  0.55049439159E+03  0.00000000000E+00 0.  1.
    9000007    2    1    2  501    0 -0.55291246346E+02  0.17536354220E+03  0.26889792468E+01  0.43987879403E+03  0.39959558177E+03 0.  0.
    9000005    1    3    3    0    0 -0.43261191819E+02  0.92737125406E+02  0.20053350369E+03  0.22513638365E+03  0.99999687468E+00 0.  0.
          4    1    3    3  501    0 -0.12030054528E+02  0.82626416795E+02 -0.19784452444E+03  0.21474241038E+03  0.00000000000E+00 0.  1.
   -9000007    1    1    2    0  502  0.55291246346E+02 -0.17536354220E+03 -0.18591440206E+03  0.47788456634E+03  0.40000000000E+03 0.  1.
<mgrwt>
<rscale>  2 0.44014611E+03</rscale>
<asrwt>0</asrwt>
<pdfrwt beam="1">  1       21 0.56502918E-01 0.44023800E+03</pdfrwt>
<pdfrwt beam="2">  1       21 0.84691445E-01 0.44023800E+03</pdfrwt>
<totfact> 0.31115344E+03</totfact>
</mgrwt>
</event>
<event>
 6    1  0.9399121E-004  0.4828083E+03  0.7818608E-02  0.1018440E+00
         21   -1    0    0  503  502  0.00000000000E+00  0.00000000000E+00  0.50547697536E+03  0.50547697536E+03  0.00000000000E+00 0.  1.
         21   -1    0    0  501  503 -0.00000000000E+00 -0.00000000000E+00 -0.59910150663E+03  0.59910150663E+03  0.00000000000E+00 0.  1.
    9000007    2    1    2  501    0 -0.22328936633E+03  0.15246542602E+03 -0.31277896913E+03  0.57435917371E+03  0.39869026781E+03 0.  0.
    9000005    1    3    3    0    0 -0.72771660939E+02  0.26996060267E+03 -0.24495812902E+03  0.37172560659E+03  0.99999687468E+00 0.  0.
          4    1    3    3  501    0 -0.15051770539E+03 -0.11749517664E+03 -0.67820840105E+02  0.20263356712E+03  0.00000000000E+00 0.  1.
   -9000007    1    1    2    0  502  0.22328936633E+03 -0.15246542602E+03  0.21915443785E+03  0.53021930828E+03  0.40000000000E+03 0.  1.
<mgrwt>
<rscale>  2 0.48253693E+03</rscale>
<asrwt>0</asrwt>
<pdfrwt beam="1">  1       21 0.77765689E-01 0.48280829E+03</pdfrwt>
<pdfrwt beam="2">  1       21 0.92169462E-01 0.48280829E+03</pdfrwt>
<totfact> 0.12295542E+03</totfact>
</mgrwt>
</event>
<event>
 6    1  0.9399121E-004  0.4726663E+03  0.7818608E-02  0.1021667E+00
         21   -1    0    0  503  502  0.00000000000E+00  0.00000000000E+00  0.18378173652E+03  0.18378173652E+03  0.00000000000E+00 0.  1.
         21   -1    0    0  501  503 -0.00000000000E+00 -0.00000000000E+00 -0.13117725927E+04  0.13117725927E+04  0.00000000000E+00 0.  1.
    9000007    2    1    2  501    0 -0.24723217270E+03 -0.47850440824E+02 -0.33955835196E+03  0.57629417800E+03  0.39166528224E+03 0.  0.
    9000005    1    3    3    0    0 -0.32611524461E+03  0.20617353789E+02 -0.34037347069E+03  0.47183824303E+03  0.99999687468E+00 0.  0.
          4    1    3    3  501    0  0.78883071905E+02 -0.68467794613E+02  0.81511873111E+00  0.10445593497E+03  0.00000000000E+00 0.  1.
   -9000007    1    1    2    0  502  0.24723217270E+03  0.47850440824E+02 -0.78843250421E+03  0.91926015121E+03  0.40000000000E+03 0.  1.
<mgrwt>
<rscale>  2 0.47089834E+03</rscale>
<asrwt>0</asrwt>
<pdfrwt beam="1">  1       21 0.28274112E-01 0.47266628E+03</pdfrwt>
<pdfrwt beam="2">  1       21 0.20181118E+00 0.47266628E+03</pdfrwt>
<totfact> 0.12974236E+03</totfact>
</mgrwt>
</event>
<event>
 6    1  0.9399121E-004  0.6240432E+03  0.7818608E-02  0.9856786E-01
         21   -1    0    0  503  502  0.00000000000E+00  0.00000000000E+00  0.25794344173E+03  0.25794344173E+03  0.00000000000E+00 0. -1.
         21   -1    0    0  501  503 -0.00000000000E+00 -0.00000000000E+00 -0.34357537416E+04  0.34357537416E+04  0.00000000000E+00 0.  1.
    9000007    2    1    2  501    0  0.46908131366E+03 -0.96915821250E+02 -0.29716989449E+04  0.30364971789E+04  0.39986315526E+03 0.  0.
    9000005    1    3    3    0    0  0.29022895212E+02 -0.29041864470E+02 -0.11019139083E+02  0.42522696977E+02  0.99999687468E+00 0.  0.
          4    1    3    3  501    0  0.44005841845E+03 -0.67873956780E+02 -0.29606798058E+04  0.29939744819E+04  0.00000000000E+00 0.  1.
   -9000007    1    1    2    0  502 -0.46908131366E+03  0.96915821250E+02 -0.20611135498E+03  0.65720000448E+03  0.40000000000E+03 0. -1.
<mgrwt>
<rscale>  2 0.62402130E+03</rscale>
<asrwt>0</asrwt>
<pdfrwt beam="1">  1       21 0.39683611E-01 0.62404323E+03</pdfrwt>
<pdfrwt beam="2">  1       21 0.52857744E+00 0.62404323E+03</pdfrwt>
<totfact> 0.45726603E+00</totfact>
</mgrwt>
</event>
<event>
 6    1  0.9399121E-004  0.4862326E+03  0.7818608E-02  0.1017442E+00
         21   -1    0    0  503  502  0.00000000000E+00  0.00000000000E+00  0.65068036335E+03  0.65068036335E+03  0.00000000000E+00 0. -1.
         21   -1    0    0  501  503 -0.00000000000E+00 -0.00000000000E+00 -0.36367269295E+03  0.36367269295E+03  0.00000000000E+00 0. -1.
    9000007    2    1    2  501    0 -0.68562585208E+02 -0.26780833717E+03  0.16021841388E+03  0.51186161446E+03  0.39988778259E+03 0.  0.
    9000005    1    3    3    0    0  0.14920071993E+03 -0.12463147095E+03 -0.19354521687E+02  0.19537004858E+03  0.99999687468E+00 0.  0.
          4    1    3    3  501    0 -0.21776330514E+03 -0.14317686623E+03  0.17957293556E+03  0.31649156588E+03  0.00000000000E+00 0.  1.
   -9000007    1    1    2    0  502  0.68562585208E+02  0.26780833717E+03  0.12678925653E+03  0.50249144184E+03  0.40000000000E+03 0. -1.
<mgrwt>
<rscale>  2 0.48620951E+03</rscale>
<asrwt>0</asrwt>
<pdfrwt beam="1">  1       21 0.10010467E+00 0.48623259E+03</pdfrwt>
<pdfrwt beam="2">  1       21 0.55949645E-01 0.48623259E+03</pdfrwt>
<totfact> 0.20996036E+03</totfact>
</mgrwt>
</event>
<event>
 6    1  0.9399121E-004  0.4945977E+03  0.7818608E-02  0.1015222E+00
         21   -1    0    0  503  502  0.00000000000E+00  0.00000000000E+00  0.17948845281E+04  0.17948845281E+04  0.00000000000E+00 0. -1.
         21   -1    0    0  501  503 -0.00000000000E+00 -0.00000000000E+00 -0.21639586068E+03  0.21639586068E+03  0.00000000000E+00 0. -1.
    9000007    2    1    2  501    0 -0.67164085139E+02  0.28244054226E+03  0.17720052207E+03  0.52538263302E+03  0.40042878494E+03 0.  0.
    9000005    1    3    3    0    0  0.13220842647E+03  0.24483625482E+03  0.41584790095E+02  0.28134348129E+03  0.99999687468E+00 0.  0.
          4    1    3    3  501    0 -0.19937251160E+03  0.37604287436E+02  0.13561573197E+03  0.24403915173E+03  0.00000000000E+00 0.  1.
   -9000007    1    1    2    0  502  0.67164085139E+02 -0.28244054226E+03  0.14012881453E+04  0.14858977557E+04  0.40000000000E+03 0. -1.
<mgrwt>
<rscale>  2 0.49451091E+03</rscale>
<asrwt>0</asrwt>
<pdfrwt beam="1">  1       21 0.27613607E+00 0.49459770E+03</pdfrwt>
<pdfrwt beam="2">  1       21 0.33291672E-01 0.49459770E+03</pdfrwt>
<totfact> 0.31652562E+02</totfact>
</mgrwt>
</event>
<event>
 6    1  0.9399121E-004  0.4567730E+03  0.7818608E-02  0.1025777E+00
         21   -1    0    0  503  502  0.00000000000E+00  0.00000000000E+00  0.72381014935E+03  0.72381014935E+03  0.00000000000E+00 0. -1.
         21   -1    0    0  501  503 -0.00000000000E+00 -0.00000000000E+00 -0.42744818676E+03  0.42744818676E+03  0.00000000000E+00 0.  1.
    9000007    2    1    2  501    0 -0.18777264689E+03 -0.11265874850E+03 -0.18078056932E+03  0.49124655115E+03  0.40086281847E+03 0.  0.
    9000005    1    3    3    0    0  0.36491540217E+02 -0.12269268898E+03  0.77028924820E+02  0.14939740189E+03  0.99999687468E+00 0.  0.
          4    1    3    3  501    0 -0.22426418711E+03  0.10033940487E+02 -0.25780949414E+03  0.34184914926E+03  0.00000000000E+00 0.  1.
   -9000007    1    1    2    0  502  0.18777264689E+03  0.11265874850E+03  0.47714253192E+03  0.66001178497E+03  0.40000000000E+03 0. -1.
<mgrwt>
<rscale>  2 0.45658361E+03</rscale>
<asrwt>0</asrwt>
<pdfrwt beam="1">  1       21 0.11135541E+00 0.45677298E+03</pdfrwt>
<pdfrwt beam="2">  1       21 0.65761260E-01 0.45677298E+03</pdfrwt>
<totfact> 0.11444895E+03</totfact>
</mgrwt>
</event>
<event>
 6    1  0.9399121E-004  0.4280964E+03  0.7818608E-02  0.1034495E+00
         21   -1    0    0  503  502  0.00000000000E+00  0.00000000000E+00  0.14287183691E+04  0.14287183691E+04  0.00000000000E+00 0.  1.
         21   -1    0    0  501  503 -0.00000000000E+00 -0.00000000000E+00 -0.17686660858E+04  0.17686660858E+04  0.00000000000E+00 0. -1.
    9000007    2    1    2  501    0 -0.20813030717E+02 -0.14994838507E+03 -0.17096652063E+04  0.17624476264E+04  0.40043578484E+03 0.  0.
    9000005    1    3    3    0    0 -0.12842010942E+03 -0.24570173872E+03 -0.96773654176E+03  0.10066658250E+04  0.99999687468E+00 0.  0.
          4    1    3    3  501    0  0.10760707870E+03  0.95753353648E+02 -0.74192866452E+03  0.75578180142E+03  0.00000000000E+00 0.  1.
   -9000007    1    1    2    0  502  0.20813030717E+02  0.14994838507E+03  0.13697174896E+04  0.14349368285E+04  0.40000000000E+03 0.  1.
<mgrwt>
<rscale>  2 0.42799445E+03</rscale>
<asrwt>0</asrwt>
<pdfrwt beam="1">  1       21 0.21980283E+00 0.42809639E+03</pdfrwt>
<pdfrwt beam="2">  1       21 0.27210247E+00 0.42809639E+03</pdfrwt>
<totfact> 0.36107152E+00</totfact>
</mgrwt>
</event>
<event>
 6    1  0.9399121E-004  0.5155495E+03  0.7818608E-02  0.1009799E+00
         21   -1    0    0  503  502  0.00000000000E+00  0.00000000000E+00  0.31910384119E+03  0.31910384119E+03  0.00000000000E+00 0.  1.
         21   -1    0    0  501  503 -0.00000000000E+00 -0.00000000000E+00 -0.83911556184E+03  0.83911556184E+03  0.00000000000E+00 0.  1.
    9000007    2    1    2  501    0  0.29499002894E+03 -0.13701142813E+03 -0.30977820288E+03  0.60145250332E+03  0.39998916256E+03 0.  0.
    9000005    1    3    3    0    0 -0.14935466604E+01  0.11816363754E+03 -0.11326792471E+03  0.16369330677E+03  0.99999687468E+00 0.  0.
          4    1    3    3  501    0  0.29648357560E+03 -0.25517506567E+03 -0.19651027816E+03  0.43775919655E+03  0.00000000000E+00 0.  1.
   -9000007    1    1    2    0  502 -0.29499002894E+03  0.13701142813E+03 -0.21023351778E+03  0.55676689970E+03  0.40000000000E+03 0.  1.
<mgrwt>
<rscale>  2 0.51554736E+03</rscale>
<asrwt>0</asrwt>
<pdfrwt beam="1">  1       21 0.49092899E-01 0.51554946E+03</pdfrwt>
<pdfrwt beam="2">  1       21 0.12909470E+00 0.51554946E+03</pdfrwt>
<totfact> 0.14519941E+03</totfact>
</mgrwt>
</event>
<event>
 6    1  0.9399121E-004  0.4994460E+03  0.7818608E-02  0.1014160E+00
         21   -1    0    0  503  502  0.00000000000E+00  0.00000000000E+00  0.27365976617E+03  0.27365976617E+03  0.00000000000E+00 0. -1.
         21   -1    0    0  501  503 -0.00000000000E+00 -0.00000000000E+00 -0.11319885263E+04  0.11319885263E+04  0.00000000000E+00 0. -1.
    9000007    2    1    2  501    0  0.11788281233E+03 -0.27486356652E+03 -0.74266935227E+03  0.89298520987E+03  0.39549776308E+03 0.  0.
    9000005    1    3    3    0    0  0.71881393485E+02 -0.20771684500E+03 -0.93719422814E+02  0.23895094189E+03  0.99999687468E+00 0.  0.
          4    1    3    3  501    0  0.46001418846E+02 -0.67146721520E+02 -0.64894992946E+03  0.65403426798E+03  0.00000000000E+00 0.  1.
   -9000007    1    1    2    0  502 -0.11788281233E+03  0.27486356652E+03 -0.11565940786E+03  0.51266308261E+03  0.40000000000E+03 0. -1.
<mgrwt>
<rscale>  2 0.49854398E+03</rscale>
<asrwt>0</asrwt>
<pdfrwt beam="1">  1       21 0.42101504E-01 0.49944603E+03</pdfrwt>
<pdfrwt beam="2">  1       21 0.17415207E+00 0.49944603E+03</pdfrwt>
<totfact> 0.88997632E+02</totfact>
</mgrwt>
</event>
<event>
 6    1  0.9399121E-004  0.4766636E+03  0.7818608E-02  0.1020069E+00
         21   -1    0    0  503  502  0.00000000000E+00  0.00000000000E+00  0.10595342962E+04  0.10595342962E+04  0.00000000000E+00 0.  1.
         21   -1    0    0  501  503 -0.00000000000E+00 -0.00000000000E+00 -0.25016492125E+03  0.25016492125E+03  0.00000000000E+00 0. -1.
    9000007    2    1    2  501    0 -0.46376932973E+02 -0.25506354716E+03  0.15686641987E+03  0.50163465358E+03  0.39977746183E+03 0.  0.
    9000005    1    3    3    0    0 -0.13682775379E+03 -0.26127040953E+03 -0.27469959183E+02  0.29620881107E+03  0.99999687468E+00 0.  0.
          4    1    3    3  501    0  0.90450820820E+02  0.62068623763E+01  0.18433637905E+03  0.20542584251E+03  0.00000000000E+00 0.  1.
   -9000007    1    1    2    0  502  0.46376932973E+02  0.25506354716E+03  0.65250295505E+03  0.80806456385E+03  0.40000000000E+03 0. -1.
<mgrwt>
<rscale>  2 0.47661696E+03</rscale>
<asrwt>0</asrwt>
<pdfrwt beam="1">  1       21 0.16300527E+00 0.47666365E+03</pdfrwt>
<pdfrwt beam="2">  1       21 0.38486911E-01 0.47666365E+03</pdfrwt>
<totfact> 0.13051869E+03</totfact>
</mgrwt>
</event>
<event>
 6    1  0.9399121E-004  0.7013347E+03  0.7818608E-02  0.9715059E-01
         21   -1    0    0  503  502  0.00000000000E+00  0.00000000000E+00  0.15002754290E+04  0.15002754290E+04  0.00000000000E+00 0. -1.
         21   -1    0    0  501  503 -0.00000000000E+00 -0.00000000000E+00 -0.40004479406E+03  0.40004479406E+03  0.00000000000E+00 0.  1.
    9000007    2    1    2  501    0 -0.54479423120E+03 -0.18726887889E+03  0.95399393754E+03  0.11839016590E+04  0.39956015555E+03 0.  0.
    9000005    1    3    3    0    0 -0.25838780001E+03 -0.18454448800E+03  0.19489937875E+03  0.37256904202E+03  0.99999687468E+00 0.  0.
          4    1    3    3  501    0 -0.28640643119E+03 -0.27243908908E+01  0.75909455880E+03  0.81133261695E+03  0.00000000000E+00 0.  1.
   -9000007    1    1    2    0  502  0.54479423120E+03  0.18726887889E+03  0.14623669742E+03  0.71641856412E+03  0.40000000000E+03 0.  1.
<mgrwt>
<rscale>  2 0.70127202E+03</rscale>
<asrwt>0</asrwt>
<pdfrwt beam="1">  1       21 0.23081160E+00 0.70133472E+03</pdfrwt>
<pdfrwt beam="2">  1       21 0.61545354E-01 0.70133472E+03</pdfrwt>
<totfact> 0.15155626E+02</totfact>
</mgrwt>
</event>
<event>
 6    1  0.9399121E-004  0.4456243E+03  0.7818608E-02  0.1029067E+00
         21   -1    0    0  503  502  0.00000000000E+00  0.00000000000E+00  0.12090124816E+03  0.12090124816E+03  0.00000000000E+00 0.  1.
         21   -1    0    0  501  503 -0.00000000000E+00 -0.00000000000E+00 -0.21553067012E+04  0.21553067012E+04  0.00000000000E+00 0. -1.
    9000007    2    1    2  501    0  0.15190779023E+03  0.12298501736E+03 -0.15735618171E+04  0.16354442269E+04  0.40047438852E+03 0.  0.
    9000005    1    3    3    0    0 -0.46107858192E+02 -0.55719580774E+02 -0.10031009715E+04  0.10057053073E+04  0.99999687468E+00 0.  0.
          4    1    3    3  501    0  0.19801564842E+03  0.17870459813E+03 -0.57046084567E+03  0.62973891960E+03  0.00000000000E+00 0.  1.
   -9000007    1    1    2    0  502 -0.15190779023E+03 -0.12298501736E+03 -0.46084363594E+03  0.64076372246E+03  0.40000000000E+03 0.  1.
<mgrwt>
<rscale>  2 0.44551770E+03</rscale>
<asrwt>0</asrwt>
<pdfrwt beam="1">  1       21 0.18600194E-01 0.44562431E+03</pdfrwt>
<pdfrwt beam="2">  1       21 0.33158562E+00 0.44562431E+03</pdfrwt>
<totfact> 0.46810262E+02</totfact>
</mgrwt>
</event>
<event>
 6    1  0.9399121E-004  0.4025385E+03  0.7818608E-02  0.1042961E+00
         21   -1    0    0  503  502  0.00000000000E+00  0.00000000000E+00  0.97934796499E+03  0.97934796499E+03  0.00000000000E+00 0.  1.
         21   -1    0    0  501  503 -0.00000000000E+00 -0.00000000000E+00 -0.23260457808E+03  0.23260457808E+03  0.00000000000E+00 0.  1.
    9000007    2    1    2  501    0 -0.31885112567E+02  0.22033665099E+02  0.47339389845E+02  0.40531254039E+03  0.40066831016E+03 0.  0.
    9000005    1    3    3    0    0 -0.12615855397E+03 -0.14833318746E+03  0.74945955298E+02  0.20865428692E+03  0.99999687468E+00 0.  0.
          4    1    3    3  501    0  0.94273441398E+02  0.17036685256E+03 -0.27606565452E+02  0.19665825347E+03  0.00000000000E+00 0.  1.
   -9000007    1    1    2    0  502  0.31885112567E+02 -0.22033665099E+02  0.69940399707E+03  0.80664000267E+03  0.40000000000E+03 0.  1.
<mgrwt>
<rscale>  2 0.40237209E+03</rscale>
<asrwt>0</asrwt>
<pdfrwt beam="1">  1       21 0.15066892E+00 0.40253849E+03</pdfrwt>
<pdfrwt beam="2">  1       21 0.35785320E-01 0.40253849E+03</pdfrwt>
<totfact> 0.19408357E+03</totfact>
</mgrwt>
</event>
<event>
 6    1  0.9399121E-004  0.4521251E+03  0.7818608E-02  0.1027457E+00
         21   -1    0    0  503  502  0.00000000000E+00  0.00000000000E+00  0.26634510303E+03  0.26634510303E+03  0.00000000000E+00 0.  1.
         21   -1    0    0  501  503 -0.00000000000E+00 -0.00000000000E+00 -0.12907755798E+04  0.12907755798E+04  0.00000000000E+00 0.  1.
    9000007    2    1    2  501    0 -0.12754240768E+03 -0.15404027100E+03 -0.10135046538E+04  0.11097787057E+04  0.40548936069E+03 0.  0.
    9000005    1    3    3    0    0  0.66327983055E+02 -0.22093479894E+03 -0.38671925698E+03  0.45029364912E+03  0.99999687468E+00 0.  0.
          4    1    3    3  501    0 -0.19387039074E+03  0.66894527944E+02 -0.62678539679E+03  0.65948505662E+03  0.00000000000E+00 0.  1.
   -9000007    1    1    2    0  502  0.12754240768E+03  0.15404027100E+03 -0.10925822973E+02  0.44734197708E+03  0.40000000000E+03 0.  1.
<mgrwt>
<rscale>  2 0.45089090E+03</rscale>
<asrwt>0</asrwt>
<pdfrwt beam="1">  1       21 0.40976169E-01 0.45212508E+03</pdfrwt>
<pdfrwt beam="2">  1       21 0.19858086E+00 0.45212508E+03</pdfrwt>
<totfact> 0.65061509E+02</totfact>
</mgrwt>
</event>
<event>
 6    1  0.9399121E-004  0.4651625E+03  0.7818608E-02  0.1023365E+00
         21   -1    0    0  503  502  0.00000000000E+00  0.00000000000E+00  0.33282925695E+03  0.33282925695E+03  0.00000000000E+00 0.  1.
         21   -1    0    0  501  503 -0.00000000000E+00 -0.00000000000E+00 -0.69475579902E+03  0.69475579902E+03  0.00000000000E+00 0.  1.
    9000007    2    1    2  501    0  0.23716014757E+03 -0.11454070319E+02 -0.31300734538E+03  0.55985733696E+03  0.39886151503E+03 0.  0.
    9000005    1    3    3    0    0  0.15243048275E+03 -0.89030185487E+02  0.46409730486E+02  0.18252750225E+03  0.99999687468E+00 0.  0.
          4    1    3    3  501    0  0.84729664816E+02  0.77576115169E+02 -0.35941707586E+03  0.37732983471E+03  0.00000000000E+00 0.  1.
   -9000007    1    1    2    0  502 -0.23716014757E+03  0.11454070319E+02 -0.48919196702E+02  0.46772771901E+03  0.40000000000E+03 0. -1.
<mgrwt>
<rscale>  2 0.46491763E+03</rscale>
<asrwt>0</asrwt>
<pdfrwt beam="1">  1       21 0.51204501E-01 0.46516248E+03</pdfrwt>
<pdfrwt beam="2">  1       21 0.10688551E+00 0.46516248E+03</pdfrwt>
<totfact> 0.21791432E+03</totfact>
</mgrwt>
</event>
<event>
 6    1  0.9399121E-004  0.4181984E+03  0.7818608E-02  0.1037670E+00
         21   -1    0    0  503  502  0.00000000000E+00  0.00000000000E+00  0.27437247973E+03  0.27437247973E+03  0.00000000000E+00 0.  1.
         21   -1    0    0  501  503 -0.00000000000E+00 -0.00000000000E+00 -0.78082051781E+03  0.78082051781E+03  0.00000000000E+00 0.  1.
    9000007    2    1    2  501    0  0.10744841379E+03 -0.56427713719E+02 -0.47960446321E+03  0.63632568441E+03  0.40020080835E+03 0.  0.
    9000005    1    3    3    0    0 -0.30718802738E+02 -0.20614794862E+03 -0.18857651732E+03  0.28107423297E+03  0.99999687468E+00 0.  0.
          4    1    3    3  501    0  0.13816721653E+03  0.14972023490E+03 -0.29102794589E+03  0.35525145144E+03  0.00000000000E+00 0.  1.
   -9000007    1    1    2    0  502 -0.10744841379E+03  0.56427713719E+02 -0.26843574871E+02  0.41886731313E+03  0.40000000000E+03 0.  1.
<mgrwt>
<rscale>  2 0.41815039E+03</rscale>
<asrwt>0</asrwt>
<pdfrwt beam="1">  1       21 0.42211151E-01 0.41819844E+03</pdfrwt>
<pdfrwt beam="2">  1       21 0.12012623E+00 0.41819844E+03</pdfrwt>
<totfact> 0.24883979E+03</totfact>
</mgrwt>
</event>
<event>
 6    1  0.9399121E-004  0.4445103E+03  0.7818608E-02  0.1030298E+00
         21   -1    0    0  503  502  0.00000000000E+00  0.00000000000E+00  0.10769811194E+04  0.10769811194E+04  0.00000000000E+00 0. -1.
         21   -1    0    0  501  503 -0.00000000000E+00 -0.00000000000E+00 -0.21083015545E+03  0.21083015545E+03  0.00000000000E+00 0. -1.
    9000007    2    1    2  501    0  0.16279049746E+03 -0.22870174510E+02  0.18608882067E+03  0.48189049112E+03  0.41299589018E+03 0.  0.
    9000005    1    3    3    0    0  0.35109033275E+01 -0.19589105326E+03  0.14358924939E+03  0.24290842662E+03  0.99999687468E+00 0.  0.
          4    1    3    3  501    0  0.15927959413E+03  0.17302087875E+03  0.42499571282E+02  0.23898206449E+03  0.00000000000E+00 0.  1.
   -9000007    1    1    2    0  502 -0.16279049746E+03  0.22870174510E+02  0.68006214329E+03  0.80592078375E+03  0.40000000000E+03 0. -1.
<mgrwt>
<rscale>  2 0.44146723E+03</rscale>
<asrwt>0</asrwt>
<pdfrwt beam="1">  1       21 0.16568940E+00 0.44451029E+03</pdfrwt>
<pdfrwt beam="2">  1       21 0.32435409E-01 0.44451029E+03</pdfrwt>
<totfact> 0.17865968E+03</totfact>
</mgrwt>
</event>
<event>
 6    1  0.9399121E-004  0.5512277E+03  0.7818608E-02  0.1001213E+00
         21   -1    0    0  503  502  0.00000000000E+00  0.00000000000E+00  0.65639000166E+03  0.65639000166E+03  0.00000000000E+00 0. -1.
         21   -1    0    0  501  503 -0.00000000000E+00 -0.00000000000E+00 -0.83855248096E+03  0.83855248096E+03  0.00000000000E+00 0. -1.
    9000007    2    1    2  501    0 -0.36751921923E+03  0.93710451440E+02 -0.59139046501E+03  0.80841530217E+03  0.39992573494E+03 0.  0.
    9000005    1    3    3    0    0 -0.38548433549E+03  0.20210096581E+03 -0.42012101631E+03  0.60493441102E+03  0.99999687468E+00 0.  0.
          4    1    3    3  501    0  0.17965116263E+02 -0.10839051437E+03 -0.17126944870E+03  0.20348089116E+03  0.00000000000E+00 0.  1.
   -9000007    1    1    2    0  502  0.36751921923E+03 -0.93710451440E+02  0.40922798571E+03  0.68652718045E+03  0.40000000000E+03 0. -1.
<mgrwt>
<rscale>  2 0.55121427E+03</rscale>
<asrwt>0</asrwt>
<pdfrwt beam="1">  1       21 0.10098308E+00 0.55122774E+03</pdfrwt>
<pdfrwt beam="2">  1       21 0.12900807E+00 0.55122774E+03</pdfrwt>
<totfact> 0.27911849E+02</totfact>
</mgrwt>
</event>
<event>
 6    1  0.9399121E-004  0.4094098E+03  0.7818608E-02  0.1040617E+00
         21   -1    0    0  503  502  0.00000000000E+00  0.00000000000E+00  0.16719463244E+03  0.16719463244E+03  0.00000000000E+00 0. -1.
         21   -1    0    0  501  503 -0.00000000000E+00 -0.00000000000E+00 -0.10403208240E+04  0.10403208240E+04  0.00000000000E+00 0. -1.
    9000007    2    1    2  501    0  0.37109775405E+02 -0.78989120722E+02 -0.55344386577E+03  0.68807998783E+03  0.39942150728E+03 0.  0.
    9000005    1    3    3    0    0  0.20833298471E+03 -0.20039475890E+02 -0.39692424943E+03  0.44872494124E+03  0.99999687468E+00 0.  0.
          4    1    3    3  501    0 -0.17122320930E+03 -0.58949644832E+02 -0.15651961634E+03  0.23935504659E+03  0.00000000000E+00 0.  1.
   -9000007    1    1    2    0  502 -0.37109775405E+02  0.78989120722E+02 -0.31968232579E+03  0.51943546861E+03  0.40000000000E+03 0. -1.
<mgrwt>
<rscale>  2 0.40926847E+03</rscale>
<asrwt>0</asrwt>
<pdfrwt beam="1">  1       21 0.25722250E-01 0.40940984E+03</pdfrwt>
<pdfrwt beam="2">  1       21 0.16004936E+00 0.40940984E+03</pdfrwt>
<totfact> 0.31582890E+03</totfact>
</mgrwt>
</event>
<event>
 6    1  0.9399121E-004  0.4252544E+03  0.7818608E-02  0.1035422E+00
         21   -1    0    0  503  502  0.00000000000E+00  0.00000000000E+00  0.14168145134E+03  0.14168145134E+03  0.00000000000E+00 0.  1.
         21   -1    0    0  501  503 -0.00000000000E+00 -0.00000000000E+00 -0.12768991094E+04  0.12768991094E+04  0.00000000000E+00 0. -1.
    9000007    2    1    2  501    0 -0.10679444006E+03 -0.97140218122E+02 -0.59841500418E+03  0.73374600874E+03  0.39930115666E+03 0.  0.
    9000005    1    3    3    0    0 -0.23847578402E+03 -0.19452240228E+02 -0.21772999567E+03  0.32350647632E+03  0.99999687468E+00 0.  0.
          4    1    3    3  501    0  0.13168134396E+03 -0.77687977894E+02 -0.38068500851E+03  0.41023953242E+03  0.00000000000E+00 0.  1.
   -9000007    1    1    2    0  502  0.10679444006E+03  0.97140218122E+02 -0.53680265392E+03  0.68483455203E+03  0.40000000000E+03 0.  1.
<mgrwt>
<rscale>  2 0.42508995E+03</rscale>
<asrwt>0</asrwt>
<pdfrwt beam="1">  1       21 0.21797145E-01 0.42525436E+03</pdfrwt>
<pdfrwt beam="2">  1       21 0.19644603E+00 0.42525436E+03</pdfrwt>
<totfact> 0.23858364E+03</totfact>
</mgrwt>
</event>
<event>
 6    1  0.9399121E-004  0.4441323E+03  0.7818608E-02  0.1030023E+00
         21   -1    0    0  503  502  0.00000000000E+00  0.00000000000E+00  0.32621129201E+03  0.32621129201E+03  0.00000000000E+00 0.  1.
         21   -1    0    0  501  503 -0.00000000000E+00 -0.00000000000E+00 -0.76863371378E+03  0.76863371378E+03  0.00000000000E+00 0.  1.
    9000007    2    1    2  501    0  0.18659115497E+03  0.49368443022E+02 -0.47990780033E+03  0.64913360153E+03  0.39218545809E+03 0.  0.
    9000005    1    3    3    0    0  0.62410200210E+02  0.20318203759E+03 -0.13564011168E+03  0.25214522280E+03  0.99999687468E+00 0.  0.
          4    1    3    3  501    0  0.12418095476E+03 -0.15381359457E+03 -0.34426768865E+03  0.39698837873E+03  0.00000000000E+00 0.  1.
   -9000007    1    1    2    0  502 -0.18659115497E+03 -0.49368443022E+02  0.37485378563E+02  0.44571140426E+03  0.40000000000E+03 0.  1.
<mgrwt>
<rscale>  2 0.44236558E+03</rscale>
<asrwt>0</asrwt>
<pdfrwt beam="1">  1       21 0.50186353E-01 0.44413230E+03</pdfrwt>
<pdfrwt beam="2">  1       21 0.11825134E+00 0.44413230E+03</pdfrwt>
<totfact> 0.17822963E+03</totfact>
</mgrwt>
</event>
<event>
 6    1  0.9399121E-004  0.6655610E+03  0.7818608E-02  0.9778138E-01
         21   -1    0    0  503  502  0.00000000000E+00  0.00000000000E+00  0.45858937109E+03  0.45858937109E+03  0.00000000000E+00 0. -1.
         21   -1    0    0  501  503 -0.00000000000E+00 -0.00000000000E+00 -0.97359334556E+03  0.97359334556E+03  0.00000000000E+00 0. -1.
    9000007    2    1    2  501    0 -0.53192010333E+03 -0.56987122937E+01 -0.32259067895E+03  0.73936647266E+03  0.39953293117E+03 0.  0.
    9000005    1    3    3    0    0 -0.30653235745E+03  0.14528604969E+03 -0.32253418976E+03  0.46808057635E+03  0.99999687468E+00 0.  0.
          4    1    3    3  501    0 -0.22538774588E+03 -0.15098476198E+03 -0.56489188761E-01  0.27128589630E+03  0.00000000000E+00 0.  1.
   -9000007    1    1    2    0  502  0.53192010333E+03  0.56987122937E+01 -0.19241329552E+03  0.69281624400E+03  0.40000000000E+03 0. -1.
<mgrwt>
<rscale>  2 0.66549086E+03</rscale>
<asrwt>0</asrwt>
<pdfrwt beam="1">  1       21 0.70552212E-01 0.66556102E+03</pdfrwt>
<pdfrwt beam="2">  1       21 0.14978359E+00 0.66556102E+03</pdfrwt>
<totfact> 0.41870469E+02</totfact>
</mgrwt>
</event>
<event>
 6    1  0.9399121E-004  0.4035126E+03  0.7818608E-02  0.1042635E+00
         21   -1    0    0  503  502  0.00000000000E+00  0.00000000000E+00  0.16497589893E+03  0.16497589893E+03  0.00000000000E+00 0.  1.
         21   -1    0    0  501  503 -0.00000000000E+00 -0.00000000000E+00 -0.98594440030E+03  0.98594440030E+03  0.00000000000E+00 0.  1.
    9000007    2    1    2  501    0 -0.39314830691E+02 -0.25771002282E+02 -0.42782011081E+03  0.58809221049E+03  0.40076501889E+03 0.  0.
    9000005    1    3    3    0    0 -0.74070207763E+02  0.53207319522E+02  0.48995144709E+02  0.10353230765E+03  0.99999687468E+00 0.  0.
          4    1    3    3  501    0  0.34755377072E+02 -0.78978321804E+02 -0.47681525552E+03  0.48455990284E+03  0.00000000000E+00 0.  1.
   -9000007    1    1    2    0  502  0.39314830691E+02  0.25771002282E+02 -0.39314839056E+03  0.56282808874E+03  0.40000000000E+03 0. -1.
<mgrwt>
<rscale>  2 0.40332249E+03</rscale>
<asrwt>0</asrwt>
<pdfrwt beam="1">  1       21 0.25380908E-01 0.40351258E+03</pdfrwt>
<pdfrwt beam="2">  1       21 0.15168375E+00 0.40351258E+03</pdfrwt>
<totfact> 0.37658032E+03</totfact>
</mgrwt>
</event>
<event>
 6    1  0.9399121E-004  0.4353910E+03  0.7818608E-02  0.1032222E+00
         21   -1    0    0  503  502  0.00000000000E+00  0.00000000000E+00  0.57273136049E+03  0.57273136049E+03  0.00000000000E+00 0.  1.
         21   -1    0    0  501  503 -0.00000000000E+00 -0.00000000000E+00 -0.33292308303E+03  0.33292308303E+03  0.00000000000E+00 0. -1.
    9000007    2    1    2  501    0  0.75805041138E+02  0.15246421603E+03  0.81233388502E+02  0.44290425515E+03  0.40071632658E+03 0.  0.
    9000005    1    3    3    0    0  0.74612727312E+02  0.24489191587E+03 -0.70226886527E+02  0.26546548763E+03  0.99999687468E+00 0.  0.
          4    1    3    3  501    0  0.11923138264E+01 -0.92427699835E+02  0.15146027503E+03  0.17743876752E+03  0.00000000000E+00 0.  1.
   -9000007    1    1    2    0  502 -0.75805041138E+02 -0.15246421603E+03  0.15857488896E+03  0.46275018837E+03  0.40000000000E+03 0. -1.
<mgrwt>
<rscale>  2 0.43522610E+03</rscale>
<asrwt>0</asrwt>
<pdfrwt beam="1">  1       21 0.88112517E-01 0.43539099E+03</pdfrwt>
<pdfrwt beam="2">  1       21 0.51218936E-01 0.43539099E+03</pdfrwt>
<totfact> 0.35079655E+03</totfact>
</mgrwt>
</event>
<event>
 6    1  0.9399121E-004  0.4540116E+03  0.7818608E-02  0.1026591E+00
         21   -1    0    0  503  502  0.00000000000E+00  0.00000000000E+00  0.12313986082E+03  0.12313986082E+03  0.00000000000E+00 0.  1.
         21   -1    0    0  501  503 -0.00000000000E+00 -0.00000000000E+00 -0.20213830296E+04  0.20213830296E+04  0.00000000000E+00 0.  1.
    9000007    2    1    2  501    0  0.18443169998E+03 -0.10671100834E+03 -0.13962489772E+04  0.14682090138E+04  0.40090424133E+03 0.  0.
    9000005    1    3    3    0    0  0.20269966127E+03  0.13868052773E+02 -0.28344777388E+03  0.34874505886E+03  0.99999687468E+00 0.  0.
          4    1    3    3  501    0 -0.18267961285E+02 -0.12057906111E+03 -0.11128012033E+04  0.11194639550E+04  0.00000000000E+00 0.  1.
   -9000007    1    1    2    0  502 -0.18443169998E+03  0.10671100834E+03 -0.50199419153E+03  0.67631387653E+03  0.40000000000E+03 0.  1.
<mgrwt>
<rscale>  2 0.45381187E+03</rscale>
<asrwt>0</asrwt>
<pdfrwt beam="1">  1       21 0.18944597E-01 0.45401157E+03</pdfrwt>
<pdfrwt beam="2">  1       21 0.31098196E+00 0.45401157E+03</pdfrwt>
<totfact> 0.59924093E+02</totfact>
</mgrwt>
</event>
<event>
 6    1  0.9399121E-004  0.4119560E+03  0.7818608E-02  0.1039728E+00
         21   -1    0    0  503  502  0.00000000000E+00  0.00000000000E+00  0.76534940550E+03  0.76534940550E+03  0.00000000000E+00 0. -1.
         21   -1    0    0  501  503 -0.00000000000E+00 -0.00000000000E+00 -0.25115610921E+03  0.25115610921E+03  0.00000000000E+00 0. -1.
    9000007    2    1    2  501    0 -0.72357597026E+02 -0.66025412221E+02  0.43129567775E+03  0.59642576982E+03  0.40014092562E+03 0.  0.
    9000005    1    3    3    0    0 -0.11644765888E+03  0.12478670453E+03  0.33981704473E+03  0.38027411531E+03  0.99999687468E+00 0.  0.
          4    1    3    3  501    0  0.44090061854E+02 -0.19081211675E+03  0.91478633013E+02  0.21615165452E+03  0.00000000000E+00 0.  1.
   -9000007    1    1    2    0  502  0.72357597026E+02  0.66025412221E+02  0.82897618540E+02  0.42007974489E+03  0.40000000000E+03 0. -1.
<mgrwt>
<rscale>  2 0.41192176E+03</rscale>
<asrwt>0</asrwt>
<pdfrwt beam="1">  1       21 0.11774606E+00 0.41195599E+03</pdfrwt>
<pdfrwt beam="2">  1       21 0.38639402E-01 0.41195599E+03</pdfrwt>
<totfact> 0.31481847E+03</totfact>
</mgrwt>
</event>
<event>
 6    1  0.9399121E-004  0.4610024E+03  0.7818608E-02  0.1024511E+00
         21   -1    0    0  503  502  0.00000000000E+00  0.00000000000E+00  0.53493481809E+03  0.53493481809E+03  0.00000000000E+00 0.  1.
         21   -1    0    0  501  503 -0.00000000000E+00 -0.00000000000E+00 -0.57179342328E+03  0.57179342328E+03  0.00000000000E+00 0.  1.
    9000007    2    1    2  501    0 -0.22684367215E+03  0.32636619962E+02 -0.32433856284E+03  0.56343464983E+03  0.39967474367E+03 0.  0.
    9000005    1    3    3    0    0  0.10714953644E+02  0.15177873019E+03 -0.24081319797E+03  0.28485713872E+03  0.99999687468E+00 0.  0.
          4    1    3    3  501    0 -0.23755862580E+03 -0.11914211023E+03 -0.83525364875E+02  0.27857751111E+03  0.00000000000E+00 0.  1.
   -9000007    1    1    2    0  502  0.22684367215E+03 -0.32636619962E+02  0.28747995765E+03  0.54329359154E+03  0.40000000000E+03 0.  1.
<mgrwt>
<rscale>  2 0.46093182E+03</rscale>
<asrwt>0</asrwt>
<pdfrwt beam="1">  1       21 0.82297665E-01 0.46100239E+03</pdfrwt>
<pdfrwt beam="2">  1       21 0.87968219E-01 0.46100239E+03</pdfrwt>
<totfact> 0.12149093E+03</totfact>
</mgrwt>
</event>
<event>
 6    1  0.9399121E-004  0.4871398E+03  0.7818608E-02  0.1017382E+00
         21   -1    0    0  503  502  0.00000000000E+00  0.00000000000E+00  0.29740299608E+03  0.29740299608E+03  0.00000000000E+00 0.  1.
         21   -1    0    0  501  503 -0.00000000000E+00 -0.00000000000E+00 -0.80201788371E+03  0.80201788371E+03  0.00000000000E+00 0.  1.
    9000007    2    1    2  501    0 -0.18774663933E+03 -0.20507653127E+03 -0.30883079598E+03  0.57440983723E+03  0.39656653453E+03 0.  0.
    9000005    1    3    3    0    0 -0.23318046177E+02  0.11615772064E+03 -0.42385017158E+02  0.12583257533E+03  0.99999687468E+00 0.  0.
          4    1    3    3  501    0 -0.16442859315E+03 -0.32123425191E+03 -0.26644577882E+03  0.44857726190E+03  0.00000000000E+00 0.  1.
   -9000007    1    1    2    0  502  0.18774663933E+03  0.20507653127E+03 -0.19578409166E+03  0.52501104255E+03  0.40000000000E+03 0.  1.
<mgrwt>
<rscale>  2 0.48643444E+03</rscale>
<asrwt>0</asrwt>
<pdfrwt beam="1">  1       21 0.45754308E-01 0.48713980E+03</pdfrwt>
<pdfrwt beam="2">  1       21 0.12338736E+00 0.48713980E+03</pdfrwt>
<totfact> 0.19131811E+03</totfact>
</mgrwt>
</event>
<event>
 6    1  0.9399121E-004  0.4322539E+03  0.7818608E-02  0.1033237E+00
         21   -1    0    0  503  502  0.00000000000E+00  0.00000000000E+00  0.23767901755E+04  0.23767901755E+04  0.00000000000E+00 0.  1.
         21   -1    0    0  501  503 -0.00000000000E+00 -0.00000000000E+00 -0.23598114342E+03  0.23598114342E+03  0.00000000000E+00 0. -1.
    9000007    2    1    2  501    0  0.11183807973E+03 -0.11566594169E+03  0.33542119168E+01  0.43226691067E+03  0.40119454779E+03 0.  0.
    9000005    1    3    3    0    0  0.12717952622E+03 -0.20106591645E+03 -0.13155544677E+03  0.27186388178E+03  0.99999687468E+00 0.  0.
          4    1    3    3  501    0 -0.15341446490E+02  0.85399974762E+02  0.13490965869E+03  0.16040302889E+03  0.00000000000E+00 0.  1.
   -9000007    1    1    2    0  502 -0.11183807973E+03  0.11566594169E+03  0.21374548202E+04  0.21805044083E+04  0.40000000000E+03 0.  1.
<mgrwt>
<rscale>  2 0.43197651E+03</rscale>
<asrwt>0</asrwt>
<pdfrwt beam="1">  1       21 0.36566001E+00 0.43225390E+03</pdfrwt>
<pdfrwt beam="2">  1       21 0.36304793E-01 0.43225390E+03</pdfrwt>
<totfact> 0.78938750E+01</totfact>
</mgrwt>
</event>
<event>
 6    1  0.9399121E-004  0.4434589E+03  0.7818608E-02  0.1029955E+00
         21   -1    0    0  503  502  0.00000000000E+00  0.00000000000E+00  0.88600071880E+02  0.88600071880E+02  0.00000000000E+00 0.  1.
         21   -1    0    0  501  503 -0.00000000000E+00 -0.00000000000E+00 -0.24365279364E+04  0.24365279364E+04  0.00000000000E+00 0.  1.
    9000007    2    1    2  501    0 -0.18858186338E+03  0.33055396841E+02 -0.15612855280E+04  0.16220986931E+04  0.39615134957E+03 0.  0.
    9000005    1    3    3    0    0 -0.16824954186E+03 -0.15751814160E+03 -0.61891649261E+03  0.66043811072E+03  0.99999687468E+00 0.  0.
          4    1    3    3  501    0 -0.20332321520E+02  0.19057353844E+03 -0.94236903542E+03  0.96166058241E+03  0.00000000000E+00 0.  1.
   -9000007    1    1    2    0  502  0.18858186338E+03 -0.33055396841E+02 -0.78664233647E+03  0.90302931513E+03  0.40000000000E+03 0.  1.
<mgrwt>
<rscale>  2 0.44258924E+03</rscale>
<asrwt>0</asrwt>
<pdfrwt beam="1">  1       21 0.13630781E-01 0.44345888E+03</pdfrwt>
<pdfrwt beam="2">  1       21 0.37485042E+00 0.44345888E+03</pdfrwt>
<totfact> 0.45331029E+02</totfact>
</mgrwt>
</event>
<event>
 6    1  0.9399121E-004  0.4835928E+03  0.7818608E-02  0.1018301E+00
         21   -1    0    0  503  502  0.00000000000E+00  0.00000000000E+00  0.10993687913E+04  0.10993687913E+04  0.00000000000E+00 0. -1.
         21   -1    0    0  501  503 -0.00000000000E+00 -0.00000000000E+00 -0.21215098626E+03  0.21215098626E+03  0.00000000000E+00 0.  1.
    9000007    2    1    2  501    0 -0.26785747051E+03 -0.41798188193E+01  0.47242648801E+03  0.67605386025E+03  0.40261264261E+03 0.  0.
    9000005    1    3    3    0    0 -0.14905971201E+03  0.19820725980E+03  0.26344885426E+03  0.36181654797E+03  0.99999687468E+00 0.  0.
          4    1    3    3  501    0 -0.11879775850E+03 -0.20238707862E+03  0.20897763375E+03  0.31423731228E+03  0.00000000000E+00 0.  1.
   -9000007    1    1    2    0  502  0.26785747051E+03  0.41798188193E+01  0.41479131705E+03  0.63546591734E+03  0.40000000000E+03 0. -1.
<mgrwt>
<rscale>  2 0.48304868E+03</rscale>
<asrwt>0</asrwt>
<pdfrwt beam="1">  1       21 0.16913366E+00 0.48359284E+03</pdfrwt>
<pdfrwt beam="2">  1       21 0.32638614E-01 0.48359284E+03</pdfrwt>
<totfact> 0.16384324E+03</totfact>
</mgrwt>
</event>
<event>
 6    1  0.9399121E-004  0.5460907E+03  0.7818608E-02  0.1002415E+00
         21   -1    0    0  503  502  0.00000000000E+00  0.00000000000E+00  0.20892771139E+03  0.20892771139E+03  0.00000000000E+00 0.  1.
         21   -1    0    0  501  503 -0.00000000000E+00 -0.00000000000E+00 -0.16098236840E+04  0.16098236840E+04  0.00000000000E+00 0.  1.
    9000007    2    1    2  501    0 -0.14514454936E+03  0.34194497458E+03 -0.10071641722E+04  0.11456852497E+04  0.40027704862E+03 0.  0.
    9000005    1    3    3    0    0 -0.71314570116E+02  0.16812296325E+03 -0.79820566367E+02  0.19930735433E+03  0.99999687468E+00 0.  0.
          4    1    3    3  501    0 -0.73829979248E+02  0.17382201133E+03 -0.92734360587E+03  0.94637789535E+03  0.00000000000E+00 0.  1.
   -9000007    1    1    2    0  502  0.14514454936E+03 -0.34194497458E+03 -0.39373180036E+03  0.67306614569E+03  0.40000000000E+03 0.  1.
<mgrwt>
<rscale>  2 0.54603990E+03</rscale>
<asrwt>0</asrwt>
<pdfrwt beam="1">  1       21 0.32142725E-01 0.54609067E+03</pdfrwt>
<pdfrwt beam="2">  1       21 0.24766518E+00 0.54609067E+03</pdfrwt>
<totfact> 0.49570599E+02</totfact>
</mgrwt>
</event>
<event>
 6    1  0.9399121E-004  0.4590132E+03  0.7818608E-02  0.1025735E+00
         21   -1    0    0  503  502  0.00000000000E+00  0.00000000000E+00  0.20513984633E+04  0.20513984633E+04  0.00000000000E+00 0.  1.
         21   -1    0    0  501  503 -0.00000000000E+00 -0.00000000000E+00 -0.15020323814E+03  0.15020323814E+03  0.00000000000E+00 0.  1.
    9000007    2    1    2  501    0  0.80970575410E+02  0.18942276145E+03  0.32493437082E+03  0.56238374841E+03  0.41019010043E+03 0.  0.
    9000005    1    3    3    0    0 -0.12873723896E+03  0.18752408923E+03  0.25407775644E+03  0.34102062554E+03  0.99999687468E+00 0.  0.
          4    1    3    3  501    0  0.20970781437E+03  0.18986722271E+01  0.70856614382E+02  0.22136312286E+03  0.00000000000E+00 0.  1.
   -9000007    1    1    2    0  502 -0.80970575410E+02 -0.18942276145E+03  0.15762608543E+04  0.16392179530E+04  0.40000000000E+03 0.  1.
<mgrwt>
<rscale>  2 0.45672543E+03</rscale>
<asrwt>0</asrwt>
<pdfrwt beam="1">  1       21 0.31559974E+00 0.45901322E+03</pdfrwt>
<pdfrwt beam="2">  1       21 0.23108192E-01 0.45901322E+03</pdfrwt>
<totfact> 0.38327513E+02</totfact>
</mgrwt>
</event>
<event>
 6    1  0.9399121E-004  0.4787051E+03  0.7818608E-02  0.1019515E+00
         21   -1    0    0  503  502  0.00000000000E+00  0.00000000000E+00  0.61188944096E+03  0.61188944096E+03  0.00000000000E+00 0.  1.
         21   -1    0    0  501  503 -0.00000000000E+00 -0.00000000000E+00 -0.43171154306E+03  0.43171154306E+03  0.00000000000E+00 0.  1.
    9000007    2    1    2  501    0 -0.18421077991E+03 -0.18680585736E+03 -0.10026655068E+03  0.48909297821E+03  0.40041043988E+03 0.  0.
    9000005    1    3    3    0    0 -0.15344574617E+03  0.51772372119E+02 -0.17379423211E+03  0.23755296386E+03  0.99999687468E+00 0.  0.
          4    1    3    3  501    0 -0.30765033742E+02 -0.23857822947E+03  0.73527681426E+02  0.25154001434E+03  0.00000000000E+00 0.  1.
   -9000007    1    1    2    0  502  0.18421077991E+03  0.18680585736E+03  0.28044444858E+03  0.55450800582E+03  0.40000000000E+03 0.  1.
<mgrwt>
<rscale>  2 0.47861925E+03</rscale>
<asrwt>0</asrwt>
<pdfrwt beam="1">  1       21 0.94136837E-01 0.47870509E+03</pdfrwt>
<pdfrwt beam="2">  1       21 0.66417161E-01 0.47870509E+03</pdfrwt>
<totfact> 0.16740609E+03</totfact>
</mgrwt>
</event>
<event>
 6    1  0.9399121E-004  0.4121726E+03  0.7818608E-02  0.1039650E+00
         21   -1    0    0  503  502  0.00000000000E+00  0.00000000000E+00  0.41293538412E+03  0.41293538412E+03  0.00000000000E+00 0. -1.
         21   -1    0    0  501  503 -0.00000000000E+00 -0.00000000000E+00 -0.41311582168E+03  0.41311582168E+03  0.00000000000E+00 0. -1.
    9000007    2    1    2  501    0 -0.72324211423E+02  0.67823136720E+02 -0.27138929404E+02  0.41306509258E+03  0.40006934372E+03 0.  0.
    9000005    1    3    3    0    0  0.16062347623E+03  0.62195688217E+02 -0.48848896793E+02  0.17904027329E+03  0.99999687468E+00 0.  0.
          4    1    3    3  501    0 -0.23294768765E+03  0.56274485032E+01  0.21709967390E+02  0.23402481929E+03  0.00000000000E+00 0.  1.
   -9000007    1    1    2    0  502  0.72324211423E+02 -0.67823136720E+02  0.26958491850E+02  0.41298611322E+03  0.40000000000E+03 0. -1.
<mgrwt>
<rscale>  2 0.41215577E+03</rscale>
<asrwt>0</asrwt>
<pdfrwt beam="1">  1       21 0.63528521E-01 0.41217260E+03</pdfrwt>
<pdfrwt beam="2">  1       21 0.63556280E-01 0.41217260E+03</pdfrwt>
<totfact> 0.46666494E+03</totfact>
</mgrwt>
</event>
<event>
 6    1  0.9399121E-004  0.4300417E+03  0.7818608E-02  0.1034327E+00
         21   -1    0    0  503  502  0.00000000000E+00  0.00000000000E+00  0.35118118915E+03  0.35118118915E+03  0.00000000000E+00 0.  1.
         21   -1    0    0  501  503 -0.00000000000E+00 -0.00000000000E+00 -0.53178235124E+03  0.53178235124E+03  0.00000000000E+00 0.  1.
    9000007    2    1    2  501    0  0.10025292042E+03 -0.98657450100E+02 -0.15869576273E+03  0.45838870949E+03  0.40638888195E+03 0.  0.
    9000005    1    3    3    0    0  0.23701404047E+03 -0.10461830630E+03 -0.18583190963E+03  0.31883403837E+03  0.99999687468E+00 0.  0.
          4    1    3    3  501    0 -0.13676112005E+03  0.59608562048E+01  0.27136146901E+02  0.13955467112E+03  0.00000000000E+00 0.  1.
   -9000007    1    1    2    0  502 -0.10025292042E+03  0.98657450100E+02 -0.21905399370E+02  0.42457483090E+03  0.40000000000E+03 0. -1.
<mgrwt>
<rscale>  2 0.42852562E+03</rscale>
<asrwt>0</asrwt>
<pdfrwt beam="1">  1       21 0.54027875E-01 0.43004170E+03</pdfrwt>
<pdfrwt beam="2">  1       21 0.81812670E-01 0.43004170E+03</pdfrwt>
<totfact> 0.37283480E+03</totfact>
</mgrwt>
</event>
<event>
 6    1  0.9399121E-004  0.4621247E+03  0.7818608E-02  0.1024184E+00
         21   -1    0    0  503  502  0.00000000000E+00  0.00000000000E+00  0.23105062997E+03  0.23105062997E+03  0.00000000000E+00 0.  1.
         21   -1    0    0  501  503 -0.00000000000E+00 -0.00000000000E+00 -0.92409045532E+03  0.92409045532E+03  0.00000000000E+00 0.  1.
    9000007    2    1    2  501    0 -0.62391278631E+02 -0.22285997460E+03 -0.33671219511E+03  0.57159278395E+03  0.39972986928E+03 0.  0.
    9000005    1    3    3    0    0  0.79211556093E+01 -0.32395190082E+03 -0.30366470030E+03  0.44409551782E+03  0.99999687468E+00 0.  0.
          4    1    3    3  501    0 -0.70312434240E+02  0.10109192622E+03 -0.33047494816E+02  0.12749726613E+03  0.00000000000E+00 0.  1.
   -9000007    1    1    2    0  502  0.62391278631E+02  0.22285997460E+03 -0.35632763023E+03  0.58354830134E+03  0.40000000000E+03 0. -1.
<mgrwt>
<rscale>  2 0.46206624E+03</rscale>
<asrwt>0</asrwt>
<pdfrwt beam="1">  1       21 0.35546251E-01 0.46212470E+03</pdfrwt>
<pdfrwt beam="2">  1       21 0.14216776E+00 0.46212470E+03</pdfrwt>
<totfact> 0.22448576E+03</totfact>
</mgrwt>
</event>
<event>
 6    1  0.9399121E-004  0.4115561E+03  0.7818608E-02  0.1039917E+00
         21   -1    0    0  503  502  0.00000000000E+00  0.00000000000E+00  0.26996424655E+04  0.26996424655E+04  0.00000000000E+00 0.  1.
         21   -1    0    0  501  503 -0.00000000000E+00 -0.00000000000E+00 -0.63131646985E+02  0.63131646985E+02  0.00000000000E+00 0.  1.
    9000007    2    1    2  501    0  0.80976516637E+02  0.46514922092E+02  0.14439829964E+04  0.15014876895E+04  0.40082109934E+03 0.  0.
    9000005    1    3    3    0    0  0.18720110282E+03 -0.10323205219E+03  0.96795261237E+03  0.99127915810E+03  0.99999687468E+00 0.  0.
          4    1    3    3  501    0 -0.10622458618E+03  0.14974697429E+03  0.47603038405E+03  0.51020853144E+03  0.00000000000E+00 0.  1.
   -9000007    1    1    2    0  502 -0.80976516637E+02 -0.46514922092E+02  0.11925278221E+04  0.12612864229E+04  0.40000000000E+03 0.  1.
<mgrwt>
<rscale>  2 0.41135600E+03</rscale>
<asrwt>0</asrwt>
<pdfrwt beam="1">  1       21 0.41532952E+00 0.41155606E+03</pdfrwt>
<pdfrwt beam="2">  1       21 0.97125631E-02 0.41155606E+03</pdfrwt>
<totfact> 0.47274472E+02</totfact>
</mgrwt>
</event>
<event>
 6    1  0.9399121E-004  0.4732530E+03  0.7818608E-02  0.1021036E+00
         21   -1    0    0  503  502  0.00000000000E+00  0.00000000000E+00  0.45126587672E+03  0.45126587672E+03  0.00000000000E+00 0.  1.
         21   -1    0    0  501  503 -0.00000000000E+00 -0.00000000000E+00 -0.69640069927E+03  0.69640069927E+03  0.00000000000E+00 0. -1.
    9000007    2    1    2  501    0  0.22042820308E+02  0.25195744702E+03 -0.43046012696E+03  0.63942066161E+03  0.39949270401E+03 0.  0.
    9000005    1    3    3    0    0  0.31630307606E+02  0.35592783420E+03 -0.38579937365E+03  0.52585858956E+03  0.99999687468E+00 0.  0.
          4    1    3    3  501    0 -0.95874872983E+01 -0.10397038717E+03 -0.44660753305E+02  0.11356207204E+03  0.00000000000E+00 0.  1.
   -9000007    1    1    2    0  502 -0.22042820308E+02 -0.25195744702E+03  0.18532530440E+03  0.50824591438E+03  0.40000000000E+03 0.  1.
<mgrwt>
<rscale>  2 0.47314583E+03</rscale>
<asrwt>0</asrwt>
<pdfrwt beam="1">  1       21 0.69425519E-01 0.47325304E+03</pdfrwt>
<pdfrwt beam="2">  1       21 0.10713857E+00 0.47325304E+03</pdfrwt>
<totfact> 0.11082285E+03</totfact>
</mgrwt>
</event>
<event>
 6    1  0.9399121E-004  0.5076380E+03  0.7818608E-02  0.1011814E+00
         21   -1    0    0  503  502  0.00000000000E+00  0.00000000000E+00  0.50105217807E+03  0.50105217807E+03  0.00000000000E+00 0.  1.
         21   -1    0    0  501  503 -0.00000000000E+00 -0.00000000000E+00 -0.59677082005E+03  0.59677082005E+03  0.00000000000E+00 0.  1.
    9000007    2    1    2  501    0 -0.17610331904E+02  0.31206767448E+03 -0.25208842615E+03  0.56664706997E+03  0.39980491500E+03 0.  0.
    9000005    1    3    3    0    0  0.17594323670E+03  0.22552594128E+03 -0.19785399177E+03  0.34780048129E+03  0.99999687468E+00 0.  0.
          4    1    3    3  501    0 -0.19355356860E+03  0.86541733203E+02 -0.54234434380E+02  0.21884658868E+03  0.00000000000E+00 0.  1.
   -9000007    1    1    2    0  502  0.17610331904E+02 -0.31206767448E+03  0.15636978418E+03  0.53117592815E+03  0.40000000000E+03 0.  1.
<mgrwt>
<rscale>  2 0.50759959E+03</rscale>
<asrwt>0</asrwt>
<pdfrwt beam="1">  1       21 0.77084950E-01 0.50763802E+03</pdfrwt>
<pdfrwt beam="2">  1       21 0.91810896E-01 0.50763802E+03</pdfrwt>
<totfact> 0.12551006E+03</totfact>
</mgrwt>
</event>
<event>
 6    1  0.9399121E-004  0.4587720E+03  0.7818608E-02  0.1025169E+00
         21   -1    0    0  503  502  0.00000000000E+00  0.00000000000E+00  0.44423765785E+03  0.44423765785E+03  0.00000000000E+00 0. -1.
         21   -1    0    0  501  503 -0.00000000000E+00 -0.00000000000E+00 -0.47346106413E+03  0.47346106413E+03  0.00000000000E+00 0. -1.
    9000007    2    1    2  501    0 -0.13315484300E+03 -0.17987908678E+03 -0.21698538058E+02  0.45928480234E+03  0.40048096713E+03 0.  0.
    9000005    1    3    3    0    0 -0.24673091060E+03 -0.22746352805E+03 -0.12981256166E+02  0.33583524509E+03  0.99999687468E+00 0.  0.
          4    1    3    3  501    0  0.11357606760E+03  0.47584441263E+02 -0.87172818918E+01  0.12344955725E+03  0.00000000000E+00 0.  1.
   -9000007    1    1    2    0  502  0.13315484300E+03  0.17987908678E+03 -0.75248682301E+01  0.45841391964E+03  0.40000000000E+03 0. -1.
<mgrwt>
<rscale>  2 0.45866697E+03</rscale>
<asrwt>0</asrwt>
<pdfrwt beam="1">  1       21 0.68344256E-01 0.45877195E+03</pdfrwt>
<pdfrwt beam="2">  1       21 0.72840163E-01 0.45877195E+03</pdfrwt>
<totfact> 0.28749177E+03</totfact>
</mgrwt>
</event>
<event>
 6    1  0.9399121E-004  0.4344694E+03  0.7818608E-02  0.1032461E+00
         21   -1    0    0  503  502  0.00000000000E+00  0.00000000000E+00  0.76496949144E+03  0.76496949144E+03  0.00000000000E+00 0.  1.
         21   -1    0    0  501  503 -0.00000000000E+00 -0.00000000000E+00 -0.30314225623E+03  0.30314225623E+03  0.00000000000E+00 0. -1.
    9000007    2    1    2  501    0  0.97090680452E+02 -0.13905765628E+03  0.52379165544E+00  0.43442057759E+03  0.39994666129E+03 0.  0.
    9000005    1    3    3    0    0 -0.10420232978E+03 -0.18383209887E+03 -0.59716465764E+02  0.21958921281E+03  0.99999687468E+00 0.  0.
          4    1    3    3  501    0  0.20129301023E+03  0.44774442593E+02  0.60240257419E+02  0.21483136478E+03  0.00000000000E+00 0.  1.
   -9000007    1    1    2    0  502 -0.97090680452E+02  0.13905765628E+03  0.46130344356E+03  0.63369117008E+03  0.40000000000E+03 0.  1.
<mgrwt>
<rscale>  2 0.43445709E+03</rscale>
<asrwt>0</asrwt>
<pdfrwt beam="1">  1       21 0.11768761E+00 0.43446937E+03</pdfrwt>
<pdfrwt beam="2">  1       21 0.46637271E-01 0.43446937E+03</pdfrwt>
<totfact> 0.21146311E+03</totfact>
</mgrwt>
</event>
<event>
 6    1  0.9399121E-004  0.5511820E+03  0.7818608E-02  0.1001223E+00
         21   -1    0    0  503  502  0.00000000000E+00  0.00000000000E+00  0.58444395427E+03  0.58444395427E+03  0.00000000000E+00 0. -1.
         21   -1    0    0  501  503 -0.00000000000E+00 -0.00000000000E+00 -0.58827250540E+03  0.58827250540E+03  0.00000000000E+00 0.  1.
    9000007    2    1    2  501    0 -0.14624260369E+03  0.34980795360E+03 -0.20200349682E+03  0.58703240437E+03  0.40006140468E+03 0.  0.
    9000005    1    3    3    0    0  0.81712024473E+02  0.30649907283E+03 -0.92220619228E+02  0.33033949082E+03  0.99999687468E+00 0.  0.
          4    1    3    3  501    0 -0.22795462816E+03  0.43308880767E+02 -0.10978287759E+03  0.25669291355E+03  0.00000000000E+00 0.  1.
   -9000007    1    1    2    0  502  0.14624260369E+03 -0.34980795360E+03  0.19817494569E+03  0.58568405530E+03  0.40000000000E+03 0.  1.
<mgrwt>
<rscale>  2 0.55117089E+03</rscale>
<asrwt>0</asrwt>
<pdfrwt beam="1">  1       21 0.89914455E-01 0.55118203E+03</pdfrwt>
<pdfrwt beam="2">  1       21 0.90503462E-01 0.55118203E+03</pdfrwt>
<totfact> 0.89265710E+02</totfact>
</mgrwt>
</event>
<event>
 6    1  0.9399121E-004  0.4262637E+03  0.7818608E-02  0.1035134E+00
         21   -1    0    0  503  502  0.00000000000E+00  0.00000000000E+00  0.57866020485E+03  0.57866020485E+03  0.00000000000E+00 0.  1.
         21   -1    0    0  501  503 -0.00000000000E+00 -0.00000000000E+00 -0.74104779727E+03  0.74104779727E+03  0.00000000000E+00 0.  1.
    9000007    2    1    2  501    0 -0.68812036754E+02  0.13025230586E+03 -0.58253437610E+03  0.72118976563E+03  0.39883282104E+03 0.  0.
    9000005    1    3    3    0    0  0.44282590648E+02  0.21790392366E+03 -0.15688381784E+03  0.27213342330E+03  0.99999687468E+00 0.  0.
          4    1    3    3  501    0 -0.11309462740E+03 -0.87651617800E+02 -0.42565055825E+03  0.44905634234E+03  0.00000000000E+00 0.  1.
   -9000007    1    1    2    0  502  0.68812036754E+02 -0.13025230586E+03  0.42014678367E+03  0.59851823649E+03  0.40000000000E+03 0.  1.
<mgrwt>
<rscale>  2 0.42598969E+03</rscale>
<asrwt>0</asrwt>
<pdfrwt beam="1">  1       21 0.89024647E-01 0.42626372E+03</pdfrwt>
<pdfrwt beam="2">  1       21 0.11400735E+00 0.42626372E+03</pdfrwt>
<totfact> 0.54654857E+02</totfact>
</mgrwt>
</event>
<event>
 6    1  0.9399121E-004  0.5259347E+03  0.7818608E-02  0.1007227E+00
         21   -1    0    0  503  502  0.00000000000E+00  0.00000000000E+00  0.14004228709E+04  0.14004228709E+04  0.00000000000E+00 0. -1.
         21   -1    0    0  501  503 -0.00000000000E+00 -0.00000000000E+00 -0.24296714107E+03  0.24296714107E+03  0.00000000000E+00 0. -1.
    9000007    2    1    2  501    0  0.24181951953E+03  0.24094567079E+03  0.93425535524E+03  0.10721195826E+04  0.40009478151E+03 0.  0.
    9000005    1    3    3    0    0  0.18584751539E+03  0.22967411636E+03  0.96363374337E+03  0.10079089691E+04  0.99999687468E+00 0.  0.
          4    1    3    3  501    0  0.55972004135E+02  0.11271554429E+02 -0.29378388130E+02  0.64210613416E+02  0.00000000000E+00 0.  1.
   -9000007    1    1    2    0  502 -0.24181951953E+03 -0.24094567079E+03  0.22320037458E+03  0.57127042940E+03  0.40000000000E+03 0. -1.
<mgrwt>
<rscale>  2 0.52591669E+03</rscale>
<asrwt>0</asrwt>
<pdfrwt beam="1">  1       21 0.21544967E+00 0.52593472E+03</pdfrwt>
<pdfrwt beam="2">  1       21 0.37379561E-01 0.52593472E+03</pdfrwt>
<totfact> 0.58882454E+02</totfact>
</mgrwt>
</event>
<event>
 6    1  0.9399121E-004  0.4960834E+03  0.7818608E-02  0.1014875E+00
         21   -1    0    0  503  502  0.00000000000E+00  0.00000000000E+00  0.11796681913E+04  0.11796681913E+04  0.00000000000E+00 0. -1.
         21   -1    0    0  501  503 -0.00000000000E+00 -0.00000000000E+00 -0.28303766747E+03  0.28303766747E+03  0.00000000000E+00 0. -1.
    9000007    2    1    2  501    0 -0.27496029791E+03  0.97248581840E+02  0.82478918807E+03  0.96248427829E+03  0.40129581246E+03 0.  0.
    9000005    1    3    3    0    0 -0.33812945108E+03  0.52599637047E+02  0.81573191235E+03  0.88460036193E+03  0.99999687468E+00 0.  0.
          4    1    3    3  501    0  0.63169153170E+02  0.44648944793E+02  0.90572757152E+01  0.77883916355E+02  0.00000000000E+00 0.  1.
   -9000007    1    1    2    0  502  0.27496029791E+03 -0.97248581840E+02  0.71841335796E+02  0.50022158053E+03  0.40000000000E+03 0. -1.
<mgrwt>
<rscale>  2 0.49582133E+03</rscale>
<asrwt>0</asrwt>
<pdfrwt beam="1">  1       21 0.18148741E+00 0.49608344E+03</pdfrwt>
<pdfrwt beam="2">  1       21 0.43544257E-01 0.49608344E+03</pdfrwt>
<totfact> 0.73646140E+02</totfact>
</mgrwt>
</event>
<event>
 6    1  0.9399121E-004  0.4962180E+03  0.7818608E-02  0.1014791E+00
         21   -1    0    0  503  502  0.00000000000E+00  0.00000000000E+00  0.22903705962E+03  0.22903705962E+03  0.00000000000E+00 0. -1.
         21   -1    0    0  501  503 -0.00000000000E+00 -0.00000000000E+00 -0.11398464854E+04  0.11398464854E+04  0.00000000000E+00 0.  1.
    9000007    2    1    2  501    0  0.28802038914E+03 -0.54513315537E+02 -0.61952920070E+03  0.79375606730E+03  0.40038084086E+03 0.  0.
    9000005    1    3    3    0    0  0.14811358383E+03 -0.12742696898E+03 -0.48477308698E+02  0.20131148898E+03  0.99999687468E+00 0.  0.
          4    1    3    3  501    0  0.13990680530E+03  0.72913653448E+02 -0.57105189201E+03  0.59244457833E+03  0.00000000000E+00 0.  1.
   -9000007    1    1    2    0  502 -0.28802038914E+03  0.54513315537E+02 -0.29128022511E+03  0.57512747776E+03  0.40000000000E+03 0. -1.
<mgrwt>
<rscale>  2 0.49614113E+03</rscale>
<asrwt>0</asrwt>
<pdfrwt beam="1">  1       21 0.35236471E-01 0.49621796E+03</pdfrwt>
<pdfrwt beam="2">  1       21 0.17536100E+00 0.49621796E+03</pdfrwt>
<totfact> 0.12589104E+03</totfact>
</mgrwt>
</event>
<event>
 6    1  0.9399121E-004  0.4589325E+03  0.7818608E-02  0.1025113E+00
         21   -1    0    0  503  502  0.00000000000E+00  0.00000000000E+00  0.19540095847E+04  0.19540095847E+04  0.00000000000E+00 0.  1.
         21   -1    0    0  501  503 -0.00000000000E+00 -0.00000000000E+00 -0.13968348209E+03  0.13968348209E+03  0.00000000000E+00 0.  1.
    9000007    2    1    2  501    0  0.22370359952E+03 -0.23994232969E+02  0.40615038686E+03  0.61261985115E+03  0.39965725518E+03 0.  0.
    9000005    1    3    3    0    0  0.10368821477E+02 -0.91323722760E+02  0.37578277147E+03  0.38686073221E+03  0.99999687468E+00 0.  0.
          4    1    3    3  501    0  0.21333477804E+03  0.67329489791E+02  0.30367615392E+02  0.22575911894E+03  0.00000000000E+00 0.  1.
   -9000007    1    1    2    0  502 -0.22370359952E+03  0.23994232969E+02  0.14081757157E+04  0.14810732156E+04  0.40000000000E+03 0.  1.
<mgrwt>
<rscale>  2 0.45885779E+03</rscale>
<asrwt>0</asrwt>
<pdfrwt beam="1">  1       21 0.30061684E+00 0.45893248E+03</pdfrwt>
<pdfrwt beam="2">  1       21 0.21489768E-01 0.45893248E+03</pdfrwt>
<totfact> 0.54259093E+02</totfact>
</mgrwt>
</event>
<event>
 6    1  0.9399121E-004  0.7123979E+03  0.7818608E-02  0.9698866E-01
         21   -1    0    0  503  502  0.00000000000E+00  0.00000000000E+00  0.46769444323E+03  0.46769444323E+03  0.00000000000E+00 0.  1.
         21   -1    0    0  501  503 -0.00000000000E+00 -0.00000000000E+00 -0.10780650012E+04  0.10780650012E+04  0.00000000000E+00 0.  1.
    9000007    2    1    2  501    0 -0.27212052457E+03  0.52293513594E+03 -0.26775530363E+03  0.75525583988E+03  0.38885440045E+03 0.  0.
    9000005    1    3    3    0    0 -0.10153441323E+03 -0.28981299638E+01  0.54598898781E+02  0.11532422109E+03  0.99999687468E+00 0.  0.
          4    1    3    3  501    0 -0.17058611134E+03  0.52583326591E+03 -0.32235420241E+03  0.63993161879E+03  0.00000000000E+00 0.  1.
   -9000007    1    1    2    0  502  0.27212052457E+03 -0.52293513594E+03 -0.34261525433E+03  0.79050360454E+03  0.40000000000E+03 0.  1.
<mgrwt>
<rscale>  2 0.71084333E+03</rscale>
<asrwt>0</asrwt>
<pdfrwt beam="1">  1       21 0.71952992E-01 0.71239788E+03</pdfrwt>
<pdfrwt beam="2">  1       21 0.16585615E+00 0.71239788E+03</pdfrwt>
<totfact> 0.29638641E+02</totfact>
</mgrwt>
</event>
<event>
 6    1  0.9399121E-004  0.4262878E+03  0.7818608E-02  0.1035040E+00
         21   -1    0    0  503  502  0.00000000000E+00  0.00000000000E+00  0.97289201443E+03  0.97289201443E+03  0.00000000000E+00 0. -1.
         21   -1    0    0  501  503 -0.00000000000E+00 -0.00000000000E+00 -0.36183542530E+03  0.36183542530E+03  0.00000000000E+00 0. -1.
    9000007    2    1    2  501    0 -0.11632193367E+03  0.90501254998E+02 -0.15866032473E+03  0.45484938176E+03  0.39999198996E+03 0.  0.
    9000005    1    3    3    0    0  0.24489876845E+02 -0.12275157196E+03  0.39733889449E+02  0.13132967849E+03  0.99999687468E+00 0.  0.
          4    1    3    3  501    0 -0.14081181051E+03  0.21325282696E+03 -0.19839421418E+03  0.32351970327E+03  0.00000000000E+00 0.  1.
   -9000007    1    1    2    0  502  0.11632193367E+03 -0.90501254998E+02  0.76971691386E+03  0.87987805797E+03  0.40000000000E+03 0. -1.
<mgrwt>
<rscale>  2 0.42628590E+03</rscale>
<asrwt>0</asrwt>
<pdfrwt beam="1">  1       21 0.14967569E+00 0.42628778E+03</pdfrwt>
<pdfrwt beam="2">  1       21 0.55666989E-01 0.42628778E+03</pdfrwt>
<totfact> 0.77634773E+02</totfact>
</mgrwt>
</event>
<event>
 6    1  0.9399121E-004  0.4233177E+03  0.7818608E-02  0.1036004E+00
         21   -1    0    0  503  502  0.00000000000E+00  0.00000000000E+00  0.30503559119E+03  0.30503559119E+03  0.00000000000E+00 0. -1.
         21   -1    0    0  501  503 -0.00000000000E+00 -0.00000000000E+00 -0.17154971730E+04  0.17154971730E+04  0.00000000000E+00 0. -1.
    9000007    2    1    2  501    0 -0.13752738503E+03 -0.16855525184E+02 -0.15244864423E+04  0.15821270627E+04  0.39983651576E+03 0.  0.
    9000005    1    3    3    0    0 -0.19355018745E+03 -0.10363631067E+03 -0.14137400166E+04  0.14306865465E+04  0.99999687468E+00 0.  0.
          4    1    3    3  501    0  0.56022802423E+02  0.86780785488E+02 -0.11074642572E+03  0.15144051615E+03  0.00000000000E+00 0.  1.
   -9000007    1    1    2    0  502  0.13752738503E+03  0.16855525184E+02  0.11402486044E+03  0.43840570156E+03  0.40000000000E+03 0. -1.
<mgrwt>
<rscale>  2 0.42327909E+03</rscale>
<asrwt>0</asrwt>
<pdfrwt beam="1">  1       21 0.46928552E-01 0.42331772E+03</pdfrwt>
<pdfrwt beam="2">  1       21 0.26392264E+00 0.42331772E+03</pdfrwt>
<totfact> 0.19283799E+02</totfact>
</mgrwt>
</event>
<event>
 6    1  0.9399121E-004  0.6473614E+03  0.7818608E-02  0.9811881E-01
         21   -1    0    0  503  502  0.00000000000E+00  0.00000000000E+00  0.10891506480E+04  0.10891506480E+04  0.00000000000E+00 0. -1.
         21   -1    0    0  501  503 -0.00000000000E+00 -0.00000000000E+00 -0.42519393626E+03  0.42519393626E+03  0.00000000000E+00 0. -1.
    9000007    2    1    2  501    0 -0.17408162629E+01 -0.50862200912E+03  0.98093158446E+02  0.65475111084E+03  0.40047143570E+03 0.  0.
    9000005    1    3    3    0    0 -0.65373818919E+02 -0.54445423387E+03  0.21302028108E+02  0.54877948702E+03  0.99999687468E+00 0.  0.
          4    1    3    3  501    0  0.63633002656E+02  0.35832224746E+02  0.76791130338E+02  0.10597162382E+03  0.00000000000E+00 0.  1.
   -9000007    1    1    2    0  502  0.17408162629E+01  0.50862200912E+03  0.56586355332E+03  0.85959347344E+03  0.40000000000E+03 0. -1.
<mgrwt>
<rscale>  2 0.64728848E+03</rscale>
<asrwt>0</asrwt>
<pdfrwt beam="1">  1       21 0.16756164E+00 0.64736137E+03</pdfrwt>
<pdfrwt beam="2">  1       21 0.65414452E-01 0.64736137E+03</pdfrwt>
<totfact> 0.36452840E+02</totfact>
</mgrwt>
</event>
<event>
 6    1  0.9399121E-004  0.4387102E+03  0.7818608E-02  0.1031168E+00
         21   -1    0    0  503  502  0.00000000000E+00  0.00000000000E+00  0.86386113008E+03  0.86386113008E+03  0.00000000000E+00 0. -1.
         21   -1    0    0  501  503 -0.00000000000E+00 -0.00000000000E+00 -0.48098659603E+03  0.48098659603E+03  0.00000000000E+00 0. -1.
    9000007    2    1    2  501    0 -0.80778818241E+02 -0.16017314398E+03 -0.30134512801E+03  0.53223638022E+03  0.40035737127E+03 0.  0.
    9000005    1    3    3    0    0 -0.11073007857E+03 -0.18558062292E+03  0.11999247250E+02  0.21644006060E+03  0.99999687468E+00 0.  0.
          4    1    3    3  501    0  0.29951260326E+02  0.25407478945E+02 -0.31334437526E+03  0.31579631962E+03  0.00000000000E+00 0.  1.
   -9000007    1    1    2    0  502  0.80778818241E+02  0.16017314398E+03  0.68421966205E+03  0.81261134589E+03  0.40000000000E+03 0. -1.
<mgrwt>
<rscale>  2 0.43862870E+03</rscale>
<asrwt>0</asrwt>
<pdfrwt beam="1">  1       21 0.13290171E+00 0.43871024E+03</pdfrwt>
<pdfrwt beam="2">  1       21 0.73997938E-01 0.43871024E+03</pdfrwt>
<totfact> 0.56356002E+02</totfact>
</mgrwt>
</event>
<event>
 6    1  0.9399121E-004  0.4262896E+03  0.7818608E-02  0.1035051E+00
         21   -1    0    0  503  502  0.00000000000E+00  0.00000000000E+00  0.53091213175E+03  0.53091213175E+03  0.00000000000E+00 0. -1.
         21   -1    0    0  501  503 -0.00000000000E+00 -0.00000000000E+00 -0.34246693865E+03  0.34246693865E+03  0.00000000000E+00 0. -1.
    9000007    2    1    2  501    0  0.11484876291E+03 -0.91671514540E+02  0.10725339537E+03  0.43957495224E+03  0.40016114616E+03 0.  0.
    9000005    1    3    3    0    0  0.26472397749E+03 -0.44971668492E+02  0.54733927313E+02  0.27404021241E+03  0.99999687468E+00 0.  0.
          4    1    3    3  501    0 -0.14987521458E+03 -0.46699846048E+02  0.52519468060E+02  0.16553473983E+03  0.00000000000E+00 0.  1.
   -9000007    1    1    2    0  502 -0.11484876291E+03  0.91671514540E+02  0.81191797721E+02  0.43380411817E+03  0.40000000000E+03 0. -1.
<mgrwt>
<rscale>  2 0.42625181E+03</rscale>
<asrwt>0</asrwt>
<pdfrwt beam="1">  1       21 0.81678790E-01 0.42628963E+03</pdfrwt>
<pdfrwt beam="2">  1       21 0.52687221E-01 0.42628963E+03</pdfrwt>
<totfact> 0.39551992E+03</totfact>
</mgrwt>
</event>
<event>
 6    1  0.9399121E-004  0.4459737E+03  0.7818608E-02  0.1028971E+00
         21   -1    0    0  503  502  0.00000000000E+00  0.00000000000E+00  0.49357019078E+03  0.49357019078E+03  0.00000000000E+00 0. -1.
         21   -1    0    0  501  503 -0.00000000000E+00 -0.00000000000E+00 -0.40316496261E+03  0.40316496261E+03  0.00000000000E+00 0. -1.
    9000007    2    1    2  501    0 -0.49657349961E+02 -0.18957669503E+03  0.26657496200E+02  0.44676965579E+03  0.40060869627E+03 0.  0.
    9000005    1    3    3    0    0  0.10754489407E+03 -0.77148288892E+02  0.16320561462E+03  0.21013051981E+03  0.99999687468E+00 0.  0.
          4    1    3    3  501    0 -0.15720224403E+03 -0.11242840614E+03 -0.13654811842E+03  0.23663913598E+03  0.00000000000E+00 0.  1.
   -9000007    1    1    2    0  502  0.49657349961E+02  0.18957669503E+03  0.63747731972E+02  0.44996549760E+03  0.40000000000E+03 0. -1.
<mgrwt>
<rscale>  2 0.44583692E+03</rscale>
<asrwt>0</asrwt>
<pdfrwt beam="1">  1       21 0.75933875E-01 0.44597366E+03</pdfrwt>
<pdfrwt beam="2">  1       21 0.62025379E-01 0.44597366E+03</pdfrwt>
<totfact> 0.32591188E+03</totfact>
</mgrwt>
</event>
<event>
 6    1  0.9399121E-004  0.4863963E+03  0.7818608E-02  0.1017531E+00
         21   -1    0    0  503  502  0.00000000000E+00  0.00000000000E+00  0.27984481250E+03  0.27984481250E+03  0.00000000000E+00 0. -1.
         21   -1    0    0  501  503 -0.00000000000E+00 -0.00000000000E+00 -0.15038108163E+04  0.15038108163E+04  0.00000000000E+00 0. -1.
    9000007    2    1    2  501    0  0.20439084293E+03 -0.18656300064E+03 -0.12029607415E+04  0.12968059693E+04  0.39750447363E+03 0.  0.
    9000005    1    3    3    0    0  0.40170077891E+02 -0.95503347055E+02 -0.10486557958E+04  0.10537620711E+04  0.99999687468E+00 0.  0.
          4    1    3    3  501    0  0.16422076504E+03 -0.91059653581E+02 -0.15430494570E+03  0.24304389819E+03  0.00000000000E+00 0.  1.
   -9000007    1    1    2    0  502 -0.20439084293E+03  0.18656300064E+03 -0.21005262272E+02  0.48684965947E+03  0.40000000000E+03 0. -1.
<mgrwt>
<rscale>  2 0.48588295E+03</rscale>
<asrwt>0</asrwt>
<pdfrwt beam="1">  1       21 0.43053048E-01 0.48639631E+03</pdfrwt>
<pdfrwt beam="2">  1       21 0.23135551E+00 0.48639631E+03</pdfrwt>
<totfact> 0.35416474E+02</totfact>
</mgrwt>
</event>
<event>
 6    1  0.9399121E-004  0.4482884E+03  0.7818608E-02  0.1028530E+00
         21   -1    0    0  503  502  0.00000000000E+00  0.00000000000E+00  0.10996277697E+04  0.10996277697E+04  0.00000000000E+00 0. -1.
         21   -1    0    0  501  503 -0.00000000000E+00 -0.00000000000E+00 -0.25368070380E+03  0.25368070380E+03  0.00000000000E+00 0. -1.
    9000007    2    1    2  501    0 -0.30809303837E+02  0.19105649931E+03  0.62506962379E+02  0.45262529117E+03  0.40436460618E+03 0.  0.
    9000005    1    3    3    0    0  0.20494385120E+02  0.82731146162E+01 -0.15920695118E+03  0.16073679587E+03  0.99999687468E+00 0.  0.
          4    1    3    3  501    0 -0.51303688957E+02  0.18278338469E+03  0.22171391356E+03  0.29188849530E+03  0.00000000000E+00 0.  1.
   -9000007    1    1    2    0  502  0.30809303837E+02 -0.19105649931E+03  0.78344010356E+03  0.90068318237E+03  0.40000000000E+03 0. -1.
<mgrwt>
<rscale>  2 0.44730196E+03</rscale>
<asrwt>0</asrwt>
<pdfrwt beam="1">  1       21 0.16917350E+00 0.44828845E+03</pdfrwt>
<pdfrwt beam="2">  1       21 0.39027801E-01 0.44828845E+03</pdfrwt>
<totfact> 0.11556120E+03</totfact>
</mgrwt>
</event>
<event>
 6    1  0.9399121E-004  0.4307587E+03  0.7818608E-02  0.1033652E+00
         21   -1    0    0  503  502  0.00000000000E+00  0.00000000000E+00  0.10428530438E+04  0.10428530438E+04  0.00000000000E+00 0. -1.
         21   -1    0    0  501  503 -0.00000000000E+00 -0.00000000000E+00 -0.17779107363E+03  0.17779107363E+03  0.00000000000E+00 0. -1.
    9000007    2    1    2  501    0  0.97782892033E+02  0.12645774117E+03  0.43966414813E+03  0.61523816992E+03  0.39957525987E+03 0.  0.
    9000005    1    3    3    0    0  0.39714810831E+02 -0.78192601881E+02  0.38600805240E+03  0.39584664417E+03  0.99999687468E+00 0.  0.
          4    1    3    3  501    0  0.58068081202E+02  0.20465034305E+03  0.53656095734E+02  0.21939152576E+03  0.00000000000E+00 0.  1.
   -9000007    1    1    2    0  502 -0.97782892033E+02 -0.12645774117E+03  0.42539782200E+03  0.60540594748E+03  0.40000000000E+03 0.  1.
<mgrwt>
<rscale>  2 0.43066007E+03</rscale>
<asrwt>0</asrwt>
<pdfrwt beam="1">  1       21 0.16043893E+00 0.43075870E+03</pdfrwt>
<pdfrwt beam="2">  1       21 0.27352474E-01 0.43075870E+03</pdfrwt>
<totfact> 0.27576560E+03</totfact>
</mgrwt>
</event>
<event>
 6    1  0.9399121E-004  0.4703577E+03  0.7818608E-02  0.1021886E+00
         21   -1    0    0  503  502  0.00000000000E+00  0.00000000000E+00  0.36846128384E+03  0.36846128384E+03  0.00000000000E+00 0. -1.
         21   -1    0    0  501  503 -0.00000000000E+00 -0.00000000000E+00 -0.88379339103E+03  0.88379339103E+03  0.00000000000E+00 0.  1.
    9000007    2    1    2  501    0 -0.24534994660E+03 -0.12351897488E+02 -0.61312723276E+03  0.77276218039E+03  0.40110748962E+03 0.  0.
    9000005    1    3    3    0    0  0.22726789400E+02  0.15142014952E+03 -0.24387691431E+03  0.28796096604E+03  0.99999687468E+00 0.  0.
          4    1    3    3  501    0 -0.26807673600E+03 -0.16377204700E+03 -0.36925031845E+03  0.48480121435E+03  0.00000000000E+00 0.  1.
   -9000007    1    1    2    0  502  0.24534994660E+03  0.12351897488E+02  0.97795125571E+02  0.47949249447E+03  0.40000000000E+03 0. -1.
<mgrwt>
<rscale>  2 0.47012152E+03</rscale>
<asrwt>0</asrwt>
<pdfrwt beam="1">  1       21 0.56686351E-01 0.47035772E+03</pdfrwt>
<pdfrwt beam="2">  1       21 0.13596821E+00 0.47035772E+03</pdfrwt>
<totfact> 0.94674452E+02</totfact>
</mgrwt>
</event>
<event>
 6    1  0.9399121E-004  0.6995725E+03  0.7818608E-02  0.9717988E-01
         21   -1    0    0  503  502  0.00000000000E+00  0.00000000000E+00  0.62557855404E+03  0.62557855404E+03  0.00000000000E+00 0.  1.
         21   -1    0    0  501  503 -0.00000000000E+00 -0.00000000000E+00 -0.83420661272E+03  0.83420661272E+03  0.00000000000E+00 0.  1.
    9000007    2    1    2  501    0 -0.55501420848E+03  0.14615385823E+03 -0.28645902419E+03  0.75589641057E+03  0.39989859850E+03 0.  0.
    9000005    1    3    3    0    0  0.31808466804E+02  0.10004956986E+02  0.54343966006E+02  0.63766326221E+02  0.99999687468E+00 0.  0.
          4    1    3    3  501    0 -0.58682267528E+03  0.13614890125E+03 -0.34080299020E+03  0.69213008435E+03  0.00000000000E+00 0.  1.
   -9000007    1    1    2    0  502  0.55501420848E+03 -0.14615385823E+03  0.77830965515E+02  0.70388875618E+03  0.40000000000E+03 0.  1.
<mgrwt>
<rscale>  2 0.69955803E+03</rscale>
<asrwt>0</asrwt>
<pdfrwt beam="1">  1       21 0.96242854E-01 0.69957253E+03</pdfrwt>
<pdfrwt beam="2">  1       21 0.12833948E+00 0.69957253E+03</pdfrwt>
<totfact> 0.30245024E+02</totfact>
</mgrwt>
</event>
<event>
 6    1  0.9399121E-004  0.6250867E+03  0.7818608E-02  0.9855150E-01
         21   -1    0    0  503  502  0.00000000000E+00  0.00000000000E+00  0.18211779164E+04  0.18211779164E+04  0.00000000000E+00 0. -1.
         21   -1    0    0  501  503 -0.00000000000E+00 -0.00000000000E+00 -0.29203610276E+03  0.29203610276E+03  0.00000000000E+00 0.  1.
    9000007    2    1    2  501    0  0.41192381029E+03  0.24468834877E+03  0.13103931433E+04  0.14518483152E+04  0.40147195053E+03 0.  0.
    9000005    1    3    3    0    0 -0.77132583292E+02  0.52003731447E+01  0.21691712578E+03  0.23028356158E+03  0.99999687468E+00 0.  0.
          4    1    3    3  501    0  0.48905639358E+03  0.23948797563E+03  0.10934760175E+04  0.12215647537E+04  0.00000000000E+00 0.  1.
   -9000007    1    1    2    0  502 -0.41192381029E+03 -0.24468834877E+03  0.21874867036E+03  0.66136570390E+03  0.40000000000E+03 0. -1.
<mgrwt>
<rscale>  2 0.62485044E+03</rscale>
<asrwt>0</asrwt>
<pdfrwt beam="1">  1       21 0.28018121E+00 0.62508667E+03</pdfrwt>
<pdfrwt beam="2">  1       21 0.44928632E-01 0.62508667E+03</pdfrwt>
<totfact> 0.15178697E+02</totfact>
</mgrwt>
</event>
<event>
 6    1  0.9399121E-004  0.4218770E+03  0.7818608E-02  0.1036482E+00
         21   -1    0    0  503  502  0.00000000000E+00  0.00000000000E+00  0.10484136583E+04  0.10484136583E+04  0.00000000000E+00 0.  1.
         21   -1    0    0  501  503 -0.00000000000E+00 -0.00000000000E+00 -0.22806123028E+03  0.22806123028E+03  0.00000000000E+00 0.  1.
    9000007    2    1    2  501    0  0.70529488294E+02  0.11291829766E+03  0.87255450912E+02  0.43080584663E+03  0.40031888928E+03 0.  0.
    9000005    1    3    3    0    0  0.22962170820E+03  0.11946460494E+03  0.25774309768E+02  0.26012157878E+03  0.99999687468E+00 0.  0.
          4    1    3    3  501    0 -0.15909221991E+03 -0.65463072801E+01  0.61481141143E+02  0.17068426785E+03  0.00000000000E+00 0.  1.
   -9000007    1    1    2    0  502 -0.70529488294E+02 -0.11291829766E+03  0.73309697711E+03  0.84566904195E+03  0.40000000000E+03 0.  1.
<mgrwt>
<rscale>  2 0.42180129E+03</rscale>
<asrwt>0</asrwt>
<pdfrwt beam="1">  1       21 0.16129441E+00 0.42187695E+03</pdfrwt>
<pdfrwt beam="2">  1       21 0.35086344E-01 0.42187695E+03</pdfrwt>
<totfact> 0.16605787E+03</totfact>
</mgrwt>
</event>
<event>
 6    1  0.9399121E-004  0.4126941E+03  0.7818608E-02  0.1039547E+00
         21   -1    0    0  503  502  0.00000000000E+00  0.00000000000E+00  0.41551042651E+03  0.41551042651E+03  0.00000000000E+00 0.  1.
         21   -1    0    0  501  503 -0.00000000000E+00 -0.00000000000E+00 -0.64539003553E+03  0.64539003553E+03  0.00000000000E+00 0.  1.
    9000007    2    1    2  501    0  0.45699928814E+02  0.90707757806E+02 -0.43590033621E+03  0.59964031760E+03  0.39905266139E+03 0.  0.
    9000005    1    3    3    0    0  0.57408461751E+02  0.68503082316E+02  0.57058469893E+02  0.10604278734E+03  0.99999687468E+00 0.  0.
          4    1    3    3  501    0 -0.11708532937E+02  0.22204675490E+02 -0.49295880610E+03  0.49359753025E+03  0.00000000000E+00 0.  1.
   -9000007    1    1    2    0  502 -0.45699928814E+02 -0.90707757806E+02  0.20602072720E+03  0.46126014445E+03  0.40000000000E+03 0.  1.
<mgrwt>
<rscale>  2 0.41246433E+03</rscale>
<asrwt>0</asrwt>
<pdfrwt beam="1">  1       21 0.63924681E-01 0.41269405E+03</pdfrwt>
<pdfrwt beam="2">  1       21 0.99290775E-01 0.41269405E+03</pdfrwt>
<totfact> 0.16451369E+03</totfact>
</mgrwt>
</event>
<event>
 6    1  0.9399121E-004  0.4921954E+03  0.7818608E-02  0.1015843E+00
         21   -1    0    0  503  502  0.00000000000E+00  0.00000000000E+00  0.21619070751E+03  0.21619070751E+03  0.00000000000E+00 0. -1.
         21   -1    0    0  501  503 -0.00000000000E+00 -0.00000000000E+00 -0.12675504534E+04  0.12675504534E+04  0.00000000000E+00 0. -1.
    9000007    2    1    2  501    0 -0.28642144293E+03  0.10703837359E+02 -0.77856399123E+03  0.92109621169E+03  0.40013063821E+03 0.  0.
    9000005    1    3    3    0    0 -0.20682522447E+03 -0.14230935759E+03 -0.21114533078E+03  0.32804264576E+03  0.99999687468E+00 0.  0.
          4    1    3    3  501    0 -0.79596218460E+02  0.15301319495E+03 -0.56741866045E+03  0.59305356592E+03  0.00000000000E+00 0.  1.
   -9000007    1    1    2    0  502  0.28642144293E+03 -0.10703837359E+02 -0.27279575463E+03  0.56264494919E+03  0.40000000000E+03 0. -1.
<mgrwt>
<rscale>  2 0.49216888E+03</rscale>
<asrwt>0</asrwt>
<pdfrwt beam="1">  1       21 0.33260109E-01 0.49219543E+03</pdfrwt>
<pdfrwt beam="2">  1       21 0.19500776E+00 0.49219543E+03</pdfrwt>
<totfact> 0.10338679E+03</totfact>
</mgrwt>
</event>
<event>
 6    1  0.9399121E-004  0.5061881E+03  0.7818608E-02  0.1012222E+00
         21   -1    0    0  503  502  0.00000000000E+00  0.00000000000E+00  0.69396589845E+03  0.69396589845E+03  0.00000000000E+00 0.  1.
         21   -1    0    0  501  503 -0.00000000000E+00 -0.00000000000E+00 -0.36997556641E+03  0.36997556641E+03  0.00000000000E+00 0. -1.
    9000007    2    1    2  501    0  0.57125243792E+02 -0.30371728579E+03  0.19331633379E+03  0.54184647639E+03  0.40089763768E+03 0.  0.
    9000005    1    3    3    0    0 -0.10394888833E+03 -0.27175334005E+03  0.36663032153E+01  0.29098056806E+03  0.99999687468E+00 0.  0.
          4    1    3    3  501    0  0.16107413212E+03 -0.31963945733E+02  0.18965003058E+03  0.25086590833E+03  0.00000000000E+00 0.  1.
   -9000007    1    1    2    0  502 -0.57125243792E+02  0.30371728579E+03  0.13067399825E+03  0.52209498847E+03  0.40000000000E+03 0. -1.
<mgrwt>
<rscale>  2 0.50601036E+03</rscale>
<asrwt>0</asrwt>
<pdfrwt beam="1">  1       21 0.10676398E+00 0.50618811E+03</pdfrwt>
<pdfrwt beam="2">  1       21 0.56919318E-01 0.50618811E+03</pdfrwt>
<totfact> 0.17145676E+03</totfact>
</mgrwt>
</event>
<event>
 6    1  0.9399121E-004  0.5339505E+03  0.7818608E-02  0.1005288E+00
         21   -1    0    0  503  502  0.00000000000E+00  0.00000000000E+00  0.83306418473E+03  0.83306418473E+03  0.00000000000E+00 0. -1.
         21   -1    0    0  501  503 -0.00000000000E+00 -0.00000000000E+00 -0.38651248843E+03  0.38651248843E+03  0.00000000000E+00 0.  1.
    9000007    2    1    2  501    0 -0.13207916607E+03  0.32811308261E+03  0.16626935704E+02  0.53405614038E+03  0.39979545395E+03 0.  0.
    9000005    1    3    3    0    0  0.72576557583E+02  0.28558749374E+03  0.96832210879E+02  0.31016938977E+03  0.99999687468E+00 0.  0.
          4    1    3    3  501    0 -0.20465572366E+03  0.42525588865E+02 -0.80205275176E+02  0.22388675061E+03  0.00000000000E+00 0.  1.
   -9000007    1    1    2    0  502  0.13207916607E+03 -0.32811308261E+03  0.42992476060E+03  0.68552053278E+03  0.40000000000E+03 0. -1.
<mgrwt>
<rscale>  2 0.53391216E+03</rscale>
<asrwt>0</asrwt>
<pdfrwt beam="1">  1       21 0.12816372E+00 0.53395047E+03</pdfrwt>
<pdfrwt beam="2">  1       21 0.59463460E-01 0.53395047E+03</pdfrwt>
<totfact> 0.97169257E+02</totfact>
</mgrwt>
</event>
<event>
 6    1  0.9399121E-004  0.4070645E+03  0.7818608E-02  0.1041395E+00
         21   -1    0    0  503  502  0.00000000000E+00  0.00000000000E+00  0.19011365441E+04  0.19011365441E+04  0.00000000000E+00 0. -1.
         21   -1    0    0  501  503 -0.00000000000E+00 -0.00000000000E+00 -0.23409858566E+03  0.23409858566E+03  0.00000000000E+00 0. -1.
    9000007    2    1    2  501    0  0.74016631200E+02 -0.14934745231E+02 -0.12718596653E+02  0.40685913112E+03  0.39958864044E+03 0.  0.
    9000005    1    3    3    0    0  0.15804760249E+03 -0.14060633703E+02 -0.16750708233E+03  0.23073007757E+03  0.99999687468E+00 0.  0.
          4    1    3    3  501    0 -0.84030971291E+02 -0.87411152789E+00  0.15478848567E+03  0.17612905355E+03  0.00000000000E+00 0.  1.
   -9000007    1    1    2    0  502 -0.74016631200E+02  0.14934745231E+02  0.16797565550E+04  0.17283759986E+04  0.40000000000E+03 0. -1.
<mgrwt>
<rscale>  2 0.40696341E+03</rscale>
<asrwt>0</asrwt>
<pdfrwt beam="1">  1       21 0.29248253E+00 0.40706450E+03</pdfrwt>
<pdfrwt beam="2">  1       21 0.36015168E-01 0.40706450E+03</pdfrwt>
<totfact> 0.22663200E+02</totfact>
</mgrwt>
</event>
<event>
 6    1  0.9399121E-004  0.4857854E+03  0.7818608E-02  0.1017570E+00
         21   -1    0    0  503  502  0.00000000000E+00  0.00000000000E+00  0.54260599155E+03  0.54260599155E+03  0.00000000000E+00 0. -1.
         21   -1    0    0  501  503 -0.00000000000E+00 -0.00000000000E+00 -0.51471474013E+03  0.51471474013E+03  0.00000000000E+00 0. -1.
    9000007    2    1    2  501    0 -0.14860036827E+03 -0.23217537554E+03 -0.19442816495E+03  0.52307977728E+03  0.39977827307E+03 0.  0.
    9000005    1    3    3    0    0 -0.75708905706E+02 -0.28882036416E+03 -0.27093606412E+03  0.40318282700E+03  0.99999687468E+00 0.  0.
          4    1    3    3  501    0 -0.72891462568E+02  0.56644988614E+02  0.76507899171E+02  0.11989695028E+03  0.00000000000E+00 0.  1.
   -9000007    1    1    2    0  502  0.14860036827E+03  0.23217537554E+03  0.22231941636E+03  0.53424095439E+03  0.40000000000E+03 0. -1.
<mgrwt>
<rscale>  2 0.48573977E+03</rscale>
<asrwt>0</asrwt>
<pdfrwt beam="1">  1       21 0.83477845E-01 0.48578542E+03</pdfrwt>
<pdfrwt beam="2">  1       21 0.79186883E-01 0.48578542E+03</pdfrwt>
<totfact> 0.14881851E+03</totfact>
</mgrwt>
</event>
<event>
 6    1  0.9399121E-004  0.4156535E+03  0.7818608E-02  0.1039441E+00
         21   -1    0    0  503  502  0.00000000000E+00  0.00000000000E+00  0.79076324310E+02  0.79076324310E+02  0.00000000000E+00 0. -1.
         21   -1    0    0  501  503 -0.00000000000E+00 -0.00000000000E+00 -0.24596718174E+04  0.24596718174E+04  0.00000000000E+00 0. -1.
    9000007    2    1    2  501    0 -0.51601144565E+02 -0.10052456157E+03 -0.16438696069E+04  0.16928563656E+04  0.38818490987E+03 0.  0.
    9000005    1    3    3    0    0 -0.98872418478E+02 -0.75812733200E+02 -0.16338360376E+04  0.16385800327E+04  0.99999687468E+00 0.  0.
          4    1    3    3  501    0  0.47271273913E+02 -0.24711828369E+02 -0.10033569302E+02  0.54276332886E+02  0.00000000000E+00 0.  1.
   -9000007    1    1    2    0  502  0.51601144565E+02  0.10052456157E+03 -0.73672588612E+03  0.84589177610E+03  0.40000000000E+03 0. -1.
<mgrwt>
<rscale>  2 0.41278463E+03</rscale>
<asrwt>0</asrwt>
<pdfrwt beam="1">  1       21 0.12165591E-01 0.41565354E+03</pdfrwt>
<pdfrwt beam="2">  1       21 0.37841096E+00 0.41565354E+03</pdfrwt>
<totfact> 0.53986891E+02</totfact>
</mgrwt>
</event>
<event>
 6    1  0.9399121E-004  0.4115297E+03  0.7818608E-02  0.1039899E+00
         21   -1    0    0  503  502  0.00000000000E+00  0.00000000000E+00  0.12315552813E+03  0.12315552813E+03  0.00000000000E+00 0.  1.
         21   -1    0    0  501  503 -0.00000000000E+00 -0.00000000000E+00 -0.17788922247E+04  0.17788922247E+04  0.00000000000E+00 0.  1.
    9000007    2    1    2  501    0  0.93179235629E+02  0.16681451658E+02 -0.12822204378E+04  0.13466424627E+04  0.40049473194E+03 0.  0.
    9000005    1    3    3    0    0  0.19869302011E+02  0.17302323467E+03 -0.10054538570E+04  0.10204265223E+04  0.99999687468E+00 0.  0.
          4    1    3    3  501    0  0.73309933618E+02 -0.15634178302E+03 -0.27676658086E+03  0.32621594039E+03  0.00000000000E+00 0.  1.
   -9000007    1    1    2    0  502 -0.93179235629E+02 -0.16681451658E+02 -0.37351625875E+03  0.55540529016E+03  0.40000000000E+03 0.  1.
<mgrwt>
<rscale>  2 0.41140926E+03</rscale>
<asrwt>0</asrwt>
<pdfrwt beam="1">  1       21 0.18947007E-01 0.41152967E+03</pdfrwt>
<pdfrwt beam="2">  1       21 0.27367569E+00 0.41152967E+03</pdfrwt>
<totfact> 0.10280270E+03</totfact>
</mgrwt>
</event>
<event>
 6    1  0.9399121E-004  0.5478000E+03  0.7818608E-02  0.1002050E+00
         21   -1    0    0  503  502  0.00000000000E+00  0.00000000000E+00  0.69801046420E+03  0.69801046420E+03  0.00000000000E+00 0.  1.
         21   -1    0    0  501  503 -0.00000000000E+00 -0.00000000000E+00 -0.44945046742E+03  0.44945046742E+03  0.00000000000E+00 0.  1.
    9000007    2    1    2  501    0 -0.22435553353E+03 -0.29814057079E+03  0.28752073140E+01  0.54780751409E+03  0.40107555435E+03 0.  0.
    9000005    1    3    3    0    0 -0.11384558487E+03  0.87433581194E+02 -0.25130718165E+02  0.14573263637E+03  0.99999687468E+00 0.  0.
          4    1    3    3  501    0 -0.11050994866E+03 -0.38557415198E+03  0.28005925479E+02  0.40207487772E+03  0.00000000000E+00 0.  1.
   -9000007    1    1    2    0  502  0.22435553353E+03  0.29814057079E+03  0.24568478947E+03  0.59965341753E+03  0.40000000000E+03 0.  1.
<mgrwt>
<rscale>  2 0.54760312E+03</rscale>
<asrwt>0</asrwt>
<pdfrwt beam="1">  1       21 0.10738623E+00 0.54779997E+03</pdfrwt>
<pdfrwt beam="2">  1       21 0.69146226E-01 0.54779997E+03</pdfrwt>
<totfact> 0.10827256E+03</totfact>
</mgrwt>
</event>
<event>
 6    1  0.9399121E-004  0.4235099E+03  0.7818608E-02  0.1035971E+00
         21   -1    0    0  503  502  0.00000000000E+00  0.00000000000E+00  0.38748370265E+03  0.38748370265E+03  0.00000000000E+00 0.  1.
         21   -1    0    0  501  503 -0.00000000000E+00 -0.00000000000E+00 -0.92891771519E+03  0.92891771519E+03  0.00000000000E+00 0. -1.
    9000007    2    1    2  501    0  0.12672929183E+03 -0.57448717177E+02 -0.73712106865E+03  0.84986729000E+03  0.39945747239E+03 0.  0.
    9000005    1    3    3    0    0 -0.46398268155E+02  0.11573830455E+03 -0.47525504587E+03  0.49134154419E+03  0.99999687468E+00 0.  0.
          4    1    3    3  501    0  0.17312755998E+03 -0.17318702173E+03 -0.26186602278E+03  0.35852574581E+03  0.00000000000E+00 0.  1.
   -9000007    1    1    2    0  502 -0.12672929183E+03  0.57448717177E+02  0.19568705611E+03  0.46653412784E+03  0.40000000000E+03 0.  1.
<mgrwt>
<rscale>  2 0.42338179E+03</rscale>
<asrwt>0</asrwt>
<pdfrwt beam="1">  1       21 0.59612878E-01 0.42350994E+03</pdfrwt>
<pdfrwt beam="2">  1       21 0.14291042E+00 0.42350994E+03</pdfrwt>
<totfact> 0.75860134E+02</totfact>
</mgrwt>
</event>
<event>
 6    1  0.9399121E-004  0.5243771E+03  0.7818608E-02  0.1007610E+00
         21   -1    0    0  503  502  0.00000000000E+00  0.00000000000E+00  0.10345706612E+04  0.10345706612E+04  0.00000000000E+00 0. -1.
         21   -1    0    0  501  503 -0.00000000000E+00 -0.00000000000E+00 -0.40976085337E+03  0.40976085337E+03  0.00000000000E+00 0. -1.
    9000007    2    1    2  501    0 -0.25578059302E+03 -0.22259308793E+03 -0.11574531592E+03  0.53692130641E+03  0.39989513195E+03 0.  0.
    9000005    1    3    3    0    0 -0.18892528841E+03 -0.23768400840E+03 -0.24531457852E+03  0.39034176676E+03  0.99999687468E+00 0.  0.
          4    1    3    3  501    0 -0.66855304606E+02  0.15090920468E+02  0.12956926260E+03  0.14657953965E+03  0.00000000000E+00 0.  1.
   -9000007    1    1    2    0  502  0.25578059302E+03  0.22259308793E+03  0.74055512378E+03  0.90741020818E+03  0.40000000000E+03 0. -1.
<mgrwt>
<rscale>  2 0.52435715E+03</rscale>
<asrwt>0</asrwt>
<pdfrwt beam="1">  1       21 0.15916472E+00 0.52437715E+03</pdfrwt>
<pdfrwt beam="2">  1       21 0.63040132E-01 0.52437715E+03</pdfrwt>
<totfact> 0.47864992E+02</totfact>
</mgrwt>
</event>
<event>
 6    1  0.9399121E-004  0.4603090E+03  0.7818608E-02  0.1024794E+00
         21   -1    0    0  503  502  0.00000000000E+00  0.00000000000E+00  0.28568425071E+03  0.28568425071E+03  0.00000000000E+00 0. -1.
         21   -1    0    0  501  503 -0.00000000000E+00 -0.00000000000E+00 -0.74164713820E+03  0.74164713820E+03  0.00000000000E+00 0. -1.
    9000007    2    1    2  501    0 -0.17391349399E+03  0.14262276270E+03 -0.20006333883E+03  0.50190609942E+03  0.40161827306E+03 0.  0.
    9000005    1    3    3    0    0  0.40763687272E+02 -0.10998653576E+03 -0.53058988364E+01  0.11742175610E+03  0.99999687468E+00 0.  0.
          4    1    3    3  501    0 -0.21467718126E+03  0.25260929846E+03 -0.19475744000E+03  0.38448434332E+03  0.00000000000E+00 0.  1.
   -9000007    1    1    2    0  502  0.17391349399E+03 -0.14262276270E+03 -0.25589954866E+03  0.52542528949E+03  0.40000000000E+03 0.  1.
<mgrwt>
<rscale>  2 0.45995580E+03</rscale>
<asrwt>0</asrwt>
<pdfrwt beam="1">  1       21 0.43951424E-01 0.46030902E+03</pdfrwt>
<pdfrwt beam="2">  1       21 0.11409956E+00 0.46030902E+03</pdfrwt>
<totfact> 0.25625826E+03</totfact>
</mgrwt>
</event>
<event>
 6    1  0.9399121E-004  0.4737469E+03  0.7818608E-02  0.1020888E+00
         21   -1    0    0  503  502  0.00000000000E+00  0.00000000000E+00  0.11268956008E+03  0.11268956008E+03  0.00000000000E+00 0. -1.
         21   -1    0    0  501  503 -0.00000000000E+00 -0.00000000000E+00 -0.22235837927E+04  0.22235837927E+04  0.00000000000E+00 0. -1.
    9000007    2    1    2  501    0  0.20499400945E+03  0.14971179276E+03 -0.14334199951E+04  0.15095887048E+04  0.39966111935E+03 0.  0.
    9000005    1    3    3    0    0  0.53337411844E+02  0.12861621130E+02 -0.11923418532E+04  0.11936039527E+04  0.99999687468E+00 0.  0.
          4    1    3    3  501    0  0.15165659760E+03  0.13685017163E+03 -0.24107814187E+03  0.31598475210E+03  0.00000000000E+00 0.  1.
   -9000007    1    1    2    0  502 -0.20499400945E+03 -0.14971179276E+03 -0.67747423748E+03  0.82668464801E+03  0.40000000000E+03 0. -1.
<mgrwt>
<rscale>  2 0.47367540E+03</rscale>
<asrwt>0</asrwt>
<pdfrwt beam="1">  1       21 0.17336855E-01 0.47374694E+03</pdfrwt>
<pdfrwt beam="2">  1       21 0.34208981E+00 0.47374694E+03</pdfrwt>
<totfact> 0.45364578E+02</totfact>
</mgrwt>
</event>
<event>
 6    1  0.9399121E-004  0.5572374E+03  0.7818608E-02  0.9998446E-01
         21   -1    0    0  503  502  0.00000000000E+00  0.00000000000E+00  0.82995814706E+03  0.82995814706E+03  0.00000000000E+00 0.  1.
         21   -1    0    0  501  503 -0.00000000000E+00 -0.00000000000E+00 -0.42924460595E+03  0.42924460595E+03  0.00000000000E+00 0. -1.
    9000007    2    1    2  501    0 -0.15379461793E+03  0.35617518054E+03 -0.25569879663E+02  0.55761092113E+03  0.39970311093E+03 0.  0.
    9000005    1    3    3    0    0 -0.67529819679E+02  0.23853565644E+03 -0.20829162620E+03  0.32379922402E+03  0.99999687468E+00 0.  0.
          4    1    3    3  501    0 -0.86264798254E+02  0.11763952409E+03  0.18272174654E+03  0.23381169711E+03  0.00000000000E+00 0.  1.
   -9000007    1    1    2    0  502  0.15379461793E+03 -0.35617518054E+03  0.42628342077E+03  0.70159183188E+03  0.40000000000E+03 0. -1.
<mgrwt>
<rscale>  2 0.55718414E+03</rscale>
<asrwt>0</asrwt>
<pdfrwt beam="1">  1       21 0.12768587E+00 0.55723742E+03</pdfrwt>
<pdfrwt beam="2">  1       21 0.66037632E-01 0.55723742E+03</pdfrwt>
<totfact> 0.77132895E+02</totfact>
</mgrwt>
</event>
<event>
 6    1  0.9399121E-004  0.4764508E+03  0.7818608E-02  0.1020217E+00
         21   -1    0    0  503  502  0.00000000000E+00  0.00000000000E+00  0.14672027842E+04  0.14672027842E+04  0.00000000000E+00 0. -1.
         21   -1    0    0  501  503 -0.00000000000E+00 -0.00000000000E+00 -0.40145957426E+03  0.40145957426E+03  0.00000000000E+00 0. -1.
    9000007    2    1    2  501    0  0.13561053885E+03 -0.21729211445E+03 -0.20000585183E+03  0.51672790419E+03  0.40174532350E+03 0.  0.
    9000005    1    3    3    0    0 -0.75408743909E+02 -0.17847149819E+03 -0.22927803495E+03  0.30017989878E+03  0.99999687468E+00 0.  0.
          4    1    3    3  501    0  0.21101928276E+03 -0.38820616255E+02  0.29272183120E+02  0.21654800541E+03  0.00000000000E+00 0.  1.
   -9000007    1    1    2    0  502 -0.13561053885E+03  0.21729211445E+03  0.12657490618E+04  0.13519344543E+04  0.40000000000E+03 0. -1.
<mgrwt>
<rscale>  2 0.47608271E+03</rscale>
<asrwt>0</asrwt>
<pdfrwt beam="1">  1       21 0.22572350E+00 0.47645082E+03</pdfrwt>
<pdfrwt beam="2">  1       21 0.61763012E-01 0.47645082E+03</pdfrwt>
<totfact> 0.17837323E+02</totfact>
</mgrwt>
</event>
<event>
 6    1  0.9399121E-004  0.5311660E+03  0.7818608E-02  0.1005979E+00
         21   -1    0    0  503  502  0.00000000000E+00  0.00000000000E+00  0.37570816458E+03  0.37570816458E+03  0.00000000000E+00 0. -1.
         21   -1    0    0  501  503 -0.00000000000E+00 -0.00000000000E+00 -0.17444523441E+04  0.17444523441E+04  0.00000000000E+00 0. -1.
    9000007    2    1    2  501    0  0.18360688204E+03 -0.29736472669E+03 -0.14845220815E+04  0.15765229545E+04  0.39935140889E+03 0.  0.
    9000005    1    3    3    0    0  0.11040190462E+02 -0.18948573004E+03 -0.19905791509E+03  0.27504868887E+03  0.99999687468E+00 0.  0.
          4    1    3    3  501    0  0.17256669158E+03 -0.10787899664E+03 -0.12854641664E+04  0.13014742656E+04  0.00000000000E+00 0.  1.
   -9000007    1    1    2    0  502 -0.18360688204E+03  0.29736472669E+03  0.11577790192E+03  0.54363755424E+03  0.40000000000E+03 0. -1.
<mgrwt>
<rscale>  2 0.53104385E+03</rscale>
<asrwt>0</asrwt>
<pdfrwt beam="1">  1       21 0.57801257E-01 0.53116595E+03</pdfrwt>
<pdfrwt beam="2">  1       21 0.26837728E+00 0.53116595E+03</pdfrwt>
<totfact> 0.10905050E+02</totfact>
</mgrwt>
</event>
<event>
 6    1  0.9399121E-004  0.4260243E+03  0.7818608E-02  0.1035176E+00
         21   -1    0    0  503  502  0.00000000000E+00  0.00000000000E+00  0.46618722037E+03  0.46618722037E+03  0.00000000000E+00 0.  1.
         21   -1    0    0  501  503 -0.00000000000E+00 -0.00000000000E+00 -0.54579654506E+03  0.54579654506E+03  0.00000000000E+00 0.  1.
    9000007    2    1    2  501    0  0.13608717463E+03 -0.54561883744E+02 -0.31122910600E+03  0.52706682269E+03  0.39929833572E+03 0.  0.
    9000005    1    3    3    0    0  0.24866943701E+03  0.29660607257E+01 -0.76048246022E+02  0.26005695940E+03  0.99999687468E+00 0.  0.
          4    1    3    3  501    0 -0.11258226238E+03 -0.57527944470E+02 -0.23518085997E+03  0.26700986329E+03  0.00000000000E+00 0.  1.
   -9000007    1    1    2    0  502 -0.13608717463E+03  0.54561883744E+02  0.23161978131E+03  0.48491694273E+03  0.40000000000E+03 0.  1.
<mgrwt>
<rscale>  2 0.42585954E+03</rscale>
<asrwt>0</asrwt>
<pdfrwt beam="1">  1       21 0.71721111E-01 0.42602432E+03</pdfrwt>
<pdfrwt beam="2">  1       21 0.83968699E-01 0.42602432E+03</pdfrwt>
<totfact> 0.18828404E+03</totfact>
</mgrwt>
</event>
<event>
 6    1  0.9399121E-004  0.4299525E+03  0.7818608E-02  0.1033977E+00
         21   -1    0    0  503  502  0.00000000000E+00  0.00000000000E+00  0.74913095992E+03  0.74913095992E+03  0.00000000000E+00 0. -1.
         21   -1    0    0  501  503 -0.00000000000E+00 -0.00000000000E+00 -0.33687538743E+03  0.33687538743E+03  0.00000000000E+00 0. -1.
    9000007    2    1    2  501    0 -0.14379050850E+02 -0.15345392784E+03 -0.75631401550E+02  0.43655383600E+03  0.40137797367E+03 0.  0.
    9000005    1    3    3    0    0 -0.25678022804E+02 -0.27175950057E+03 -0.13407020074E+03  0.30411906505E+03  0.99999687468E+00 0.  0.
          4    1    3    3  501    0  0.11298971954E+02  0.11830557273E+03  0.58438799192E+02  0.13243477095E+03  0.00000000000E+00 0.  1.
   -9000007    1    1    2    0  502  0.14379050850E+02  0.15345392784E+03  0.48788697404E+03  0.64945251136E+03  0.40000000000E+03 0. -1.
<mgrwt>
<rscale>  2 0.42963060E+03</rscale>
<asrwt>0</asrwt>
<pdfrwt beam="1">  1       21 0.11525092E+00 0.42995249E+03</pdfrwt>
<pdfrwt beam="2">  1       21 0.51826983E-01 0.42995249E+03</pdfrwt>
<totfact> 0.17849224E+03</totfact>
</mgrwt>
</event>
<event>
 6    1  0.9399121E-004  0.5295901E+03  0.7818608E-02  0.1006396E+00
         21   -1    0    0  503  502  0.00000000000E+00  0.00000000000E+00  0.72748746496E+03  0.72748746496E+03  0.00000000000E+00 0. -1.
         21   -1    0    0  501  503 -0.00000000000E+00 -0.00000000000E+00 -0.40492052465E+03  0.40492052465E+03  0.00000000000E+00 0. -1.
    9000007    2    1    2  501    0  0.28189478902E+03  0.20248703379E+03  0.28747824287E+03  0.60165674127E+03  0.39859932671E+03 0.  0.
    9000005    1    3    3    0    0  0.56436974133E+02 -0.11102042413E+03  0.76721710171E+01  0.12478192508E+03  0.99999687468E+00 0.  0.
          4    1    3    3  501    0  0.22545781488E+03  0.31350745793E+03  0.27980607186E+03  0.47687481619E+03  0.00000000000E+00 0.  1.
   -9000007    1    1    2    0  502 -0.28189478902E+03 -0.20248703379E+03  0.35088697437E+02  0.53075124834E+03  0.40000000000E+03 0.  1.
<mgrwt>
<rscale>  2 0.52932562E+03</rscale>
<asrwt>0</asrwt>
<pdfrwt beam="1">  1       21 0.11192115E+00 0.52959010E+03</pdfrwt>
<pdfrwt beam="2">  1       21 0.62295465E-01 0.52959010E+03</pdfrwt>
<totfact> 0.12407287E+03</totfact>
</mgrwt>
</event>
<event>
 6    1  0.9399121E-004  0.4290029E+03  0.7818608E-02  0.1034195E+00
         21   -1    0    0  503  502  0.00000000000E+00  0.00000000000E+00  0.11560044816E+04  0.11560044816E+04  0.00000000000E+00 0. -1.
         21   -1    0    0  501  503 -0.00000000000E+00 -0.00000000000E+00 -0.16073634874E+03  0.16073634874E+03  0.00000000000E+00 0.  1.
    9000007    2    1    2  501    0  0.13651797823E+03  0.72088714056E+02  0.43167029415E+03  0.60859080043E+03  0.40026188732E+03 0.  0.
    9000005    1    3    3    0    0  0.24990796607E+02 -0.14217052400E+03  0.42371932732E+02  0.15044393802E+03  0.99999687468E+00 0.  0.
          4    1    3    3  501    0  0.11152718162E+03  0.21425923805E+03  0.38929836142E+03  0.45814686241E+03  0.00000000000E+00 0.  1.
   -9000007    1    1    2    0  502 -0.13651797823E+03 -0.72088714056E+02  0.56359783876E+03  0.70815002995E+03  0.40000000000E+03 0. -1.
<mgrwt>
<rscale>  2 0.42894184E+03</rscale>
<asrwt>0</asrwt>
<pdfrwt beam="1">  1       21 0.17784684E+00 0.42900294E+03</pdfrwt>
<pdfrwt beam="2">  1       21 0.24728670E-01 0.42900294E+03</pdfrwt>
<totfact> 0.25081069E+03</totfact>
</mgrwt>
</event>
<event>
 6    1  0.9399121E-004  0.4548307E+03  0.7818608E-02  0.1026307E+00
         21   -1    0    0  503  502  0.00000000000E+00  0.00000000000E+00  0.69196254758E+03  0.69196254758E+03  0.00000000000E+00 0.  1.
         21   -1    0    0  501  503 -0.00000000000E+00 -0.00000000000E+00 -0.29886804119E+03  0.29886804119E+03  0.00000000000E+00 0. -1.
    9000007    2    1    2  501    0  0.75028989996E+02 -0.20308030808E+03  0.20270406687E+03  0.49775911289E+03  0.39975521869E+03 0.  0.
    9000005    1    3    3    0    0  0.11764620341E+03  0.96266104304E+02  0.75398768405E+02  0.16968726023E+03  0.99999687468E+00 0.  0.
          4    1    3    3  501    0 -0.42617213415E+02 -0.29934641238E+03  0.12730529847E+03  0.32807185265E+03  0.00000000000E+00 0.  1.
   -9000007    1    1    2    0  502 -0.75028989996E+02  0.20308030808E+03  0.19039043952E+03  0.49307147588E+03  0.40000000000E+03 0. -1.
<mgrwt>
<rscale>  2 0.45477687E+03</rscale>
<asrwt>0</asrwt>
<pdfrwt beam="1">  1       21 0.10645578E+00 0.45483069E+03</pdfrwt>
<pdfrwt beam="2">  1       21 0.45979699E-01 0.45483069E+03</pdfrwt>
<totfact> 0.27750564E+03</totfact>
</mgrwt>
</event>
<event>
 6    1  0.9399121E-004  0.4155090E+03  0.7818608E-02  0.1038778E+00
         21   -1    0    0  503  502  0.00000000000E+00  0.00000000000E+00  0.13627621897E+04  0.13627621897E+04  0.00000000000E+00 0. -1.
         21   -1    0    0  501  503 -0.00000000000E+00 -0.00000000000E+00 -0.24915898273E+03  0.24915898273E+03  0.00000000000E+00 0. -1.
    9000007    2    1    2  501    0 -0.67192217170E+02 -0.75733770125E+02 -0.92961103339E+01  0.41561298689E+03  0.40298553227E+03 0.  0.
    9000005    1    3    3    0    0 -0.16730698253E+03  0.10769457281E+03  0.34920082588E+02  0.20201524591E+03  0.99999687468E+00 0.  0.
          4    1    3    3  501    0  0.10011476536E+03 -0.18342834294E+03 -0.44216192922E+02  0.21359774098E+03  0.00000000000E+00 0.  1.
   -9000007    1    1    2    0  502  0.67192217170E+02  0.75733770125E+02  0.11228993173E+04  0.11963081855E+04  0.40000000000E+03 0. -1.
<mgrwt>
<rscale>  2 0.41478338E+03</rscale>
<asrwt>0</asrwt>
<pdfrwt beam="1">  1       21 0.20965572E+00 0.41550901E+03</pdfrwt>
<pdfrwt beam="2">  1       21 0.38332152E-01 0.41550901E+03</pdfrwt>
<totfact> 0.64239252E+02</totfact>
</mgrwt>
</event>
<event>
 6    1  0.9399121E-004  0.5026824E+03  0.7818608E-02  0.1013112E+00
         21   -1    0    0  503  502  0.00000000000E+00  0.00000000000E+00  0.29298835312E+03  0.29298835312E+03  0.00000000000E+00 0.  1.
         21   -1    0    0  501  503 -0.00000000000E+00 -0.00000000000E+00 -0.86215986312E+03  0.86215986312E+03  0.00000000000E+00 0.  1.
    9000007    2    1    2  501    0  0.21503510494E+03  0.21552141503E+03 -0.27022622095E+03  0.57029108623E+03  0.39939971939E+03 0.  0.
    9000005    1    3    3    0    0 -0.85780344037E+02 -0.27001563504E+01 -0.16181588731E+03  0.18316915583E+03  0.99999687468E+00 0.  0.
          4    1    3    3  501    0  0.30081544897E+03  0.21822157138E+03 -0.10841033364E+03  0.38712193040E+03  0.00000000000E+00 0.  1.
   -9000007    1    1    2    0  502 -0.21503510494E+03 -0.21552141503E+03 -0.29894528905E+03  0.58485713002E+03  0.40000000000E+03 0.  1.
<mgrwt>
<rscale>  2 0.50256296E+03</rscale>
<asrwt>0</asrwt>
<pdfrwt beam="1">  1       21 0.45075132E-01 0.50268238E+03</pdfrwt>
<pdfrwt beam="2">  1       21 0.13263998E+00 0.50268238E+03</pdfrwt>
<totfact> 0.16277928E+03</totfact>
</mgrwt>
</event>
<event>
 6    1  0.9399121E-004  0.6542816E+03  0.7818608E-02  0.9798781E-01
         21   -1    0    0  503  502  0.00000000000E+00  0.00000000000E+00  0.62691954301E+03  0.62691954301E+03  0.00000000000E+00 0. -1.
         21   -1    0    0  501  503 -0.00000000000E+00 -0.00000000000E+00 -0.70801927233E+03  0.70801927233E+03  0.00000000000E+00 0. -1.
    9000007    2    1    2  501    0 -0.27683177209E+03  0.43754841524E+03 -0.16644605283E+03  0.67511426241E+03  0.39998816620E+03 0.  0.
    9000005    1    3    3    0    0 -0.20554635920E+03  0.35476174694E+03 -0.29596758121E+03  0.50567085342E+03  0.99999687468E+00 0.  0.
          4    1    3    3  501    0 -0.71285412890E+02  0.82786668294E+02  0.12952152838E+03  0.16944340900E+03  0.00000000000E+00 0.  1.
   -9000007    1    1    2    0  502  0.27683177209E+03 -0.43754841524E+03  0.85346323507E+02  0.65982455293E+03  0.40000000000E+03 0. -1.
<mgrwt>
<rscale>  2 0.65427982E+03</rscale>
<asrwt>0</asrwt>
<pdfrwt beam="1">  1       21 0.96449160E-01 0.65428163E+03</pdfrwt>
<pdfrwt beam="2">  1       21 0.10892604E+00 0.65428163E+03</pdfrwt>
<totfact> 0.46402071E+02</totfact>
</mgrwt>
</event>
<event>
 6    1  0.9399121E-004  0.4025697E+03  0.7818608E-02  0.1042910E+00
         21   -1    0    0  503  502  0.00000000000E+00  0.00000000000E+00  0.16706379637E+03  0.16706379637E+03  0.00000000000E+00 0.  1.
         21   -1    0    0  501  503 -0.00000000000E+00 -0.00000000000E+00 -0.10501922865E+04  0.10501922865E+04  0.00000000000E+00 0.  1.
    9000007    2    1    2  501    0 -0.38116539894E+02  0.21312521484E+02 -0.61026663484E+03  0.73108668209E+03  0.40019404911E+03 0.  0.
    9000005    1    3    3    0    0 -0.96932327430E+02  0.97065065327E+01  0.18758031155E+02  0.99211673187E+02  0.99999687468E+00 0.  0.
          4    1    3    3  501    0  0.58815787536E+02  0.11606014951E+02 -0.62902466600E+03  0.63187500890E+03  0.00000000000E+00 0.  1.
   -9000007    1    1    2    0  502  0.38116539894E+02 -0.21312521484E+02 -0.27286185529E+03  0.48616940078E+03  0.40000000000E+03 0.  1.
<mgrwt>
<rscale>  2 0.40252148E+03</rscale>
<asrwt>0</asrwt>
<pdfrwt beam="1">  1       21 0.25702122E-01 0.40256971E+03</pdfrwt>
<pdfrwt beam="2">  1       21 0.16156805E+00 0.40256971E+03</pdfrwt>
<totfact> 0.30902451E+03</totfact>
</mgrwt>
</event>
<event>
 6    1  0.9399121E-004  0.5151992E+03  0.7818608E-02  0.1009907E+00
         21   -1    0    0  503  502  0.00000000000E+00  0.00000000000E+00  0.10083298470E+04  0.10083298470E+04  0.00000000000E+00 0.  1.
         21   -1    0    0  501  503 -0.00000000000E+00 -0.00000000000E+00 -0.35567267262E+03  0.35567267262E+03  0.00000000000E+00 0. -1.
    9000007    2    1    2  501    0 -0.29201582765E+03  0.14076309622E+03 -0.21592085012E+02  0.51565143862E+03  0.40042813982E+03 0.  0.
    9000005    1    3    3    0    0 -0.38476433529E+03  0.12766768708E+03 -0.68098664971E+02  0.41107305944E+03  0.99999687468E+00 0.  0.
          4    1    3    3  501    0  0.92748507645E+02  0.13095409142E+02  0.46506579960E+02  0.10457837917E+03  0.00000000000E+00 0.  1.
   -9000007    1    1    2    0  502  0.29201582765E+03 -0.14076309622E+03  0.67424925942E+03  0.84835108103E+03  0.40000000000E+03 0.  1.
<mgrwt>
<rscale>  2 0.51511598E+03</rscale>
<asrwt>0</asrwt>
<pdfrwt beam="1">  1       21 0.15512767E+00 0.51519917E+03</pdfrwt>
<pdfrwt beam="2">  1       21 0.54718873E-01 0.51519917E+03</pdfrwt>
<totfact> 0.70356177E+02</totfact>
</mgrwt>
</event>
<event>
 6    1  0.9399121E-004  0.4696731E+03  0.7818608E-02  0.1022056E+00
         21   -1    0    0  503  502  0.00000000000E+00  0.00000000000E+00  0.13690698611E+04  0.13690698611E+04  0.00000000000E+00 0.  1.
         21   -1    0    0  501  503 -0.00000000000E+00 -0.00000000000E+00 -0.20047505912E+03  0.20047505912E+03  0.00000000000E+00 0.  1.
    9000007    2    1    2  501    0 -0.23222214398E+03 -0.81643653709E+02  0.23538625406E+03  0.52481002359E+03  0.39928193287E+03 0.  0.
    9000005    1    3    3    0    0  0.78961457989E+02  0.78945940782E+02  0.98265717259E+02  0.14874314974E+03  0.99999687468E+00 0.  0.
          4    1    3    3  501    0 -0.31118360197E+03 -0.16058959449E+03  0.13712053680E+03  0.37606687385E+03  0.00000000000E+00 0.  1.
   -9000007    1    1    2    0  502  0.23222214398E+03  0.81643653709E+02  0.93320854791E+03  0.10447348966E+04  0.40000000000E+03 0.  1.
<mgrwt>
<rscale>  2 0.46952017E+03</rscale>
<asrwt>0</asrwt>
<pdfrwt beam="1">  1       21 0.21062613E+00 0.46967309E+03</pdfrwt>
<pdfrwt beam="2">  1       21 0.30842318E-01 0.46967309E+03</pdfrwt>
<totfact> 0.95644771E+02</totfact>
</mgrwt>
</event>
<event>
 6    1  0.9399121E-004  0.4381606E+03  0.7818608E-02  0.1031330E+00
         21   -1    0    0  503  502  0.00000000000E+00  0.00000000000E+00  0.31010421638E+03  0.31010421638E+03  0.00000000000E+00 0. -1.
         21   -1    0    0  501  503 -0.00000000000E+00 -0.00000000000E+00 -0.70726288208E+03  0.70726288208E+03  0.00000000000E+00 0. -1.
    9000007    2    1    2  501    0 -0.10796585322E+03  0.14257670492E+03 -0.37845416326E+03  0.57880740964E+03  0.39975707814E+03 0.  0.
    9000005    1    3    3    0    0 -0.21381889707E+03  0.21393154030E+03 -0.31331591418E+03  0.43549177575E+03  0.99999687468E+00 0.  0.
          4    1    3    3  501    0  0.10585304385E+03 -0.71354835377E+02 -0.65138249078E+02  0.14331563389E+03  0.00000000000E+00 0.  1.
   -9000007    1    1    2    0  502  0.10796585322E+03 -0.14257670492E+03 -0.18704502438E+02  0.43855968882E+03  0.40000000000E+03 0. -1.
<mgrwt>
<rscale>  2 0.43810519E+03</rscale>
<asrwt>0</asrwt>
<pdfrwt beam="1">  1       21 0.47708341E-01 0.43816064E+03</pdfrwt>
<pdfrwt beam="2">  1       21 0.10880967E+00 0.43816064E+03</pdfrwt>
<totfact> 0.24474254E+03</totfact>
</mgrwt>
</event>
<event>
 6    1  0.9399121E-004  0.4547099E+03  0.7818608E-02  0.1026333E+00
         21   -1    0    0  503  502  0.00000000000E+00  0.00000000000E+00  0.14875505151E+03  0.14875505151E+03  0.00000000000E+00 0. -1.
         21   -1    0    0  501  503 -0.00000000000E+00 -0.00000000000E+00 -0.17720591207E+04  0.17720591207E+04  0.00000000000E+00 0. -1.
    9000007    2    1    2  501    0 -0.19905050655E+03 -0.84498429575E+02 -0.12577276707E+04  0.13373699230E+04  0.39989789774E+03 0.  0.
    9000005    1    3    3    0    0 -0.15198068370E+03 -0.14372061147E+03 -0.12427765153E+04  0.12602571997E+04  0.99999687468E+00 0.  0.
          4    1    3    3  501    0 -0.47069822855E+02  0.59222181900E+02 -0.14951155388E+02  0.77112723334E+02  0.00000000000E+00 0.  1.
   -9000007    1    1    2    0  502  0.19905050655E+03  0.84498429575E+02 -0.36557639847E+03  0.58344424916E+03  0.40000000000E+03 0. -1.
<mgrwt>
<rscale>  2 0.45468744E+03</rscale>
<asrwt>0</asrwt>
<pdfrwt beam="1">  1       21 0.22885395E-01 0.45470990E+03</pdfrwt>
<pdfrwt beam="2">  1       21 0.27262445E+00 0.45470990E+03</pdfrwt>
<totfact> 0.71053514E+02</totfact>
</mgrwt>
</event>
<event>
 6    1  0.9399121E-004  0.4123040E+03  0.7818608E-02  0.1039650E+00
         21   -1    0    0  503  502  0.00000000000E+00  0.00000000000E+00  0.31756243950E+03  0.31756243950E+03  0.00000000000E+00 0.  1.
         21   -1    0    0  501  503 -0.00000000000E+00 -0.00000000000E+00 -0.58700696631E+03  0.58700696631E+03  0.00000000000E+00 0. -1.
    9000007    2    1    2  501    0  0.98416262677E+02  0.17574258452E+02 -0.26984787803E+03  0.49226517589E+03  0.39939017364E+03 0.  0.
    9000005    1    3    3    0    0 -0.14375120608E+03  0.47960213777E+01 -0.21989766279E+02  0.14550587922E+03  0.99999687468E+00 0.  0.
          4    1    3    3  501    0  0.24216746876E+03  0.12778237074E+02 -0.24785811175E+03  0.34675929667E+03  0.00000000000E+00 0.  1.
   -9000007    1    1    2    0  502 -0.98416262677E+02 -0.17574258452E+02  0.40335121243E+00  0.41230422992E+03  0.40000000000E+03 0.  1.
<mgrwt>
<rscale>  2 0.41215605E+03</rscale>
<asrwt>0</asrwt>
<pdfrwt beam="1">  1       21 0.48855760E-01 0.41230403E+03</pdfrwt>
<pdfrwt beam="2">  1       21 0.90308764E-01 0.41230403E+03</pdfrwt>
<totfact> 0.36904726E+03</totfact>
</mgrwt>
</event>
<event>
 6    1  0.9399121E-004  0.5313232E+03  0.7818608E-02  0.1005923E+00
         21   -1    0    0  503  502  0.00000000000E+00  0.00000000000E+00  0.16110355581E+04  0.16110355581E+04  0.00000000000E+00 0. -1.
         21   -1    0    0  501  503 -0.00000000000E+00 -0.00000000000E+00 -0.37072280868E+03  0.37072280868E+03  0.00000000000E+00 0.  1.
    9000007    2    1    2  501    0  0.25470229742E+03  0.23964786672E+03 -0.99557423517E+02  0.54038525732E+03  0.39975015374E+03 0.  0.
    9000005    1    3    3    0    0 -0.10856252176E+03  0.77064547364E+02 -0.23614075562E+02  0.13521608687E+03  0.99999687468E+00 0.  0.
          4    1    3    3  501    0  0.36326481918E+03  0.16258331935E+03 -0.75943347955E+02  0.40516917045E+03  0.00000000000E+00 0.  1.
   -9000007    1    1    2    0  502 -0.25470229742E+03 -0.23964786672E+03  0.13398701730E+04  0.14413731095E+04  0.40000000000E+03 0. -1.
<mgrwt>
<rscale>  2 0.53127619E+03</rscale>
<asrwt>0</asrwt>
<pdfrwt beam="1">  1       21 0.24785162E+00 0.53132322E+03</pdfrwt>
<pdfrwt beam="2">  1       21 0.57034279E-01 0.53132322E+03</pdfrwt>
<totfact> 0.15012866E+02</totfact>
</mgrwt>
</event>
<event>
 6    1  0.9399121E-004  0.4218254E+03  0.7818608E-02  0.1036493E+00
         21   -1    0    0  503  502  0.00000000000E+00  0.00000000000E+00  0.31677298368E+03  0.31677298368E+03  0.00000000000E+00 0. -1.
         21   -1    0    0  501  503 -0.00000000000E+00 -0.00000000000E+00 -0.61071712748E+03  0.61071712748E+03  0.00000000000E+00 0. -1.
    9000007    2    1    2  501    0 -0.12125983435E+02 -0.13337765704E+03 -0.15165542017E+02  0.42186757637E+03  0.39975695048E+03 0.  0.
    9000005    1    3    3    0    0 -0.20536889493E+03 -0.85681749787E+02 -0.10289916872E+02  0.22276585832E+03  0.99999687468E+00 0.  0.
          4    1    3    3  501    0  0.19324291149E+03 -0.47695907251E+02 -0.48756251446E+01  0.19910171805E+03  0.00000000000E+00 0.  1.
   -9000007    1    1    2    0  502  0.12125983435E+02  0.13337765704E+03 -0.27877860178E+03  0.50562253479E+03  0.40000000000E+03 0. -1.
<mgrwt>
<rscale>  2 0.42176774E+03</rscale>
<asrwt>0</asrwt>
<pdfrwt beam="1">  1       21 0.48734306E-01 0.42182537E+03</pdfrwt>
<pdfrwt beam="2">  1       21 0.93956480E-01 0.42182537E+03</pdfrwt>
<totfact> 0.33648346E+03</totfact>
</mgrwt>
</event>
<event>
 6    1  0.9399121E-004  0.4174012E+03  0.7818608E-02  0.1037941E+00
         21   -1    0    0  503  502  0.00000000000E+00  0.00000000000E+00  0.20390258330E+03  0.20390258330E+03  0.00000000000E+00 0. -1.
         21   -1    0    0  501  503 -0.00000000000E+00 -0.00000000000E+00 -0.11321161924E+04  0.11321161924E+04  0.00000000000E+00 0. -1.
    9000007    2    1    2  501    0 -0.10973417146E+03  0.43848766665E+02 -0.79544358793E+03  0.89830633445E+03  0.40032420139E+03 0.  0.
    9000005    1    3    3    0    0  0.51617620741E+02 -0.13839906602E+03 -0.46494378938E+03  0.48784465512E+03  0.99999687468E+00 0.  0.
          4    1    3    3  501    0 -0.16135179220E+03  0.18224783269E+03 -0.33049979854E+03  0.41046167933E+03  0.00000000000E+00 0.  1.
   -9000007    1    1    2    0  502  0.10973417146E+03 -0.43848766665E+02 -0.13277002122E+03  0.43771244129E+03  0.40000000000E+03 0. -1.
<mgrwt>
<rscale>  2 0.41732346E+03</rscale>
<asrwt>0</asrwt>
<pdfrwt beam="1">  1       21 0.31369628E-01 0.41740121E+03</pdfrwt>
<pdfrwt beam="2">  1       21 0.17417172E+00 0.41740121E+03</pdfrwt>
<totfact> 0.16768001E+03</totfact>
</mgrwt>
</event>
<event>
 6    1  0.9399121E-004  0.4669003E+03  0.7818608E-02  0.1023017E+00
         21   -1    0    0  503  502  0.00000000000E+00  0.00000000000E+00  0.18342237273E+04  0.18342237273E+04  0.00000000000E+00 0.  1.
         21   -1    0    0  501  503 -0.00000000000E+00 -0.00000000000E+00 -0.12645710884E+03  0.12645710884E+03  0.00000000000E+00 0. -1.
    9000007    2    1    2  501    0 -0.20485751012E+03  0.11480182779E+03  0.60405125008E+03  0.76346169434E+03  0.40354651142E+03 0.  0.
    9000005    1    3    3    0    0 -0.23273478071E+03 -0.97522172094E+02  0.34266957230E+03  0.42555785503E+03  0.99999687468E+00 0.  0.
          4    1    3    3  501    0  0.27877270588E+02  0.21232399988E+03  0.26138167778E+03  0.33790383931E+03  0.00000000000E+00 0.  1.
   -9000007    1    1    2    0  502  0.20485751012E+03 -0.11480182779E+03  0.11037153684E+04  0.11972191418E+04  0.40000000000E+03 0.  1.
<mgrwt>
<rscale>  2 0.46613290E+03</rscale>
<asrwt>0</asrwt>
<pdfrwt beam="1">  1       21 0.28218825E+00 0.46690025E+03</pdfrwt>
<pdfrwt beam="2">  1       21 0.19454941E-01 0.46690025E+03</pdfrwt>
<totfact> 0.84348588E+02</totfact>
</mgrwt>
</event>
<event>
 6    1  0.9399121E-004  0.4497022E+03  0.7818608E-02  0.1027874E+00
         21   -1    0    0  503  502  0.00000000000E+00  0.00000000000E+00  0.36363995302E+03  0.36363995302E+03  0.00000000000E+00 0. -1.
         21   -1    0    0  501  503 -0.00000000000E+00 -0.00000000000E+00 -0.63740463176E+03  0.63740463176E+03  0.00000000000E+00 0.  1.
    9000007    2    1    2  501    0 -0.22258416471E+02  0.20242155053E+03 -0.31686926259E+03  0.55012560495E+03  0.40095153127E+03 0.  0.
    9000005    1    3    3    0    0  0.25148290573E+02 -0.11684946469E+03 -0.13234298481E+03  0.17833087096E+03  0.99999687468E+00 0.  0.
          4    1    3    3  501    0 -0.47406707043E+02  0.31927101522E+03 -0.18452627778E+03  0.37179473399E+03  0.00000000000E+00 0.  1.
   -9000007    1    1    2    0  502  0.22258416471E+02 -0.20242155053E+03  0.43104583851E+02  0.45091897983E+03  0.40000000000E+03 0. -1.
<mgrwt>
<rscale>  2 0.44948999E+03</rscale>
<asrwt>0</asrwt>
<pdfrwt beam="1">  1       21 0.55944608E-01 0.44970218E+03</pdfrwt>
<pdfrwt beam="2">  1       21 0.98062251E-01 0.44970218E+03</pdfrwt>
<totfact> 0.22368249E+03</totfact>
</mgrwt>
</event>
<event>
 6    1  0.9399121E-004  0.4183766E+03  0.7818608E-02  0.1037599E+00
         21   -1    0    0  503  502  0.00000000000E+00  0.00000000000E+00  0.82301598720E+03  0.82301598720E+03  0.00000000000E+00 0. -1.
         21   -1    0    0  501  503 -0.00000000000E+00 -0.00000000000E+00 -0.23079702273E+03  0.23079702273E+03  0.00000000000E+00 0. -1.
    9000007    2    1    2  501    0 -0.95120077803E+02  0.77402516915E+02  0.44380437128E+03  0.60989199184E+03  0.39995867652E+03 0.  0.
    9000005    1    3    3    0    0 -0.23458843709E+03  0.45866321369E+02  0.38938030458E+03  0.45689547584E+03  0.99999687468E+00 0.  0.
          4    1    3    3  501    0  0.13946835929E+03  0.31536195546E+02  0.54424066702E+02  0.15299651600E+03  0.00000000000E+00 0.  1.
   -9000007    1    1    2    0  502  0.95120077803E+02 -0.77402516915E+02  0.14841459319E+03  0.44392101809E+03  0.40000000000E+03 0. -1.
<mgrwt>
<rscale>  2 0.41836672E+03</rscale>
<asrwt>0</asrwt>
<pdfrwt beam="1">  1       21 0.12661784E+00 0.41837660E+03</pdfrwt>
<pdfrwt beam="2">  1       21 0.35507235E-01 0.41837660E+03</pdfrwt>
<totfact> 0.30989996E+03</totfact>
</mgrwt>
</event>
<event>
 6    1  0.9399121E-004  0.5071563E+03  0.7818608E-02  0.1011947E+00
         21   -1    0    0  503  502  0.00000000000E+00  0.00000000000E+00  0.63519492343E+03  0.63519492343E+03  0.00000000000E+00 0.  1.
         21   -1    0    0  501  503 -0.00000000000E+00 -0.00000000000E+00 -0.11351341107E+04  0.11351341107E+04  0.00000000000E+00 0.  1.
    9000007    2    1    2  501    0  0.17463544280E+03  0.25828275053E+03 -0.96000207407E+03  0.10855915830E+04  0.39962180338E+03 0.  0.
    9000005    1    3    3    0    0  0.66150061715E+02  0.10068801471E+03 -0.14990406260E+02  0.12140683360E+03  0.99999687468E+00 0.  0.
          4    1    3    3  501    0  0.10848538108E+03  0.15759473583E+03 -0.94501166781E+03  0.96418474940E+03  0.00000000000E+00 0.  1.
   -9000007    1    1    2    0  502 -0.17463544280E+03 -0.25828275053E+03  0.46006288683E+03  0.68473745110E+03  0.40000000000E+03 0.  1.
<mgrwt>
<rscale>  2 0.50708173E+03</rscale>
<asrwt>0</asrwt>
<pdfrwt beam="1">  1       21 0.97722297E-01 0.50715630E+03</pdfrwt>
<pdfrwt beam="2">  1       21 0.17463601E+00 0.50715630E+03</pdfrwt>
<totfact> 0.13443124E+02</totfact>
</mgrwt>
</event>
<event>
 6    1  0.9399121E-004  0.4084111E+03  0.7818608E-02  0.1041006E+00
         21   -1    0    0  503  502  0.00000000000E+00  0.00000000000E+00  0.21591306900E+03  0.21591306900E+03  0.00000000000E+00 0. -1.
         21   -1    0    0  501  503 -0.00000000000E+00 -0.00000000000E+00 -0.16621899149E+04  0.16621899149E+04  0.00000000000E+00 0. -1.
    9000007    2    1    2  501    0  0.10988778963E+01  0.76323264943E+02 -0.14115048858E+04  0.14694031705E+04  0.40121463903E+03 0.  0.
    9000005    1    3    3    0    0 -0.13556697849E+03  0.84815321957E+02 -0.12384295748E+04  0.12487116785E+04  0.99999687468E+00 0.  0.
          4    1    3    3  501    0  0.13666585639E+03 -0.84920570142E+01 -0.17307531101E+03  0.22069149195E+03  0.00000000000E+00 0.  1.
   -9000007    1    1    2    0  502 -0.10988778963E+01 -0.76323264943E+02 -0.34771960164E+02  0.40869981345E+03  0.40000000000E+03 0. -1.
<mgrwt>
<rscale>  2 0.40811249E+03</rscale>
<asrwt>0</asrwt>
<pdfrwt beam="1">  1       21 0.33217394E-01 0.40841111E+03</pdfrwt>
<pdfrwt beam="2">  1       21 0.25572153E+00 0.40841111E+03</pdfrwt>
<totfact> 0.44369804E+02</totfact>
</mgrwt>
</event>
<event>
 6    1  0.9399121E-004  0.4661591E+03  0.7818608E-02  0.1023126E+00
         21   -1    0    0  503  502  0.00000000000E+00  0.00000000000E+00  0.20222527473E+03  0.20222527473E+03  0.00000000000E+00 0. -1.
         21   -1    0    0  501  503 -0.00000000000E+00 -0.00000000000E+00 -0.17086850393E+04  0.17086850393E+04  0.00000000000E+00 0. -1.
    9000007    2    1    2  501    0 -0.90091788603E+02 -0.21834899877E+03 -0.13378233007E+04  0.14167129115E+04  0.40188490169E+03 0.  0.
    9000005    1    3    3    0    0  0.12199307688E+03  0.36813797427E+02 -0.48941767641E+03  0.50573533440E+03  0.99999687468E+00 0.  0.
          4    1    3    3  501    0 -0.21208486548E+03 -0.25516279620E+03 -0.84840562430E+03  0.91097757715E+03  0.00000000000E+00 0.  1.
   -9000007    1    1    2    0  502  0.90091788603E+02  0.21834899877E+03 -0.16863646382E+03  0.49419740243E+03  0.40000000000E+03 0. -1.
<mgrwt>
<rscale>  2 0.46575254E+03</rscale>
<asrwt>0</asrwt>
<pdfrwt beam="1">  1       21 0.31111581E-01 0.46615908E+03</pdfrwt>
<pdfrwt beam="2">  1       21 0.26287462E+00 0.46615908E+03</pdfrwt>
<totfact> 0.44311020E+02</totfact>
</mgrwt>
</event>
<event>
 6    1  0.9399121E-004  0.4585368E+03  0.7818608E-02  0.1025234E+00
         21   -1    0    0  503  502  0.00000000000E+00  0.00000000000E+00  0.92997945925E+03  0.92997945925E+03  0.00000000000E+00 0. -1.
         21   -1    0    0  501  503 -0.00000000000E+00 -0.00000000000E+00 -0.25534144578E+03  0.25534144578E+03  0.00000000000E+00 0. -1.
    9000007    2    1    2  501    0  0.15915281801E+03  0.15788085081E+03  0.53843896848E+03  0.70698403379E+03  0.39956716422E+03 0.  0.
    9000005    1    3    3    0    0 -0.40996558399E+02  0.20612468435E+03  0.41953825790E+03  0.46923496580E+03  0.99999687468E+00 0.  0.
          4    1    3    3  501    0  0.20014937641E+03 -0.48243833540E+02  0.11890071058E+03  0.23774906799E+03  0.00000000000E+00 0.  1.
   -9000007    1    1    2    0  502 -0.15915281801E+03 -0.15788085081E+03  0.13619904498E+03  0.47833687124E+03  0.40000000000E+03 0. -1.
<mgrwt>
<rscale>  2 0.45844237E+03</rscale>
<asrwt>0</asrwt>
<pdfrwt beam="1">  1       21 0.14307376E+00 0.45853678E+03</pdfrwt>
<pdfrwt beam="2">  1       21 0.39283300E-01 0.45853678E+03</pdfrwt>
<totfact> 0.18020537E+03</totfact>
</mgrwt>
</event>
<event>
 6    1  0.9399121E-004  0.4403427E+03  0.7818608E-02  0.1030668E+00
         21   -1    0    0  503  502  0.00000000000E+00  0.00000000000E+00  0.55252193886E+03  0.55252193886E+03  0.00000000000E+00 0.  1.
         21   -1    0    0  501  503 -0.00000000000E+00 -0.00000000000E+00 -0.35500292160E+03  0.35500292160E+03  0.00000000000E+00 0.  1.
    9000007    2    1    2  501    0 -0.17779438624E+02 -0.18326361970E+03  0.48567814834E+02  0.44267206285E+03  0.39962239658E+03 0.  0.
    9000005    1    3    3    0    0 -0.12153918803E+03 -0.16980867913E+03  0.17929157765E+03  0.27523304952E+03  0.99999687468E+00 0.  0.
          4    1    3    3  501    0  0.10375974941E+03 -0.13454940563E+02 -0.13072376281E+03  0.16743901334E+03  0.00000000000E+00 0.  1.
   -9000007    1    1    2    0  502  0.17779438624E+02  0.18326361970E+03  0.14895120242E+03  0.46485279761E+03  0.40000000000E+03 0.  1.
<mgrwt>
<rscale>  2 0.44025689E+03</rscale>
<asrwt>0</asrwt>
<pdfrwt beam="1">  1       21 0.85003375E-01 0.44034267E+03</pdfrwt>
<pdfrwt beam="2">  1       21 0.54615834E-01 0.44034267E+03</pdfrwt>
<totfact> 0.33197590E+03</totfact>
</mgrwt>
</event>
<event>
 6    1  0.9399121E-004  0.4255567E+03  0.7818608E-02  0.1035280E+00
         21   -1    0    0  503  502  0.00000000000E+00  0.00000000000E+00  0.95770779519E+03  0.95770779519E+03  0.00000000000E+00 0.  1.
         21   -1    0    0  501  503 -0.00000000000E+00 -0.00000000000E+00 -0.20853956417E+03  0.20853956417E+03  0.00000000000E+00 0.  1.
    9000007    2    1    2  501    0  0.53464551942E+02  0.13475941759E+03  0.19637456598E+03  0.46868059191E+03  0.40009994767E+03 0.  0.
    9000005    1    3    3    0    0 -0.38981776110E+02  0.25572521161E+03  0.18087934381E+03  0.31564742948E+03  0.99999687468E+00 0.  0.
          4    1    3    3  501    0  0.92446328052E+02 -0.12096579402E+03  0.15495222169E+02  0.15303316243E+03  0.00000000000E+00 0.  1.
   -9000007    1    1    2    0  502 -0.53464551942E+02 -0.13475941759E+03  0.55279366504E+03  0.69756676745E+03  0.40000000000E+03 0.  1.
<mgrwt>
<rscale>  2 0.42553323E+03</rscale>
<asrwt>0</asrwt>
<pdfrwt beam="1">  1       21 0.14733966E+00 0.42555673E+03</pdfrwt>
<pdfrwt beam="2">  1       21 0.32083010E-01 0.42555673E+03</pdfrwt>
<totfact> 0.25432293E+03</totfact>
</mgrwt>
</event>
<event>
 6    1  0.9399121E-004  0.4198756E+03  0.7818608E-02  0.1037118E+00
         21   -1    0    0  503  502  0.00000000000E+00  0.00000000000E+00  0.92406960360E+03  0.92406960360E+03  0.00000000000E+00 0.  1.
         21   -1    0    0  501  503 -0.00000000000E+00 -0.00000000000E+00 -0.28441441309E+03  0.28441441309E+03  0.00000000000E+00 0.  1.
    9000007    2    1    2  501    0  0.69938737095E+02  0.10623782179E+03 -0.26950657020E+02  0.42073960530E+03  0.40014694279E+03 0.  0.
    9000005    1    3    3    0    0  0.10936711401E+03 -0.93825714692E+02  0.10461117779E+03  0.17807001117E+03  0.99999687468E+00 0.  0.
          4    1    3    3  501    0 -0.39428376914E+02  0.20006353648E+03 -0.13156183481E+03  0.24266959413E+03  0.00000000000E+00 0.  1.
   -9000007    1    1    2    0  502 -0.69938737095E+02 -0.10623782179E+03  0.66660584753E+03  0.78774441139E+03  0.40000000000E+03 0.  1.
<mgrwt>
<rscale>  2 0.41984054E+03</rscale>
<asrwt>0</asrwt>
<pdfrwt beam="1">  1       21 0.14216455E+00 0.41987555E+03</pdfrwt>
<pdfrwt beam="2">  1       21 0.43756064E-01 0.41987555E+03</pdfrwt>
<totfact> 0.14898892E+03</totfact>
</mgrwt>
</event>
<event>
 6    1  0.9399121E-004  0.4650445E+03  0.7818608E-02  0.1023459E+00
         21   -1    0    0  503  502  0.00000000000E+00  0.00000000000E+00  0.94368939514E+03  0.94368939514E+03  0.00000000000E+00 0. -1.
         21   -1    0    0  501  503 -0.00000000000E+00 -0.00000000000E+00 -0.29273061856E+03  0.29273061856E+03  0.00000000000E+00 0. -1.
    9000007    2    1    2  501    0 -0.23401119002E+03 -0.38796434231E+02  0.34895598036E+02  0.46453903822E+03  0.39788492671E+03 0.  0.
    9000005    1    3    3    0    0 -0.19215964972E+03  0.14047313472E+03  0.11430245256E+03  0.26405318255E+03  0.99999687468E+00 0.  0.
          4    1    3    3  501    0 -0.41851540295E+02 -0.17926956895E+03 -0.79406854529E+02  0.20048585567E+03  0.00000000000E+00 0.  1.
   -9000007    1    1    2    0  502  0.23401119002E+03  0.38796434231E+02  0.61606317855E+03  0.77188097549E+03  0.40000000000E+03 0. -1.
<mgrwt>
<rscale>  2 0.46458935E+03</rscale>
<asrwt>0</asrwt>
<pdfrwt beam="1">  1       21 0.14518298E+00 0.46504451E+03</pdfrwt>
<pdfrwt beam="2">  1       21 0.45035480E-01 0.46504451E+03</pdfrwt>
<totfact> 0.13012202E+03</totfact>
</mgrwt>
</event>
<event>
 6    1  0.9399121E-004  0.9183831E+03  0.7818608E-02  0.9403121E-01
         21   -1    0    0  503  502  0.00000000000E+00  0.00000000000E+00  0.23515327447E+04  0.23515327447E+04  0.00000000000E+00 0. -1.
         21   -1    0    0  501  503 -0.00000000000E+00 -0.00000000000E+00 -0.84403207109E+03  0.84403207109E+03  0.00000000000E+00 0.  1.
    9000007    2    1    2  501    0  0.49508835459E+03  0.66205364881E+03 -0.45838506124E+03  0.10257412665E+04  0.39824711999E+03 0.  0.
    9000005    1    3    3    0    0 -0.42178812132E+02  0.16638277988E+03 -0.18596886622E+02  0.17265319522E+03  0.99999687468E+00 0.  0.
          4    1    3    3  501    0  0.53726716673E+03  0.49567086893E+03 -0.43978817462E+03  0.85308807123E+03  0.00000000000E+00 0.  1.
   -9000007    1    1    2    0  502 -0.49508835459E+03 -0.66205364881E+03  0.19658857349E+04  0.21698235493E+04  0.40000000000E+03 0. -1.
<mgrwt>
<rscale>  2 0.91819251E+03</rscale>
<asrwt>0</asrwt>
<pdfrwt beam="1">  1       21 0.36177426E+00 0.91838310E+03</pdfrwt>
<pdfrwt beam="2">  1       21 0.12985109E+00 0.91838310E+03</pdfrwt>
<totfact> 0.35261330E+00</totfact>
</mgrwt>
</event>
<event>
 6    1  0.9399121E-004  0.4486174E+03  0.7818608E-02  0.1028218E+00
         21   -1    0    0  503  502  0.00000000000E+00  0.00000000000E+00  0.15033213679E+04  0.15033213679E+04  0.00000000000E+00 0. -1.
         21   -1    0    0  501  503 -0.00000000000E+00 -0.00000000000E+00 -0.42579147063E+03  0.42579147063E+03  0.00000000000E+00 0. -1.
    9000007    2    1    2  501    0 -0.13448739559E+03  0.15221942882E+03 -0.26054422585E+03  0.51783682971E+03  0.39876568872E+03 0.  0.
    9000005    1    3    3    0    0 -0.54930136279E+02  0.23431624212E+03 -0.31068950276E+03  0.39300176630E+03  0.99999687468E+00 0.  0.
          4    1    3    3  501    0 -0.79557259308E+02 -0.82096813300E+02  0.50145276902E+02  0.12483506342E+03  0.00000000000E+00 0.  1.
   -9000007    1    1    2    0  502  0.13448739559E+03 -0.15221942882E+03  0.13380741231E+04  0.14112760088E+04  0.40000000000E+03 0. -1.
<mgrwt>
<rscale>  2 0.44834214E+03</rscale>
<asrwt>0</asrwt>
<pdfrwt beam="1">  1       21 0.23128021E+00 0.44861745E+03</pdfrwt>
<pdfrwt beam="2">  1       21 0.65506381E-01 0.44861745E+03</pdfrwt>
<totfact> 0.14667156E+02</totfact>
</mgrwt>
</event>
<event>
 6    1  0.9399121E-004  0.5310156E+03  0.7818608E-02  0.1006088E+00
         21   -1    0    0  503  502  0.00000000000E+00  0.00000000000E+00  0.11504453430E+04  0.11504453430E+04  0.00000000000E+00 0.  1.
         21   -1    0    0  501  503 -0.00000000000E+00 -0.00000000000E+00 -0.33100140805E+03  0.33100140805E+03  0.00000000000E+00 0.  1.
    9000007    2    1    2  501    0 -0.29406579409E+03 -0.18363167953E+03  0.31161984697E+02  0.53192912717E+03  0.40222163301E+03 0.  0.
    9000005    1    3    3    0    0 -0.28466910352E+03  0.38162707329E+02  0.92277029689E+02  0.30167688166E+03  0.99999687468E+00 0.  0.
          4    1    3    3  501    0 -0.93966905694E+01 -0.22179438686E+03 -0.61115044992E+02  0.23025224551E+03  0.00000000000E+00 0.  1.
   -9000007    1    1    2    0  502  0.29406579409E+03  0.18363167953E+03  0.78828195029E+03  0.94951762392E+03  0.40000000000E+03 0.  1.
<mgrwt>
<rscale>  2 0.53059486E+03</rscale>
<asrwt>0</asrwt>
<pdfrwt beam="1">  1       21 0.17699159E+00 0.53101556E+03</pdfrwt>
<pdfrwt beam="2">  1       21 0.50923294E-01 0.53101556E+03</pdfrwt>
<totfact> 0.56138200E+02</totfact>
</mgrwt>
</event>
<event>
 6    1  0.9399121E-004  0.4547849E+03  0.7818608E-02  0.1026350E+00
         21   -1    0    0  503  502  0.00000000000E+00  0.00000000000E+00  0.87784720932E+03  0.87784720932E+03  0.00000000000E+00 0.  1.
         21   -1    0    0  501  503 -0.00000000000E+00 -0.00000000000E+00 -0.26218828324E+03  0.26218828324E+03  0.00000000000E+00 0. -1.
    9000007    2    1    2  501    0 -0.16954275766E+03 -0.13239075399E+03  0.12544709827E+03  0.47176930717E+03  0.40069595244E+03 0.  0.
    9000005    1    3    3    0    0  0.14552345348E+02  0.12484657150E+03 -0.13211051848E+02  0.12638816817E+03  0.99999687468E+00 0.  0.
          4    1    3    3  501    0 -0.18409510301E+03 -0.25723732549E+03  0.13865815012E+03  0.34538113899E+03  0.00000000000E+00 0.  1.
   -9000007    1    1    2    0  502  0.16954275766E+03  0.13239075399E+03  0.49021182781E+03  0.66826618540E+03  0.40000000000E+03 0.  1.
<mgrwt>
<rscale>  2 0.45463156E+03</rscale>
<asrwt>0</asrwt>
<pdfrwt beam="1">  1       21 0.13505342E+00 0.45478490E+03</pdfrwt>
<pdfrwt beam="2">  1       21 0.40336659E-01 0.45478490E+03</pdfrwt>
<totfact> 0.19917321E+03</totfact>
</mgrwt>
</event>
<event>
 6    1  0.9399121E-004  0.4801014E+03  0.7818608E-02  0.1019122E+00
         21   -1    0    0  503  502  0.00000000000E+00  0.00000000000E+00  0.42197329618E+03  0.42197329618E+03  0.00000000000E+00 0.  1.
         21   -1    0    0  501  503 -0.00000000000E+00 -0.00000000000E+00 -0.99844080411E+03  0.99844080411E+03  0.00000000000E+00 0.  1.
    9000007    2    1    2  501    0 -0.87664108527E+02 -0.25021783043E+03 -0.76635530502E+03  0.90432173058E+03  0.40025414463E+03 0.  0.
    9000005    1    3    3    0    0  0.12888032059E+03 -0.68606970173E+02 -0.90563358880E+02  0.17181319902E+03  0.99999687468E+00 0.  0.
          4    1    3    3  501    0 -0.21654442912E+03 -0.18161086026E+03 -0.67579194614E+03  0.73250853156E+03  0.00000000000E+00 0.  1.
   -9000007    1    1    2    0  502  0.87664108527E+02  0.25021783043E+03  0.18988779708E+03  0.51609236971E+03  0.40000000000E+03 0.  1.
<mgrwt>
<rscale>  2 0.48004841E+03</rscale>
<asrwt>0</asrwt>
<pdfrwt beam="1">  1       21 0.64918970E-01 0.48010138E+03</pdfrwt>
<pdfrwt beam="2">  1       21 0.15360627E+00 0.48010138E+03</pdfrwt>
<totfact> 0.50399547E+02</totfact>
</mgrwt>
</event>
<event>
 6    1  0.9399121E-004  0.4393135E+03  0.7818608E-02  0.1031547E+00
         21   -1    0    0  503  502  0.00000000000E+00  0.00000000000E+00  0.49872338753E+03  0.49872338753E+03  0.00000000000E+00 0. -1.
         21   -1    0    0  501  503 -0.00000000000E+00 -0.00000000000E+00 -0.38048847728E+03  0.38048847728E+03  0.00000000000E+00 0. -1.
    9000007    2    1    2  501    0 -0.16124519849E+03 -0.19414805935E+02  0.50259330837E+02  0.44217911075E+03  0.40819041748E+03 0.  0.
    9000005    1    3    3    0    0 -0.12666965324E+03  0.62113174795E+02  0.21382767302E+03  0.25617673836E+03  0.99999687468E+00 0.  0.
          4    1    3    3  501    0 -0.34575545252E+02 -0.81527980730E+02 -0.16356834218E+03  0.18600237239E+03  0.00000000000E+00 0.  1.
   -9000007    1    1    2    0  502  0.16124519849E+03  0.19414805935E+02  0.67975579414E+02  0.43703275406E+03  0.40000000000E+03 0. -1.
<mgrwt>
<rscale>  2 0.43740118E+03</rscale>
<asrwt>0</asrwt>
<pdfrwt beam="1">  1       21 0.76726675E-01 0.43931352E+03</pdfrwt>
<pdfrwt beam="2">  1       21 0.58536689E-01 0.43931352E+03</pdfrwt>
<totfact> 0.36218053E+03</totfact>
</mgrwt>
</event>
<event>
 6    1  0.9399121E-004  0.4340313E+03  0.7818608E-02  0.1032642E+00
         21   -1    0    0  503  502  0.00000000000E+00  0.00000000000E+00  0.21935218588E+03  0.21935218588E+03  0.00000000000E+00 0.  1.
         21   -1    0    0  501  503 -0.00000000000E+00 -0.00000000000E+00 -0.11927267825E+04  0.11927267825E+04  0.00000000000E+00 0.  1.
    9000007    2    1    2  501    0  0.11699021960E+03 -0.11899246526E+03 -0.86119322353E+03  0.96438423005E+03  0.40067100798E+03 0.  0.
    9000005    1    3    3    0    0 -0.42162044821E+02 -0.16493374059E+03 -0.73948788003E+03  0.75883074629E+03  0.99999687468E+00 0.  0.
          4    1    3    3  501    0  0.15915226442E+03  0.45941275326E+02 -0.12170534350E+03  0.20555348376E+03  0.00000000000E+00 0.  1.
   -9000007    1    1    2    0  502 -0.11699021960E+03  0.11899246526E+03 -0.11218137310E+03  0.44769473835E+03  0.40000000000E+03 0.  1.
<mgrwt>
<rscale>  2 0.43387638E+03</rscale>
<asrwt>0</asrwt>
<pdfrwt beam="1">  1       21 0.33746491E-01 0.43403131E+03</pdfrwt>
<pdfrwt beam="2">  1       21 0.18349642E+00 0.43403131E+03</pdfrwt>
<totfact> 0.12353801E+03</totfact>
</mgrwt>
</event>
<event>
 6    1  0.9399121E-004  0.4041328E+03  0.7818608E-02  0.1042366E+00
         21   -1    0    0  503  502  0.00000000000E+00  0.00000000000E+00  0.19327212663E+03  0.19327212663E+03  0.00000000000E+00 0. -1.
         21   -1    0    0  501  503 -0.00000000000E+00 -0.00000000000E+00 -0.88884354778E+03  0.88884354778E+03  0.00000000000E+00 0. -1.
    9000007    2    1    2  501    0  0.46480661896E+02 -0.32935759932E+02 -0.22744139701E+03  0.46373801010E+03  0.40009765899E+03 0.  0.
    9000005    1    3    3    0    0  0.20835407601E+03  0.58315397518E+02 -0.99602215071E+02  0.23818838724E+03  0.99999687468E+00 0.  0.
          4    1    3    3  501    0 -0.16187341411E+03 -0.91251157450E+02 -0.12783918194E+03  0.22554962286E+03  0.00000000000E+00 0.  1.
   -9000007    1    1    2    0  502 -0.46480661896E+02  0.32935759932E+02 -0.46813002414E+03  0.61837766431E+03  0.40000000000E+03 0. -1.
<mgrwt>
<rscale>  2 0.40410867E+03</rscale>
<asrwt>0</asrwt>
<pdfrwt beam="1">  1       21 0.29734173E-01 0.40413284E+03</pdfrwt>
<pdfrwt beam="2">  1       21 0.13674516E+00 0.40413284E+03</pdfrwt>
<totfact> 0.36412873E+03</totfact>
</mgrwt>
</event>
<event>
 6    1  0.9399121E-004  0.4118927E+03  0.7818608E-02  0.1039743E+00
         21   -1    0    0  503  502  0.00000000000E+00  0.00000000000E+00  0.34363057011E+03  0.34363057011E+03  0.00000000000E+00 0. -1.
         21   -1    0    0  501  503 -0.00000000000E+00 -0.00000000000E+00 -0.11053726558E+04  0.11053726558E+04  0.00000000000E+00 0. -1.
    9000007    2    1    2  501    0 -0.52946318347E+01  0.97831595381E+02 -0.91985990614E+03  0.10078679867E+04  0.40007071561E+03 0.  0.
    9000005    1    3    3    0    0 -0.74219415664E+02  0.17164910595E+03 -0.87941140807E+03  0.89907583767E+03  0.99999687468E+00 0.  0.
          4    1    3    3  501    0  0.68924783830E+02 -0.73817510569E+02 -0.40448498065E+02  0.10879214902E+03  0.00000000000E+00 0.  1.
   -9000007    1    1    2    0  502  0.52946318347E+01 -0.97831595381E+02  0.15811782041E+03  0.44113523926E+03  0.40000000000E+03 0. -1.
<mgrwt>
<rscale>  2 0.41187557E+03</rscale>
<asrwt>0</asrwt>
<pdfrwt beam="1">  1       21 0.52866242E-01 0.41189274E+03</pdfrwt>
<pdfrwt beam="2">  1       21 0.17005733E+00 0.41189274E+03</pdfrwt>
<totfact> 0.61305558E+02</totfact>
</mgrwt>
</event>
<event>
 6    1  0.9399121E-004  0.4132532E+03  0.7818608E-02  0.1039302E+00
         21   -1    0    0  503  502  0.00000000000E+00  0.00000000000E+00  0.16158379557E+03  0.16158379557E+03  0.00000000000E+00 0. -1.
         21   -1    0    0  501  503 -0.00000000000E+00 -0.00000000000E+00 -0.10577767991E+04  0.10577767991E+04  0.00000000000E+00 0. -1.
    9000007    2    1    2  501    0 -0.93258744751E+02  0.45618043999E+02 -0.47008605181E+03  0.62577375713E+03  0.39979207044E+03 0.  0.
    9000005    1    3    3    0    0 -0.12048560775E+03 -0.11063207159E+03 -0.43303340011E+03  0.46289865256E+03  0.99999687468E+00 0.  0.
          4    1    3    3  501    0  0.27226862997E+02  0.15625011559E+03 -0.37052651703E+02  0.16287510457E+03  0.00000000000E+00 0.  1.
   -9000007    1    1    2    0  502  0.93258744751E+02 -0.45618043999E+02 -0.42610695172E+03  0.59358683755E+03  0.40000000000E+03 0.  1.
<mgrwt>
<rscale>  2 0.41320287E+03</rscale>
<asrwt>0</asrwt>
<pdfrwt beam="1">  1       21 0.24859046E-01 0.41325319E+03</pdfrwt>
<pdfrwt beam="2">  1       21 0.16273489E+00 0.41325319E+03</pdfrwt>
<totfact> 0.32170153E+03</totfact>
</mgrwt>
</event>
<event>
 6    1  0.9399121E-004  0.4635330E+03  0.7818608E-02  0.1023765E+00
         21   -1    0    0  503  502  0.00000000000E+00  0.00000000000E+00  0.33158125232E+03  0.33158125232E+03  0.00000000000E+00 0.  1.
         21   -1    0    0  501  503 -0.00000000000E+00 -0.00000000000E+00 -0.64810987129E+03  0.64810987129E+03  0.00000000000E+00 0. -1.
    9000007    2    1    2  501    0  0.20213998461E+03  0.11815075408E+03 -0.16642881563E+03  0.49250519911E+03  0.40005330446E+03 0.  0.
    9000005    1    3    3    0    0  0.22371129717E+03  0.21661738754E+03 -0.16496789145E+02  0.31183806874E+03  0.99999687468E+00 0.  0.
          4    1    3    3  501    0 -0.21571312564E+02 -0.98466633464E+02 -0.14993202648E+03  0.18066713037E+03  0.00000000000E+00 0.  1.
   -9000007    1    1    2    0  502 -0.20213998461E+03 -0.11815075408E+03 -0.15009980335E+03  0.48718592450E+03  0.40000000000E+03 0. -1.
<mgrwt>
<rscale>  2 0.46352148E+03</rscale>
<asrwt>0</asrwt>
<pdfrwt beam="1">  1       21 0.51012501E-01 0.46353298E+03</pdfrwt>
<pdfrwt beam="2">  1       21 0.99709211E-01 0.46353298E+03</pdfrwt>
<totfact> 0.26067882E+03</totfact>
</mgrwt>
</event>
<event>
 6    1  0.9399121E-004  0.4074215E+03  0.7818608E-02  0.1041275E+00
         21   -1    0    0  503  502  0.00000000000E+00  0.00000000000E+00  0.73424004362E+03  0.73424004362E+03  0.00000000000E+00 0. -1.
         21   -1    0    0  501  503 -0.00000000000E+00 -0.00000000000E+00 -0.22722455180E+03  0.22722455180E+03  0.00000000000E+00 0. -1.
    9000007    2    1    2  501    0 -0.65916955165E+02 -0.40586329157E+02  0.21590226878E+03  0.46072593731E+03  0.39957765773E+03 0.  0.
    9000005    1    3    3    0    0 -0.46336799877E+02 -0.17325401810E+03 -0.28840664821E+02  0.18165031724E+03  0.99999687468E+00 0.  0.
          4    1    3    3  501    0 -0.19580155288E+02  0.13266768895E+03  0.24474293360E+03  0.27907562008E+03  0.00000000000E+00 0.  1.
   -9000007    1    1    2    0  502  0.65916955165E+02  0.40586329157E+02  0.29111322304E+03  0.50073865811E+03  0.40000000000E+03 0. -1.
<mgrwt>
<rscale>  2 0.40731782E+03</rscale>
<asrwt>0</asrwt>
<pdfrwt beam="1">  1       21 0.11296001E+00 0.40742152E+03</pdfrwt>
<pdfrwt beam="2">  1       21 0.34957624E-01 0.40742152E+03</pdfrwt>
<totfact> 0.42872964E+03</totfact>
</mgrwt>
</event>
<event>
 6    1  0.9399121E-004  0.5074364E+03  0.7818608E-02  0.1012436E+00
         21   -1    0    0  503  502  0.00000000000E+00  0.00000000000E+00  0.10486781910E+04  0.10486781910E+04  0.00000000000E+00 0.  1.
         21   -1    0    0  501  503 -0.00000000000E+00 -0.00000000000E+00 -0.86838630891E+03  0.86838630891E+03  0.00000000000E+00 0.  1.
    9000007    2    1    2  501    0  0.32640505965E+00  0.29744343563E+03 -0.72421666625E+03  0.88429714084E+03  0.41111914292E+03 0.  0.
    9000005    1    3    3    0    0  0.41635067489E+02 -0.63752037645E+02 -0.25056123791E+01  0.76191070578E+02  0.99999687468E+00 0.  0.
          4    1    3    3  501    0 -0.41308662429E+02  0.36119547328E+03 -0.72171105387E+03  0.80810607026E+03  0.00000000000E+00 0.  1.
   -9000007    1    1    2    0  502 -0.32640505965E+00 -0.29744343563E+03  0.90450854834E+03  0.10327673591E+04  0.40000000000E+03 0.  1.
<mgrwt>
<rscale>  2 0.50517985E+03</rscale>
<asrwt>0</asrwt>
<pdfrwt beam="1">  1       21 0.16133511E+00 0.50743635E+03</pdfrwt>
<pdfrwt beam="2">  1       21 0.13359789E+00 0.50743635E+03</pdfrwt>
<totfact> 0.76617139E+01</totfact>
</mgrwt>
</event>
<event>
 6    1  0.9399121E-004  0.4589382E+03  0.7818608E-02  0.1025106E+00
         21   -1    0    0  503  502  0.00000000000E+00  0.00000000000E+00  0.17575570556E+04  0.17575570556E+04  0.00000000000E+00 0.  1.
         21   -1    0    0  501  503 -0.00000000000E+00 -0.00000000000E+00 -0.11985409529E+03  0.11985409529E+03  0.00000000000E+00 0.  1.
    9000007    2    1    2  501    0  0.22439253480E+03  0.16501048210E+02  0.84169967257E+03  0.95858280547E+03  0.39974787287E+03 0.  0.
    9000005    1    3    3    0    0  0.20784327989E+02  0.29289993984E+02 -0.39896244825E+02  0.53689872252E+02  0.99999687468E+00 0.  0.
          4    1    3    3  501    0  0.20360820681E+03 -0.12788945774E+02  0.88159591739E+03  0.90489293321E+03  0.00000000000E+00 0.  1.
   -9000007    1    1    2    0  502 -0.22439253480E+03 -0.16501048210E+02  0.79600328773E+03  0.91882834542E+03  0.40000000000E+03 0.  1.
<mgrwt>
<rscale>  2 0.45888328E+03</rscale>
<asrwt>0</asrwt>
<pdfrwt beam="1">  1       21 0.27039337E+00 0.45893822E+03</pdfrwt>
<pdfrwt beam="2">  1       21 0.18439093E-01 0.45893822E+03</pdfrwt>
<totfact> 0.11047172E+03</totfact>
</mgrwt>
</event>
<event>
 6    1  0.9399121E-004  0.4742493E+03  0.7818608E-02  0.1020785E+00
         21   -1    0    0  503  502  0.00000000000E+00  0.00000000000E+00  0.94808811051E+03  0.94808811051E+03  0.00000000000E+00 0. -1.
         21   -1    0    0  501  503 -0.00000000000E+00 -0.00000000000E+00 -0.33966680767E+03  0.33966680767E+03  0.00000000000E+00 0. -1.
    9000007    2    1    2  501    0 -0.25316782512E+03  0.68013121898E+01 -0.49907841888E+02  0.47686807754E+03  0.40096404474E+03 0.  0.
    9000005    1    3    3    0    0 -0.94131270207E+00 -0.16682272803E+03 -0.33925916441E+02  0.17024299239E+03  0.99999687468E+00 0.  0.
          4    1    3    3  501    0 -0.25222651242E+03  0.17362404022E+03 -0.15981925447E+02  0.30662508516E+03  0.00000000000E+00 0.  1.
   -9000007    1    1    2    0  502  0.25316782512E+03 -0.68013121898E+01  0.65832914473E+03  0.81088684064E+03  0.40000000000E+03 0. -1.
<mgrwt>
<rscale>  2 0.47404544E+03</rscale>
<asrwt>0</asrwt>
<pdfrwt beam="1">  1       21 0.14585971E+00 0.47424927E+03</pdfrwt>
<pdfrwt beam="2">  1       21 0.52256432E-01 0.47424927E+03</pdfrwt>
<totfact> 0.93404930E+02</totfact>
</mgrwt>
</event>
<event>
 6    1  0.9399121E-004  0.5831860E+03  0.7818608E-02  0.9941333E-01
         21   -1    0    0  503  502  0.00000000000E+00  0.00000000000E+00  0.33374033074E+04  0.33374033074E+04  0.00000000000E+00 0.  1.
         21   -1    0    0  501  503 -0.00000000000E+00 -0.00000000000E+00 -0.11016537410E+03  0.11016537410E+03  0.00000000000E+00 0. -1.
    9000007    2    1    2  501    0  0.35565235428E+03 -0.23155406456E+03  0.11368327893E+04  0.12773383832E+04  0.39887174915E+03 0.  0.
    9000005    1    3    3    0    0  0.34327934203E+03 -0.32989957482E+03  0.10080463228E+04  0.11148241229E+04  0.99999687468E+00 0.  0.
          4    1    3    3  501    0  0.12373012259E+02  0.98345510262E+02  0.12878646652E+03  0.16251426023E+03  0.00000000000E+00 0.  1.
   -9000007    1    1    2    0  502 -0.35565235428E+03  0.23155406456E+03  0.20904051440E+04  0.21702302984E+04  0.40000000000E+03 0.  1.
<mgrwt>
<rscale>  2 0.58299256E+03</rscale>
<asrwt>0</asrwt>
<pdfrwt beam="1">  1       21 0.51344659E+00 0.58318598E+03</pdfrwt>
<pdfrwt beam="2">  1       21 0.16948522E-01 0.58318598E+03</pdfrwt>
<totfact> 0.32239835E+01</totfact>
</mgrwt>
</event>
<event>
 6    1  0.9399121E-004  0.4503167E+03  0.7818608E-02  0.1027668E+00
         21   -1    0    0  503  502  0.00000000000E+00  0.00000000000E+00  0.30438172576E+03  0.30438172576E+03  0.00000000000E+00 0.  1.
         21   -1    0    0  501  503 -0.00000000000E+00 -0.00000000000E+00 -0.10837674515E+04  0.10837674515E+04  0.00000000000E+00 0.  1.
    9000007    2    1    2  501    0 -0.15726620962E+03 -0.13254422464E+03 -0.82106171350E+03  0.93644405202E+03  0.40060515850E+03 0.  0.
    9000005    1    3    3    0    0 -0.10976557015E+02 -0.14290335780E+03 -0.50367334462E+02  0.15192011996E+03  0.99999687468E+00 0.  0.
          4    1    3    3  501    0 -0.14628965261E+03  0.10359133160E+02 -0.77069437904E+03  0.78452393206E+03  0.00000000000E+00 0.  1.
   -9000007    1    1    2    0  502  0.15726620962E+03  0.13254422464E+03  0.41675987798E+02  0.45170512520E+03  0.40000000000E+03 0.  1.
<mgrwt>
<rscale>  2 0.45018207E+03</rscale>
<asrwt>0</asrwt>
<pdfrwt beam="1">  1       21 0.46827958E-01 0.45031669E+03</pdfrwt>
<pdfrwt beam="2">  1       21 0.16673345E+00 0.45031669E+03</pdfrwt>
<totfact> 0.82362528E+02</totfact>
</mgrwt>
</event>
<event>
 6    1  0.9399121E-004  0.4666088E+03  0.7818608E-02  0.1022895E+00
         21   -1    0    0  503  502  0.00000000000E+00  0.00000000000E+00  0.13697252162E+04  0.13697252162E+04  0.00000000000E+00 0. -1.
         21   -1    0    0  501  503 -0.00000000000E+00 -0.00000000000E+00 -0.38147698767E+03  0.38147698767E+03  0.00000000000E+00 0. -1.
    9000007    2    1    2  501    0 -0.38832276556E+02  0.23672734882E+03 -0.17467380126E+03  0.49823156145E+03  0.40021990031E+03 0.  0.
    9000005    1    3    3    0    0 -0.21002951645E+03  0.10950884423E+03 -0.15707672518E+03  0.28421590795E+03  0.99999687468E+00 0.  0.
          4    1    3    3  501    0  0.17119723990E+03  0.12721850458E+03 -0.17597076080E+02  0.21401565350E+03  0.00000000000E+00 0.  1.
   -9000007    1    1    2    0  502  0.38832276556E+02 -0.23672734882E+03  0.11629220298E+04  0.12529706425E+04  0.40000000000E+03 0. -1.
<mgrwt>
<rscale>  2 0.46656162E+03</rscale>
<asrwt>0</asrwt>
<pdfrwt beam="1">  1       21 0.21072695E+00 0.46660878E+03</pdfrwt>
<pdfrwt beam="2">  1       21 0.58688768E-01 0.46660878E+03</pdfrwt>
<totfact> 0.25044982E+02</totfact>
</mgrwt>
</event>
<event>
 6    1  0.9399121E-004  0.6707101E+03  0.7818608E-02  0.9768732E-01
         21   -1    0    0  503  502  0.00000000000E+00  0.00000000000E+00  0.84413219674E+03  0.84413219674E+03  0.00000000000E+00 0.  1.
         21   -1    0    0  501  503 -0.00000000000E+00 -0.00000000000E+00 -0.88908306302E+03  0.88908306302E+03  0.00000000000E+00 0. -1.
    9000007    2    1    2  501    0 -0.44796446177E+03  0.29863008525E+03 -0.57105174558E+03  0.88078683343E+03  0.39979152440E+03 0.  0.
    9000005    1    3    3    0    0 -0.13770339346E+03 -0.59669489708E+02 -0.29835273523E+03  0.33397309351E+03  0.99999687468E+00 0.  0.
          4    1    3    3  501    0 -0.31026106831E+03  0.35829957495E+03 -0.27269901035E+03  0.54681373992E+03  0.00000000000E+00 0.  1.
   -9000007    1    1    2    0  502  0.44796446177E+03 -0.29863008525E+03  0.52610087931E+03  0.85242842634E+03  0.40000000000E+03 0.  1.
<mgrwt>
<rscale>  2 0.67067906E+03</rscale>
<asrwt>0</asrwt>
<pdfrwt beam="1">  1       21 0.12986649E+00 0.67071014E+03</pdfrwt>
<pdfrwt beam="2">  1       21 0.13678201E+00 0.67071014E+03</pdfrwt>
<totfact> 0.12108931E+02</totfact>
</mgrwt>
</event>
<event>
 6    1  0.9399121E-004  0.4280984E+03  0.7818608E-02  0.1034502E+00
         21   -1    0    0  503  502  0.00000000000E+00  0.00000000000E+00  0.90734454856E+03  0.90734454856E+03  0.00000000000E+00 0. -1.
         21   -1    0    0  501  503 -0.00000000000E+00 -0.00000000000E+00 -0.45398474000E+03  0.45398474000E+03  0.00000000000E+00 0. -1.
    9000007    2    1    2  501    0  0.14132790075E+03 -0.53504715614E+02 -0.28062426472E+03  0.51187714161E+03  0.40053951120E+03 0.  0.
    9000005    1    3    3    0    0  0.21844027949E+03  0.96187510778E+02 -0.24037537185E+03  0.33874697389E+03  0.99999687468E+00 0.  0.
          4    1    3    3  501    0 -0.77112378745E+02 -0.14969222639E+03 -0.40248892868E+02  0.17313016772E+03  0.00000000000E+00 0.  1.
   -9000007    1    1    2    0  502 -0.14132790075E+03  0.53504715614E+02  0.73398407328E+03  0.84945214695E+03  0.40000000000E+03 0. -1.
<mgrwt>
<rscale>  2 0.42797215E+03</rscale>
<asrwt>0</asrwt>
<pdfrwt beam="1">  1       21 0.13959147E+00 0.42809839E+03</pdfrwt>
<pdfrwt beam="2">  1       21 0.69843806E-01 0.42809839E+03</pdfrwt>
<totfact> 0.56724527E+02</totfact>
</mgrwt>
</event>
<event>
 6    1  0.9399121E-004  0.5016553E+03  0.7818608E-02  0.1013420E+00
         21   -1    0    0  503  502  0.00000000000E+00  0.00000000000E+00  0.32104696281E+03  0.32104696281E+03  0.00000000000E+00 0.  1.
         21   -1    0    0  501  503 -0.00000000000E+00 -0.00000000000E+00 -0.12203838198E+04  0.12203838198E+04  0.00000000000E+00 0.  1.
    9000007    2    1    2  501    0 -0.12678635551E+03 -0.27492401145E+03 -0.91120668244E+03  0.10396351222E+04  0.39860453740E+03 0.  0.
    9000005    1    3    3    0    0 -0.16570437296E+03 -0.27875279772E+03 -0.35027226184E+03  0.47733920734E+03  0.99999687468E+00 0.  0.
          4    1    3    3  501    0  0.38918017444E+02  0.38287862740E+01 -0.56093442060E+03  0.56229591489E+03  0.00000000000E+00 0.  1.
   -9000007    1    1    2    0  502  0.12678635551E+03  0.27492401145E+03  0.11869825449E+02  0.50179566038E+03  0.40000000000E+03 0.  1.
<mgrwt>
<rscale>  2 0.50137703E+03</rscale>
<asrwt>0</asrwt>
<pdfrwt beam="1">  1       21 0.49391841E-01 0.50165525E+03</pdfrwt>
<pdfrwt beam="2">  1       21 0.18775135E+00 0.50165525E+03</pdfrwt>
<totfact> 0.50938989E+02</totfact>
</mgrwt>
</event>
<event>
 6    1  0.9399121E-004  0.4168399E+03  0.7818608E-02  0.1038152E+00
         21   -1    0    0  503  502  0.00000000000E+00  0.00000000000E+00  0.12855088694E+03  0.12855088694E+03  0.00000000000E+00 0. -1.
         21   -1    0    0  501  503 -0.00000000000E+00 -0.00000000000E+00 -0.14033281883E+04  0.14033281883E+04  0.00000000000E+00 0. -1.
    9000007    2    1    2  501    0 -0.38777852176E+02 -0.11068764751E+03 -0.48702875044E+03  0.64064215016E+03  0.39933680481E+03 0.  0.
    9000005    1    3    3    0    0  0.86234947495E+02 -0.22480453195E+03 -0.23065169747E+03  0.33342877694E+03  0.99999687468E+00 0.  0.
          4    1    3    3  501    0 -0.12501279967E+03  0.11411688444E+03 -0.25637705297E+03  0.30721337322E+03  0.00000000000E+00 0.  1.
   -9000007    1    1    2    0  502  0.38777852176E+02  0.11068764751E+03 -0.78774855094E+03  0.89123692509E+03  0.40000000000E+03 0. -1.
<mgrwt>
<rscale>  2 0.41668069E+03</rscale>
<asrwt>0</asrwt>
<pdfrwt beam="1">  1       21 0.19777060E-01 0.41683987E+03</pdfrwt>
<pdfrwt beam="2">  1       21 0.21589663E+00 0.41683987E+03</pdfrwt>
<totfact> 0.21491813E+03</totfact>
</mgrwt>
</event>
<event>
 6    1  0.9399121E-004  0.4663479E+03  0.7818608E-02  0.1023134E+00
         21   -1    0    0  503  502  0.00000000000E+00  0.00000000000E+00  0.36983297670E+03  0.36983297670E+03  0.00000000000E+00 0.  1.
         21   -1    0    0  501  503 -0.00000000000E+00 -0.00000000000E+00 -0.65779358536E+03  0.65779358536E+03  0.00000000000E+00 0.  1.
    9000007    2    1    2  501    0 -0.23198505279E+03 -0.36662353414E+02 -0.31535339145E+03  0.56296371932E+03  0.40288856387E+03 0.  0.
    9000005    1    3    3    0    0 -0.10661793756E+02  0.16564113671E+03 -0.12507084751E+03  0.20783256941E+03  0.99999687468E+00 0.  0.
          4    1    3    3  501    0 -0.22132325903E+03 -0.20230349013E+03 -0.19028254394E+03  0.35513114991E+03  0.00000000000E+00 0.  1.
   -9000007    1    1    2    0  502  0.23198505279E+03  0.36662353414E+02  0.27392782794E+02  0.46466284274E+03  0.40000000000E+03 0.  1.
<mgrwt>
<rscale>  2 0.46572337E+03</rscale>
<asrwt>0</asrwt>
<pdfrwt beam="1">  1       21 0.56897381E-01 0.46634793E+03</pdfrwt>
<pdfrwt beam="2">  1       21 0.10119901E+00 0.46634793E+03</pdfrwt>
<totfact> 0.19854231E+03</totfact>
</mgrwt>
</event>
<event>
 6    1  0.9399121E-004  0.4440915E+03  0.7818608E-02  0.1029504E+00
         21   -1    0    0  503  502  0.00000000000E+00  0.00000000000E+00  0.35765891503E+03  0.35765891503E+03  0.00000000000E+00 0.  1.
         21   -1    0    0  501  503 -0.00000000000E+00 -0.00000000000E+00 -0.13667933794E+04  0.13667933794E+04  0.00000000000E+00 0.  1.
    9000007    2    1    2  501    0  0.16725671866E+03  0.95830299886E+02 -0.11705794063E+04  0.12519877714E+04  0.40007371449E+03 0.  0.
    9000005    1    3    3    0    0 -0.72190704920E+02  0.17708023634E+03 -0.50590957484E+03  0.54084600940E+03  0.99999687468E+00 0.  0.
          4    1    3    3  501    0  0.23944742358E+03 -0.81249936455E+02 -0.66466983143E+03  0.71114176199E+03  0.00000000000E+00 0.  1.
   -9000007    1    1    2    0  502 -0.16725671866E+03 -0.95830299886E+02  0.16144494185E+03  0.47246452307E+03  0.40000000000E+03 0.  1.
<mgrwt>
<rscale>  2 0.44407487E+03</rscale>
<asrwt>0</asrwt>
<pdfrwt beam="1">  1       21 0.55024449E-01 0.44409147E+03</pdfrwt>
<pdfrwt beam="2">  1       21 0.21027590E+00 0.44409147E+03</pdfrwt>
<totfact> 0.29348837E+02</totfact>
</mgrwt>
</event>
<event>
 6    1  0.9399121E-004  0.4934236E+03  0.7818608E-02  0.1015517E+00
         21   -1    0    0  503  502  0.00000000000E+00  0.00000000000E+00  0.19253017973E+04  0.19253017973E+04  0.00000000000E+00 0.  1.
         21   -1    0    0  501  503 -0.00000000000E+00 -0.00000000000E+00 -0.23612678889E+03  0.23612678889E+03  0.00000000000E+00 0. -1.
    9000007    2    1    2  501    0 -0.24271873223E+03  0.15638016842E+03  0.10802972615E+03  0.50511112154E+03  0.40012458475E+03 0.  0.
    9000005    1    3    3    0    0 -0.14066485094E+03  0.85398857333E+02 -0.14747273651E+03  0.22097233567E+03  0.99999687468E+00 0.  0.
          4    1    3    3  501    0 -0.10205388130E+03  0.70981311088E+02  0.25550246266E+03  0.28413878587E+03  0.00000000000E+00 0.  1.
   -9000007    1    1    2    0  502  0.24271873223E+03 -0.15638016842E+03  0.15811452823E+04  0.16563174646E+04  0.40000000000E+03 0.  1.
<mgrwt>
<rscale>  2 0.49339832E+03</rscale>
<asrwt>0</asrwt>
<pdfrwt beam="1">  1       21 0.29620027E+00 0.49342357E+03</pdfrwt>
<pdfrwt beam="2">  1       21 0.36327199E-01 0.49342357E+03</pdfrwt>
<totfact> 0.20070989E+02</totfact>
</mgrwt>
</event>
<event>
 6    1  0.9399121E-004  0.5565236E+03  0.7818608E-02  0.1000007E+00
         21   -1    0    0  503  502  0.00000000000E+00  0.00000000000E+00  0.27938966320E+04  0.27938966320E+04  0.00000000000E+00 0.  1.
         21   -1    0    0  501  503 -0.00000000000E+00 -0.00000000000E+00 -0.41220995756E+03  0.41220995756E+03  0.00000000000E+00 0.  1.
    9000007    2    1    2  501    0  0.19303024079E+03 -0.33534734264E+03 -0.17996423184E+03  0.58469973832E+03  0.39971007639E+03 0.  0.
    9000005    1    3    3    0    0 -0.11075770351E+03 -0.18764121084E+03 -0.84179977916E+02  0.23358887295E+03  0.99999687468E+00 0.  0.
          4    1    3    3  501    0  0.30378794430E+03 -0.14770613180E+03 -0.95784253920E+02  0.35111086536E+03  0.00000000000E+00 0.  1.
   -9000007    1    1    2    0  502 -0.19303024079E+03  0.33534734264E+03  0.25616509063E+04  0.26214068512E+04  0.40000000000E+03 0.  1.
<mgrwt>
<rscale>  2 0.55647150E+03</rscale>
<asrwt>0</asrwt>
<pdfrwt beam="1">  1       21 0.42983024E+00 0.55652360E+03</pdfrwt>
<pdfrwt beam="2">  1       21 0.63416918E-01 0.55652360E+03</pdfrwt>
<totfact> 0.85920136E+00</totfact>
</mgrwt>
</event>
<event>
 6    1  0.9399121E-004  0.4642236E+03  0.7818608E-02  0.1023611E+00
         21   -1    0    0  503  502  0.00000000000E+00  0.00000000000E+00  0.58805646370E+03  0.58805646370E+03  0.00000000000E+00 0. -1.
         21   -1    0    0  501  503 -0.00000000000E+00 -0.00000000000E+00 -0.44320694881E+03  0.44320694881E+03  0.00000000000E+00 0. -1.
    9000007    2    1    2  501    0  0.64225429004E+02  0.22666854918E+03 -0.14290936089E+03  0.48508696894E+03  0.39922768578E+03 0.  0.
    9000005    1    3    3    0    0 -0.14333209044E+03  0.19814083755E+03 -0.12545480234E+03  0.27485230048E+03  0.99999687468E+00 0.  0.
          4    1    3    3  501    0  0.20755751945E+03  0.28527711627E+02 -0.17454558553E+02  0.21023466846E+03  0.00000000000E+00 0.  1.
   -9000007    1    1    2    0  502 -0.64225429004E+02 -0.22666854918E+03  0.28775887578E+03  0.54617644357E+03  0.40000000000E+03 0. -1.
<mgrwt>
<rscale>  2 0.46405717E+03</rscale>
<asrwt>0</asrwt>
<pdfrwt beam="1">  1       21 0.90470225E-01 0.46422359E+03</pdfrwt>
<pdfrwt beam="2">  1       21 0.68185684E-01 0.46422359E+03</pdfrwt>
<totfact> 0.17445324E+03</totfact>
</mgrwt>
</event>
<event>
 6    1  0.9399121E-004  0.4261956E+03  0.7818608E-02  0.1035128E+00
         21   -1    0    0  503  502  0.00000000000E+00  0.00000000000E+00  0.22231432819E+03  0.22231432819E+03  0.00000000000E+00 0. -1.
         21   -1    0    0  501  503 -0.00000000000E+00 -0.00000000000E+00 -0.89194905202E+03  0.89194905202E+03  0.00000000000E+00 0. -1.
    9000007    2    1    2  501    0 -0.89043018734E+02  0.11710689395E+03 -0.49751057948E+03  0.65462286322E+03  0.39921376799E+03 0.  0.
    9000005    1    3    3    0    0 -0.18400035643E+03  0.34139972297E+01 -0.61345779820E+02  0.19398992561E+03  0.99999687468E+00 0.  0.
          4    1    3    3  501    0  0.94957337694E+02  0.11369289672E+03 -0.43616479966E+03  0.46063293761E+03  0.00000000000E+00 0.  1.
   -9000007    1    1    2    0  502  0.89043018734E+02 -0.11710689395E+03 -0.17212414435E+03  0.45964051699E+03  0.40000000000E+03 0. -1.
<mgrwt>
<rscale>  2 0.42601102E+03</rscale>
<asrwt>0</asrwt>
<pdfrwt beam="1">  1       21 0.34202205E-01 0.42619559E+03</pdfrwt>
<pdfrwt beam="2">  1       21 0.13722293E+00 0.42619559E+03</pdfrwt>
<totfact> 0.27036795E+03</totfact>
</mgrwt>
</event>
<event>
 6    1  0.9399121E-004  0.4884477E+03  0.7818608E-02  0.1016842E+00
         21   -1    0    0  503  502  0.00000000000E+00  0.00000000000E+00  0.57787033538E+03  0.57787033538E+03  0.00000000000E+00 0. -1.
         21   -1    0    0  501  503 -0.00000000000E+00 -0.00000000000E+00 -0.41318355360E+03  0.41318355360E+03  0.00000000000E+00 0.  1.
    9000007    2    1    2  501    0  0.26586622107E+03 -0.88584627912E+02  0.67655763705E+02  0.49311101848E+03  0.40006135826E+03 0.  0.
    9000005    1    3    3    0    0  0.34467881667E+03 -0.48921737762E+02  0.14370559952E+03  0.37662862665E+03  0.99999687468E+00 0.  0.
          4    1    3    3  501    0 -0.78812595594E+02 -0.39662890150E+02 -0.76049835816E+02  0.11648239183E+03  0.00000000000E+00 0.  1.
   -9000007    1    1    2    0  502 -0.26586622107E+03  0.88584627912E+02  0.97031018073E+02  0.49794287050E+03  0.40000000000E+03 0.  1.
<mgrwt>
<rscale>  2 0.48843516E+03</rscale>
<asrwt>0</asrwt>
<pdfrwt beam="1">  1       21 0.88903128E-01 0.48844772E+03</pdfrwt>
<pdfrwt beam="2">  1       21 0.63566701E-01 0.48844772E+03</pdfrwt>
<totfact> 0.21078168E+03</totfact>
</mgrwt>
</event>
<event>
 6    1  0.9399121E-004  0.4000155E+03  0.7818608E-02  0.1043796E+00
         21   -1    0    0  503  502  0.00000000000E+00  0.00000000000E+00  0.48484281286E+03  0.48484281286E+03  0.00000000000E+00 0. -1.
         21   -1    0    0  501  503 -0.00000000000E+00 -0.00000000000E+00 -0.40716728311E+03  0.40716728311E+03  0.00000000000E+00 0. -1.
    9000007    2    1    2  501    0 -0.99059064749E+00  0.33806775411E+01 -0.15555968409E+03  0.42896466059E+03  0.39974923948E+03 0.  0.
    9000005    1    3    3    0    0  0.14680053632E+03  0.99354240842E+02 -0.17813428567E+03  0.25130556373E+03  0.99999687468E+00 0.  0.
          4    1    3    3  501    0 -0.14779112696E+03 -0.95973563301E+02  0.22574601574E+02  0.17765909686E+03  0.00000000000E+00 0.  1.
   -9000007    1    1    2    0  502  0.99059064749E+00 -0.33806775411E+01  0.23323521385E+03  0.46304543538E+03  0.40000000000E+03 0. -1.
<mgrwt>
<rscale>  2 0.39995281E+03</rscale>
<asrwt>0</asrwt>
<pdfrwt beam="1">  1       21 0.74591202E-01 0.40001551E+03</pdfrwt>
<pdfrwt beam="2">  1       21 0.62641120E-01 0.40001551E+03</pdfrwt>
<totfact> 0.33786004E+03</totfact>
</mgrwt>
</event>
<event>
 6    1  0.9399121E-004  0.4476725E+03  0.7818608E-02  0.1028423E+00
         21   -1    0    0  503  502  0.00000000000E+00  0.00000000000E+00  0.71367726728E+03  0.71367726728E+03  0.00000000000E+00 0.  1.
         21   -1    0    0  501  503 -0.00000000000E+00 -0.00000000000E+00 -0.38870451185E+03  0.38870451185E+03  0.00000000000E+00 0.  1.
    9000007    2    1    2  501    0 -0.16762616680E+03 -0.11095995049E+03 -0.12796257574E+03  0.46554502091E+03  0.39993387365E+03 0.  0.
    9000005    1    3    3    0    0 -0.50715955217E+02 -0.20175268571E+03  0.68985369824E+02  0.21917170335E+03  0.99999687468E+00 0.  0.
          4    1    3    3  501    0 -0.11691021159E+03  0.90792735226E+02 -0.19694794556E+03  0.24637331756E+03  0.00000000000E+00 0.  1.
   -9000007    1    1    2    0  502  0.16762616680E+03  0.11095995049E+03  0.45293533117E+03  0.63683675823E+03  0.40000000000E+03 0.  1.
<mgrwt>
<rscale>  2 0.44765770E+03</rscale>
<asrwt>0</asrwt>
<pdfrwt beam="1">  1       21 0.10979650E+00 0.44767247E+03</pdfrwt>
<pdfrwt beam="2">  1       21 0.59800694E-01 0.44767247E+03</pdfrwt>
<totfact> 0.14673889E+03</totfact>
</mgrwt>
</event>
<event>
 6    1  0.9399121E-004  0.4604046E+03  0.7818608E-02  0.1024750E+00
         21   -1    0    0  503  502  0.00000000000E+00  0.00000000000E+00  0.15987184625E+04  0.15987184625E+04  0.00000000000E+00 0.  1.
         21   -1    0    0  501  503 -0.00000000000E+00 -0.00000000000E+00 -0.13720906126E+03  0.13720906126E+03  0.00000000000E+00 0.  1.
    9000007    2    1    2  501    0 -0.16041182238E+02 -0.22500816129E+03  0.56663238166E+03  0.73009907300E+03  0.40135571290E+03 0.  0.
    9000005    1    3    3    0    0 -0.11169761481E+03  0.67147106482E+02  0.75300290406E+02  0.15051984850E+03  0.99999687468E+00 0.  0.
          4    1    3    3  501    0  0.95656432570E+02 -0.29215526777E+03  0.49133209125E+03  0.57957922450E+03  0.00000000000E+00 0.  1.
   -9000007    1    1    2    0  502  0.16041182238E+02  0.22500816129E+03  0.89487701955E+03  0.10058284507E+04  0.40000000000E+03 0.  1.
<mgrwt>
<rscale>  2 0.46010898E+03</rscale>
<asrwt>0</asrwt>
<pdfrwt beam="1">  1       21 0.24595667E+00 0.46040461E+03</pdfrwt>
<pdfrwt beam="2">  1       21 0.21109088E-01 0.46040461E+03</pdfrwt>
<totfact> 0.12037145E+03</totfact>
</mgrwt>
</event>
<event>
 6    1  0.9399121E-004  0.4617391E+03  0.7818608E-02  0.1024287E+00
         21   -1    0    0  503  502  0.00000000000E+00  0.00000000000E+00  0.32296515519E+03  0.32296515519E+03  0.00000000000E+00 0.  1.
         21   -1    0    0  501  503 -0.00000000000E+00 -0.00000000000E+00 -0.89703726049E+03  0.89703726049E+03  0.00000000000E+00 0.  1.
    9000007    2    1    2  501    0 -0.44098551238E+02  0.22640296520E+03 -0.60059800148E+03  0.75750202861E+03  0.39986044952E+03 0.  0.
    9000005    1    3    3    0    0 -0.76325687974E+02  0.24320615653E+03 -0.13117712335E+03  0.28667626847E+03  0.99999687468E+00 0.  0.
          4    1    3    3  501    0  0.32227136737E+02 -0.16803191333E+02 -0.46942087813E+03  0.47082576014E+03  0.00000000000E+00 0.  1.
   -9000007    1    1    2    0  502  0.44098551238E+02 -0.22640296520E+03  0.26525896184E+02  0.46250038707E+03  0.40000000000E+03 0.  1.
<mgrwt>
<rscale>  2 0.46170886E+03</rscale>
<asrwt>0</asrwt>
<pdfrwt beam="1">  1       21 0.49686947E-01 0.46173909E+03</pdfrwt>
<pdfrwt beam="2">  1       21 0.13800573E+00 0.46173909E+03</pdfrwt>
<totfact> 0.12124448E+03</totfact>
</mgrwt>
</event>
<event>
 6    1  0.9399121E-004  0.4605572E+03  0.7818608E-02  0.1024664E+00
         21   -1    0    0  503  502  0.00000000000E+00  0.00000000000E+00  0.37421376433E+03  0.37421376433E+03  0.00000000000E+00 0.  1.
         21   -1    0    0  501  503 -0.00000000000E+00 -0.00000000000E+00 -0.96184093839E+03  0.96184093839E+03  0.00000000000E+00 0. -1.
    9000007    2    1    2  501    0  0.11355919482E+03  0.19803343013E+03 -0.72221128480E+03  0.85623618177E+03  0.39929729389E+03 0.  0.
    9000005    1    3    3    0    0  0.18458182377E+03  0.28721075491E+03 -0.48577089900E+03  0.59374643890E+03  0.99999687468E+00 0.  0.
          4    1    3    3  501    0 -0.71022628944E+02 -0.89177324778E+02 -0.23644038580E+03  0.26248974287E+03  0.00000000000E+00 0.  1.
   -9000007    1    1    2    0  502 -0.11355919482E+03 -0.19803343013E+03  0.13458411074E+03  0.47981852094E+03  0.40000000000E+03 0.  1.
<mgrwt>
<rscale>  2 0.46040458E+03</rscale>
<asrwt>0</asrwt>
<pdfrwt beam="1">  1       21 0.57571349E-01 0.46055720E+03</pdfrwt>
<pdfrwt beam="2">  1       21 0.14797553E+00 0.46055720E+03</pdfrwt>
<totfact> 0.73303868E+02</totfact>
</mgrwt>
</event>
<event>
 6    1  0.9399121E-004  0.4084378E+03  0.7818608E-02  0.1040932E+00
         21   -1    0    0  503  502  0.00000000000E+00  0.00000000000E+00  0.48176730301E+03  0.48176730301E+03  0.00000000000E+00 0. -1.
         21   -1    0    0  501  503 -0.00000000000E+00 -0.00000000000E+00 -0.63502947269E+03  0.63502947269E+03  0.00000000000E+00 0. -1.
    9000007    2    1    2  501    0 -0.81678857759E+02 -0.12248846174E+02 -0.45338463201E+03  0.60994870929E+03  0.39957268849E+03 0.  0.
    9000005    1    3    3    0    0 -0.80864503989E+02  0.11702248193E+03 -0.39614814420E+01  0.14230257415E+03  0.99999687468E+00 0.  0.
          4    1    3    3  501    0 -0.81435377054E+00 -0.12927132810E+03 -0.44942315056E+03  0.46764613513E+03  0.00000000000E+00 0.  1.
   -9000007    1    1    2    0  502  0.81678857759E+02  0.12248846174E+02  0.30012246233E+03  0.50684806642E+03  0.40000000000E+03 0.  1.
<mgrwt>
<rscale>  2 0.40833318E+03</rscale>
<asrwt>0</asrwt>
<pdfrwt beam="1">  1       21 0.74118047E-01 0.40843784E+03</pdfrwt>
<pdfrwt beam="2">  1       21 0.97696841E-01 0.40843784E+03</pdfrwt>
<totfact> 0.12302045E+03</totfact>
</mgrwt>
</event>
<event>
 6    1  0.9399121E-004  0.4850852E+03  0.7818608E-02  0.1017753E+00
         21   -1    0    0  503  502  0.00000000000E+00  0.00000000000E+00  0.33183511196E+03  0.33183511196E+03  0.00000000000E+00 0. -1.
         21   -1    0    0  501  503 -0.00000000000E+00 -0.00000000000E+00 -0.88991144714E+03  0.88991144714E+03  0.00000000000E+00 0.  1.
    9000007    2    1    2  501    0  0.58556722219E+02  0.26793285183E+03 -0.55450951418E+03  0.73674179106E+03  0.40011343713E+03 0.  0.
    9000005    1    3    3    0    0  0.18230015559E+03  0.12721121900E+03 -0.49083608793E+03  0.53882938503E+03  0.99999687468E+00 0.  0.
          4    1    3    3  501    0 -0.12374343337E+03  0.14072163283E+03 -0.63673426248E+02  0.19791240603E+03  0.00000000000E+00 0.  1.
   -9000007    1    1    2    0  502 -0.58556722219E+02 -0.26793285183E+03 -0.35668210053E+01  0.48500476804E+03  0.40000000000E+03 0. -1.
<mgrwt>
<rscale>  2 0.48506182E+03</rscale>
<asrwt>0</asrwt>
<pdfrwt beam="1">  1       21 0.51051555E-01 0.48508521E+03</pdfrwt>
<pdfrwt beam="2">  1       21 0.13690945E+00 0.48508521E+03</pdfrwt>
<totfact> 0.11580836E+03</totfact>
</mgrwt>
</event>
<event>
 6    1  0.9399121E-004  0.4124416E+03  0.7818608E-02  0.1039620E+00
         21   -1    0    0  503  502  0.00000000000E+00  0.00000000000E+00  0.89215886660E+03  0.89215886660E+03  0.00000000000E+00 0.  1.
         21   -1    0    0  501  503 -0.00000000000E+00 -0.00000000000E+00 -0.29395384003E+03  0.29395384003E+03  0.00000000000E+00 0.  1.
    9000007    2    1    2  501    0 -0.87763004435E+02  0.49047994851E+02 -0.53235773353E+02  0.41508536176E+03  0.39919138171E+03 0.  0.
    9000005    1    3    3    0    0  0.67016421077E+02 -0.33815950675E+02  0.13699816774E+03  0.15621849178E+03  0.99999687468E+00 0.  0.
          4    1    3    3  501    0 -0.15477942551E+03  0.82863945526E+02 -0.19023394109E+03  0.25886686998E+03  0.00000000000E+00 0.  1.
   -9000007    1    1    2    0  502  0.87763004435E+02 -0.49047994851E+02  0.65144079991E+03  0.77102734487E+03  0.40000000000E+03 0.  1.
<mgrwt>
<rscale>  2 0.41224539E+03</rscale>
<asrwt>0</asrwt>
<pdfrwt beam="1">  1       21 0.13725521E+00 0.41244157E+03</pdfrwt>
<pdfrwt beam="2">  1       21 0.45223668E-01 0.41244157E+03</pdfrwt>
<totfact> 0.15316127E+03</totfact>
</mgrwt>
</event>
<event>
 6    1  0.9399121E-004  0.4665570E+03  0.7818608E-02  0.1022921E+00
         21   -1    0    0  503  502  0.00000000000E+00  0.00000000000E+00  0.12041728157E+04  0.12041728157E+04  0.00000000000E+00 0. -1.
         21   -1    0    0  501  503 -0.00000000000E+00 -0.00000000000E+00 -0.83414663504E+03  0.83414663504E+03  0.00000000000E+00 0. -1.
    9000007    2    1    2  501    0 -0.18339166759E+03  0.15403762610E+03 -0.71705676584E+03  0.85547988996E+03  0.40039398433E+03 0.  0.
    9000005    1    3    3    0    0  0.99625929951E+02  0.52812170589E+02 -0.41227279557E+03  0.42741585048E+03  0.99999687468E+00 0.  0.
          4    1    3    3  501    0 -0.28301759754E+03  0.10122545551E+03 -0.30478397027E+03  0.42806403948E+03  0.00000000000E+00 0.  1.
   -9000007    1    1    2    0  502  0.18339166759E+03 -0.15403762610E+03  0.10870829465E+04  0.11828395608E+04  0.40000000000E+03 0. -1.
<mgrwt>
<rscale>  2 0.46647246E+03</rscale>
<asrwt>0</asrwt>
<pdfrwt beam="1">  1       21 0.18525736E+00 0.46655700E+03</pdfrwt>
<pdfrwt beam="2">  1       21 0.12833025E+00 0.46655700E+03</pdfrwt>
<totfact> 0.58413722E+01</totfact>
</mgrwt>
</event>
<event>
 6    1  0.9399121E-004  0.5205767E+03  0.7818608E-02  0.1008549E+00
         21   -1    0    0  503  502  0.00000000000E+00  0.00000000000E+00  0.79087235102E+03  0.79087235102E+03  0.00000000000E+00 0.  1.
         21   -1    0    0  501  503 -0.00000000000E+00 -0.00000000000E+00 -0.53530721065E+03  0.53530721065E+03  0.00000000000E+00 0.  1.
    9000007    2    1    2  501    0  0.24400711520E+03 -0.22684944125E+03 -0.27007134610E+03  0.58638644385E+03  0.39988796967E+03 0.  0.
    9000005    1    3    3    0    0  0.52955588064E+02 -0.65390268275E+02 -0.32037236299E+03  0.33123953939E+03  0.99999687468E+00 0.  0.
          4    1    3    3  501    0  0.19105152713E+03 -0.16145917298E+03  0.50301016886E+02  0.25514690446E+03  0.00000000000E+00 0.  1.
   -9000007    1    1    2    0  502 -0.24400711520E+03  0.22684944125E+03  0.52563648647E+03  0.73979311782E+03  0.40000000000E+03 0.  1.
<mgrwt>
<rscale>  2 0.52055522E+03</rscale>
<asrwt>0</asrwt>
<pdfrwt beam="1">  1       21 0.12167267E+00 0.52057674E+03</pdfrwt>
<pdfrwt beam="2">  1       21 0.82354956E-01 0.52057674E+03</pdfrwt>
<totfact> 0.53468331E+02</totfact>
</mgrwt>
</event>
<event>
 6    1  0.9399121E-004  0.4950068E+03  0.7818608E-02  0.1015107E+00
         21   -1    0    0  503  502  0.00000000000E+00  0.00000000000E+00  0.22280977686E+03  0.22280977686E+03  0.00000000000E+00 0. -1.
         21   -1    0    0  501  503 -0.00000000000E+00 -0.00000000000E+00 -0.14563454483E+04  0.14563454483E+04  0.00000000000E+00 0.  1.
    9000007    2    1    2  501    0  0.74913877518E+02 -0.28137413811E+03 -0.20110491770E+03  0.53429857217E+03  0.40031023177E+03 0.  0.
    9000005    1    3    3    0    0 -0.13884873282E+03 -0.23706653894E+03 -0.13558560174E+03  0.30637227336E+03  0.99999687468E+00 0.  0.
          4    1    3    3  501    0  0.21376261034E+03 -0.44307599167E+02 -0.65519315953E+02  0.22792629880E+03  0.00000000000E+00 0.  1.
   -9000007    1    1    2    0  502 -0.74913877518E+02  0.28137413811E+03 -0.10324307537E+04  0.11448566530E+04  0.40000000000E+03 0.  1.
<mgrwt>
<rscale>  2 0.49494412E+03</rscale>
<asrwt>0</asrwt>
<pdfrwt beam="1">  1       21 0.34278426E-01 0.49500684E+03</pdfrwt>
<pdfrwt beam="2">  1       21 0.22405316E+00 0.49500684E+03</pdfrwt>
<totfact> 0.62647187E+02</totfact>
</mgrwt>
</event>
<event>
 6    1  0.9399121E-004  0.4539714E+03  0.7818608E-02  0.1026570E+00
         21   -1    0    0  503  502  0.00000000000E+00  0.00000000000E+00  0.20324952190E+03  0.20324952190E+03  0.00000000000E+00 0.  1.
         21   -1    0    0  501  503 -0.00000000000E+00 -0.00000000000E+00 -0.11287339567E+04  0.11287339567E+04  0.00000000000E+00 0.  1.
    9000007    2    1    2  501    0 -0.41963531127E+01  0.21390640536E+03 -0.67597754169E+03  0.81426999667E+03  0.40039534336E+03 0.  0.
    9000005    1    3    3    0    0 -0.22705796631E+02 -0.10745209614E+03 -0.29916322352E+03  0.31868658658E+03  0.99999687468E+00 0.  0.
          4    1    3    3  501    0  0.18509443519E+02  0.32135850150E+03 -0.37681431816E+03  0.49558341009E+03  0.00000000000E+00 0.  1.
   -9000007    1    1    2    0  502  0.41963531127E+01 -0.21390640536E+03 -0.24950689308E+03  0.51771348189E+03  0.40000000000E+03 0.  1.
<mgrwt>
<rscale>  2 0.45388417E+03</rscale>
<asrwt>0</asrwt>
<pdfrwt beam="1">  1       21 0.31269158E-01 0.45397135E+03</pdfrwt>
<pdfrwt beam="2">  1       21 0.17365138E+00 0.45397135E+03</pdfrwt>
<totfact> 0.16755475E+03</totfact>
</mgrwt>
</event>
<event>
 6    1  0.9399121E-004  0.5123860E+03  0.7818608E-02  0.1010608E+00
         21   -1    0    0  503  502  0.00000000000E+00  0.00000000000E+00  0.91071608565E+03  0.91071608565E+03  0.00000000000E+00 0.  1.
         21   -1    0    0  501  503 -0.00000000000E+00 -0.00000000000E+00 -0.48202414623E+03  0.48202414623E+03  0.00000000000E+00 0.  1.
    9000007    2    1    2  501    0  0.26562351405E+03 -0.17827341358E+03 -0.22724724414E+03  0.56051822200E+03  0.40025255279E+03 0.  0.
    9000005    1    3    3    0    0  0.88274084322E+02  0.11317208197E+03  0.11685707132E+02  0.14400621461E+03  0.99999687468E+00 0.  0.
          4    1    3    3  501    0  0.17734942973E+03 -0.29144549555E+03 -0.23893295127E+03  0.41651200739E+03  0.00000000000E+00 0.  1.
   -9000007    1    1    2    0  502 -0.26562351405E+03  0.17827341358E+03  0.65593918356E+03  0.83222200988E+03  0.40000000000E+03 0.  1.
<mgrwt>
<rscale>  2 0.51233663E+03</rscale>
<asrwt>0</asrwt>
<pdfrwt beam="1">  1       21 0.14011017E+00 0.51238596E+03</pdfrwt>
<pdfrwt beam="2">  1       21 0.74157561E-01 0.51238596E+03</pdfrwt>
<totfact> 0.47257522E+02</totfact>
</mgrwt>
</event>
<event>
 6    1  0.9399121E-004  0.4122075E+03  0.7818608E-02  0.1039655E+00
         21   -1    0    0  503  502  0.00000000000E+00  0.00000000000E+00  0.73554336404E+03  0.73554336404E+03  0.00000000000E+00 0. -1.
         21   -1    0    0  501  503 -0.00000000000E+00 -0.00000000000E+00 -0.23265792327E+03  0.23265792327E+03  0.00000000000E+00 0. -1.
    9000007    2    1    2  501    0  0.66206239512E+02 -0.74375913124E+02  0.29395560519E+03  0.50606849384E+03  0.39972538077E+03 0.  0.
    9000005    1    3    3    0    0  0.23190479405E+03 -0.45720096482E+02  0.21800222534E+03  0.32155268771E+03  0.99999687468E+00 0.  0.
          4    1    3    3  501    0 -0.16569855454E+03 -0.28655816641E+02  0.75953379852E+02  0.18451580614E+03  0.00000000000E+00 0.  1.
   -9000007    1    1    2    0  502 -0.66206239512E+02  0.74375913124E+02  0.20892983558E+03  0.46213279347E+03  0.40000000000E+03 0. -1.
<mgrwt>
<rscale>  2 0.41214089E+03</rscale>
<asrwt>0</asrwt>
<pdfrwt beam="1">  1       21 0.11316052E+00 0.41220752E+03</pdfrwt>
<pdfrwt beam="2">  1       21 0.35793527E-01 0.41220752E+03</pdfrwt>
<totfact> 0.40618007E+03</totfact>
</mgrwt>
</event>
<event>
 6    1  0.9399121E-004  0.4305188E+03  0.7818608E-02  0.1033702E+00
         21   -1    0    0  503  502  0.00000000000E+00  0.00000000000E+00  0.10397255332E+03  0.10397255332E+03  0.00000000000E+00 0. -1.
         21   -1    0    0  501  503 -0.00000000000E+00 -0.00000000000E+00 -0.33306968588E+04  0.33306968588E+04  0.00000000000E+00 0. -1.
    9000007    2    1    2  501    0 -0.65672851127E+02 -0.14502921406E+03 -0.27841962078E+04  0.28172736610E+04  0.39991994306E+03 0.  0.
    9000005    1    3    3    0    0 -0.21810145283E+02 -0.27648143991E+03 -0.21692057691E+04  0.21868635847E+04  0.99999687468E+00 0.  0.
          4    1    3    3  501    0 -0.43862705844E+02  0.13145222585E+03 -0.61499043870E+03  0.63041007633E+03  0.00000000000E+00 0.  1.
   -9000007    1    1    2    0  502  0.65672851127E+02  0.14502921406E+03 -0.44252809760E+03  0.61739575110E+03  0.40000000000E+03 0. -1.
<mgrwt>
<rscale>  2 0.43050016E+03</rscale>
<asrwt>0</asrwt>
<pdfrwt beam="1">  1       21 0.15995779E-01 0.43051875E+03</pdfrwt>
<pdfrwt beam="2">  1       21 0.51241485E+00 0.43051875E+03</pdfrwt>
<totfact> 0.40423960E+01</totfact>
</mgrwt>
</event>
<event>
 6    1  0.9399121E-004  0.5596994E+03  0.7818608E-02  0.9992981E-01
         21   -1    0    0  503  502  0.00000000000E+00  0.00000000000E+00  0.24879991571E+04  0.24879991571E+04  0.00000000000E+00 0.  1.
         21   -1    0    0  501  503 -0.00000000000E+00 -0.00000000000E+00 -0.13181819744E+03  0.13181819744E+03  0.00000000000E+00 0.  1.
    9000007    2    1    2  501    0  0.39548275084E+02  0.38948607853E+03  0.89804637847E+03  0.10579531068E+04  0.39939204666E+03 0.  0.
    9000005    1    3    3    0    0  0.20972218689E+03  0.16307039559E+03  0.53649795229E+03  0.59867052908E+03  0.99999687468E+00 0.  0.
          4    1    3    3  501    0 -0.17017391181E+03  0.22641568294E+03  0.36154842618E+03  0.45928257774E+03  0.00000000000E+00 0.  1.
   -9000007    1    1    2    0  502 -0.39548275084E+02 -0.38948607853E+03  0.14581345812E+04  0.15618642477E+04  0.40000000000E+03 0.  1.
<mgrwt>
<rscale>  2 0.55959083E+03</rscale>
<asrwt>0</asrwt>
<pdfrwt beam="1">  1       21 0.38276906E+00 0.55969945E+03</pdfrwt>
<pdfrwt beam="2">  1       21 0.20279725E-01 0.55969945E+03</pdfrwt>
<totfact> 0.17936575E+02</totfact>
</mgrwt>
</event>
<event>
 6    1  0.9399121E-004  0.4166429E+03  0.7818608E-02  0.1038293E+00
         21   -1    0    0  503  502  0.00000000000E+00  0.00000000000E+00  0.44456209939E+03  0.44456209939E+03  0.00000000000E+00 0. -1.
         21   -1    0    0  501  503 -0.00000000000E+00 -0.00000000000E+00 -0.46479770274E+03  0.46479770274E+03  0.00000000000E+00 0. -1.
    9000007    2    1    2  501    0 -0.34348384313E+02  0.11140701313E+03 -0.19369393643E+03  0.45805156224E+03  0.39837489703E+03 0.  0.
    9000005    1    3    3    0    0 -0.87089225070E+02  0.23207200899E+03 -0.32645522858E+02  0.25001736067E+03  0.99999687468E+00 0.  0.
          4    1    3    3  501    0  0.52740840758E+02 -0.12066499586E+03 -0.16104841357E+03  0.20803420157E+03  0.00000000000E+00 0.  1.
   -9000007    1    1    2    0  502  0.34348384313E+02 -0.11140701313E+03  0.17345833308E+03  0.45130823989E+03  0.40000000000E+03 0. -1.
<mgrwt>
<rscale>  2 0.41625240E+03</rscale>
<asrwt>0</asrwt>
<pdfrwt beam="1">  1       21 0.68394170E-01 0.41664293E+03</pdfrwt>
<pdfrwt beam="2">  1       21 0.71507338E-01 0.41664293E+03</pdfrwt>
<totfact> 0.30389858E+03</totfact>
</mgrwt>
</event>
<event>
 6    1  0.9399121E-004  0.4057134E+03  0.7818608E-02  0.1041826E+00
         21   -1    0    0  503  502  0.00000000000E+00  0.00000000000E+00  0.13874321727E+03  0.13874321727E+03  0.00000000000E+00 0. -1.
         21   -1    0    0  501  503 -0.00000000000E+00 -0.00000000000E+00 -0.14730026461E+04  0.14730026461E+04  0.00000000000E+00 0. -1.
    9000007    2    1    2  501    0 -0.32169839299E+02  0.59736401178E+02 -0.10226959043E+04  0.11002039139E+04  0.39992299688E+03 0.  0.
    9000005    1    3    3    0    0  0.98920022070E+02  0.11475563075E+03 -0.89923975156E+03  0.91191400710E+03  0.99999687468E+00 0.  0.
          4    1    3    3  501    0 -0.13108986137E+03 -0.55019229572E+02 -0.12345615273E+03  0.18828990685E+03  0.00000000000E+00 0.  1.
   -9000007    1    1    2    0  502  0.32169839299E+02 -0.59736401178E+02 -0.31156352450E+03  0.51154194939E+03  0.40000000000E+03 0. -1.
<mgrwt>
<rscale>  2 0.40569439E+03</rscale>
<asrwt>0</asrwt>
<pdfrwt beam="1">  1       21 0.21345110E-01 0.40571337E+03</pdfrwt>
<pdfrwt beam="2">  1       21 0.22661579E+00 0.40571337E+03</pdfrwt>
<totfact> 0.15973288E+03</totfact>
</mgrwt>
</event>
<event>
 6    1  0.9399121E-004  0.6884847E+03  0.7818608E-02  0.9737826E-01
         21   -1    0    0  503  502  0.00000000000E+00  0.00000000000E+00  0.82022285614E+03  0.82022285614E+03  0.00000000000E+00 0. -1.
         21   -1    0    0  501  503 -0.00000000000E+00 -0.00000000000E+00 -0.57722530781E+03  0.57722530781E+03  0.00000000000E+00 0.  1.
    9000007    2    1    2  501    0 -0.33154373136E+02 -0.55938532562E+03  0.14492000579E+03  0.70201279001E+03  0.39725180212E+03 0.  0.
    9000005    1    3    3    0    0  0.15104168647E+03 -0.44460011883E+03  0.10873981729E+03  0.48198361442E+03  0.99999687468E+00 0.  0.
          4    1    3    3  501    0 -0.18419605960E+03 -0.11478520679E+03  0.36180188497E+02  0.22002917559E+03  0.00000000000E+00 0.  1.
   -9000007    1    1    2    0  502  0.33154373136E+02  0.55938532562E+03  0.98077542544E+02  0.69543537394E+03  0.40000000000E+03 0. -1.
<mgrwt>
<rscale>  2 0.68808608E+03</rscale>
<asrwt>0</asrwt>
<pdfrwt beam="1">  1       21 0.12618813E+00 0.68848468E+03</pdfrwt>
<pdfrwt beam="2">  1       21 0.88803893E-01 0.68848468E+03</pdfrwt>
<totfact> 0.38497670E+02</totfact>
</mgrwt>
</event>
<event>
 6    1  0.9399121E-004  0.4856872E+03  0.7818608E-02  0.1017584E+00
         21   -1    0    0  503  502  0.00000000000E+00  0.00000000000E+00  0.28390589345E+03  0.28390589345E+03  0.00000000000E+00 0.  1.
         21   -1    0    0  501  503 -0.00000000000E+00 -0.00000000000E+00 -0.11059952652E+04  0.11059952652E+04  0.00000000000E+00 0.  1.
    9000007    2    1    2  501    0  0.15646240969E+03 -0.22672784030E+03 -0.75765747966E+03  0.89996497105E+03  0.40000761671E+03 0.  0.
    9000005    1    3    3    0    0  0.26545574906E+03 -0.11741963745E+03 -0.30203352755E+03  0.41890258739E+03  0.99999687468E+00 0.  0.
          4    1    3    3  501    0 -0.10899333936E+03 -0.10930820285E+03 -0.45562395211E+03  0.48106238366E+03  0.00000000000E+00 0.  1.
   -9000007    1    1    2    0  502 -0.15646240969E+03  0.22672784030E+03 -0.64431892118E+02  0.48993618762E+03  0.40000000000E+03 0.  1.
<mgrwt>
<rscale>  2 0.48568567E+03</rscale>
<asrwt>0</asrwt>
<pdfrwt beam="1">  1       21 0.43677830E-01 0.48568724E+03</pdfrwt>
<pdfrwt beam="2">  1       21 0.17015312E+00 0.48568724E+03</pdfrwt>
<totfact> 0.88613727E+02</totfact>
</mgrwt>
</event>
<event>
 6    1  0.9399121E-004  0.4697086E+03  0.7818608E-02  0.1022038E+00
         21   -1    0    0  503  502  0.00000000000E+00  0.00000000000E+00  0.32032152522E+03  0.32032152522E+03  0.00000000000E+00 0. -1.
         21   -1    0    0  501  503 -0.00000000000E+00 -0.00000000000E+00 -0.90379701367E+03  0.90379701367E+03  0.00000000000E+00 0. -1.
    9000007    2    1    2  501    0  0.62503209158E+02 -0.23716577617E+03 -0.59091271639E+03  0.75485361488E+03  0.40058942193E+03 0.  0.
    9000005    1    3    3    0    0  0.20586257200E+03 -0.25182398309E+03 -0.42255702671E+03  0.53324493230E+03  0.99999687468E+00 0.  0.
          4    1    3    3  501    0 -0.14335936285E+03  0.14658206918E+02 -0.16835568968E+03  0.22160868258E+03  0.00000000000E+00 0.  1.
   -9000007    1    1    2    0  502 -0.62503209158E+02  0.23716577617E+03  0.74372279389E+01  0.46926492400E+03  0.40000000000E+03 0. -1.
<mgrwt>
<rscale>  2 0.46958287E+03</rscale>
<asrwt>0</asrwt>
<pdfrwt beam="1">  1       21 0.49280235E-01 0.46970857E+03</pdfrwt>
<pdfrwt beam="2">  1       21 0.13904569E+00 0.46970857E+03</pdfrwt>
<totfact> 0.12055731E+03</totfact>
</mgrwt>
</event>
<event>
 6    1  0.9399121E-004  0.5951587E+03  0.7818608E-02  0.9915541E-01
         21   -1    0    0  503  502  0.00000000000E+00  0.00000000000E+00  0.44138336812E+03  0.44138336812E+03  0.00000000000E+00 0. -1.
         21   -1    0    0  501  503 -0.00000000000E+00 -0.00000000000E+00 -0.18169657330E+04  0.18169657330E+04  0.00000000000E+00 0.  1.
    9000007    2    1    2  501    0 -0.13185534849E+03 -0.42040140366E+03 -0.15315855149E+04  0.16431579472E+04  0.40011332994E+03 0.  0.
    9000005    1    3    3    0    0 -0.14989071178E+02 -0.21647819282E+03 -0.21398742430E+03  0.30476072249E+03  0.99999687468E+00 0.  0.
          4    1    3    3  501    0 -0.11686627731E+03 -0.20392321084E+03 -0.13175980906E+04  0.13383972247E+04  0.00000000000E+00 0.  1.
   -9000007    1    1    2    0  502  0.13185534849E+03  0.42040140366E+03  0.15600314999E+03  0.61519115398E+03  0.40000000000E+03 0. -1.
<mgrwt>
<rscale>  2 0.59513963E+03</rscale>
<asrwt>0</asrwt>
<pdfrwt beam="1">  1       21 0.67905134E-01 0.59515868E+03</pdfrwt>
<pdfrwt beam="2">  1       21 0.27953319E+00 0.59515868E+03</pdfrwt>
<totfact> 0.63148314E+01</totfact>
</mgrwt>
</event>
<event>
 6    1  0.9399121E-004  0.4034735E+03  0.7818608E-02  0.1042590E+00
         21   -1    0    0  503  502  0.00000000000E+00  0.00000000000E+00  0.55120213143E+03  0.55120213143E+03  0.00000000000E+00 0. -1.
         21   -1    0    0  501  503 -0.00000000000E+00 -0.00000000000E+00 -0.63196133684E+03  0.63196133684E+03  0.00000000000E+00 0. -1.
    9000007    2    1    2  501    0  0.25110008669E+02  0.45786514902E+02 -0.47217795346E+03  0.62108202061E+03  0.40007991589E+03 0.  0.
    9000005    1    3    3    0    0 -0.99959168576E+02  0.45678516202E+02  0.21343590753E+02  0.11195941713E+03  0.99999687468E+00 0.  0.
          4    1    3    3  501    0  0.12506917725E+03  0.10799869954E+00 -0.49352154422E+03  0.50912260347E+03  0.00000000000E+00 0.  1.
   -9000007    1    1    2    0  502 -0.25110008669E+02 -0.45786514902E+02  0.39141874805E+03  0.56208144767E+03  0.40000000000E+03 0. -1.
<mgrwt>
<rscale>  2 0.40345368E+03</rscale>
<asrwt>0</asrwt>
<pdfrwt beam="1">  1       21 0.84800328E-01 0.40347349E+03</pdfrwt>
<pdfrwt beam="2">  1       21 0.97224821E-01 0.40347349E+03</pdfrwt>
<totfact> 0.91517350E+02</totfact>
</mgrwt>
</event>
<event>
 6    1  0.9399121E-004  0.5164854E+03  0.7818608E-02  0.1009656E+00
         21   -1    0    0  503  502  0.00000000000E+00  0.00000000000E+00  0.23484231618E+04  0.23484231618E+04  0.00000000000E+00 0.  1.
         21   -1    0    0  501  503 -0.00000000000E+00 -0.00000000000E+00 -0.35896169671E+03  0.35896169671E+03  0.00000000000E+00 0.  1.
    9000007    2    1    2  501    0 -0.87128529188E+02 -0.31490603423E+03 -0.12565933215E+03  0.53011749370E+03  0.39809182154E+03 0.  0.
    9000005    1    3    3    0    0  0.94193430051E+02  0.49574664708E+02 -0.10009751159E+02  0.10691699939E+03  0.99999687468E+00 0.  0.
          4    1    3    3  501    0 -0.18132195924E+03 -0.36448069894E+03 -0.11564958099E+03  0.42320049431E+03  0.00000000000E+00 0.  1.
   -9000007    1    1    2    0  502  0.87128529188E+02  0.31490603423E+03  0.21151207972E+04  0.21772673648E+04  0.40000000000E+03 0.  1.
<mgrwt>
<rscale>  2 0.51611592E+03</rscale>
<asrwt>0</asrwt>
<pdfrwt beam="1">  1       21 0.36129586E+00 0.51648542E+03</pdfrwt>
<pdfrwt beam="2">  1       21 0.55224878E-01 0.51648542E+03</pdfrwt>
<totfact> 0.32929281E+01</totfact>
</mgrwt>
</event>
<event>
 6    1  0.9399121E-004  0.4755244E+03  0.7818608E-02  0.1020403E+00
         21   -1    0    0  503  502  0.00000000000E+00  0.00000000000E+00  0.36067723553E+03  0.36067723553E+03  0.00000000000E+00 0. -1.
         21   -1    0    0  501  503 -0.00000000000E+00 -0.00000000000E+00 -0.76077333420E+03  0.76077333420E+03  0.00000000000E+00 0. -1.
    9000007    2    1    2  501    0 -0.21975272507E+03 -0.13353740777E+03  0.35717604734E+02  0.47642569926E+03  0.39947740884E+03 0.  0.
    9000005    1    3    3    0    0 -0.30696325288E+03 -0.49187804581E+02 -0.66341341542E+02  0.31788056299E+03  0.99999687468E+00 0.  0.
          4    1    3    3  501    0  0.87210527806E+02 -0.84349603187E+02  0.10205894628E+03  0.15854513626E+03  0.00000000000E+00 0.  1.
   -9000007    1    1    2    0  502  0.21975272507E+03  0.13353740777E+03 -0.43581370340E+03  0.64502487047E+03  0.40000000000E+03 0. -1.
<mgrwt>
<rscale>  2 0.47541453E+03</rscale>
<asrwt>0</asrwt>
<pdfrwt beam="1">  1       21 0.55488806E-01 0.47552445E+03</pdfrwt>
<pdfrwt beam="2">  1       21 0.11704205E+00 0.47552445E+03</pdfrwt>
<totfact> 0.14566048E+03</totfact>
</mgrwt>
</event>
<event>
 6    1  0.9399121E-004  0.4200212E+03  0.7818608E-02  0.1037065E+00
         21   -1    0    0  503  502  0.00000000000E+00  0.00000000000E+00  0.22651042359E+03  0.22651042359E+03  0.00000000000E+00 0.  1.
         21   -1    0    0  501  503 -0.00000000000E+00 -0.00000000000E+00 -0.10182436987E+04  0.10182436987E+04  0.00000000000E+00 0.  1.
    9000007    2    1    2  501    0 -0.12736927714E+03  0.13960728992E+02 -0.69770206456E+03  0.81433606590E+03  0.39992152058E+03 0.  0.
    9000005    1    3    3    0    0  0.12491131242E+03 -0.98307899922E+01 -0.85305307430E+02  0.15158323084E+03  0.99999687468E+00 0.  0.
          4    1    3    3  501    0 -0.25228058955E+03  0.23791518984E+02 -0.61239675713E+03  0.66275283506E+03  0.00000000000E+00 0.  1.
   -9000007    1    1    2    0  502  0.12736927714E+03 -0.13960728992E+02 -0.94031210565E+02  0.43041805640E+03  0.40000000000E+03 0.  1.
<mgrwt>
<rscale>  2 0.42000255E+03</rscale>
<asrwt>0</asrwt>
<pdfrwt beam="1">  1       21 0.34847757E-01 0.42002123E+03</pdfrwt>
<pdfrwt beam="2">  1       21 0.15665288E+00 0.42002123E+03</pdfrwt>
<totfact> 0.18271430E+03</totfact>
</mgrwt>
</event>
<event>
 6    1  0.9399121E-004  0.4610954E+03  0.7818608E-02  0.1024504E+00
         21   -1    0    0  503  502  0.00000000000E+00  0.00000000000E+00  0.59274398754E+03  0.59274398754E+03  0.00000000000E+00 0.  1.
         21   -1    0    0  501  503 -0.00000000000E+00 -0.00000000000E+00 -0.36687048872E+03  0.36687048872E+03  0.00000000000E+00 0.  1.
    9000007    2    1    2  501    0  0.15712506348E+03  0.16709496321E+03  0.39339928126E+02  0.46221746651E+03  0.39935991799E+03 0.  0.
    9000005    1    3    3    0    0 -0.71469556250E+02  0.15316684837E+03 -0.97798862678E+02  0.19527825902E+03  0.99999687468E+00 0.  0.
          4    1    3    3  501    0  0.22859461973E+03  0.13928114844E+02  0.13713879080E+03  0.26693920750E+03  0.00000000000E+00 0.  1.
   -9000007    1    1    2    0  502 -0.15712506348E+03 -0.16709496321E+03  0.18653357070E+03  0.49739700974E+03  0.40000000000E+03 0.  1.
<mgrwt>
<rscale>  2 0.46095660E+03</rscale>
<asrwt>0</asrwt>
<pdfrwt beam="1">  1       21 0.91191383E-01 0.46109545E+03</pdfrwt>
<pdfrwt beam="2">  1       21 0.56441614E-01 0.46109545E+03</pdfrwt>
<totfact> 0.26006228E+03</totfact>
</mgrwt>
</event>
<event>
 6    1  0.9399121E-004  0.5531889E+03  0.7818608E-02  0.1000826E+00
         21   -1    0    0  503  502  0.00000000000E+00  0.00000000000E+00  0.22232673006E+03  0.22232673006E+03  0.00000000000E+00 0.  1.
         21   -1    0    0  501  503 -0.00000000000E+00 -0.00000000000E+00 -0.13997548427E+04  0.13997548427E+04  0.00000000000E+00 0.  1.
    9000007    2    1    2  501    0  0.28043382469E+03  0.25956652467E+03 -0.47709132720E+03  0.72961895517E+03  0.39838395361E+03 0.  0.
    9000005    1    3    3    0    0  0.38131582950E+02 -0.82410147259E+02  0.48361660540E+01  0.90938652317E+02  0.99999687468E+00 0.  0.
          4    1    3    3  501    0  0.24230224174E+03  0.34197667193E+03 -0.48192749326E+03  0.63868030285E+03  0.00000000000E+00 0.  1.
   -9000007    1    1    2    0  502 -0.28043382469E+03 -0.25956652467E+03 -0.70033678546E+03  0.89246261761E+03  0.40000000000E+03 0.  1.
<mgrwt>
<rscale>  2 0.55289677E+03</rscale>
<asrwt>0</asrwt>
<pdfrwt beam="1">  1       21 0.34204112E-01 0.55318886E+03</pdfrwt>
<pdfrwt beam="2">  1       21 0.21534690E+00 0.55318886E+03</pdfrwt>
<totfact> 0.69891943E+02</totfact>
</mgrwt>
</event>
<event>
 6    1  0.9399121E-004  0.4309693E+03  0.7818608E-02  0.1033558E+00
         21   -1    0    0  503  502  0.00000000000E+00  0.00000000000E+00  0.90537246103E+03  0.90537246103E+03  0.00000000000E+00 0. -1.
         21   -1    0    0  501  503 -0.00000000000E+00 -0.00000000000E+00 -0.27397487391E+03  0.27397487391E+03  0.00000000000E+00 0. -1.
    9000007    2    1    2  501    0 -0.80568753882E+02 -0.13858460038E+03  0.20111278457E+02  0.43143827180E+03  0.40004687636E+03 0.  0.
    9000005    1    3    3    0    0 -0.44418856608E+02 -0.27988726224E+03 -0.50156096214E+01  0.28343618456E+03  0.99999687468E+00 0.  0.
          4    1    3    3  501    0 -0.36149897274E+02  0.14130266186E+03  0.25126888079E+02  0.14800208723E+03  0.00000000000E+00 0.  1.
   -9000007    1    1    2    0  502  0.80568753882E+02  0.13858460038E+03  0.61128630867E+03  0.74790906314E+03  0.40000000000E+03 0. -1.
<mgrwt>
<rscale>  2 0.43095840E+03</rscale>
<asrwt>0</asrwt>
<pdfrwt beam="1">  1       21 0.13928807E+00 0.43096928E+03</pdfrwt>
<pdfrwt beam="2">  1       21 0.42149981E-01 0.43096928E+03</pdfrwt>
<totfact> 0.16923568E+03</totfact>
</mgrwt>
</event>
<event>
 6    1  0.9399121E-004  0.5050375E+03  0.7818608E-02  0.1012475E+00
         21   -1    0    0  503  502  0.00000000000E+00  0.00000000000E+00  0.72110055913E+03  0.72110055913E+03  0.00000000000E+00 0.  1.
         21   -1    0    0  501  503 -0.00000000000E+00 -0.00000000000E+00 -0.40533183305E+03  0.40533183305E+03  0.00000000000E+00 0. -1.
    9000007    2    1    2  501    0 -0.31507899273E+02 -0.30670858896E+03 -0.43160179499E+02  0.50684150658E+03  0.39995325407E+03 0.  0.
    9000005    1    3    3    0    0 -0.33209864470E+02 -0.14921524969E+03 -0.22135864687E+03  0.26901437950E+03  0.99999687468E+00 0.  0.
          4    1    3    3  501    0  0.17019651968E+01 -0.15749333926E+03  0.17819846738E+03  0.23782712707E+03  0.00000000000E+00 0.  1.
   -9000007    1    1    2    0  502  0.31507899273E+02  0.30670858896E+03  0.35892890558E+03  0.61959088560E+03  0.40000000000E+03 0. -1.
<mgrwt>
<rscale>  2 0.50502827E+03</rscale>
<asrwt>0</asrwt>
<pdfrwt beam="1">  1       21 0.11093855E+00 0.50503753E+03</pdfrwt>
<pdfrwt beam="2">  1       21 0.62358744E-01 0.50503753E+03</pdfrwt>
<totfact> 0.12762407E+03</totfact>
</mgrwt>
</event>
<event>
 6    1  0.9399121E-004  0.4717406E+03  0.7818608E-02  0.1021443E+00
         21   -1    0    0  503  502  0.00000000000E+00  0.00000000000E+00  0.33085238085E+03  0.33085238085E+03  0.00000000000E+00 0.  1.
         21   -1    0    0  501  503 -0.00000000000E+00 -0.00000000000E+00 -0.77507046320E+03  0.77507046320E+03  0.00000000000E+00 0.  1.
    9000007    2    1    2  501    0 -0.13687758597E+03 -0.20929342669E+03 -0.42336813156E+03  0.63372168730E+03  0.39977917671E+03 0.  0.
    9000005    1    3    3    0    0  0.68907321630E+02 -0.17819927351E+03 -0.37377135583E+03  0.41977282723E+03  0.99999687468E+00 0.  0.
          4    1    3    3  501    0 -0.20578490760E+03 -0.31094153183E+02 -0.49596775727E+02  0.21394886006E+03  0.00000000000E+00 0.  1.
   -9000007    1    1    2    0  502  0.13687758597E+03  0.20929342669E+03 -0.20849950794E+02  0.47220115676E+03  0.40000000000E+03 0.  1.
<mgrwt>
<rscale>  2 0.47169381E+03</rscale>
<asrwt>0</asrwt>
<pdfrwt beam="1">  1       21 0.50900367E-01 0.47174062E+03</pdfrwt>
<pdfrwt beam="2">  1       21 0.11924161E+00 0.47174062E+03</pdfrwt>
<totfact> 0.16753332E+03</totfact>
</mgrwt>
</event>
<event>
 6    1  0.9399121E-004  0.5517504E+03  0.7818608E-02  0.1001106E+00
         21   -1    0    0  503  502  0.00000000000E+00  0.00000000000E+00  0.30088858908E+03  0.30088858908E+03  0.00000000000E+00 0.  1.
         21   -1    0    0  501  503 -0.00000000000E+00 -0.00000000000E+00 -0.13364657286E+04  0.13364657286E+04  0.00000000000E+00 0. -1.
    9000007    2    1    2  501    0 -0.37657234948E+03  0.51202801406E+02 -0.92153629259E+03  0.10739417016E+04  0.39961628911E+03 0.  0.
    9000005    1    3    3    0    0 -0.41128887766E+03 -0.76630982312E+02 -0.67725241303E+03  0.79605444492E+03  0.99999687468E+00 0.  0.
          4    1    3    3  501    0  0.34716528172E+02  0.12783378372E+03 -0.24428387956E+03  0.27788725664E+03  0.00000000000E+00 0.  1.
   -9000007    1    1    2    0  502  0.37657234948E+03 -0.51202801406E+02 -0.11404084697E+03  0.56341261616E+03  0.40000000000E+03 0.  1.
<mgrwt>
<rscale>  2 0.55168082E+03</rscale>
<asrwt>0</asrwt>
<pdfrwt beam="1">  1       21 0.46290551E-01 0.55175036E+03</pdfrwt>
<pdfrwt beam="2">  1       21 0.20561012E+00 0.55175036E+03</pdfrwt>
<totfact> 0.43338585E+02</totfact>
</mgrwt>
</event>
<event>
 6    1  0.9399121E-004  0.4414805E+03  0.7818608E-02  0.1030300E+00
         21   -1    0    0  503  502  0.00000000000E+00  0.00000000000E+00  0.21720438393E+03  0.21720438393E+03  0.00000000000E+00 0.  1.
         21   -1    0    0  501  503 -0.00000000000E+00 -0.00000000000E+00 -0.13624992236E+04  0.13624992236E+04  0.00000000000E+00 0.  1.
    9000007    2    1    2  501    0 -0.23826932038E+02 -0.18509841335E+03 -0.10342804018E+04  0.11245625847E+04  0.40009487856E+03 0.  0.
    9000005    1    3    3    0    0 -0.12583911747E+03 -0.18111494433E+03 -0.24880328911E+03  0.33247884626E+03  0.99999687468E+00 0.  0.
          4    1    3    3  501    0  0.10201218543E+03 -0.39834690209E+01 -0.78547711273E+03  0.79208373840E+03  0.00000000000E+00 0.  1.
   -9000007    1    1    2    0  502  0.23826932038E+02  0.18509841335E+03 -0.11101443784E+03  0.45514102290E+03  0.40000000000E+03 0.  1.
<mgrwt>
<rscale>  2 0.44145903E+03</rscale>
<asrwt>0</asrwt>
<pdfrwt beam="1">  1       21 0.33416058E-01 0.44148053E+03</pdfrwt>
<pdfrwt beam="2">  1       21 0.20961527E+00 0.44148053E+03</pdfrwt>
<totfact> 0.83799814E+02</totfact>
</mgrwt>
</event>
<event>
 6    1  0.9399121E-004  0.7504809E+03  0.7818608E-02  0.9634644E-01
         21   -1    0    0  503  502  0.00000000000E+00  0.00000000000E+00  0.13047587405E+04  0.13047587405E+04  0.00000000000E+00 0. -1.
         21   -1    0    0  501  503 -0.00000000000E+00 -0.00000000000E+00 -0.59553905942E+03  0.59553905942E+03  0.00000000000E+00 0. -1.
    9000007    2    1    2  501    0 -0.56601477934E+03 -0.28751932946E+03 -0.14388749414E+03  0.76414994526E+03  0.40022672652E+03 0.  0.
    9000005    1    3    3    0    0 -0.43815122223E+03 -0.31951125483E+03 -0.24789347026E+03  0.59625171538E+03  0.99999687468E+00 0.  0.
          4    1    3    3  501    0 -0.12786355711E+03  0.31991925375E+02  0.10400597612E+03  0.16789822987E+03  0.00000000000E+00 0.  1.
   -9000007    1    1    2    0  502  0.56601477934E+03  0.28751932946E+03  0.85310717521E+03  0.11361478547E+04  0.40000000000E+03 0. -1.
<mgrwt>
<rscale>  2 0.75045064E+03</rscale>
<asrwt>0</asrwt>
<pdfrwt beam="1">  1       21 0.20073211E+00 0.75048086E+03</pdfrwt>
<pdfrwt beam="2">  1       21 0.91621394E-01 0.75048086E+03</pdfrwt>
<totfact> 0.93812236E+01</totfact>
</mgrwt>
</event>
<event>
 6    1  0.9399121E-004  0.5149585E+03  0.7818608E-02  0.1009965E+00
         21   -1    0    0  503  502  0.00000000000E+00  0.00000000000E+00  0.39818124502E+03  0.39818124502E+03  0.00000000000E+00 0. -1.
         21   -1    0    0  501  503 -0.00000000000E+00 -0.00000000000E+00 -0.67738492769E+03  0.67738492769E+03  0.00000000000E+00 0. -1.
    9000007    2    1    2  501    0  0.25672787309E+03  0.19817423818E+03 -0.21047278082E+03  0.55604122974E+03  0.39962586028E+03 0.  0.
    9000005    1    3    3    0    0 -0.74145556222E+02  0.15266161925E+03 -0.18274630688E+02  0.17069884481E+03  0.99999687468E+00 0.  0.
          4    1    3    3  501    0  0.33087342932E+03  0.45512618926E+02 -0.19219815013E+03  0.38534238493E+03  0.00000000000E+00 0.  1.
   -9000007    1    1    2    0  502 -0.25672787309E+03 -0.19817423818E+03 -0.68730901842E+02  0.51952494297E+03  0.40000000000E+03 0. -1.
<mgrwt>
<rscale>  2 0.51488582E+03</rscale>
<asrwt>0</asrwt>
<pdfrwt beam="1">  1       21 0.61258653E-01 0.51495847E+03</pdfrwt>
<pdfrwt beam="2">  1       21 0.10421307E+00 0.51495847E+03</pdfrwt>
<totfact> 0.15448577E+03</totfact>
</mgrwt>
</event>
<event>
 6    1  0.9399121E-004  0.4890711E+03  0.7818608E-02  0.1017041E+00
         21   -1    0    0  503  502  0.00000000000E+00  0.00000000000E+00  0.17301387603E+04  0.17301387603E+04  0.00000000000E+00 0. -1.
         21   -1    0    0  501  503 -0.00000000000E+00 -0.00000000000E+00 -0.29511043180E+03  0.29511043180E+03  0.00000000000E+00 0. -1.
    9000007    2    1    2  501    0  0.62938092326E+02  0.26440660408E+03 -0.22497788201E+02  0.48958828010E+03  0.40659375031E+03 0.  0.
    9000005    1    3    3    0    0  0.10048718986E+03  0.70358978788E+02 -0.19291513916E+03  0.22861608022E+03  0.99999687468E+00 0.  0.
          4    1    3    3  501    0 -0.37549097538E+02  0.19404762529E+03  0.17041735096E+03  0.26097219989E+03  0.00000000000E+00 0.  1.
   -9000007    1    1    2    0  502 -0.62938092326E+02 -0.26440660408E+03  0.14575261167E+04  0.15356609120E+04  0.40000000000E+03 0. -1.
<mgrwt>
<rscale>  2 0.48769835E+03</rscale>
<asrwt>0</asrwt>
<pdfrwt beam="1">  1       21 0.26617519E+00 0.48907109E+03</pdfrwt>
<pdfrwt beam="2">  1       21 0.45401606E-01 0.48907109E+03</pdfrwt>
<totfact> 0.19280577E+02</totfact>
</mgrwt>
</event>
<event>
 6    1  0.9399121E-004  0.4314224E+03  0.7818608E-02  0.1033417E+00
         21   -1    0    0  503  502  0.00000000000E+00  0.00000000000E+00  0.17855352499E+04  0.17855352499E+04  0.00000000000E+00 0. -1.
         21   -1    0    0  501  503 -0.00000000000E+00 -0.00000000000E+00 -0.34484935713E+03  0.34484935713E+03  0.00000000000E+00 0.  1.
    9000007    2    1    2  501    0  0.98046050302E+02  0.12826184628E+03 -0.16942291174E+03  0.46349694089E+03  0.40007644519E+03 0.  0.
    9000005    1    3    3    0    0  0.12138761277E+03  0.13621901614E+03  0.89621024299E+02  0.20328182624E+03  0.99999687468E+00 0.  0.
          4    1    3    3  501    0 -0.23341562464E+02 -0.79571698574E+01 -0.25904393604E+03  0.26021511464E+03  0.00000000000E+00 0.  1.
   -9000007    1    1    2    0  502 -0.98046050302E+02 -0.12826184628E+03  0.16101088046E+04  0.16668876662E+04  0.40000000000E+03 0. -1.
<mgrwt>
<rscale>  2 0.43140468E+03</rscale>
<asrwt>0</asrwt>
<pdfrwt beam="1">  1       21 0.27469773E+00 0.43142240E+03</pdfrwt>
<pdfrwt beam="2">  1       21 0.53053748E-01 0.43142240E+03</pdfrwt>
<totfact> 0.12726075E+02</totfact>
</mgrwt>
</event>
<event>
 6    1  0.9399121E-004  0.5211794E+03  0.7818608E-02  0.1008417E+00
         21   -1    0    0  503  502  0.00000000000E+00  0.00000000000E+00  0.86889600995E+03  0.86889600995E+03  0.00000000000E+00 0. -1.
         21   -1    0    0  501  503 -0.00000000000E+00 -0.00000000000E+00 -0.32892517561E+03  0.32892517561E+03  0.00000000000E+00 0.  1.
    9000007    2    1    2  501    0  0.33304503491E+03  0.17790970684E+02  0.40437287821E+03  0.65965548652E+03  0.40049022753E+03 0.  0.
    9000005    1    3    3    0    0 -0.82302870914E+02 -0.54384588891E+02  0.61485961119E+02  0.11624529874E+03  0.99999687468E+00 0.  0.
          4    1    3    3  501    0  0.41534790583E+03  0.72175559575E+02  0.34288691709E+03  0.54341018779E+03  0.00000000000E+00 0.  1.
   -9000007    1    1    2    0  502 -0.33304503491E+03 -0.17790970684E+02  0.13559795612E+03  0.53816569904E+03  0.40000000000E+03 0. -1.
<mgrwt>
<rscale>  2 0.52108519E+03</rscale>
<asrwt>0</asrwt>
<pdfrwt beam="1">  1       21 0.13367631E+00 0.52117937E+03</pdfrwt>
<pdfrwt beam="2">  1       21 0.50603874E-01 0.52117937E+03</pdfrwt>
<totfact> 0.12401656E+03</totfact>
</mgrwt>
</event>
<event>
 6    1  0.9399121E-004  0.4013613E+03  0.7818608E-02  0.1043363E+00
         21   -1    0    0  503  502  0.00000000000E+00  0.00000000000E+00  0.23470617989E+03  0.23470617989E+03  0.00000000000E+00 0. -1.
         21   -1    0    0  501  503 -0.00000000000E+00 -0.00000000000E+00 -0.70390164268E+03  0.70390164268E+03  0.00000000000E+00 0. -1.
    9000007    2    1    2  501    0  0.23524560629E+02 -0.65428130766E+01 -0.15847627825E+03  0.43151549863E+03  0.40061787458E+03 0.  0.
    9000005    1    3    3    0    0  0.10764400613E+03 -0.16354027247E+03 -0.16084505159E+03  0.25338662827E+03  0.99999687468E+00 0.  0.
          4    1    3    3  501    0 -0.84119445500E+02  0.15699745939E+03  0.23687733386E+01  0.17812887035E+03  0.00000000000E+00 0.  1.
   -9000007    1    1    2    0  502 -0.23524560629E+02  0.65428130766E+01 -0.31071918454E+03  0.50709232394E+03  0.40000000000E+03 0. -1.
<mgrwt>
<rscale>  2 0.40120703E+03</rscale>
<asrwt>0</asrwt>
<pdfrwt beam="1">  1       21 0.36108643E-01 0.40136130E+03</pdfrwt>
<pdfrwt beam="2">  1       21 0.10829256E+00 0.40136130E+03</pdfrwt>
<totfact> 0.44681915E+03</totfact>
</mgrwt>
</event>
<event>
 6    1  0.9399121E-004  0.4228023E+03  0.7818608E-02  0.1036159E+00
         21   -1    0    0  503  502  0.00000000000E+00  0.00000000000E+00  0.61396450391E+03  0.61396450391E+03  0.00000000000E+00 0. -1.
         21   -1    0    0  501  503 -0.00000000000E+00 -0.00000000000E+00 -0.11787223149E+04  0.11787223149E+04  0.00000000000E+00 0. -1.
    9000007    2    1    2  501    0  0.12208183178E+03 -0.62111327368E+02 -0.10601829172E+04  0.11413744310E+04  0.39998247849E+03 0.  0.
    9000005    1    3    3    0    0 -0.91713748804E+02 -0.13218424943E+03 -0.22623138036E+03  0.27760714143E+03  0.99999687468E+00 0.  0.
          4    1    3    3  501    0  0.21379558058E+03  0.70072922062E+02 -0.83395153686E+03  0.86376728956E+03  0.00000000000E+00 0.  1.
   -9000007    1    1    2    0  502 -0.12208183178E+03  0.62111327368E+02  0.49542510624E+03  0.65131238782E+03  0.40000000000E+03 0. -1.
<mgrwt>
<rscale>  2 0.42279816E+03</rscale>
<asrwt>0</asrwt>
<pdfrwt beam="1">  1       21 0.94456079E-01 0.42280231E+03</pdfrwt>
<pdfrwt beam="2">  1       21 0.18134189E+00 0.42280231E+03</pdfrwt>
<totfact> 0.13669689E+02</totfact>
</mgrwt>
</event>
<event>
 6    1  0.9399121E-004  0.6919625E+03  0.7818608E-02  0.9731513E-01
         21   -1    0    0  503  502  0.00000000000E+00  0.00000000000E+00  0.70041429084E+03  0.70041429084E+03  0.00000000000E+00 0.  1.
         21   -1    0    0  501  503 -0.00000000000E+00 -0.00000000000E+00 -0.71559858069E+03  0.71559858069E+03  0.00000000000E+00 0. -1.
    9000007    2    1    2  501    0 -0.36667678383E+03 -0.42775253336E+03  0.14439023606E+03  0.70686681964E+03  0.40173133664E+03 0.  0.
    9000005    1    3    3    0    0 -0.14605643933E+03 -0.33771730296E+03 -0.83329818983E+02  0.37726690672E+03  0.99999687468E+00 0.  0.
          4    1    3    3  501    0 -0.22062034451E+03 -0.90035230404E+02  0.22772005504E+03  0.32959991291E+03  0.00000000000E+00 0.  1.
   -9000007    1    1    2    0  502  0.36667678383E+03  0.42775253336E+03 -0.15957452590E+03  0.70914605189E+03  0.40000000000E+03 0. -1.
<mgrwt>
<rscale>  2 0.69171148E+03</rscale>
<asrwt>0</asrwt>
<pdfrwt beam="1">  1       21 0.10775605E+00 0.69196254E+03</pdfrwt>
<pdfrwt beam="2">  1       21 0.11009209E+00 0.69196254E+03</pdfrwt>
<totfact> 0.33978630E+02</totfact>
</mgrwt>
</event>
<event>
 6    1  0.9399121E-004  0.4616171E+03  0.7818608E-02  0.1024347E+00
         21   -1    0    0  503  502  0.00000000000E+00  0.00000000000E+00  0.19084329031E+03  0.19084329031E+03  0.00000000000E+00 0.  1.
         21   -1    0    0  501  503 -0.00000000000E+00 -0.00000000000E+00 -0.14510850031E+04  0.14510850031E+04  0.00000000000E+00 0. -1.
    9000007    2    1    2  501    0 -0.95425708325E+02 -0.20972430785E+03 -0.10247073987E+04  0.11236940180E+04  0.39946544527E+03 0.  0.
    9000005    1    3    3    0    0 -0.17860370453E+03 -0.16389770257E+03 -0.26926954046E+03  0.36231039951E+03  0.99999687468E+00 0.  0.
          4    1    3    3  501    0  0.83177996205E+02 -0.45826605287E+02 -0.75543785824E+03  0.76138361846E+03  0.00000000000E+00 0.  1.
   -9000007    1    1    2    0  502  0.95425708325E+02  0.20972430785E+03 -0.23553431407E+03  0.51823427542E+03  0.40000000000E+03 0.  1.
<mgrwt>
<rscale>  2 0.46150128E+03</rscale>
<asrwt>0</asrwt>
<pdfrwt beam="1">  1       21 0.29360507E-01 0.46161710E+03</pdfrwt>
<pdfrwt beam="2">  1       21 0.22324384E+00 0.46161710E+03</pdfrwt>
<totfact> 0.87800313E+02</totfact>
</mgrwt>
</event>
<event>
 6    1  0.9399121E-004  0.4993011E+03  0.7818608E-02  0.1013987E+00
         21   -1    0    0  503  502  0.00000000000E+00  0.00000000000E+00  0.55286988823E+03  0.55286988823E+03  0.00000000000E+00 0.  1.
         21   -1    0    0  501  503 -0.00000000000E+00 -0.00000000000E+00 -0.45265911658E+03  0.45265911658E+03  0.00000000000E+00 0.  1.
    9000007    2    1    2  501    0 -0.28074620229E+03 -0.10049077741E+03  0.84241707356E+02  0.50635785434E+03  0.40048069236E+03 0.  0.
    9000005    1    3    3    0    0  0.60035712782E+02 -0.12351822988E+03  0.90965928865E+02  0.16473263226E+03  0.99999687468E+00 0.  0.
          4    1    3    3  501    0 -0.34078191507E+03  0.23027452476E+02 -0.67242215091E+01  0.34162522208E+03  0.00000000000E+00 0.  1.
   -9000007    1    1    2    0  502  0.28074620229E+03  0.10049077741E+03  0.15969064288E+02  0.49917115047E+03  0.40000000000E+03 0.  1.
<mgrwt>
<rscale>  2 0.49920473E+03</rscale>
<asrwt>0</asrwt>
<pdfrwt beam="1">  1       21 0.85056905E-01 0.49930112E+03</pdfrwt>
<pdfrwt beam="2">  1       21 0.69639864E-01 0.49930112E+03</pdfrwt>
<totfact> 0.19005449E+03</totfact>
</mgrwt>
</event>
<event>
 6    1  0.9399121E-004  0.4209366E+03  0.7818608E-02  0.1036790E+00
         21   -1    0    0  503  502  0.00000000000E+00  0.00000000000E+00  0.17123610410E+04  0.17123610410E+04  0.00000000000E+00 0.  1.
         21   -1    0    0  501  503 -0.00000000000E+00 -0.00000000000E+00 -0.20793185008E+03  0.20793185008E+03  0.00000000000E+00 0.  1.
    9000007    2    1    2  501    0 -0.66440673325E+02  0.11174468800E+03  0.71568395515E+02  0.42697735263E+03  0.40035782252E+03 0.  0.
    9000005    1    3    3    0    0 -0.11092216093E+02 -0.14085221546E+03 -0.37722131753E+02  0.14624070253E+03  0.99999687468E+00 0.  0.
          4    1    3    3  501    0 -0.55348457232E+02  0.25259690347E+03  0.10929052727E+03  0.28073665010E+03  0.00000000000E+00 0.  1.
   -9000007    1    1    2    0  502  0.66440673325E+02 -0.11174468800E+03  0.14328607954E+04  0.14933155385E+04  0.40000000000E+03 0.  1.
<mgrwt>
<rscale>  2 0.42085150E+03</rscale>
<asrwt>0</asrwt>
<pdfrwt beam="1">  1       21 0.26344015E+00 0.42093660E+03</pdfrwt>
<pdfrwt beam="2">  1       21 0.31989516E-01 0.42093660E+03</pdfrwt>
<totfact> 0.42640643E+02</totfact>
</mgrwt>
</event>
<event>
 6    1  0.9399121E-004  0.4039467E+03  0.7818608E-02  0.1042466E+00
         21   -1    0    0  503  502  0.00000000000E+00  0.00000000000E+00  0.46498792094E+03  0.46498792094E+03  0.00000000000E+00 0. -1.
         21   -1    0    0  501  503 -0.00000000000E+00 -0.00000000000E+00 -0.10928422268E+04  0.10928422268E+04  0.00000000000E+00 0. -1.
    9000007    2    1    2  501    0 -0.40459891517E+02  0.33357176743E+02 -0.95597641913E+03  0.10378168543E+04  0.40052865708E+03 0.  0.
    9000005    1    3    3    0    0 -0.13099935645E+03  0.85161584168E+02 -0.91086183190E+03  0.92416643718E+03  0.99999687468E+00 0.  0.
          4    1    3    3  501    0  0.90539464930E+02 -0.51804407425E+02 -0.45114587234E+02  0.11365041716E+03  0.00000000000E+00 0.  1.
   -9000007    1    1    2    0  502  0.40459891517E+02 -0.33357176743E+02  0.32812211330E+03  0.52001329339E+03  0.40000000000E+03 0. -1.
<mgrwt>
<rscale>  2 0.40381556E+03</rscale>
<asrwt>0</asrwt>
<pdfrwt beam="1">  1       21 0.71536603E-01 0.40394667E+03</pdfrwt>
<pdfrwt beam="2">  1       21 0.16812957E+00 0.40394667E+03</pdfrwt>
<totfact> 0.32722455E+02</totfact>
</mgrwt>
</event>
<event>
 6    1  0.9399121E-004  0.5238890E+03  0.7818608E-02  0.1007726E+00
         21   -1    0    0  503  502  0.00000000000E+00  0.00000000000E+00  0.84198481882E+03  0.84198481882E+03  0.00000000000E+00 0. -1.
         21   -1    0    0  501  503 -0.00000000000E+00 -0.00000000000E+00 -0.33801038786E+03  0.33801038786E+03  0.00000000000E+00 0. -1.
    9000007    2    1    2  501    0  0.33775855671E+03  0.19463498316E+02  0.14054896909E+03  0.54239208817E+03  0.39996936657E+03 0.  0.
    9000005    1    3    3    0    0  0.21013885942E+03  0.17165341838E+03 -0.39641518395E+02  0.27421831860E+03  0.99999687468E+00 0.  0.
          4    1    3    3  501    0  0.12761969729E+03 -0.15218992006E+03  0.18019048749E+03  0.26817376957E+03  0.00000000000E+00 0.  1.
   -9000007    1    1    2    0  502 -0.33775855671E+03 -0.19463498316E+02  0.36342546187E+03  0.63760311851E+03  0.40000000000E+03 0. -1.
<mgrwt>
<rscale>  2 0.52388314E+03</rscale>
<asrwt>0</asrwt>
<pdfrwt beam="1">  1       21 0.12953613E+00 0.52388899E+03</pdfrwt>
<pdfrwt beam="2">  1       21 0.52001598E-01 0.52388899E+03</pdfrwt>
<totfact> 0.12689120E+03</totfact>
</mgrwt>
</event>
<event>
 6    1  0.9399121E-004  0.4155001E+03  0.7818608E-02  0.1038636E+00
         21   -1    0    0  503  502  0.00000000000E+00  0.00000000000E+00  0.23138188094E+04  0.23138188094E+04  0.00000000000E+00 0. -1.
         21   -1    0    0  501  503 -0.00000000000E+00 -0.00000000000E+00 -0.11003855299E+03  0.11003855299E+03  0.00000000000E+00 0. -1.
    9000007    2    1    2  501    0 -0.96484817967E+02 -0.57714707993E+02  0.41120348940E+03  0.58375633983E+03  0.39880176401E+03 0.  0.
    9000005    1    3    3    0    0 -0.12416704764E+03  0.54166280755E+02 -0.20427391932E+02  0.13700262781E+03  0.99999687468E+00 0.  0.
          4    1    3    3  501    0  0.27682229678E+02 -0.11188098875E+03  0.43163088133E+03  0.44675371202E+03  0.00000000000E+00 0.  1.
   -9000007    1    1    2    0  502  0.96484817967E+02  0.57714707993E+02  0.17925767670E+04  0.18401010226E+04  0.40000000000E+03 0. -1.
<mgrwt>
<rscale>  2 0.41521142E+03</rscale>
<asrwt>0</asrwt>
<pdfrwt beam="1">  1       21 0.35597209E+00 0.41550007E+03</pdfrwt>
<pdfrwt beam="2">  1       21 0.16929010E-01 0.41550007E+03</pdfrwt>
<totfact> 0.40426424E+02</totfact>
</mgrwt>
</event>
<event>
 6    1  0.9399121E-004  0.4388732E+03  0.7818608E-02  0.1031210E+00
         21   -1    0    0  503  502  0.00000000000E+00  0.00000000000E+00  0.54457473304E+03  0.54457473304E+03  0.00000000000E+00 0. -1.
         21   -1    0    0  501  503 -0.00000000000E+00 -0.00000000000E+00 -0.52461039554E+03  0.52461039554E+03  0.00000000000E+00 0. -1.
    9000007    2    1    2  501    0  0.36599598009E+02  0.17683363460E+03 -0.29625562531E+03  0.52825562321E+03  0.39834274567E+03 0.  0.
    9000005    1    3    3    0    0 -0.91161770732E+02  0.75928984461E+01 -0.30258370482E+03  0.31611077009E+03  0.99999687468E+00 0.  0.
          4    1    3    3  501    0  0.12776136874E+03  0.16924073615E+03  0.63280795125E+01  0.21214485312E+03  0.00000000000E+00 0.  1.
   -9000007    1    1    2    0  502 -0.36599598009E+02 -0.17683363460E+03  0.31621996281E+03  0.54092950537E+03  0.40000000000E+03 0.  1.
<mgrwt>
<rscale>  2 0.43849521E+03</rscale>
<asrwt>0</asrwt>
<pdfrwt beam="1">  1       21 0.83780729E-01 0.43887318E+03</pdfrwt>
<pdfrwt beam="2">  1       21 0.80709291E-01 0.43887318E+03</pdfrwt>
<totfact> 0.14376585E+03</totfact>
</mgrwt>
</event>
<event>
 6    1  0.9399121E-004  0.4005898E+03  0.7818608E-02  0.1043612E+00
         21   -1    0    0  503  502  0.00000000000E+00  0.00000000000E+00  0.47800509354E+03  0.47800509354E+03  0.00000000000E+00 0.  1.
         21   -1    0    0  501  503 -0.00000000000E+00 -0.00000000000E+00 -0.36141259515E+03  0.36141259515E+03  0.00000000000E+00 0.  1.
    9000007    2    1    2  501    0 -0.44853254374E+01  0.10794768334E+02  0.17100841464E+03  0.43556408018E+03  0.40041921144E+03 0.  0.
    9000005    1    3    3    0    0  0.10009505949E+03 -0.67927367767E+02 -0.85125461377E+02  0.14792056109E+03  0.99999687468E+00 0.  0.
          4    1    3    3  501    0 -0.10458038493E+03  0.78722136101E+02  0.25613387602E+03  0.28764351908E+03  0.00000000000E+00 0.  1.
   -9000007    1    1    2    0  502  0.44853254374E+01 -0.10794768334E+02 -0.54415916247E+02  0.40385360851E+03  0.40000000000E+03 0.  1.
<mgrwt>
<rscale>  2 0.40048500E+03</rscale>
<asrwt>0</asrwt>
<pdfrwt beam="1">  1       21 0.73539245E-01 0.40058980E+03</pdfrwt>
<pdfrwt beam="2">  1       21 0.55601938E-01 0.40058980E+03</pdfrwt>
<totfact> 0.45235461E+03</totfact>
</mgrwt>
</event>
<event>
 6    1  0.9399121E-004  0.4624476E+03  0.7818608E-02  0.1024393E+00
         21   -1    0    0  503  502  0.00000000000E+00  0.00000000000E+00  0.10241591359E+04  0.10241591359E+04  0.00000000000E+00 0.  1.
         21   -1    0    0  501  503 -0.00000000000E+00 -0.00000000000E+00 -0.36007243898E+03  0.36007243898E+03  0.00000000000E+00 0. -1.
    9000007    2    1    2  501    0 -0.13234830180E+03 -0.19063500499E+03 -0.12039432571E+03  0.47358990387E+03  0.39488583827E+03 0.  0.
    9000005    1    3    3    0    0  0.40900908717E+02  0.98779584472E+02  0.19040250266E+02  0.10859936356E+03  0.99999687468E+00 0.  0.
          4    1    3    3  501    0 -0.17324921052E+03 -0.28941458946E+03 -0.13943457598E+03  0.36499054031E+03  0.00000000000E+00 0.  1.
   -9000007    1    1    2    0  502  0.13234830180E+03  0.19063500499E+03  0.78448102266E+03  0.91064167104E+03  0.40000000000E+03 0.  1.
<mgrwt>
<rscale>  2 0.46133953E+03</rscale>
<asrwt>0</asrwt>
<pdfrwt beam="1">  1       21 0.15756294E+00 0.46244759E+03</pdfrwt>
<pdfrwt beam="2">  1       21 0.55395760E-01 0.46244759E+03</pdfrwt>
<totfact> 0.67060676E+02</totfact>
</mgrwt>
</event>
<event>
 6    1  0.9399121E-004  0.5188838E+03  0.7818608E-02  0.1009194E+00
         21   -1    0    0  503  502  0.00000000000E+00  0.00000000000E+00  0.56104059737E+03  0.56104059737E+03  0.00000000000E+00 0. -1.
         21   -1    0    0  501  503 -0.00000000000E+00 -0.00000000000E+00 -0.55058244901E+03  0.55058244901E+03  0.00000000000E+00 0. -1.
    9000007    2    1    2  501    0  0.23404036726E+03  0.22508833343E+03  0.20912183411E+03  0.55943928042E+03  0.40472301099E+03 0.  0.
    9000005    1    3    3    0    0  0.23723377729E+03  0.17273198801E+03  0.32157892515E+03  0.43535067458E+03  0.99999687468E+00 0.  0.
          4    1    3    3  501    0 -0.31934100239E+01  0.52356345424E+02 -0.11245709104E+03  0.12408860584E+03  0.00000000000E+00 0.  1.
   -9000007    1    1    2    0  502 -0.23404036726E+03 -0.22508833343E+03 -0.19866368574E+03  0.55218376596E+03  0.40000000000E+03 0. -1.
<mgrwt>
<rscale>  2 0.51796247E+03</rscale>
<asrwt>0</asrwt>
<pdfrwt beam="1">  1       21 0.86313938E-01 0.51888377E+03</pdfrwt>
<pdfrwt beam="2">  1       21 0.84704993E-01 0.51888377E+03</pdfrwt>
<totfact> 0.11627298E+03</totfact>
</mgrwt>
</event>
<event>
 6    1  0.9399121E-004  0.4157163E+03  0.7818608E-02  0.1038493E+00
         21   -1    0    0  503  502  0.00000000000E+00  0.00000000000E+00  0.93178739618E+03  0.93178739618E+03  0.00000000000E+00 0.  1.
         21   -1    0    0  501  503 -0.00000000000E+00 -0.00000000000E+00 -0.45525311778E+03  0.45525311778E+03  0.00000000000E+00 0.  1.
    9000007    2    1    2  501    0  0.75060123241E+02 -0.83393739856E+02 -0.29569731299E+03  0.51015388007E+03  0.40028932348E+03 0.  0.
    9000005    1    3    3    0    0 -0.29478947876E+02 -0.62742308368E+02  0.87945795770E+02  0.11198691269E+03  0.99999687468E+00 0.  0.
          4    1    3    3  501    0  0.10453907112E+03 -0.20651431488E+02 -0.38364310876E+03  0.39816696738E+03  0.00000000000E+00 0.  1.
   -9000007    1    1    2    0  502 -0.75060123241E+02  0.83393739856E+02  0.77223159140E+03  0.87688663389E+03  0.40000000000E+03 0.  1.
<mgrwt>
<rscale>  2 0.41564668E+03</rscale>
<asrwt>0</asrwt>
<pdfrwt beam="1">  1       21 0.14335191E+00 0.41571635E+03</pdfrwt>
<pdfrwt beam="2">  1       21 0.70038941E-01 0.41571635E+03</pdfrwt>
<totfact> 0.52830805E+02</totfact>
</mgrwt>
</event>
<event>
 6    1  0.9399121E-004  0.4211645E+03  0.7818608E-02  0.1036765E+00
         21   -1    0    0  503  502  0.00000000000E+00  0.00000000000E+00  0.29539820157E+03  0.29539820157E+03  0.00000000000E+00 0. -1.
         21   -1    0    0  501  503 -0.00000000000E+00 -0.00000000000E+00 -0.88686215234E+03  0.88686215234E+03  0.00000000000E+00 0. -1.
    9000007    2    1    2  501    0 -0.11806424192E+03  0.51359553633E+02 -0.63267079539E+03  0.76003414319E+03  0.40100198815E+03 0.  0.
    9000005    1    3    3    0    0 -0.23679558954E+03  0.38884494629E+02 -0.58350338382E+03  0.63092103632E+03  0.99999687468E+00 0.  0.
          4    1    3    3  501    0  0.11873134762E+03  0.12475059004E+02 -0.49167411573E+02  0.12911310687E+03  0.00000000000E+00 0.  1.
   -9000007    1    1    2    0  502  0.11806424192E+03 -0.51359553633E+02  0.41206844624E+02  0.42222621071E+03  0.40000000000E+03 0. -1.
<mgrwt>
<rscale>  2 0.42092585E+03</rscale>
<asrwt>0</asrwt>
<pdfrwt beam="1">  1       21 0.45445877E-01 0.42116453E+03</pdfrwt>
<pdfrwt beam="2">  1       21 0.13644033E+00 0.42116453E+03</pdfrwt>
<totfact> 0.15341249E+03</totfact>
</mgrwt>
</event>
<event>
 6    1  0.9399121E-004  0.4255980E+03  0.7818608E-02  0.1035263E+00
         21   -1    0    0  503  502  0.00000000000E+00  0.00000000000E+00  0.28307389652E+03  0.28307389652E+03  0.00000000000E+00 0.  1.
         21   -1    0    0  501  503 -0.00000000000E+00 -0.00000000000E+00 -0.14060398626E+04  0.14060398626E+04  0.00000000000E+00 0.  1.
    9000007    2    1    2  501    0 -0.77214589345E+02 -0.12317284689E+03 -0.11849292103E+04  0.12590287830E+04  0.39995324742E+03 0.  0.
    9000005    1    3    3    0    0  0.12248741405E+03  0.37305843518E+02 -0.17335835458E+03  0.21552032771E+03  0.99999687468E+00 0.  0.
          4    1    3    3  501    0 -0.19970200339E+03 -0.16047869041E+03 -0.10115708557E+04  0.10435084553E+04  0.00000000000E+00 0.  1.
   -9000007    1    1    2    0  502  0.77214589345E+02  0.12317284689E+03  0.61963244195E+02  0.43008497608E+03  0.40000000000E+03 0.  1.
<mgrwt>
<rscale>  2 0.42558700E+03</rscale>
<asrwt>0</asrwt>
<pdfrwt beam="1">  1       21 0.43549830E-01 0.42559798E+03</pdfrwt>
<pdfrwt beam="2">  1       21 0.21631382E+00 0.42559798E+03</pdfrwt>
<totfact> 0.44469835E+02</totfact>
</mgrwt>
</event>
<event>
 6    1  0.9399121E-004  0.4093709E+03  0.7818608E-02  0.1040614E+00
         21   -1    0    0  503  502  0.00000000000E+00  0.00000000000E+00  0.19253135347E+04  0.19253135347E+04  0.00000000000E+00 0. -1.
         21   -1    0    0  501  503 -0.00000000000E+00 -0.00000000000E+00 -0.87139030611E+02  0.87139030611E+02  0.00000000000E+00 0. -1.
    9000007    2    1    2  501    0  0.46313542838E+02  0.71665993905E+02  0.87438999231E+03  0.96547522836E+03  0.40037931890E+03 0.  0.
    9000005    1    3    3    0    0 -0.14765570046E+03 -0.67081342866E+02  0.45472038987E+03  0.48277711772E+03  0.99999687468E+00 0.  0.
          4    1    3    3  501    0  0.19396924329E+03  0.13874733677E+03  0.41966960244E+03  0.48269811064E+03  0.00000000000E+00 0.  1.
   -9000007    1    1    2    0  502 -0.46313542838E+02 -0.71665993905E+02  0.96378451176E+03  0.10469773369E+04  0.40000000000E+03 0.  1.
<mgrwt>
<rscale>  2 0.40927815E+03</rscale>
<asrwt>0</asrwt>
<pdfrwt beam="1">  1       21 0.29620205E+00 0.40937093E+03</pdfrwt>
<pdfrwt beam="2">  1       21 0.13406006E-01 0.40937093E+03</pdfrwt>
<totfact> 0.14357671E+03</totfact>
</mgrwt>
</event>
<event>
 6    1  0.9399121E-004  0.4595167E+03  0.7818608E-02  0.1024950E+00
         21   -1    0    0  503  502  0.00000000000E+00  0.00000000000E+00  0.15668133939E+04  0.15668133939E+04  0.00000000000E+00 0.  1.
         21   -1    0    0  501  503 -0.00000000000E+00 -0.00000000000E+00 -0.22869774057E+03  0.22869774057E+03  0.00000000000E+00 0.  1.
    9000007    2    1    2  501    0  0.93681007715E+02 -0.20586264263E+03  0.93191792438E+02  0.46848778191E+03  0.39955041332E+03 0.  0.
    9000005    1    3    3    0    0  0.29371985202E+02 -0.23147859572E+03  0.22211825551E+03  0.32215302763E+03  0.99999687468E+00 0.  0.
          4    1    3    3  501    0  0.64309022513E+02  0.25615953084E+02 -0.12892646307E+03  0.14633475428E+03  0.00000000000E+00 0.  1.
   -9000007    1    1    2    0  502 -0.93681007715E+02  0.20586264263E+03  0.12449238609E+04  0.13270233526E+04  0.40000000000E+03 0.  1.
<mgrwt>
<rscale>  2 0.45941880E+03</rscale>
<asrwt>0</asrwt>
<pdfrwt beam="1">  1       21 0.24104821E+00 0.45951666E+03</pdfrwt>
<pdfrwt beam="2">  1       21 0.35184269E-01 0.45951666E+03</pdfrwt>
<totfact> 0.47272521E+02</totfact>
</mgrwt>
</event>
<event>
 6    1  0.9399121E-004  0.4484145E+03  0.7818608E-02  0.1028316E+00
         21   -1    0    0  503  502  0.00000000000E+00  0.00000000000E+00  0.95008613737E+03  0.95008613737E+03  0.00000000000E+00 0.  1.
         21   -1    0    0  501  503 -0.00000000000E+00 -0.00000000000E+00 -0.53075397390E+03  0.53075397390E+03  0.00000000000E+00 0. -1.
    9000007    2    1    2  501    0  0.62195040008E+02  0.18914779805E+03 -0.36498523794E+03  0.57817799360E+03  0.40178409111E+03 0.  0.
    9000005    1    3    3    0    0  0.68545108532E+02  0.26898445505E+03 -0.40314165046E+03  0.48946425742E+03  0.99999687468E+00 0.  0.
          4    1    3    3  501    0 -0.63500685248E+01 -0.79836656995E+02  0.38156412527E+02  0.88713736182E+02  0.00000000000E+00 0.  1.
   -9000007    1    1    2    0  502 -0.62195040008E+02 -0.18914779805E+03  0.78431740141E+03  0.90266211766E+03  0.40000000000E+03 0.  1.
<mgrwt>
<rscale>  2 0.44801450E+03</rscale>
<asrwt>0</asrwt>
<pdfrwt beam="1">  1       21 0.14616710E+00 0.44841451E+03</pdfrwt>
<pdfrwt beam="2">  1       21 0.81654457E-01 0.44841451E+03</pdfrwt>
<totfact> 0.34765721E+02</totfact>
</mgrwt>
</event>
<event>
 6    1  0.9399121E-004  0.4403273E+03  0.7818608E-02  0.1031178E+00
         21   -1    0    0  503  502  0.00000000000E+00  0.00000000000E+00  0.27072097786E+03  0.27072097786E+03  0.00000000000E+00 0. -1.
         21   -1    0    0  501  503 -0.00000000000E+00 -0.00000000000E+00 -0.71508274333E+03  0.71508274333E+03  0.00000000000E+00 0. -1.
    9000007    2    1    2  501    0 -0.17389877495E+03  0.60393468776E+02 -0.16203754072E+03  0.46274051002E+03  0.39240853713E+03 0.  0.
    9000005    1    3    3    0    0 -0.41868752619E+01 -0.12089769892E+03  0.55038701488E+02  0.13290614051E+03  0.99999687468E+00 0.  0.
          4    1    3    3  501    0 -0.16971189969E+03  0.18129116770E+03 -0.21707624221E+03  0.32983436951E+03  0.00000000000E+00 0.  1.
   -9000007    1    1    2    0  502  0.17389877495E+03 -0.60393468776E+02 -0.28232422474E+03  0.52306321117E+03  0.40000000000E+03 0. -1.
<mgrwt>
<rscale>  2 0.43859600E+03</rscale>
<asrwt>0</asrwt>
<pdfrwt beam="1">  1       21 0.41649381E-01 0.44032733E+03</pdfrwt>
<pdfrwt beam="2">  1       21 0.11001273E+00 0.44032733E+03</pdfrwt>
<totfact> 0.31613134E+03</totfact>
</mgrwt>
</event>
<event>
 6    1  0.9399121E-004  0.4993900E+03  0.7818608E-02  0.1013989E+00
         21   -1    0    0  503  502  0.00000000000E+00  0.00000000000E+00  0.41078217796E+03  0.41078217796E+03  0.00000000000E+00 0.  1.
         21   -1    0    0  501  503 -0.00000000000E+00 -0.00000000000E+00 -0.75940443683E+03  0.75940443683E+03  0.00000000000E+00 0. -1.
    9000007    2    1    2  501    0  0.55812333798E+02  0.29240128222E+03 -0.43724889216E+03  0.66375971327E+03  0.40096987021E+03 0.  0.
    9000005    1    3    3    0    0  0.38078306047E+01  0.21456649409E+03 -0.50466652249E+03  0.54840001721E+03  0.99999687468E+00 0.  0.
          4    1    3    3  501    0  0.52004503193E+02  0.77834788131E+02  0.67417630331E+02  0.11535969606E+03  0.00000000000E+00 0.  1.
   -9000007    1    1    2    0  502 -0.55812333798E+02 -0.29240128222E+03  0.88626633291E+02  0.50642690151E+03  0.40000000000E+03 0.  1.
<mgrwt>
<rscale>  2 0.49919528E+03</rscale>
<asrwt>0</asrwt>
<pdfrwt beam="1">  1       21 0.63197259E-01 0.49938999E+03</pdfrwt>
<pdfrwt beam="2">  1       21 0.11683145E+00 0.49938999E+03</pdfrwt>
<totfact> 0.10906318E+03</totfact>
</mgrwt>
</event>
<event>
 6    1  0.9399121E-004  0.4937798E+03  0.7818608E-02  0.1015449E+00
         21   -1    0    0  503  502  0.00000000000E+00  0.00000000000E+00  0.17630865521E+03  0.17630865521E+03  0.00000000000E+00 0. -1.
         21   -1    0    0  501  503 -0.00000000000E+00 -0.00000000000E+00 -0.13858192069E+04  0.13858192069E+04  0.00000000000E+00 0. -1.
    9000007    2    1    2  501    0 -0.27551377712E+03  0.86102367445E+02 -0.64868244529E+03  0.81523454711E+03  0.40062075947E+03 0.  0.
    9000005    1    3    3    0    0 -0.13623367089E+03 -0.16012289914E+03 -0.25594691818E+03  0.33122315866E+03  0.99999687468E+00 0.  0.
          4    1    3    3  501    0 -0.13928010623E+03  0.24622526659E+03 -0.39273552711E+03  0.48401138845E+03  0.00000000000E+00 0.  1.
   -9000007    1    1    2    0  502  0.27551377712E+03 -0.86102367445E+02 -0.56082810645E+03  0.74689331503E+03  0.40000000000E+03 0. -1.
<mgrwt>
<rscale>  2 0.49365383E+03</rscale>
<asrwt>0</asrwt>
<pdfrwt beam="1">  1       21 0.27124406E-01 0.49377976E+03</pdfrwt>
<pdfrwt beam="2">  1       21 0.21320297E+00 0.49377976E+03</pdfrwt>
<totfact> 0.11743885E+03</totfact>
</mgrwt>
</event>
<event>
 6    1  0.9399121E-004  0.4027734E+03  0.7818608E-02  0.1042862E+00
         21   -1    0    0  503  502  0.00000000000E+00  0.00000000000E+00  0.30970223735E+03  0.30970223735E+03  0.00000000000E+00 0.  1.
         21   -1    0    0  501  503 -0.00000000000E+00 -0.00000000000E+00 -0.52443910498E+03  0.52443910498E+03  0.00000000000E+00 0.  1.
    9000007    2    1    2  501    0  0.47129086227E+02 -0.22860706941E+01 -0.87358059634E+02  0.41170585896E+03  0.39955463560E+03 0.  0.
    9000005    1    3    3    0    0 -0.56992836712E+02 -0.10417707324E+03 -0.19655454036E+03  0.22964262094E+03  0.99999687468E+00 0.  0.
          4    1    3    3  501    0  0.10412192294E+03  0.10189100254E+03  0.10919648072E+03  0.18206323802E+03  0.00000000000E+00 0.  1.
   -9000007    1    1    2    0  502 -0.47129086227E+02  0.22860706941E+01 -0.12737880799E+03  0.42243548337E+03  0.40000000000E+03 0.  1.
<mgrwt>
<rscale>  2 0.40266274E+03</rscale>
<asrwt>0</asrwt>
<pdfrwt beam="1">  1       21 0.47646499E-01 0.40277336E+03</pdfrwt>
<pdfrwt beam="2">  1       21 0.80682938E-01 0.40277336E+03</pdfrwt>
<totfact> 0.50813449E+03</totfact>
</mgrwt>
</event>
<event>
 6    1  0.9399121E-004  0.4365812E+03  0.7818608E-02  0.1031802E+00
         21   -1    0    0  503  502  0.00000000000E+00  0.00000000000E+00  0.32066036104E+03  0.32066036104E+03  0.00000000000E+00 0.  1.
         21   -1    0    0  501  503 -0.00000000000E+00 -0.00000000000E+00 -0.87140610727E+03  0.87140610727E+03  0.00000000000E+00 0. -1.
    9000007    2    1    2  501    0  0.17438691237E+03  0.13502583069E+02 -0.61143057169E+03  0.75129922475E+03  0.40001258251E+03 0.  0.
    9000005    1    3    3    0    0  0.74093547108E+02  0.72012625356E+02 -0.62582487473E+03  0.63429760031E+03  0.99999687468E+00 0.  0.
          4    1    3    3  501    0  0.10029336526E+03 -0.58510042287E+02  0.14394303039E+02  0.11700162445E+03  0.00000000000E+00 0.  1.
   -9000007    1    1    2    0  502 -0.17438691237E+03 -0.13502583069E+02  0.60684825462E+02  0.44076724356E+03  0.40000000000E+03 0.  1.
<mgrwt>
<rscale>  2 0.43657836E+03</rscale>
<asrwt>0</asrwt>
<pdfrwt beam="1">  1       21 0.49332364E-01 0.43658124E+03</pdfrwt>
<pdfrwt beam="2">  1       21 0.13406248E+00 0.43658124E+03</pdfrwt>
<totfact> 0.13423469E+03</totfact>
</mgrwt>
</event>
<event>
 6    1  0.9399121E-004  0.4452579E+03  0.7818608E-02  0.1029239E+00
         21   -1    0    0  503  502  0.00000000000E+00  0.00000000000E+00  0.11137147233E+04  0.11137147233E+04  0.00000000000E+00 0. -1.
         21   -1    0    0  501  503 -0.00000000000E+00 -0.00000000000E+00 -0.26118578761E+03  0.26118578761E+03  0.00000000000E+00 0.  1.
    9000007    2    1    2  501    0 -0.17663193016E+03 -0.83998503793E+02  0.36778379292E+02  0.44554398209E+03  0.39862539232E+03 0.  0.
    9000005    1    3    3    0    0  0.37135934407E+02 -0.19470800423E+03  0.50057085330E+02  0.20444313713E+03  0.99999687468E+00 0.  0.
          4    1    3    3  501    0 -0.21376786456E+03  0.11070950043E+03 -0.13278706038E+02  0.24110084496E+03  0.00000000000E+00 0.  1.
   -9000007    1    1    2    0  502  0.17663193016E+03  0.83998503793E+02  0.81575055641E+03  0.92935652883E+03  0.40000000000E+03 0. -1.
<mgrwt>
<rscale>  2 0.44494895E+03</rscale>
<asrwt>0</asrwt>
<pdfrwt beam="1">  1       21 0.17134072E+00 0.44525789E+03</pdfrwt>
<pdfrwt beam="2">  1       21 0.40182429E-01 0.44525789E+03</pdfrwt>
<totfact> 0.10509991E+03</totfact>
</mgrwt>
</event>
<event>
 6    1  0.9399121E-004  0.5153033E+03  0.7818608E-02  0.1009872E+00
         21   -1    0    0  503  502  0.00000000000E+00  0.00000000000E+00  0.14753861901E+04  0.14753861901E+04  0.00000000000E+00 0. -1.
         21   -1    0    0  501  503 -0.00000000000E+00 -0.00000000000E+00 -0.54458643186E+03  0.54458643186E+03  0.00000000000E+00 0. -1.
    9000007    2    1    2  501    0 -0.28953850819E+03  0.14663394078E+03 -0.36105821371E+03  0.62920625767E+03  0.40025419510E+03 0.  0.
    9000005    1    3    3    0    0 -0.27042179335E+02  0.45871110184E+02 -0.34337333079E+03  0.34747903894E+03  0.99999687468E+00 0.  0.
          4    1    3    3  501    0 -0.26249632885E+03  0.10076283059E+03 -0.17684882921E+02  0.28172721873E+03  0.00000000000E+00 0.  1.
   -9000007    1    1    2    0  502  0.28953850819E+03 -0.14663394078E+03  0.12918579719E+04  0.13907663642E+04  0.40000000000E+03 0. -1.
<mgrwt>
<rscale>  2 0.51525393E+03</rscale>
<asrwt>0</asrwt>
<pdfrwt beam="1">  1       21 0.22698249E+00 0.51530329E+03</pdfrwt>
<pdfrwt beam="2">  1       21 0.83782529E-01 0.51530329E+03</pdfrwt>
<totfact> 0.85894717E+01</totfact>
</mgrwt>
</event>
<event>
 6    1  0.9399121E-004  0.5979682E+03  0.7818608E-02  0.9909821E-01
         21   -1    0    0  503  502  0.00000000000E+00  0.00000000000E+00  0.84876126097E+03  0.84876126097E+03  0.00000000000E+00 0.  1.
         21   -1    0    0  501  503 -0.00000000000E+00 -0.00000000000E+00 -0.66441752673E+03  0.66441752673E+03  0.00000000000E+00 0. -1.
    9000007    2    1    2  501    0 -0.35926839356E+03  0.26171002654E+03 -0.36577310668E+03  0.70065527711E+03  0.39945204364E+03 0.  0.
    9000005    1    3    3    0    0 -0.15436169865E+03  0.23129213229E+03 -0.40355799267E+03  0.49008533738E+03  0.99999687468E+00 0.  0.
          4    1    3    3  501    0 -0.20490669491E+03  0.30417894252E+02  0.37784885997E+02  0.21056993973E+03  0.00000000000E+00 0.  1.
   -9000007    1    1    2    0  502  0.35926839356E+03 -0.26171002654E+03  0.55011684092E+03  0.81252351059E+03  0.40000000000E+03 0.  1.
<mgrwt>
<rscale>  2 0.59787653E+03</rscale>
<asrwt>0</asrwt>
<pdfrwt beam="1">  1       21 0.13057865E+00 0.59796816E+03</pdfrwt>
<pdfrwt beam="2">  1       21 0.10221808E+00 0.59796816E+03</pdfrwt>
<totfact> 0.25785035E+02</totfact>
</mgrwt>
</event>
<event>
 6    1  0.9399121E-004  0.4729018E+03  0.7818608E-02  0.1021748E+00
         21   -1    0    0  503  502  0.00000000000E+00  0.00000000000E+00  0.28829391743E+03  0.28829391743E+03  0.00000000000E+00 0.  1.
         21   -1    0    0  501  503 -0.00000000000E+00 -0.00000000000E+00 -0.99699737364E+03  0.99699737364E+03  0.00000000000E+00 0. -1.
    9000007    2    1    2  501    0 -0.12756265653E+03 -0.21763233945E+03 -0.66446444962E+03  0.81032481202E+03  0.38920075752E+03 0.  0.
    9000005    1    3    3    0    0  0.10846178651E+03 -0.17245041821E+03 -0.42380218513E+03  0.47022590102E+03  0.99999687468E+00 0.  0.
          4    1    3    3  501    0 -0.23602444303E+03 -0.45181921244E+02 -0.24066226449E+03  0.34009891100E+03  0.00000000000E+00 0.  1.
   -9000007    1    1    2    0  502  0.12756265653E+03  0.21763233945E+03 -0.44239006597E+02  0.47496647905E+03  0.40000000000E+03 0.  1.
<mgrwt>
<rscale>  2 0.47061048E+03</rscale>
<asrwt>0</asrwt>
<pdfrwt beam="1">  1       21 0.44352911E-01 0.47290175E+03</pdfrwt>
<pdfrwt beam="2">  1       21 0.15338421E+00 0.47290175E+03</pdfrwt>
<totfact> 0.11536514E+03</totfact>
</mgrwt>
</event>
<event>
 6    1  0.9399121E-004  0.7225157E+03  0.7818608E-02  0.9679647E-01
         21   -1    0    0  503  502  0.00000000000E+00  0.00000000000E+00  0.73091713283E+03  0.73091713283E+03  0.00000000000E+00 0. -1.
         21   -1    0    0  501  503 -0.00000000000E+00 -0.00000000000E+00 -0.82066091563E+03  0.82066091563E+03  0.00000000000E+00 0.  1.
    9000007    2    1    2  501    0 -0.70392290085E+02  0.59707593410E+03 -0.32480304841E+03  0.79216537808E+03  0.40071713263E+03 0.  0.
    9000005    1    3    3    0    0 -0.73819432857E+02  0.57117866014E+03 -0.12330590595E+03  0.58898193257E+03  0.99999687468E+00 0.  0.
          4    1    3    3  501    0  0.34271427721E+01  0.25897273966E+02 -0.20149714247E+03  0.20318344551E+03  0.00000000000E+00 0.  1.
   -9000007    1    1    2    0  502  0.70392290085E+02 -0.59707593410E+03  0.23505926561E+03  0.75941267038E+03  0.40000000000E+03 0.  1.
<mgrwt>
<rscale>  2 0.72241633E+03</rscale>
<asrwt>0</asrwt>
<pdfrwt beam="1">  1       21 0.11244879E+00 0.72251572E+03</pdfrwt>
<pdfrwt beam="2">  1       21 0.12625553E+00 0.72251572E+03</pdfrwt>
<totfact> 0.21305684E+02</totfact>
</mgrwt>
</event>
<event>
 6    1  0.9399121E-004  0.4515646E+03  0.7818608E-02  0.1027260E+00
         21   -1    0    0  503  502  0.00000000000E+00  0.00000000000E+00  0.17459801193E+04  0.17459801193E+04  0.00000000000E+00 0. -1.
         21   -1    0    0  501  503 -0.00000000000E+00 -0.00000000000E+00 -0.12939321242E+03  0.12939321242E+03  0.00000000000E+00 0. -1.
    9000007    2    1    2  501    0 -0.10059072870E+03 -0.18382637084E+03  0.51544067008E+03  0.68523314497E+03  0.39994343259E+03 0.  0.
    9000005    1    3    3    0    0  0.11165026258E+03 -0.10954153469E+03  0.43332084362E+02  0.16230772775E+03  0.99999687468E+00 0.  0.
          4    1    3    3  501    0 -0.21224099129E+03 -0.74284836146E+02  0.47210858572E+03  0.52292541722E+03  0.00000000000E+00 0.  1.
   -9000007    1    1    2    0  502  0.10059072870E+03  0.18382637084E+03  0.11011462368E+04  0.11901401867E+04  0.40000000000E+03 0. -1.
<mgrwt>
<rscale>  2 0.45155212E+03</rscale>
<asrwt>0</asrwt>
<pdfrwt beam="1">  1       21 0.26861231E+00 0.45156465E+03</pdfrwt>
<pdfrwt beam="2">  1       21 0.19906649E-01 0.45156465E+03</pdfrwt>
<totfact> 0.98311887E+02</totfact>
</mgrwt>
</event>
<event>
 6    1  0.9399121E-004  0.4707399E+03  0.7818608E-02  0.1021744E+00
         21   -1    0    0  503  502  0.00000000000E+00  0.00000000000E+00  0.12489531740E+04  0.12489531740E+04  0.00000000000E+00 0.  1.
         21   -1    0    0  501  503 -0.00000000000E+00 -0.00000000000E+00 -0.59818778588E+03  0.59818778588E+03  0.00000000000E+00 0.  1.
    9000007    2    1    2  501    0 -0.22745389570E+03 -0.99301349629E+02 -0.44941316065E+03  0.65048358541E+03  0.39945046404E+03 0.  0.
    9000005    1    3    3    0    0  0.99287153009E+02 -0.10100364648E+03 -0.10982172327E+03  0.17922468091E+03  0.99999687468E+00 0.  0.
          4    1    3    3  501    0 -0.32674104871E+03  0.17022968477E+01 -0.33959143738E+03  0.47125890450E+03  0.00000000000E+00 0.  1.
   -9000007    1    1    2    0  502  0.22745389570E+03  0.99301349629E+02  0.11001785487E+04  0.11966573744E+04  0.40000000000E+03 0.  1.
<mgrwt>
<rscale>  2 0.47062312E+03</rscale>
<asrwt>0</asrwt>
<pdfrwt beam="1">  1       21 0.19214664E+00 0.47073988E+03</pdfrwt>
<pdfrwt beam="2">  1       21 0.92028890E-01 0.47073988E+03</pdfrwt>
<totfact> 0.11926915E+02</totfact>
</mgrwt>
</event>
<event>
 6    1  0.9399121E-004  0.5065734E+03  0.7818608E-02  0.1012079E+00
         21   -1    0    0  503  502  0.00000000000E+00  0.00000000000E+00  0.97270623597E+03  0.97270623597E+03  0.00000000000E+00 0.  1.
         21   -1    0    0  501  503 -0.00000000000E+00 -0.00000000000E+00 -0.26714363735E+03  0.26714363735E+03  0.00000000000E+00 0. -1.
    9000007    2    1    2  501    0  0.23020688106E+03  0.20885745035E+03  0.28349153159E+03  0.58048606761E+03  0.39997497866E+03 0.  0.
    9000005    1    3    3    0    0  0.20771138274E+03  0.19921405286E+03 -0.80521576328E+01  0.28791681891E+03  0.99999687468E+00 0.  0.
          4    1    3    3  501    0  0.22495498327E+02  0.96433974913E+01  0.29154368922E+03  0.29256924870E+03  0.00000000000E+00 0.  1.
   -9000007    1    1    2    0  502 -0.23020688106E+03 -0.20885745035E+03  0.42207106702E+03  0.65936380571E+03  0.40000000000E+03 0.  1.
<mgrwt>
<rscale>  2 0.50656849E+03</rscale>
<asrwt>0</asrwt>
<pdfrwt beam="1">  1       21 0.14964711E+00 0.50657343E+03</pdfrwt>
<pdfrwt beam="2">  1       21 0.41099021E-01 0.50657343E+03</pdfrwt>
<totfact> 0.14277837E+03</totfact>
</mgrwt>
</event>
<event>
 6    1  0.9399121E-004  0.4576109E+03  0.7818608E-02  0.1026195E+00
         21   -1    0    0  503  502  0.00000000000E+00  0.00000000000E+00  0.58748978455E+03  0.58748978455E+03  0.00000000000E+00 0.  1.
         21   -1    0    0  501  503 -0.00000000000E+00 -0.00000000000E+00 -0.61475729416E+03  0.61475729416E+03  0.00000000000E+00 0.  1.
    9000007    2    1    2  501    0 -0.19397463871E+03 -0.10854278411E+03 -0.40884028309E+03  0.60642371738E+03  0.38883370672E+03 0.  0.
    9000005    1    3    3    0    0 -0.20198027107E+03 -0.10159215971E+03 -0.30737958237E+02  0.22817278296E+03  0.99999687468E+00 0.  0.
          4    1    3    3  501    0  0.80056323504E+01 -0.69506243922E+01 -0.37810232485E+03  0.37825093442E+03  0.00000000000E+00 0.  1.
   -9000007    1    1    2    0  502  0.19397463871E+03  0.10854278411E+03  0.38157277348E+03  0.59582336133E+03  0.40000000000E+03 0.  1.
<mgrwt>
<rscale>  2 0.45515931E+03</rscale>
<asrwt>0</asrwt>
<pdfrwt beam="1">  1       21 0.90383044E-01 0.45761086E+03</pdfrwt>
<pdfrwt beam="2">  1       21 0.94578045E-01 0.45761086E+03</pdfrwt>
<totfact> 0.82182685E+02</totfact>
</mgrwt>
</event>
<event>
 6    1  0.9399121E-004  0.5812987E+03  0.7818608E-02  0.9945112E-01
         21   -1    0    0  503  502  0.00000000000E+00  0.00000000000E+00  0.25266737714E+03  0.25266737714E+03  0.00000000000E+00 0.  1.
         21   -1    0    0  501  503 -0.00000000000E+00 -0.00000000000E+00 -0.13454361887E+04  0.13454361887E+04  0.00000000000E+00 0. -1.
    9000007    2    1    2  501    0 -0.39413283511E+03 -0.14930024981E+03 -0.48253559021E+03  0.75547918882E+03  0.40034604109E+03 0.  0.
    9000005    1    3    3    0    0 -0.31342992106E+03 -0.16512343564E+03 -0.10559171560E+03  0.36966833082E+03  0.99999687468E+00 0.  0.
          4    1    3    3  501    0 -0.80702914049E+02  0.15823185832E+02 -0.37694387461E+03  0.38581085800E+03  0.00000000000E+00 0.  1.
   -9000007    1    1    2    0  502  0.39413283511E+03  0.14930024981E+03 -0.61023322133E+03  0.84262437700E+03  0.40000000000E+03 0. -1.
<mgrwt>
<rscale>  2 0.58123915E+03</rscale>
<asrwt>0</asrwt>
<pdfrwt beam="1">  1       21 0.38871904E-01 0.58129873E+03</pdfrwt>
<pdfrwt beam="2">  1       21 0.20699018E+00 0.58129873E+03</pdfrwt>
<totfact> 0.60409266E+02</totfact>
</mgrwt>
</event>
<event>
 6    1  0.9399121E-004  0.5120691E+03  0.7818608E-02  0.1010704E+00
         21   -1    0    0  503  502  0.00000000000E+00  0.00000000000E+00  0.31434809558E+03  0.31434809558E+03  0.00000000000E+00 0. -1.
         21   -1    0    0  501  503 -0.00000000000E+00 -0.00000000000E+00 -0.11105098222E+04  0.11105098222E+04  0.00000000000E+00 0. -1.
    9000007    2    1    2  501    0 -0.27278865165E+03 -0.16534744709E+03 -0.75408164262E+03  0.91151187445E+03  0.40057626840E+03 0.  0.
    9000005    1    3    3    0    0 -0.33564167008E+03 -0.68455044324E+02 -0.70921652632E+03  0.78761063032E+03  0.99999687468E+00 0.  0.
          4    1    3    3  501    0  0.62853018423E+02 -0.96892402763E+02 -0.44865116298E+02  0.12390124414E+03  0.00000000000E+00 0.  1.
   -9000007    1    1    2    0  502  0.27278865165E+03  0.16534744709E+03 -0.42080084007E+02  0.51334604333E+03  0.40000000000E+03 0. -1.
<mgrwt>
<rscale>  2 0.51195641E+03</rscale>
<asrwt>0</asrwt>
<pdfrwt beam="1">  1       21 0.48361244E-01 0.51206911E+03</pdfrwt>
<pdfrwt beam="2">  1       21 0.17084767E+00 0.51206911E+03</pdfrwt>
<totfact> 0.69931707E+02</totfact>
</mgrwt>
</event>
<event>
 6    1  0.9399121E-004  0.4559352E+03  0.7818608E-02  0.1026189E+00
         21   -1    0    0  503  502  0.00000000000E+00  0.00000000000E+00  0.90115930398E+03  0.90115930398E+03  0.00000000000E+00 0. -1.
         21   -1    0    0  501  503 -0.00000000000E+00 -0.00000000000E+00 -0.27569383752E+03  0.27569383752E+03  0.00000000000E+00 0. -1.
    9000007    2    1    2  501    0 -0.57017924425E+02  0.21124838511E+03  0.70106472843E+02  0.45831258196E+03  0.39655842108E+03 0.  0.
    9000005    1    3    3    0    0 -0.77390351857E+02  0.26453699424E+03 -0.88717651485E+02  0.28955294777E+03  0.99999687468E+00 0.  0.
          4    1    3    3  501    0  0.20372427432E+02 -0.53288609128E+02  0.15882412433E+03  0.16875963419E+03  0.00000000000E+00 0.  1.
   -9000007    1    1    2    0  502  0.57017924425E+02 -0.21124838511E+03  0.55535899362E+03  0.71854055954E+03  0.40000000000E+03 0. -1.
<mgrwt>
<rscale>  2 0.45517925E+03</rscale>
<asrwt>0</asrwt>
<pdfrwt beam="1">  1       21 0.13863989E+00 0.45593522E+03</pdfrwt>
<pdfrwt beam="2">  1       21 0.42414437E-01 0.45593522E+03</pdfrwt>
<totfact> 0.16743322E+03</totfact>
</mgrwt>
</event>
<event>
 6    1  0.9399121E-004  0.5149742E+03  0.7818608E-02  0.1009982E+00
         21   -1    0    0  503  502  0.00000000000E+00  0.00000000000E+00  0.13822198773E+04  0.13822198773E+04  0.00000000000E+00 0. -1.
         21   -1    0    0  501  503 -0.00000000000E+00 -0.00000000000E+00 -0.27120323521E+03  0.27120323521E+03  0.00000000000E+00 0. -1.
    9000007    2    1    2  501    0 -0.13404851942E+02  0.32307037286E+03  0.10794373328E+03  0.52616563693E+03  0.40080453098E+03 0.  0.
    9000005    1    3    3    0    0 -0.17485549269E+03  0.28338412749E+02  0.58156670198E+02  0.18644223567E+03  0.99999687468E+00 0.  0.
          4    1    3    3  501    0  0.16145064075E+03  0.29473196011E+03  0.49787063081E+02  0.33972340125E+03  0.00000000000E+00 0.  1.
   -9000007    1    1    2    0  502  0.13404851942E+02 -0.32307037286E+03  0.10030729088E+04  0.11272574756E+04  0.40000000000E+03 0. -1.
<mgrwt>
<rscale>  2 0.51481765E+03</rscale>
<asrwt>0</asrwt>
<pdfrwt beam="1">  1       21 0.21264921E+00 0.51497420E+03</pdfrwt>
<pdfrwt beam="2">  1       21 0.41723576E-01 0.51497420E+03</pdfrwt>
<totfact> 0.49174110E+02</totfact>
</mgrwt>
</event>
<event>
 6    1  0.9399121E-004  0.5181845E+03  0.7818608E-02  0.1009148E+00
         21   -1    0    0  503  502  0.00000000000E+00  0.00000000000E+00  0.27959708346E+03  0.27959708346E+03  0.00000000000E+00 0.  1.
         21   -1    0    0  501  503 -0.00000000000E+00 -0.00000000000E+00 -0.97600295657E+03  0.97600295657E+03  0.00000000000E+00 0.  1.
    9000007    2    1    2  501    0 -0.32873210677E+03 -0.21223204408E+02 -0.42836366084E+03  0.67219464926E+03  0.39979369448E+03 0.  0.
    9000005    1    3    3    0    0  0.60934785747E+02  0.92347769041E+02 -0.71460039906E+02  0.13171444817E+03  0.99999687468E+00 0.  0.
          4    1    3    3  501    0 -0.38966689251E+03 -0.11357097345E+03 -0.35690362093E+03  0.54048020109E+03  0.00000000000E+00 0.  1.
   -9000007    1    1    2    0  502  0.32873210677E+03  0.21223204408E+02 -0.26804221227E+03  0.58340539077E+03  0.40000000000E+03 0.  1.
<mgrwt>
<rscale>  2 0.51814473E+03</rscale>
<asrwt>0</asrwt>
<pdfrwt beam="1">  1       21 0.43014935E-01 0.51818454E+03</pdfrwt>
<pdfrwt beam="2">  1       21 0.15015430E+00 0.51818454E+03</pdfrwt>
<totfact> 0.12813979E+03</totfact>
</mgrwt>
</event>
<event>
 6    1  0.9399121E-004  0.4983539E+03  0.7818608E-02  0.1014214E+00
         21   -1    0    0  503  502  0.00000000000E+00  0.00000000000E+00  0.23668649509E+03  0.23668649509E+03  0.00000000000E+00 0.  1.
         21   -1    0    0  501  503 -0.00000000000E+00 -0.00000000000E+00 -0.13260609429E+04  0.13260609429E+04  0.00000000000E+00 0.  1.
    9000007    2    1    2  501    0  0.29290716821E+03  0.50616409056E+02 -0.18761237912E+03  0.53244095029E+03  0.39992290594E+03 0.  0.
    9000005    1    3    3    0    0 -0.24536264000E+02  0.15463102831E+03 -0.17421012799E+02  0.15753499563E+03  0.99999687468E+00 0.  0.
          4    1    3    3  501    0  0.31744343221E+03 -0.10401461925E+03 -0.17019136633E+03  0.37490595467E+03  0.00000000000E+00 0.  1.
   -9000007    1    1    2    0  502 -0.29290716821E+03 -0.50616409056E+02 -0.90176206869E+03  0.10303064877E+04  0.40000000000E+03 0.  1.
<mgrwt>
<rscale>  2 0.49833845E+03</rscale>
<asrwt>0</asrwt>
<pdfrwt beam="1">  1       21 0.36413307E-01 0.49835392E+03</pdfrwt>
<pdfrwt beam="2">  1       21 0.20400937E+00 0.49835392E+03</pdfrwt>
<totfact> 0.74690056E+02</totfact>
</mgrwt>
</event>
<event>
 6    1  0.9399121E-004  0.4017402E+03  0.7818608E-02  0.1043180E+00
         21   -1    0    0  503  502  0.00000000000E+00  0.00000000000E+00  0.15615091688E+04  0.15615091688E+04  0.00000000000E+00 0. -1.
         21   -1    0    0  501  503 -0.00000000000E+00 -0.00000000000E+00 -0.91485794982E+03  0.91485794982E+03  0.00000000000E+00 0. -1.
    9000007    2    1    2  501    0  0.20824992555E+02  0.30765036970E+02 -0.84282138719E+03  0.93367181093E+03  0.40001873956E+03 0.  0.
    9000005    1    3    3    0    0  0.16521226220E+03  0.13733945661E+03 -0.54689664088E+03  0.58758331641E+03  0.99999687468E+00 0.  0.
          4    1    3    3  501    0 -0.14438726965E+03 -0.10657441964E+03 -0.29592474631E+03  0.34608849452E+03  0.00000000000E+00 0.  1.
   -9000007    1    1    2    0  502 -0.20824992555E+02 -0.30765036970E+02  0.14894726061E+04  0.15426953076E+04  0.40000000000E+03 0. -1.
<mgrwt>
<rscale>  2 0.40173550E+03</rscale>
<asrwt>0</asrwt>
<pdfrwt beam="1">  1       21 0.24023218E+00 0.40174016E+03</pdfrwt>
<pdfrwt beam="2">  1       21 0.14074738E+00 0.40174016E+03</pdfrwt>
<totfact> 0.21040275E+01</totfact>
</mgrwt>
</event>
<event>
 6    1  0.9399121E-004  0.5413034E+03  0.7818608E-02  0.1003555E+00
         21   -1    0    0  503  502  0.00000000000E+00  0.00000000000E+00  0.41621233273E+03  0.41621233273E+03  0.00000000000E+00 0. -1.
         21   -1    0    0  501  503 -0.00000000000E+00 -0.00000000000E+00 -0.70358608260E+03  0.70358608260E+03  0.00000000000E+00 0.  1.
    9000007    2    1    2  501    0 -0.19612394515E+02 -0.36348287769E+03 -0.13424591719E+03  0.55770182084E+03  0.40063063573E+03 0.  0.
    9000005    1    3    3    0    0  0.99506114144E+02 -0.24781478037E+03  0.87198640536E+02  0.28092389544E+03  0.99999687468E+00 0.  0.
          4    1    3    3  501    0 -0.11911850866E+03 -0.11566809732E+03 -0.22144455772E+03  0.27677792540E+03  0.00000000000E+00 0.  1.
   -9000007    1    1    2    0  502  0.19612394515E+02  0.36348287769E+03 -0.15312783269E+03  0.56209659449E+03  0.40000000000E+03 0. -1.
<mgrwt>
<rscale>  2 0.54118670E+03</rscale>
<asrwt>0</asrwt>
<pdfrwt beam="1">  1       21 0.64032666E-01 0.54130339E+03</pdfrwt>
<pdfrwt beam="2">  1       21 0.10824401E+00 0.54130339E+03</pdfrwt>
<totfact> 0.12636954E+03</totfact>
</mgrwt>
</event>
<event>
 6    1  0.9399121E-004  0.4040969E+03  0.7818608E-02  0.1042467E+00
         21   -1    0    0  503  502  0.00000000000E+00  0.00000000000E+00  0.23656872406E+03  0.23656872406E+03  0.00000000000E+00 0. -1.
         21   -1    0    0  501  503 -0.00000000000E+00 -0.00000000000E+00 -0.95969847016E+03  0.95969847016E+03  0.00000000000E+00 0. -1.
    9000007    2    1    2  501    0  0.44508751664E+02 -0.36239394704E+02 -0.67926395878E+03  0.78979637116E+03  0.39885393252E+03 0.  0.
    9000005    1    3    3    0    0 -0.10125217809E+03  0.11270013204E+03 -0.47264109802E+03  0.49633046537E+03  0.99999687468E+00 0.  0.
          4    1    3    3  501    0  0.14576092975E+03 -0.14893952674E+03 -0.20662286076E+03  0.29346590578E+03  0.00000000000E+00 0.  1.
   -9000007    1    1    2    0  502 -0.44508751664E+02  0.36239394704E+02 -0.43865787314E+02  0.40647082306E+03  0.40000000000E+03 0. -1.
<mgrwt>
<rscale>  2 0.40381302E+03</rscale>
<asrwt>0</asrwt>
<pdfrwt beam="1">  1       21 0.36395188E-01 0.40409692E+03</pdfrwt>
<pdfrwt beam="2">  1       21 0.14764592E+00 0.40409692E+03</pdfrwt>
<totfact> 0.19795996E+03</totfact>
</mgrwt>
</event>
<event>
 6    1  0.9399121E-004  0.4622905E+03  0.7818608E-02  0.1024386E+00
         21   -1    0    0  503  502  0.00000000000E+00  0.00000000000E+00  0.11932872053E+04  0.11932872053E+04  0.00000000000E+00 0.  1.
         21   -1    0    0  501  503 -0.00000000000E+00 -0.00000000000E+00 -0.18600541673E+03  0.18600541673E+03  0.00000000000E+00 0. -1.
    9000007    2    1    2  501    0  0.45191472677E+02  0.21970871549E+03  0.35956801769E+03  0.58566341525E+03  0.40422554069E+03 0.  0.
    9000005    1    3    3    0    0  0.55121425952E+02  0.25364981932E+03  0.38214448239E+02  0.26236986582E+03  0.99999687468E+00 0.  0.
          4    1    3    3  501    0 -0.99299532756E+01 -0.33941103828E+02  0.32135356945E+03  0.32329354943E+03  0.00000000000E+00 0.  1.
   -9000007    1    1    2    0  502 -0.45191472677E+02 -0.21970871549E+03  0.64771377089E+03  0.79362920679E+03  0.40000000000E+03 0. -1.
<mgrwt>
<rscale>  2 0.46136514E+03</rscale>
<asrwt>0</asrwt>
<pdfrwt beam="1">  1       21 0.18358264E+00 0.46229047E+03</pdfrwt>
<pdfrwt beam="2">  1       21 0.28616219E-01 0.46229047E+03</pdfrwt>
<totfact> 0.16934060E+03</totfact>
</mgrwt>
</event>
<event>
 6    1  0.9399121E-004  0.5130886E+03  0.7818608E-02  0.1010419E+00
         21   -1    0    0  503  502  0.00000000000E+00  0.00000000000E+00  0.17754494747E+04  0.17754494747E+04  0.00000000000E+00 0. -1.
         21   -1    0    0  501  503 -0.00000000000E+00 -0.00000000000E+00 -0.17633484655E+03  0.17633484655E+03  0.00000000000E+00 0. -1.
    9000007    2    1    2  501    0  0.29352715678E+03 -0.13071684630E+03  0.41026608575E+03  0.65694612964E+03  0.40001858764E+03 0.  0.
    9000005    1    3    3    0    0  0.38978870640E+03 -0.14407822753E+03  0.34169464149E+03  0.53800557553E+03  0.99999687468E+00 0.  0.
          4    1    3    3  501    0 -0.96261549620E+02  0.13361381233E+02  0.68571444253E+02  0.11894055410E+03  0.00000000000E+00 0.  1.
   -9000007    1    1    2    0  502 -0.29352715678E+03  0.13071684630E+03  0.11888485424E+04  0.12948381916E+04  0.40000000000E+03 0. -1.
<mgrwt>
<rscale>  2 0.51308502E+03</rscale>
<asrwt>0</asrwt>
<pdfrwt beam="1">  1       21 0.27314606E+00 0.51308864E+03</pdfrwt>
<pdfrwt beam="2">  1       21 0.27128439E-01 0.51308864E+03</pdfrwt>
<totfact> 0.49181768E+02</totfact>
</mgrwt>
</event>
<event>
 6    1  0.9399121E-004  0.4936447E+03  0.7818608E-02  0.1015741E+00
         21   -1    0    0  503  502  0.00000000000E+00  0.00000000000E+00  0.16638949868E+04  0.16638949868E+04  0.00000000000E+00 0.  1.
         21   -1    0    0  501  503 -0.00000000000E+00 -0.00000000000E+00 -0.23107346277E+03  0.23107346277E+03  0.00000000000E+00 0.  1.
    9000007    2    1    2  501    0 -0.24479523931E+03 -0.15414414141E+03  0.13671018711E+03  0.50803307861E+03  0.39461729331E+03 0.  0.
    9000005    1    3    3    0    0 -0.17134186478E+03 -0.28657847270E+03  0.12355342787E+03  0.35602205714E+03  0.99999687468E+00 0.  0.
          4    1    3    3  501    0 -0.73453374527E+02  0.13243433129E+03  0.13156759249E+02  0.15201102147E+03  0.00000000000E+00 0.  1.
   -9000007    1    1    2    0  502  0.24479523931E+03  0.15414414141E+03  0.12961113369E+04  0.13869353709E+04  0.40000000000E+03 0.  1.
<mgrwt>
<rscale>  2 0.49255326E+03</rscale>
<asrwt>0</asrwt>
<pdfrwt beam="1">  1       21 0.25598384E+00 0.49364474E+03</pdfrwt>
<pdfrwt beam="2">  1       21 0.35549765E-01 0.49364474E+03</pdfrwt>
<totfact> 0.36794321E+02</totfact>
</mgrwt>
</event>
<event>
 6    1  0.9399121E-004  0.6259326E+03  0.7818608E-02  0.9853202E-01
         21   -1    0    0  503  502  0.00000000000E+00  0.00000000000E+00  0.32727051880E+03  0.32727051880E+03  0.00000000000E+00 0. -1.
         21   -1    0    0  501  503 -0.00000000000E+00 -0.00000000000E+00 -0.12809132646E+04  0.12809132646E+04  0.00000000000E+00 0.  1.
    9000007    2    1    2  501    0  0.23662605962E+03 -0.41928477721E+03 -0.68318729170E+03  0.92632032997E+03  0.39941565028E+03 0.  0.
    9000005    1    3    3    0    0  0.75232162484E+02  0.31811455910E+02 -0.30555543178E+03  0.31628621356E+03  0.99999687468E+00 0.  0.
          4    1    3    3  501    0  0.16139389714E+03 -0.45109623312E+03 -0.37763185991E+03  0.61003411641E+03  0.00000000000E+00 0.  1.
   -9000007    1    1    2    0  502 -0.23662605962E+03  0.41928477721E+03 -0.27045545412E+03  0.68186345345E+03  0.40000000000E+03 0. -1.
<mgrwt>
<rscale>  2 0.62583926E+03</rscale>
<asrwt>0</asrwt>
<pdfrwt beam="1">  1       21 0.50349310E-01 0.62593260E+03</pdfrwt>
<pdfrwt beam="2">  1       21 0.19706358E+00 0.62593260E+03</pdfrwt>
<totfact> 0.40231282E+02</totfact>
</mgrwt>
</event>
<event>
 6    1  0.9399121E-004  0.4833247E+03  0.7818608E-02  0.1018230E+00
         21   -1    0    0  503  502  0.00000000000E+00  0.00000000000E+00  0.90886495512E+03  0.90886495512E+03  0.00000000000E+00 0. -1.
         21   -1    0    0  501  503 -0.00000000000E+00 -0.00000000000E+00 -0.27325722820E+03  0.27325722820E+03  0.00000000000E+00 0.  1.
    9000007    2    1    2  501    0  0.25804403082E+03 -0.83370896431E+02  0.17361642916E+03  0.51356149991E+03  0.40008164354E+03 0.  0.
    9000005    1    3    3    0    0 -0.67803853529E+02  0.56796733448E+02  0.12847959543E+03  0.15598473618E+03  0.99999687468E+00 0.  0.
          4    1    3    3  501    0  0.32584788435E+03 -0.14016762988E+03  0.45136833731E+02  0.35757676373E+03  0.00000000000E+00 0.  1.
   -9000007    1    1    2    0  502 -0.25804403082E+03  0.83370896431E+02  0.46199129775E+03  0.66856068342E+03  0.40000000000E+03 0. -1.
<mgrwt>
<rscale>  2 0.48330779E+03</rscale>
<asrwt>0</asrwt>
<pdfrwt beam="1">  1       21 0.13982538E+00 0.48332468E+03</pdfrwt>
<pdfrwt beam="2">  1       21 0.42039574E-01 0.48332468E+03</pdfrwt>
<totfact> 0.16498071E+03</totfact>
</mgrwt>
</event>
<event>
 6    1  0.9399121E-004  0.4019415E+03  0.7818608E-02  0.1043202E+00
         21   -1    0    0  503  502  0.00000000000E+00  0.00000000000E+00  0.46291415919E+03  0.46291415919E+03  0.00000000000E+00 0. -1.
         21   -1    0    0  501  503 -0.00000000000E+00 -0.00000000000E+00 -0.40221599673E+03  0.40221599673E+03  0.00000000000E+00 0. -1.
    9000007    2    1    2  501    0  0.14151149756E+02 -0.22162026520E+02 -0.12833407032E+03  0.42193201119E+03  0.40108051312E+03 0.  0.
    9000005    1    3    3    0    0  0.12570080735E+02  0.18428790487E+03 -0.10922086042E+03  0.21459318525E+03  0.99999687468E+00 0.  0.
          4    1    3    3  501    0  0.15810690211E+01 -0.20644993139E+03 -0.19113209899E+02  0.20733882594E+03  0.00000000000E+00 0.  1.
   -9000007    1    1    2    0  502 -0.14151149756E+02  0.22162026520E+02  0.18903223278E+03  0.44319814473E+03  0.40000000000E+03 0. -1.
<mgrwt>
<rscale>  2 0.40167170E+03</rscale>
<asrwt>0</asrwt>
<pdfrwt beam="1">  1       21 0.71217563E-01 0.40194152E+03</pdfrwt>
<pdfrwt beam="2">  1       21 0.61879384E-01 0.40194152E+03</pdfrwt>
<totfact> 0.38510457E+03</totfact>
</mgrwt>
</event>
<event>
 6    1  0.9399121E-004  0.4126828E+03  0.7818608E-02  0.1039543E+00
         21   -1    0    0  503  502  0.00000000000E+00  0.00000000000E+00  0.97656713666E+03  0.97656713666E+03  0.00000000000E+00 0.  1.
         21   -1    0    0  501  503 -0.00000000000E+00 -0.00000000000E+00 -0.46751117925E+03  0.46751117925E+03  0.00000000000E+00 0.  1.
    9000007    2    1    2  501    0 -0.10007108558E+03  0.17113022846E+02  0.82649623374E+03  0.92342929136E+03  0.39914728363E+03 0.  0.
    9000005    1    3    3    0    0 -0.20357594705E+03 -0.11762948677E+03  0.39491757071E+03  0.45960934502E+03  0.99999687468E+00 0.  0.
          4    1    3    3  501    0  0.10350486147E+03  0.13474250961E+03  0.43157866303E+03  0.46381994635E+03  0.00000000000E+00 0.  1.
   -9000007    1    1    2    0  502  0.10007108558E+03 -0.17113022846E+02 -0.31744027634E+03  0.52064902455E+03  0.40000000000E+03 0.  1.
<mgrwt>
<rscale>  2 0.41247601E+03</rscale>
<asrwt>0</asrwt>
<pdfrwt beam="1">  1       21 0.15024110E+00 0.41268278E+03</pdfrwt>
<pdfrwt beam="2">  1       21 0.71924797E-01 0.41268278E+03</pdfrwt>
<totfact> 0.43923591E+02</totfact>
</mgrwt>
</event>
<event>
 6    1  0.9399121E-004  0.4016737E+03  0.7818608E-02  0.1043255E+00
         21   -1    0    0  503  502  0.00000000000E+00  0.00000000000E+00  0.19752725621E+04  0.19752725621E+04  0.00000000000E+00 0.  1.
         21   -1    0    0  501  503 -0.00000000000E+00 -0.00000000000E+00 -0.12193283126E+03  0.12193283126E+03  0.00000000000E+00 0.  1.
    9000007    2    1    2  501    0 -0.35711599413E+02 -0.81523189956E+01  0.32277704709E+03  0.51481356213E+03  0.39938227675E+03 0.  0.
    9000005    1    3    3    0    0 -0.96226207363E+02  0.17749373732E+03  0.12824706170E+03  0.23918992161E+03  0.99999687468E+00 0.  0.
          4    1    3    3  501    0  0.60514607950E+02 -0.18564605631E+03  0.19452998538E+03  0.27562364052E+03  0.00000000000E+00 0.  1.
   -9000007    1    1    2    0  502  0.35711599413E+02  0.81523189956E+01  0.15305626838E+04  0.15823918313E+04  0.40000000000E+03 0.  1.
<mgrwt>
<rscale>  2 0.40151985E+03</rscale>
<asrwt>0</asrwt>
<pdfrwt beam="1">  1       21 0.30388806E+00 0.40167372E+03</pdfrwt>
<pdfrwt beam="2">  1       21 0.18758899E-01 0.40167372E+03</pdfrwt>
<totfact> 0.69467523E+02</totfact>
</mgrwt>
</event>
<event>
 6    1  0.9399121E-004  0.4267445E+03  0.7818608E-02  0.1034900E+00
         21   -1    0    0  503  502  0.00000000000E+00  0.00000000000E+00  0.31340681326E+03  0.31340681326E+03  0.00000000000E+00 0. -1.
         21   -1    0    0  501  503 -0.00000000000E+00 -0.00000000000E+00 -0.58343211943E+03  0.58343211943E+03  0.00000000000E+00 0. -1.
    9000007    2    1    2  501    0 -0.78419323135E+02  0.12603754486E+03 -0.16428848843E+03  0.45727627779E+03  0.40009478108E+03 0.  0.
    9000005    1    3    3    0    0 -0.13988631406E+03  0.16714943761E+03 -0.25810091427E+03  0.33782273058E+03  0.99999687468E+00 0.  0.
          4    1    3    3  501    0  0.61466990923E+02 -0.41111892751E+02  0.93812425847E+02  0.11945354721E+03  0.00000000000E+00 0.  1.
   -9000007    1    1    2    0  502  0.78419323135E+02 -0.12603754486E+03 -0.10573681774E+03  0.43956265490E+03  0.40000000000E+03 0. -1.
<mgrwt>
<rscale>  2 0.42672230E+03</rscale>
<asrwt>0</asrwt>
<pdfrwt beam="1">  1       21 0.48216433E-01 0.42674452E+03</pdfrwt>
<pdfrwt beam="2">  1       21 0.89758787E-01 0.42674452E+03</pdfrwt>
<totfact> 0.38294994E+03</totfact>
</mgrwt>
</event>
<event>
 6    1  0.9399121E-004  0.4452324E+03  0.7818608E-02  0.1029172E+00
         21   -1    0    0  503  502  0.00000000000E+00  0.00000000000E+00  0.63703107295E+03  0.63703107295E+03  0.00000000000E+00 0.  1.
         21   -1    0    0  501  503 -0.00000000000E+00 -0.00000000000E+00 -0.32644383191E+03  0.32644383191E+03  0.00000000000E+00 0. -1.
    9000007    2    1    2  501    0  0.69288587068E+01 -0.19483211236E+03  0.50570359708E+02  0.44809510348E+03  0.40028027605E+03 0.  0.
    9000005    1    3    3    0    0  0.79540185576E+02 -0.10659088313E+03  0.21202698722E+03  0.25028923427E+03  0.99999687468E+00 0.  0.
          4    1    3    3  501    0 -0.72611326869E+02 -0.88241229232E+02 -0.16145662751E+03  0.19780586921E+03  0.00000000000E+00 0.  1.
   -9000007    1    1    2    0  502 -0.69288587068E+01  0.19483211236E+03  0.26001688133E+03  0.51537980138E+03  0.40000000000E+03 0.  1.
<mgrwt>
<rscale>  2 0.44516936E+03</rscale>
<asrwt>0</asrwt>
<pdfrwt beam="1">  1       21 0.98004780E-01 0.44523237E+03</pdfrwt>
<pdfrwt beam="2">  1       21 0.50222128E-01 0.44523237E+03</pdfrwt>
<totfact> 0.28283506E+03</totfact>
</mgrwt>
</event>
<event>
 6    1  0.9399121E-004  0.5725980E+03  0.7818608E-02  0.9964055E-01
         21   -1    0    0  503  502  0.00000000000E+00  0.00000000000E+00  0.38357457718E+03  0.38357457718E+03  0.00000000000E+00 0. -1.
         21   -1    0    0  501  503 -0.00000000000E+00 -0.00000000000E+00 -0.86364435760E+03  0.86364435760E+03  0.00000000000E+00 0. -1.
    9000007    2    1    2  501    0 -0.34395229964E+03  0.22263250038E+03 -0.30424864878E+03  0.64823522466E+03  0.39971646394E+03 0.  0.
    9000005    1    3    3    0    0 -0.80155233609E+02  0.28815729114E+03 -0.13603385190E+03  0.32858133661E+03  0.99999687468E+00 0.  0.
          4    1    3    3  501    0 -0.26379706603E+03 -0.65524790764E+02 -0.16821479688E+03  0.31965388804E+03  0.00000000000E+00 0.  1.
   -9000007    1    1    2    0  502  0.34395229964E+03 -0.22263250038E+03 -0.17582113164E+03  0.59898371012E+03  0.40000000000E+03 0. -1.
<mgrwt>
<rscale>  2 0.57254844E+03</rscale>
<asrwt>0</asrwt>
<pdfrwt beam="1">  1       21 0.59011474E-01 0.57259795E+03</pdfrwt>
<pdfrwt beam="2">  1       21 0.13286836E+00 0.57259795E+03</pdfrwt>
<totfact> 0.88754204E+02</totfact>
</mgrwt>
</event>
<event>
 6    1  0.9399121E-004  0.4888257E+03  0.7818608E-02  0.1016740E+00
         21   -1    0    0  503  502  0.00000000000E+00  0.00000000000E+00  0.42341431823E+03  0.42341431823E+03  0.00000000000E+00 0.  1.
         21   -1    0    0  501  503 -0.00000000000E+00 -0.00000000000E+00 -0.63544791353E+03  0.63544791353E+03  0.00000000000E+00 0.  1.
    9000007    2    1    2  501    0  0.96933567917E+01  0.28081419718E+03 -0.28316897011E+03  0.56488772224E+03  0.39995362057E+03 0.  0.
    9000005    1    3    3    0    0  0.22777383836E+02 -0.41500324325E+02 -0.23380615155E+03  0.23855272505E+03  0.99999687468E+00 0.  0.
          4    1    3    3  501    0 -0.13084027044E+02  0.32231452150E+03 -0.49362818558E+02  0.32633499719E+03  0.00000000000E+00 0.  1.
   -9000007    1    1    2    0  502 -0.96933567917E+01 -0.28081419718E+03  0.71135374817E+02  0.49397450952E+03  0.40000000000E+03 0.  1.
<mgrwt>
<rscale>  2 0.48881622E+03</rscale>
<asrwt>0</asrwt>
<pdfrwt beam="1">  1       21 0.65140665E-01 0.48882571E+03</pdfrwt>
<pdfrwt beam="2">  1       21 0.97761216E-01 0.48882571E+03</pdfrwt>
<totfact> 0.15903488E+03</totfact>
</mgrwt>
</event>
<event>
 6    1  0.9399121E-004  0.4103026E+03  0.7818608E-02  0.1040288E+00
         21   -1    0    0  503  502  0.00000000000E+00  0.00000000000E+00  0.18275417492E+03  0.18275417492E+03  0.00000000000E+00 0. -1.
         21   -1    0    0  501  503 -0.00000000000E+00 -0.00000000000E+00 -0.10614925967E+04  0.10614925967E+04  0.00000000000E+00 0. -1.
    9000007    2    1    2  501    0  0.90304191214E+02  0.33888986475E+01 -0.66606487335E+03  0.78229832236E+03  0.40022733298E+03 0.  0.
    9000005    1    3    3    0    0  0.90712509037E+02  0.17961914031E+03 -0.50475542945E+03  0.54338829433E+03  0.99999687468E+00 0.  0.
          4    1    3    3  501    0 -0.40831782286E+00 -0.17623024166E+03 -0.16130944390E+03  0.23891002803E+03  0.00000000000E+00 0.  1.
   -9000007    1    1    2    0  502 -0.90304191214E+02 -0.33888986475E+01 -0.21267354844E+03  0.46194844928E+03  0.40000000000E+03 0. -1.
<mgrwt>
<rscale>  2 0.41024718E+03</rscale>
<asrwt>0</asrwt>
<pdfrwt beam="1">  1       21 0.28116027E-01 0.41030263E+03</pdfrwt>
<pdfrwt beam="2">  1       21 0.16330655E+00 0.41030263E+03</pdfrwt>
<totfact> 0.25074825E+03</totfact>
</mgrwt>
</event>
<event>
 6    1  0.9399121E-004  0.4132186E+03  0.7818608E-02  0.1039379E+00
         21   -1    0    0  503  502  0.00000000000E+00  0.00000000000E+00  0.25165020508E+03  0.25165020508E+03  0.00000000000E+00 0.  1.
         21   -1    0    0  501  503 -0.00000000000E+00 -0.00000000000E+00 -0.67741570349E+03  0.67741570349E+03  0.00000000000E+00 0.  1.
    9000007    2    1    2  501    0 -0.33021338053E+00  0.99652200014E+02 -0.20021670516E+03  0.45916918785E+03  0.40102237349E+03 0.  0.
    9000005    1    3    3    0    0 -0.15504182985E+03  0.43443909293E+02  0.41916736297E+02  0.16638315730E+03  0.99999687468E+00 0.  0.
          4    1    3    3  501    0  0.15471161647E+03  0.56208290720E+02 -0.24213344145E+03  0.29278603055E+03  0.00000000000E+00 0.  1.
   -9000007    1    1    2    0  502  0.33021338053E+00 -0.99652200014E+02 -0.22554879325E+03  0.46989672072E+03  0.40000000000E+03 0.  1.
<mgrwt>
<rscale>  2 0.41297035E+03</rscale>
<asrwt>0</asrwt>
<pdfrwt beam="1">  1       21 0.38715416E-01 0.41321860E+03</pdfrwt>
<pdfrwt beam="2">  1       21 0.10421780E+00 0.41321860E+03</pdfrwt>
<totfact> 0.42411760E+03</totfact>
</mgrwt>
</event>
<event>
 6    1  0.9399121E-004  0.4013347E+03  0.7818608E-02  0.1043377E+00
         21   -1    0    0  503  502  0.00000000000E+00  0.00000000000E+00  0.23206767835E+04  0.23206767835E+04  0.00000000000E+00 0.  1.
         21   -1    0    0  501  503 -0.00000000000E+00 -0.00000000000E+00 -0.77817685722E+02  0.77817685722E+02  0.00000000000E+00 0.  1.
    9000007    2    1    2  501    0 -0.17599294351E+01  0.22815366696E+02  0.15193043567E+04  0.15714182324E+04  0.40068178680E+03 0.  0.
    9000005    1    3    3    0    0 -0.11195558955E+03  0.17479126546E+03  0.66105073817E+03  0.69287453333E+03  0.99999687468E+00 0.  0.
          4    1    3    3  501    0  0.11019566011E+03 -0.15197589876E+03  0.85825361856E+03  0.87854369902E+03  0.00000000000E+00 0.  1.
   -9000007    1    1    2    0  502  0.17599294351E+01 -0.22815366696E+02  0.72355474107E+03  0.82707623690E+03  0.40000000000E+03 0. -1.
<mgrwt>
<rscale>  2 0.40116441E+03</rscale>
<asrwt>0</asrwt>
<pdfrwt beam="1">  1       21 0.35702714E+00 0.40133469E+03</pdfrwt>
<pdfrwt beam="2">  1       21 0.11971953E-01 0.40133469E+03</pdfrwt>
<totfact> 0.76172609E+02</totfact>
</mgrwt>
</event>
<event>
 6    1  0.9399121E-004  0.5096856E+03  0.7818608E-02  0.1011288E+00
         21   -1    0    0  503  502  0.00000000000E+00  0.00000000000E+00  0.32286026296E+03  0.32286026296E+03  0.00000000000E+00 0.  1.
         21   -1    0    0  501  503 -0.00000000000E+00 -0.00000000000E+00 -0.99763374207E+03  0.99763374207E+03  0.00000000000E+00 0.  1.
    9000007    2    1    2  501    0 -0.81759857211E+02  0.30494077182E+03 -0.62795102320E+03  0.80876566798E+03  0.40013231512E+03 0.  0.
    9000005    1    3    3    0    0 -0.16184555784E+03  0.34833768689E+03 -0.36260314189E+03  0.52821886298E+03  0.99999687468E+00 0.  0.
          4    1    3    3  501    0  0.80085700628E+02 -0.43396915076E+02 -0.26534788130E+03  0.28054680500E+03  0.00000000000E+00 0.  1.
   -9000007    1    1    2    0  502  0.81759857211E+02 -0.30494077182E+03 -0.46822455917E+02  0.51172833706E+03  0.40000000000E+03 0.  1.
<mgrwt>
<rscale>  2 0.50965964E+03</rscale>
<asrwt>0</asrwt>
<pdfrwt beam="1">  1       21 0.49670811E-01 0.50968561E+03</pdfrwt>
<pdfrwt beam="2">  1       21 0.15348211E+00 0.50968561E+03</pdfrwt>
<totfact> 0.89372092E+02</totfact>
</mgrwt>
</event>
<event>
 6    1  0.9399121E-004  0.4261129E+03  0.7818608E-02  0.1035180E+00
         21   -1    0    0  503  502  0.00000000000E+00  0.00000000000E+00  0.19697144893E+03  0.19697144893E+03  0.00000000000E+00 0.  1.
         21   -1    0    0  501  503 -0.00000000000E+00 -0.00000000000E+00 -0.14047869707E+04  0.14047869707E+04  0.00000000000E+00 0.  1.
    9000007    2    1    2  501    0  0.39941712509E+02  0.13809187517E+03 -0.10751137756E+04  0.11564782159E+04  0.40113280477E+03 0.  0.
    9000005    1    3    3    0    0 -0.12226797587E+03  0.17598971907E+02 -0.82847729564E+03  0.83763644328E+03  0.99999687468E+00 0.  0.
          4    1    3    3  501    0  0.16220968838E+03  0.12049290326E+03 -0.24663647997E+03  0.31884177265E+03  0.00000000000E+00 0.  1.
   -9000007    1    1    2    0  502 -0.39941712509E+02 -0.13809187517E+03 -0.13270174621E+03  0.44528020373E+03  0.40000000000E+03 0.  1.
<mgrwt>
<rscale>  2 0.42584613E+03</rscale>
<asrwt>0</asrwt>
<pdfrwt beam="1">  1       21 0.30303300E-01 0.42611294E+03</pdfrwt>
<pdfrwt beam="2">  1       21 0.21612107E+00 0.42611294E+03</pdfrwt>
<totfact> 0.93170332E+02</totfact>
</mgrwt>
</event>
<event>
 6    1  0.9399121E-004  0.4331215E+03  0.7818608E-02  0.1032916E+00
         21   -1    0    0  503  502  0.00000000000E+00  0.00000000000E+00  0.55995590794E+03  0.55995590794E+03  0.00000000000E+00 0.  1.
         21   -1    0    0  501  503 -0.00000000000E+00 -0.00000000000E+00 -0.34421768579E+03  0.34421768579E+03  0.00000000000E+00 0.  1.
    9000007    2    1    2  501    0 -0.15817368436E+03  0.46485919907E+02  0.32539519144E+02  0.43434211334E+03  0.40051765997E+03 0.  0.
    9000005    1    3    3    0    0  0.11976024439E+03  0.66578698804E+02 -0.46481174247E+02  0.14469533104E+03  0.99999687468E+00 0.  0.
          4    1    3    3  501    0 -0.27793392875E+03 -0.20092778897E+02  0.79020693391E+02  0.28964678230E+03  0.00000000000E+00 0.  1.
   -9000007    1    1    2    0  502  0.15817368436E+03 -0.46485919907E+02  0.18319870301E+03  0.46983148038E+03  0.40000000000E+03 0.  1.
<mgrwt>
<rscale>  2 0.43300181E+03</rscale>
<asrwt>0</asrwt>
<pdfrwt beam="1">  1       21 0.86147063E-01 0.43312152E+03</pdfrwt>
<pdfrwt beam="2">  1       21 0.52956567E-01 0.43312152E+03</pdfrwt>
<totfact> 0.34470253E+03</totfact>
</mgrwt>
</event>
<event>
 6    1  0.9399121E-004  0.4042378E+03  0.7818608E-02  0.1042337E+00
         21   -1    0    0  503  502  0.00000000000E+00  0.00000000000E+00  0.88558803006E+03  0.88558803006E+03  0.00000000000E+00 0.  1.
         21   -1    0    0  501  503 -0.00000000000E+00 -0.00000000000E+00 -0.23983790064E+03  0.23983790064E+03  0.00000000000E+00 0.  1.
    9000007    2    1    2  501    0  0.45946814488E+02 -0.34018834515E+02  0.52487003825E+02  0.40763102472E+03  0.40017468170E+03 0.  0.
    9000005    1    3    3    0    0  0.20457005617E+03 -0.67661173966E+02  0.10157377738E+03  0.23821245683E+03  0.99999687468E+00 0.  0.
          4    1    3    3  501    0 -0.15862324168E+03  0.33642339450E+02 -0.49086773556E+02  0.16941856788E+03  0.00000000000E+00 0.  1.
   -9000007    1    1    2    0  502 -0.45946814488E+02  0.34018834515E+02  0.59326312560E+03  0.71779490599E+03  0.40000000000E+03 0. -1.
<mgrwt>
<rscale>  2 0.40419452E+03</rscale>
<asrwt>0</asrwt>
<pdfrwt beam="1">  1       21 0.13624431E+00 0.40423776E+03</pdfrwt>
<pdfrwt beam="2">  1       21 0.36898139E-01 0.40423776E+03</pdfrwt>
<totfact> 0.23842593E+03</totfact>
</mgrwt>
</event>
<event>
 6    1  0.9399121E-004  0.4359703E+03  0.7818608E-02  0.1032133E+00
         21   -1    0    0  503  502  0.00000000000E+00  0.00000000000E+00  0.11969382172E+04  0.11969382172E+04  0.00000000000E+00 0. -1.
         21   -1    0    0  501  503 -0.00000000000E+00 -0.00000000000E+00 -0.19291882737E+03  0.19291882737E+03  0.00000000000E+00 0. -1.
    9000007    2    1    2  501    0 -0.17300138920E+03 -0.11859979053E+02  0.20604039485E+03  0.48054927699E+03  0.39800103459E+03 0.  0.
    9000005    1    3    3    0    0 -0.70906801098E+01  0.15379148058E+03  0.19140927774E+03  0.24564325523E+03  0.99999687468E+00 0.  0.
          4    1    3    3  501    0 -0.16591070909E+03 -0.16565145963E+03  0.14631117115E+02  0.23490602176E+03  0.00000000000E+00 0.  1.
   -9000007    1    1    2    0  502  0.17300138920E+03  0.11859979053E+02  0.79797899495E+03  0.90930776756E+03  0.40000000000E+03 0.  1.
<mgrwt>
<rscale>  2 0.43551129E+03</rscale>
<asrwt>0</asrwt>
<pdfrwt beam="1">  1       21 0.18414434E+00 0.43597034E+03</pdfrwt>
<pdfrwt beam="2">  1       21 0.29679820E-01 0.43597034E+03</pdfrwt>
<totfact> 0.15788532E+03</totfact>
</mgrwt>
</event>
<event>
 6    1  0.9399121E-004  0.5969314E+03  0.7818608E-02  0.9912064E-01
         21   -1    0    0  503  502  0.00000000000E+00  0.00000000000E+00  0.32983236821E+03  0.32983236821E+03  0.00000000000E+00 0.  1.
         21   -1    0    0  501  503 -0.00000000000E+00 -0.00000000000E+00 -0.11642534867E+04  0.11642534867E+04  0.00000000000E+00 0.  1.
    9000007    2    1    2  501    0 -0.43451046069E+03 -0.83112323570E+02 -0.61907069425E+03  0.85998585964E+03  0.40077444470E+03 0.  0.
    9000005    1    3    3    0    0  0.52380339549E+02 -0.92103407620E+02 -0.75046861465E+02  0.12984517348E+03  0.99999687468E+00 0.  0.
          4    1    3    3  501    0 -0.48689080023E+03  0.89910840499E+01 -0.54402383279E+03  0.73014068616E+03  0.00000000000E+00 0.  1.
   -9000007    1    1    2    0  502  0.43451046069E+03  0.83112323570E+02 -0.21535042423E+03  0.63409999526E+03  0.40000000000E+03 0.  1.
<mgrwt>
<rscale>  2 0.59680149E+03</rscale>
<asrwt>0</asrwt>
<pdfrwt beam="1">  1       21 0.50743441E-01 0.59693145E+03</pdfrwt>
<pdfrwt beam="2">  1       21 0.17911592E+00 0.59693145E+03</pdfrwt>
<totfact> 0.53292210E+02</totfact>
</mgrwt>
</event>
<event>
 6    1  0.9399121E-004  0.4532898E+03  0.7818608E-02  0.1026811E+00
         21   -1    0    0  503  502  0.00000000000E+00  0.00000000000E+00  0.12223701336E+03  0.12223701336E+03  0.00000000000E+00 0.  1.
         21   -1    0    0  501  503 -0.00000000000E+00 -0.00000000000E+00 -0.21796109573E+04  0.21796109573E+04  0.00000000000E+00 0.  1.
    9000007    2    1    2  501    0 -0.20629851613E+03  0.53967884324E+02 -0.15802308689E+04  0.16437164304E+04  0.39900187220E+03 0.  0.
    9000005    1    3    3    0    0 -0.13080349300E+03  0.46894172718E+02 -0.12620887833E+03  0.18771866763E+03  0.99999687468E+00 0.  0.
          4    1    3    3  501    0 -0.75495023137E+02  0.70737116058E+01 -0.14540219906E+04  0.14559977627E+04  0.00000000000E+00 0.  1.
   -9000007    1    1    2    0  502  0.20629851613E+03 -0.53967884324E+02 -0.47714307502E+03  0.65813154030E+03  0.40000000000E+03 0.  1.
<mgrwt>
<rscale>  2 0.45306947E+03</rscale>
<asrwt>0</asrwt>
<pdfrwt beam="1">  1       21 0.18805694E-01 0.45328976E+03</pdfrwt>
<pdfrwt beam="2">  1       21 0.33532476E+00 0.45328976E+03</pdfrwt>
<totfact> 0.43313088E+02</totfact>
</mgrwt>
</event>
<event>
 6    1  0.9399121E-004  0.4709449E+03  0.7818608E-02  0.1021660E+00
         21   -1    0    0  503  502  0.00000000000E+00  0.00000000000E+00  0.34334956113E+03  0.34334956113E+03  0.00000000000E+00 0.  1.
         21   -1    0    0  501  503 -0.00000000000E+00 -0.00000000000E+00 -0.65655712281E+03  0.65655712281E+03  0.00000000000E+00 0. -1.
    9000007    2    1    2  501    0  0.52890975407E+02 -0.24288186193E+03 -0.92722578836E+02  0.47990410531E+03  0.39990176235E+03 0.  0.
    9000005    1    3    3    0    0  0.13357731466E+03  0.66927150034E+02 -0.12937491000E+02  0.14996840024E+03  0.99999687468E+00 0.  0.
          4    1    3    3  501    0 -0.80686339250E+02 -0.30980901197E+03 -0.79785087837E+02  0.32993570507E+03  0.00000000000E+00 0.  1.
   -9000007    1    1    2    0  502 -0.52890975407E+02  0.24288186193E+03 -0.22048498284E+03  0.52000257864E+03  0.40000000000E+03 0. -1.
<mgrwt>
<rscale>  2 0.47092399E+03</rscale>
<asrwt>0</asrwt>
<pdfrwt beam="1">  1       21 0.52823010E-01 0.47094485E+03</pdfrwt>
<pdfrwt beam="2">  1       21 0.10100879E+00 0.47094485E+03</pdfrwt>
<totfact> 0.23378627E+03</totfact>
</mgrwt>
</event>
<event>
 6    1  0.9399121E-004  0.4189461E+03  0.7818608E-02  0.1037417E+00
         21   -1    0    0  503  502  0.00000000000E+00  0.00000000000E+00  0.96597306849E+03  0.96597306849E+03  0.00000000000E+00 0. -1.
         21   -1    0    0  501  503 -0.00000000000E+00 -0.00000000000E+00 -0.23134102654E+03  0.23134102654E+03  0.00000000000E+00 0. -1.
    9000007    2    1    2  501    0  0.37531454291E+02 -0.11877376337E+03  0.89863444372E+02  0.42839123716E+03  0.39990973546E+03 0.  0.
    9000005    1    3    3    0    0 -0.61220592919E+02 -0.10937319766E+03 -0.13402847465E+03  0.18350773655E+03  0.99999687468E+00 0.  0.
          4    1    3    3  501    0  0.98752047209E+02 -0.94005657128E+01  0.22389191902E+03  0.24488350060E+03  0.00000000000E+00 0.  1.
   -9000007    1    1    2    0  502 -0.37531454291E+02  0.11877376337E+03  0.64476859758E+03  0.76892285787E+03  0.40000000000E+03 0. -1.
<mgrwt>
<rscale>  2 0.41892453E+03</rscale>
<asrwt>0</asrwt>
<pdfrwt beam="1">  1       21 0.14861124E+00 0.41894608E+03</pdfrwt>
<pdfrwt beam="2">  1       21 0.35590928E-01 0.41894608E+03</pdfrwt>
<totfact> 0.20221462E+03</totfact>
</mgrwt>
</event>
<event>
 6    1  0.9399121E-004  0.6124253E+03  0.7818608E-02  0.9880633E-01
         21   -1    0    0  503  502  0.00000000000E+00  0.00000000000E+00  0.28416333297E+03  0.28416333297E+03  0.00000000000E+00 0.  1.
         21   -1    0    0  501  503 -0.00000000000E+00 -0.00000000000E+00 -0.16033570379E+04  0.16033570379E+04  0.00000000000E+00 0. -1.
    9000007    2    1    2  501    0  0.46198582122E+03  0.10605890597E+01 -0.10590173538E+04  0.12233488889E+04  0.40203572527E+03 0.  0.
    9000005    1    3    3    0    0  0.47160361809E+03  0.12517868622E+03 -0.84383077882E+03  0.97474666420E+03  0.99999687468E+00 0.  0.
          4    1    3    3  501    0 -0.96177968767E+01 -0.12411809716E+03 -0.21518657498E+03  0.24860222467E+03  0.00000000000E+00 0.  1.
   -9000007    1    1    2    0  502 -0.46198582122E+03 -0.10605890597E+01 -0.26017635118E+03  0.66417148205E+03  0.40000000000E+03 0.  1.
<mgrwt>
<rscale>  2 0.61209141E+03</rscale>
<asrwt>0</asrwt>
<pdfrwt beam="1">  1       21 0.43717436E-01 0.61242530E+03</pdfrwt>
<pdfrwt beam="2">  1       21 0.24667031E+00 0.61242530E+03</pdfrwt>
<totfact> 0.26014941E+02</totfact>
</mgrwt>
</event>
<event>
 6    1  0.9399121E-004  0.4265211E+03  0.7818608E-02  0.1034980E+00
         21   -1    0    0  503  502  0.00000000000E+00  0.00000000000E+00  0.31586667790E+03  0.31586667790E+03  0.00000000000E+00 0.  1.
         21   -1    0    0  501  503 -0.00000000000E+00 -0.00000000000E+00 -0.59734062258E+03  0.59734062258E+03  0.00000000000E+00 0.  1.
    9000007    2    1    2  501    0 -0.18907189155E+02 -0.14626378850E+03 -0.53802459788E+02  0.42990110079E+03  0.40021203649E+03 0.  0.
    9000005    1    3    3    0    0  0.75737462841E+02  0.73806854803E+02 -0.13986837167E+03  0.17535043907E+03  0.99999687468E+00 0.  0.
          4    1    3    3  501    0 -0.94644651996E+02 -0.22007064330E+03  0.86065911882E+02  0.25455066172E+03  0.00000000000E+00 0.  1.
   -9000007    1    1    2    0  502  0.18907189155E+02  0.14626378850E+03 -0.22767148490E+03  0.48330619969E+03  0.40000000000E+03 0.  1.
<mgrwt>
<rscale>  2 0.42647136E+03</rscale>
<asrwt>0</asrwt>
<pdfrwt beam="1">  1       21 0.48594874E-01 0.42652110E+03</pdfrwt>
<pdfrwt beam="2">  1       21 0.91898557E-01 0.42652110E+03</pdfrwt>
<totfact> 0.35624497E+03</totfact>
</mgrwt>
</event>
<event>
 6    1  0.9399121E-004  0.4969628E+03  0.7818608E-02  0.1014590E+00
         21   -1    0    0  503  502  0.00000000000E+00  0.00000000000E+00  0.39378485807E+03  0.39378485807E+03  0.00000000000E+00 0. -1.
         21   -1    0    0  501  503 -0.00000000000E+00 -0.00000000000E+00 -0.11254886784E+04  0.11254886784E+04  0.00000000000E+00 0. -1.
    9000007    2    1    2  501    0  0.16534463261E+03  0.24374119181E+03 -0.87150187379E+03  0.10032385455E+04  0.40027921147E+03 0.  0.
    9000005    1    3    3    0    0  0.25390617496E+03  0.21555496201E+03 -0.39008338874E+03  0.51293112354E+03  0.99999687468E+00 0.  0.
          4    1    3    3  501    0 -0.88561542346E+02  0.28186229806E+02 -0.48141848505E+03  0.49030742201E+03  0.00000000000E+00 0.  1.
   -9000007    1    1    2    0  502 -0.16534463261E+03 -0.24374119181E+03  0.13979805345E+03  0.51603499093E+03  0.40000000000E+03 0. -1.
<mgrwt>
<rscale>  2 0.49690661E+03</rscale>
<asrwt>0</asrwt>
<pdfrwt beam="1">  1       21 0.60582286E-01 0.49696284E+03</pdfrwt>
<pdfrwt beam="2">  1       21 0.17315210E+00 0.49696284E+03</pdfrwt>
<totfact> 0.41622035E+02</totfact>
</mgrwt>
</event>
<event>
 6    1  0.9399121E-004  0.5644890E+03  0.7818608E-02  0.9982525E-01
         21   -1    0    0  503  502  0.00000000000E+00  0.00000000000E+00  0.11193017054E+04  0.11193017054E+04  0.00000000000E+00 0. -1.
         21   -1    0    0  501  503 -0.00000000000E+00 -0.00000000000E+00 -0.39828449599E+03  0.39828449599E+03  0.00000000000E+00 0. -1.
    9000007    2    1    2  501    0 -0.38184644906E+03 -0.10807921179E+03 -0.45423708825E+02  0.56631362856E+03  0.40144736378E+03 0.  0.
    9000005    1    3    3    0    0  0.21732271629E+01 -0.47910935213E+02 -0.15516781175E+03  0.16241376305E+03  0.99999687468E+00 0.  0.
          4    1    3    3  501    0 -0.38401967622E+03 -0.60168276580E+02  0.10974410293E+03  0.40389986551E+03  0.00000000000E+00 0.  1.
   -9000007    1    1    2    0  502  0.38184644906E+03  0.10807921179E+03  0.76644091822E+03  0.95127257282E+03  0.40000000000E+03 0. -1.
<mgrwt>
<rscale>  2 0.56423171E+03</rscale>
<asrwt>0</asrwt>
<pdfrwt beam="1">  1       21 0.17220026E+00 0.56448898E+03</pdfrwt>
<pdfrwt beam="2">  1       21 0.61274538E-01 0.56448898E+03</pdfrwt>
<totfact> 0.40132868E+02</totfact>
</mgrwt>
</event>
<event>
 6    1  0.9399121E-004  0.5475250E+03  0.7818608E-02  0.1002078E+00
         21   -1    0    0  503  502  0.00000000000E+00  0.00000000000E+00  0.44949012371E+03  0.44949012371E+03  0.00000000000E+00 0.  1.
         21   -1    0    0  501  503 -0.00000000000E+00 -0.00000000000E+00 -0.85535450504E+03  0.85535450504E+03  0.00000000000E+00 0.  1.
    9000007    2    1    2  501    0 -0.21240189217E+03  0.30768339536E+03  0.10345260396E+03  0.55705627160E+03  0.39978195667E+03 0.  0.
    9000005    1    3    3    0    0 -0.30824693405E+03  0.32207216457E+03  0.56546147403E+02  0.44938304188E+03  0.99999687468E+00 0.  0.
          4    1    3    3  501    0  0.95845041878E+02 -0.14388769210E+02  0.46906456555E+02  0.10767322972E+03  0.00000000000E+00 0.  1.
   -9000007    1    1    2    0  502  0.21240189217E+03 -0.30768339536E+03 -0.50931698529E+03  0.74778835715E+03  0.40000000000E+03 0.  1.
<mgrwt>
<rscale>  2 0.54748519E+03</rscale>
<asrwt>0</asrwt>
<pdfrwt beam="1">  1       21 0.69152327E-01 0.54752501E+03</pdfrwt>
<pdfrwt beam="2">  1       21 0.13159300E+00 0.54752501E+03</pdfrwt>
<totfact> 0.64502613E+02</totfact>
</mgrwt>
</event>
<event>
 6    1  0.9399121E-004  0.4330020E+03  0.7818608E-02  0.1032939E+00
         21   -1    0    0  503  502  0.00000000000E+00  0.00000000000E+00  0.18546218890E+03  0.18546218890E+03  0.00000000000E+00 0. -1.
         21   -1    0    0  501  503 -0.00000000000E+00 -0.00000000000E+00 -0.11879208405E+04  0.11879208405E+04  0.00000000000E+00 0. -1.
    9000007    2    1    2  501    0  0.27500769153E+02 -0.16271592044E+03 -0.76695000449E+03  0.88074006951E+03  0.40032236709E+03 0.  0.
    9000005    1    3    3    0    0 -0.20517962958E+01 -0.16150784629E+03 -0.81141542038E+03  0.82733607362E+03  0.99999687468E+00 0.  0.
          4    1    3    3  501    0  0.29552565449E+02 -0.12080741459E+01  0.44465415888E+02  0.53403995898E+02  0.00000000000E+00 0.  1.
   -9000007    1    1    2    0  502 -0.27500769153E+02  0.16271592044E+03 -0.23550864711E+03  0.49264295989E+03  0.40000000000E+03 0. -1.
<mgrwt>
<rscale>  2 0.43292751E+03</rscale>
<asrwt>0</asrwt>
<pdfrwt beam="1">  1       21 0.28532645E-01 0.43300203E+03</pdfrwt>
<pdfrwt beam="2">  1       21 0.18275705E+00 0.43300203E+03</pdfrwt>
<totfact> 0.17475903E+03</totfact>
</mgrwt>
</event>
<event>
 6    1  0.9399121E-004  0.4189143E+03  0.7818608E-02  0.1037423E+00
         21   -1    0    0  503  502  0.00000000000E+00  0.00000000000E+00  0.43646875518E+03  0.43646875518E+03  0.00000000000E+00 0. -1.
         21   -1    0    0  501  503 -0.00000000000E+00 -0.00000000000E+00 -0.43327120965E+03  0.43327120965E+03  0.00000000000E+00 0.  1.
    9000007    2    1    2  501    0 -0.92568239102E+02  0.83188420273E+02  0.11835871020E+03  0.43528480488E+03  0.39996860492E+03 0.  0.
    9000005    1    3    3    0    0 -0.76351877070E+02  0.14060329448E+03  0.24653501873E+03  0.29390374446E+03  0.99999687468E+00 0.  0.
          4    1    3    3  501    0 -0.16216362032E+02 -0.57414874205E+02 -0.12817630853E+03  0.14138106042E+03  0.00000000000E+00 0.  1.
   -9000007    1    1    2    0  502  0.92568239102E+02 -0.83188420273E+02 -0.11516116466E+03  0.43445515995E+03  0.40000000000E+03 0.  1.
<mgrwt>
<rscale>  2 0.41890681E+03</rscale>
<asrwt>0</asrwt>
<pdfrwt beam="1">  1       21 0.67149039E-01 0.41891430E+03</pdfrwt>
<pdfrwt beam="2">  1       21 0.66657109E-01 0.41891430E+03</pdfrwt>
<totfact> 0.37033851E+03</totfact>
</mgrwt>
</event>
<event>
 6    1  0.9399121E-004  0.4895079E+03  0.7818608E-02  0.1016562E+00
         21   -1    0    0  503  502  0.00000000000E+00  0.00000000000E+00  0.69329761140E+03  0.69329761140E+03  0.00000000000E+00 0.  1.
         21   -1    0    0  501  503 -0.00000000000E+00 -0.00000000000E+00 -0.84528266577E+03  0.84528266577E+03  0.00000000000E+00 0.  1.
    9000007    2    1    2  501    0  0.23819096785E+03 -0.15092543052E+03 -0.66750323532E+03  0.82775511045E+03  0.40013064239E+03 0.  0.
    9000005    1    3    3    0    0 -0.75203278830E+02 -0.15464878273E+03 -0.28944701580E+03  0.33667841347E+03  0.99999687468E+00 0.  0.
          4    1    3    3  501    0  0.31339424668E+03  0.37233522102E+01 -0.37805621951E+03  0.49107669698E+03  0.00000000000E+00 0.  1.
   -9000007    1    1    2    0  502 -0.23819096785E+03  0.15092543052E+03  0.51551818095E+03  0.71082516672E+03  0.40000000000E+03 0.  1.
<mgrwt>
<rscale>  2 0.48948117E+03</rscale>
<asrwt>0</asrwt>
<pdfrwt beam="1">  1       21 0.10666117E+00 0.48950787E+03</pdfrwt>
<pdfrwt beam="2">  1       21 0.13004349E+00 0.48950787E+03</pdfrwt>
<totfact> 0.24513649E+02</totfact>
</mgrwt>
</event>
<event>
 6    1  0.9399121E-004  0.5462054E+03  0.7818608E-02  0.1002388E+00
         21   -1    0    0  503  502  0.00000000000E+00  0.00000000000E+00  0.51626320945E+03  0.51626320945E+03  0.00000000000E+00 0. -1.
         21   -1    0    0  501  503 -0.00000000000E+00 -0.00000000000E+00 -0.84784194713E+03  0.84784194713E+03  0.00000000000E+00 0. -1.
    9000007    2    1    2  501    0  0.31141145317E+03 -0.20282716620E+03 -0.55083045058E+03  0.77572835034E+03  0.40028032142E+03 0.  0.
    9000005    1    3    3    0    0  0.34311697358E+02  0.51558132438E+02 -0.33780521862E+03  0.34343689277E+03  0.99999687468E+00 0.  0.
          4    1    3    3  501    0  0.27709975581E+03 -0.25438529863E+03 -0.21302523196E+03  0.43229145756E+03  0.00000000000E+00 0.  1.
   -9000007    1    1    2    0  502 -0.31141145317E+03  0.20282716620E+03  0.21925171290E+03  0.58837680624E+03  0.40000000000E+03 0. -1.
<mgrwt>
<rscale>  2 0.54615400E+03</rscale>
<asrwt>0</asrwt>
<pdfrwt beam="1">  1       21 0.79425109E-01 0.54620535E+03</pdfrwt>
<pdfrwt beam="2">  1       21 0.13043722E+00 0.54620535E+03</pdfrwt>
<totfact> 0.48112861E+02</totfact>
</mgrwt>
</event>
<event>
 6    1  0.9399121E-004  0.5581428E+03  0.7818608E-02  0.9996618E-01
         21   -1    0    0  503  502  0.00000000000E+00  0.00000000000E+00  0.18767153921E+03  0.18767153921E+03  0.00000000000E+00 0. -1.
         21   -1    0    0  501  503 -0.00000000000E+00 -0.00000000000E+00 -0.16633179727E+04  0.16633179727E+04  0.00000000000E+00 0. -1.
    9000007    2    1    2  501    0  0.83581061919E+02 -0.38018098120E+03 -0.68555446234E+03  0.88363813043E+03  0.39913412827E+03 0.  0.
    9000005    1    3    3    0    0  0.19545495707E+03 -0.38534814478E+03 -0.61379539914E+03  0.75062748745E+03  0.99999687468E+00 0.  0.
          4    1    3    3  501    0 -0.11187389515E+03  0.51671635812E+01 -0.71759063203E+02  0.13301064298E+03  0.00000000000E+00 0.  1.
   -9000007    1    1    2    0  502 -0.83581061919E+02  0.38018098120E+03 -0.79009197113E+03  0.96735138146E+03  0.40000000000E+03 0. -1.
<mgrwt>
<rscale>  2 0.55798767E+03</rscale>
<asrwt>0</asrwt>
<pdfrwt beam="1">  1       21 0.28872545E-01 0.55814279E+03</pdfrwt>
<pdfrwt beam="2">  1       21 0.25589507E+00 0.55814279E+03</pdfrwt>
<totfact> 0.54349042E+02</totfact>
</mgrwt>
</event>
<event>
 6    1  0.9399121E-004  0.5631639E+03  0.7818608E-02  0.9984927E-01
         21   -1    0    0  503  502  0.00000000000E+00  0.00000000000E+00  0.73586592721E+03  0.73586592721E+03  0.00000000000E+00 0.  1.
         21   -1    0    0  501  503 -0.00000000000E+00 -0.00000000000E+00 -0.44322698452E+03  0.44322698452E+03  0.00000000000E+00 0. -1.
    9000007    2    1    2  501    0  0.34101946434E+03 -0.20210931699E+03  0.24429461045E+03  0.61386762432E+03  0.40001394028E+03 0.  0.
    9000005    1    3    3    0    0  0.12462408614E+03 -0.93722022629E+02 -0.10567066390E+03  0.18836737927E+03  0.99999687468E+00 0.  0.
          4    1    3    3  501    0  0.21639537820E+03 -0.10838729436E+03  0.34996527435E+03  0.42550024505E+03  0.00000000000E+00 0.  1.
   -9000007    1    1    2    0  502 -0.34101946434E+03  0.20210931699E+03  0.48344332234E+02  0.56522528741E+03  0.40000000000E+03 0. -1.
<mgrwt>
<rscale>  2 0.56316145E+03</rscale>
<asrwt>0</asrwt>
<pdfrwt beam="1">  1       21 0.11321014E+00 0.56316392E+03</pdfrwt>
<pdfrwt beam="2">  1       21 0.68188767E-01 0.56316392E+03</pdfrwt>
<totfact> 0.97432385E+02</totfact>
</mgrwt>
</event>
<event>
 6    1  0.9399121E-004  0.4593641E+03  0.7818608E-02  0.1025138E+00
         21   -1    0    0  503  502  0.00000000000E+00  0.00000000000E+00  0.20049707006E+03  0.20049707006E+03  0.00000000000E+00 0. -1.
         21   -1    0    0  501  503 -0.00000000000E+00 -0.00000000000E+00 -0.12107847819E+04  0.12107847819E+04  0.00000000000E+00 0. -1.
    9000007    2    1    2  501    0  0.22011006468E+03 -0.20015413531E+02 -0.24678289668E+03  0.52145677919E+03  0.40269879205E+03 0.  0.
    9000005    1    3    3    0    0  0.25519933974E+03  0.13258023266E+03 -0.22117236305E+03  0.36279806404E+03  0.99999687468E+00 0.  0.
          4    1    3    3  501    0 -0.35089275066E+02 -0.15259564619E+03 -0.25610533627E+02  0.15865871515E+03  0.00000000000E+00 0.  1.
   -9000007    1    1    2    0  502 -0.22011006468E+03  0.20015413531E+02 -0.76350481519E+03  0.88982507279E+03  0.40000000000E+03 0. -1.
<mgrwt>
<rscale>  2 0.45877195E+03</rscale>
<asrwt>0</asrwt>
<pdfrwt beam="1">  1       21 0.30845703E-01 0.45936410E+03</pdfrwt>
<pdfrwt beam="2">  1       21 0.18627458E+00 0.45936410E+03</pdfrwt>
<totfact> 0.13992424E+03</totfact>
</mgrwt>
</event>
<event>
 6    1  0.9399121E-004  0.5246492E+03  0.7818608E-02  0.1007785E+00
         21   -1    0    0  503  502  0.00000000000E+00  0.00000000000E+00  0.24118738292E+03  0.24118738292E+03  0.00000000000E+00 0.  1.
         21   -1    0    0  501  503 -0.00000000000E+00 -0.00000000000E+00 -0.11792257616E+04  0.11792257616E+04  0.00000000000E+00 0.  1.
    9000007    2    1    2  501    0 -0.31063979375E+03 -0.12069800945E+03 -0.32945250456E+03  0.61951249079E+03  0.40520572866E+03 0.  0.
    9000005    1    3    3    0    0 -0.35069697637E+03 -0.11958309530E+02 -0.35680823650E+03  0.50044429063E+03  0.99999687468E+00 0.  0.
          4    1    3    3  501    0  0.40057182623E+02 -0.10873969992E+03  0.27355731939E+02  0.11906820015E+03  0.00000000000E+00 0.  1.
   -9000007    1    1    2    0  502  0.31063979375E+03  0.12069800945E+03 -0.60858587409E+03  0.80090065369E+03  0.40000000000E+03 0.  1.
<mgrwt>
<rscale>  2 0.52364379E+03</rscale>
<asrwt>0</asrwt>
<pdfrwt beam="1">  1       21 0.37105751E-01 0.52464919E+03</pdfrwt>
<pdfrwt beam="2">  1       21 0.18141935E+00 0.52464919E+03</pdfrwt>
<totfact> 0.10149047E+03</totfact>
</mgrwt>
</event>
<event>
 6    1  0.9399121E-004  0.4248790E+03  0.7818608E-02  0.1035491E+00
         21   -1    0    0  503  502  0.00000000000E+00  0.00000000000E+00  0.91972877261E+03  0.91972877261E+03  0.00000000000E+00 0.  1.
         21   -1    0    0  501  503 -0.00000000000E+00 -0.00000000000E+00 -0.19704512277E+03  0.19704512277E+03  0.00000000000E+00 0.  1.
    9000007    2    1    2  501    0  0.28742160907E+02  0.14034257346E+03  0.32631250387E+03  0.53571259474E+03  0.39998247991E+03 0.  0.
    9000005    1    3    3    0    0 -0.14312448530E+03  0.16801661716E+03  0.27817193374E+03  0.35509833377E+03  0.99999687468E+00 0.  0.
          4    1    3    3  501    0  0.17186664620E+03 -0.27674043696E+02  0.48140570134E+02  0.18061426097E+03  0.00000000000E+00 0.  1.
   -9000007    1    1    2    0  502 -0.28742160907E+02 -0.14034257346E+03  0.39637114597E+03  0.58106130064E+03  0.40000000000E+03 0. -1.
<mgrwt>
<rscale>  2 0.42487486E+03</rscale>
<asrwt>0</asrwt>
<pdfrwt beam="1">  1       21 0.14149673E+00 0.42487898E+03</pdfrwt>
<pdfrwt beam="2">  1       21 0.30314635E-01 0.42487898E+03</pdfrwt>
<totfact> 0.31746505E+03</totfact>
</mgrwt>
</event>
<event>
 6    1  0.9399121E-004  0.4066109E+03  0.7818608E-02  0.1041523E+00
         21   -1    0    0  503  502  0.00000000000E+00  0.00000000000E+00  0.40544730357E+03  0.40544730357E+03  0.00000000000E+00 0. -1.
         21   -1    0    0  501  503 -0.00000000000E+00 -0.00000000000E+00 -0.19282389864E+04  0.19282389864E+04  0.00000000000E+00 0. -1.
    9000007    2    1    2  501    0  0.16634926204E+02  0.70523556191E+02 -0.17975933938E+04  0.18430068905E+04  0.40010260688E+03 0.  0.
    9000005    1    3    3    0    0 -0.46955012492E+02 -0.14833457302E+03 -0.10493835379E+04  0.10608556586E+04  0.99999687468E+00 0.  0.
          4    1    3    3  501    0  0.63589938696E+02  0.21885812921E+03 -0.74820985593E+03  0.78215123188E+03  0.00000000000E+00 0.  1.
   -9000007    1    1    2    0  502 -0.16634926204E+02 -0.70523556191E+02  0.27480171098E+03  0.49067939951E+03  0.40000000000E+03 0. -1.
<mgrwt>
<rscale>  2 0.40658561E+03</rscale>
<asrwt>0</asrwt>
<pdfrwt beam="1">  1       21 0.62376508E-01 0.40661086E+03</pdfrwt>
<pdfrwt beam="2">  1       21 0.29665215E+00 0.40661086E+03</pdfrwt>
<totfact> 0.67230887E+01</totfact>
</mgrwt>
</event>
<event>
 6    1  0.9399121E-004  0.4467051E+03  0.7818608E-02  0.1028917E+00
         21   -1    0    0  503  502  0.00000000000E+00  0.00000000000E+00  0.16005682910E+04  0.16005682910E+04  0.00000000000E+00 0.  1.
         21   -1    0    0  501  503 -0.00000000000E+00 -0.00000000000E+00 -0.17335765941E+03  0.17335765941E+03  0.00000000000E+00 0.  1.
    9000007    2    1    2  501    0  0.88465700140E+02 -0.17107004546E+03  0.24145125933E+03  0.50778360870E+03  0.40305625176E+03 0.  0.
    9000005    1    3    3    0    0  0.17655546455E+03 -0.25752908775E+03  0.11966516654E+03  0.33438572813E+03  0.99999687468E+00 0.  0.
          4    1    3    3  501    0 -0.88089764414E+02  0.86459042295E+02  0.12178609279E+03  0.17339788057E+03  0.00000000000E+00 0.  1.
   -9000007    1    1    2    0  502 -0.88465700140E+02  0.17107004546E+03  0.11857593722E+04  0.12661423417E+04  0.40000000000E+03 0.  1.
<mgrwt>
<rscale>  2 0.44601463E+03</rscale>
<asrwt>0</asrwt>
<pdfrwt beam="1">  1       21 0.24624127E+00 0.44670514E+03</pdfrwt>
<pdfrwt beam="2">  1       21 0.26670410E-01 0.44670514E+03</pdfrwt>
<totfact> 0.76750970E+02</totfact>
</mgrwt>
</event>
<event>
 6    1  0.9399121E-004  0.4137337E+03  0.7818608E-02  0.1039147E+00
         21   -1    0    0  503  502  0.00000000000E+00  0.00000000000E+00  0.19449291795E+03  0.19449291795E+03  0.00000000000E+00 0.  1.
         21   -1    0    0  501  503 -0.00000000000E+00 -0.00000000000E+00 -0.89246884161E+03  0.89246884161E+03  0.00000000000E+00 0.  1.
    9000007    2    1    2  501    0  0.96894781123E+02 -0.42272595463E+02 -0.28353628506E+03  0.50135456616E+03  0.39973491857E+03 0.  0.
    9000005    1    3    3    0    0 -0.21266315963E+02  0.10607569700E+03  0.48817693553E+02  0.11869488989E+03  0.99999687468E+00 0.  0.
          4    1    3    3  501    0  0.11816109709E+03 -0.14834829246E+03 -0.33235397862E+03  0.38265967627E+03  0.00000000000E+00 0.  1.
   -9000007    1    1    2    0  502 -0.96894781123E+02  0.42272595463E+02 -0.41443963859E+03  0.58560719341E+03  0.40000000000E+03 0.  1.
<mgrwt>
<rscale>  2 0.41366961E+03</rscale>
<asrwt>0</asrwt>
<pdfrwt beam="1">  1       21 0.29921987E-01 0.41373370E+03</pdfrwt>
<pdfrwt beam="2">  1       21 0.13730290E+00 0.41373370E+03</pdfrwt>
<totfact> 0.35439989E+03</totfact>
</mgrwt>
</event>
<event>
 6    1  0.9399121E-004  0.5621338E+03  0.7818608E-02  0.9988674E-01
         21   -1    0    0  503  502  0.00000000000E+00  0.00000000000E+00  0.65527095116E+03  0.65527095116E+03  0.00000000000E+00 0.  1.
         21   -1    0    0  501  503 -0.00000000000E+00 -0.00000000000E+00 -0.10279902752E+04  0.10279902752E+04  0.00000000000E+00 0.  1.
    9000007    2    1    2  501    0 -0.80041053655E+02  0.38676581772E+03 -0.80061928736E+03  0.97679626147E+03  0.39641559645E+03 0.  0.
    9000005    1    3    3    0    0 -0.16940489297E+03  0.18028748835E+03 -0.67546052539E+03  0.71933963993E+03  0.99999687468E+00 0.  0.
          4    1    3    3  501    0  0.89363839318E+02  0.20647832938E+03 -0.12515876196E+03  0.25745662154E+03  0.00000000000E+00 0.  1.
   -9000007    1    1    2    0  502  0.80041053655E+02 -0.38676581772E+03  0.42789996331E+03  0.70646496490E+03  0.40000000000E+03 0.  1.
<mgrwt>
<rscale>  2 0.56149645E+03</rscale>
<asrwt>0</asrwt>
<pdfrwt beam="1">  1       21 0.10081092E+00 0.56213376E+03</pdfrwt>
<pdfrwt beam="2">  1       21 0.15815235E+00 0.56213376E+03</pdfrwt>
<totfact> 0.16121510E+02</totfact>
</mgrwt>
</event>
<event>
 6    1  0.9399121E-004  0.4323312E+03  0.7818608E-02  0.1033199E+00
         21   -1    0    0  503  502  0.00000000000E+00  0.00000000000E+00  0.80854374614E+03  0.80854374614E+03  0.00000000000E+00 0.  1.
         21   -1    0    0  501  503 -0.00000000000E+00 -0.00000000000E+00 -0.29065002053E+03  0.29065002053E+03  0.00000000000E+00 0.  1.
    9000007    2    1    2  501    0 -0.55645623568E+02  0.15431738976E+03  0.90563561851E+01  0.43149191650E+03  0.39898992996E+03 0.  0.
    9000005    1    3    3    0    0 -0.15166172894E+03  0.24323825678E+03  0.56738459695E+02  0.29220948374E+03  0.99999687468E+00 0.  0.
          4    1    3    3  501    0  0.96016105368E+02 -0.88920867012E+02 -0.47682103510E+02  0.13928243276E+03  0.00000000000E+00 0.  1.
   -9000007    1    1    2    0  502  0.55645623568E+02 -0.15431738976E+03  0.50883736943E+03  0.66770185018E+03  0.40000000000E+03 0.  1.
<mgrwt>
<rscale>  2 0.43209745E+03</rscale>
<asrwt>0</asrwt>
<pdfrwt beam="1">  1       21 0.12439134E+00 0.43233123E+03</pdfrwt>
<pdfrwt beam="2">  1       21 0.44715388E-01 0.43233123E+03</pdfrwt>
<totfact> 0.20074920E+03</totfact>
</mgrwt>
</event>
<event>
 6    1  0.9399121E-004  0.4113446E+03  0.7818608E-02  0.1039971E+00
         21   -1    0    0  503  502  0.00000000000E+00  0.00000000000E+00  0.13794587729E+04  0.13794587729E+04  0.00000000000E+00 0.  1.
         21   -1    0    0  501  503 -0.00000000000E+00 -0.00000000000E+00 -0.13773418344E+03  0.13773418344E+03  0.00000000000E+00 0.  1.
    9000007    2    1    2  501    0  0.91952610771E+02  0.27369214506E+02  0.36800588332E+03  0.55148661692E+03  0.39938052275E+03 0.  0.
    9000005    1    3    3    0    0  0.13157476675E+03 -0.59124337832E+02  0.41928796649E+03  0.44340839574E+03  0.99999687468E+00 0.  0.
          4    1    3    3  501    0 -0.39622155974E+02  0.86493552338E+02 -0.51282083169E+02  0.10807822118E+03  0.00000000000E+00 0.  1.
   -9000007    1    1    2    0  502 -0.91952610771E+02 -0.27369214506E+02  0.87371870610E+03  0.96570633938E+03  0.40000000000E+03 0.  1.
<mgrwt>
<rscale>  2 0.41119390E+03</rscale>
<asrwt>0</asrwt>
<pdfrwt beam="1">  1       21 0.21222442E+00 0.41134457E+03</pdfrwt>
<pdfrwt beam="2">  1       21 0.21189875E-01 0.41134457E+03</pdfrwt>
<totfact> 0.19952649E+03</totfact>
</mgrwt>
</event>
<event>
 6    1  0.9399121E-004  0.4119264E+03  0.7818608E-02  0.1039777E+00
         21   -1    0    0  503  502  0.00000000000E+00  0.00000000000E+00  0.17747761873E+04  0.17747761873E+04  0.00000000000E+00 0. -1.
         21   -1    0    0  501  503 -0.00000000000E+00 -0.00000000000E+00 -0.11515333256E+03  0.11515333256E+03  0.00000000000E+00 0. -1.
    9000007    2    1    2  501    0 -0.55608120431E+02  0.78073493687E+02  0.12210129243E+04  0.12886255996E+04  0.40061907232E+03 0.  0.
    9000005    1    3    3    0    0  0.11126982112E+03 -0.94797548953E+01  0.96118779229E+03  0.96765376602E+03  0.99999687468E+00 0.  0.
          4    1    3    3  501    0 -0.16687794155E+03  0.87553248582E+02  0.25982513198E+03  0.32097183353E+03  0.00000000000E+00 0.  1.
   -9000007    1    1    2    0  502  0.55608120431E+02 -0.78073493687E+02  0.43860993049E+03  0.60130392033E+03  0.40000000000E+03 0. -1.
<mgrwt>
<rscale>  2 0.41177582E+03</rscale>
<asrwt>0</asrwt>
<pdfrwt beam="1">  1       21 0.27304247E+00 0.41192642E+03</pdfrwt>
<pdfrwt beam="2">  1       21 0.17715899E-01 0.41192642E+03</pdfrwt>
<totfact> 0.11767399E+03</totfact>
</mgrwt>
</event>
<event>
 6    1  0.9399121E-004  0.5220992E+03  0.7818608E-02  0.1008186E+00
         21   -1    0    0  503  502  0.00000000000E+00  0.00000000000E+00  0.13876443739E+03  0.13876443739E+03  0.00000000000E+00 0.  1.
         21   -1    0    0  501  503 -0.00000000000E+00 -0.00000000000E+00 -0.20133573791E+04  0.20133573791E+04  0.00000000000E+00 0. -1.
    9000007    2    1    2  501    0  0.33504460251E+03 -0.27988708176E+01 -0.76776131990E+03  0.92846379303E+03  0.40040585821E+03 0.  0.
    9000005    1    3    3    0    0  0.48558158729E+02 -0.66678090030E+02 -0.56672243892E+03  0.57269467017E+03  0.99999687468E+00 0.  0.
          4    1    3    3  501    0  0.28648644378E+03  0.63879219212E+02 -0.20103888097E+03  0.35576912286E+03  0.00000000000E+00 0.  1.
   -9000007    1    1    2    0  502 -0.33504460251E+03  0.27988708176E+01 -0.11068316219E+04  0.12236580235E+04  0.40000000000E+03 0. -1.
<mgrwt>
<rscale>  2 0.52202138E+03</rscale>
<asrwt>0</asrwt>
<pdfrwt beam="1">  1       21 0.21348373E-01 0.52209920E+03</pdfrwt>
<pdfrwt beam="2">  1       21 0.30974731E+00 0.52209920E+03</pdfrwt>
<totfact> 0.46826835E+02</totfact>
</mgrwt>
</event>
<event>
 6    1  0.9399121E-004  0.4471248E+03  0.7818608E-02  0.1028683E+00
         21   -1    0    0  503  502  0.00000000000E+00  0.00000000000E+00  0.17919738249E+03  0.17919738249E+03  0.00000000000E+00 0.  1.
         21   -1    0    0  501  503 -0.00000000000E+00 -0.00000000000E+00 -0.11200990566E+04  0.11200990566E+04  0.00000000000E+00 0. -1.
    9000007    2    1    2  501    0  0.85062313647E+02 -0.17746072846E+03 -0.52530919263E+03  0.68983354605E+03  0.40148806464E+03 0.  0.
    9000005    1    3    3    0    0 -0.14190890628E+03 -0.15432402059E+03 -0.18201099369E+03  0.27763833098E+03  0.99999687468E+00 0.  0.
          4    1    3    3  501    0  0.22697121993E+03 -0.23136707861E+02 -0.34329819895E+03  0.41219521507E+03  0.00000000000E+00 0.  1.
   -9000007    1    1    2    0  502 -0.85062313647E+02  0.17746072846E+03 -0.41559248151E+03  0.60946289307E+03  0.40000000000E+03 0. -1.
<mgrwt>
<rscale>  2 0.44679049E+03</rscale>
<asrwt>0</asrwt>
<pdfrwt beam="1">  1       21 0.27568828E-01 0.44712479E+03</pdfrwt>
<pdfrwt beam="2">  1       21 0.17232293E+00 0.44712479E+03</pdfrwt>
<totfact> 0.22047646E+03</totfact>
</mgrwt>
</event>
<event>
 6    1  0.9399121E-004  0.6888845E+03  0.7818608E-02  0.9737392E-01
         21   -1    0    0  503  502  0.00000000000E+00  0.00000000000E+00  0.86689933626E+03  0.86689933626E+03  0.00000000000E+00 0. -1.
         21   -1    0    0  501  503 -0.00000000000E+00 -0.00000000000E+00 -0.58878547400E+03  0.58878547400E+03  0.00000000000E+00 0.  1.
    9000007    2    1    2  501    0  0.55070660228E+03  0.90904622349E+02 -0.57671019444E+02  0.69129426941E+03  0.40375785847E+03 0.  0.
    9000005    1    3    3    0    0  0.16005269545E+03 -0.14629689573E+03 -0.86266346833E+02  0.23337208405E+03  0.99999687468E+00 0.  0.
          4    1    3    3  501    0  0.39065390683E+03  0.23720151808E+03  0.28595327389E+02  0.45792218536E+03  0.00000000000E+00 0.  1.
   -9000007    1    1    2    0  502 -0.55070660228E+03 -0.90904622349E+02  0.33578488171E+03  0.76439054085E+03  0.40000000000E+03 0. -1.
<mgrwt>
<rscale>  2 0.68833488E+03</rscale>
<asrwt>0</asrwt>
<pdfrwt beam="1">  1       21 0.13336913E+00 0.68888448E+03</pdfrwt>
<pdfrwt beam="2">  1       21 0.90582381E-01 0.68888448E+03</pdfrwt>
<totfact> 0.31743886E+02</totfact>
</mgrwt>
</event>
<event>
 6    1  0.9399121E-004  0.4018443E+03  0.7818608E-02  0.1043259E+00
         21   -1    0    0  503  502  0.00000000000E+00  0.00000000000E+00  0.11600028905E+04  0.11600028905E+04  0.00000000000E+00 0. -1.
         21   -1    0    0  501  503 -0.00000000000E+00 -0.00000000000E+00 -0.23622715469E+03  0.23622715469E+03  0.00000000000E+00 0. -1.
    9000007    2    1    2  501    0 -0.27153547193E+02  0.27231412391E+02  0.12955159738E+02  0.40070355798E+03  0.39864350022E+03 0.  0.
    9000005    1    3    3    0    0  0.15634914591E+03  0.11780306853E+03  0.10638653114E+02  0.19605305230E+03  0.99999687468E+00 0.  0.
          4    1    3    3  501    0 -0.18350269311E+03 -0.90571656137E+02  0.23165066243E+01  0.20465050568E+03  0.00000000000E+00 0.  1.
   -9000007    1    1    2    0  502  0.27153547193E+02 -0.27231412391E+02  0.91082057605E+03  0.99552648719E+03  0.40000000000E+03 0. -1.
<mgrwt>
<rscale>  2 0.40150634E+03</rscale>
<asrwt>0</asrwt>
<pdfrwt beam="1">  1       21 0.17846198E+00 0.40184433E+03</pdfrwt>
<pdfrwt beam="2">  1       21 0.36342640E-01 0.40184433E+03</pdfrwt>
<totfact> 0.11712661E+03</totfact>
</mgrwt>
</event>
<event>
 6    1  0.9399121E-004  0.4214205E+03  0.7818608E-02  0.1036844E+00
         21   -1    0    0  503  502  0.00000000000E+00  0.00000000000E+00  0.37763551001E+03  0.37763551001E+03  0.00000000000E+00 0.  1.
         21   -1    0    0  501  503 -0.00000000000E+00 -0.00000000000E+00 -0.46876218444E+03  0.46876218444E+03  0.00000000000E+00 0. -1.
    9000007    2    1    2  501    0  0.81803692338E+02 -0.91849170452E+02 -0.71596303078E+02  0.42745909561E+03  0.40307211961E+03 0.  0.
    9000005    1    3    3    0    0 -0.16457929194E+03 -0.44993698097E+02 -0.28904209796E+02  0.17305267851E+03  0.99999687468E+00 0.  0.
          4    1    3    3  501    0  0.24638298427E+03 -0.46855472355E+02 -0.42692093281E+02  0.25440641709E+03  0.00000000000E+00 0.  1.
   -9000007    1    1    2    0  502 -0.81803692338E+02  0.91849170452E+02 -0.19530371346E+02  0.41893859884E+03  0.40000000000E+03 0. -1.
<mgrwt>
<rscale>  2 0.42068423E+03</rscale>
<asrwt>0</asrwt>
<pdfrwt beam="1">  1       21 0.58097771E-01 0.42142051E+03</pdfrwt>
<pdfrwt beam="2">  1       21 0.72117259E-01 0.42142051E+03</pdfrwt>
<totfact> 0.42660641E+03</totfact>
</mgrwt>
</event>
<event>
 6    1  0.9399121E-004  0.4504175E+03  0.7818608E-02  0.1027629E+00
         21   -1    0    0  503  502  0.00000000000E+00  0.00000000000E+00  0.79539704100E+03  0.79539704100E+03  0.00000000000E+00 0.  1.
         21   -1    0    0  501  503 -0.00000000000E+00 -0.00000000000E+00 -0.39215507674E+03  0.39215507674E+03  0.00000000000E+00 0.  1.
    9000007    2    1    2  501    0 -0.83212807201E+02 -0.18859423820E+03 -0.14970151479E+03  0.47464353384E+03  0.40047944107E+03 0.  0.
    9000005    1    3    3    0    0  0.10402051528E+03  0.56196601404E+02  0.24334116096E+02  0.12071236395E+03  0.99999687468E+00 0.  0.
          4    1    3    3  501    0 -0.18723332249E+03 -0.24479083961E+03 -0.17403563089E+03  0.35393116989E+03  0.00000000000E+00 0.  1.
   -9000007    1    1    2    0  502  0.83212807201E+02  0.18859423820E+03  0.55294347906E+03  0.71290858390E+03  0.40000000000E+03 0.  1.
<mgrwt>
<rscale>  2 0.45031092E+03</rscale>
<asrwt>0</asrwt>
<pdfrwt beam="1">  1       21 0.12236878E+00 0.45041752E+03</pdfrwt>
<pdfrwt beam="2">  1       21 0.60331550E-01 0.45041752E+03</pdfrwt>
<totfact> 0.10947865E+03</totfact>
</mgrwt>
</event>
<event>
 6    1  0.9399121E-004  0.4210201E+03  0.7818608E-02  0.1036784E+00
         21   -1    0    0  503  502  0.00000000000E+00  0.00000000000E+00  0.66146524465E+03  0.66146524465E+03  0.00000000000E+00 0.  1.
         21   -1    0    0  501  503 -0.00000000000E+00 -0.00000000000E+00 -0.27835729651E+03  0.27835729651E+03  0.00000000000E+00 0.  1.
    9000007    2    1    2  501    0 -0.44223697768E+02  0.12163427288E+03  0.99283023713E+02  0.43256795074E+03  0.40063359997E+03 0.  0.
    9000005    1    3    3    0    0  0.54809751543E+01  0.14754454372E+03 -0.12988267593E+03  0.19664674665E+03  0.99999687468E+00 0.  0.
          4    1    3    3  501    0 -0.49704672922E+02 -0.25910270841E+02  0.22916569964E+03  0.23592120408E+03  0.00000000000E+00 0.  1.
   -9000007    1    1    2    0  502  0.44223697768E+02 -0.12163427288E+03  0.28382492442E+03  0.50725459042E+03  0.40000000000E+03 0. -1.
<mgrwt>
<rscale>  2 0.42086929E+03</rscale>
<asrwt>0</asrwt>
<pdfrwt beam="1">  1       21 0.10176388E+00 0.42102009E+03</pdfrwt>
<pdfrwt beam="2">  1       21 0.42824200E-01 0.42102009E+03</pdfrwt>
<totfact> 0.36409477E+03</totfact>
</mgrwt>
</event>
<event>
 6    1  0.9399121E-004  0.5645674E+03  0.7818608E-02  0.9981908E-01
         21   -1    0    0  503  502  0.00000000000E+00  0.00000000000E+00  0.56326354968E+03  0.56326354968E+03  0.00000000000E+00 0.  1.
         21   -1    0    0  501  503 -0.00000000000E+00 -0.00000000000E+00 -0.61070307708E+03  0.61070307708E+03  0.00000000000E+00 0.  1.
    9000007    2    1    2  501    0  0.32759685199E+03  0.22675248922E+03  0.13574855849E+03  0.58042280899E+03  0.39965807544E+03 0.  0.
    9000005    1    3    3    0    0  0.25276920107E+03 -0.34505844529E+02 -0.37904838962E+02  0.25791606993E+03  0.99999687468E+00 0.  0.
          4    1    3    3  501    0  0.74827650918E+02  0.26125833375E+03  0.17365339745E+03  0.32250673906E+03  0.00000000000E+00 0.  1.
   -9000007    1    1    2    0  502 -0.32759685199E+03 -0.22675248922E+03 -0.18318808589E+03  0.59354381777E+03  0.40000000000E+03 0.  1.
<mgrwt>
<rscale>  2 0.56450687E+03</rscale>
<asrwt>0</asrwt>
<pdfrwt beam="1">  1       21 0.86655931E-01 0.56456744E+03</pdfrwt>
<pdfrwt beam="2">  1       21 0.93954319E-01 0.56456744E+03</pdfrwt>
<totfact> 0.88686689E+02</totfact>
</mgrwt>
</event>
<event>
 6    1  0.9399121E-004  0.4560346E+03  0.7818608E-02  0.1025975E+00
         21   -1    0    0  503  502  0.00000000000E+00  0.00000000000E+00  0.86794300139E+03  0.86794300139E+03  0.00000000000E+00 0. -1.
         21   -1    0    0  501  503 -0.00000000000E+00 -0.00000000000E+00 -0.32764410419E+03  0.32764410419E+03  0.00000000000E+00 0.  1.
    9000007    2    1    2  501    0  0.10263848659E+03 -0.19347577466E+03 -0.40299223771E+02  0.45730415685E+03  0.39941899070E+03 0.  0.
    9000005    1    3    3    0    0  0.23882679399E+01  0.73689104537E+02  0.11181472636E+03  0.13393775037E+03  0.99999687468E+00 0.  0.
          4    1    3    3  501    0  0.10025021865E+03 -0.26716487920E+03 -0.15211395013E+03  0.32336640648E+03  0.00000000000E+00 0.  1.
   -9000007    1    1    2    0  502 -0.10263848659E+03  0.19347577466E+03  0.58059812097E+03  0.73828294873E+03  0.40000000000E+03 0. -1.
<mgrwt>
<rscale>  2 0.45590714E+03</rscale>
<asrwt>0</asrwt>
<pdfrwt beam="1">  1       21 0.13352969E+00 0.45603458E+03</pdfrwt>
<pdfrwt beam="2">  1       21 0.50406786E-01 0.45603458E+03</pdfrwt>
<totfact> 0.12852975E+03</totfact>
</mgrwt>
</event>
<event>
 6    1  0.9399121E-004  0.4454497E+03  0.7818608E-02  0.1029150E+00
         21   -1    0    0  503  502  0.00000000000E+00  0.00000000000E+00  0.90874695884E+02  0.90874695884E+02  0.00000000000E+00 0.  1.
         21   -1    0    0  501  503 -0.00000000000E+00 -0.00000000000E+00 -0.33011242875E+04  0.33011242875E+04  0.00000000000E+00 0.  1.
    9000007    2    1    2  501    0  0.15886241945E+03  0.11160899665E+03 -0.25947077272E+04  0.26326666297E+04  0.40091340382E+03 0.  0.
    9000005    1    3    3    0    0  0.19780881823E+03 -0.10590461690E+03 -0.13351066234E+04  0.13538296836E+04  0.99999687468E+00 0.  0.
          4    1    3    3  501    0 -0.38946398781E+02  0.21751361355E+03 -0.12596011038E+04  0.12788369461E+04  0.00000000000E+00 0.  1.
   -9000007    1    1    2    0  502 -0.15886241945E+03 -0.11160899665E+03 -0.61554186450E+03  0.75933235371E+03  0.40000000000E+03 0.  1.
<mgrwt>
<rscale>  2 0.44524404E+03</rscale>
<asrwt>0</asrwt>
<pdfrwt beam="1">  1       21 0.13980723E-01 0.44544965E+03</pdfrwt>
<pdfrwt beam="2">  1       21 0.50786524E+00 0.44544965E+03</pdfrwt>
<totfact> 0.55330695E+01</totfact>
</mgrwt>
</event>
<event>
 6    1  0.9399121E-004  0.4150344E+03  0.7818608E-02  0.1038708E+00
         21   -1    0    0  503  502  0.00000000000E+00  0.00000000000E+00  0.18456349160E+03  0.18456349160E+03  0.00000000000E+00 0.  1.
         21   -1    0    0  501  503 -0.00000000000E+00 -0.00000000000E+00 -0.11638415055E+04  0.11638415055E+04  0.00000000000E+00 0.  1.
    9000007    2    1    2  501    0  0.11023349337E+03  0.10104557195E+02 -0.78986291650E+03  0.89219056918E+03  0.39983379013E+03 0.  0.
    9000005    1    3    3    0    0 -0.68552503633E+02 -0.10314748894E+03 -0.70870753053E+02  0.14269728050E+03  0.99999687468E+00 0.  0.
          4    1    3    3  501    0  0.17878599701E+03  0.11325204613E+03 -0.71899216345E+03  0.74949328868E+03  0.00000000000E+00 0.  1.
   -9000007    1    1    2    0  502 -0.11023349337E+03 -0.10104557195E+02 -0.18941509743E+03  0.45621442795E+03  0.40000000000E+03 0.  1.
<mgrwt>
<rscale>  2 0.41499431E+03</rscale>
<asrwt>0</asrwt>
<pdfrwt beam="1">  1       21 0.28394383E-01 0.41503437E+03</pdfrwt>
<pdfrwt beam="2">  1       21 0.17905254E+00 0.41503437E+03</pdfrwt>
<totfact> 0.18881476E+03</totfact>
</mgrwt>
</event>
<event>
 6    1  0.9399121E-004  0.4068407E+03  0.7818608E-02  0.1041447E+00
         21   -1    0    0  503  502  0.00000000000E+00  0.00000000000E+00  0.12474721707E+04  0.12474721707E+04  0.00000000000E+00 0. -1.
         21   -1    0    0  501  503 -0.00000000000E+00 -0.00000000000E+00 -0.56943953701E+03  0.56943953701E+03  0.00000000000E+00 0. -1.
    9000007    2    1    2  501    0 -0.61494626098E+02 -0.41686244679E+02 -0.45664145602E+03  0.61150529414E+03  0.39987244639E+03 0.  0.
    9000005    1    3    3    0    0  0.10825899810E+03 -0.16267109827E+03 -0.25719436163E+03  0.32300439088E+03  0.99999687468E+00 0.  0.
          4    1    3    3  501    0 -0.16975362419E+03  0.12098485359E+03 -0.19944709439E+03  0.28850090327E+03  0.00000000000E+00 0.  1.
   -9000007    1    1    2    0  502  0.61494626098E+02  0.41686244679E+02  0.11346740897E+04  0.12054064136E+04  0.40000000000E+03 0. -1.
<mgrwt>
<rscale>  2 0.40680932E+03</rscale>
<asrwt>0</asrwt>
<pdfrwt beam="1">  1       21 0.19191880E+00 0.40684067E+03</pdfrwt>
<pdfrwt beam="2">  1       21 0.87606082E-01 0.40684067E+03</pdfrwt>
<totfact> 0.13949124E+02</totfact>
</mgrwt>
</event>
<event>
 6    1  0.9399121E-004  0.4180068E+03  0.7818608E-02  0.1037856E+00
         21   -1    0    0  503  502  0.00000000000E+00  0.00000000000E+00  0.11652786827E+04  0.11652786827E+04  0.00000000000E+00 0.  1.
         21   -1    0    0  501  503 -0.00000000000E+00 -0.00000000000E+00 -0.16365133619E+03  0.16365133619E+03  0.00000000000E+00 0.  1.
    9000007    2    1    2  501    0  0.39052760206E+02  0.10859835757E+03  0.30524959492E+03  0.51759735329E+03  0.40175985811E+03 0.  0.
    9000005    1    3    3    0    0 -0.16696580388E+03  0.23465552589E+01  0.53415865853E+02  0.17532067962E+03  0.99999687468E+00 0.  0.
          4    1    3    3  501    0  0.20601856408E+03  0.10625180231E+03  0.25183372907E+03  0.34227667367E+03  0.00000000000E+00 0.  1.
   -9000007    1    1    2    0  502 -0.39052760206E+02 -0.10859835757E+03  0.69637775160E+03  0.81133266560E+03  0.40000000000E+03 0. -1.
<mgrwt>
<rscale>  2 0.41758339E+03</rscale>
<asrwt>0</asrwt>
<pdfrwt beam="1">  1       21 0.17927364E+00 0.41800682E+03</pdfrwt>
<pdfrwt beam="2">  1       21 0.25177129E-01 0.41800682E+03</pdfrwt>
<totfact> 0.23775564E+03</totfact>
</mgrwt>
</event>
<event>
 6    1  0.9399121E-004  0.4930941E+03  0.7818608E-02  0.1015665E+00
         21   -1    0    0  503  502  0.00000000000E+00  0.00000000000E+00  0.27567847642E+03  0.27567847642E+03  0.00000000000E+00 0. -1.
         21   -1    0    0  501  503 -0.00000000000E+00 -0.00000000000E+00 -0.13035685347E+04  0.13035685347E+04  0.00000000000E+00 0. -1.
    9000007    2    1    2  501    0  0.28170212617E+03 -0.61528256123E+02 -0.96360522571E+03  0.10819801271E+04  0.39875324492E+03 0.  0.
    9000005    1    3    3    0    0  0.20186028609E+02  0.12401677638E+03 -0.51784745128E+03  0.53287392445E+03  0.99999687468E+00 0.  0.
          4    1    3    3  501    0  0.26151609756E+03 -0.18554503250E+03 -0.44575777443E+03  0.54910620270E+03  0.00000000000E+00 0.  1.
   -9000007    1    1    2    0  502 -0.28170212617E+03  0.61528256123E+02 -0.64284832574E+02  0.49726688397E+03  0.40000000000E+03 0. -1.
<mgrwt>
<rscale>  2 0.49284122E+03</rscale>
<asrwt>0</asrwt>
<pdfrwt beam="1">  1       21 0.42412073E-01 0.49309412E+03</pdfrwt>
<pdfrwt beam="2">  1       21 0.20054901E+00 0.49309412E+03</pdfrwt>
<totfact> 0.57662462E+02</totfact>
</mgrwt>
</event>
<event>
 6    1  0.9399121E-004  0.5401001E+03  0.7818608E-02  0.1003836E+00
         21   -1    0    0  503  502  0.00000000000E+00  0.00000000000E+00  0.18084566741E+03  0.18084566741E+03  0.00000000000E+00 0. -1.
         21   -1    0    0  501  503 -0.00000000000E+00 -0.00000000000E+00 -0.17774758963E+04  0.17774758963E+04  0.00000000000E+00 0.  1.
    9000007    2    1    2  501    0 -0.22940764055E+03 -0.28041483730E+03 -0.10975459103E+04  0.12232395931E+04  0.40055927190E+03 0.  0.
    9000005    1    3    3    0    0 -0.20889511541E+03  0.44386686542E+02 -0.39731701198E+03  0.45107555374E+03  0.99999687468E+00 0.  0.
          4    1    3    3  501    0 -0.20512525145E+02 -0.32480152384E+03 -0.70022889833E+03  0.77216403933E+03  0.00000000000E+00 0.  1.
   -9000007    1    1    2    0  502  0.22940764055E+03  0.28041483730E+03 -0.49908431861E+03  0.73508197067E+03  0.40000000000E+03 0.  1.
<mgrwt>
<rscale>  2 0.53999637E+03</rscale>
<asrwt>0</asrwt>
<pdfrwt beam="1">  1       21 0.27822410E-01 0.54010006E+03</pdfrwt>
<pdfrwt beam="2">  1       21 0.27345784E+00 0.54010006E+03</pdfrwt>
<totfact> 0.46012060E+02</totfact>
</mgrwt>
</event>
<event>
 6    1  0.9399121E-004  0.4521018E+03  0.7818608E-02  0.1027223E+00
         21   -1    0    0  503  502  0.00000000000E+00  0.00000000000E+00  0.11931269093E+03  0.11931269093E+03  0.00000000000E+00 0. -1.
         21   -1    0    0  501  503 -0.00000000000E+00 -0.00000000000E+00 -0.18190576539E+04  0.18190576539E+04  0.00000000000E+00 0. -1.
    9000007    2    1    2  501    0  0.13177974913E+03 -0.16440842847E+03 -0.10892566885E+04  0.11787046506E+04  0.39808100480E+03 0.  0.
    9000005    1    3    3    0    0 -0.52247623862E+02 -0.24230989846E+03 -0.66629306033E+03  0.71090881506E+03  0.99999687468E+00 0.  0.
          4    1    3    3  501    0  0.18402737299E+03  0.77901469995E+02 -0.42296362817E+03  0.46779583558E+03  0.00000000000E+00 0.  1.
   -9000007    1    1    2    0  502 -0.13177974913E+03  0.16440842847E+03 -0.61048827444E+03  0.75966569414E+03  0.40000000000E+03 0. -1.
<mgrwt>
<rscale>  2 0.45167696E+03</rscale>
<asrwt>0</asrwt>
<pdfrwt beam="1">  1       21 0.18355798E-01 0.45210180E+03</pdfrwt>
<pdfrwt beam="2">  1       21 0.27985504E+00 0.45210180E+03</pdfrwt>
<totfact> 0.98019388E+02</totfact>
</mgrwt>
</event>
<event>
 6    1  0.9399121E-004  0.4767847E+03  0.7818608E-02  0.1020069E+00
         21   -1    0    0  503  502  0.00000000000E+00  0.00000000000E+00  0.69758521562E+03  0.69758521562E+03  0.00000000000E+00 0.  1.
         21   -1    0    0  501  503 -0.00000000000E+00 -0.00000000000E+00 -0.36414156312E+03  0.36414156312E+03  0.00000000000E+00 0.  1.
    9000007    2    1    2  501    0 -0.19829841623E+03 -0.16733626372E+03 -0.65012116201E+01  0.47616192523E+03  0.39920449177E+03 0.  0.
    9000005    1    3    3    0    0  0.11378126773E+03 -0.28295915331E+02 -0.57726642479E+02  0.13069124285E+03  0.99999687468E+00 0.  0.
          4    1    3    3  501    0 -0.31207968396E+03 -0.13904034839E+03  0.51225430859E+02  0.34547068238E+03  0.00000000000E+00 0.  1.
   -9000007    1    1    2    0  502  0.19829841623E+03  0.16733626372E+03  0.33994486412E+03  0.58556485352E+03  0.40000000000E+03 0.  1.
<mgrwt>
<rscale>  2 0.47661785E+03</rscale>
<asrwt>0</asrwt>
<pdfrwt beam="1">  1       21 0.10732080E+00 0.47678474E+03</pdfrwt>
<pdfrwt beam="2">  1       21 0.56021779E-01 0.47678474E+03</pdfrwt>
<totfact> 0.17703082E+03</totfact>
</mgrwt>
</event>
<event>
 6    1  0.9399121E-004  0.5433386E+03  0.7818608E-02  0.1003050E+00
         21   -1    0    0  503  502  0.00000000000E+00  0.00000000000E+00  0.23056044612E+03  0.23056044612E+03  0.00000000000E+00 0. -1.
         21   -1    0    0  501  503 -0.00000000000E+00 -0.00000000000E+00 -0.18686963704E+04  0.18686963704E+04  0.00000000000E+00 0. -1.
    9000007    2    1    2  501    0 -0.26479289723E+03  0.25505642864E+03 -0.14080576675E+04  0.15092525246E+04  0.40005965545E+03 0.  0.
    9000005    1    3    3    0    0 -0.16605277656E+03  0.44628389647E+01 -0.15373819100E+03  0.22634017076E+03  0.99999687468E+00 0.  0.
          4    1    3    3  501    0 -0.98740120675E+02  0.25059358968E+03 -0.12543194765E+04  0.12829123538E+04  0.00000000000E+00 0.  1.
   -9000007    1    1    2    0  502  0.26479289723E+03 -0.25505642864E+03 -0.23007825683E+03  0.59000429192E+03  0.40000000000E+03 0. -1.
<mgrwt>
<rscale>  2 0.54332758E+03</rscale>
<asrwt>0</asrwt>
<pdfrwt beam="1">  1       21 0.35470837E-01 0.54333856E+03</pdfrwt>
<pdfrwt beam="2">  1       21 0.28749175E+00 0.54333856E+03</pdfrwt>
<totfact> 0.23193030E+02</totfact>
</mgrwt>
</event>
<event>
 6    1  0.9399121E-004  0.4325954E+03  0.7818608E-02  0.1033152E+00
         21   -1    0    0  503  502  0.00000000000E+00  0.00000000000E+00  0.13488123730E+04  0.13488123730E+04  0.00000000000E+00 0.  1.
         21   -1    0    0  501  503 -0.00000000000E+00 -0.00000000000E+00 -0.15396091877E+03  0.15396091877E+03  0.00000000000E+00 0. -1.
    9000007    2    1    2  501    0  0.17268735645E+02 -0.16012174629E+03  0.35862751769E+03  0.56191854480E+03  0.40149915526E+03 0.  0.
    9000005    1    3    3    0    0  0.67450879841E+02  0.67367458460E+02  0.30948100251E+03  0.32383249769E+03  0.99999687468E+00 0.  0.
          4    1    3    3  501    0 -0.50182144197E+02 -0.22748920475E+03  0.49146515186E+02  0.23808604711E+03  0.00000000000E+00 0.  1.
   -9000007    1    1    2    0  502 -0.17268735645E+02  0.16012174629E+03  0.83622393652E+03  0.94085474696E+03  0.40000000000E+03 0.  1.
<mgrwt>
<rscale>  2 0.43224719E+03</rscale>
<asrwt>0</asrwt>
<pdfrwt beam="1">  1       21 0.20750959E+00 0.43259537E+03</pdfrwt>
<pdfrwt beam="2">  1       21 0.23686296E-01 0.43259537E+03</pdfrwt>
<totfact> 0.17116717E+03</totfact>
</mgrwt>
</event>
<event>
 6    1  0.9399121E-004  0.4300564E+03  0.7818608E-02  0.1033883E+00
         21   -1    0    0  503  502  0.00000000000E+00  0.00000000000E+00  0.95799987901E+03  0.95799987901E+03  0.00000000000E+00 0.  1.
         21   -1    0    0  501  503 -0.00000000000E+00 -0.00000000000E+00 -0.29082681282E+03  0.29082681282E+03  0.00000000000E+00 0.  1.
    9000007    2    1    2  501    0 -0.87944286196E+02  0.12950784097E+03 -0.28748935678E+02  0.43101625474E+03  0.40055215915E+03 0.  0.
    9000005    1    3    3    0    0 -0.61194865646E+02 -0.12969145063E+03 -0.81797251447E+02  0.16509534907E+03  0.99999687468E+00 0.  0.
          4    1    3    3  501    0 -0.26749420550E+02  0.25919929160E+03  0.53048315769E+02  0.26592090567E+03  0.00000000000E+00 0.  1.
   -9000007    1    1    2    0  502  0.87944286196E+02 -0.12950784097E+03  0.69592200186E+03  0.81781043709E+03  0.40000000000E+03 0.  1.
<mgrwt>
<rscale>  2 0.42992779E+03</rscale>
<asrwt>0</asrwt>
<pdfrwt beam="1">  1       21 0.14738459E+00 0.43005640E+03</pdfrwt>
<pdfrwt beam="2">  1       21 0.44742587E-01 0.43005640E+03</pdfrwt>
<totfact> 0.12853386E+03</totfact>
</mgrwt>
</event>
<event>
 6    1  0.9399121E-004  0.6186436E+03  0.7818608E-02  0.9867538E-01
         21   -1    0    0  503  502  0.00000000000E+00  0.00000000000E+00  0.45361821674E+03  0.45361821674E+03  0.00000000000E+00 0.  1.
         21   -1    0    0  501  503 -0.00000000000E+00 -0.00000000000E+00 -0.12070903292E+04  0.12070903292E+04  0.00000000000E+00 0. -1.
    9000007    2    1    2  501    0 -0.43999871730E+03 -0.17011370806E+03 -0.83248669819E+03  0.10371856116E+04  0.40022786674E+03 0.  0.
    9000005    1    3    3    0    0 -0.53449455849E+02  0.82533461368E+02 -0.37299094837E+03  0.38573548468E+03  0.99999687468E+00 0.  0.
          4    1    3    3  501    0 -0.38654926145E+03 -0.25264716943E+03 -0.45949574982E+03  0.65145012691E+03  0.00000000000E+00 0.  1.
   -9000007    1    1    2    0  502  0.43999871730E+03  0.17011370806E+03  0.79014585745E+02  0.62352293435E+03  0.40000000000E+03 0.  1.
<mgrwt>
<rscale>  2 0.61860674E+03</rscale>
<asrwt>0</asrwt>
<pdfrwt beam="1">  1       21 0.69787418E-01 0.61864359E+03</pdfrwt>
<pdfrwt beam="2">  1       21 0.18570621E+00 0.61864359E+03</pdfrwt>
<totfact> 0.23534657E+02</totfact>
</mgrwt>
</event>
<event>
 6    1  0.9399121E-004  0.4566272E+03  0.7818608E-02  0.1025962E+00
         21   -1    0    0  503  502  0.00000000000E+00  0.00000000000E+00  0.25131134121E+03  0.25131134121E+03  0.00000000000E+00 0.  1.
         21   -1    0    0  501  503 -0.00000000000E+00 -0.00000000000E+00 -0.11098181920E+04  0.11098181920E+04  0.00000000000E+00 0.  1.
    9000007    2    1    2  501    0  0.21989475552E+03  0.12438514875E+02 -0.77320657845E+03  0.89660336963E+03  0.39691405785E+03 0.  0.
    9000005    1    3    3    0    0 -0.59725944659E+02 -0.10235316687E+03 -0.87749263712E+02  0.14745946056E+03  0.99999687468E+00 0.  0.
          4    1    3    3  501    0  0.27962070018E+03  0.11479168174E+03 -0.68545731474E+03  0.74914390907E+03  0.00000000000E+00 0.  1.
   -9000007    1    1    2    0  502 -0.21989475552E+03 -0.12438514875E+02 -0.85300272297E+02  0.46452616354E+03  0.40000000000E+03 0.  1.
<mgrwt>
<rscale>  2 0.45595052E+03</rscale>
<asrwt>0</asrwt>
<pdfrwt beam="1">  1       21 0.38663282E-01 0.45662722E+03</pdfrwt>
<pdfrwt beam="2">  1       21 0.17074126E+00 0.45662722E+03</pdfrwt>
<totfact> 0.11434106E+03</totfact>
</mgrwt>
</event>
<event>
 6    1  0.9399121E-004  0.4095266E+03  0.7818608E-02  0.1040598E+00
         21   -1    0    0  503  502  0.00000000000E+00  0.00000000000E+00  0.98127455396E+02  0.98127455396E+02  0.00000000000E+00 0.  1.
         21   -1    0    0  501  503 -0.00000000000E+00 -0.00000000000E+00 -0.17062116019E+04  0.17062116019E+04  0.00000000000E+00 0.  1.
    9000007    2    1    2  501    0  0.27679017776E+01 -0.87774787724E+02 -0.78879641320E+03  0.88839994110E+03  0.39917740321E+03 0.  0.
    9000005    1    3    3    0    0  0.21006597006E+02 -0.22679001907E+03 -0.28159462856E+03  0.36217609625E+03  0.99999687468E+00 0.  0.
          4    1    3    3  501    0 -0.18238695228E+02  0.13901523135E+03 -0.50720178463E+03  0.52622384485E+03  0.00000000000E+00 0.  1.
   -9000007    1    1    2    0  502 -0.27679017776E+01  0.87774787724E+02 -0.81928773334E+03  0.91593911624E+03  0.40000000000E+03 0. -1.
<mgrwt>
<rscale>  2 0.40932564E+03</rscale>
<asrwt>0</asrwt>
<pdfrwt beam="1">  1       21 0.15096533E-01 0.40952665E+03</pdfrwt>
<pdfrwt beam="2">  1       21 0.26249407E+00 0.40952665E+03</pdfrwt>
<totfact> 0.18386424E+03</totfact>
</mgrwt>
</event>
<event>
 6    1  0.9399121E-004  0.4309731E+03  0.7818608E-02  0.1033564E+00
         21   -1    0    0  503  502  0.00000000000E+00  0.00000000000E+00  0.71415398617E+03  0.71415398617E+03  0.00000000000E+00 0. -1.
         21   -1    0    0  501  503 -0.00000000000E+00 -0.00000000000E+00 -0.80739675810E+03  0.80739675810E+03  0.00000000000E+00 0.  1.
    9000007    2    1    2  501    0  0.38884100032E+02  0.15527243568E+03 -0.67304179427E+03  0.79920151513E+03  0.40014535164E+03 0.  0.
    9000005    1    3    3    0    0 -0.48051417275E+02  0.18455221669E+03 -0.93409909193E+02  0.21235552857E+03  0.99999687468E+00 0.  0.
          4    1    3    3  501    0  0.86935517307E+02 -0.29279781002E+02 -0.57963188508E+03  0.58684598656E+03  0.00000000000E+00 0.  1.
   -9000007    1    1    2    0  502 -0.38884100032E+02 -0.15527243568E+03  0.57979902234E+03  0.72234922913E+03  0.40000000000E+03 0. -1.
<mgrwt>
<rscale>  2 0.43093935E+03</rscale>
<asrwt>0</asrwt>
<pdfrwt beam="1">  1       21 0.10986984E+00 0.43097309E+03</pdfrwt>
<pdfrwt beam="2">  1       21 0.12421489E+00 0.43097309E+03</pdfrwt>
<totfact> 0.26382620E+02</totfact>
</mgrwt>
</event>
