<event>
11    0  0.3482988E-009  0.9118800E+02  0.7816531E-02  0.1126479E+00
         25   -1    0    0    0    0  0.00000000000E+00  0.00000000000E+00  0.99999998245E-14  0.12500000000E+03  0.12500000000E+03 0.  0.
    3000001    1    3    3    0    0 -0.16424209205E+02  0.39618099816E+01  0.24853387742E+02  0.30068945252E+02  0.10000000000E+01 0.  1.
    1000022    2    1    0    0    0 -0.30596359741E+02  0.17808472386E+02  0.50526933261E+02  0.62500000468E+02  0.10000007782E+02 0.  0.
    3000022    2    3    3    0    0 -0.14172150536E+02  0.13846662404E+02  0.25673545519E+02  0.32431055215E+02  0.24998467677E+00 0.  0.
    1000022    2    1    0    0    0  0.30596359741E+02 -0.17808472386E+02 -0.50526933261E+02  0.62499999532E+02  0.10000001934E+02 0.  0.
    3000022    2    5    5    0    0  0.22708145422E+02 -0.15932988690E+02 -0.44124501237E+02  0.52120572763E+02  0.24999733658E+00 0.  0.
        -13    1    4    4    0    0 -0.77479433804E+01  0.74767378709E+01  0.13942106389E+02  0.17616060609E+02  0.10500000000E+00 0. -1.
         13    1    4    4    0    0 -0.64242071555E+01  0.63699245332E+01  0.11731439129E+02  0.14814994606E+02  0.10500000000E+00 0.  1.
    3000001    1    5    5    0    0  0.78882143189E+01 -0.18754836960E+01 -0.64024320242E+01  0.10379426769E+02  0.10000000000E+01 0. -1.
        -13    1    6    6    0    0  0.14029564130E+02 -0.98947411184E+01 -0.27390662277E+02  0.32326366583E+02  0.10500000000E+00 0. -1.
         13    1    6    6    0    0  0.86785812915E+01 -0.60382475712E+01 -0.16733838960E+02  0.19794206180E+02  0.10500000000E+00 0.  1.
</event>
<event>
11    0  0.3482988E-009  0.9118800E+02  0.7816531E-02  0.1126479E+00
         25   -1    0    0    0    0  0.00000000000E+00  0.00000000000E+00  0.99999998245E-14  0.12500000000E+03  0.12500000000E+03 0.  0.
    3000001    1    3    3    0    0  0.11100237391E+02 -0.20109610572E+02  0.37277248097E+02  0.43797316507E+02  0.10000000000E+01 0.  1.
    1000022    2    1    0    0    0  0.14717411952E+02 -0.22720879474E+02  0.55438338760E+02  0.62499999533E+02  0.99999979297E+01 0.  0.
    3000022    2    3    3    0    0  0.36171745605E+01 -0.26112689018E+01  0.18161090662E+02  0.18702683026E+02  0.24992249528E+00 0.  0.
    1000022    2    1    0    0    0 -0.14717411952E+02  0.22720879474E+02 -0.55438338760E+02  0.62500000467E+02  0.10000003765E+02 0.  0.
    3000022    2    5    5    0    0 -0.13834061820E+02  0.23287295174E+02 -0.54206521671E+02  0.60597762957E+02  0.25000167830E+00 0.  0.
        -13    1    4    4    0    0  0.10161536408E+01 -0.68718919243E+00  0.49857255256E+01  0.51354923060E+01  0.10500000000E+00 0.  1.
         13    1    4    4    0    0  0.26010209197E+01 -0.19240797093E+01  0.13175365137E+02  0.13567190720E+02  0.10500000000E+00 0. -1.
    3000001    1    5    5    0    0 -0.88335013220E+00 -0.56641570047E+00 -0.12318170888E+01  0.19022375094E+01  0.10000000000E+01 0.  1.
        -13    1    6    6    0    0 -0.98930617984E+01  0.16590763532E+02 -0.38594879718E+02  0.43159030014E+02  0.10500000000E+00 0. -1.
         13    1    6    6    0    0 -0.39410000212E+01  0.66965316424E+01 -0.15611641953E+02  0.17438732943E+02  0.10500000000E+00 0.  1.
</event>
<event>
11    0  0.3482988E-009  0.9118800E+02  0.7816531E-02  0.1126479E+00
         25   -1    0    0    0    0  0.00000000000E+00  0.00000000000E+00  0.99999998245E-14  0.12500000000E+03  0.12500000000E+03 0.  0.
    3000001    1    3    3    0    0  0.86186392648E+01 -0.73059587339E+01 -0.94998736205E+01  0.14795457904E+02  0.10000000000E+01 0. -1.
    1000022    2    1    0    0    0  0.26615631282E+02 -0.21521848968E+02 -0.51329020343E+02  0.62499999299E+02  0.99999885753E+01 0.  0.
    3000022    2    3    3    0    0  0.17996992017E+02 -0.14215890235E+02 -0.41829146722E+02  0.47704541395E+02  0.24999469821E+00 0.  0.
    1000022    2    1    0    0    0 -0.26615631282E+02  0.21521848968E+02  0.51329020343E+02  0.62500000701E+02  0.99999973344E+01 0.  0.
    3000022    2    5    5    0    0 -0.23978625008E+02  0.15719973454E+02  0.45635861862E+02  0.53896070491E+02  0.25000749468E+00 0.  0.
        -13    1    4    4    0    0  0.10577317963E+02 -0.83772353524E+01 -0.24480378431E+02  0.27952775900E+02  0.10500000000E+00 0.  1.
         13    1    4    4    0    0  0.74196740544E+01 -0.58386548821E+01 -0.17348768292E+02  0.19751765494E+02  0.10500000000E+00 0. -1.
    3000001    1    5    5    0    0 -0.26370062736E+01  0.58018755147E+01  0.56931584803E+01  0.86039302100E+01  0.10000000000E+01 0.  1.
        -13    1    6    6    0    0 -0.10005887231E+02  0.66040757612E+01  0.18982583330E+02  0.22451750284E+02  0.10500000000E+00 0.  1.
         13    1    6    6    0    0 -0.13972737777E+02  0.91158976925E+01  0.26653278533E+02  0.31444320207E+02  0.10500000000E+00 0. -1.
</event>
<event>
11    0  0.3482988E-009  0.9118800E+02  0.7816531E-02  0.1126479E+00
         25   -1    0    0    0    0  0.00000000000E+00  0.00000000000E+00  0.99999998245E-14  0.12500000000E+03  0.12500000000E+03 0.  0.
    3000001    1    3    3    0    0 -0.48656757462E+02  0.87281244736E+01  0.24776458642E+02  0.55304006242E+02  0.10000000000E+01 0. -1.
    1000022    2    1    0    0    0 -0.52559204889E+02  0.10898268582E+02  0.30413940019E+02  0.62499999579E+02  0.99999961602E+01 0.  0.
    3000022    2    3    3    0    0 -0.39024474267E+01  0.21701441085E+01  0.56374813776E+01  0.71959933370E+01  0.25000490678E+00 0.  0.
    1000022    2    1    0    0    0  0.52559204889E+02 -0.10898268582E+02 -0.30413940019E+02  0.62500000421E+02  0.10000001425E+02 0.  0.
    3000022    2    5    5    0    0 -0.20857510246E+00 -0.17319349440E+00  0.32290503914E+00  0.49016664457E+00  0.24999223043E+00 0.  0.
        -13    1    4    4    0    0 -0.19912967947E+01  0.11103897784E+01  0.29872750760E+01  0.37593969948E+01  0.10500000000E+00 0.  1.
         13    1    4    4    0    0 -0.19111506320E+01  0.10597543301E+01  0.26502063016E+01  0.34365963422E+01  0.10500000000E+00 0. -1.
    3000001    1    5    5    0    0  0.52767779991E+02 -0.10725075088E+02 -0.30736845058E+02  0.62009833777E+02  0.10000000000E+01 0. -1.
        -13    1    6    6    0    0 -0.18281263817E+00 -0.10801478136E+00  0.16836945299E+00  0.29062162061E+00  0.10500000000E+00 0. -1.
         13    1    6    6    0    0 -0.25762464291E-01 -0.65178713041E-01  0.15453558615E+00  0.19954502396E+00  0.10500000000E+00 0.  1.
</event>
<event>
11    0  0.3482988E-009  0.9118800E+02  0.7816531E-02  0.1126479E+00
         25   -1    0    0    0    0  0.00000000000E+00  0.00000000000E+00  0.99999998245E-14  0.12500000000E+03  0.12500000000E+03 0.  0.
    3000001    1    3    3    0    0  0.49527928444E+00 -0.41445464212E+01 -0.47642458937E-02  0.42921543897E+01  0.10000000000E+01 0. -1.
    1000022    2    1    0    0    0  0.26924118971E+02 -0.49360489009E+02  0.25394560873E+02  0.62499999552E+02  0.10000008220E+02 0.  0.
    3000022    2    3    3    0    0  0.26428839686E+02 -0.45215942588E+02  0.25399325119E+02  0.58207845162E+02  0.24998114848E+00 0.  0.
    1000022    2    1    0    0    0 -0.26924118971E+02  0.49360489009E+02 -0.25394560873E+02  0.62500000448E+02  0.10000013826E+02 0.  0.
    3000022    2    5    5    0    0  0.35464807480E+00  0.42965562547E+01 -0.96404261799E+00  0.44247097555E+01  0.25001468915E+00 0.  0.
        -13    1    4    4    0    0  0.15610257657E+02 -0.26828194417E+02  0.15072629917E+02  0.34505468515E+02  0.10500000000E+00 0. -1.
         13    1    4    4    0    0  0.10818582029E+02 -0.18387748171E+02  0.10326695203E+02  0.23702376647E+02  0.10500000000E+00 0.  1.
    3000001    1    5    5    0    0 -0.27278767045E+02  0.45063932755E+02 -0.24430518255E+02  0.58075290693E+02  0.10000000000E+01 0. -1.
        -13    1    6    6    0    0  0.19597392034E+00  0.18025788153E+01 -0.35980147422E+00  0.18515340298E+01  0.10500000000E+00 0.  1.
         13    1    6    6    0    0  0.15867415446E+00  0.24939774394E+01 -0.60424114377E+00  0.25731757257E+01  0.10500000000E+00 0. -1.
</event>
<event>
11    0  0.3482988E-009  0.9118800E+02  0.7816531E-02  0.1126479E+00
         25   -1    0    0    0    0  0.00000000000E+00  0.00000000000E+00  0.99999998245E-14  0.12500000000E+03  0.12500000000E+03 0.  0.
    3000001    1    3    3    0    0  0.18696951657E+02  0.34836672557E+02 -0.37576171591E+02  0.54553995523E+02  0.10000000000E+01 0.  1.
    1000022    2    1    0    0    0  0.22787183315E+02  0.41273364350E+02 -0.39793261626E+02  0.62499999688E+02  0.99999980991E+01 0.  0.
    3000022    2    3    3    0    0  0.40902316575E+01  0.64366917929E+01 -0.22170900347E+01  0.79460041645E+01  0.24999542302E+00 0.  0.
    1000022    2    1    0    0    0 -0.22787183315E+02 -0.41273364350E+02  0.39793261626E+02  0.62500000312E+02  0.10000002003E+02 0.  0.
    3000022    2    5    5    0    0 -0.15570859813E+02 -0.30103766426E+02  0.33844576288E+02  0.47897873758E+02  0.25007615141E+00 0.  0.
        -13    1    4    4    0    0  0.23351552184E+01  0.37608645060E+01 -0.12393872125E+01  0.45982776546E+01  0.10500000000E+00 0.  1.
         13    1    4    4    0    0  0.17550764391E+01  0.26758272869E+01 -0.97770282221E+00  0.33477265099E+01  0.10500000000E+00 0. -1.
    3000001    1    5    5    0    0 -0.72163235018E+01 -0.11169597924E+02  0.59486853381E+01  0.14602126555E+02  0.10000000000E+01 0. -1.
        -13    1    6    6    0    0 -0.83245707718E+01 -0.16236939546E+02  0.18241562600E+02  0.25801207635E+02  0.10500000000E+00 0.  1.
         13    1    6    6    0    0 -0.72462890411E+01 -0.13866826880E+02  0.15603013688E+02  0.22096666122E+02  0.10500000000E+00 0. -1.
</event>
<event>
11    0  0.3482988E-009  0.9118800E+02  0.7816531E-02  0.1126479E+00
         25   -1    0    0    0    0  0.00000000000E+00  0.00000000000E+00  0.99999998245E-14  0.12500000000E+03  0.12500000000E+03 0.  0.
    3000001    1    3    3    0    0  0.13845881042E+02  0.34377422627E+02 -0.48330446618E+01  0.37388152254E+02  0.10000000000E+01 0.  1.
    1000022    2    1    0    0    0  0.17883029952E+02  0.59009133470E+02 -0.20903028039E+01  0.62499999736E+02  0.10000000402E+02 0.  0.
    3000022    2    3    3    0    0  0.40371489096E+01  0.24631710843E+02  0.27427418579E+01  0.25111847481E+02  0.25000130089E+00 0.  0.
    1000022    2    1    0    0    0 -0.17883029952E+02 -0.59009133470E+02  0.20903028039E+01  0.62500000264E+02  0.10000003705E+02 0.  0.
    3000022    2    5    5    0    0 -0.25672283996E+01 -0.43911641529E+01  0.26979403688E+01  0.57631905823E+01  0.24999835935E+00 0.  0.
        -13    1    4    4    0    0  0.12778556646E+01  0.75050138129E+01  0.83584712943E+00  0.76594916838E+01  0.10500000000E+00 0.  1.
         13    1    4    4    0    0  0.27592932449E+01  0.17126697030E+02  0.19068947285E+01  0.17452355797E+02  0.10500000000E+00 0. -1.
    3000001    1    5    5    0    0 -0.15315801552E+02 -0.54617969317E+02 -0.60763756491E+00  0.56736809682E+02  0.10000000000E+01 0.  1.
        -13    1    6    6    0    0 -0.15686611177E+01 -0.25592089176E+01  0.16064628688E+01  0.34061702739E+01  0.10500000000E+00 0.  1.
         13    1    6    6    0    0 -0.99856728194E+00 -0.18319552353E+01  0.10914775000E+01  0.23570203083E+01  0.10500000000E+00 0. -1.
</event>
<event>
11    0  0.3482988E-009  0.9118800E+02  0.7816531E-02  0.1126479E+00
         25   -1    0    0    0    0  0.00000000000E+00  0.00000000000E+00  0.99999998245E-14  0.12500000000E+03  0.12500000000E+03 0.  0.
    3000001    1    3    3    0    0 -0.55730675355E+01 -0.17553508184E+02 -0.14056553125E+02  0.23189899031E+02  0.10000000000E+01 0.  1.
    1000022    2    1    0    0    0 -0.13099345431E+02 -0.38156316318E+02 -0.46677112416E+02  0.62499998826E+02  0.99999852006E+01 0.  0.
    3000022    2    3    3    0    0 -0.75262778959E+01 -0.20602808134E+02 -0.32620559291E+02  0.39310099794E+02  0.24999083790E+00 0.  0.
    1000022    2    1    0    0    0  0.13099345431E+02  0.38156316318E+02  0.46677112416E+02  0.62500001174E+02  0.99999998812E+01 0.  0.
    3000022    2    5    5    0    0  0.39036160297E+01  0.23295686623E+01  0.47192692576E+01  0.65573708348E+01  0.25000335974E+00 0.  0.
        -13    1    4    4    0    0 -0.51065857661E+01 -0.14081708023E+02 -0.22339533109E+02  0.26896793184E+02  0.10500000000E+00 0.  1.
         13    1    4    4    0    0 -0.24196921298E+01 -0.65211001108E+01 -0.10281026182E+02  0.12413306610E+02  0.10500000000E+00 0. -1.
    3000001    1    5    5    0    0  0.91957294017E+01  0.35826747655E+02  0.41957843159E+02  0.55942630340E+02  0.10000000000E+01 0. -1.
        -13    1    6    6    0    0  0.24536476626E+01  0.15283306868E+01  0.30281872495E+01  0.41877350153E+01  0.10500000000E+00 0.  1.
         13    1    6    6    0    0  0.14499683671E+01  0.80123797544E+00  0.16910820081E+01  0.23696358195E+01  0.10500000000E+00 0. -1.
</event>
<event>
11    0  0.3482988E-009  0.9118800E+02  0.7816531E-02  0.1126479E+00
         25   -1    0    0    0    0  0.00000000000E+00  0.00000000000E+00  0.99999998245E-14  0.12500000000E+03  0.12500000000E+03 0.  0.
    3000001    1    3    3    0    0 -0.30046181711E+01  0.38555750007E+01 -0.10708221179E+01  0.51029255284E+01  0.10000000000E+01 0.  1.
    1000022    2    1    0    0    0 -0.26104836166E+02  0.53648457360E+02  0.15704471214E+02  0.62500000165E+02  0.10000007805E+02 0.  0.
    3000022    2    3    3    0    0 -0.23100217995E+02  0.49792882359E+02  0.16775293332E+02  0.57397074636E+02  0.25001070414E+00 0.  0.
    1000022    2    1    0    0    0  0.26104836166E+02 -0.53648457360E+02 -0.15704471214E+02  0.62499999835E+02  0.10000005748E+02 0.  0.
    3000022    2    5    5    0    0  0.11327360139E+02 -0.14580777154E+02 -0.22281742728E+01  0.18599339093E+02  0.25000792755E+00 0.  0.
        -13    1    4    4    0    0 -0.10801608100E+02  0.23440700804E+02  0.78752942813E+01  0.26984671143E+02  0.10500000000E+00 0. -1.
         13    1    4    4    0    0 -0.12298609895E+02  0.26352181556E+02  0.88999990511E+01  0.30412403493E+02  0.10500000000E+00 0.  1.
    3000001    1    5    5    0    0  0.14777476027E+02 -0.39067680206E+02 -0.13476296942E+02  0.43900660743E+02  0.10000000000E+01 0. -1.
        -13    1    6    6    0    0  0.74384135839E+01 -0.94888013867E+01 -0.14737955470E+01  0.12147034482E+02  0.10500000000E+00 0.  1.
         13    1    6    6    0    0  0.38889465549E+01 -0.50919757676E+01 -0.75437872573E+00  0.64523046105E+01  0.10500000000E+00 0. -1.
</event>
<event>
11    0  0.3482988E-009  0.9118800E+02  0.7816531E-02  0.1126479E+00
         25   -1    0    0    0    0  0.00000000000E+00  0.00000000000E+00  0.99999998245E-14  0.12500000000E+03  0.12500000000E+03 0.  0.
    3000001    1    3    3    0    0  0.42731917958E+01 -0.46546954812E+01  0.10897697651E+02  0.12636699421E+02  0.10000000000E+01 0. -1.
    1000022    2    1    0    0    0  0.80798589671E+01 -0.36483381902E+02  0.49091025084E+02  0.62500000163E+02  0.10000000036E+02 0.  0.
    3000022    2    3    3    0    0  0.38066671713E+01 -0.31828686421E+02  0.38193327432E+02  0.49863300743E+02  0.25001277491E+00 0.  0.
    1000022    2    1    0    0    0 -0.80798589671E+01  0.36483381902E+02 -0.49091025084E+02  0.62499999837E+02  0.99999979935E+01 0.  0.
    3000022    2    5    5    0    0 -0.64047310919E+01  0.24508741091E+02 -0.39967769522E+02  0.47320017360E+02  0.24994427354E+00 0.  0.
        -13    1    4    4    0    0  0.11857187648E+01 -0.95565744707E+01  0.11501399947E+02  0.15000908984E+02  0.10500000000E+00 0. -1.
         13    1    4    4    0    0  0.26209484065E+01 -0.22272111950E+02  0.26691927485E+02  0.34862391759E+02  0.10500000000E+00 0.  1.
    3000001    1    5    5    0    0 -0.16751278752E+01  0.11974640811E+02 -0.91232555615E+01  0.15179982477E+02  0.10000000000E+01 0. -1.
        -13    1    6    6    0    0 -0.29307696828E+01  0.11481197129E+02 -0.18696773639E+02  0.22135665067E+02  0.10500000000E+00 0. -1.
         13    1    6    6    0    0 -0.34739614091E+01  0.13027543962E+02 -0.21270995884E+02  0.25184352293E+02  0.10500000000E+00 0.  1.
</event>
<event>
11    0  0.3482988E-009  0.9118800E+02  0.7816531E-02  0.1126479E+00
         25   -1    0    0    0    0  0.00000000000E+00  0.00000000000E+00  0.99999998245E-14  0.12500000000E+03  0.12500000000E+03 0.  0.
    3000001    1    3    3    0    0 -0.10504478424E+02 -0.91734463797E+01 -0.17391903884E+02  0.22315342394E+02  0.10000000000E+01 0.  1.
    1000022    2    1    0    0    0 -0.16906962866E+02 -0.27381973438E+02 -0.52636792592E+02  0.62500003076E+02  0.10000029371E+02 0.  0.
    3000022    2    3    3    0    0 -0.64024844419E+01 -0.18208527058E+02 -0.35244888708E+02  0.40184660682E+02  0.25001889162E+00 0.  0.
    1000022    2    1    0    0    0  0.16906962866E+02  0.27381973438E+02  0.52636792592E+02  0.62499996924E+02  0.99999909226E+01 0.  0.
    3000022    2    5    5    0    0  0.57679489576E+01  0.95780006570E+01  0.10182338792E+02  0.15124478720E+02  0.25000304678E+00 0.  0.
        -13    1    4    4    0    0 -0.39411826281E+01 -0.11066618278E+02 -0.21365985413E+02  0.24382766830E+02  0.10500000000E+00 0. -1.
         13    1    4    4    0    0 -0.24613018139E+01 -0.71419087798E+01 -0.13878903294E+02  0.15801893851E+02  0.10500000000E+00 0.  1.
    3000001    1    5    5    0    0  0.11139013908E+02  0.17803972781E+02  0.42454453800E+02  0.47375518204E+02  0.10000000000E+01 0. -1.
        -13    1    6    6    0    0  0.21251968907E+01  0.34359648388E+01  0.36350408424E+01  0.54357026338E+01  0.10500000000E+00 0. -1.
         13    1    6    6    0    0  0.36427520669E+01  0.61420358183E+01  0.65472979496E+01  0.96887760865E+01  0.10500000000E+00 0.  1.
</event>
<event>
11    0  0.3482988E-009  0.9118800E+02  0.7816531E-02  0.1126479E+00
         25   -1    0    0    0    0  0.00000000000E+00  0.00000000000E+00  0.99999998245E-14  0.12500000000E+03  0.12500000000E+03 0.  0.
    3000001    1    3    3    0    0 -0.19896566654E+01  0.25459810179E+01 -0.77656393124E+00  0.34704184948E+01  0.10000000000E+01 0. -1.
    1000022    2    1    0    0    0 -0.18845642607E+02  0.56029134773E+02  0.17658648243E+02  0.62500000397E+02  0.10000000161E+02 0.  0.
    3000022    2    3    3    0    0 -0.16855985941E+02  0.53483153755E+02  0.18435212174E+02  0.59029581902E+02  0.24998804924E+00 0.  0.
    1000022    2    1    0    0    0  0.18845642607E+02 -0.56029134773E+02 -0.17658648243E+02  0.62499999603E+02  0.99999951954E+01 0.  0.
    3000022    2    5    5    0    0  0.24925274713E+01 -0.22353121490E+02 -0.71935628875E+01  0.23615346373E+02  0.25000755884E+00 0.  0.
        -13    1    4    4    0    0 -0.51631609033E+01  0.16248160735E+02  0.55797466792E+01  0.17938939650E+02  0.10500000000E+00 0. -1.
         13    1    4    4    0    0 -0.11692825038E+02  0.37234993020E+02  0.12855465495E+02  0.41090642252E+02  0.10500000000E+00 0.  1.
    3000001    1    5    5    0    0  0.16353115136E+02 -0.33676013283E+02 -0.10465085355E+02  0.38884653230E+02  0.10000000000E+01 0.  1.
        -13    1    6    6    0    0  0.10991870262E+01 -0.10212257947E+02 -0.32281779929E+01  0.10767106512E+02  0.10500000000E+00 0.  1.
         13    1    6    6    0    0  0.13933404451E+01 -0.12140863543E+02 -0.39653848947E+01  0.12848239861E+02  0.10500000000E+00 0. -1.
</event>
<event>
11    0  0.3482988E-009  0.9118800E+02  0.7816531E-02  0.1126479E+00
         25   -1    0    0    0    0  0.00000000000E+00  0.00000000000E+00  0.99999998245E-14  0.12500000000E+03  0.12500000000E+03 0.  0.
    3000001    1    3    3    0    0 -0.17275653442E+02 -0.21691731826E+02  0.12203296300E+01  0.27775324226E+02  0.10000000000E+01 0.  1.
    1000022    2    1    0    0    0 -0.37012468362E+02 -0.48682716079E+02 -0.81437219529E+01  0.62499999265E+02  0.10000002086E+02 0.  0.
    3000022    2    3    3    0    0 -0.19736814920E+02 -0.26990984253E+02 -0.93640515828E+01  0.34724675038E+02  0.25000066273E+00 0.  0.
    1000022    2    1    0    0    0  0.37012468362E+02  0.48682716079E+02  0.81437219529E+01  0.62500000735E+02  0.10000011278E+02 0.  0.
    3000022    2    5    5    0    0  0.25941598607E+02  0.32293163583E+02  0.96168806398E+00  0.41434313019E+02  0.24999794291E+00 0.  0.
        -13    1    4    4    0    0 -0.96493134454E+01 -0.13193697563E+02 -0.46479530217E+01  0.16994040062E+02  0.10500000000E+00 0.  1.
         13    1    4    4    0    0 -0.10087501475E+02 -0.13797286691E+02 -0.47160985612E+01  0.17730634976E+02  0.10500000000E+00 0. -1.
    3000001    1    5    5    0    0  0.11070869755E+02  0.16389552497E+02  0.71820338889E+01  0.21065687716E+02  0.10000000000E+01 0.  1.
        -13    1    6    6    0    0  0.19248494077E+02  0.23976568219E+02  0.68484456415E+00  0.30754843275E+02  0.10500000000E+00 0.  1.
         13    1    6    6    0    0  0.66931045303E+01  0.83165953636E+01  0.27684349983E+00  0.10679469744E+02  0.10500000000E+00 0. -1.
</event>
<event>
11    0  0.3482988E-009  0.9118800E+02  0.7816531E-02  0.1126479E+00
         25   -1    0    0    0    0  0.00000000000E+00  0.00000000000E+00  0.99999998245E-14  0.12500000000E+03  0.12500000000E+03 0.  0.
    3000001    1    3    3    0    0  0.19987963212E+02 -0.15403353266E+02 -0.24722146957E+02  0.35340720357E+02  0.10000000000E+01 0. -1.
    1000022    2    1    0    0    0  0.29889956600E+02 -0.33790698980E+02 -0.42083597415E+02  0.62499999075E+02  0.99999934956E+01 0.  0.
    3000022    2    3    3    0    0  0.99019933885E+01 -0.18387345713E+02 -0.17361450458E+02  0.27159278718E+02  0.25000605409E+00 0.  0.
    1000022    2    1    0    0    0 -0.29889956600E+02  0.33790698980E+02  0.42083597415E+02  0.62500000925E+02  0.10000005056E+02 0.  0.
    3000022    2    5    5    0    0 -0.48706221736E+01  0.12071423391E+02  0.10678811769E+02  0.16838697957E+02  0.25001009577E+00 0.  0.
        -13    1    4    4    0    0  0.29001406473E+01 -0.54088276788E+01 -0.50470797110E+01  0.79467144936E+01  0.10500000000E+00 0. -1.
         13    1    4    4    0    0  0.70018527412E+01 -0.12978518035E+02 -0.12314370747E+02  0.19212564224E+02  0.10500000000E+00 0.  1.
    3000001    1    5    5    0    0 -0.25019334427E+02  0.21719275589E+02  0.31404785646E+02  0.45661302968E+02  0.10000000000E+01 0. -1.
        -13    1    6    6    0    0 -0.34642028823E+01  0.84694220492E+01  0.74910168761E+01  0.11826164649E+02  0.10500000000E+00 0.  1.
         13    1    6    6    0    0 -0.14064192912E+01  0.36020013418E+01  0.31877948929E+01  0.50125333084E+01  0.10500000000E+00 0. -1.
</event>
<event>
11    0  0.3482988E-009  0.9118800E+02  0.7816531E-02  0.1126479E+00
         25   -1    0    0    0    0  0.00000000000E+00  0.00000000000E+00  0.99999998245E-14  0.12500000000E+03  0.12500000000E+03 0.  0.
    3000001    1    3    3    0    0  0.59648500517E+01  0.80684882725E+01  0.85056913899E+01  0.13191918934E+02  0.10000000000E+01 0.  1.
    1000022    2    1    0    0    0  0.10816060746E+02  0.37898626110E+02  0.47465324220E+02  0.62499999955E+02  0.99999979976E+01 0.  0.
    3000022    2    3    3    0    0  0.48512106947E+01  0.29830137838E+02  0.38959632830E+02  0.49308081021E+02  0.24999017768E+00 0.  0.
    1000022    2    1    0    0    0 -0.10816060746E+02 -0.37898626110E+02 -0.47465324220E+02  0.62500000045E+02  0.99999985605E+01 0.  0.
    3000022    2    5    5    0    0 -0.15120393470E+01 -0.12131794072E+02 -0.21541117927E+02  0.24769920276E+02  0.24999705650E+00 0.  0.
        -13    1    4    4    0    0  0.24805554711E+01  0.14849475017E+02  0.19440516232E+02  0.24588712046E+02  0.10500000000E+00 0.  1.
         13    1    4    4    0    0  0.23706552236E+01  0.14980662821E+02  0.19519116598E+02  0.24719368975E+02  0.10500000000E+00 0. -1.
    3000001    1    5    5    0    0 -0.93040213994E+01 -0.25766832038E+02 -0.25924206293E+02  0.37730079769E+02  0.10000000000E+01 0. -1.
        -13    1    6    6    0    0 -0.75568596731E+00 -0.60419715780E+01 -0.10591398524E+02  0.12217415010E+02  0.10500000000E+00 0. -1.
         13    1    6    6    0    0 -0.75635337970E+00 -0.60898224943E+01 -0.10949719403E+02  0.12552505266E+02  0.10500000000E+00 0.  1.
</event>
<event>
11    0  0.3482988E-009  0.9118800E+02  0.7816531E-02  0.1126479E+00
         25   -1    0    0    0    0  0.00000000000E+00  0.00000000000E+00  0.99999998245E-14  0.12500000000E+03  0.12500000000E+03 0.  0.
    3000001    1    3    3    0    0  0.60749599082E+01 -0.49735745164E+02 -0.24725257351E+02  0.55882804475E+02  0.10000000000E+01 0.  1.
    1000022    2    1    0    0    0  0.84314878418E+01 -0.55913844701E+02 -0.24673912507E+02  0.62499999761E+02  0.99999997606E+01 0.  0.
    3000022    2    3    3    0    0  0.23565279336E+01 -0.61780995373E+01  0.51344844138E-01  0.66171952860E+01  0.24999873173E+00 0.  0.
    1000022    2    1    0    0    0 -0.84314878418E+01  0.55913844701E+02  0.24673912507E+02  0.62500000239E+02  0.10000002752E+02 0.  0.
    3000022    2    5    5    0    0 -0.68057271171E+01  0.53605746362E+02  0.21558473567E+02  0.58178382988E+02  0.24999995852E+00 0.  0.
        -13    1    4    4    0    0  0.10400320719E+01 -0.25465401831E+01  0.15176736096E-01  0.27527784052E+01  0.10500000000E+00 0.  1.
         13    1    4    4    0    0  0.13164958616E+01 -0.36315593542E+01  0.36168108041E-01  0.38644168808E+01  0.10500000000E+00 0. -1.
    3000001    1    5    5    0    0 -0.16257607247E+01  0.23080983389E+01  0.31154389397E+01  0.43216172509E+01  0.10000000000E+01 0.  1.
        -13    1    6    6    0    0 -0.25818354161E+01  0.19864141449E+02  0.79865745791E+01  0.21564934225E+02  0.10500000000E+00 0.  1.
         13    1    6    6    0    0 -0.42238917011E+01  0.33741604912E+02  0.13571898988E+02  0.36613448763E+02  0.10500000000E+00 0. -1.
</event>
<event>
11    0  0.3482988E-009  0.9118800E+02  0.7816531E-02  0.1126479E+00
         25   -1    0    0    0    0  0.00000000000E+00  0.00000000000E+00  0.99999998245E-14  0.12500000000E+03  0.12500000000E+03 0.  0.
    3000001    1    3    3    0    0 -0.19608951025E+02  0.37027665917E+02 -0.21729315118E+02  0.47209343768E+02  0.10000000000E+01 0.  1.
    1000022    2    1    0    0    0 -0.28358163175E+02  0.44763293422E+02 -0.31596079680E+02  0.62500000617E+02  0.99999984714E+01 0.  0.
    3000022    2    3    3    0    0 -0.87492121498E+01  0.77356275051E+01 -0.98667645623E+01  0.15290656849E+02  0.24999563205E+00 0.  0.
    1000022    2    1    0    0    0  0.28358163175E+02 -0.44763293422E+02  0.31596079680E+02  0.62499999383E+02  0.99999907534E+01 0.  0.
    3000022    2    5    5    0    0  0.24485969787E+02 -0.40506507813E+02  0.31105279118E+02  0.56638686343E+02  0.25002019000E+00 0.  0.
        -13    1    4    4    0    0 -0.36132324639E+01  0.32200749503E+01 -0.40089071694E+01  0.62854350062E+01  0.10500000000E+00 0. -1.
         13    1    4    4    0    0 -0.51359796859E+01  0.45155525548E+01 -0.58578573929E+01  0.90052218432E+01  0.10500000000E+00 0.  1.
    3000001    1    5    5    0    0  0.38721933878E+01 -0.42567856086E+01  0.49080056220E+00  0.58613130391E+01  0.10000000000E+01 0.  1.
        -13    1    6    6    0    0  0.73413089262E+01 -0.12132333616E+02  0.93734082681E+01  0.16998827703E+02  0.10500000000E+00 0. -1.
         13    1    6    6    0    0  0.17144660861E+02 -0.28374174197E+02  0.21731870850E+02  0.39639858640E+02  0.10500000000E+00 0.  1.
</event>
<event>
11    0  0.3482988E-009  0.9118800E+02  0.7816531E-02  0.1126479E+00
         25   -1    0    0    0    0  0.00000000000E+00  0.00000000000E+00  0.99999998245E-14  0.12500000000E+03  0.12500000000E+03 0.  0.
    3000001    1    3    3    0    0  0.65438871349E+01  0.43629932606E+01  0.37539791950E+00  0.79371967737E+01  0.10000000000E+01 0.  1.
    1000022    2    1    0    0    0  0.33515064372E+02  0.51177693141E+02  0.79896267338E+01  0.62500000204E+02  0.10000003753E+02 0.  0.
    3000022    2    3    3    0    0  0.26971177237E+02  0.46814699881E+02  0.76142288143E+01  0.54562803431E+02  0.25002256372E+00 0.  0.
    1000022    2    1    0    0    0 -0.33515064372E+02 -0.51177693141E+02 -0.79896267338E+01  0.62499999796E+02  0.10000001200E+02 0.  0.
    3000022    2    5    5    0    0 -0.19958320571E+02 -0.31147485157E+02 -0.96618486691E+01  0.38234986698E+02  0.24999309784E+00 0.  0.
        -13    1    4    4    0    0  0.17497358835E+02  0.30328075652E+02  0.48812034189E+01  0.35352325394E+02  0.10500000000E+00 0. -1.
         13    1    4    4    0    0  0.94738184023E+01  0.16486624229E+02  0.27330253954E+01  0.19210478037E+02  0.10500000000E+00 0.  1.
    3000001    1    5    5    0    0 -0.13556743801E+02 -0.20030207985E+02  0.16722219354E+01  0.24265013097E+02  0.10000000000E+01 0.  1.
        -13    1    6    6    0    0 -0.12668715125E+02 -0.19752333743E+02 -0.60687615638E+01  0.24238232674E+02  0.10500000000E+00 0.  1.
         13    1    6    6    0    0 -0.72896054458E+01 -0.11395151413E+02 -0.35930871054E+01  0.13996754025E+02  0.10500000000E+00 0. -1.
</event>
<event>
11    0  0.3482988E-009  0.9118800E+02  0.7816531E-02  0.1126479E+00
         25   -1    0    0    0    0  0.00000000000E+00  0.00000000000E+00  0.99999998245E-14  0.12500000000E+03  0.12500000000E+03 0.  0.
    3000001    1    3    3    0    0  0.21486535143E+01 -0.61574561365E+00  0.21017496639E+01  0.32269499895E+01  0.10000000000E+01 0. -1.
    1000022    2    1    0    0    0  0.42427856710E+02 -0.41696270278E+02  0.16356884873E+02  0.62500005396E+02  0.10000050582E+02 0.  0.
    3000022    2    3    3    0    0  0.40279203196E+02 -0.41080524665E+02  0.14255135209E+02  0.59273055407E+02  0.25000118792E+00 0.  0.
    1000022    2    1    0    0    0 -0.42427856710E+02  0.41696270278E+02 -0.16356884873E+02  0.62499994604E+02  0.99999831274E+01 0.  0.
    3000022    2    5    5    0    0 -0.33504937449E+02  0.30078604302E+02 -0.84117703313E+01  0.45805279992E+02  0.25004962064E+00 0.  0.
        -13    1    4    4    0    0  0.19097930264E+02 -0.19507084026E+02  0.68303849490E+01  0.28141116735E+02  0.10500000000E+00 0. -1.
         13    1    4    4    0    0  0.21181272932E+02 -0.21573440639E+02  0.74247502602E+01  0.31131938672E+02  0.10500000000E+00 0.  1.
    3000001    1    5    5    0    0 -0.89229192609E+01  0.11617665977E+02 -0.79451145418E+01  0.16694714612E+02  0.10000000000E+01 0.  1.
        -13    1    6    6    0    0 -0.15922812088E+02  0.14208904837E+02 -0.40098439447E+01  0.21714483529E+02  0.10500000000E+00 0.  1.
         13    1    6    6    0    0 -0.17582125361E+02  0.15869699465E+02 -0.44019263866E+01  0.24090796463E+02  0.10500000000E+00 0. -1.
</event>
<event>
11    0  0.3482988E-009  0.9118800E+02  0.7816531E-02  0.1126479E+00
         25   -1    0    0    0    0  0.00000000000E+00  0.00000000000E+00  0.99999998245E-14  0.12500000000E+03  0.12500000000E+03 0.  0.
    3000001    1    3    3    0    0  0.44782036707E+00 -0.10949907951E+02 -0.44683419750E+01  0.11877167475E+02  0.10000000000E+01 0.  1.
    1000022    2    1    0    0    0 -0.56894689199E+01 -0.47538051135E+02 -0.38910326145E+02  0.62500001513E+02  0.10000017303E+02 0.  0.
    3000022    2    3    3    0    0 -0.61372892870E+01 -0.36588143184E+02 -0.34441984170E+02  0.50622834038E+02  0.25002202219E+00 0.  0.
    1000022    2    1    0    0    0  0.56894689199E+01  0.47538051135E+02  0.38910326145E+02  0.62499998487E+02  0.99999983920E+01 0.  0.
    3000022    2    5    5    0    0  0.29857245287E+01  0.99371614673E+01  0.40393660444E+01  0.11137356461E+02  0.25000382265E+00 0.  0.
        -13    1    4    4    0    0 -0.19984110411E+01 -0.12168001829E+02 -0.11403185693E+02  0.16795760899E+02  0.10500000000E+00 0. -1.
         13    1    4    4    0    0 -0.41388782458E+01 -0.24420141355E+02 -0.23038798477E+02  0.33827073139E+02  0.10500000000E+00 0.  1.
    3000001    1    5    5    0    0  0.27037443912E+01  0.37600889668E+02  0.34870960101E+02  0.51362642026E+02  0.10000000000E+01 0. -1.
        -13    1    6    6    0    0  0.73812525938E+00  0.25334800654E+01  0.10476422304E+01  0.28411141095E+01  0.10500000000E+00 0.  1.
         13    1    6    6    0    0  0.22475992693E+01  0.74036814019E+01  0.29917238140E+01  0.82962423516E+01  0.10500000000E+00 0. -1.
</event>
<event>
11    0  0.3482988E-009  0.9118800E+02  0.7816531E-02  0.1126479E+00
         25   -1    0    0    0    0  0.00000000000E+00  0.00000000000E+00  0.99999998245E-14  0.12500000000E+03  0.12500000000E+03 0.  0.
    3000001    1    3    3    0    0 -0.49769380793E+01 -0.10585080613E+02 -0.17862848541E+00  0.11740773073E+02  0.10000000000E+01 0. -1.
    1000022    2    1    0    0    0 -0.25517692882E+02 -0.52208200058E+02 -0.20721997856E+02  0.62500000836E+02  0.10000005304E+02 0.  0.
    3000022    2    3    3    0    0 -0.20540754803E+02 -0.41623119445E+02 -0.20543369370E+02  0.50759227763E+02  0.24999556438E+00 0.  0.
    1000022    2    1    0    0    0  0.25517692882E+02  0.52208200058E+02  0.20721997856E+02  0.62499999164E+02  0.99999948486E+01 0.  0.
    3000022    2    5    5    0    0  0.13507323365E+02  0.37211831863E+02  0.11926335133E+02  0.41345715490E+02  0.25000924757E+00 0.  0.
        -13    1    4    4    0    0 -0.75070135954E+01 -0.15194618947E+02 -0.74373627711E+01  0.18508297816E+02  0.10500000000E+00 0.  1.
         13    1    4    4    0    0 -0.13033741208E+02 -0.26428500498E+02 -0.13106006599E+02  0.32250929947E+02  0.10500000000E+00 0. -1.
    3000001    1    5    5    0    0  0.12010369518E+02  0.14996368195E+02  0.87956627230E+01  0.21154283673E+02  0.10000000000E+01 0.  1.
        -13    1    6    6    0    0  0.51256045623E+01  0.13946414020E+02  0.44663177267E+01  0.15515582657E+02  0.10500000000E+00 0.  1.
         13    1    6    6    0    0  0.83817188023E+01  0.23265417843E+02  0.74600174060E+01  0.25830132833E+02  0.10500000000E+00 0. -1.
</event>
<event>
11    0  0.3482988E-009  0.9118800E+02  0.7816531E-02  0.1126479E+00
         25   -1    0    0    0    0  0.00000000000E+00  0.00000000000E+00  0.99999998245E-14  0.12500000000E+03  0.12500000000E+03 0.  0.
    3000001    1    3    3    0    0 -0.47415081534E+01  0.59706517076E+01 -0.54096172064E+01  0.94018370387E+01  0.10000000000E+01 0.  1.
    1000022    2    1    0    0    0 -0.38780142875E+02  0.19408961738E+02 -0.43882147283E+02  0.62499999974E+02  0.99999934692E+01 0.  0.
    3000022    2    3    3    0    0 -0.34038634722E+02  0.13438310030E+02 -0.38472530077E+02  0.53098162935E+02  0.25001277497E+00 0.  0.
    1000022    2    1    0    0    0  0.38780142875E+02 -0.19408961738E+02  0.43882147283E+02  0.62500000026E+02  0.99999937962E+01 0.  0.
    3000022    2    5    5    0    0  0.12102696742E+02 -0.10278708566E+02  0.19978689965E+02  0.25521317965E+02  0.24999953748E+00 0.  0.
        -13    1    4    4    0    0 -0.13020194064E+02  0.51949603247E+01 -0.14787013403E+02  0.20375962717E+02  0.10500000000E+00 0.  1.
         13    1    4    4    0    0 -0.21018440658E+02  0.82433497056E+01 -0.23685516673E+02  0.32722200219E+02  0.10500000000E+00 0. -1.
    3000001    1    5    5    0    0  0.26677446134E+02 -0.91302531721E+01  0.23903457318E+02  0.36978682061E+02  0.10000000000E+01 0.  1.
        -13    1    6    6    0    0  0.56640588096E+01 -0.47877514024E+01  0.94362743756E+01  0.12002434119E+02  0.10500000000E+00 0.  1.
         13    1    6    6    0    0  0.64386379320E+01 -0.54909571634E+01  0.10542415589E+02  0.13518883846E+02  0.10500000000E+00 0. -1.
</event>
<event>
11    0  0.3482988E-009  0.9118800E+02  0.7816531E-02  0.1126479E+00
         25   -1    0    0    0    0  0.00000000000E+00  0.00000000000E+00  0.99999998245E-14  0.12500000000E+03  0.12500000000E+03 0.  0.
    3000001    1    3    3    0    0 -0.18781283100E+02  0.17219634129E+02  0.58156191690E+00  0.25506677728E+02  0.10000000000E+01 0.  1.
    1000022    2    1    0    0    0 -0.43261901899E+02  0.42023634373E+02  0.12987378859E+02  0.62500000357E+02  0.10000001655E+02 0.  0.
    3000022    2    3    3    0    0 -0.24480618799E+02  0.24804000244E+02  0.12405816943E+02  0.36993322629E+02  0.25000051044E+00 0.  0.
    1000022    2    1    0    0    0  0.43261901899E+02 -0.42023634373E+02 -0.12987378859E+02  0.62499999643E+02  0.99999971957E+01 0.  0.
    3000022    2    5    5    0    0  0.25625155988E+01 -0.69017192436E+01 -0.17074006162E+01  0.75616079963E+01  0.24996782651E+00 0.  0.
        -13    1    4    4    0    0 -0.15519553418E+02  0.15714699904E+02  0.79243192980E+01  0.23465169778E+02  0.10500000000E+00 0.  1.
         13    1    4    4    0    0 -0.89610653805E+01  0.90893003397E+01  0.44814976446E+01  0.13528152851E+02  0.10500000000E+00 0. -1.
    3000001    1    5    5    0    0  0.40699386300E+02 -0.35121915130E+02 -0.11279978243E+02  0.54938391647E+02  0.10000000000E+01 0. -1.
        -13    1    6    6    0    0  0.19502662528E+01 -0.52520094246E+01 -0.12797276987E+01  0.57476838322E+01  0.10500000000E+00 0. -1.
         13    1    6    6    0    0  0.61224934603E+00 -0.16497098190E+01 -0.42767291744E+00  0.18139241640E+01  0.10500000000E+00 0.  1.
</event>
<event>
11    0  0.3482988E-009  0.9118800E+02  0.7816531E-02  0.1126479E+00
         25   -1    0    0    0    0  0.00000000000E+00  0.00000000000E+00  0.99999998245E-14  0.12500000000E+03  0.12500000000E+03 0.  0.
    3000001    1    3    3    0    0 -0.89352691144E+00 -0.38058038654E+02  0.39762185281E+02  0.55056735054E+02  0.10000000000E+01 0. -1.
    1000022    2    1    0    0    0  0.20137863150E+01 -0.43950991303E+02  0.43249342141E+02  0.62499995317E+02  0.99999423554E+01 0.  0.
    3000022    2    3    3    0    0  0.29073132264E+01 -0.58929526487E+01  0.34871568605E+01  0.74432602623E+01  0.24999849461E+00 0.  0.
    1000022    2    1    0    0    0 -0.20137863150E+01  0.43950991303E+02 -0.43249342141E+02  0.62500004683E+02  0.10000000899E+02 0.  0.
    3000022    2    5    5    0    0 -0.10382736872E+01  0.23994245697E+02 -0.30318818378E+02  0.38679388301E+02  0.24998533179E+00 0.  0.
        -13    1    4    4    0    0  0.81778634980E+00 -0.16620122114E+01  0.10297421763E+01  0.21218984553E+01  0.10500000000E+00 0.  1.
         13    1    4    4    0    0  0.20895268766E+01 -0.42309404373E+01  0.24574146842E+01  0.53213618071E+01  0.10500000000E+00 0. -1.
    3000001    1    5    5    0    0 -0.97551262780E+00  0.19956745606E+02 -0.12930523763E+02  0.23820616382E+02  0.10000000000E+01 0. -1.
        -13    1    6    6    0    0 -0.29359366358E+00  0.63460544905E+01 -0.80653847817E+01  0.10267427210E+02  0.10500000000E+00 0. -1.
         13    1    6    6    0    0 -0.74468002359E+00  0.17648191207E+02 -0.22253433597E+02  0.28411961091E+02  0.10500000000E+00 0.  1.
</event>
<event>
11    0  0.3482988E-009  0.9118800E+02  0.7816531E-02  0.1126479E+00
         25   -1    0    0    0    0  0.00000000000E+00  0.00000000000E+00  0.99999998245E-14  0.12500000000E+03  0.12500000000E+03 0.  0.
    3000001    1    3    3    0    0 -0.81067522498E+01  0.26752596548E+02 -0.40525344881E+02  0.49241490959E+02  0.10000000000E+01 0. -1.
    1000022    2    1    0    0    0 -0.58603383390E+01  0.35983159062E+02 -0.49770663289E+02  0.62500000653E+02  0.99999927934E+01 0.  0.
    3000022    2    3    3    0    0  0.22464139108E+01  0.92305625137E+01 -0.92453184082E+01  0.13258509694E+02  0.25001413983E+00 0.  0.
    1000022    2    1    0    0    0  0.58603383390E+01 -0.35983159062E+02  0.49770663289E+02  0.62499999347E+02  0.99999846265E+01 0.  0.
    3000022    2    5    5    0    0 -0.23935577355E+01 -0.89705063303E+01  0.15598931165E+02  0.18154565710E+02  0.25000036563E+00 0.  0.
        -13    1    4    4    0    0  0.13423105689E+01  0.56472905369E+01 -0.55735928764E+01  0.80479594074E+01  0.10500000000E+00 0.  1.
         13    1    4    4    0    0  0.90410334191E+00  0.35832719768E+01 -0.36717255318E+01  0.52105502870E+01  0.10500000000E+00 0. -1.
    3000001    1    5    5    0    0  0.82538960745E+01 -0.27012652732E+02  0.34171732124E+02  0.44345433636E+02  0.10000000000E+01 0. -1.
        -13    1    6    6    0    0 -0.12492475376E+01 -0.44671232494E+01  0.77162007440E+01  0.90036985987E+01  0.10500000000E+00 0. -1.
         13    1    6    6    0    0 -0.11443101979E+01 -0.45033830810E+01  0.78827304210E+01  0.91508671116E+01  0.10500000000E+00 0.  1.
</event>
<event>
11    0  0.3482988E-009  0.9118800E+02  0.7816531E-02  0.1126479E+00
         25   -1    0    0    0    0  0.00000000000E+00  0.00000000000E+00  0.99999998245E-14  0.12500000000E+03  0.12500000000E+03 0.  0.
    3000001    1    3    3    0    0  0.27594794963E+01 -0.18973223021E+02 -0.26825624513E+02  0.32988059194E+02  0.10000000000E+01 0. -1.
    1000022    2    1    0    0    0  0.10515941707E+02 -0.28727828503E+02 -0.53575896906E+02  0.62499999290E+02  0.10000001076E+02 0.  0.
    3000022    2    3    3    0    0  0.77564622103E+01 -0.97546054821E+01 -0.26750272393E+02  0.29511940096E+02  0.25000198973E+00 0.  0.
    1000022    2    1    0    0    0 -0.10515941707E+02  0.28727828503E+02  0.53575896906E+02  0.62500000710E+02  0.10000009949E+02 0.  0.
    3000022    2    5    5    0    0 -0.62786270524E+01  0.25103603089E+02  0.38442632427E+02  0.46341240265E+02  0.25003133130E+00 0.  0.
        -13    1    4    4    0    0  0.20993232415E+01 -0.25844660551E+01 -0.71405754026E+01  0.78794330343E+01  0.10500000000E+00 0. -1.
         13    1    4    4    0    0  0.56571389689E+01 -0.71701394270E+01 -0.19609696990E+02  0.21632507062E+02  0.10500000000E+00 0.  1.
    3000001    1    5    5    0    0 -0.42373146542E+01  0.36242254145E+01  0.15133264478E+02  0.16158760445E+02  0.10000000000E+01 0. -1.
        -13    1    6    6    0    0 -0.20584010880E+01  0.83638932908E+01  0.12872688705E+02  0.15488991752E+02  0.10500000000E+00 0. -1.
         13    1    6    6    0    0 -0.42202259644E+01  0.16739709798E+02  0.25569943723E+02  0.30852248513E+02  0.10500000000E+00 0.  1.
</event>
<event>
11    0  0.3482988E-009  0.9118800E+02  0.7816531E-02  0.1126479E+00
         25   -1    0    0    0    0  0.00000000000E+00  0.00000000000E+00  0.99999998245E-14  0.12500000000E+03  0.12500000000E+03 0.  0.
    3000001    1    3    3    0    0  0.43881542948E+01  0.33796805256E+01  0.58812667942E+02  0.59081368037E+02  0.10000000000E+01 0.  1.
    1000022    2    1    0    0    0  0.67860334756E+01  0.32625038178E+01  0.61233616675E+02  0.62499999209E+02  0.99999954286E+01 0.  0.
    3000022    2    3    3    0    0  0.23978791809E+01 -0.11717670774E+00  0.24209487326E+01  0.34186311727E+01  0.24998276451E+00 0.  0.
    1000022    2    1    0    0    0 -0.67860334756E+01 -0.32625038178E+01 -0.61233616675E+02  0.62500000791E+02  0.10000005313E+02 0.  0.
    3000022    2    5    5    0    0  0.11182662039E+01  0.16650843618E+01 -0.24766466476E+02  0.24848810606E+02  0.25000318571E+00 0.  0.
        -13    1    4    4    0    0  0.67388179305E+00 -0.59917659489E-01  0.64435940249E+00  0.94017596039E+00  0.10500000000E+00 0. -1.
         13    1    4    4    0    0  0.17239973878E+01 -0.57259048256E-01  0.17765893301E+01  0.24784552123E+01  0.10500000000E+00 0.  1.
    3000001    1    5    5    0    0 -0.79042996796E+01 -0.49275881796E+01 -0.36467150199E+02  0.37651190185E+02  0.10000000000E+01 0.  1.
        -13    1    6    6    0    0  0.55891408541E+00  0.71366465860E+00 -0.11293389982E+02  0.11330197901E+02  0.10500000000E+00 0. -1.
         13    1    6    6    0    0  0.55935211850E+00  0.95141970316E+00 -0.13473076495E+02  0.13518612705E+02  0.10500000000E+00 0.  1.
</event>
<event>
11    0  0.3482988E-009  0.9118800E+02  0.7816531E-02  0.1126479E+00
         25   -1    0    0    0    0  0.00000000000E+00  0.00000000000E+00  0.99999998245E-14  0.12500000000E+03  0.12500000000E+03 0.  0.
    3000001    1    3    3    0    0 -0.51151864138E+01  0.53401623293E+02 -0.27341086563E+02  0.60219876427E+02  0.10000000000E+01 0.  1.
    1000022    2    1    0    0    0 -0.37307106860E+01  0.54424238628E+02 -0.28815517661E+02  0.62500000023E+02  0.99999996133E+01 0.  0.
    3000022    2    3    3    0    0  0.13844757278E+01  0.10226153351E+01 -0.14744310974E+01  0.22801235957E+01  0.25000277282E+00 0.  0.
    1000022    2    1    0    0    0  0.37307106860E+01 -0.54424238628E+02  0.28815517661E+02  0.62499999977E+02  0.99999993313E+01 0.  0.
    3000022    2    5    5    0    0 -0.18535481325E+01 -0.17076450113E+02  0.51946095874E+01  0.17946789636E+02  0.25000065256E+00 0.  0.
        -13    1    4    4    0    0  0.66168787501E+00  0.49813935101E+00 -0.62188350395E+00  0.10410272568E+01  0.10500000000E+00 0.  1.
         13    1    4    4    0    0  0.72278785276E+00  0.52447598410E+00 -0.85254759340E+00  0.12390963389E+01  0.10500000000E+00 0.  1.
    3000001    1    5    5    0    0  0.55842588185E+01 -0.37347788516E+02  0.23620908073E+02  0.44553210342E+02  0.10000000000E+01 0.  1.
        -13    1    6    6    0    0 -0.47479014233E+00 -0.47206489514E+01  0.14261284331E+01  0.49552819809E+01  0.10500000000E+00 0. -1.
         13    1    6    6    0    0 -0.13787579902E+01 -0.12355801161E+02  0.37684811543E+01  0.12991507655E+02  0.10500000000E+00 0.  1.
</event>
<event>
11    0  0.3482988E-009  0.9118800E+02  0.7816531E-02  0.1126479E+00
         25   -1    0    0    0    0  0.00000000000E+00  0.00000000000E+00  0.99999998245E-14  0.12500000000E+03  0.12500000000E+03 0.  0.
    3000001    1    3    3    0    0  0.30557929363E+01 -0.16210903855E+01  0.14077202639E+01  0.38661972077E+01  0.10000000000E+01 0. -1.
    1000022    2    1    0    0    0  0.24485401489E+02 -0.30139732345E+02  0.47940710311E+02  0.62499999092E+02  0.99999914710E+01 0.  0.
    3000022    2    3    3    0    0  0.21429608552E+02 -0.28518641960E+02  0.46532990047E+02  0.58633801884E+02  0.24999739350E+00 0.  0.
    1000022    2    1    0    0    0 -0.24485401489E+02  0.30139732345E+02 -0.47940710311E+02  0.62500000908E+02  0.10000002823E+02 0.  0.
    3000022    2    5    5    0    0 -0.11490247485E+02  0.21468990683E+02 -0.27079426111E+02  0.36418417999E+02  0.25000568473E+00 0.  0.
        -13    1    4    4    0    0  0.82636056979E+01 -0.10904110361E+02  0.17887975581E+02  0.22520601619E+02  0.10500000000E+00 0.  1.
         13    1    4    4    0    0  0.13166002854E+02 -0.17614531599E+02  0.28645014466E+02  0.36113200265E+02  0.10500000000E+00 0. -1.
    3000001    1    5    5    0    0 -0.12995154004E+02  0.86707416623E+01 -0.20861284200E+02  0.26081582909E+02  0.10000000000E+01 0. -1.
        -13    1    6    6    0    0 -0.75276688696E+01  0.13977738572E+02 -0.17711711133E+02  0.23785682888E+02  0.10500000000E+00 0.  1.
         13    1    6    6    0    0 -0.39625786151E+01  0.74912521116E+01 -0.93677149781E+01  0.12632735111E+02  0.10500000000E+00 0. -1.
</event>
<event>
11    0  0.3482988E-009  0.9118800E+02  0.7816531E-02  0.1126479E+00
         25   -1    0    0    0    0  0.00000000000E+00  0.00000000000E+00  0.99999998245E-14  0.12500000000E+03  0.12500000000E+03 0.  0.
    3000001    1    3    3    0    0  0.17989049866E+02 -0.21997573474E+02  0.29749071096E+02  0.41152234264E+02  0.10000000000E+01 0. -1.
    1000022    2    1    0    0    0  0.24753676558E+02 -0.38721845746E+02  0.41159736088E+02  0.62500002283E+02  0.10000028471E+02 0.  0.
    3000022    2    3    3    0    0  0.67646266927E+01 -0.16724272272E+02  0.11410664992E+02  0.21347768020E+02  0.24993305321E+00 0.  0.
    1000022    2    1    0    0    0 -0.24753676558E+02  0.38721845746E+02 -0.41159736088E+02  0.62499997717E+02  0.99999999277E+01 0.  0.
    3000022    2    5    5    0    0 -0.24008884099E+02  0.38518989368E+02 -0.41104588069E+02  0.61235518447E+02  0.25000313365E+00 0.  0.
        -13    1    4    4    0    0  0.17099051683E+01 -0.43072920912E+01  0.29337130498E+01  0.54858215522E+01  0.10500000000E+00 0.  1.
         13    1    4    4    0    0  0.50547215244E+01 -0.12416980181E+02  0.84769519423E+01  0.15861946467E+02  0.10500000000E+00 0. -1.
    3000001    1    5    5    0    0 -0.74479245954E+00  0.20285637794E+00 -0.55148019125E-01  0.12644792691E+01  0.10000000000E+01 0.  1.
        -13    1    6    6    0    0 -0.81754255146E+01  0.13209406862E+02 -0.14102172108E+02  0.20981141417E+02  0.10500000000E+00 0.  1.
         13    1    6    6    0    0 -0.15833458584E+02  0.25309582506E+02 -0.27002415962E+02  0.40254377031E+02  0.10500000000E+00 0. -1.
</event>
<event>
11    0  0.3482988E-009  0.9118800E+02  0.7816531E-02  0.1126479E+00
         25   -1    0    0    0    0  0.00000000000E+00  0.00000000000E+00  0.99999998245E-14  0.12500000000E+03  0.12500000000E+03 0.  0.
    3000001    1    3    3    0    0  0.10743402632E+02  0.89166456630E+01 -0.17995783855E+02  0.22798585626E+02  0.10000000000E+01 0.  1.
    1000022    2    1    0    0    0  0.29335173306E+02  0.34885578590E+02 -0.41577565836E+02  0.62500000608E+02  0.10000005434E+02 0.  0.
    3000022    2    3    3    0    0  0.18591770675E+02  0.25968932927E+02 -0.23581781980E+02  0.39701414982E+02  0.24999197010E+00 0.  0.
    1000022    2    1    0    0    0 -0.29335173306E+02 -0.34885578590E+02  0.41577565836E+02  0.62499999392E+02  0.99999978344E+01 0.  0.
    3000022    2    5    5    0    0 -0.28088265730E+02 -0.34005691031E+02  0.36995165598E+02  0.57567720754E+02  0.25000208187E+00 0.  0.
        -13    1    4    4    0    0  0.10481113850E+02  0.14730172323E+02 -0.13397540974E+02  0.22501929992E+02  0.10500000000E+00 0.  1.
         13    1    4    4    0    0  0.81106568244E+01  0.11238760604E+02 -0.10184241006E+02  0.17199484990E+02  0.10500000000E+00 0. -1.
    3000001    1    5    5    0    0 -0.12469075768E+01 -0.87988755954E+00  0.45824002376E+01  0.49322786377E+01  0.10000000000E+01 0. -1.
        -13    1    6    6    0    0 -0.12862774620E+02 -0.15668779177E+02  0.16968172183E+02  0.26436556206E+02  0.10500000000E+00 0.  1.
         13    1    6    6    0    0 -0.15225491110E+02 -0.18336911854E+02  0.20026993415E+02  0.31131164548E+02  0.10500000000E+00 0. -1.
</event>
<event>
11    0  0.3482988E-009  0.9118800E+02  0.7816531E-02  0.1126479E+00
         25   -1    0    0    0    0  0.00000000000E+00  0.00000000000E+00  0.99999998245E-14  0.12500000000E+03  0.12500000000E+03 0.  0.
    3000001    1    3    3    0    0  0.28367624443E+02 -0.38269385498E+02  0.55925097777E+01  0.47974411393E+02  0.10000000000E+01 0.  1.
    1000022    2    1    0    0    0  0.34723367731E+02 -0.49501166159E+02  0.12254478289E+02  0.62499998907E+02  0.99999953797E+01 0.  0.
    3000022    2    3    3    0    0  0.63557432882E+01 -0.11231780661E+02  0.66619685113E+01  0.14525587514E+02  0.24999723783E+00 0.  0.
    1000022    2    1    0    0    0 -0.34723367731E+02  0.49501166159E+02 -0.12254478289E+02  0.62500001093E+02  0.10000009036E+02 0.  0.
    3000022    2    5    5    0    0 -0.70553690630E+01  0.10330845005E+02 -0.67527151127E+01  0.14218518020E+02  0.25000432580E+00 0.  0.
        -13    1    4    4    0    0  0.46524002250E+01 -0.82161875410E+01  0.49131550778E+01  0.10644279374E+02  0.10500000000E+00 0.  1.
         13    1    4    4    0    0  0.17033430632E+01 -0.30155931202E+01  0.17488134335E+01  0.38813081407E+01  0.10500000000E+00 0. -1.
    3000001    1    5    5    0    0 -0.27667998668E+02  0.39170321155E+02 -0.55017631763E+01  0.48281483073E+02  0.10000000000E+01 0. -1.
        -13    1    6    6    0    0 -0.30967461312E+01  0.44555105162E+01 -0.29839436993E+01  0.61932508073E+01  0.10500000000E+00 0.  1.
         13    1    6    6    0    0 -0.39586229318E+01  0.58753344883E+01 -0.37687714134E+01  0.80252672125E+01  0.10500000000E+00 0. -1.
</event>
<event>
11    0  0.3482988E-009  0.9118800E+02  0.7816531E-02  0.1126479E+00
         25   -1    0    0    0    0  0.00000000000E+00  0.00000000000E+00  0.99999998245E-14  0.12500000000E+03  0.12500000000E+03 0.  0.
    3000001    1    3    3    0    0  0.24975730701E+02  0.10843237709E+02  0.83490036995E+01  0.28496820715E+02  0.10000000000E+01 0.  1.
    1000022    2    1    0    0    0  0.53265381281E+02  0.16668048998E+02  0.26291154802E+02  0.62499997662E+02  0.10000009326E+02 0.  0.
    3000022    2    3    3    0    0  0.28289650580E+02  0.58248112890E+01  0.17942151103E+02  0.34003176947E+02  0.24999969416E+00 0.  0.
    1000022    2    1    0    0    0 -0.53265381281E+02 -0.16668048998E+02 -0.26291154802E+02  0.62500002338E+02  0.10000038552E+02 0.  0.
    3000022    2    5    5    0    0 -0.20921507881E+02 -0.16133859596E+01 -0.10655030069E+02  0.23535179454E+02  0.24999980445E+00 0.  0.
        -13    1    4    4    0    0  0.10406156685E+02  0.20927486872E+01  0.65544859083E+01  0.12475576321E+02  0.10500000000E+00 0.  1.
         13    1    4    4    0    0  0.17883493895E+02  0.37320626018E+01  0.11387665194E+02  0.21527600627E+02  0.10500000000E+00 0. -1.
    3000001    1    5    5    0    0 -0.32343873400E+02 -0.15054663039E+02 -0.15636124733E+02  0.38964822884E+02  0.10000000000E+01 0. -1.
        -13    1    6    6    0    0 -0.13256265258E+02 -0.10801329950E+01 -0.67394313720E+01  0.14910607503E+02  0.10500000000E+00 0. -1.
         13    1    6    6    0    0 -0.76652426221E+01 -0.53325296462E+00 -0.39155986969E+01  0.86245719509E+01  0.10500000000E+00 0.  1.
</event>
<event>
11    0  0.3482988E-009  0.9118800E+02  0.7816531E-02  0.1126479E+00
         25   -1    0    0    0    0  0.00000000000E+00  0.00000000000E+00  0.99999998245E-14  0.12500000000E+03  0.12500000000E+03 0.  0.
    3000001    1    3    3    0    0  0.10657957660E+01 -0.42981003956E+01 -0.53237127397E+02  0.53430340829E+02  0.10000000000E+01 0.  1.
    1000022    2    1    0    0    0  0.41569405267E+01 -0.76365111870E+01 -0.61079072302E+02  0.62500002620E+02  0.10000039827E+02 0.  0.
    3000022    2    3    3    0    0  0.30911447607E+01 -0.33384107915E+01 -0.78419449052E+01  0.90696617909E+01  0.25000512308E+00 0.  0.
    1000022    2    1    0    0    0 -0.41569405267E+01  0.76365111870E+01  0.61079072302E+02  0.62499997380E+02  0.10000007081E+02 0.  0.
    3000022    2    5    5    0    0 -0.50591033527E+01  0.34312904853E+00  0.35707494650E+02  0.36066604232E+02  0.25000474158E+00 0.  0.
        -13    1    4    4    0    0  0.71359836603E+00 -0.77253463298E+00 -0.17996238166E+01  0.20870321676E+01  0.10500000000E+00 0.  1.
         13    1    4    4    0    0  0.23775463947E+01 -0.25658761585E+01 -0.60423210886E+01  0.69826296234E+01  0.10500000000E+00 0. -1.
    3000001    1    5    5    0    0  0.90216282600E+00  0.72933821385E+01  0.25371577652E+02  0.26433393149E+02  0.10000000000E+01 0. -1.
        -13    1    6    6    0    0 -0.28225578912E+01  0.12548815639E+00  0.19944180483E+02  0.20143583109E+02  0.10500000000E+00 0.  1.
         13    1    6    6    0    0 -0.22365454614E+01  0.21764089214E+00  0.15763314167E+02  0.15923021123E+02  0.10500000000E+00 0. -1.
</event>
<event>
11    0  0.3482988E-009  0.9118800E+02  0.7816531E-02  0.1126479E+00
         25   -1    0    0    0    0  0.00000000000E+00  0.00000000000E+00  0.99999998245E-14  0.12500000000E+03  0.12500000000E+03 0.  0.
    3000001    1    3    3    0    0 -0.23775087459E+01  0.55342422184E+02 -0.46824814288E+01  0.55600016847E+02  0.10000000000E+01 0. -1.
    1000022    2    1    0    0    0 -0.25413373275E+01  0.61615444247E+02 -0.18242413499E+01  0.62499992856E+02  0.99999942632E+01 0.  0.
    3000022    2    3    3    0    0 -0.16382858153E+00  0.62730220629E+01  0.28582400789E+01  0.68999760086E+01  0.24997392876E+00 0.  0.
    1000022    2    1    0    0    0  0.25413373275E+01 -0.61615444247E+02  0.18242413499E+01  0.62500007144E+02  0.10000083567E+02 0.  0.
    3000022    2    5    5    0    0  0.32059012673E+01 -0.12622053816E+02  0.34172013354E+01  0.13466024309E+02  0.25000051609E+00 0.  0.
        -13    1    4    4    0    0 -0.82922527722E-01  0.38222452781E+01  0.16752556501E+01  0.41753971793E+01  0.10500000000E+00 0. -1.
         13    1    4    4    0    0 -0.80906053805E-01  0.24507767848E+01  0.11829844288E+01  0.27245788293E+01  0.10500000000E+00 0.  1.
    3000001    1    5    5    0    0 -0.66456393980E+00 -0.48993390431E+02 -0.15929599855E+01  0.49033982835E+02  0.10000000000E+01 0. -1.
        -13    1    6    6    0    0  0.97580706239E+00 -0.38626002434E+01  0.10943554983E+01  0.41328584563E+01  0.10500000000E+00 0. -1.
         13    1    6    6    0    0  0.22300942049E+01 -0.87594535728E+01  0.23228458371E+01  0.93331658530E+01  0.10500000000E+00 0.  1.
</event>
<event>
11    0  0.3482988E-009  0.9118800E+02  0.7816531E-02  0.1126479E+00
         25   -1    0    0    0    0  0.00000000000E+00  0.00000000000E+00  0.99999998245E-14  0.12500000000E+03  0.12500000000E+03 0.  0.
    3000001    1    3    3    0    0  0.12012759747E+02  0.12071943650E+02  0.85526400563E+00  0.17081267422E+02  0.10000000000E+01 0.  1.
    1000022    2    1    0    0    0  0.51282529851E+02  0.32432506819E+02  0.11157271792E+02  0.62500000156E+02  0.99999969586E+01 0.  0.
    3000022    2    3    3    0    0  0.39269770104E+02  0.20360563169E+02  0.10302007787E+02  0.45418732734E+02  0.25008427566E+00 0.  0.
    1000022    2    1    0    0    0 -0.51282529851E+02 -0.32432506819E+02 -0.11157271792E+02  0.62499999844E+02  0.99999950136E+01 0.  0.
    3000022    2    5    5    0    0 -0.34145023580E+01 -0.44114352189E+01 -0.32577678086E+01  0.64649155415E+01  0.24998964249E+00 0.  0.
        -13    1    4    4    0    0  0.24551428673E+02  0.12678125463E+02  0.64758986713E+01  0.28380553267E+02  0.10500000000E+00 0. -1.
         13    1    4    4    0    0  0.14718341431E+02  0.76824377057E+01  0.38261091153E+01  0.17038179467E+02  0.10500000000E+00 0.  1.
    3000001    1    5    5    0    0 -0.47868027493E+02 -0.28021071600E+02 -0.78995039836E+01  0.56035084303E+02  0.10000000000E+01 0. -1.
        -13    1    6    6    0    0 -0.11899839640E+01 -0.15343953212E+01 -0.11999914929E+01  0.22850460432E+01  0.10500000000E+00 0. -1.
         13    1    6    6    0    0 -0.22245183940E+01 -0.28770398977E+01 -0.20577763156E+01  0.41798694984E+01  0.10500000000E+00 0.  1.
</event>
<event>
11    0  0.3482988E-009  0.9118800E+02  0.7816531E-02  0.1126479E+00
         25   -1    0    0    0    0  0.00000000000E+00  0.00000000000E+00  0.99999998245E-14  0.12500000000E+03  0.12500000000E+03 0.  0.
    3000001    1    3    3    0    0 -0.10500763218E+02 -0.47123580407E+01  0.25485812331E+02  0.27982118873E+02  0.10000000000E+01 0.  1.
    1000022    2    1    0    0    0 -0.31152217964E+02 -0.15552744997E+02  0.50930358373E+02  0.62499998273E+02  0.99999909564E+01 0.  0.
    3000022    2    3    3    0    0 -0.20651454746E+02 -0.10840386956E+02  0.25444546042E+02  0.34517879400E+02  0.25000500832E+00 0.  0.
    1000022    2    1    0    0    0  0.31152217964E+02  0.15552744997E+02 -0.50930358373E+02  0.62500001727E+02  0.10000012540E+02 0.  0.
    3000022    2    5    5    0    0  0.18893066791E+02  0.51359654867E+01 -0.33154291820E+02  0.38504489127E+02  0.25000511113E+00 0.  0.
        -13    1    4    4    0    0 -0.10516836726E+02 -0.55490674705E+01  0.13065258433E+02  0.17666578826E+02  0.10500000000E+00 0.  1.
         13    1    4    4    0    0 -0.10134618020E+02 -0.52913194857E+01  0.12379287610E+02  0.16851300574E+02  0.10500000000E+00 0. -1.
    3000001    1    5    5    0    0  0.12259151173E+02  0.10416779510E+02 -0.17776066553E+02  0.23995512600E+02  0.10000000000E+01 0.  1.
        -13    1    6    6    0    0  0.14529274256E+02  0.39500847540E+01 -0.25512559108E+02  0.29624393280E+02  0.10500000000E+00 0.  1.
         13    1    6    6    0    0  0.43637925348E+01  0.11858807328E+01 -0.76417327121E+01  0.88800958465E+01  0.10500000000E+00 0. -1.
</event>
<event>
11    0  0.3482988E-009  0.9118800E+02  0.7816531E-02  0.1126479E+00
         25   -1    0    0    0    0  0.00000000000E+00  0.00000000000E+00  0.99999998245E-14  0.12500000000E+03  0.12500000000E+03 0.  0.
    3000001    1    3    3    0    0 -0.43194855575E+00 -0.17095412907E+02 -0.26077612688E+01  0.17327438958E+02  0.10000000000E+01 0. -1.
    1000022    2    1    0    0    0  0.12995990543E+02 -0.60219600103E+02 -0.33096803027E+01  0.62499999946E+02  0.10000000134E+02 0.  0.
    3000022    2    3    3    0    0  0.13427939099E+02 -0.43124187196E+02 -0.70191903385E+00  0.45172560987E+02  0.25001206928E+00 0.  0.
    1000022    2    1    0    0    0 -0.12995990543E+02  0.60219600103E+02  0.33096803027E+01  0.62500000054E+02  0.10000000815E+02 0.  0.
    3000022    2    5    5    0    0 -0.31658441400E+01  0.17737471503E+02 -0.34978112206E+01  0.18355861490E+02  0.25000655943E+00 0.  0.
        -13    1    4    4    0    0  0.90691657142E+01 -0.28992731453E+02 -0.43783797516E+00  0.30381424768E+02  0.10500000000E+00 0. -1.
         13    1    4    4    0    0  0.43587733843E+01 -0.14131455743E+02 -0.26408105869E+00  0.14791136219E+02  0.10500000000E+00 0.  1.
    3000001    1    5    5    0    0 -0.98301464028E+01  0.42482128601E+02  0.68074915232E+01  0.44144138564E+02  0.10000000000E+01 0.  1.
        -13    1    6    6    0    0 -0.19951945404E+01  0.10851469699E+02 -0.21647778820E+01  0.11244220034E+02  0.10500000000E+00 0. -1.
         13    1    6    6    0    0 -0.11706495996E+01  0.68860018036E+01 -0.13330333386E+01  0.71116414565E+01  0.10500000000E+00 0.  1.
</event>
<event>
11    0  0.3482988E-009  0.9118800E+02  0.7816531E-02  0.1126479E+00
         25   -1    0    0    0    0  0.00000000000E+00  0.00000000000E+00  0.99999998245E-14  0.12500000000E+03  0.12500000000E+03 0.  0.
    3000001    1    3    3    0    0 -0.38371077359E+00 -0.10834744747E+01  0.27838251911E-01  0.15237866856E+01  0.10000000000E+01 0.  1.
    1000022    2    1    0    0    0 -0.18440484758E+02 -0.35985340017E+02 -0.46596713591E+02  0.62500000428E+02  0.10000008088E+02 0.  0.
    3000022    2    3    3    0    0 -0.18056773984E+02 -0.34901865543E+02 -0.46624551843E+02  0.60976213743E+02  0.25000547562E+00 0.  0.
    1000022    2    1    0    0    0  0.18440484758E+02  0.35985340017E+02  0.46596713591E+02  0.62499999572E+02  0.10000002734E+02 0.  0.
    3000022    2    5    5    0    0  0.28393371618E+01  0.12356843142E+02  0.96217426069E+01  0.15918349212E+02  0.25000580214E+00 0.  0.
        -13    1    4    4    0    0 -0.46245267971E+01 -0.88796790234E+01 -0.11863290605E+02  0.15523647659E+02  0.10500000000E+00 0. -1.
         13    1    4    4    0    0 -0.13432247187E+02 -0.26022186519E+02 -0.34761261238E+02  0.45452566084E+02  0.10500000000E+00 0.  1.
    3000001    1    5    5    0    0  0.15601147596E+02  0.23628496876E+02  0.36974970984E+02  0.46581650359E+02  0.10000000000E+01 0.  1.
        -13    1    6    6    0    0  0.18773620900E+01  0.80163220035E+01  0.61910350773E+01  0.10301740009E+02  0.10500000000E+00 0.  1.
         13    1    6    6    0    0  0.96197507174E+00  0.43405211384E+01  0.34307075297E+01  0.56166092036E+01  0.10500000000E+00 0. -1.
</event>
<event>
11    0  0.3482988E-009  0.9118800E+02  0.7816531E-02  0.1126479E+00
         25   -1    0    0    0    0  0.00000000000E+00  0.00000000000E+00  0.99999998245E-14  0.12500000000E+03  0.12500000000E+03 0.  0.
    3000001    1    3    3    0    0  0.26078214506E+01 -0.51841416430E+01 -0.28852844351E+02  0.29447626125E+02  0.10000000000E+01 0.  1.
    1000022    2    1    0    0    0  0.26729085574E+00 -0.19586664855E+01 -0.61663134200E+02  0.62499999662E+02  0.10000000981E+02 0.  0.
    3000022    2    3    3    0    0 -0.23405305949E+01  0.32254751575E+01 -0.32810289849E+02  0.33052373537E+02  0.25000595652E+00 0.  0.
    1000022    2    1    0    0    0 -0.26729085574E+00  0.19586664855E+01  0.61663134200E+02  0.62500000338E+02  0.10000005206E+02 0.  0.
    3000022    2    5    5    0    0 -0.16641994544E+01  0.57544041366E+01  0.33924496953E+02  0.34450205789E+02  0.24991715599E+00 0.  0.
        -13    1    4    4    0    0 -0.14654857871E+01  0.20530794781E+01 -0.21211635137E+02  0.21361350007E+02  0.10500000000E+00 0.  1.
         13    1    4    4    0    0 -0.87504480779E+00  0.11723956794E+01 -0.11598654712E+02  0.11691023530E+02  0.10500000000E+00 0. -1.
    3000001    1    5    5    0    0  0.13969085987E+01 -0.37957376511E+01  0.27738637247E+02  0.28049794549E+02  0.10000000000E+01 0.  1.
        -13    1    6    6    0    0 -0.40187758685E+00  0.13549756506E+01  0.79492186367E+01  0.80745629320E+01  0.10500000000E+00 0.  1.
         13    1    6    6    0    0 -0.12623218675E+01  0.43994284860E+01  0.25975278316E+02  0.26375642857E+02  0.10500000000E+00 0. -1.
</event>
<event>
11    0  0.3482988E-009  0.9118800E+02  0.7816531E-02  0.1126479E+00
         25   -1    0    0    0    0  0.00000000000E+00  0.00000000000E+00  0.99999998245E-14  0.12500000000E+03  0.12500000000E+03 0.  0.
    3000001    1    3    3    0    0 -0.11924438160E+02  0.31264341594E+01 -0.12963306641E+02  0.17916867334E+02  0.10000000000E+01 0.  1.
    1000022    2    1    0    0    0 -0.30673171552E+02  0.35874781204E+01 -0.53409142691E+02  0.62500000073E+02  0.10000001689E+02 0.  0.
    3000022    2    3    3    0    0 -0.18748733392E+02  0.46104396106E+00 -0.40445836051E+02  0.44583132740E+02  0.25001138449E+00 0.  0.
    1000022    2    1    0    0    0  0.30673171552E+02 -0.35874781204E+01  0.53409142691E+02  0.62499999927E+02  0.10000000775E+02 0.  0.
    3000022    2    5    5    0    0  0.23499171804E+02  0.14011686304E+01  0.41218134872E+02  0.47467583606E+02  0.25000412043E+00 0.  0.
        -13    1    4    4    0    0 -0.87794109726E+01  0.14872357190E+00 -0.18923241950E+02  0.20861454567E+02  0.10500000000E+00 0. -1.
         13    1    4    4    0    0 -0.99693224195E+01  0.31232038916E+00 -0.21522594100E+02  0.23721678173E+02  0.10500000000E+00 0.  1.
    3000001    1    5    5    0    0  0.71739997481E+01 -0.49886467508E+01  0.12191007819E+02  0.15032416320E+02  0.10000000000E+01 0.  1.
        -13    1    6    6    0    0  0.13533759374E+02  0.86066783419E+00  0.23669288217E+02  0.27279105953E+02  0.10500000000E+00 0. -1.
         13    1    6    6    0    0  0.99654124304E+01  0.54050079620E+00  0.17548846656E+02  0.20188477654E+02  0.10500000000E+00 0.  1.
</event>
<event>
11    0  0.3482988E-009  0.9118800E+02  0.7816531E-02  0.1126479E+00
         25   -1    0    0    0    0  0.00000000000E+00  0.00000000000E+00  0.99999998245E-14  0.12500000000E+03  0.12500000000E+03 0.  0.
    3000001    1    3    3    0    0  0.10723078028E+01 -0.13977586271E+00 -0.85564861542E-01  0.14753652637E+01  0.10000000000E+01 0. -1.
    1000022    2    1    0    0    0  0.30876820856E+02 -0.49550505609E+02 -0.19940395091E+02  0.62499999614E+02  0.99999961566E+01 0.  0.
    3000022    2    3    3    0    0  0.29804513053E+02 -0.49410729746E+02 -0.19854830229E+02  0.61024634351E+02  0.25000359311E+00 0.  0.
    1000022    2    1    0    0    0 -0.30876820856E+02  0.49550505609E+02  0.19940395091E+02  0.62500000386E+02  0.10000000978E+02 0.  0.
    3000022    2    5    5    0    0 -0.25798627676E+01  0.10394921793E+01 -0.26845647611E+00  0.28054952560E+01  0.24999772306E+00 0.  0.
        -13    1    4    4    0    0  0.14293748080E+02 -0.23797694828E+02 -0.95063685903E+01  0.29343203337E+02  0.10500000000E+00 0. -1.
         13    1    4    4    0    0  0.15510764973E+02 -0.25613034918E+02 -0.10348461639E+02  0.31681431013E+02  0.10500000000E+00 0.  1.
    3000001    1    5    5    0    0 -0.28296958088E+02  0.48511013430E+02  0.20208851567E+02  0.59694505130E+02  0.10000000000E+01 0.  1.
        -13    1    6    6    0    0 -0.93378163456E+00  0.33292970149E+00 -0.13736456196E+00  0.10063221900E+01  0.10500000000E+00 0.  1.
         13    1    6    6    0    0 -0.16460811330E+01  0.70656247785E+00 -0.13109191415E+00  0.17991730661E+01  0.10500000000E+00 0. -1.
</event>
<event>
11    0  0.3482988E-009  0.9118800E+02  0.7816531E-02  0.1126479E+00
         25   -1    0    0    0    0  0.00000000000E+00  0.00000000000E+00  0.99999998245E-14  0.12500000000E+03  0.12500000000E+03 0.  0.
    3000001    1    3    3    0    0 -0.45169438611E+01  0.47855320343E+01 -0.10621505346E+01  0.67403458705E+01  0.10000000000E+01 0.  1.
    1000022    2    1    0    0    0 -0.19318678021E+02  0.58492806769E+02 -0.34103204757E+01  0.62500000593E+02  0.10000001214E+02 0.  0.
    3000022    2    3    3    0    0 -0.14801734160E+02  0.53707274734E+02 -0.23481699411E+01  0.55759654723E+02  0.24999842132E+00 0.  0.
    1000022    2    1    0    0    0  0.19318678021E+02 -0.58492806769E+02  0.34103204757E+01  0.62499999407E+02  0.99999937976E+01 0.  0.
    3000022    2    5    5    0    0  0.10469103688E+02 -0.17008753633E+02  0.14044606016E+01  0.20023357540E+02  0.25001085530E+00 0.  0.
        -13    1    4    4    0    0 -0.98708445762E+01  0.35623375279E+02 -0.15403630291E+01  0.36997867265E+02  0.10500000000E+00 0. -1.
         13    1    4    4    0    0 -0.49308895836E+01  0.18083899455E+02 -0.80780691194E+00  0.18761787458E+02  0.10500000000E+00 0.  1.
    3000001    1    5    5    0    0  0.88495743334E+01 -0.41484053135E+02  0.20058598741E+01  0.42476641866E+02  0.10000000000E+01 0.  1.
        -13    1    6    6    0    0  0.42576601590E+01 -0.67967093559E+01  0.56231164870E+00  0.80405315426E+01  0.10500000000E+00 0. -1.
         13    1    6    6    0    0  0.62114435286E+01 -0.10212044277E+02  0.84214895290E+00  0.11982825998E+02  0.10500000000E+00 0.  1.
</event>
<event>
11    0  0.3482988E-009  0.9118800E+02  0.7816531E-02  0.1126479E+00
         25   -1    0    0    0    0  0.00000000000E+00  0.00000000000E+00  0.99999998245E-14  0.12500000000E+03  0.12500000000E+03 0.  0.
    3000001    1    3    3    0    0  0.12222117365E+02 -0.39308918493E+01 -0.26664948316E+02  0.29611678985E+02  0.10000000000E+01 0. -1.
    1000022    2    1    0    0    0  0.26285610786E+02  0.21001380490E+01 -0.55775497229E+02  0.62500001045E+02  0.10000006262E+02 0.  0.
    3000022    2    3    3    0    0  0.14063493421E+02  0.60310298983E+01 -0.29110548913E+02  0.32888322060E+02  0.25000211651E+00 0.  0.
    1000022    2    1    0    0    0 -0.26285610786E+02 -0.21001380490E+01  0.55775497229E+02  0.62499998955E+02  0.99999932031E+01 0.  0.
    3000022    2    5    5    0    0 -0.21281447347E+02 -0.51780716204E+01  0.39482866250E+02  0.45151651742E+02  0.25000177153E+00 0.  0.
        -13    1    4    4    0    0  0.10029787088E+02  0.42570304342E+01 -0.20751936047E+02  0.23438703289E+02  0.10500000000E+00 0.  1.
         13    1    4    4    0    0  0.40337063333E+01  0.17739994641E+01 -0.83586128656E+01  0.94496187711E+01  0.10500000000E+00 0. -1.
    3000001    1    5    5    0    0 -0.50041634390E+01  0.30779335714E+01  0.16292630979E+02  0.17348347213E+02  0.10000000000E+01 0.  1.
        -13    1    6    6    0    0 -0.15432055570E+02 -0.37482252324E+01  0.28703626830E+02  0.32804066054E+02  0.10500000000E+00 0.  1.
         13    1    6    6    0    0 -0.58493917773E+01 -0.14298463880E+01  0.10779239420E+02  0.12347585688E+02  0.10500000000E+00 0. -1.
</event>
<event>
11    0  0.3482988E-009  0.9118800E+02  0.7816531E-02  0.1126479E+00
         25   -1    0    0    0    0  0.00000000000E+00  0.00000000000E+00  0.99999998245E-14  0.12500000000E+03  0.12500000000E+03 0.  0.
    3000001    1    3    3    0    0  0.73112120981E+00 -0.21062898752E+02  0.12706233134E+01  0.21137519383E+02  0.10000000000E+01 0.  1.
    1000022    2    1    0    0    0 -0.84428038950E-01 -0.59301762427E+02  0.17015985735E+02  0.62499999394E+02  0.99999999305E+01 0.  0.
    3000022    2    3    3    0    0 -0.81554924876E+00 -0.38238863675E+02  0.15745362422E+02  0.41362480010E+02  0.24999819307E+00 0.  0.
    1000022    2    1    0    0    0  0.84428038950E-01  0.59301762427E+02 -0.17015985735E+02  0.62500000606E+02  0.10000007510E+02 0.  0.
    3000022    2    5    5    0    0  0.29161984334E+01  0.56228094880E+01 -0.24786149679E+01  0.68063379415E+01  0.25000834729E+00 0.  0.
        -13    1    4    4    0    0 -0.27013235818E+00 -0.10810398903E+02  0.44617541465E+01  0.11698545679E+02  0.10500000000E+00 0. -1.
         13    1    4    4    0    0 -0.54541689057E+00 -0.27428464771E+02  0.11283608276E+02  0.29663934331E+02  0.10500000000E+00 0.  1.
    3000001    1    5    5    0    0 -0.28317703944E+01  0.53678952939E+02 -0.14537370768E+02  0.55693662665E+02  0.10000000000E+01 0. -1.
        -13    1    6    6    0    0  0.17167467689E+01  0.31976724755E+01 -0.14626097014E+01  0.39144068347E+01  0.10500000000E+00 0.  1.
         13    1    6    6    0    0  0.11994516645E+01  0.24251370125E+01 -0.10160052664E+01  0.28919311068E+01  0.10500000000E+00 0. -1.
</event>
<event>
11    0  0.3482988E-009  0.9118800E+02  0.7816531E-02  0.1126479E+00
         25   -1    0    0    0    0  0.00000000000E+00  0.00000000000E+00  0.99999998245E-14  0.12500000000E+03  0.12500000000E+03 0.  0.
    3000001    1    3    3    0    0 -0.42868725872E+01 -0.19440488678E+02  0.95511545930E+00  0.19955503555E+02  0.10000000000E+01 0.  1.
    1000022    2    1    0    0    0  0.76780645135E+00 -0.61682904704E+02  0.93791956707E+00  0.62500001387E+02  0.10000011036E+02 0.  0.
    3000022    2    3    3    0    0  0.50546790386E+01 -0.42242416027E+02 -0.17195892229E-01  0.42544497832E+02  0.25001615384E+00 0.  0.
    1000022    2    1    0    0    0 -0.76780645135E+00  0.61682904704E+02 -0.93791956707E+00  0.62499998613E+02  0.99999937003E+01 0.  0.
    3000022    2    5    5    0    0 -0.35419615780E+01  0.45185543911E+02 -0.38576762205E+01  0.45488713279E+02  0.24999914691E+00 0.  0.
        -13    1    4    4    0    0  0.28789168939E+01 -0.24574659621E+02 -0.30926513814E-01  0.24742959391E+02  0.10500000000E+00 0.  1.
         13    1    4    4    0    0  0.21757621447E+01 -0.17667756406E+02  0.13730621586E-01  0.17801538441E+02  0.10500000000E+00 0. -1.
    3000001    1    5    5    0    0  0.27741551266E+01  0.16497360793E+02  0.29197566535E+01  0.17011285334E+02  0.10000000000E+01 0. -1.
        -13    1    6    6    0    0 -0.15273330035E+01  0.20131938841E+02 -0.16752009546E+01  0.20259443005E+02  0.10500000000E+00 0. -1.
         13    1    6    6    0    0 -0.20146285745E+01  0.25053605070E+02 -0.21824752659E+01  0.25229270275E+02  0.10500000000E+00 0.  1.
</event>
<event>
11    0  0.3482988E-009  0.9118800E+02  0.7816531E-02  0.1126479E+00
         25   -1    0    0    0    0  0.00000000000E+00  0.00000000000E+00  0.99999998245E-14  0.12500000000E+03  0.12500000000E+03 0.  0.
    3000001    1    3    3    0    0 -0.92795510396E+01  0.69341399297E+01  0.22120572670E+02  0.24990240081E+02  0.10000000000E+01 0.  1.
    1000022    2    1    0    0    0 -0.13120942208E+02  0.11853845161E+02  0.59106500424E+02  0.62499987271E+02  0.99998623504E+01 0.  0.
    3000022    2    3    3    0    0 -0.38413911680E+01  0.49197052313E+01  0.36985927754E+02  0.37509747191E+02  0.24999356194E+00 0.  0.
    1000022    2    1    0    0    0  0.13120942208E+02 -0.11853845161E+02 -0.59106500424E+02  0.62500012729E+02  0.10000021458E+02 0.  0.
    3000022    2    5    5    0    0  0.92706258305E+01 -0.25678412501E+01 -0.36345949419E+02  0.37598256026E+02  0.25001003432E+00 0.  0.
        -13    1    4    4    0    0 -0.10779744487E+01  0.13946297804E+01  0.10695475204E+02  0.10840259959E+02  0.10500000000E+00 0.  1.
         13    1    4    4    0    0 -0.27634167193E+01  0.35250754509E+01  0.26290452550E+02  0.26669487231E+02  0.10500000000E+00 0. -1.
    3000001    1    5    5    0    0  0.38503163771E+01 -0.92860039109E+01 -0.22760551005E+02  0.24901756703E+02  0.10000000000E+01 0. -1.
        -13    1    6    6    0    0  0.57483168936E+01 -0.15306320284E+01 -0.22415621562E+02  0.23191746302E+02  0.10500000000E+00 0. -1.
         13    1    6    6    0    0  0.35223089369E+01 -0.10372092217E+01 -0.13930327857E+02  0.14406509724E+02  0.10500000000E+00 0.  1.
</event>
<event>
11    0  0.3482988E-009  0.9118800E+02  0.7816531E-02  0.1126479E+00
         25   -1    0    0    0    0  0.00000000000E+00  0.00000000000E+00  0.99999998245E-14  0.12500000000E+03  0.12500000000E+03 0.  0.
    3000001    1    3    3    0    0 -0.20401318961E+02  0.31808694247E+02  0.37705011702E+02  0.53391710522E+02  0.10000000000E+01 0.  1.
    1000022    2    1    0    0    0 -0.21709385280E+02  0.39824043001E+02  0.41821026957E+02  0.62499999895E+02  0.99999940453E+01 0.  0.
    3000022    2    3    3    0    0 -0.13080663192E+01  0.80153487539E+01  0.41160152552E+01  0.91082893724E+01  0.25000113947E+00 0.  0.
    1000022    2    1    0    0    0  0.21709385280E+02 -0.39824043001E+02 -0.41821026957E+02  0.62500000105E+02  0.99999953632E+01 0.  0.
    3000022    2    5    5    0    0  0.38047542013E+01 -0.52485724405E+01 -0.11248457175E+02  0.12985143733E+02  0.25000348496E+00 0.  0.
        -13    1    4    4    0    0 -0.84617452610E+00  0.50007897737E+01  0.26287604583E+01  0.57136079877E+01  0.10500000000E+00 0. -1.
         13    1    4    4    0    0 -0.46189179305E+00  0.30145589802E+01  0.14872547968E+01  0.33946813848E+01  0.10500000000E+00 0.  1.
    3000001    1    5    5    0    0  0.17904631079E+02 -0.34575470561E+02 -0.30572569782E+02  0.49514856373E+02  0.10000000000E+01 0.  1.
        -13    1    6    6    0    0  0.25177041846E+01 -0.35614968216E+01 -0.75783849858E+01  0.87444861464E+01  0.10500000000E+00 0. -1.
         13    1    6    6    0    0  0.12870500167E+01 -0.16870756189E+01 -0.36700721894E+01  0.42406575864E+01  0.10500000000E+00 0.  1.
</event>
<event>
11    0  0.3482988E-009  0.9118800E+02  0.7816531E-02  0.1126479E+00
         25   -1    0    0    0    0  0.00000000000E+00  0.00000000000E+00  0.99999998245E-14  0.12500000000E+03  0.12500000000E+03 0.  0.
    3000001    1    3    3    0    0  0.25849323564E+01 -0.16983513074E+01  0.11278263107E+02  0.11737354521E+02  0.10000000000E+01 0.  1.
    1000022    2    1    0    0    0 -0.28782791382E+01 -0.20381549772E+02  0.58159762793E+02  0.62499999252E+02  0.99999918212E+01 0.  0.
    3000022    2    3    3    0    0 -0.54632114946E+01 -0.18683198465E+02  0.46881499686E+02  0.50762644730E+02  0.25000501242E+00 0.  0.
    1000022    2    1    0    0    0  0.28782791382E+01  0.20381549772E+02 -0.58159762793E+02  0.62500000748E+02  0.10000001176E+02 0.  0.
    3000022    2    5    5    0    0  0.11599697078E+00  0.11424677838E+02 -0.44215929014E+02  0.45668890920E+02  0.25000051021E+00 0.  0.
        -13    1    4    4    0    0 -0.21409295490E+01 -0.72367834389E+01  0.18028231976E+02  0.19544379936E+02  0.10500000000E+00 0.  1.
         13    1    4    4    0    0 -0.33222819456E+01 -0.11446415026E+02  0.28853267710E+02  0.31218264795E+02  0.10500000000E+00 0. -1.
    3000001    1    5    5    0    0  0.27622821674E+01  0.89568719341E+01 -0.13943833779E+02  0.16831109829E+02  0.10000000000E+01 0.  1.
        -13    1    6    6    0    0  0.18374281341E-01  0.31069769820E+01 -0.11891841350E+02  0.12291483201E+02  0.10500000000E+00 0.  1.
         13    1    6    6    0    0  0.97622689436E-01  0.83177008561E+01 -0.32324087664E+02  0.33377407719E+02  0.10500000000E+00 0. -1.
</event>
<event>
11    0  0.3482988E-009  0.9118800E+02  0.7816531E-02  0.1126479E+00
         25   -1    0    0    0    0  0.00000000000E+00  0.00000000000E+00  0.99999998245E-14  0.12500000000E+03  0.12500000000E+03 0.  0.
    3000001    1    3    3    0    0 -0.13140871792E+02  0.15334014063E+02  0.19681066934E+02  0.28216287750E+02  0.10000000000E+01 0.  1.
    1000022    2    1    0    0    0 -0.29887294909E+02  0.24154915792E+02  0.48265311109E+02  0.62499993906E+02  0.99999313929E+01 0.  0.
    3000022    2    3    3    0    0 -0.16746423117E+02  0.88209017289E+01  0.28584244175E+02  0.34283706156E+02  0.24999634015E+00 0.  0.
    1000022    2    1    0    0    0  0.29887294909E+02 -0.24154915792E+02 -0.48265311109E+02  0.62500006094E+02  0.10000007573E+02 0.  0.
    3000022    2    5    5    0    0  0.31199646206E+01  0.17301224424E+00 -0.18263094711E+01  0.36279505296E+01  0.25001258069E+00 0.  0.
        -13    1    4    4    0    0 -0.10043409969E+02  0.52213737848E+01  0.17063152852E+02  0.20476695003E+02  0.10500000000E+00 0.  1.
         13    1    4    4    0    0 -0.67030131483E+01  0.35995279441E+01  0.11521091323E+02  0.13807011153E+02  0.10500000000E+00 0. -1.
    3000001    1    5    5    0    0  0.26767330289E+02 -0.24327928036E+02 -0.46439001638E+02  0.58872055565E+02  0.10000000000E+01 0.  1.
        -13    1    6    6    0    0  0.18728353494E+01  0.16148243651E+00 -0.10673888429E+01  0.21642395351E+01  0.10500000000E+00 0.  1.
         13    1    6    6    0    0  0.12471292712E+01  0.11529807729E-01 -0.75892062818E+00  0.14637109945E+01  0.10500000000E+00 0. -1.
</event>
<event>
11    0  0.3482988E-009  0.9118800E+02  0.7816531E-02  0.1126479E+00
         25   -1    0    0    0    0  0.00000000000E+00  0.00000000000E+00  0.99999998245E-14  0.12500000000E+03  0.12500000000E+03 0.  0.
    3000001    1    3    3    0    0  0.18806356712E+02 -0.30793330946E+02  0.16007670860E+01  0.36131298603E+02  0.10000000000E+01 0.  1.
    1000022    2    1    0    0    0  0.25254475359E+02 -0.56288194410E+02 -0.31747492778E+00  0.62500000687E+02  0.99999969990E+01 0.  0.
    3000022    2    3    3    0    0  0.64481186472E+01 -0.25494863464E+02 -0.19182420138E+01  0.26368702084E+02  0.25000002144E+00 0.  0.
    1000022    2    1    0    0    0 -0.25254475359E+02  0.56288194410E+02  0.31747492778E+00  0.62499999313E+02  0.99999884087E+01 0.  0.
    3000022    2    5    5    0    0 -0.62946926310E+01  0.25416679895E+02  0.16016996485E+01  0.26234685269E+02  0.24999441476E+00 0.  0.
        -13    1    4    4    0    0  0.33179988358E+01 -0.12917812388E+02 -0.10195213918E+01  0.13376451026E+02  0.10500000000E+00 0. -1.
         13    1    4    4    0    0  0.31301198114E+01 -0.12577051076E+02 -0.89872062204E+00  0.12992251058E+02  0.10500000000E+00 0.  1.
    3000001    1    5    5    0    0 -0.18959782728E+02  0.30871514515E+02 -0.12842247207E+01  0.36265314044E+02  0.10000000000E+01 0. -1.
        -13    1    6    6    0    0 -0.45919804437E+01  0.18586217177E+02  0.11371706520E+01  0.19179101529E+02  0.10500000000E+00 0. -1.
         13    1    6    6    0    0 -0.17027121873E+01  0.68304627177E+01  0.46452899648E+00  0.70555837405E+01  0.10500000000E+00 0.  1.
</event>
<event>
11    0  0.3482988E-009  0.9118800E+02  0.7816531E-02  0.1126479E+00
         25   -1    0    0    0    0  0.00000000000E+00  0.00000000000E+00  0.99999998245E-14  0.12500000000E+03  0.12500000000E+03 0.  0.
    3000001    1    3    3    0    0 -0.33887934798E+02 -0.52910268510E+01 -0.13967329414E+02  0.37046907847E+02  0.10000000000E+01 0. -1.
    1000022    2    1    0    0    0 -0.52949429922E+02 -0.14087686077E+02 -0.28357450254E+02  0.62499999988E+02  0.99999992760E+01 0.  0.
    3000022    2    3    3    0    0 -0.19061495124E+02 -0.87966592258E+01 -0.14390120840E+02  0.25453092141E+02  0.25002376783E+00 0.  0.
    1000022    2    1    0    0    0  0.52949429922E+02  0.14087686077E+02  0.28357450254E+02  0.62500000012E+02  0.99999994251E+01 0.  0.
    3000022    2    5    5    0    0  0.10059312698E+02  0.50218892746E+01  0.22552802785E+01  0.11469870632E+02  0.24999864841E+00 0.  0.
        -13    1    4    4    0    0 -0.11778071762E+02 -0.54585247474E+01 -0.88285046127E+01  0.15699426281E+02  0.10500000000E+00 0.  1.
         13    1    4    4    0    0 -0.72834233618E+01 -0.33381344784E+01 -0.55616162272E+01  0.97536658607E+01  0.10500000000E+00 0. -1.
    3000001    1    5    5    0    0  0.42890117224E+02  0.90657968022E+01  0.26102169976E+02  0.51030129380E+02  0.10000000000E+01 0. -1.
        -13    1    6    6    0    0  0.37857704739E+01  0.18976264971E+01  0.78837289429E+00  0.43087818724E+01  0.10500000000E+00 0. -1.
         13    1    6    6    0    0  0.62735422244E+01  0.31242627775E+01  0.14669073843E+01  0.71610887593E+01  0.10500000000E+00 0.  1.
</event>
<event>
11    0  0.3482988E-009  0.9118800E+02  0.7816531E-02  0.1126479E+00
         25   -1    0    0    0    0  0.00000000000E+00  0.00000000000E+00  0.99999998245E-14  0.12500000000E+03  0.12500000000E+03 0.  0.
    3000001    1    3    3    0    0  0.40888059220E+02  0.23067474672E+01  0.13041510844E+02  0.42991109264E+02  0.10000000000E+01 0. -1.
    1000022    2    1    0    0    0  0.59039267357E+02 -0.31790458081E+01  0.17621246284E+02  0.62499998520E+02  0.10000003605E+02 0.  0.
    3000022    2    3    3    0    0  0.18151208138E+02 -0.54857932753E+01  0.45797354391E+01  0.19508889256E+02  0.24999721416E+00 0.  0.
    1000022    2    1    0    0    0 -0.59039267357E+02  0.31790458081E+01 -0.17621246284E+02  0.62500001480E+02  0.10000022102E+02 0.  0.
    3000022    2    5    5    0    0 -0.40450853656E+01 -0.19679580894E+01 -0.27934967774E+01  0.53011041347E+01  0.25001229075E+00 0.  0.
        -13    1    4    4    0    0  0.10914232663E+02 -0.33501980100E+01  0.27173602131E+01  0.11736241854E+02  0.10500000000E+00 0. -1.
         13    1    4    4    0    0  0.72369754752E+01 -0.21355952653E+01  0.18623752260E+01  0.77726474028E+01  0.10500000000E+00 0.  1.
    3000001    1    5    5    0    0 -0.54994181992E+02  0.51470038975E+01 -0.14827749506E+02  0.57198897345E+02  0.10000000000E+01 0. -1.
        -13    1    6    6    0    0 -0.24699253343E+01 -0.12669479467E+01 -0.17428145590E+01  0.32793468624E+01  0.10500000000E+00 0.  1.
         13    1    6    6    0    0 -0.15751600312E+01 -0.70101014262E+00 -0.10506822184E+01  0.20217572723E+01  0.10500000000E+00 0. -1.
</event>
<event>
11    0  0.3482988E-009  0.9118800E+02  0.7816531E-02  0.1126479E+00
         25   -1    0    0    0    0  0.00000000000E+00  0.00000000000E+00  0.99999998245E-14  0.12500000000E+03  0.12500000000E+03 0.  0.
    3000001    1    3    3    0    0 -0.53605271057E+02 -0.30871120420E+02  0.35668185729E+01  0.61969939131E+02  0.10000000000E+01 0. -1.
    1000022    2    1    0    0    0 -0.53541254267E+02 -0.30428273690E+02  0.37019246636E+01  0.62499999990E+02  0.10000000220E+02 0.  0.
    3000022    2    3    3    0    0  0.64016790938E-01  0.44284673043E+00  0.13510609068E+00  0.53006085943E+00  0.24999896556E+00 0.  0.
    1000022    2    1    0    0    0  0.53541254267E+02  0.30428273690E+02 -0.37019246636E+01  0.62500000010E+02  0.10000000341E+02 0.  0.
    3000022    2    5    5    0    0  0.20713619587E+02  0.11849030909E+02  0.33942793410E+01  0.24104714202E+02  0.25008928244E+00 0.  0.
        -13    1    4    4    0    0  0.43641671169E-01  0.18383586460E+00  0.12489688764E+00  0.24964865935E+00  0.10500000000E+00 0. -1.
         13    1    4    4    0    0  0.20375119768E-01  0.25901086583E+00  0.10209203046E-01  0.28041220007E+00  0.10500000000E+00 0.  1.
    3000001    1    5    5    0    0  0.32827634680E+02  0.18579242781E+02 -0.70962040046E+01  0.38395285807E+02  0.10000000000E+01 0. -1.
        -13    1    6    6    0    0  0.64637668556E+01  0.36494294770E+01  0.10304227051E+01  0.74947590637E+01  0.10500000000E+00 0. -1.
         13    1    6    6    0    0  0.14249852731E+02  0.81996014321E+01  0.23638566359E+01  0.16609955139E+02  0.10500000000E+00 0.  1.
</event>
<event>
11    0  0.3482988E-009  0.9118800E+02  0.7816531E-02  0.1126479E+00
         25   -1    0    0    0    0  0.00000000000E+00  0.00000000000E+00  0.99999998245E-14  0.12500000000E+03  0.12500000000E+03 0.  0.
    3000001    1    3    3    0    0 -0.44984415661E+02  0.84829015855E+01 -0.69111833750E+01  0.46306821607E+02  0.10000000000E+01 0. -1.
    1000022    2    1    0    0    0 -0.58656653413E+02  0.16925619485E+02 -0.88978262274E+01  0.62499993693E+02  0.99999157747E+01 0.  0.
    3000022    2    3    3    0    0 -0.13672237752E+02  0.84427178991E+01 -0.19866428524E+01  0.16193172086E+02  0.25000344230E+00 0.  0.
    1000022    2    1    0    0    0  0.58656653413E+02 -0.16925619485E+02  0.88978262274E+01  0.62500006307E+02  0.99999946177E+01 0.  0.
    3000022    2    5    5    0    0  0.54587896627E+01 -0.20012549101E+01  0.39177543156E+01  0.70153193952E+01  0.25000308425E+00 0.  0.
        -13    1    4    4    0    0 -0.10450339231E+02  0.64497799293E+01 -0.15028821810E+01  0.12372507063E+02  0.10500000000E+00 0. -1.
         13    1    4    4    0    0 -0.32218985206E+01  0.19929379697E+01 -0.48376067139E+00  0.38206650226E+01  0.10500000000E+00 0.  1.
    3000001    1    5    5    0    0  0.53197863750E+02 -0.14924364574E+02  0.49800719118E+01  0.55484686912E+02  0.10000000000E+01 0. -1.
        -13    1    6    6    0    0  0.22345826101E+01 -0.81111339325E+00  0.15260558000E+01  0.28268596857E+01  0.10500000000E+00 0. -1.
         13    1    6    6    0    0  0.32242070526E+01 -0.11901415169E+01  0.23916985156E+01  0.41884597094E+01  0.10500000000E+00 0.  1.
</event>
<event>
11    0  0.3482988E-009  0.9118800E+02  0.7816531E-02  0.1126479E+00
         25   -1    0    0    0    0  0.00000000000E+00  0.00000000000E+00  0.99999998245E-14  0.12500000000E+03  0.12500000000E+03 0.  0.
    3000001    1    3    3    0    0 -0.45618875553E+02  0.96107390209E+01  0.33373288887E+01  0.46750250003E+02  0.10000000000E+01 0. -1.
    1000022    2    1    0    0    0 -0.59272850223E+02  0.17089435574E+02  0.96452315855E+00  0.62500000058E+02  0.10000006029E+02 0.  0.
    3000022    2    3    3    0    0 -0.13653974670E+02  0.74786965535E+01 -0.23728057302E+01  0.15749750056E+02  0.24998669084E+00 0.  0.
    1000022    2    1    0    0    0  0.59272850223E+02 -0.17089435574E+02 -0.96452315855E+00  0.62499999942E+02  0.10000005301E+02 0.  0.
    3000022    2    5    5    0    0  0.23978757424E+02 -0.10142135687E+02 -0.41854352765E+01  0.26370894817E+02  0.25000225141E+00 0.  0.
        -13    1    4    4    0    0 -0.84973799619E+01  0.47107259932E+01 -0.14459224211E+01  0.98233457767E+01  0.10500000000E+00 0. -1.
         13    1    4    4    0    0 -0.51565947082E+01  0.27679705604E+01 -0.92688330908E+00  0.59264042789E+01  0.10500000000E+00 0.  1.
    3000001    1    5    5    0    0  0.35294092799E+02 -0.69472998872E+01  0.32209121179E+01  0.36129105125E+02  0.10000000000E+01 0. -1.
        -13    1    6    6    0    0  0.10860553275E+02 -0.45313909873E+01 -0.18571336339E+01  0.11914071179E+02  0.10500000000E+00 0. -1.
         13    1    6    6    0    0  0.13118204149E+02 -0.56107446999E+01 -0.23283016426E+01  0.14456823638E+02  0.10500000000E+00 0.  1.
</event>
<event>
11    0  0.3482988E-009  0.9118800E+02  0.7816531E-02  0.1126479E+00
         25   -1    0    0    0    0  0.00000000000E+00  0.00000000000E+00  0.99999998245E-14  0.12500000000E+03  0.12500000000E+03 0.  0.
    3000001    1    3    3    0    0 -0.53051629135E+01  0.10376162379E+02 -0.16151402550E+02  0.19941848049E+02  0.10000000000E+01 0.  1.
    1000022    2    1    0    0    0 -0.29439761181E+02  0.27164993954E+02 -0.46921342556E+02  0.62499989545E+02  0.99999935455E+01 0.  0.
    3000022    2    3    3    0    0 -0.24134598267E+02  0.16788831575E+02 -0.30769940005E+02  0.42558141496E+02  0.25000089993E+00 0.  0.
    1000022    2    1    0    0    0  0.29439761181E+02 -0.27164993954E+02  0.46921342556E+02  0.62500010455E+02  0.10000124236E+02 0.  0.
    3000022    2    5    5    0    0  0.25221300418E+02 -0.24906665984E+02  0.35939577449E+02  0.50479418902E+02  0.25000054195E+00 0.  0.
        -13    1    4    4    0    0 -0.17916904311E+02  0.12496014810E+02 -0.22882190127E+02  0.31634972676E+02  0.10500000000E+00 0. -1.
         13    1    4    4    0    0 -0.62176939564E+01  0.42928167656E+01 -0.78877498788E+01  0.10923168820E+02  0.10500000000E+00 0.  1.
    3000001    1    5    5    0    0  0.42184607633E+01 -0.22583279708E+01  0.10981765107E+02  0.12020591553E+02  0.10000000000E+01 0. -1.
        -13    1    6    6    0    0  0.19192314790E+02 -0.18973782057E+02  0.27347961903E+02  0.38422277364E+02  0.10500000000E+00 0.  1.
         13    1    6    6    0    0  0.60289856273E+01 -0.59328839264E+01  0.85916155465E+01  0.12057141538E+02  0.10500000000E+00 0. -1.
</event>
<event>
11    0  0.3482988E-009  0.9118800E+02  0.7816531E-02  0.1126479E+00
         25   -1    0    0    0    0  0.00000000000E+00  0.00000000000E+00  0.99999998245E-14  0.12500000000E+03  0.12500000000E+03 0.  0.
    3000001    1    3    3    0    0  0.29326825000E+02  0.31887998971E+02  0.31295836751E+02  0.53454060098E+02  0.10000000000E+01 0. -1.
    1000022    2    1    0    0    0  0.36217094572E+02  0.37490040841E+02  0.33001052041E+02  0.62499995829E+02  0.99999470645E+01 0.  0.
    3000022    2    3    3    0    0  0.68902695716E+01  0.56020418702E+01  0.17052152900E+01  0.90459357313E+01  0.25001236784E+00 0.  0.
    1000022    2    1    0    0    0 -0.36217094572E+02 -0.37490040841E+02 -0.33001052041E+02  0.62500004171E+02  0.99999992027E+01 0.  0.
    3000022    2    5    5    0    0 -0.16679452464E+02 -0.17783100222E+02 -0.21267123520E+02  0.32354224264E+02  0.24999374592E+00 0.  0.
        -13    1    4    4    0    0  0.28082984152E+01  0.22951812782E+01  0.76090741460E+00  0.37073443571E+01  0.10500000000E+00 0. -1.
         13    1    4    4    0    0  0.40819711564E+01  0.33068605920E+01  0.94430787539E+00  0.53385913741E+01  0.10500000000E+00 0.  1.
    3000001    1    5    5    0    0 -0.19537642108E+02 -0.19706940619E+02 -0.11733928522E+02  0.30145779907E+02  0.10000000000E+01 0. -1.
        -13    1    6    6    0    0 -0.58210903798E+01 -0.62585259145E+01 -0.75139865026E+01  0.11380916395E+02  0.10500000000E+00 0.  1.
         13    1    6    6    0    0 -0.10858362085E+02 -0.11524574308E+02 -0.13753137017E+02  0.20973307869E+02  0.10500000000E+00 0. -1.
</event>
<event>
11    0  0.3482988E-009  0.9118800E+02  0.7816531E-02  0.1126479E+00
         25   -1    0    0    0    0  0.00000000000E+00  0.00000000000E+00  0.99999998245E-14  0.12500000000E+03  0.12500000000E+03 0.  0.
    3000001    1    3    3    0    0  0.92339469663E+01  0.13891950502E+02  0.61502020299E+01  0.17806657472E+02  0.10000000000E+01 0.  1.
    1000022    2    1    0    0    0  0.20063151437E+02  0.56183185103E+02  0.15721629487E+02  0.62500000710E+02  0.10000006061E+02 0.  0.
    3000022    2    3    3    0    0  0.10829204470E+02  0.42291234601E+02  0.95714274570E+01  0.44693343238E+02  0.25002543069E+00 0.  0.
    1000022    2    1    0    0    0 -0.20063151437E+02 -0.56183185103E+02 -0.15721629487E+02  0.62499999290E+02  0.99999971839E+01 0.  0.
    3000022    2    5    5    0    0 -0.57756186113E-01 -0.75396675128E+01  0.16989701843E+00  0.75459434132E+01  0.24995002952E+00 0.  0.
        -13    1    4    4    0    0  0.59605911311E+01  0.23519227591E+02  0.52901468273E+01  0.24833030253E+02  0.10500000000E+00 0.  1.
         13    1    4    4    0    0  0.48686133392E+01  0.18772007010E+02  0.42812806297E+01  0.19860312985E+02  0.10500000000E+00 0. -1.
    3000001    1    5    5    0    0 -0.20005395250E+02 -0.48643517590E+02 -0.15891526505E+02  0.54954055877E+02  0.10000000000E+01 0. -1.
        -13    1    6    6    0    0 -0.57690580072E-01 -0.23219289937E+01  0.25880770095E-01  0.23251617727E+01  0.10500000000E+00 0.  1.
         13    1    6    6    0    0 -0.65606041057E-04 -0.52177385190E+01  0.14401624833E+00  0.52207816404E+01  0.10500000000E+00 0. -1.
</event>
<event>
11    0  0.3482988E-009  0.9118800E+02  0.7816531E-02  0.1126479E+00
         25   -1    0    0    0    0  0.00000000000E+00  0.00000000000E+00  0.99999998245E-14  0.12500000000E+03  0.12500000000E+03 0.  0.
    3000001    1    3    3    0    0  0.45597145978E+01  0.23853626963E+02 -0.18321538030E+02  0.30437892047E+02  0.10000000000E+01 0.  1.
    1000022    2    1    0    0    0  0.12569978146E+02  0.41591871914E+02 -0.43799108023E+02  0.62499999243E+02  0.99999940897E+01 0.  0.
    3000022    2    3    3    0    0  0.80102635482E+01  0.17738244952E+02 -0.25477569994E+02  0.32062107196E+02  0.24997797705E+00 0.  0.
    1000022    2    1    0    0    0 -0.12569978146E+02 -0.41591871914E+02  0.43799108023E+02  0.62500000757E+02  0.10000003555E+02 0.  0.
    3000022    2    5    5    0    0 -0.51274662287E+01 -0.52231836648E+01  0.55502468745E+01  0.91891402521E+01  0.25000136447E+00 0.  0.
        -13    1    4    4    0    0  0.42995781200E+01  0.94519338350E+01 -0.13692984906E+02  0.17185292720E+02  0.10500000000E+00 0. -1.
         13    1    4    4    0    0  0.37106854282E+01  0.82863111167E+01 -0.11784585087E+02  0.14876814476E+02  0.10500000000E+00 0.  1.
    3000001    1    5    5    0    0 -0.74425119174E+01 -0.36368688250E+02  0.38248861149E+02  0.53310860505E+02  0.10000000000E+01 0.  1.
        -13    1    6    6    0    0 -0.19298491557E+01 -0.20287715380E+01  0.20705799202E+01  0.34840433297E+01  0.10500000000E+00 0.  1.
         13    1    6    6    0    0 -0.31976170730E+01 -0.31944121268E+01  0.34796669542E+01  0.57050969224E+01  0.10500000000E+00 0. -1.
</event>
<event>
11    0  0.3482988E-009  0.9118800E+02  0.7816531E-02  0.1126479E+00
         25   -1    0    0    0    0  0.00000000000E+00  0.00000000000E+00  0.99999998245E-14  0.12500000000E+03  0.12500000000E+03 0.  0.
    3000001    1    3    3    0    0  0.27159210148E+02  0.76348311827E+01 -0.44261676435E+02  0.52497707987E+02  0.10000000000E+01 0. -1.
    1000022    2    1    0    0    0  0.28234835790E+02  0.95254986859E+01 -0.54021375618E+02  0.62499998829E+02  0.99999876344E+01 0.  0.
    3000022    2    3    3    0    0  0.10756256420E+01  0.18906675032E+01 -0.97596991829E+01  0.10002290842E+02  0.24999964136E+00 0.  0.
    1000022    2    1    0    0    0 -0.28234835790E+02 -0.95254986859E+01  0.54021375618E+02  0.62500001171E+02  0.10000002270E+02 0.  0.
    3000022    2    5    5    0    0 -0.24808011777E+02 -0.63511323060E+01  0.38333264346E+02  0.46100715821E+02  0.25002763642E+00 0.  0.
        -13    1    4    4    0    0  0.25818447254E+00  0.50190293540E+00 -0.26586756039E+01  0.27199534454E+01  0.10500000000E+00 0. -1.
         13    1    4    4    0    0  0.81744116944E+00  0.13887645678E+01 -0.71010235789E+01  0.72823373967E+01  0.10500000000E+00 0.  1.
    3000001    1    5    5    0    0 -0.34268240125E+01 -0.31743663799E+01  0.15688111272E+02  0.16399285350E+02  0.10000000000E+01 0. -1.
        -13    1    6    6    0    0 -0.10626110734E+02 -0.27641266802E+01  0.16346059465E+02  0.19691605082E+02  0.10500000000E+00 0.  1.
         13    1    6    6    0    0 -0.14181901043E+02 -0.35870056258E+01  0.21987204881E+02  0.26409110739E+02  0.10500000000E+00 0. -1.
</event>
<event>
11    0  0.3482988E-009  0.9118800E+02  0.7816531E-02  0.1126479E+00
         25   -1    0    0    0    0  0.00000000000E+00  0.00000000000E+00  0.99999998245E-14  0.12500000000E+03  0.12500000000E+03 0.  0.
    3000001    1    3    3    0    0  0.26313875340E+02 -0.12590832769E+02 -0.74436673533E+01  0.30122371900E+02  0.10000000000E+01 0. -1.
    1000022    2    1    0    0    0  0.57895593928E+02 -0.16655335416E+02 -0.13302266636E+02  0.62500000263E+02  0.99999870601E+01 0.  0.
    3000022    2    3    3    0    0  0.31581718588E+02 -0.40645026460E+01 -0.58585992825E+01  0.32377628363E+02  0.25000426554E+00 0.  0.
    1000022    2    1    0    0    0 -0.57895593928E+02  0.16655335416E+02  0.13302266636E+02  0.62499999737E+02  0.99999837666E+01 0.  0.
    3000022    2    5    5    0    0 -0.45894979191E+02  0.13133011464E+02  0.63566918589E+01  0.48159060818E+02  0.25000483858E+00 0.  0.
        -13    1    4    4    0    0  0.16465351560E+02 -0.20514038970E+01 -0.30613546456E+01  0.16873025135E+02  0.10500000000E+00 0. -1.
         13    1    4    4    0    0  0.15116367028E+02 -0.20130987490E+01 -0.27972446369E+01  0.15504603228E+02  0.10500000000E+00 0.  1.
    3000001    1    5    5    0    0 -0.12000614737E+02  0.35223239513E+01  0.69455747768E+01  0.14340938918E+02  0.10000000000E+01 0. -1.
        -13    1    6    6    0    0 -0.29478048109E+02  0.84066672722E+01  0.41330621074E+01  0.30930900445E+02  0.10500000000E+00 0.  1.
         13    1    6    6    0    0 -0.16416931082E+02  0.47263441920E+01  0.22236297516E+01  0.17228160374E+02  0.10500000000E+00 0. -1.
</event>
<event>
11    0  0.3482988E-009  0.9118800E+02  0.7816531E-02  0.1126479E+00
         25   -1    0    0    0    0  0.00000000000E+00  0.00000000000E+00  0.99999998245E-14  0.12500000000E+03  0.12500000000E+03 0.  0.
    3000001    1    3    3    0    0  0.65194834442E+01 -0.37723192062E+02 -0.15086143294E+02  0.41159866414E+02  0.10000000000E+01 0. -1.
    1000022    2    1    0    0    0  0.47412792264E+01 -0.55104166788E+02 -0.27336802054E+02  0.62500003122E+02  0.10000035875E+02 0.  0.
    3000022    2    3    3    0    0 -0.17782042178E+01 -0.17380974726E+02 -0.12250658760E+02  0.21340136707E+02  0.25000393082E+00 0.  0.
    1000022    2    1    0    0    0 -0.47412792264E+01  0.55104166788E+02  0.27336802054E+02  0.62499996878E+02  0.99999968549E+01 0.  0.
    3000022    2    5    5    0    0  0.16804539275E+01  0.55919339440E+01  0.65250158350E+00  0.58806384437E+01  0.24999910588E+00 0.  0.
        -13    1    4    4    0    0 -0.62813513745E+00 -0.67395730088E+01 -0.47571207506E+01  0.82739120692E+01  0.10500000000E+00 0. -1.
         13    1    4    4    0    0 -0.11500690803E+01 -0.10641401717E+02 -0.74935380095E+01  0.13066224638E+02  0.10500000000E+00 0.  1.
    3000001    1    5    5    0    0 -0.64217331539E+01  0.49512232844E+02  0.26684300471E+02  0.56619358435E+02  0.10000000000E+01 0.  1.
        -13    1    6    6    0    0  0.50517428383E+00  0.16464908569E+01  0.23630760992E+00  0.17415508851E+01  0.10500000000E+00 0. -1.
         13    1    6    6    0    0  0.11752796437E+01  0.39454430870E+01  0.41619397358E+00  0.41390875586E+01  0.10500000000E+00 0.  1.
</event>
<event>
11    0  0.3482988E-009  0.9118800E+02  0.7816531E-02  0.1126479E+00
         25   -1    0    0    0    0  0.00000000000E+00  0.00000000000E+00  0.99999998245E-14  0.12500000000E+03  0.12500000000E+03 0.  0.
    3000001    1    3    3    0    0  0.17519353610E+01  0.20800258333E+01 -0.80974374787E+00  0.30085660893E+01  0.10000000000E+01 0.  1.
    1000022    2    1    0    0    0  0.40477170146E+02  0.40786619671E+02  0.22456628924E+02  0.62500001053E+02  0.10000015090E+02 0.  0.
    3000022    2    3    3    0    0  0.38725234785E+02  0.38706593838E+02  0.23266372672E+02  0.59491434964E+02  0.25004216069E+00 0.  0.
    1000022    2    1    0    0    0 -0.40477170146E+02 -0.40786619671E+02 -0.22456628924E+02  0.62499998947E+02  0.10000001923E+02 0.  0.
    3000022    2    5    5    0    0 -0.29176049322E+02 -0.29593940225E+02 -0.20811482601E+02  0.46478204057E+02  0.24998442349E+00 0.  0.
        -13    1    4    4    0    0  0.22424601363E+02  0.22414768077E+02  0.13402565067E+02  0.34422730130E+02  0.10500000000E+00 0. -1.
         13    1    4    4    0    0  0.16300633422E+02  0.16291825761E+02  0.98638076054E+01  0.25068704834E+02  0.10500000000E+00 0.  1.
    3000001    1    5    5    0    0 -0.11301120824E+02 -0.11192679446E+02 -0.16451463226E+01  0.16021794890E+02  0.10000000000E+01 0. -1.
        -13    1    6    6    0    0 -0.12412073487E+02 -0.12502784786E+02 -0.88476331803E+01  0.19714736456E+02  0.10500000000E+00 0.  1.
         13    1    6    6    0    0 -0.16763975836E+02 -0.17091155439E+02 -0.11963849421E+02  0.26763467601E+02  0.10500000000E+00 0. -1.
</event>
<event>
11    0  0.3482988E-009  0.9118800E+02  0.7816531E-02  0.1126479E+00
         25   -1    0    0    0    0  0.00000000000E+00  0.00000000000E+00  0.99999998245E-14  0.12500000000E+03  0.12500000000E+03 0.  0.
    3000001    1    3    3    0    0  0.31924793345E+01 -0.20073817221E-01  0.95970689926E+00  0.34804259210E+01  0.10000000000E+01 0.  1.
    1000022    2    1    0    0    0  0.40741139748E+02 -0.26515418045E+02  0.37991344934E+02  0.62499997928E+02  0.99999794537E+01 0.  0.
    3000022    2    3    3    0    0  0.37548660414E+02 -0.26495344227E+02  0.37031638034E+02  0.59019572007E+02  0.24999957761E+00 0.  0.
    1000022    2    1    0    0    0 -0.40741139748E+02  0.26515418045E+02 -0.37991344934E+02  0.62500002072E+02  0.10000005350E+02 0.  0.
    3000022    2    5    5    0    0 -0.68435695361E+00 -0.67374621194E+00 -0.17680264673E+01  0.20274851606E+01  0.25000017876E+00 0.  0.
        -13    1    4    4    0    0  0.13376798205E+02 -0.94632393746E+01  0.13273442126E+02  0.21087601110E+02  0.10500000000E+00 0.  1.
         13    1    4    4    0    0  0.24171862209E+02 -0.17032104853E+02  0.23758195908E+02  0.37931970897E+02  0.10500000000E+00 0. -1.
    3000001    1    5    5    0    0 -0.40056782795E+02  0.27189164257E+02 -0.36223318466E+02  0.60472516911E+02  0.10000000000E+01 0. -1.
        -13    1    6    6    0    0 -0.18937866545E+00 -0.26195639445E+00 -0.59119583335E+00  0.68192590865E+00  0.10500000000E+00 0.  1.
         13    1    6    6    0    0 -0.49497828817E+00 -0.41178981749E+00 -0.11768306339E+01  0.13455592520E+01  0.10500000000E+00 0. -1.
</event>
<event>
11    0  0.3482988E-009  0.9118800E+02  0.7816531E-02  0.1126479E+00
         25   -1    0    0    0    0  0.00000000000E+00  0.00000000000E+00  0.99999998245E-14  0.12500000000E+03  0.12500000000E+03 0.  0.
    3000001    1    3    3    0    0  0.10097684849E+02  0.39242251838E+02  0.17756515327E+02  0.44251682513E+02  0.10000000000E+01 0. -1.
    1000022    2    1    0    0    0  0.16798356669E+02  0.56145355177E+02  0.19281192053E+02  0.62499998808E+02  0.99999894697E+01 0.  0.
    3000022    2    3    3    0    0  0.67006718196E+01  0.16903103338E+02  0.15246767265E+01  0.18248316296E+02  0.25000642830E+00 0.  0.
    1000022    2    1    0    0    0 -0.16798356669E+02 -0.56145355177E+02 -0.19281192053E+02  0.62500001192E+02  0.10000004364E+02 0.  0.
    3000022    2    5    5    0    0  0.78072251290E+00 -0.83817729950E+01 -0.13538971375E+01  0.85299010371E+01  0.25005611852E+00 0.  0.
        -13    1    4    4    0    0  0.50481624500E+01  0.12718424501E+02  0.11714988337E+01  0.13734107194E+02  0.10500000000E+00 0.  1.
         13    1    4    4    0    0  0.16525093696E+01  0.41846788377E+01  0.35317789277E+00  0.45142091018E+01  0.10500000000E+00 0. -1.
    3000001    1    5    5    0    0 -0.17579079182E+02 -0.47763582182E+02 -0.17927294916E+02  0.53970100154E+02  0.10000000000E+01 0.  1.
        -13    1    6    6    0    0  0.40335586772E+00 -0.37866319760E+01 -0.65686323104E+00  0.38657175248E+01  0.10500000000E+00 0. -1.
         13    1    6    6    0    0  0.37736664518E+00 -0.45951410190E+01 -0.69703390643E+00  0.46641835123E+01  0.10500000000E+00 0.  1.
</event>
<event>
11    0  0.3482988E-009  0.9118800E+02  0.7816531E-02  0.1126479E+00
         25   -1    0    0    0    0  0.00000000000E+00  0.00000000000E+00  0.99999998245E-14  0.12500000000E+03  0.12500000000E+03 0.  0.
    3000001    1    3    3    0    0 -0.43565532267E+01  0.23325740409E+02 -0.22228660564E+02  0.32529725977E+02  0.10000000000E+01 0. -1.
    1000022    2    1    0    0    0 -0.14355324567E+02  0.38307642087E+02 -0.46181159003E+02  0.62500002775E+02  0.10000005720E+02 0.  0.
    3000022    2    3    3    0    0 -0.99987713399E+01  0.14981901678E+02 -0.23952498439E+02  0.29970276798E+02  0.25000746822E+00 0.  0.
    1000022    2    1    0    0    0  0.14355324567E+02 -0.38307642087E+02  0.46181159003E+02  0.62499997225E+02  0.99999710285E+01 0.  0.
    3000022    2    5    5    0    0  0.13163109356E+02 -0.21339502730E+02  0.27595464588E+02  0.37285573431E+02  0.24999120427E+00 0.  0.
        -13    1    4    4    0    0 -0.53021727597E+01  0.80543983476E+01 -0.12775465108E+02  0.16006558108E+02  0.10500000000E+00 0. -1.
         13    1    4    4    0    0 -0.46965985802E+01  0.69275033304E+01 -0.11177033330E+02  0.13963718691E+02  0.10500000000E+00 0.  1.
    3000001    1    5    5    0    0  0.11922152107E+01 -0.16968139358E+02  0.18585694415E+02  0.25214423794E+02  0.10000000000E+01 0. -1.
        -13    1    6    6    0    0  0.64282510598E+01 -0.10377260862E+02  0.13340501725E+02  0.18082863876E+02  0.10500000000E+00 0. -1.
         13    1    6    6    0    0  0.67348582960E+01 -0.10962241868E+02  0.14254962863E+02  0.19202709555E+02  0.10500000000E+00 0.  1.
</event>
<event>
11    0  0.3482988E-009  0.9118800E+02  0.7816531E-02  0.1126479E+00
         25   -1    0    0    0    0  0.00000000000E+00  0.00000000000E+00  0.99999998245E-14  0.12500000000E+03  0.12500000000E+03 0.  0.
    3000001    1    3    3    0    0 -0.11837960430E+02  0.73598634890E+01 -0.26361040785E+02  0.29836376606E+02  0.10000000000E+01 0. -1.
    1000022    2    1    0    0    0 -0.15589847051E+02  0.11999702917E+02 -0.58474045310E+02  0.62500000372E+02  0.99999935238E+01 0.  0.
    3000022    2    3    3    0    0 -0.37518866217E+01  0.46398394279E+01 -0.32113004525E+02  0.32663623766E+02  0.24998959556E+00 0.  0.
    1000022    2    1    0    0    0  0.15589847051E+02 -0.11999702917E+02  0.58474045310E+02  0.62499999628E+02  0.99999888690E+01 0.  0.
    3000022    2    5    5    0    0  0.14051846671E+02 -0.13491470427E+02  0.48890077717E+02  0.52628664850E+02  0.24999116891E+00 0.  0.
        -13    1    4    4    0    0 -0.16073901822E+01  0.18893036789E+01 -0.13252922202E+02  0.13483476684E+02  0.10500000000E+00 0.  1.
         13    1    4    4    0    0 -0.21444964395E+01  0.27505357490E+01 -0.18860082323E+02  0.19180147082E+02  0.10500000000E+00 0. -1.
    3000001    1    5    5    0    0  0.15380003807E+01  0.14917675096E+01  0.95839675928E+01  0.98713347777E+01  0.10000000000E+01 0.  1.
        -13    1    6    6    0    0  0.73080399942E+01 -0.69255001802E+01  0.25224326035E+02  0.27159669553E+02  0.10500000000E+00 0.  1.
         13    1    6    6    0    0  0.67438066764E+01 -0.65659702464E+01  0.23665751682E+02  0.25468995297E+02  0.10500000000E+00 0. -1.
</event>
<event>
11    0  0.3482988E-009  0.9118800E+02  0.7816531E-02  0.1126479E+00
         25   -1    0    0    0    0  0.00000000000E+00  0.00000000000E+00  0.99999998245E-14  0.12500000000E+03  0.12500000000E+03 0.  0.
    3000001    1    3    3    0    0  0.27192296605E+02 -0.27497763030E+01 -0.48390771451E+02  0.55584611414E+02  0.10000000000E+01 0. -1.
    1000022    2    1    0    0    0  0.32350940799E+02 -0.52148046170E+01 -0.52273062170E+02  0.62500004088E+02  0.99999962280E+01 0.  0.
    3000022    2    3    3    0    0  0.51586441944E+01 -0.24650283139E+01 -0.38822907191E+01  0.69153926744E+01  0.25000020271E+00 0.  0.
    1000022    2    1    0    0    0 -0.32350940799E+02  0.52148046170E+01  0.52273062170E+02  0.62499995912E+02  0.99999451247E+01 0.  0.
    3000022    2    5    5    0    0 -0.65885952821E+01  0.40062529616E+01  0.18096678431E+02  0.19672618580E+02  0.25000190625E+00 0.  0.
        -13    1    4    4    0    0  0.18138568251E+01 -0.86763867494E+00 -0.12977874279E+01  0.23954437293E+01  0.10500000000E+00 0. -1.
         13    1    4    4    0    0  0.33447873693E+01 -0.15973896390E+01 -0.25845032912E+01  0.45199489452E+01  0.10500000000E+00 0.  1.
    3000001    1    5    5    0    0 -0.25762345517E+02  0.12085516554E+01  0.34176383739E+02  0.42827377332E+02  0.10000000000E+01 0. -1.
        -13    1    6    6    0    0 -0.41727077835E+01  0.26014636229E+01  0.11588163141E+02  0.12588711340E+02  0.10500000000E+00 0. -1.
         13    1    6    6    0    0 -0.24158874986E+01  0.14047893387E+01  0.65085152903E+01  0.70839072394E+01  0.10500000000E+00 0.  1.
</event>
<event>
11    0  0.3482988E-009  0.9118800E+02  0.7816531E-02  0.1126479E+00
         25   -1    0    0    0    0  0.00000000000E+00  0.00000000000E+00  0.99999998245E-14  0.12500000000E+03  0.12500000000E+03 0.  0.
    3000001    1    3    3    0    0  0.35600967399E+02  0.33741346785E+02 -0.17630040808E+02  0.52131810840E+02  0.10000000000E+01 0. -1.
    1000022    2    1    0    0    0  0.43741599206E+02  0.40110453939E+02 -0.16854500421E+02  0.62500001428E+02  0.99999988850E+01 0.  0.
    3000022    2    3    3    0    0  0.81406318074E+01  0.63691071542E+01  0.77554038684E+00  0.10368190587E+02  0.25000200204E+00 0.  0.
    1000022    2    1    0    0    0 -0.43741599206E+02 -0.40110453939E+02  0.16854500421E+02  0.62499998572E+02  0.99999810370E+01 0.  0.
    3000022    2    5    5    0    0 -0.31939044720E+02 -0.30855329790E+02  0.82176820012E+01  0.45163555805E+02  0.25004268382E+00 0.  0.
        -13    1    4    4    0    0  0.27880946968E+01  0.22520628558E+01  0.27461433095E+00  0.35960669036E+01  0.10500000000E+00 0.  1.
         13    1    4    4    0    0  0.53525371106E+01  0.41170442984E+01  0.50092605589E+00  0.67721236838E+01  0.10500000000E+00 0. -1.
    3000001    1    5    5    0    0 -0.11802554486E+02 -0.92551241489E+01  0.86368184202E+01  0.17336442768E+02  0.10000000000E+01 0.  1.
        -13    1    6    6    0    0 -0.24196908633E+02 -0.23387032402E+02  0.62070471292E+01  0.34219616173E+02  0.10500000000E+00 0. -1.
         13    1    6    6    0    0 -0.77421360875E+01 -0.74682973881E+01  0.20106348719E+01  0.10943939632E+02  0.10500000000E+00 0.  1.
</event>
<event>
11    0  0.3482988E-009  0.9118800E+02  0.7816531E-02  0.1126479E+00
         25   -1    0    0    0    0  0.00000000000E+00  0.00000000000E+00  0.99999998245E-14  0.12500000000E+03  0.12500000000E+03 0.  0.
    3000001    1    3    3    0    0  0.31231407977E+02 -0.22176854217E+02 -0.87032234360E+00  0.38327159667E+02  0.10000000000E+01 0.  1.
    1000022    2    1    0    0    0  0.51472197390E+02 -0.33486169414E+02  0.59614779017E+01  0.62499999227E+02  0.10000001921E+02 0.  0.
    3000022    2    3    3    0    0  0.20240789412E+02 -0.11309315197E+02  0.68318002453E+01  0.24172839559E+02  0.25002299287E+00 0.  0.
    1000022    2    1    0    0    0 -0.51472197390E+02  0.33486169414E+02 -0.59614779017E+01  0.62500000773E+02  0.10000011585E+02 0.  0.
    3000022    2    5    5    0    0 -0.50500772752E+02  0.30863828993E+02 -0.50872351352E+01  0.59404094520E+02  0.24999159656E+00 0.  0.
        -13    1    4    4    0    0  0.12798160473E+02 -0.72175834444E+01  0.43193345280E+01  0.15315159093E+02  0.10500000000E+00 0. -1.
         13    1    4    4    0    0  0.74426289395E+01 -0.40917317530E+01  0.25124657172E+01  0.88576804667E+01  0.10500000000E+00 0.  1.
    3000001    1    5    5    0    0 -0.97142463786E+00  0.26223404216E+01 -0.87424276651E+00  0.30959062532E+01  0.10000000000E+01 0. -1.
        -13    1    6    6    0    0 -0.13199716506E+02  0.80486887368E+01 -0.13006825968E+01  0.15515047742E+02  0.10500000000E+00 0.  1.
         13    1    6    6    0    0 -0.37301056245E+02  0.22815140256E+02 -0.37865525384E+01  0.43889046778E+02  0.10500000000E+00 0. -1.
</event>
<event>
11    0  0.3482988E-009  0.9118800E+02  0.7816531E-02  0.1126479E+00
         25   -1    0    0    0    0  0.00000000000E+00  0.00000000000E+00  0.99999998245E-14  0.12500000000E+03  0.12500000000E+03 0.  0.
    3000001    1    3    3    0    0 -0.26133241649E+02 -0.20214753176E+01  0.13012273176E+02  0.29280572651E+02  0.10000000000E+01 0. -1.
    1000022    2    1    0    0    0 -0.52592989529E+02 -0.14286137908E+02  0.28915973453E+02  0.62500000520E+02  0.10000013018E+02 0.  0.
    3000022    2    3    3    0    0 -0.26459747880E+02 -0.12264662590E+02  0.15903700277E+02  0.33219427869E+02  0.24999828309E+00 0.  0.
    1000022    2    1    0    0    0  0.52592989529E+02  0.14286137908E+02 -0.28915973453E+02  0.62499999480E+02  0.10000006516E+02 0.  0.
    3000022    2    5    5    0    0  0.44475247535E+02  0.14217770244E+02 -0.27527817268E+02  0.54203651680E+02  0.24999584453E+00 0.  0.
        -13    1    4    4    0    0 -0.97620034309E+01 -0.45834618762E+01  0.58505609865E+01  0.12269674919E+02  0.10500000000E+00 0.  1.
         13    1    4    4    0    0 -0.16697744449E+02 -0.76812007143E+01  0.10053139290E+02  0.20949752950E+02  0.10500000000E+00 0. -1.
    3000001    1    5    5    0    0  0.81177419938E+01  0.68367663871E-01 -0.13881561850E+01  0.82963477995E+01  0.10000000000E+01 0.  1.
        -13    1    6    6    0    0  0.16747471743E+02  0.53053726848E+01 -0.10402372280E+02  0.20416786308E+02  0.10500000000E+00 0. -1.
         13    1    6    6    0    0  0.27727775793E+02  0.89123975593E+01 -0.17125444988E+02  0.33786865372E+02  0.10500000000E+00 0.  1.
</event>
<event>
11    0  0.3482988E-009  0.9118800E+02  0.7816531E-02  0.1126479E+00
         25   -1    0    0    0    0  0.00000000000E+00  0.00000000000E+00  0.99999998245E-14  0.12500000000E+03  0.12500000000E+03 0.  0.
    3000001    1    3    3    0    0  0.10993246052E+02 -0.22458285008E+02 -0.10579327792E+02  0.27168882951E+02  0.10000000000E+01 0. -1.
    1000022    2    1    0    0    0  0.29975630786E+02 -0.44014701679E+02 -0.31151524011E+02  0.62499999414E+02  0.10000003680E+02 0.  0.
    3000022    2    3    3    0    0  0.18982384734E+02 -0.21556416671E+02 -0.20572196219E+02  0.35331116463E+02  0.25000674594E+00 0.  0.
    1000022    2    1    0    0    0 -0.29975630786E+02  0.44014701679E+02  0.31151524011E+02  0.62500000586E+02  0.10000011008E+02 0.  0.
    3000022    2    5    5    0    0 -0.37247584760E+01  0.78913936839E+01  0.93701377471E+01  0.12806636189E+02  0.25005818594E+00 0.  0.
        -13    1    4    4    0    0  0.68694840193E+01 -0.77131737089E+01 -0.73985098641E+01  0.12705582732E+02  0.10500000000E+00 0.  1.
         13    1    4    4    0    0  0.12112900715E+02 -0.13843242962E+02 -0.13173686354E+02  0.22625533731E+02  0.10500000000E+00 0. -1.
    3000001    1    5    5    0    0 -0.26250872311E+02  0.36123307995E+02  0.21781386264E+02  0.49693364397E+02  0.10000000000E+01 0.  1.
        -13    1    6    6    0    0 -0.21644867268E+01  0.47200728677E+01  0.55344316296E+01  0.75897990177E+01  0.10500000000E+00 0. -1.
         13    1    6    6    0    0 -0.15602717492E+01  0.31713208162E+01  0.38357061175E+01  0.52168371712E+01  0.10500000000E+00 0.  1.
</event>
<event>
11    0  0.3482988E-009  0.9118800E+02  0.7816531E-02  0.1126479E+00
         25   -1    0    0    0    0  0.00000000000E+00  0.00000000000E+00  0.99999998245E-14  0.12500000000E+03  0.12500000000E+03 0.  0.
    3000001    1    3    3    0    0 -0.18520069999E+02  0.12092046699E+02  0.47465727042E+02  0.52375622476E+02  0.10000000000E+01 0. -1.
    1000022    2    1    0    0    0 -0.18245974857E+02  0.12610664690E+02  0.57570004152E+02  0.62499999284E+02  0.10000003503E+02 0.  0.
    3000022    2    3    3    0    0  0.27409514219E+00  0.51861799171E+00  0.10104277110E+02  0.10124376809E+02  0.24999413851E+00 0.  0.
    1000022    2    1    0    0    0  0.18245974857E+02 -0.12610664690E+02 -0.57570004152E+02  0.62500000716E+02  0.10000012450E+02 0.  0.
    3000022    2    5    5    0    0  0.16238405235E+02 -0.12740544565E+02 -0.56194856524E+02  0.59865947647E+02  0.25001517474E+00 0.  0.
        -13    1    4    4    0    0  0.17814990952E+00  0.28685144436E+00  0.47138907396E+01  0.47271357127E+01  0.10500000000E+00 0. -1.
         13    1    4    4    0    0  0.95945232674E-01  0.23176654735E+00  0.53903863709E+01  0.53972410959E+01  0.10500000000E+00 0.  1.
    3000001    1    5    5    0    0  0.20075696219E+01  0.12987987498E+00 -0.13751476284E+01  0.26340530687E+01  0.10000000000E+01 0.  1.
        -13    1    6    6    0    0  0.10543556458E+02 -0.83195196469E+01 -0.36688456204E+02  0.39069615222E+02  0.10500000000E+00 0.  1.
         13    1    6    6    0    0  0.56948487766E+01 -0.44210249185E+01 -0.19506400320E+02  0.20796332426E+02  0.10500000000E+00 0. -1.
</event>
<event>
11    0  0.3482988E-009  0.9118800E+02  0.7816531E-02  0.1126479E+00
         25   -1    0    0    0    0  0.00000000000E+00  0.00000000000E+00  0.99999998245E-14  0.12500000000E+03  0.12500000000E+03 0.  0.
    3000001    1    3    3    0    0 -0.65117172897E+01 -0.25295555460E+02 -0.16750184515E+02  0.31045712576E+02  0.10000000000E+01 0. -1.
    1000022    2    1    0    0    0 -0.10158356796E+02 -0.55344004799E+02 -0.25300178669E+02  0.62499999826E+02  0.99999928766E+01 0.  0.
    3000022    2    3    3    0    0 -0.36466395065E+01 -0.30048449340E+02 -0.85499941548E+01  0.31454287250E+02  0.24999792045E+00 0.  0.
    1000022    2    1    0    0    0  0.10158356796E+02  0.55344004799E+02  0.25300178669E+02  0.62500000174E+02  0.99999950509E+01 0.  0.
    3000022    2    5    5    0    0  0.27527593523E+01  0.34102096660E+02  0.18914098834E+02  0.39093942185E+02  0.25000045550E+00 0.  0.
        -13    1    4    4    0    0 -0.15696350577E+01 -0.12686660377E+02 -0.35509157211E+01  0.13267823227E+02  0.10500000000E+00 0. -1.
         13    1    4    4    0    0 -0.20770044488E+01 -0.17361788963E+02 -0.49990784337E+01  0.18186464023E+02  0.10500000000E+00 0.  1.
    3000001    1    5    5    0    0  0.74055974440E+01  0.21241908140E+02  0.63860798351E+01  0.23406057989E+02  0.10000000000E+01 0.  1.
        -13    1    6    6    0    0  0.12434594672E+01  0.14907054275E+02  0.82098238030E+01  0.17063958816E+02  0.10500000000E+00 0.  1.
         13    1    6    6    0    0  0.15092998851E+01  0.19195042385E+02  0.10704275031E+02  0.22029983369E+02  0.10500000000E+00 0. -1.
</event>
<event>
11    0  0.3482988E-009  0.9118800E+02  0.7816531E-02  0.1126479E+00
         25   -1    0    0    0    0  0.00000000000E+00  0.00000000000E+00  0.99999998245E-14  0.12500000000E+03  0.12500000000E+03 0.  0.
    3000001    1    3    3    0    0 -0.13188632907E+02 -0.61512604622E+01 -0.31723742419E+00  0.14590362669E+02  0.10000000000E+01 0.  1.
    1000022    2    1    0    0    0 -0.58960729487E+02 -0.12970351512E+02 -0.12714255244E+02  0.62500000310E+02  0.10000005618E+02 0.  0.
    3000022    2    3    3    0    0 -0.45772096580E+02 -0.68190910499E+01 -0.12397017820E+02  0.47909637641E+02  0.24999998227E+00 0.  0.
    1000022    2    1    0    0    0  0.58960729487E+02  0.12970351512E+02  0.12714255244E+02  0.62499999690E+02  0.10000001739E+02 0.  0.
    3000022    2    5    5    0    0  0.40640155873E+02  0.46999170849E+01  0.64160497688E+01  0.41411830130E+02  0.24998017213E+00 0.  0.
        -13    1    4    4    0    0 -0.16860867699E+02 -0.24660616661E+01 -0.45253505992E+01  0.17631226354E+02  0.10500000000E+00 0.  1.
         13    1    4    4    0    0 -0.28911228882E+02 -0.43530293837E+01 -0.78716672207E+01  0.30278411287E+02  0.10500000000E+00 0. -1.
    3000001    1    5    5    0    0  0.18320573614E+02  0.82704344271E+01  0.62982054753E+01  0.21088169560E+02  0.10000000000E+01 0. -1.
        -13    1    6    6    0    0  0.10445936913E+02  0.12185340909E+01  0.16780438393E+01  0.10650318279E+02  0.10500000000E+00 0.  1.
         13    1    6    6    0    0  0.30194218960E+02  0.34813829939E+01  0.47380059295E+01  0.30761511851E+02  0.10500000000E+00 0. -1.
</event>
<event>
11    0  0.3482988E-009  0.9118800E+02  0.7816531E-02  0.1126479E+00
         25   -1    0    0    0    0  0.00000000000E+00  0.00000000000E+00  0.99999998245E-14  0.12500000000E+03  0.12500000000E+03 0.  0.
    3000001    1    3    3    0    0 -0.49550774674E+01 -0.45446012241E+00 -0.29755943679E+01  0.58833229176E+01  0.10000000000E+01 0.  1.
    1000022    2    1    0    0    0 -0.32581513246E+02 -0.15837035695E+02 -0.49938793973E+02  0.62500000392E+02  0.10000010029E+02 0.  0.
    3000022    2    3    3    0    0 -0.27626435778E+02 -0.15382575572E+02 -0.46963199605E+02  0.56616677475E+02  0.24993214254E+00 0.  0.
    1000022    2    1    0    0    0  0.32581513246E+02  0.15837035695E+02  0.49938793973E+02  0.62499999608E+02  0.10000005124E+02 0.  0.
    3000022    2    5    5    0    0  0.19862868492E+02  0.13313189988E+02  0.26495518463E+02  0.35691029315E+02  0.25000506277E+00 0.  0.
        -13    1    4    4    0    0 -0.16295476597E+02 -0.91435501670E+01 -0.27783779569E+02  0.33482779145E+02  0.10500000000E+00 0.  1.
         13    1    4    4    0    0 -0.11330959181E+02 -0.62390254054E+01 -0.19179420037E+02  0.23133898329E+02  0.10500000000E+00 0. -1.
    3000001    1    5    5    0    0  0.12718644753E+02  0.25238457065E+01  0.23443275510E+02  0.26808970292E+02  0.10000000000E+01 0.  1.
        -13    1    6    6    0    0  0.11061148473E+02  0.73347731782E+01  0.14690660699E+02  0.19798344373E+02  0.10500000000E+00 0.  1.
         13    1    6    6    0    0  0.88017200196E+01  0.59784168101E+01  0.11804857764E+02  0.15892684943E+02  0.10500000000E+00 0. -1.
</event>
<event>
11    0  0.3482988E-009  0.9118800E+02  0.7816531E-02  0.1126479E+00
         25   -1    0    0    0    0  0.00000000000E+00  0.00000000000E+00  0.99999998245E-14  0.12500000000E+03  0.12500000000E+03 0.  0.
    3000001    1    3    3    0    0 -0.84432176992E+01  0.41489100506E+01  0.12177239744E+02  0.15420329034E+02  0.10000000000E+01 0. -1.
    1000022    2    1    0    0    0 -0.46351867330E+02  0.16318547876E+02  0.37302276576E+02  0.62500003847E+02  0.10000001671E+02 0.  0.
    3000022    2    3    3    0    0 -0.37908649631E+02  0.12169637825E+02  0.25125036831E+02  0.47079674814E+02  0.25000624235E+00 0.  0.
    1000022    2    1    0    0    0  0.46351867330E+02 -0.16318547876E+02 -0.37302276576E+02  0.62499996153E+02  0.99999535785E+01 0.  0.
    3000022    2    5    5    0    0  0.19131036473E+01 -0.31378953036E+01 -0.38505465429E+01  0.53287484656E+01  0.24999805944E+00 0.  0.
        -13    1    4    4    0    0 -0.24816754260E+02  0.79342406860E+01  0.16386755102E+02  0.30779217583E+02  0.10500000000E+00 0.  1.
         13    1    4    4    0    0 -0.13091895371E+02  0.42353971394E+01  0.87382817290E+01  0.16300457230E+02  0.10500000000E+00 0. -1.
    3000001    1    5    5    0    0  0.44438763683E+02 -0.13180652572E+02 -0.33451730033E+02  0.57171247687E+02  0.10000000000E+01 0.  1.
        -13    1    6    6    0    0  0.13681909216E+01 -0.22554206492E+01 -0.28181544814E+01  0.38615914315E+01  0.10500000000E+00 0. -1.
         13    1    6    6    0    0  0.54491272571E+00 -0.88247465437E+00 -0.10323920615E+01  0.14671570342E+01  0.10500000000E+00 0.  1.
</event>
<event>
11    0  0.3482988E-009  0.9118800E+02  0.7816531E-02  0.1126479E+00
         25   -1    0    0    0    0  0.00000000000E+00  0.00000000000E+00  0.99999998245E-14  0.12500000000E+03  0.12500000000E+03 0.  0.
    3000001    1    3    3    0    0 -0.38556742886E+02  0.40046433462E+02  0.13146872402E+02  0.57132998424E+02  0.10000000000E+01 0. -1.
    1000022    2    1    0    0    0 -0.43251359262E+02  0.41184721225E+02  0.15472184216E+02  0.62499999977E+02  0.10000008617E+02 0.  0.
    3000022    2    3    3    0    0 -0.46946163752E+01  0.11382877634E+01  0.23253118142E+01  0.53670015526E+01  0.25001737924E+00 0.  0.
    1000022    2    1    0    0    0  0.43251359262E+02 -0.41184721225E+02 -0.15472184216E+02  0.62500000023E+02  0.10000008904E+02 0.  0.
    3000022    2    5    5    0    0  0.40060451245E+02 -0.34387791193E+02 -0.11878535326E+02  0.54115820625E+02  0.25000664364E+00 0.  0.
        -13    1    4    4    0    0 -0.31531453840E+01  0.80797463905E+00  0.15996153747E+01  0.36283526809E+01  0.10500000000E+00 0. -1.
         13    1    4    4    0    0 -0.15414709912E+01  0.33031312437E+00  0.72569643945E+00  0.17386488717E+01  0.10500000000E+00 0.  1.
    3000001    1    5    5    0    0  0.31909080169E+01 -0.67969300323E+01 -0.35936488906E+01  0.83841793984E+01  0.10000000000E+01 0. -1.
        -13    1    6    6    0    0  0.28690118238E+02 -0.24617801438E+02 -0.85469442942E+01  0.38758486992E+02  0.10500000000E+00 0. -1.
         13    1    6    6    0    0  0.11370333007E+02 -0.97699897555E+01 -0.33315910313E+01  0.15357333633E+02  0.10500000000E+00 0.  1.
</event>
<event>
11    0  0.3482988E-009  0.9118800E+02  0.7816531E-02  0.1126479E+00
         25   -1    0    0    0    0  0.00000000000E+00  0.00000000000E+00  0.99999998245E-14  0.12500000000E+03  0.12500000000E+03 0.  0.
    3000001    1    3    3    0    0 -0.77660126556E+01 -0.64801373761E+01  0.27506608510E+01  0.10529447664E+02  0.10000000000E+01 0.  1.
    1000022    2    1    0    0    0 -0.53463848619E+02 -0.30696683589E+02 -0.23623133147E+01  0.62500000144E+02  0.10000000067E+02 0.  0.
    3000022    2    3    3    0    0 -0.45697835963E+02 -0.24216546213E+02 -0.51129741657E+01  0.51970552481E+02  0.24999628868E+00 0.  0.
    1000022    2    1    0    0    0  0.53463848619E+02  0.30696683589E+02  0.23623133147E+01  0.62499999856E+02  0.99999982667E+01 0.  0.
    3000022    2    5    5    0    0  0.25327190194E+02  0.88921216396E+01  0.85605230244E+00  0.26857619305E+02  0.24999762307E+00 0.  0.
        -13    1    4    4    0    0 -0.19168868867E+02 -0.10094557913E+02 -0.21741310070E+01  0.21773458699E+02  0.10500000000E+00 0. -1.
         13    1    4    4    0    0 -0.26528967096E+02 -0.14121988300E+02 -0.29388431587E+01  0.30197093781E+02  0.10500000000E+00 0.  1.
    3000001    1    5    5    0    0  0.28136658424E+02  0.21804561949E+02  0.15062610123E+01  0.35642380551E+02  0.10000000000E+01 0. -1.
        -13    1    6    6    0    0  0.14730043407E+02  0.52395122272E+01  0.49048498001E+00  0.15642195104E+02  0.10500000000E+00 0. -1.
         13    1    6    6    0    0  0.10597146787E+02  0.36526094124E+01  0.36556732242E+00  0.11215424201E+02  0.10500000000E+00 0.  1.
</event>
<event>
11    0  0.3482988E-009  0.9118800E+02  0.7816531E-02  0.1126479E+00
         25   -1    0    0    0    0  0.00000000000E+00  0.00000000000E+00  0.99999998245E-14  0.12500000000E+03  0.12500000000E+03 0.  0.
    3000001    1    3    3    0    0 -0.12543247115E+02 -0.98236015260E+01 -0.11591608051E+02  0.19728192323E+02  0.10000000000E+01 0.  1.
    1000022    2    1    0    0    0 -0.47234289089E+02 -0.31353360272E+02 -0.24333901985E+02  0.62499999186E+02  0.99999923204E+01 0.  0.
    3000022    2    3    3    0    0 -0.34691041974E+02 -0.21529758746E+02 -0.12742293934E+02  0.42771806863E+02  0.25000553274E+00 0.  0.
    1000022    2    1    0    0    0  0.47234289089E+02  0.31353360272E+02  0.24333901985E+02  0.62500000814E+02  0.10000002490E+02 0.  0.
    3000022    2    5    5    0    0  0.46785230602E+02  0.31236300522E+02  0.23014647161E+02  0.60780759760E+02  0.25000054467E+00 0.  0.
        -13    1    4    4    0    0 -0.21663869418E+02 -0.13454285432E+02 -0.80213582053E+01  0.26733766048E+02  0.10500000000E+00 0.  1.
         13    1    4    4    0    0 -0.13027172556E+02 -0.80754733137E+01 -0.47209357290E+01  0.16038040815E+02  0.10500000000E+00 0. -1.
    3000001    1    5    5    0    0  0.44905848729E+00  0.11705974976E+00  0.13192548242E+01  0.17192410538E+01  0.10000000000E+01 0. -1.
        -13    1    6    6    0    0  0.12215989845E+02  0.81565486672E+01  0.59747977718E+01  0.15857771832E+02  0.10500000000E+00 0. -1.
         13    1    6    6    0    0  0.34569240756E+02  0.23079751855E+02  0.17039849389E+02  0.44922987928E+02  0.10500000000E+00 0.  1.
</event>
<event>
11    0  0.3482988E-009  0.9118800E+02  0.7816531E-02  0.1126479E+00
         25   -1    0    0    0    0  0.00000000000E+00  0.00000000000E+00  0.99999998245E-14  0.12500000000E+03  0.12500000000E+03 0.  0.
    3000001    1    3    3    0    0 -0.56632233654E+02  0.10429476601E+02  0.58958571404E+00  0.57596280107E+02  0.10000000000E+01 0.  1.
    1000022    2    1    0    0    0 -0.60218208471E+02  0.13189056572E+02  0.24629553898E+01  0.62499999958E+02  0.10000000034E+02 0.  0.
    3000022    2    3    3    0    0 -0.35859748172E+01  0.27595799701E+01  0.18733696757E+01  0.49037198505E+01  0.24991484465E+00 0.  0.
    1000022    2    1    0    0    0  0.60218208471E+02 -0.13189056572E+02 -0.24629553898E+01  0.62500000042E+02  0.10000000565E+02 0.  0.
    3000022    2    5    5    0    0  0.24633792459E+02 -0.23717776520E+01 -0.48425323756E+01  0.25218281026E+02  0.25003593457E+00 0.  0.
        -13    1    4    4    0    0 -0.14978612516E+01  0.11106029382E+01  0.71315884886E+00  0.19991617641E+01  0.10500000000E+00 0.  1.
         13    1    4    4    0    0 -0.20881135655E+01  0.16489770320E+01  0.11602108269E+01  0.29045580864E+01  0.10500000000E+00 0. -1.
    3000001    1    5    5    0    0  0.35584416013E+02 -0.10817278920E+02  0.23795769858E+01  0.37281719016E+02  0.10000000000E+01 0. -1.
        -13    1    6    6    0    0  0.78084845926E+01 -0.77259348882E+00 -0.15820020042E+01  0.80051912953E+01  0.10500000000E+00 0.  1.
         13    1    6    6    0    0  0.16825307866E+02 -0.15991841632E+01 -0.32605303714E+01  0.17213089731E+02  0.10500000000E+00 0. -1.
</event>
<event>
11    0  0.3482988E-009  0.9118800E+02  0.7816531E-02  0.1126479E+00
         25   -1    0    0    0    0  0.00000000000E+00  0.00000000000E+00  0.99999998245E-14  0.12500000000E+03  0.12500000000E+03 0.  0.
    3000001    1    3    3    0    0 -0.16853142975E+01 -0.17361974832E+01 -0.76695311476E+01  0.81040961251E+01  0.10000000000E+01 0.  1.
    1000022    2    1    0    0    0 -0.26744228049E+02 -0.30036754509E+02 -0.46784504398E+02  0.62499999628E+02  0.99999873215E+01 0.  0.
    3000022    2    3    3    0    0 -0.25058913751E+02 -0.28300557026E+02 -0.39114973250E+02  0.54395903503E+02  0.24999838357E+00 0.  0.
    1000022    2    1    0    0    0  0.26744228049E+02  0.30036754509E+02  0.46784504398E+02  0.62500000372E+02  0.99999919666E+01 0.  0.
    3000022    2    5    5    0    0  0.25971619926E+02  0.28496049846E+02  0.40549060485E+02  0.55953898100E+02  0.25001576777E+00 0.  0.
        -13    1    4    4    0    0 -0.18447015326E+02 -0.20783031570E+02 -0.28746826209E+02  0.39982718989E+02  0.10500000000E+00 0. -1.
         13    1    4    4    0    0 -0.66118984254E+01 -0.75175254558E+01 -0.10368147041E+02  0.14413184514E+02  0.10500000000E+00 0.  1.
    3000001    1    5    5    0    0  0.77260812241E+00  0.15407046636E+01  0.62354439124E+01  0.65461022721E+01  0.10000000000E+01 0.  1.
        -13    1    6    6    0    0  0.13669771544E+02  0.14900964023E+02  0.21289539538E+02  0.29362508436E+02  0.10500000000E+00 0.  1.
         13    1    6    6    0    0  0.12301848382E+02  0.13595085823E+02  0.19259520947E+02  0.26591389664E+02  0.10500000000E+00 0. -1.
</event>
<event>
11    0  0.3482988E-009  0.9118800E+02  0.7816531E-02  0.1126479E+00
         25   -1    0    0    0    0  0.00000000000E+00  0.00000000000E+00  0.99999998245E-14  0.12500000000E+03  0.12500000000E+03 0.  0.
    3000001    1    3    3    0    0 -0.35306184842E+02  0.15999723687E+02  0.38574972476E+02  0.54695030374E+02  0.10000000000E+01 0.  1.
    1000022    2    1    0    0    0 -0.42525930425E+02  0.16800045344E+02  0.41419238961E+02  0.62500002640E+02  0.10000034591E+02 0.  0.
    3000022    2    3    3    0    0 -0.72197455838E+01  0.80032165640E+00  0.28442664851E+01  0.78049722657E+01  0.24999836543E+00 0.  0.
    1000022    2    1    0    0    0  0.42525930425E+02 -0.16800045344E+02 -0.41419238961E+02  0.62499997360E+02  0.10000001592E+02 0.  0.
    3000022    2    5    5    0    0  0.21236623600E+02 -0.12324092987E+02 -0.26346561653E+02  0.36015014147E+02  0.24996630784E+00 0.  0.
        -13    1    4    4    0    0 -0.42268368891E+01  0.48967309287E+00  0.16004950343E+01  0.45473661806E+01  0.10500000000E+00 0.  1.
         13    1    4    4    0    0 -0.29929086946E+01  0.31064856353E+00  0.12437714508E+01  0.32576060852E+01  0.10500000000E+00 0. -1.
    3000001    1    5    5    0    0  0.21289306825E+02 -0.44759523567E+01 -0.15072677307E+02  0.26484983213E+02  0.10000000000E+01 0. -1.
        -13    1    6    6    0    0  0.73821389503E+01 -0.43445166418E+01 -0.92218598364E+01  0.12586680427E+02  0.10500000000E+00 0.  1.
         13    1    6    6    0    0  0.13854484649E+02 -0.79795763454E+01 -0.17124701817E+02  0.23428333719E+02  0.10500000000E+00 0. -1.
</event>
<event>
11    0  0.3482988E-009  0.9118800E+02  0.7816531E-02  0.1126479E+00
         25   -1    0    0    0    0  0.00000000000E+00  0.00000000000E+00  0.99999998245E-14  0.12500000000E+03  0.12500000000E+03 0.  0.
    3000001    1    3    3    0    0 -0.17989416136E+02 -0.18414707692E+01 -0.12075000915E+02  0.21767309310E+02  0.10000000000E+01 0.  1.
    1000022    2    1    0    0    0 -0.44488175994E+02  0.28748101992E+01 -0.42647246143E+02  0.62500002207E+02  0.10000016769E+02 0.  0.
    3000022    2    3    3    0    0 -0.26498759857E+02  0.47162809684E+01 -0.30572245228E+02  0.40732692896E+02  0.25002437251E+00 0.  0.
    1000022    2    1    0    0    0  0.44488175994E+02 -0.28748101992E+01  0.42647246143E+02  0.62499997793E+02  0.99999891847E+01 0.  0.
    3000022    2    5    5    0    0  0.34201059071E+02 -0.63438736933E+01  0.32280089488E+02  0.47455493374E+02  0.24999810247E+00 0.  0.
        -13    1    4    4    0    0 -0.14378505995E+02  0.25316550042E+01 -0.16676043595E+02  0.22164209137E+02  0.10500000000E+00 0. -1.
         13    1    4    4    0    0 -0.12120253862E+02  0.21846259642E+01 -0.13896201633E+02  0.18568483759E+02  0.10500000000E+00 0.  1.
    3000001    1    5    5    0    0  0.10287116922E+02  0.34690634940E+01  0.10367156655E+02  0.15044504419E+02  0.10000000000E+01 0. -1.
        -13    1    6    6    0    0  0.25037194106E+02 -0.46793169171E+01  0.23629126648E+02  0.34743398606E+02  0.10500000000E+00 0. -1.
         13    1    6    6    0    0  0.91638649652E+01 -0.16645567762E+01  0.86509628393E+01  0.12712094769E+02  0.10500000000E+00 0.  1.
</event>
<event>
11    0  0.3482988E-009  0.9118800E+02  0.7816531E-02  0.1126479E+00
         25   -1    0    0    0    0  0.00000000000E+00  0.00000000000E+00  0.99999998245E-14  0.12500000000E+03  0.12500000000E+03 0.  0.
    3000001    1    3    3    0    0 -0.25864437676E+02  0.20046728474E+02  0.17876877853E+02  0.37301785756E+02  0.10000000000E+01 0.  1.
    1000022    2    1    0    0    0 -0.36810121791E+02  0.35632615733E+02  0.34374140819E+02  0.62500001364E+02  0.10000012161E+02 0.  0.
    3000022    2    3    3    0    0 -0.10945684115E+02  0.15585887259E+02  0.16497262966E+02  0.25198215608E+02  0.25000415985E+00 0.  0.
    1000022    2    1    0    0    0  0.36810121791E+02 -0.35632615733E+02 -0.34374140819E+02  0.62499998636E+02  0.99999951126E+01 0.  0.
    3000022    2    5    5    0    0  0.29051120989E+02 -0.30144309290E+02 -0.31885201551E+02  0.52624857131E+02  0.24999378809E+00 0.  0.
        -13    1    4    4    0    0 -0.33696842757E+01  0.47495527463E+01  0.50954118757E+01  0.77386866192E+01  0.10500000000E+00 0.  1.
         13    1    4    4    0    0 -0.75759998396E+01  0.10836334512E+02  0.11401851090E+02  0.17459528989E+02  0.10500000000E+00 0. -1.
    3000001    1    5    5    0    0  0.77590008023E+01 -0.54883064426E+01 -0.24889392683E+01  0.98751415047E+01  0.10000000000E+01 0. -1.
        -13    1    6    6    0    0  0.21064692520E+02 -0.21806494161E+02 -0.23073214010E+02  0.38100245253E+02  0.10500000000E+00 0. -1.
         13    1    6    6    0    0  0.79864284682E+01 -0.83378151289E+01 -0.88119875403E+01  0.14524611878E+02  0.10500000000E+00 0.  1.
</event>
<event>
11    0  0.3482988E-009  0.9118800E+02  0.7816531E-02  0.1126479E+00
         25   -1    0    0    0    0  0.00000000000E+00  0.00000000000E+00  0.99999998245E-14  0.12500000000E+03  0.12500000000E+03 0.  0.
    3000001    1    3    3    0    0 -0.17254429407E+02  0.23705071567E+02  0.50039856757E+02  0.58005456782E+02  0.10000000000E+01 0.  1.
    1000022    2    1    0    0    0 -0.18436655529E+02  0.22813320743E+02  0.54276072161E+02  0.62499999867E+02  0.10000005183E+02 0.  0.
    3000022    2    3    3    0    0 -0.11822261224E+01 -0.89175082376E+00  0.42362154038E+01  0.44945430850E+01  0.25003691594E+00 0.  0.
    1000022    2    1    0    0    0  0.18436655529E+02 -0.22813320743E+02 -0.54276072161E+02  0.62500000133E+02  0.10000006849E+02 0.  0.
    3000022    2    5    5    0    0  0.40566147863E+01 -0.10159961976E+01 -0.12892293447E+02  0.13555888437E+02  0.25001836795E+00 0.  0.
        -13    1    4    4    0    0 -0.83769664395E+00 -0.65173337478E+00  0.28945399821E+01  0.30847818022E+01  0.10500000000E+00 0.  1.
         13    1    4    4    0    0 -0.34452947850E+00 -0.24001744898E+00  0.13416754217E+01  0.14097612828E+01  0.10500000000E+00 0. -1.
    3000001    1    5    5    0    0  0.14380040743E+02 -0.21797324546E+02 -0.41383778714E+02  0.48944111696E+02  0.10000000000E+01 0. -1.
        -13    1    6    6    0    0  0.28057032288E+01 -0.66237939627E+00 -0.89717070287E+01  0.94240792166E+01  0.10500000000E+00 0.  1.
         13    1    6    6    0    0  0.12509115576E+01 -0.35361680138E+00 -0.39205864188E+01  0.41318092204E+01  0.10500000000E+00 0. -1.
</event>
<event>
11    0  0.3482988E-009  0.9118800E+02  0.7816531E-02  0.1126479E+00
         25   -1    0    0    0    0  0.00000000000E+00  0.00000000000E+00  0.99999998245E-14  0.12500000000E+03  0.12500000000E+03 0.  0.
    3000001    1    3    3    0    0 -0.11834788212E+02 -0.72736375206E+01  0.78626467588E+01  0.15993412045E+02  0.10000000000E+01 0. -1.
    1000022    2    1    0    0    0 -0.39909449452E+02 -0.19049548001E+02  0.43018603503E+02  0.62499997207E+02  0.99999984464E+01 0.  0.
    3000022    2    3    3    0    0 -0.28074661240E+02 -0.11775910480E+02  0.35155956745E+02  0.46506585161E+02  0.24999479936E+00 0.  0.
    1000022    2    1    0    0    0  0.39909449452E+02  0.19049548001E+02 -0.43018603503E+02  0.62500002793E+02  0.10000033360E+02 0.  0.
    3000022    2    5    5    0    0  0.20673367027E+02  0.79047355926E+01 -0.15087158613E+02  0.26787269429E+02  0.24999887266E+00 0.  0.
        -13    1    4    4    0    0 -0.13342123505E+02 -0.56131546833E+01  0.16815400895E+02  0.22187575293E+02  0.10500000000E+00 0.  1.
         13    1    4    4    0    0 -0.14732537735E+02 -0.61627557965E+01  0.18340555849E+02  0.24319009869E+02  0.10500000000E+00 0. -1.
    3000001    1    5    5    0    0  0.19236082425E+02  0.11144812408E+02 -0.27931444891E+02  0.35712733364E+02  0.10000000000E+01 0. -1.
        -13    1    6    6    0    0  0.98894186837E+01  0.37310382632E+01 -0.71461748343E+01  0.12759313782E+02  0.10500000000E+00 0.  1.
         13    1    6    6    0    0  0.10783948343E+02  0.41736973295E+01 -0.79409837782E+01  0.14027955647E+02  0.10500000000E+00 0. -1.
</event>
<event>
11    0  0.3482988E-009  0.9118800E+02  0.7816531E-02  0.1126479E+00
         25   -1    0    0    0    0  0.00000000000E+00  0.00000000000E+00  0.99999998245E-14  0.12500000000E+03  0.12500000000E+03 0.  0.
    3000001    1    3    3    0    0  0.12220250669E+01 -0.71832450834E+01 -0.61745843589E+01  0.96030124023E+01  0.10000000000E+01 0. -1.
    1000022    2    1    0    0    0  0.28881662518E+02 -0.38078622239E+02 -0.39014331341E+02  0.62500000558E+02  0.10000005920E+02 0.  0.
    3000022    2    3    3    0    0  0.27659637451E+02 -0.30895377155E+02 -0.32839746982E+02  0.52896988156E+02  0.25000126111E+00 0.  0.
    1000022    2    1    0    0    0 -0.28881662518E+02  0.38078622239E+02  0.39014331341E+02  0.62499999442E+02  0.99999989415E+01 0.  0.
    3000022    2    5    5    0    0 -0.20128832328E+02  0.18518301267E+02  0.20924326025E+02  0.34438166194E+02  0.24999710152E+00 0.  0.
        -13    1    4    4    0    0  0.16725938149E+02 -0.18606228379E+02 -0.19859837033E+02  0.31943276185E+02  0.10500000000E+00 0. -1.
         13    1    4    4    0    0  0.10933699303E+02 -0.12289148776E+02 -0.12979909949E+02  0.20953711971E+02  0.10500000000E+00 0.  1.
    3000001    1    5    5    0    0 -0.87528301903E+01  0.19560320972E+02  0.18090005316E+02  0.28061833247E+02  0.10000000000E+01 0.  1.
        -13    1    6    6    0    0 -0.12858523527E+02  0.11764477952E+02  0.13290545611E+02  0.21917896715E+02  0.10500000000E+00 0. -1.
         13    1    6    6    0    0 -0.72703088005E+01  0.67538233151E+01  0.76337804137E+01  0.12520269479E+02  0.10500000000E+00 0.  1.
</event>
<event>
11    0  0.3482988E-009  0.9118800E+02  0.7816531E-02  0.1126479E+00
         25   -1    0    0    0    0  0.00000000000E+00  0.00000000000E+00  0.99999998245E-14  0.12500000000E+03  0.12500000000E+03 0.  0.
    3000001    1    3    3    0    0  0.15356215094E+02  0.48508578294E+02  0.12097182032E+02  0.52309055843E+02  0.10000000000E+01 0. -1.
    1000022    2    1    0    0    0  0.21239605590E+02  0.56794851823E+02  0.11378639411E+02  0.62500003614E+02  0.10000048885E+02 0.  0.
    3000022    2    3    3    0    0  0.58833904962E+01  0.82862735296E+01 -0.71854262092E+00  0.10190947771E+02  0.25000048430E+00 0.  0.
    1000022    2    1    0    0    0 -0.21239605590E+02 -0.56794851823E+02 -0.11378639411E+02  0.62499996386E+02  0.10000003705E+02 0.  0.
    3000022    2    5    5    0    0 -0.37705580065E+01 -0.15319551962E+02 -0.70341562271E+01  0.17275637284E+02  0.25001945691E+00 0.  0.
        -13    1    4    4    0    0  0.42328013628E+01  0.60259524059E+01 -0.52825143787E+00  0.73836836577E+01  0.10500000000E+00 0.  1.
         13    1    4    4    0    0  0.16505891334E+01  0.22603211237E+01 -0.19029118304E+00  0.28072641136E+01  0.10500000000E+00 0. -1.
    3000001    1    5    5    0    0 -0.17469047583E+02 -0.41475299861E+02 -0.43444831842E+01  0.45224359102E+02  0.10000000000E+01 0. -1.
        -13    1    6    6    0    0 -0.21568921138E+01 -0.84942951327E+01 -0.38890238811E+01  0.95885747188E+01  0.10500000000E+00 0. -1.
         13    1    6    6    0    0 -0.16136658927E+01 -0.68252568297E+01 -0.31451323460E+01  0.76870625650E+01  0.10500000000E+00 0.  1.
</event>
<event>
11    0  0.3482988E-009  0.9118800E+02  0.7816531E-02  0.1126479E+00
         25   -1    0    0    0    0  0.00000000000E+00  0.00000000000E+00  0.99999998245E-14  0.12500000000E+03  0.12500000000E+03 0.  0.
    3000001    1    3    3    0    0 -0.98076167368E+01  0.49752175270E+00 -0.11341770118E+02  0.15035711601E+02  0.10000000000E+01 0.  1.
    1000022    2    1    0    0    0 -0.50777310639E+02  0.78403523927E+01 -0.34153238074E+02  0.62499998580E+02  0.99999875086E+01 0.  0.
    3000022    2    3    3    0    0 -0.40969693903E+02  0.73428306400E+01 -0.22811467956E+02  0.47464286979E+02  0.24997564164E+00 0.  0.
    1000022    2    1    0    0    0  0.50777310639E+02 -0.78403523927E+01  0.34153238074E+02  0.62500001420E+02  0.10000005255E+02 0.  0.
    3000022    2    5    5    0    0  0.22924041202E+02 -0.22109340060E+01  0.21010888157E+02  0.31175628623E+02  0.25000944916E+00 0.  0.
        -13    1    4    4    0    0 -0.22923883197E+02  0.40416601247E+01 -0.12764644865E+02  0.26547817630E+02  0.10500000000E+00 0. -1.
         13    1    4    4    0    0 -0.18045810706E+02  0.33011705152E+01 -0.10046823091E+02  0.20916469349E+02  0.10500000000E+00 0.  1.
    3000001    1    5    5    0    0  0.27853269438E+02 -0.56294183867E+01  0.13142349917E+02  0.31324372797E+02  0.10000000000E+01 0.  1.
        -13    1    6    6    0    0  0.93832739011E+01 -0.96556053639E+00  0.85768712263E+01  0.12749583573E+02  0.10500000000E+00 0.  1.
         13    1    6    6    0    0  0.13540767300E+02 -0.12453734696E+01  0.12434016930E+02  0.18426045050E+02  0.10500000000E+00 0. -1.
</event>
<event>
11    0  0.3482988E-009  0.9118800E+02  0.7816531E-02  0.1126479E+00
         25   -1    0    0    0    0  0.00000000000E+00  0.00000000000E+00  0.99999998245E-14  0.12500000000E+03  0.12500000000E+03 0.  0.
    3000001    1    3    3    0    0  0.51988964522E+01  0.61411352934E+01 -0.49830154265E+01  0.95169590602E+01  0.10000000000E+01 0.  1.
    1000022    2    1    0    0    0  0.12950419312E+02  0.47250273370E+02 -0.37495979181E+02  0.62500000029E+02  0.99999927488E+01 0.  0.
    3000022    2    3    3    0    0  0.77515228599E+01  0.41109138077E+02 -0.32512963754E+02  0.52983040969E+02  0.24995629035E+00 0.  0.
    1000022    2    1    0    0    0 -0.12950419312E+02 -0.47250273370E+02  0.37495979181E+02  0.62499999971E+02  0.99999923874E+01 0.  0.
    3000022    2    5    5    0    0 -0.13174141800E+02 -0.38532977256E+02  0.34003909640E+02  0.53053526927E+02  0.25000040447E+00 0.  0.
        -13    1    4    4    0    0  0.33998707181E+01  0.17948179748E+02 -0.14116227319E+02  0.23086255129E+02  0.10500000000E+00 0. -1.
         13    1    4    4    0    0  0.43516521417E+01  0.23160958329E+02 -0.18396736435E+02  0.29896785840E+02  0.10500000000E+00 0.  1.
    3000001    1    5    5    0    0  0.22372248781E+00 -0.87172961146E+01  0.34920695404E+01  0.94464730442E+01  0.10000000000E+01 0. -1.
        -13    1    6    6    0    0 -0.69709134874E+01 -0.20582927567E+02  0.18177665028E+02  0.28331767911E+02  0.10500000000E+00 0. -1.
         13    1    6    6    0    0 -0.62032283124E+01 -0.17950049688E+02  0.15826244612E+02  0.24721759016E+02  0.10500000000E+00 0.  1.
</event>
<event>
11    0  0.3482988E-009  0.9118800E+02  0.7816531E-02  0.1126479E+00
         25   -1    0    0    0    0  0.00000000000E+00  0.00000000000E+00  0.99999998245E-14  0.12500000000E+03  0.12500000000E+03 0.  0.
    3000001    1    3    3    0    0  0.77572637778E+00  0.11006144969E+01 -0.62208592984E+01  0.64429957391E+01  0.10000000000E+01 0.  1.
    1000022    2    1    0    0    0  0.32554839844E+02  0.17123944830E+02 -0.49529825748E+02  0.62500004637E+02  0.99999928583E+01 0.  0.
    3000022    2    3    3    0    0  0.31779113466E+02  0.16023330333E+02 -0.43308966449E+02  0.56057008898E+02  0.25000791930E+00 0.  0.
    1000022    2    1    0    0    0 -0.32554839844E+02 -0.17123944830E+02  0.49529825748E+02  0.62499995363E+02  0.99999348998E+01 0.  0.
    3000022    2    5    5    0    0 -0.25719627989E+02 -0.15393755442E+02  0.33462022809E+02  0.44924786469E+02  0.24999655912E+00 0.  0.
        -13    1    4    4    0    0  0.12103316726E+02  0.60792021085E+01 -0.16391878757E+02  0.21263858733E+02  0.10500000000E+00 0.  1.
         13    1    4    4    0    0  0.19675796741E+02  0.99441282247E+01 -0.26917087692E+02  0.34793150165E+02  0.10500000000E+00 0. -1.
    3000001    1    5    5    0    0 -0.68352118556E+01 -0.17301893881E+01  0.16067802938E+02  0.17575208895E+02  0.10000000000E+01 0. -1.
        -13    1    6    6    0    0 -0.14086780459E+02 -0.84956632647E+01  0.18420134807E+02  0.24696681342E+02  0.10500000000E+00 0.  1.
         13    1    6    6    0    0 -0.11632847530E+02 -0.68980921772E+01  0.15041888003E+02  0.20228105127E+02  0.10500000000E+00 0. -1.
</event>
<event>
11    0  0.3482988E-009  0.9118800E+02  0.7816531E-02  0.1126479E+00
         25   -1    0    0    0    0  0.00000000000E+00  0.00000000000E+00  0.99999998245E-14  0.12500000000E+03  0.12500000000E+03 0.  0.
    3000001    1    3    3    0    0 -0.27345947382E+02 -0.35242228944E+02 -0.17705510908E+02  0.48003131728E+02  0.10000000000E+01 0. -1.
    1000022    2    1    0    0    0 -0.35605415271E+02 -0.42388074643E+02 -0.27235189654E+02  0.62500000139E+02  0.99999996633E+01 0.  0.
    3000022    2    3    3    0    0 -0.82594678887E+01 -0.71458456991E+01 -0.95296787461E+01  0.14496868411E+02  0.24999230908E+00 0.  0.
    1000022    2    1    0    0    0  0.35605415271E+02  0.42388074643E+02  0.27235189654E+02  0.62499999861E+02  0.99999979312E+01 0.  0.
    3000022    2    5    5    0    0  0.21353523146E+02  0.31222082075E+02  0.21351303063E+02  0.43436528494E+02  0.25001048878E+00 0.  0.
        -13    1    4    4    0    0 -0.50680458911E+01 -0.43730579543E+01 -0.59212207237E+01  0.89375950281E+01  0.10500000000E+00 0.  1.
         13    1    4    4    0    0 -0.31914219975E+01 -0.27727877448E+01 -0.36084580223E+01  0.55592733826E+01  0.10500000000E+00 0. -1.
    3000001    1    5    5    0    0  0.14251892125E+02  0.11165992568E+02  0.58838865911E+01  0.19063471368E+02  0.10000000000E+01 0. -1.
        -13    1    6    6    0    0  0.15194122750E+02  0.22290045663E+02  0.15221788038E+02  0.30974527566E+02  0.10500000000E+00 0.  1.
         13    1    6    6    0    0  0.61594003954E+01  0.89320364119E+01  0.61295150247E+01  0.12462000928E+02  0.10500000000E+00 0. -1.
</event>
<event>
11    0  0.3482988E-009  0.9118800E+02  0.7816531E-02  0.1126479E+00
         25   -1    0    0    0    0  0.00000000000E+00  0.00000000000E+00  0.99999998245E-14  0.12500000000E+03  0.12500000000E+03 0.  0.
    3000001    1    3    3    0    0  0.20912424340E+02 -0.28256593351E+02  0.65279966563E+01  0.35768412041E+02  0.10000000000E+01 0.  1.
    1000022    2    1    0    0    0  0.36736062452E+02 -0.45717658576E+02  0.19146991512E+02  0.62500001040E+02  0.10000012797E+02 0.  0.
    3000022    2    3    3    0    0  0.15823638112E+02 -0.17461065225E+02  0.12618994856E+02  0.26731589000E+02  0.24999475844E+00 0.  0.
    1000022    2    1    0    0    0 -0.36736062452E+02  0.45717658576E+02 -0.19146991512E+02  0.62499998960E+02  0.99999997924E+01 0.  0.
    3000022    2    5    5    0    0 -0.22032528499E+02  0.19974838839E+02 -0.78520256547E+01  0.30759442373E+02  0.24997901281E+00 0.  0.
        -13    1    4    4    0    0  0.62459798104E+01 -0.69478134120E+01  0.49460232451E+01  0.10571591457E+02  0.10500000000E+00 0.  1.
         13    1    4    4    0    0  0.95776583013E+01 -0.10513251813E+02  0.76729716110E+01  0.16159997542E+02  0.10500000000E+00 0. -1.
    3000001    1    5    5    0    0 -0.14703533953E+02  0.25742819737E+02 -0.11294965858E+02  0.31740556586E+02  0.10000000000E+01 0. -1.
        -13    1    6    6    0    0 -0.10164944833E+02  0.92406038902E+01 -0.36938097523E+01  0.14225685193E+02  0.10500000000E+00 0. -1.
         13    1    6    6    0    0 -0.11867583666E+02  0.10734234949E+02 -0.41582159024E+01  0.16533757180E+02  0.10500000000E+00 0.  1.
</event>
<event>
11    0  0.3482988E-009  0.9118800E+02  0.7816531E-02  0.1126479E+00
         25   -1    0    0    0    0  0.00000000000E+00  0.00000000000E+00  0.99999998245E-14  0.12500000000E+03  0.12500000000E+03 0.  0.
    3000001    1    3    3    0    0 -0.33185531644E+02 -0.46896492239E+02 -0.15644917346E+02  0.59551019585E+02  0.10000000000E+01 0. -1.
    1000022    2    1    0    0    0 -0.33759894906E+02 -0.49552708465E+02 -0.14527512475E+02  0.62500000831E+02  0.10000003242E+02 0.  0.
    3000022    2    3    3    0    0 -0.57436326214E+00 -0.26562162262E+01  0.11174048717E+01  0.29489812461E+01  0.25003788721E+00 0.  0.
    1000022    2    1    0    0    0  0.33759894906E+02  0.49552708465E+02  0.14527512475E+02  0.62499999169E+02  0.99999928591E+01 0.  0.
    3000022    2    5    5    0    0  0.47574653972E+01  0.51514400364E+01  0.49795262258E+01  0.86040104792E+01  0.25000687489E+00 0.  0.
        -13    1    4    4    0    0 -0.43049583017E+00 -0.18623227415E+01  0.74491160137E+00  0.20541399531E+01  0.10500000000E+00 0. -1.
         13    1    4    4    0    0 -0.14386743197E+00 -0.79389348475E+00  0.37249327030E+00  0.89484129293E+00  0.10500000000E+00 0.  1.
    3000001    1    5    5    0    0  0.29002429509E+02  0.44401268429E+02  0.95479862489E+01  0.53895988690E+02  0.10000000000E+01 0. -1.
        -13    1    6    6    0    0  0.26407817676E+01  0.27724233312E+01  0.26799311167E+01  0.46747315711E+01  0.10500000000E+00 0. -1.
         13    1    6    6    0    0  0.21166836296E+01  0.23790167051E+01  0.22995951092E+01  0.39292789080E+01  0.10500000000E+00 0.  1.
</event>
<event>
11    0  0.3482988E-009  0.9118800E+02  0.7816531E-02  0.1126479E+00
         25   -1    0    0    0    0  0.00000000000E+00  0.00000000000E+00  0.99999998245E-14  0.12500000000E+03  0.12500000000E+03 0.  0.
    3000001    1    3    3    0    0 -0.28569012654E+02  0.12644214663E+02 -0.31593895330E+02  0.44443659510E+02  0.10000000000E+01 0.  1.
    1000022    2    1    0    0    0 -0.42602802889E+02  0.12136510218E+02 -0.42941312057E+02  0.62499999077E+02  0.99999954580E+01 0.  0.
    3000022    2    3    3    0    0 -0.14033790235E+02 -0.50770444512E+00 -0.11347416727E+02  0.18056339567E+02  0.25000006885E+00 0.  0.
    1000022    2    1    0    0    0  0.42602802889E+02 -0.12136510218E+02  0.42941312057E+02  0.62500000923E+02  0.10000006994E+02 0.  0.
    3000022    2    5    5    0    0  0.25971284916E+01  0.16193001064E+01  0.24010370533E+01  0.38980367998E+01  0.25000545021E+00 0.  0.
        -13    1    4    4    0    0 -0.72710536341E+01 -0.23105712137E+00 -0.58015353764E+01  0.93053987592E+01  0.10500000000E+00 0. -1.
         13    1    4    4    0    0 -0.67627366007E+01 -0.27664732375E+00 -0.55458813507E+01  0.87509408082E+01  0.10500000000E+00 0.  1.
    3000001    1    5    5    0    0  0.40005674398E+02 -0.13755810324E+02  0.40540275004E+02  0.58601964123E+02  0.10000000000E+01 0.  1.
        -13    1    6    6    0    0  0.15263003114E+01  0.96735889207E+00  0.14955740901E+01  0.23480082465E+01  0.10500000000E+00 0. -1.
         13    1    6    6    0    0  0.10708281802E+01  0.65194121437E+00  0.90546296318E+00  0.15500285533E+01  0.10500000000E+00 0.  1.
</event>
<event>
11    0  0.3482988E-009  0.9118800E+02  0.7816531E-02  0.1126479E+00
         25   -1    0    0    0    0  0.00000000000E+00  0.00000000000E+00  0.99999998245E-14  0.12500000000E+03  0.12500000000E+03 0.  0.
    3000001    1    3    3    0    0 -0.50629266502E+02  0.92460751010E+01 -0.17391683236E+02  0.54334916740E+02  0.10000000000E+01 0.  1.
    1000022    2    1    0    0    0 -0.58399091836E+02  0.11469791101E+02 -0.16255460257E+02  0.62499999553E+02  0.99999960373E+01 0.  0.
    3000022    2    3    3    0    0 -0.77698253335E+01  0.22237160003E+01  0.11362229793E+01  0.81650828127E+01  0.24995222806E+00 0.  0.
    1000022    2    1    0    0    0  0.58399091836E+02 -0.11469791101E+02  0.16255460257E+02  0.62500000447E+02  0.10000001630E+02 0.  0.
    3000022    2    5    5    0    0  0.53986107484E+02 -0.12572793951E+02  0.13369210684E+02  0.57020814124E+02  0.24999994303E+00 0.  0.
        -13    1    4    4    0    0 -0.25793671835E+01  0.68747699584E+00  0.35481473978E+00  0.26949356554E+01  0.10500000000E+00 0.  1.
         13    1    4    4    0    0 -0.51904581500E+01  0.15362390045E+01  0.78140823953E+00  0.54701471573E+01  0.10500000000E+00 0. -1.
    3000001    1    5    5    0    0  0.44129843519E+01  0.11030028500E+01  0.28862495723E+01  0.54791863238E+01  0.10000000000E+01 0. -1.
        -13    1    6    6    0    0  0.15730821766E+02 -0.36203978386E+01  0.38825246498E+01  0.16602742442E+02  0.10500000000E+00 0. -1.
         13    1    6    6    0    0  0.38255285718E+02 -0.89523961128E+01  0.94866860346E+01  0.40418071682E+02  0.10500000000E+00 0.  1.
</event>
<event>
11    0  0.3482988E-009  0.9118800E+02  0.7816531E-02  0.1126479E+00
         25   -1    0    0    0    0  0.00000000000E+00  0.00000000000E+00  0.99999998245E-14  0.12500000000E+03  0.12500000000E+03 0.  0.
    3000001    1    3    3    0    0  0.16541656569E+02  0.14088267565E+02 -0.15782603975E+02  0.26873709704E+02  0.10000000000E+01 0.  1.
    1000022    2    1    0    0    0  0.37047636227E+02  0.40363398019E+02 -0.28364037311E+02  0.62500001199E+02  0.10000014380E+02 0.  0.
    3000022    2    3    3    0    0  0.20505979658E+02  0.26275130454E+02 -0.12581433336E+02  0.35626291495E+02  0.24999751051E+00 0.  0.
    1000022    2    1    0    0    0 -0.37047636227E+02 -0.40363398019E+02  0.28364037311E+02  0.62499998801E+02  0.99999993984E+01 0.  0.
    3000022    2    5    5    0    0 -0.30823003770E+02 -0.36699379045E+02  0.21657094262E+02  0.52592720198E+02  0.25000453788E+00 0.  0.
        -13    1    4    4    0    0  0.12759024523E+02  0.16402291675E+02 -0.77901140629E+01  0.22192899339E+02  0.10500000000E+00 0. -1.
         13    1    4    4    0    0  0.77469551347E+01  0.98728387795E+01 -0.47913192731E+01  0.13433392155E+02  0.10500000000E+00 0.  1.
    3000001    1    5    5    0    0 -0.62246324573E+01 -0.36640189741E+01  0.67069430486E+01  0.99072786036E+01  0.10000000000E+01 0. -1.
        -13    1    6    6    0    0 -0.11184851144E+02 -0.13387832647E+02  0.78424881107E+01  0.19127221514E+02  0.10500000000E+00 0.  1.
         13    1    6    6    0    0 -0.19638152625E+02 -0.23311546398E+02  0.13814606152E+02  0.33465498683E+02  0.10500000000E+00 0. -1.
</event>
<event>
11    0  0.3482988E-009  0.9118800E+02  0.7816531E-02  0.1126479E+00
         25   -1    0    0    0    0  0.00000000000E+00  0.00000000000E+00  0.99999998245E-14  0.12500000000E+03  0.12500000000E+03 0.  0.
    3000001    1    3    3    0    0 -0.73673588815E+01 -0.44633876759E+01 -0.26797196658E+02  0.28165396414E+02  0.10000000000E+01 0. -1.
    1000022    2    1    0    0    0 -0.20203838815E+02  0.23576612990E+00 -0.58292359971E+02  0.62500001081E+02  0.10000010778E+02 0.  0.
    3000022    2    3    3    0    0 -0.12836479933E+02  0.46991538058E+01 -0.31495163314E+02  0.34334604667E+02  0.25000385533E+00 0.  0.
    1000022    2    1    0    0    0  0.20203838815E+02 -0.23576612990E+00  0.58292359971E+02  0.62499998919E+02  0.99999972662E+01 0.  0.
    3000022    2    5    5    0    0  0.12247182440E+02  0.15257964948E+01  0.46637264256E+02  0.48243325405E+02  0.24999236915E+00 0.  0.
        -13    1    4    4    0    0 -0.92161262081E+01  0.33709156130E+01 -0.22506499526E+02  0.24553077205E+02  0.10500000000E+00 0. -1.
         13    1    4    4    0    0 -0.36203537251E+01  0.13282381927E+01 -0.89886637882E+01  0.97815274620E+01  0.10500000000E+00 0.  1.
    3000001    1    5    5    0    0  0.79566563751E+01 -0.17615626247E+01  0.11655095715E+02  0.14256673514E+02  0.10000000000E+01 0. -1.
        -13    1    6    6    0    0  0.39358939874E+01  0.51295381636E+00  0.14822442115E+02  0.15345038232E+02  0.10500000000E+00 0.  1.
         13    1    6    6    0    0  0.83112884521E+01  0.10128426784E+01  0.31814822141E+02  0.32898287173E+02  0.10500000000E+00 0. -1.
</event>
<event>
11    0  0.3482988E-009  0.9118800E+02  0.7816531E-02  0.1126479E+00
         25   -1    0    0    0    0  0.00000000000E+00  0.00000000000E+00  0.99999998245E-14  0.12500000000E+03  0.12500000000E+03 0.  0.
    3000001    1    3    3    0    0 -0.32569882674E+02 -0.11756194870E+02 -0.77726306516E+00  0.34649812598E+02  0.10000000000E+01 0.  1.
    1000022    2    1    0    0    0 -0.59155617300E+02 -0.16431537159E+02  0.60718537123E+01  0.62500001344E+02  0.10000014444E+02 0.  0.
    3000022    2    3    3    0    0 -0.26585734626E+02 -0.46753422894E+01  0.68491167775E+01  0.27850188746E+02  0.25000279421E+00 0.  0.
    1000022    2    1    0    0    0  0.59155617300E+02  0.16431537159E+02 -0.60718537123E+01  0.62499998656E+02  0.99999976494E+01 0.  0.
    3000022    2    5    5    0    0  0.27232496188E+01  0.21988353034E+01  0.14716171733E+01  0.38051447318E+01  0.25000829514E+00 0.  0.
        -13    1    4    4    0    0 -0.13472238005E+02 -0.24093182397E+01  0.34156692087E+01  0.14106162922E+02  0.10500000000E+00 0. -1.
         13    1    4    4    0    0 -0.13113496622E+02 -0.22660240497E+01  0.34334475688E+01  0.13744025824E+02  0.10500000000E+00 0.  1.
    3000001    1    5    5    0    0  0.56432367681E+02  0.14232701856E+02 -0.75434708856E+01  0.58694853925E+02  0.10000000000E+01 0.  1.
        -13    1    6    6    0    0  0.13223233079E+01  0.11533073644E+01  0.72333433701E+00  0.19007615239E+01  0.10500000000E+00 0. -1.
         13    1    6    6    0    0  0.14009263108E+01  0.10455279390E+01  0.74828283629E+00  0.19043832079E+01  0.10500000000E+00 0.  1.
</event>
<event>
11    0  0.3482988E-009  0.9118800E+02  0.7816531E-02  0.1126479E+00
         25   -1    0    0    0    0  0.00000000000E+00  0.00000000000E+00  0.99999998245E-14  0.12500000000E+03  0.12500000000E+03 0.  0.
    3000001    1    3    3    0    0  0.16857938811E+02 -0.44293878485E+01 -0.82951610565E+01  0.19329233679E+02  0.10000000000E+01 0.  1.
    1000022    2    1    0    0    0  0.57585585360E+02 -0.74229892281E+00 -0.22126892654E+02  0.62500000590E+02  0.10000002317E+02 0.  0.
    3000022    2    3    3    0    0  0.40727646549E+02  0.36870889257E+01 -0.13831731598E+02  0.43170766911E+02  0.24999712146E+00 0.  0.
    1000022    2    1    0    0    0 -0.57585585360E+02  0.74229892281E+00  0.22126892654E+02  0.62499999410E+02  0.99999949369E+01 0.  0.
    3000022    2    5    5    0    0 -0.48518974490E+02 -0.28564714590E+01  0.19294193871E+02  0.52293199553E+02  0.24997509653E+00 0.  0.
        -13    1    4    4    0    0  0.28209487357E+02  0.25692123882E+01 -0.96284756739E+01  0.29918131594E+02  0.10500000000E+00 0.  1.
         13    1    4    4    0    0  0.12518159191E+02  0.11178765375E+01 -0.42032559241E+01  0.13252635317E+02  0.10500000000E+00 0. -1.
    3000001    1    5    5    0    0 -0.90666108695E+01  0.35987703818E+01  0.28326987839E+01  0.10206799857E+02  0.10000000000E+01 0. -1.
        -13    1    6    6    0    0 -0.26022325574E+02 -0.15465973520E+01  0.10419006956E+02  0.28073477209E+02  0.10500000000E+00 0.  1.
         13    1    6    6    0    0 -0.22496648916E+02 -0.13098741070E+01  0.88751869150E+01  0.24219722344E+02  0.10500000000E+00 0. -1.
</event>
<event>
11    0  0.3482988E-009  0.9118800E+02  0.7816531E-02  0.1126479E+00
         25   -1    0    0    0    0  0.00000000000E+00  0.00000000000E+00  0.99999998245E-14  0.12500000000E+03  0.12500000000E+03 0.  0.
    3000001    1    3    3    0    0 -0.80335301519E+01  0.31458738779E+01  0.14408277994E+02  0.16823572864E+02  0.10000000000E+01 0.  1.
    1000022    2    1    0    0    0 -0.29957391772E+02  0.26467608219E+02  0.46992237932E+02  0.62499999450E+02  0.99999949373E+01 0.  0.
    3000022    2    3    3    0    0 -0.21923861620E+02  0.23321734342E+02  0.32583959938E+02  0.45676426586E+02  0.24999878171E+00 0.  0.
    1000022    2    1    0    0    0  0.29957391772E+02 -0.26467608219E+02 -0.46992237932E+02  0.62500000550E+02  0.10000001818E+02 0.  0.
    3000022    2    5    5    0    0  0.14854968787E+02 -0.13479571574E+02 -0.16068979169E+02  0.25702986970E+02  0.25000035838E+00 0.  0.
        -13    1    4    4    0    0 -0.16388441587E+02  0.17448916405E+02  0.24404364132E+02  0.34185226562E+02  0.10500000000E+00 0.  1.
         13    1    4    4    0    0 -0.55354200325E+01  0.58728179362E+01  0.81795958057E+01  0.11491200024E+02  0.10500000000E+00 0. -1.
    3000001    1    5    5    0    0  0.15102422985E+02 -0.12988036645E+02 -0.30923258763E+02  0.36797013580E+02  0.10000000000E+01 0. -1.
        -13    1    6    6    0    0  0.10162088136E+02 -0.92189303804E+01 -0.10927074202E+02  0.17540487116E+02  0.10500000000E+00 0. -1.
         13    1    6    6    0    0  0.46928806507E+01 -0.42606411935E+01 -0.51419049671E+01  0.81624998544E+01  0.10500000000E+00 0.  1.
</event>
<event>
11    0  0.3482988E-009  0.9118800E+02  0.7816531E-02  0.1126479E+00
         25   -1    0    0    0    0  0.00000000000E+00  0.00000000000E+00  0.99999998245E-14  0.12500000000E+03  0.12500000000E+03 0.  0.
    3000001    1    3    3    0    0  0.19364098615E+02  0.31036784077E+01  0.33109075477E+02  0.38494311447E+02  0.10000000000E+01 0. -1.
    1000022    2    1    0    0    0  0.36923473560E+02  0.15444210248E+01  0.49401639088E+02  0.62499999536E+02  0.99999930624E+01 0.  0.
    3000022    2    3    3    0    0  0.17559374945E+02 -0.15592573828E+01  0.16292563612E+02  0.24005688089E+02  0.24999903709E+00 0.  0.
    1000022    2    1    0    0    0 -0.36923473560E+02 -0.15444210248E+01 -0.49401639088E+02  0.62500000464E+02  0.99999988683E+01 0.  0.
    3000022    2    5    5    0    0 -0.35137330319E+02 -0.29398700006E+01 -0.48267512659E+02  0.59775330158E+02  0.24999917377E+00 0.  0.
        -13    1    4    4    0    0  0.79189617465E+01 -0.68512767899E+00  0.72588822778E+01  0.10764838689E+02  0.10500000000E+00 0. -1.
         13    1    4    4    0    0  0.96404131987E+01 -0.87412970385E+00  0.90336813338E+01  0.13240849400E+02  0.10500000000E+00 0.  1.
    3000001    1    5    5    0    0 -0.17861432410E+01  0.13954489758E+01 -0.11341264290E+01  0.27246703063E+01  0.10000000000E+01 0. -1.
        -13    1    6    6    0    0 -0.21931927439E+02 -0.18953530274E+01 -0.30127115142E+02  0.37312945422E+02  0.10500000000E+00 0. -1.
         13    1    6    6    0    0 -0.13205402881E+02 -0.10445169732E+01 -0.18140397518E+02  0.22462384737E+02  0.10500000000E+00 0.  1.
</event>
<event>
11    0  0.3482988E-009  0.9118800E+02  0.7816531E-02  0.1126479E+00
         25   -1    0    0    0    0  0.00000000000E+00  0.00000000000E+00  0.99999998245E-14  0.12500000000E+03  0.12500000000E+03 0.  0.
    3000001    1    3    3    0    0 -0.83732934223E+01 -0.30353540519E+01 -0.26901472374E+02  0.28355151787E+02  0.10000000000E+01 0. -1.
    1000022    2    1    0    0    0 -0.24011266936E+02  0.22796560135E+01 -0.56784789169E+02  0.62500000144E+02  0.99999982832E+01 0.  0.
    3000022    2    3    3    0    0 -0.15637973514E+02  0.53150100654E+01 -0.29883316795E+02  0.34144848357E+02  0.24999817323E+00 0.  0.
    1000022    2    1    0    0    0  0.24011266936E+02 -0.22796560135E+01  0.56784789169E+02  0.62499999856E+02  0.99999964789E+01 0.  0.
    3000022    2    5    5    0    0  0.58217862175E+01 -0.31253932806E+01  0.77712304611E+01  0.10203714925E+02  0.24999494148E+00 0.  0.
        -13    1    4    4    0    0 -0.70826826058E+01  0.23405093632E+01 -0.13540441997E+02  0.15459526883E+02  0.10500000000E+00 0. -1.
         13    1    4    4    0    0 -0.85552909077E+01  0.29745007022E+01 -0.16342874797E+02  0.18685321474E+02  0.10500000000E+00 0.  1.
    3000001    1    5    5    0    0  0.18189480718E+02  0.84573726709E+00  0.49013558708E+02  0.52296284931E+02  0.10000000000E+01 0.  1.
        -13    1    6    6    0    0  0.31959138198E+01 -0.17747475514E+01  0.43622705001E+01  0.56924531558E+01  0.10500000000E+00 0. -1.
         13    1    6    6    0    0  0.26258723977E+01 -0.13506457292E+01  0.34089599610E+01  0.45112617692E+01  0.10500000000E+00 0.  1.
</event>
<event>
11    0  0.3482988E-009  0.9118800E+02  0.7816531E-02  0.1126479E+00
         25   -1    0    0    0    0  0.00000000000E+00  0.00000000000E+00  0.99999998245E-14  0.12500000000E+03  0.12500000000E+03 0.  0.
    3000001    1    3    3    0    0 -0.78938005336E+01 -0.18854208723E+02 -0.34174549760E+02  0.39833316768E+02  0.10000000000E+01 0. -1.
    1000022    2    1    0    0    0 -0.52070733933E+01 -0.31503399516E+02 -0.52788939954E+02  0.62500000533E+02  0.10000004537E+02 0.  0.
    3000022    2    3    3    0    0  0.26867271402E+01 -0.12649190793E+02 -0.18614390194E+02  0.22666683765E+02  0.25000031040E+00 0.  0.
    1000022    2    1    0    0    0  0.52070733933E+01  0.31503399516E+02  0.52788939954E+02  0.62499999467E+02  0.99999978737E+01 0.  0.
    3000022    2    5    5    0    0  0.49036946336E+01  0.27256512131E+02  0.50421003927E+02  0.57526548737E+02  0.24999594526E+00 0.  0.
        -13    1    4    4    0    0  0.18864366598E+01 -0.86808380219E+01 -0.12740359351E+02  0.15532011249E+02  0.10500000000E+00 0.  1.
         13    1    4    4    0    0  0.80029048045E+00 -0.39683527715E+01 -0.58740308433E+01  0.71346725167E+01  0.10500000000E+00 0. -1.
    3000001    1    5    5    0    0  0.30337875975E+00  0.42468873851E+01  0.23679360272E+01  0.49734507299E+01  0.10000000000E+01 0.  1.
        -13    1    6    6    0    0  0.29295298528E+01  0.16383819534E+02  0.30427117852E+02  0.34681871539E+02  0.10500000000E+00 0. -1.
         13    1    6    6    0    0  0.19741647807E+01  0.10872692596E+02  0.19993886075E+02  0.22844677198E+02  0.10500000000E+00 0.  1.
</event>
<event>
11    0  0.3482988E-009  0.9118800E+02  0.7816531E-02  0.1126479E+00
         25   -1    0    0    0    0  0.00000000000E+00  0.00000000000E+00  0.99999998245E-14  0.12500000000E+03  0.12500000000E+03 0.  0.
    3000001    1    3    3    0    0  0.30594282837E+02  0.65551969430E+00  0.55122203318E+01  0.31109876589E+02  0.10000000000E+01 0. -1.
    1000022    2    1    0    0    0  0.59736578393E+02  0.11095994774E+02  0.10708408767E+02  0.62499998995E+02  0.99999978942E+01 0.  0.
    3000022    2    3    3    0    0  0.29142295556E+02  0.10440475080E+02  0.51961884349E+01  0.31390122406E+02  0.25000048015E+00 0.  0.
    1000022    2    1    0    0    0 -0.59736578393E+02 -0.11095994774E+02 -0.10708408767E+02  0.62500001005E+02  0.10000010457E+02 0.  0.
    3000022    2    5    5    0    0 -0.17098223131E+02 -0.21904516608E+01 -0.75354529116E+01  0.18814698139E+02  0.25000553612E+00 0.  0.
        -13    1    4    4    0    0  0.12391890187E+02  0.44724152149E+01  0.21532184233E+01  0.13349487438E+02  0.10500000000E+00 0. -1.
         13    1    4    4    0    0  0.16750405369E+02  0.59680598650E+01  0.30429700116E+01  0.18040634969E+02  0.10500000000E+00 0.  1.
    3000001    1    5    5    0    0 -0.42638355262E+02 -0.89055431134E+01 -0.31729558552E+01  0.43685302866E+02  0.10000000000E+01 0. -1.
        -13    1    6    6    0    0 -0.87666058800E+01 -0.11913902301E+01 -0.38675555999E+01  0.96561794025E+01  0.10500000000E+00 0.  1.
         13    1    6    6    0    0 -0.83316172511E+01 -0.99906143065E+00 -0.36678973117E+01  0.91585187367E+01  0.10500000000E+00 0. -1.
</event>
<event>
11    0  0.3482988E-009  0.9118800E+02  0.7816531E-02  0.1126479E+00
         25   -1    0    0    0    0  0.00000000000E+00  0.00000000000E+00  0.99999998245E-14  0.12500000000E+03  0.12500000000E+03 0.  0.
    3000001    1    3    3    0    0 -0.13743754078E+02  0.18568523102E+02  0.23294696221E+01  0.23240207724E+02  0.10000000000E+01 0. -1.
    1000022    2    1    0    0    0 -0.35134810719E+02  0.47162352721E+02  0.18641559815E+02  0.62499998658E+02  0.99999820755E+01 0.  0.
    3000022    2    3    3    0    0 -0.21391056642E+02  0.28593829619E+02  0.16312090193E+02  0.39259790935E+02  0.25000244948E+00 0.  0.
    1000022    2    1    0    0    0  0.35134810719E+02 -0.47162352721E+02 -0.18641559815E+02  0.62500001342E+02  0.99999988459E+01 0.  0.
    3000022    2    5    5    0    0  0.33899038124E+02 -0.44955745571E+02 -0.19596635645E+02  0.59617568539E+02  0.25000860078E+00 0.  0.
        -13    1    4    4    0    0 -0.13186376540E+02  0.17528619968E+02  0.99990802024E+01  0.24106548366E+02  0.10500000000E+00 0. -1.
         13    1    4    4    0    0 -0.82046801018E+01  0.11065209651E+02  0.63130099907E+01  0.15153242568E+02  0.10500000000E+00 0.  1.
    3000001    1    5    5    0    0  0.12357725953E+01 -0.22066071501E+01  0.95507583012E+00  0.28824328029E+01  0.10000000000E+01 0.  1.
        -13    1    6    6    0    0  0.17540306206E+02 -0.23369764184E+02 -0.10188858103E+02  0.30945630940E+02  0.10500000000E+00 0. -1.
         13    1    6    6    0    0  0.16358731918E+02 -0.21585981387E+02 -0.94077775418E+01  0.28671937599E+02  0.10500000000E+00 0.  1.
</event>
<event>
11    0  0.3482988E-009  0.9118800E+02  0.7816531E-02  0.1126479E+00
         25   -1    0    0    0    0  0.00000000000E+00  0.00000000000E+00  0.99999998245E-14  0.12500000000E+03  0.12500000000E+03 0.  0.
    3000001    1    3    3    0    0 -0.16956092434E+02 -0.15073477336E+02  0.23747278571E+02  0.32858058816E+02  0.10000000000E+01 0.  1.
    1000022    2    1    0    0    0 -0.38716610747E+02 -0.28924553812E+02  0.38348980445E+02  0.62499999930E+02  0.99999964578E+01 0.  0.
    3000022    2    3    3    0    0 -0.21760518314E+02 -0.13851076476E+02  0.14601701874E+02  0.29641941115E+02  0.24999721055E+00 0.  0.
    1000022    2    1    0    0    0  0.38716610747E+02  0.28924553812E+02 -0.38348980445E+02  0.62500000070E+02  0.99999973285E+01 0.  0.
    3000022    2    5    5    0    0  0.33225942841E+02  0.26461768270E+02 -0.29357274336E+02  0.51634295976E+02  0.25001389373E+00 0.  0.
        -13    1    4    4    0    0 -0.11665937498E+02 -0.73545896196E+01  0.77713294972E+01  0.15829992841E+02  0.10500000000E+00 0.  1.
         13    1    4    4    0    0 -0.10094580815E+02 -0.64964868563E+01  0.68303723770E+01  0.13811948274E+02  0.10500000000E+00 0. -1.
    3000001    1    5    5    0    0  0.54906679068E+01  0.24627855421E+01 -0.89917061092E+01  0.10865704093E+02  0.10000000000E+01 0. -1.
        -13    1    6    6    0    0  0.10350804385E+02  0.83021544352E+01 -0.91498952360E+01  0.16118204848E+02  0.10500000000E+00 0.  1.
         13    1    6    6    0    0  0.22875138455E+02  0.18159613835E+02 -0.20207379100E+02  0.35516091128E+02  0.10500000000E+00 0. -1.
</event>
<event>
11    0  0.3482988E-009  0.9118800E+02  0.7816531E-02  0.1126479E+00
         25   -1    0    0    0    0  0.00000000000E+00  0.00000000000E+00  0.99999998245E-14  0.12500000000E+03  0.12500000000E+03 0.  0.
    3000001    1    3    3    0    0  0.38906271803E+02  0.46529019625E+02  0.80671758754E+01  0.61194174392E+02  0.10000000000E+01 0.  1.
    1000022    2    1    0    0    0  0.38421247270E+02  0.47654068233E+02  0.76907394263E+01  0.62499999402E+02  0.99999995712E+01 0.  0.
    3000022    2    3    3    0    0 -0.48502453365E+00  0.11250486088E+01 -0.37643644918E+00  0.13058250108E+01  0.24998277573E+00 0.  0.
    1000022    2    1    0    0    0 -0.38421247270E+02 -0.47654068233E+02 -0.76907394263E+01  0.62500000598E+02  0.10000007041E+02 0.  0.
    3000022    2    5    5    0    0 -0.16716211533E+02 -0.27565097910E+02 -0.15378167250E+01  0.32275279544E+02  0.24987708114E+00 0.  0.
        -13    1    4    4    0    0 -0.38657851599E+00  0.82767909259E+00 -0.26064012278E+00  0.95574782393E+00  0.10500000000E+00 0. -1.
         13    1    4    4    0    0 -0.98446017663E-01  0.29736951624E+00 -0.11579632640E+00  0.35007718691E+00  0.10500000000E+00 0. -1.
    3000001    1    5    5    0    0 -0.21705035737E+02 -0.20088970323E+02 -0.61529227013E+01  0.30224721053E+02  0.10000000000E+01 0. -1.
        -13    1    6    6    0    0 -0.93828761376E+01 -0.15414302167E+02 -0.80196884036E+00  0.18063589204E+02  0.10500000000E+00 0.  1.
         13    1    6    6    0    0 -0.73333353949E+01 -0.12150795744E+02 -0.73584788462E+00  0.14211690340E+02  0.10500000000E+00 0. -1.
</event>
<event>
11    0  0.3482988E-009  0.9118800E+02  0.7816531E-02  0.1126479E+00
         25   -1    0    0    0    0  0.00000000000E+00  0.00000000000E+00  0.99999998245E-14  0.12500000000E+03  0.12500000000E+03 0.  0.
    3000001    1    3    3    0    0  0.10388832717E+02  0.22084429582E+02 -0.12079051636E+02  0.27249832359E+02  0.10000000000E+01 0. -1.
    1000022    2    1    0    0    0  0.19909544518E+02  0.45341026529E+02 -0.36797439251E+02  0.62500001691E+02  0.10000001315E+02 0.  0.
    3000022    2    3    3    0    0  0.95207118011E+01  0.23256596947E+02 -0.24718387615E+02  0.35250169332E+02  0.24999371170E+00 0.  0.
    1000022    2    1    0    0    0 -0.19909544518E+02 -0.45341026529E+02  0.36797439251E+02  0.62499998309E+02  0.99999801820E+01 0.  0.
    3000022    2    5    5    0    0 -0.16394847231E+01 -0.14359436658E+02  0.12192706692E+02  0.18910471354E+02  0.24999817336E+00 0.  0.
        -13    1    4    4    0    0  0.37137169459E+01  0.89137331808E+01 -0.94793882977E+01  0.13532041985E+02  0.10500000000E+00 0.  1.
         13    1    4    4    0    0  0.58069948552E+01  0.14342863766E+02 -0.15238999318E+02  0.21718127347E+02  0.10500000000E+00 0. -1.
    3000001    1    5    5    0    0 -0.18270059795E+02 -0.30981589871E+02  0.24604732559E+02  0.43589526955E+02  0.10000000000E+01 0.  1.
        -13    1    6    6    0    0 -0.55122047777E+00 -0.47902533570E+01  0.41383257610E+01  0.63550874379E+01  0.10500000000E+00 0. -1.
         13    1    6    6    0    0 -0.10882642453E+01 -0.95691833007E+01  0.80543809310E+01  0.12555383917E+02  0.10500000000E+00 0.  1.
</event>
<event>
11    0  0.3482988E-009  0.9118800E+02  0.7816531E-02  0.1126479E+00
         25   -1    0    0    0    0  0.00000000000E+00  0.00000000000E+00  0.99999998245E-14  0.12500000000E+03  0.12500000000E+03 0.  0.
    3000001    1    3    3    0    0  0.30391169814E+01 -0.51185069712E+01  0.77510355901E+00  0.60857317693E+01  0.10000000000E+01 0.  1.
    1000022    2    1    0    0    0  0.33420407090E+02 -0.39522612190E+02  0.33575134209E+02  0.62500000822E+02  0.99999990611E+01 0.  0.
    3000022    2    3    3    0    0  0.30381290108E+02 -0.34404105219E+02  0.32800030650E+02  0.56414269053E+02  0.24999509206E+00 0.  0.
    1000022    2    1    0    0    0 -0.33420407090E+02  0.39522612190E+02 -0.33575134209E+02  0.62499999178E+02  0.99999887809E+01 0.  0.
    3000022    2    5    5    0    0 -0.42314474559E+01  0.71626424529E+01 -0.97634236544E+01  0.12829479093E+02  0.24999572229E+00 0.  0.
        -13    1    4    4    0    0  0.15722258933E+02 -0.17762491081E+02  0.17027682427E+02  0.29200145705E+02  0.10500000000E+00 0. -1.
         13    1    4    4    0    0  0.14659031176E+02 -0.16641614138E+02  0.15772348223E+02  0.27214123348E+02  0.10500000000E+00 0.  1.
    3000001    1    5    5    0    0 -0.29188959634E+02  0.32359969737E+02 -0.23811710555E+02  0.49670520085E+02  0.10000000000E+01 0.  1.
        -13    1    6    6    0    0 -0.11243713294E+01  0.19012429834E+01 -0.26469769340E+01  0.34491227374E+01  0.10500000000E+00 0. -1.
         13    1    6    6    0    0 -0.31070761265E+01  0.52613994695E+01 -0.71164467204E+01  0.93803563556E+01  0.10500000000E+00 0.  1.
</event>
<event>
11    0  0.3482988E-009  0.9118800E+02  0.7816531E-02  0.1126479E+00
         25   -1    0    0    0    0  0.00000000000E+00  0.00000000000E+00  0.99999998245E-14  0.12500000000E+03  0.12500000000E+03 0.  0.
    3000001    1    3    3    0    0 -0.42765549176E+01  0.26848717805E+02  0.26828604451E+02  0.38208854819E+02  0.10000000000E+01 0. -1.
    1000022    2    1    0    0    0 -0.10773734881E+02  0.47459918162E+02  0.37917445078E+02  0.62500001650E+02  0.10000018490E+02 0.  0.
    3000022    2    3    3    0    0 -0.64971799629E+01  0.20611200357E+02  0.11088840627E+02  0.24291146831E+02  0.25000064827E+00 0.  0.
    1000022    2    1    0    0    0  0.10773734881E+02 -0.47459918162E+02 -0.37917445078E+02  0.62499998350E+02  0.99999978646E+01 0.  0.
    3000022    2    5    5    0    0  0.10452323769E+02 -0.46880504181E+02 -0.35261805949E+02  0.59585989969E+02  0.24999469920E+00 0.  0.
        -13    1    4    4    0    0 -0.22130123812E+01  0.68462407572E+01  0.36800016983E+01  0.80821948630E+01  0.10500000000E+00 0.  1.
         13    1    4    4    0    0 -0.42841675817E+01  0.13764959599E+02  0.74088389283E+01  0.16208951968E+02  0.10500000000E+00 0. -1.
    3000001    1    5    5    0    0  0.32141111176E+00 -0.57941398143E+00 -0.26556391288E+01  0.29140083814E+01  0.10000000000E+01 0.  1.
        -13    1    6    6    0    0  0.39783794368E+01 -0.17953941923E+02 -0.13430678477E+02  0.22772037302E+02  0.10500000000E+00 0. -1.
         13    1    6    6    0    0  0.64739443320E+01 -0.28926562258E+02 -0.21831127472E+02  0.36813952667E+02  0.10500000000E+00 0.  1.
</event>
<event>
11    0  0.3482988E-009  0.9118800E+02  0.7816531E-02  0.1126479E+00
         25   -1    0    0    0    0  0.00000000000E+00  0.00000000000E+00  0.99999998245E-14  0.12500000000E+03  0.12500000000E+03 0.  0.
    3000001    1    3    3    0    0  0.60069491329E+01  0.23595773253E+01  0.62589904958E+00  0.65607006226E+01  0.10000000000E+01 0. -1.
    1000022    2    1    0    0    0  0.55988118631E+02  0.15387682573E+02 -0.20851855432E+02  0.62500000476E+02  0.99999990844E+01 0.  0.
    3000022    2    3    3    0    0  0.49981169498E+02  0.13028105248E+02 -0.21477754482E+02  0.55939299853E+02  0.24999946098E+00 0.  0.
    1000022    2    1    0    0    0 -0.55988118631E+02 -0.15387682573E+02  0.20851855432E+02  0.62499999524E+02  0.99999931358E+01 0.  0.
    3000022    2    5    5    0    0 -0.41505438466E+02 -0.11411625254E+02  0.19884563522E+02  0.47417138051E+02  0.25000262028E+00 0.  0.
        -13    1    4    4    0    0  0.18028253997E+02  0.46748262459E+01 -0.78021330643E+01  0.20192975214E+02  0.10500000000E+00 0.  1.
         13    1    4    4    0    0  0.31952915501E+02  0.83532790022E+01 -0.13675621417E+02  0.35746324640E+02  0.10500000000E+00 0. -1.
    3000001    1    5    5    0    0 -0.14482680165E+02 -0.39760573193E+01  0.96729191012E+00  0.15082861473E+02  0.10000000000E+01 0.  1.
        -13    1    6    6    0    0 -0.24653925029E+02 -0.68252940690E+01  0.11866249903E+02  0.28199637768E+02  0.10500000000E+00 0.  1.
         13    1    6    6    0    0 -0.16851513437E+02 -0.45863311851E+01  0.80183136191E+01  0.19217500284E+02  0.10500000000E+00 0. -1.
</event>
<event>
11    0  0.3482988E-009  0.9118800E+02  0.7816531E-02  0.1126479E+00
         25   -1    0    0    0    0  0.00000000000E+00  0.00000000000E+00  0.99999998245E-14  0.12500000000E+03  0.12500000000E+03 0.  0.
    3000001    1    3    3    0    0 -0.21028202234E+02 -0.24024442048E+02 -0.19477910688E+02  0.37413207690E+02  0.10000000000E+01 0. -1.
    1000022    2    1    0    0    0 -0.36902799321E+02 -0.33303404248E+02 -0.36541985025E+02  0.62499999164E+02  0.99999946832E+01 0.  0.
    3000022    2    3    3    0    0 -0.15874597087E+02 -0.92789622005E+01 -0.17064074337E+02  0.25086791474E+02  0.25000254077E+00 0.  0.
    1000022    2    1    0    0    0  0.36902799321E+02  0.33303404248E+02  0.36541985025E+02  0.62500000836E+02  0.10000005133E+02 0.  0.
    3000022    2    5    5    0    0  0.24808687835E+02  0.20007490682E+02  0.28606517040E+02  0.42827164173E+02  0.24999702307E+00 0.  0.
        -13    1    4    4    0    0 -0.61205377085E+01 -0.35557564172E+01 -0.64895319333E+01  0.96036157385E+01  0.10500000000E+00 0.  1.
         13    1    4    4    0    0 -0.97540593787E+01 -0.57232057833E+01 -0.10574542404E+02  0.15483175735E+02  0.10500000000E+00 0. -1.
    3000001    1    5    5    0    0  0.12094111486E+02  0.13295913567E+02  0.79354679855E+01  0.19672836663E+02  0.10000000000E+01 0.  1.
        -13    1    6    6    0    0  0.10718474791E+02  0.86776860809E+01  0.12459340300E+02  0.18585858152E+02  0.10500000000E+00 0. -1.
         13    1    6    6    0    0  0.14090213045E+02  0.11329804601E+02  0.16147176740E+02  0.24241306021E+02  0.10500000000E+00 0.  1.
</event>
<event>
11    0  0.3482988E-009  0.9118800E+02  0.7816531E-02  0.1126479E+00
         25   -1    0    0    0    0  0.00000000000E+00  0.00000000000E+00  0.99999998245E-14  0.12500000000E+03  0.12500000000E+03 0.  0.
    3000001    1    3    3    0    0 -0.26786148454E+02  0.19379030382E+02 -0.16582410712E+02  0.37000282601E+02  0.10000000000E+01 0. -1.
    1000022    2    1    0    0    0 -0.38766035621E+02  0.35603466981E+02 -0.32184431353E+02  0.62499999850E+02  0.99999990489E+01 0.  0.
    3000022    2    3    3    0    0 -0.11979887167E+02  0.16224436599E+02 -0.15602020641E+02  0.25499717249E+02  0.24998444529E+00 0.  0.
    1000022    2    1    0    0    0  0.38766035621E+02 -0.35603466981E+02  0.32184431353E+02  0.62500000150E+02  0.10000000919E+02 0.  0.
    3000022    2    5    5    0    0  0.16171610016E+02 -0.17391731817E+02  0.19844282911E+02  0.30949174016E+02  0.25000395117E+00 0.  0.
        -13    1    4    4    0    0 -0.75045796294E+01  0.10234405863E+02 -0.98707570518E+01  0.16078079753E+02  0.10500000000E+00 0. -1.
         13    1    4    4    0    0 -0.44753075372E+01  0.59900307362E+01 -0.57312635894E+01  0.94216374959E+01  0.10500000000E+00 0.  1.
    3000001    1    5    5    0    0  0.22594425605E+02 -0.18211735164E+02  0.12340148442E+02  0.31550826133E+02  0.10000000000E+01 0.  1.
        -13    1    6    6    0    0  0.89922117989E+01 -0.96281710883E+01  0.11086206616E+02  0.17218494524E+02  0.10500000000E+00 0.  1.
         13    1    6    6    0    0  0.71793982172E+01 -0.77635607283E+01  0.87580762947E+01  0.13730679493E+02  0.10500000000E+00 0. -1.
</event>
<event>
11    0  0.3482988E-009  0.9118800E+02  0.7816531E-02  0.1126479E+00
         25   -1    0    0    0    0  0.00000000000E+00  0.00000000000E+00  0.99999998245E-14  0.12500000000E+03  0.12500000000E+03 0.  0.
    3000001    1    3    3    0    0 -0.10062243520E+02  0.13334184847E+02 -0.36622129180E-01  0.16734711571E+02  0.10000000000E+01 0. -1.
    1000022    2    1    0    0    0 -0.44663975675E+02  0.40917546337E+02 -0.11710405404E+02  0.62499997655E+02  0.99999895418E+01 0.  0.
    3000022    2    3    3    0    0 -0.34601732155E+02  0.27583361490E+02 -0.11673783275E+02  0.45765286084E+02  0.24999037511E+00 0.  0.
    1000022    2    1    0    0    0  0.44663975675E+02 -0.40917546337E+02  0.11710405404E+02  0.62500002345E+02  0.10000018850E+02 0.  0.
    3000022    2    5    5    0    0  0.28933372806E+02 -0.32491438710E+02  0.88726919959E+01  0.44402937009E+02  0.25000079504E+00 0.  0.
        -13    1    4    4    0    0 -0.23038671777E+02  0.18345944056E+02 -0.78226034421E+01  0.30472253119E+02  0.10500000000E+00 0. -1.
         13    1    4    4    0    0 -0.11563060379E+02  0.92374174337E+01 -0.38511798328E+01  0.15293032965E+02  0.10500000000E+00 0.  1.
    3000001    1    5    5    0    0  0.15730602869E+02 -0.84261076267E+01  0.28377134081E+01  0.18097065335E+02  0.10000000000E+01 0. -1.
        -13    1    6    6    0    0  0.12426578370E+02 -0.13962119116E+02  0.38785352774E+01  0.19089648532E+02  0.10500000000E+00 0. -1.
         13    1    6    6    0    0  0.16506794436E+02 -0.18529319595E+02  0.49941567186E+01  0.25313288477E+02  0.10500000000E+00 0.  1.
</event>
<event>
11    0  0.3482988E-009  0.9118800E+02  0.7816531E-02  0.1126479E+00
         25   -1    0    0    0    0  0.00000000000E+00  0.00000000000E+00  0.99999998245E-14  0.12500000000E+03  0.12500000000E+03 0.  0.
    3000001    1    3    3    0    0 -0.21555589536E+02 -0.25775006731E+02 -0.27091544479E+02  0.43173443162E+02  0.10000000000E+01 0. -1.
    1000022    2    1    0    0    0 -0.25462794138E+02 -0.40615845468E+02 -0.38836183565E+02  0.62499999838E+02  0.10000001873E+02 0.  0.
    3000022    2    3    3    0    0 -0.39072046021E+01 -0.14840838738E+02 -0.11744639086E+02  0.19326556676E+02  0.25000691463E+00 0.  0.
    1000022    2    1    0    0    0  0.25462794138E+02  0.40615845468E+02  0.38836183565E+02  0.62500000162E+02  0.10000003894E+02 0.  0.
    3000022    2    5    5    0    0  0.49567042388E+01  0.16423360515E+02  0.11915206089E+02  0.20888522425E+02  0.25009084784E+00 0.  0.
        -13    1    4    4    0    0 -0.24325328259E+01 -0.90058849158E+01 -0.71617028566E+01  0.11761130552E+02  0.10500000000E+00 0.  1.
         13    1    4    4    0    0 -0.14746717761E+01 -0.58349538220E+01 -0.45829362291E+01  0.75654261236E+01  0.10500000000E+00 0. -1.
    3000001    1    5    5    0    0  0.20506089899E+02  0.24192484953E+02  0.26920977476E+02  0.41611477736E+02  0.10000000000E+01 0.  1.
        -13    1    6    6    0    0  0.15489442871E+01  0.53022215557E+01  0.38190068936E+01  0.67162951457E+01  0.10500000000E+00 0. -1.
         13    1    6    6    0    0  0.34077599518E+01  0.11121138960E+02  0.80961991958E+01  0.14172227280E+02  0.10500000000E+00 0.  1.
</event>
<event>
11    0  0.3482988E-009  0.9118800E+02  0.7816531E-02  0.1126479E+00
         25   -1    0    0    0    0  0.00000000000E+00  0.00000000000E+00  0.99999998245E-14  0.12500000000E+03  0.12500000000E+03 0.  0.
    3000001    1    3    3    0    0 -0.21715908178E+02  0.22953088206E+02  0.70709492657E+01  0.32394802819E+02  0.10000000000E+01 0. -1.
    1000022    2    1    0    0    0 -0.34280300235E+02  0.49833220355E+02  0.12155717957E+02  0.62499998796E+02  0.99999767660E+01 0.  0.
    3000022    2    3    3    0    0 -0.12564392057E+02  0.26880132149E+02  0.50847686917E+01  0.30105195977E+02  0.25000010087E+00 0.  0.
    1000022    2    1    0    0    0  0.34280300235E+02 -0.49833220355E+02 -0.12155717957E+02  0.62500001204E+02  0.99999918162E+01 0.  0.
    3000022    2    5    5    0    0  0.19999496826E+02 -0.30614800246E+02 -0.12152766301E+02  0.38535673002E+02  0.24999507706E+00 0.  0.
        -13    1    4    4    0    0 -0.91724541015E+01  0.19669150761E+02  0.36890046370E+01  0.22014295040E+02  0.10500000000E+00 0. -1.
         13    1    4    4    0    0 -0.33919379558E+01  0.72109813878E+01  0.13957640546E+01  0.80909009367E+01  0.10500000000E+00 0.  1.
    3000001    1    5    5    0    0  0.14280803409E+02 -0.19218420109E+02 -0.29516567776E-02  0.23964328202E+02  0.10000000000E+01 0.  1.
        -13    1    6    6    0    0  0.11429507115E+02 -0.17522316297E+02 -0.70196615371E+01  0.22066986075E+02  0.10500000000E+00 0.  1.
         13    1    6    6    0    0  0.85699897110E+01 -0.13092483949E+02 -0.51331047635E+01  0.16468686927E+02  0.10500000000E+00 0. -1.
</event>
<event>
11    0  0.3482988E-009  0.9118800E+02  0.7816531E-02  0.1126479E+00
         25   -1    0    0    0    0  0.00000000000E+00  0.00000000000E+00  0.99999998245E-14  0.12500000000E+03  0.12500000000E+03 0.  0.
    3000001    1    3    3    0    0 -0.89786325749E+01  0.15954639534E+02 -0.82631632828E+01  0.20110848640E+02  0.10000000000E+01 0. -1.
    1000022    2    1    0    0    0 -0.14835159864E+02  0.51086114554E+02 -0.31247030888E+02  0.62499999587E+02  0.99999970361E+01 0.  0.
    3000022    2    3    3    0    0 -0.58565272892E+01  0.35131475020E+02 -0.22983867605E+02  0.42389150947E+02  0.24999803251E+00 0.  0.
    1000022    2    1    0    0    0  0.14835159864E+02 -0.51086114554E+02  0.31247030888E+02  0.62500000413E+02  0.10000002197E+02 0.  0.
    3000022    2    5    5    0    0  0.11199588931E+02 -0.30766543258E+02  0.24012506561E+02  0.40603866145E+02  0.24999660065E+00 0.  0.
        -13    1    4    4    0    0 -0.37822923247E+01  0.22463157533E+02 -0.14646478121E+02  0.27081904068E+02  0.10500000000E+00 0. -1.
         13    1    4    4    0    0 -0.20742349644E+01  0.12668317486E+02 -0.83373894837E+01  0.15307246879E+02  0.10500000000E+00 0.  1.
    3000001    1    5    5    0    0  0.36355709335E+01 -0.20319571296E+02  0.72345243265E+01  0.21896134268E+02  0.10000000000E+01 0. -1.
        -13    1    6    6    0    0  0.54829742038E+01 -0.15251944327E+02  0.11911010938E+02  0.20113876266E+02  0.10500000000E+00 0. -1.
         13    1    6    6    0    0  0.57166147268E+01 -0.15514598930E+02  0.12101495623E+02  0.20489989878E+02  0.10500000000E+00 0.  1.
</event>
<event>
11    0  0.3482988E-009  0.9118800E+02  0.7816531E-02  0.1126479E+00
         25   -1    0    0    0    0  0.00000000000E+00  0.00000000000E+00  0.99999998245E-14  0.12500000000E+03  0.12500000000E+03 0.  0.
    3000001    1    3    3    0    0 -0.14944152359E+02 -0.41764589300E+02 -0.65331845312E+01  0.44847420319E+02  0.10000000000E+01 0.  1.
    1000022    2    1    0    0    0 -0.24619596832E+02 -0.55074763825E+02 -0.12918809908E+02  0.62500003136E+02  0.10000029195E+02 0.  0.
    3000022    2    3    3    0    0 -0.96754444734E+01 -0.13310174525E+02 -0.63856253772E+01  0.17652582817E+02  0.24999398597E+00 0.  0.
    1000022    2    1    0    0    0  0.24619596832E+02  0.55074763825E+02  0.12918809908E+02  0.62499996864E+02  0.99999899991E+01 0.  0.
    3000022    2    5    5    0    0 -0.82551378596E-01  0.31177411735E+01  0.25454305679E+01  0.40334651729E+01  0.24999954006E+00 0.  0.
        -13    1    4    4    0    0 -0.64800794585E+01 -0.88243482533E+01 -0.42382370682E+01  0.11740282379E+02  0.10500000000E+00 0.  1.
         13    1    4    4    0    0 -0.31953650149E+01 -0.44858262717E+01 -0.21473883090E+01  0.59123004379E+01  0.10500000000E+00 0. -1.
    3000001    1    5    5    0    0  0.24702148211E+02  0.51957022652E+02  0.10373379341E+02  0.58466531691E+02  0.10000000000E+01 0.  1.
        -13    1    6    6    0    0 -0.74803551403E-01  0.17255400232E+01  0.14856111320E+01  0.22806028542E+01  0.10500000000E+00 0. -1.
         13    1    6    6    0    0 -0.77478271931E-02  0.13922011502E+01  0.10598194359E+01  0.17528623187E+01  0.10500000000E+00 0.  1.
</event>
<event>
11    0  0.3482988E-009  0.9118800E+02  0.7816531E-02  0.1126479E+00
         25   -1    0    0    0    0  0.00000000000E+00  0.00000000000E+00  0.99999998245E-14  0.12500000000E+03  0.12500000000E+03 0.  0.
    3000001    1    3    3    0    0 -0.21216822006E+02 -0.21133162049E+02  0.51856386597E+01  0.30408139083E+02  0.10000000000E+01 0.  1.
    1000022    2    1    0    0    0 -0.44405518922E+02 -0.38215375084E+02  0.19338658599E+02  0.62500009404E+02  0.10000122779E+02 0.  0.
    3000022    2    3    3    0    0 -0.23188696916E+02 -0.17082213035E+02  0.14153019939E+02  0.32091870321E+02  0.25000089106E+00 0.  0.
    1000022    2    1    0    0    0  0.44405518922E+02  0.38215375084E+02 -0.19338658599E+02  0.62499990596E+02  0.10000005226E+02 0.  0.
    3000022    2    5    5    0    0  0.42702588036E+01  0.59218785353E+00 -0.52054791682E+00  0.43496285007E+01  0.25000251262E+00 0.  0.
        -13    1    4    4    0    0 -0.15391267779E+02 -0.11279101907E+02  0.93472926762E+01  0.21248345090E+02  0.10500000000E+00 0. -1.
         13    1    4    4    0    0 -0.77974291375E+01 -0.58031111280E+01  0.48057272628E+01  0.10843525231E+02  0.10500000000E+00 0.  1.
    3000001    1    5    5    0    0  0.40135260119E+02  0.37623187230E+02 -0.18818110682E+02  0.58150362095E+02  0.10000000000E+01 0. -1.
        -13    1    6    6    0    0  0.24388321156E+01  0.27396045688E+00 -0.28009070496E+00  0.24723333560E+01  0.10500000000E+00 0. -1.
         13    1    6    6    0    0  0.18314266880E+01  0.31822739665E+00 -0.24045721186E+00  0.18772951447E+01  0.10500000000E+00 0.  1.
</event>
<event>
11    0  0.3482988E-009  0.9118800E+02  0.7816531E-02  0.1126479E+00
         25   -1    0    0    0    0  0.00000000000E+00  0.00000000000E+00  0.99999998245E-14  0.12500000000E+03  0.12500000000E+03 0.  0.
    3000001    1    3    3    0    0  0.99488015128E+01 -0.31368452006E+01 -0.33113609207E+02  0.34732255384E+02  0.10000000000E+01 0. -1.
    1000022    2    1    0    0    0  0.24296199683E+02 -0.10414869825E+02 -0.55744731560E+02  0.62500000553E+02  0.10000006997E+02 0.  0.
    3000022    2    3    3    0    0  0.14347398170E+02 -0.72780246244E+01 -0.22631122353E+02  0.27767745169E+02  0.24999226505E+00 0.  0.
    1000022    2    1    0    0    0 -0.24296199683E+02  0.10414869825E+02  0.55744731560E+02  0.62499999447E+02  0.10000000084E+02 0.  0.
    3000022    2    5    5    0    0 -0.67050242942E+01  0.94370151216E+00  0.24339721111E+02  0.25265242001E+02  0.25001255874E+00 0.  0.
        -13    1    4    4    0    0  0.81682839473E+01 -0.40807724827E+01 -0.12784773164E+02  0.15710983946E+02  0.10500000000E+00 0. -1.
         13    1    4    4    0    0  0.61791142226E+01 -0.31972521417E+01 -0.98463491890E+01  0.12056761223E+02  0.10500000000E+00 0.  1.
    3000001    1    5    5    0    0 -0.17591175388E+02  0.94711683128E+01  0.31405010449E+02  0.37234757446E+02  0.10000000000E+01 0. -1.
        -13    1    6    6    0    0 -0.33894456981E+01  0.44442967451E+00  0.12065050111E+02  0.12540427387E+02  0.10500000000E+00 0. -1.
         13    1    6    6    0    0 -0.33155785961E+01  0.49927183765E+00  0.12274671000E+02  0.12724814614E+02  0.10500000000E+00 0.  1.
</event>
<event>
11    0  0.3482988E-009  0.9118800E+02  0.7816531E-02  0.1126479E+00
         25   -1    0    0    0    0  0.00000000000E+00  0.00000000000E+00  0.99999998245E-14  0.12500000000E+03  0.12500000000E+03 0.  0.
    3000001    1    3    3    0    0 -0.38795693240E+02 -0.25568687340E+02 -0.11694122448E+02  0.47923022506E+02  0.10000000000E+01 0. -1.
    1000022    2    1    0    0    0 -0.52772593769E+02 -0.29699139039E+02 -0.11801035867E+02  0.62499999201E+02  0.99999969898E+01 0.  0.
    3000022    2    3    3    0    0 -0.13976900528E+02 -0.41304516991E+01 -0.10691341887E+00  0.14576976694E+02  0.24987887439E+00 0.  0.
    1000022    2    1    0    0    0  0.52772593769E+02  0.29699139039E+02  0.11801035867E+02  0.62500000799E+02  0.10000006983E+02 0.  0.
    3000022    2    5    5    0    0  0.37902516405E+02  0.16036632598E+02  0.80920743228E+01  0.41944230836E+02  0.24999732308E+00 0.  0.
        -13    1    4    4    0    0 -0.73042745443E+01 -0.21382770746E+01 -0.12045190399E+00  0.76125021594E+01  0.10500000000E+00 0. -1.
         13    1    4    4    0    0 -0.66726259842E+01 -0.19921746244E+01  0.13538485122E-01  0.69644745351E+01  0.10500000000E+00 0.  1.
    3000001    1    5    5    0    0  0.14870077364E+02  0.13662506441E+02  0.37089615441E+01  0.20555769963E+02  0.10000000000E+01 0.  1.
        -13    1    6    6    0    0  0.12879576711E+02  0.54644940523E+01  0.28049327910E+01  0.14269648365E+02  0.10500000000E+00 0.  1.
         13    1    6    6    0    0  0.25022939694E+02  0.10572138546E+02  0.52871415318E+01  0.27674582471E+02  0.10500000000E+00 0. -1.
</event>
<event>
11    0  0.3482988E-009  0.9118800E+02  0.7816531E-02  0.1126479E+00
         25   -1    0    0    0    0  0.00000000000E+00  0.00000000000E+00  0.99999998245E-14  0.12500000000E+03  0.12500000000E+03 0.  0.
    3000001    1    3    3    0    0  0.81136063413E+00 -0.54262379895E+01 -0.15152057860E+01  0.57791187366E+01  0.10000000000E+01 0. -1.
    1000022    2    1    0    0    0  0.60899708583E+01 -0.44560299222E+02 -0.42232002228E+02  0.62500001053E+02  0.10000005382E+02 0.  0.
    3000022    2    3    3    0    0  0.52786102242E+01 -0.39134061232E+02 -0.40716796442E+02  0.56720882316E+02  0.25000764081E+00 0.  0.
    1000022    2    1    0    0    0 -0.60899708583E+01  0.44560299222E+02  0.42232002228E+02  0.62499998947E+02  0.99999922215E+01 0.  0.
    3000022    2    5    5    0    0 -0.71795558114E+01  0.17867292159E+02  0.15862391529E+02  0.24949230781E+02  0.25000164750E+00 0.  0.
        -13    1    4    4    0    0  0.19923488254E+01 -0.14329098178E+02 -0.14917647972E+02  0.20780754425E+02  0.10500000000E+00 0.  1.
         13    1    4    4    0    0  0.32862613988E+01 -0.24804963054E+02 -0.25799148470E+02  0.35940127891E+02  0.10500000000E+00 0. -1.
    3000001    1    5    5    0    0  0.10895849531E+01  0.26693007063E+02  0.26369610699E+02  0.37550768166E+02  0.10000000000E+01 0. -1.
        -13    1    6    6    0    0 -0.41928545678E+01  0.10575853184E+02  0.93246097378E+01  0.14710135002E+02  0.10500000000E+00 0.  1.
         13    1    6    6    0    0 -0.29867012437E+01  0.72914389744E+01  0.65377817913E+01  0.10239095780E+02  0.10500000000E+00 0. -1.
</event>
<event>
11    0  0.3482988E-009  0.9118800E+02  0.7816531E-02  0.1126479E+00
         25   -1    0    0    0    0  0.00000000000E+00  0.00000000000E+00  0.99999998245E-14  0.12500000000E+03  0.12500000000E+03 0.  0.
    3000001    1    3    3    0    0 -0.56173555097E+01  0.14604662565E+02  0.34134293358E+02  0.37563291051E+02  0.10000000000E+01 0.  1.
    1000022    2    1    0    0    0 -0.24747390713E+01  0.28079666523E+02  0.54878576047E+02  0.62500001585E+02  0.10000004183E+02 0.  0.
    3000022    2    3    3    0    0  0.31426164384E+01  0.13475003958E+02  0.20744282689E+02  0.24936710534E+02  0.24999641318E+00 0.  0.
    1000022    2    1    0    0    0  0.24747390713E+01 -0.28079666523E+02 -0.54878576047E+02  0.62499998415E+02  0.99999843725E+01 0.  0.
    3000022    2    5    5    0    0  0.49135201009E+01 -0.13429594180E+02 -0.33740983992E+02  0.36647144212E+02  0.24999707094E+00 0.  0.
        -13    1    4    4    0    0  0.15554243809E+01  0.67750739500E+01  0.10307280869E+02  0.12432700267E+02  0.10500000000E+00 0. -1.
         13    1    4    4    0    0  0.15871920576E+01  0.66999300084E+01  0.10437001821E+02  0.12504010267E+02  0.10500000000E+00 0.  1.
    3000001    1    5    5    0    0 -0.24387810296E+01 -0.14650072343E+02 -0.21137592055E+02  0.25852854203E+02  0.10000000000E+01 0.  1.
        -13    1    6    6    0    0  0.19837313802E+01 -0.53203061924E+01 -0.13264527789E+02  0.14429122310E+02  0.10500000000E+00 0. -1.
         13    1    6    6    0    0  0.29297887206E+01 -0.81092879877E+01 -0.20476456203E+02  0.22218021902E+02  0.10500000000E+00 0.  1.
</event>
<event>
11    0  0.3482988E-009  0.9118800E+02  0.7816531E-02  0.1126479E+00
         25   -1    0    0    0    0  0.00000000000E+00  0.00000000000E+00  0.99999998245E-14  0.12500000000E+03  0.12500000000E+03 0.  0.
    3000001    1    3    3    0    0 -0.26415749691E+02  0.29163890283E+02  0.49328901198E+00  0.39364548292E+02  0.10000000000E+01 0. -1.
    1000022    2    1    0    0    0 -0.46527331208E+02  0.40503412035E+02 -0.96485561680E+00  0.62500000923E+02  0.10000011659E+02 0.  0.
    3000022    2    3    3    0    0 -0.20111581517E+02  0.11339521751E+02 -0.14581446288E+01  0.23135452631E+02  0.25003599018E+00 0.  0.
    1000022    2    1    0    0    0  0.46527331208E+02 -0.40503412035E+02  0.96485561680E+00  0.62499999077E+02  0.10000000121E+02 0.  0.
    3000022    2    5    5    0    0  0.16567828721E+01 -0.12134278097E+01  0.19490971477E+01  0.28423281553E+01  0.25002623114E+00 0.  0.
        -13    1    4    4    0    0 -0.14680978705E+02  0.83185293580E+01 -0.10646027389E+01  0.16907793186E+02  0.10500000000E+00 0.  1.
         13    1    4    4    0    0 -0.54306028121E+01  0.30209923933E+01 -0.39354188987E+00  0.62276594449E+01  0.10500000000E+00 0. -1.
    3000001    1    5    5    0    0  0.44870548336E+02 -0.39289984225E+02 -0.98424153091E+00  0.59657670922E+02  0.10000000000E+01 0.  1.
        -13    1    6    6    0    0  0.99042740523E+00 -0.71604387881E+00  0.10704483684E+01  0.16280509792E+01  0.10500000000E+00 0. -1.
         13    1    6    6    0    0  0.66635546692E+00 -0.49738393092E+00  0.87864877927E+00  0.12142771761E+01  0.10500000000E+00 0.  1.
</event>
<event>
11    0  0.3482988E-009  0.9118800E+02  0.7816531E-02  0.1126479E+00
         25   -1    0    0    0    0  0.00000000000E+00  0.00000000000E+00  0.99999998245E-14  0.12500000000E+03  0.12500000000E+03 0.  0.
    3000001    1    3    3    0    0  0.22890827463E+01  0.51691504420E+02  0.25742905755E+02  0.57800940527E+02  0.10000000000E+01 0. -1.
    1000022    2    1    0    0    0  0.51213485821E+01  0.54934584128E+02  0.27608213280E+02  0.62500001114E+02  0.99999977082E+01 0.  0.
    3000022    2    3    3    0    0  0.28322658359E+01  0.32430797072E+01  0.18653075251E+01  0.46990605873E+01  0.25000497550E+00 0.  0.
    1000022    2    1    0    0    0 -0.51213485821E+01 -0.54934584128E+02 -0.27608213280E+02  0.62499998886E+02  0.99999837819E+01 0.  0.
    3000022    2    5    5    0    0 -0.11020067386E+01 -0.24282087592E+02 -0.17524599195E+02  0.29966786230E+02  0.25000660908E+00 0.  0.
        -13    1    4    4    0    0  0.12239842206E+01  0.14669870615E+01  0.77282402890E+00  0.20636061617E+01  0.10500000000E+00 0. -1.
         13    1    4    4    0    0  0.16082816152E+01  0.17760926457E+01  0.10924834962E+01  0.26354544256E+01  0.10500000000E+00 0.  1.
    3000001    1    5    5    0    0 -0.40193418436E+01 -0.30652496536E+02 -0.10083614085E+02  0.32533212656E+02  0.10000000000E+01 0. -1.
        -13    1    6    6    0    0 -0.24710612462E+00 -0.58052604336E+01 -0.41787722302E+01  0.71578818439E+01  0.10500000000E+00 0.  1.
         13    1    6    6    0    0 -0.85490061395E+00 -0.18476827158E+02 -0.13345826965E+02  0.22808904386E+02  0.10500000000E+00 0. -1.
</event>
<event>
11    0  0.3482988E-009  0.9118800E+02  0.7816531E-02  0.1126479E+00
         25   -1    0    0    0    0  0.00000000000E+00  0.00000000000E+00  0.99999998245E-14  0.12500000000E+03  0.12500000000E+03 0.  0.
    3000001    1    3    3    0    0  0.13646979037E+02  0.20048022996E+02 -0.22673054625E+02  0.33214916362E+02  0.10000000000E+01 0. -1.
    1000022    2    1    0    0    0  0.16793703017E+02  0.40283176549E+02 -0.43606046904E+02  0.62499997418E+02  0.99999788380E+01 0.  0.
    3000022    2    3    3    0    0  0.31467239801E+01  0.20235153553E+02 -0.20932992279E+02  0.29285081057E+02  0.24999120766E+00 0.  0.
    1000022    2    1    0    0    0 -0.16793703017E+02 -0.40283176549E+02  0.43606046904E+02  0.62500002582E+02  0.10000011111E+02 0.  0.
    3000022    2    5    5    0    0 -0.17218359350E+02 -0.32725652334E+02  0.38032577596E+02  0.53046957285E+02  0.24999837660E+00 0.  0.
        -13    1    4    4    0    0  0.10548468399E+01  0.65468601697E+01 -0.68313045644E+01  0.95211253006E+01  0.10500000000E+00 0.  1.
         13    1    4    4    0    0  0.20918771402E+01  0.13688293383E+02 -0.14101687715E+02  0.19763955756E+02  0.10500000000E+00 0. -1.
    3000001    1    5    5    0    0  0.42465633277E+00 -0.75575242150E+01  0.55734693082E+01  0.94530452972E+01  0.10000000000E+01 0. -1.
        -13    1    6    6    0    0 -0.58011763278E+01 -0.11007908131E+02  0.12874505122E+02  0.17905071777E+02  0.10500000000E+00 0.  1.
         13    1    6    6    0    0 -0.11417183022E+02 -0.21717744203E+02  0.25158072474E+02  0.35141885507E+02  0.10500000000E+00 0. -1.
</event>
<event>
11    0  0.3482988E-009  0.9118800E+02  0.7816531E-02  0.1126479E+00
         25   -1    0    0    0    0  0.00000000000E+00  0.00000000000E+00  0.99999998245E-14  0.12500000000E+03  0.12500000000E+03 0.  0.
    3000001    1    3    3    0    0  0.14649388345E+02  0.34574859393E+02  0.14982531914E+02  0.40441337063E+02  0.10000000000E+01 0.  1.
    1000022    2    1    0    0    0  0.27983747276E+02  0.51805241870E+02  0.18422164588E+02  0.62500003811E+02  0.10000056566E+02 0.  0.
    3000022    2    3    3    0    0  0.13334358932E+02  0.17230382478E+02  0.34396326741E+01  0.22058666747E+02  0.24999457307E+00 0.  0.
    1000022    2    1    0    0    0 -0.27983747276E+02 -0.51805241870E+02 -0.18422164588E+02  0.62499996189E+02  0.10000008934E+02 0.  0.
    3000022    2    5    5    0    0 -0.19083392405E+02 -0.35229519409E+02 -0.76288713483E+01  0.40786726723E+02  0.24999051254E+00 0.  0.
        -13    1    4    4    0    0  0.60997486396E+01  0.79037788946E+01  0.16426682438E+01  0.10118598630E+02  0.10500000000E+00 0. -1.
         13    1    4    4    0    0  0.72346102924E+01  0.93266035829E+01  0.17969644303E+01  0.11940068117E+02  0.10500000000E+00 0.  1.
    3000001    1    5    5    0    0 -0.89003548719E+01 -0.16575722461E+02 -0.10793293240E+02  0.21713269466E+02  0.10000000000E+01 0.  1.
        -13    1    6    6    0    0 -0.96206043105E+01 -0.17622142371E+02 -0.38064017884E+01  0.20435157171E+02  0.10500000000E+00 0. -1.
         13    1    6    6    0    0 -0.94627880941E+01 -0.17607377038E+02 -0.38224695599E+01  0.20351569552E+02  0.10500000000E+00 0.  1.
</event>
<event>
11    0  0.3482988E-009  0.9118800E+02  0.7816531E-02  0.1126479E+00
         25   -1    0    0    0    0  0.00000000000E+00  0.00000000000E+00  0.99999998245E-14  0.12500000000E+03  0.12500000000E+03 0.  0.
    3000001    1    3    3    0    0 -0.18351302067E+02  0.42857523805E+01  0.11902160427E+01  0.18909113550E+02  0.10000000000E+01 0. -1.
    1000022    2    1    0    0    0 -0.59344978955E+02  0.12888900015E+02 -0.10876564879E+02  0.62499999613E+02  0.10000000865E+02 0.  0.
    3000022    2    3    3    0    0 -0.40993676888E+02  0.86031476347E+01 -0.12066780922E+02  0.43590886063E+02  0.24990383511E+00 0.  0.
    1000022    2    1    0    0    0  0.59344978955E+02 -0.12888900015E+02  0.10876564879E+02  0.62500000387E+02  0.10000005699E+02 0.  0.
    3000022    2    5    5    0    0  0.35684008874E+02 -0.54752167403E+01  0.10804257852E+02  0.37684492469E+02  0.24999457542E+00 0.  0.
        -13    1    4    4    0    0 -0.30556844883E+02  0.64047515405E+01 -0.90228433464E+01  0.32498682104E+02  0.10500000000E+00 0. -1.
         13    1    4    4    0    0 -0.10436832005E+02  0.21983960941E+01 -0.30439375757E+01  0.11092203959E+02  0.10500000000E+00 0.  1.
    3000001    1    5    5    0    0  0.23660970081E+02 -0.74136832749E+01  0.72307027328E-01  0.24815507917E+02  0.10000000000E+01 0.  1.
        -13    1    6    6    0    0  0.26812669095E+02 -0.41110851214E+01  0.80915236847E+01  0.28307313991E+02  0.10500000000E+00 0.  1.
         13    1    6    6    0    0  0.88713397789E+01 -0.13641316189E+01  0.27127341673E+01  0.93771784780E+01  0.10500000000E+00 0. -1.
</event>
<event>
11    0  0.3482988E-009  0.9118800E+02  0.7816531E-02  0.1126479E+00
         25   -1    0    0    0    0  0.00000000000E+00  0.00000000000E+00  0.99999998245E-14  0.12500000000E+03  0.12500000000E+03 0.  0.
    3000001    1    3    3    0    0 -0.23364053754E+02  0.11169199781E+02  0.11600343399E+02  0.28393626019E+02  0.10000000000E+01 0.  1.
    1000022    2    1    0    0    0 -0.56096050528E+02  0.17553844271E+02  0.18744213380E+02  0.62499998880E+02  0.99999995635E+01 0.  0.
    3000022    2    3    3    0    0 -0.32731996774E+02  0.63846444903E+01  0.71438699809E+01  0.34106372861E+02  0.24998665405E+00 0.  0.
    1000022    2    1    0    0    0  0.56096050528E+02 -0.17553844271E+02 -0.18744213380E+02  0.62500001120E+02  0.10000013560E+02 0.  0.
    3000022    2    5    5    0    0  0.20162022334E+02 -0.11336429321E+02 -0.78172300479E+01  0.24417070617E+02  0.24995512565E+00 0.  0.
        -13    1    4    4    0    0 -0.17965794319E+02  0.35707874604E+01  0.39381843440E+01  0.18736077752E+02  0.10500000000E+00 0.  1.
         13    1    4    4    0    0 -0.14766202455E+02  0.28138570299E+01  0.32056856369E+01  0.15370295109E+02  0.10500000000E+00 0. -1.
    3000001    1    5    5    0    0  0.35934028194E+02 -0.62174149501E+01 -0.10926983332E+02  0.38082930502E+02  0.10000000000E+01 0.  1.
        -13    1    6    6    0    0  0.15321573957E+02 -0.86342597825E+01 -0.59344531906E+01  0.18561514760E+02  0.10500000000E+00 0. -1.
         13    1    6    6    0    0  0.48404483773E+01 -0.27021695385E+01 -0.18827768573E+01  0.58555558577E+01  0.10500000000E+00 0.  1.
</event>
<event>
11    0  0.3482988E-009  0.9118800E+02  0.7816531E-02  0.1126479E+00
         25   -1    0    0    0    0  0.00000000000E+00  0.00000000000E+00  0.99999998245E-14  0.12500000000E+03  0.12500000000E+03 0.  0.
    3000001    1    3    3    0    0  0.28150006977E+02 -0.12255778627E+02  0.44045644275E+02  0.53699588287E+02  0.10000000000E+01 0.  1.
    1000022    2    1    0    0    0  0.29855001336E+02 -0.17032968320E+02  0.51232865739E+02  0.62499997385E+02  0.10000001340E+02 0.  0.
    3000022    2    3    3    0    0  0.17049943594E+01 -0.47771896933E+01  0.71872214632E+01  0.88004090984E+01  0.25000161420E+00 0.  0.
    1000022    2    1    0    0    0 -0.29855001336E+02  0.17032968320E+02 -0.51232865739E+02  0.62500002615E+02  0.10000034022E+02 0.  0.
    3000022    2    5    5    0    0 -0.10389697548E+02  0.98173263965E+01 -0.27187662206E+02  0.30717376026E+02  0.25000194982E+00 0.  0.
        -13    1    4    4    0    0  0.68537978332E+00 -0.20982497275E+01  0.30798743955E+01  0.37906528010E+01  0.10500000000E+00 0.  1.
         13    1    4    4    0    0  0.10196145761E+01 -0.26789399659E+01  0.41073470677E+01  0.50097562974E+01  0.10500000000E+00 0. -1.
    3000001    1    5    5    0    0 -0.19465303789E+02  0.72156419238E+01 -0.24045203532E+02  0.31782626589E+02  0.10000000000E+01 0.  1.
        -13    1    6    6    0    0 -0.39574156482E+01  0.38238796802E+01 -0.10470734023E+02  0.11829221885E+02  0.10500000000E+00 0. -1.
         13    1    6    6    0    0 -0.64322818994E+01  0.59934467163E+01 -0.16716928183E+02  0.18888154141E+02  0.10500000000E+00 0.  1.
</event>
<event>
11    0  0.3482988E-009  0.9118800E+02  0.7816531E-02  0.1126479E+00
         25   -1    0    0    0    0  0.00000000000E+00  0.00000000000E+00  0.99999998245E-14  0.12500000000E+03  0.12500000000E+03 0.  0.
    3000001    1    3    3    0    0 -0.39581241182E+02  0.52150196245E+01  0.47736916971E+01  0.40220134456E+02  0.10000000000E+01 0.  1.
    1000022    2    1    0    0    0 -0.59301353942E+02  0.90841962117E+01  0.14390158537E+02  0.62499997937E+02  0.99999939613E+01 0.  0.
    3000022    2    3    3    0    0 -0.19720112760E+02  0.38691765873E+01  0.96164668401E+01  0.22279863481E+02  0.25001507647E+00 0.  0.
    1000022    2    1    0    0    0  0.59301353942E+02 -0.90841962117E+01 -0.14390158537E+02  0.62500002063E+02  0.10000019750E+02 0.  0.
    3000022    2    5    5    0    0  0.28619265103E+02 -0.62347483594E+01 -0.22927873880E+01  0.29381180869E+02  0.24998618386E+00 0.  0.
        -13    1    4    4    0    0 -0.10840165946E+02  0.21394242358E+01  0.52146059543E+01  0.12218407182E+02  0.10500000000E+00 0.  1.
         13    1    4    4    0    0 -0.88799468138E+01  0.17297523515E+01  0.44018608858E+01  0.10061456300E+02  0.10500000000E+00 0. -1.
    3000001    1    5    5    0    0  0.30682088839E+02 -0.28494478523E+01 -0.12097371149E+02  0.33118821194E+02  0.10000000000E+01 0.  1.
        -13    1    6    6    0    0  0.18880748325E+02 -0.40996505109E+01 -0.15657176604E+01  0.19384331002E+02  0.10500000000E+00 0. -1.
         13    1    6    6    0    0  0.97385167783E+01 -0.21350978485E+01 -0.72706972756E+00  0.99968498665E+01  0.10500000000E+00 0.  1.
</event>
<event>
11    0  0.3482988E-009  0.9118800E+02  0.7816531E-02  0.1126479E+00
         25   -1    0    0    0    0  0.00000000000E+00  0.00000000000E+00  0.99999998245E-14  0.12500000000E+03  0.12500000000E+03 0.  0.
    3000001    1    3    3    0    0  0.47037829070E+01  0.77207505900E+01 -0.57816457793E+01  0.10777893636E+02  0.10000000000E+01 0.  1.
    1000022    2    1    0    0    0  0.84328612762E+01  0.43200973258E+02 -0.43229766195E+02  0.62500001577E+02  0.10000013602E+02 0.  0.
    3000022    2    3    3    0    0  0.37290783693E+01  0.35480222668E+02 -0.37448120416E+02  0.51722107941E+02  0.25000219422E+00 0.  0.
    1000022    2    1    0    0    0 -0.84328612762E+01 -0.43200973258E+02  0.43229766195E+02  0.62499998423E+02  0.99999938945E+01 0.  0.
    3000022    2    5    5    0    0 -0.17305799987E+01 -0.87840110033E+01  0.15014063558E+02  0.17482515814E+02  0.24999646558E+00 0.  0.
        -13    1    4    4    0    0  0.24473138947E+01  0.22736152901E+02 -0.23991324086E+02  0.33143878023E+02  0.10500000000E+00 0. -1.
         13    1    4    4    0    0  0.12817644746E+01  0.12744069767E+02 -0.13456796330E+02  0.18578229917E+02  0.10500000000E+00 0.  1.
    3000001    1    5    5    0    0 -0.67022812775E+01 -0.34416962255E+02  0.28215702637E+02  0.45017482609E+02  0.10000000000E+01 0.  1.
        -13    1    6    6    0    0 -0.13106905699E+01 -0.66790751401E+01  0.11447670351E+02  0.13318713750E+02  0.10500000000E+00 0. -1.
         13    1    6    6    0    0 -0.41988942881E+00 -0.21049358632E+01  0.35663932065E+01  0.41638020635E+01  0.10500000000E+00 0.  1.
</event>
<event>
11    0  0.3482988E-009  0.9118800E+02  0.7816531E-02  0.1126479E+00
         25   -1    0    0    0    0  0.00000000000E+00  0.00000000000E+00  0.99999998245E-14  0.12500000000E+03  0.12500000000E+03 0.  0.
    3000001    1    3    3    0    0  0.34437045719E+02 -0.29631112146E+02 -0.41359999144E+02  0.61445605653E+02  0.10000000000E+01 0. -1.
    1000022    2    1    0    0    0  0.34421387561E+02 -0.30605734096E+02 -0.41045182920E+02  0.62500001768E+02  0.10000014947E+02 0.  0.
    3000022    2    3    3    0    0 -0.15658158259E-01 -0.97462194978E+00  0.31481622394E+00  0.10543961154E+01  0.25001758014E+00 0.  0.
    1000022    2    1    0    0    0 -0.34421387561E+02  0.30605734096E+02  0.41045182920E+02  0.62499998232E+02  0.99999928463E+01 0.  0.
    3000022    2    5    5    0    0 -0.67230796395E+01  0.74146212664E+01  0.14666079315E+02  0.17757612478E+02  0.25002015628E+00 0.  0.
        -13    1    4    4    0    0 -0.70044944921E-01 -0.61201520742E+00  0.19385393147E+00  0.65427307385E+00  0.10500000000E+00 0.  1.
         13    1    4    4    0    0  0.54386786661E-01 -0.36260674236E+00  0.12096229247E+00  0.40012304154E+00  0.10500000000E+00 0. -1.
    3000001    1    5    5    0    0 -0.27698307921E+02  0.23191112829E+02  0.26379103605E+02  0.44742385754E+02  0.10000000000E+01 0. -1.
        -13    1    6    6    0    0 -0.24969269340E+01  0.27714910167E+01  0.53631809111E+01  0.65337998940E+01  0.10500000000E+00 0.  1.
         13    1    6    6    0    0 -0.42261527055E+01  0.46431302497E+01  0.93028984043E+01  0.11223812584E+02  0.10500000000E+00 0. -1.
</event>
<event>
11    0  0.3482988E-009  0.9118800E+02  0.7816531E-02  0.1126479E+00
         25   -1    0    0    0    0  0.00000000000E+00  0.00000000000E+00  0.99999998245E-14  0.12500000000E+03  0.12500000000E+03 0.  0.
    3000001    1    3    3    0    0  0.52883644606E+01 -0.57060260463E+01 -0.27084972072E+02  0.28197894319E+02  0.10000000000E+01 0. -1.
    1000022    2    1    0    0    0  0.14056806558E+02 -0.20002311891E+01 -0.60038780478E+02  0.62500000225E+02  0.10000006568E+02 0.  0.
    3000022    2    3    3    0    0  0.87684420975E+01  0.37057948572E+01 -0.32953808406E+02  0.34302105905E+02  0.24997744213E+00 0.  0.
    1000022    2    1    0    0    0 -0.14056806558E+02  0.20002311891E+01  0.60038780478E+02  0.62499999775E+02  0.10000003759E+02 0.  0.
    3000022    2    5    5    0    0 -0.11061547246E+02  0.61731563031E+00  0.25683477895E+02  0.27972172601E+02  0.24999435457E+00 0.  0.
        -13    1    4    4    0    0  0.50778496788E+01  0.22043421301E+01 -0.19290257955E+02  0.20069099595E+02  0.10500000000E+00 0.  1.
         13    1    4    4    0    0  0.36905924187E+01  0.15014527271E+01 -0.13663550451E+02  0.14233006310E+02  0.10500000000E+00 0. -1.
    3000001    1    5    5    0    0 -0.29952593121E+01  0.13829155588E+01  0.34355302583E+02  0.34527827174E+02  0.10000000000E+01 0. -1.
        -13    1    6    6    0    0 -0.59923838351E+01  0.27723032055E+00  0.13817023750E+02  0.15063422287E+02  0.10500000000E+00 0.  1.
         13    1    6    6    0    0 -0.50691634109E+01  0.34008530976E+00  0.11866454145E+02  0.12908750315E+02  0.10500000000E+00 0. -1.
</event>
<event>
11    0  0.3482988E-009  0.9118800E+02  0.7816531E-02  0.1126479E+00
         25   -1    0    0    0    0  0.00000000000E+00  0.00000000000E+00  0.99999998245E-14  0.12500000000E+03  0.12500000000E+03 0.  0.
    3000001    1    3    3    0    0 -0.38502241957E+02  0.27835031972E+02  0.72917489747E+01  0.48076826473E+02  0.10000000000E+01 0. -1.
    1000022    2    1    0    0    0 -0.48923763564E+02  0.37340383484E+02  0.42908163024E+01  0.62499999492E+02  0.99999975942E+01 0.  0.
    3000022    2    3    3    0    0 -0.10421521607E+02  0.95053515126E+01 -0.30009326723E+01  0.14423173019E+02  0.25000608682E+00 0.  0.
    1000022    2    1    0    0    0  0.48923763564E+02 -0.37340383484E+02 -0.42908163024E+01  0.62500000508E+02  0.10000003950E+02 0.  0.
    3000022    2    5    5    0    0  0.10730694785E+01  0.50971971156E+00  0.45559144743E+00  0.12966703464E+01  0.24999626065E+00 0.  0.
        -13    1    4    4    0    0 -0.64074897211E+01  0.58205119014E+01 -0.19019372272E+01  0.88635587399E+01  0.10500000000E+00 0.  1.
         13    1    4    4    0    0 -0.40140318856E+01  0.36848396112E+01 -0.10989954451E+01  0.55596142786E+01  0.10500000000E+00 0. -1.
    3000001    1    5    5    0    0  0.47850694085E+02 -0.37850103196E+02 -0.47464077498E+01  0.61203330162E+02  0.10000000000E+01 0. -1.
        -13    1    6    6    0    0  0.64439825436E+00  0.24635481273E+00  0.22350941972E+00  0.73274911441E+00  0.10500000000E+00 0.  1.
         13    1    6    6    0    0  0.42867122410E+00  0.26336489883E+00  0.23208202771E+00  0.56392123200E+00  0.10500000000E+00 0. -1.
</event>
<event>
11    0  0.3482988E-009  0.9118800E+02  0.7816531E-02  0.1126479E+00
         25   -1    0    0    0    0  0.00000000000E+00  0.00000000000E+00  0.99999998245E-14  0.12500000000E+03  0.12500000000E+03 0.  0.
    3000001    1    3    3    0    0 -0.15169250704E+02  0.15124270251E+02  0.22843209967E+02  0.31331485109E+02  0.10000000000E+01 0.  1.
    1000022    2    1    0    0    0 -0.21225791982E+02  0.33876139958E+02  0.46990666028E+02  0.62500001796E+02  0.10000021353E+02 0.  0.
    3000022    2    3    3    0    0 -0.60565412779E+01  0.18751869707E+02  0.24147456061E+02  0.31168516687E+02  0.24997699632E+00 0.  0.
    1000022    2    1    0    0    0  0.21225791982E+02 -0.33876139958E+02 -0.46990666028E+02  0.62499998204E+02  0.99999989019E+01 0.  0.
    3000022    2    5    5    0    0  0.18433953332E+02 -0.28951847854E+02 -0.34085776403E+02  0.48372748224E+02  0.24997621716E+00 0.  0.
        -13    1    4    4    0    0 -0.37963687023E+01  0.11865658536E+02  0.15342069456E+02  0.19763511530E+02  0.10500000000E+00 0.  1.
         13    1    4    4    0    0 -0.22601725756E+01  0.68862111712E+01  0.88053866051E+01  0.11405005157E+02  0.10500000000E+00 0. -1.
    3000001    1    5    5    0    0  0.27918386497E+01 -0.49242921039E+01 -0.12904889625E+02  0.14127249980E+02  0.10000000000E+01 0. -1.
        -13    1    6    6    0    0  0.10841512543E+02 -0.16944668079E+02 -0.20042848948E+02  0.28396953877E+02  0.10500000000E+00 0. -1.
         13    1    6    6    0    0  0.75924407897E+01 -0.12007179775E+02 -0.14042927455E+02  0.19975794347E+02  0.10500000000E+00 0.  1.
</event>
<event>
11    0  0.3482988E-009  0.9118800E+02  0.7816531E-02  0.1126479E+00
         25   -1    0    0    0    0  0.00000000000E+00  0.00000000000E+00  0.99999998245E-14  0.12500000000E+03  0.12500000000E+03 0.  0.
    3000001    1    3    3    0    0  0.72324425573E+01  0.35966335428E+00 -0.14398054702E+02  0.16147493994E+02  0.10000000000E+01 0. -1.
    1000022    2    1    0    0    0  0.40398357436E+02 -0.45213397117E+01 -0.46408837423E+02  0.62499999986E+02  0.10000000550E+02 0.  0.
    3000022    2    3    3    0    0  0.33165914879E+02 -0.48810030660E+01 -0.32010782721E+02  0.46352505992E+02  0.25000141175E+00 0.  0.
    1000022    2    1    0    0    0 -0.40398357436E+02  0.45213397117E+01  0.46408837423E+02  0.62500000014E+02  0.10000000726E+02 0.  0.
    3000022    2    5    5    0    0 -0.49162330056E-01 -0.92864059520E+00  0.36936803923E+00  0.10313692163E+01  0.24999884436E+00 0.  0.
        -13    1    4    4    0    0  0.20968938695E+02 -0.31244040727E+01 -0.20306468391E+02  0.29356804566E+02  0.10500000000E+00 0.  1.
         13    1    4    4    0    0  0.12196976183E+02 -0.17565989933E+01 -0.11704314330E+02  0.16995701427E+02  0.10500000000E+00 0. -1.
    3000001    1    5    5    0    0 -0.40349195106E+02  0.54499803069E+01  0.46039469384E+02  0.61468630798E+02  0.10000000000E+01 0.  1.
        -13    1    6    6    0    0 -0.34722795028E-01 -0.70089097146E+00  0.24180489597E+00  0.74963219920E+00  0.10500000000E+00 0.  1.
         13    1    6    6    0    0 -0.14439535028E-01 -0.22774962374E+00  0.12756314325E+00  0.28173701710E+00  0.10500000000E+00 0. -1.
</event>
<event>
11    0  0.3482988E-009  0.9118800E+02  0.7816531E-02  0.1126479E+00
         25   -1    0    0    0    0  0.00000000000E+00  0.00000000000E+00  0.99999998245E-14  0.12500000000E+03  0.12500000000E+03 0.  0.
    3000001    1    3    3    0    0 -0.46971166780E+01  0.31557407624E+02 -0.26848576970E+02  0.41710657707E+02  0.10000000000E+01 0. -1.
    1000022    2    1    0    0    0 -0.12909774550E+02  0.48039195532E+02 -0.36494156229E+02  0.62500000247E+02  0.10000000287E+02 0.  0.
    3000022    2    3    3    0    0 -0.82126578716E+01  0.16481787907E+02 -0.96455792593E+01  0.20789342540E+02  0.24996410735E+00 0.  0.
    1000022    2    1    0    0    0  0.12909774550E+02 -0.48039195532E+02  0.36494156229E+02  0.62499999753E+02  0.99999972007E+01 0.  0.
    3000022    2    5    5    0    0  0.81476973640E+01 -0.42484711322E+02  0.29775003628E+02  0.52516178559E+02  0.25000188330E+00 0.  0.
        -13    1    4    4    0    0 -0.52834138513E+01  0.10472179944E+02 -0.61397779442E+01  0.13239671934E+02  0.10500000000E+00 0.  1.
         13    1    4    4    0    0 -0.29292440203E+01  0.60096079628E+01 -0.35058013151E+01  0.75496706060E+01  0.10500000000E+00 0. -1.
    3000001    1    5    5    0    0  0.47620771856E+01 -0.55544842091E+01  0.67191526010E+01  0.99838211937E+01  0.10000000000E+01 0. -1.
        -13    1    6    6    0    0  0.38999513220E+01 -0.20113105433E+02  0.14037391274E+02  0.24835579503E+02  0.10500000000E+00 0. -1.
         13    1    6    6    0    0  0.42477460419E+01 -0.22371605889E+02  0.15737612354E+02  0.27680599056E+02  0.10500000000E+00 0.  1.
</event>
<event>
11    0  0.3482988E-009  0.9118800E+02  0.7816531E-02  0.1126479E+00
         25   -1    0    0    0    0  0.00000000000E+00  0.00000000000E+00  0.99999998245E-14  0.12500000000E+03  0.12500000000E+03 0.  0.
    3000001    1    3    3    0    0  0.17399036861E+02  0.21530382171E+02 -0.40887619114E+02  0.49387055358E+02  0.10000000000E+01 0. -1.
    1000022    2    1    0    0    0  0.23019058838E+02  0.30824205493E+02 -0.48231122135E+02  0.62500000808E+02  0.10000012222E+02 0.  0.
    3000022    2    3    3    0    0  0.56200219774E+01  0.92938233218E+01 -0.73435030217E+01  0.13112945450E+02  0.25000555533E+00 0.  0.
    1000022    2    1    0    0    0 -0.23019058838E+02 -0.30824205493E+02  0.48231122135E+02  0.62499999192E+02  0.10000002127E+02 0.  0.
    3000022    2    5    5    0    0 -0.19433655312E+02 -0.29505486023E+02  0.39992600638E+02  0.53363951034E+02  0.24999994471E+00 0.  0.
        -13    1    4    4    0    0  0.20193158048E+01  0.33314541019E+01 -0.25648407953E+01  0.46653677301E+01  0.10500000000E+00 0.  1.
         13    1    4    4    0    0  0.36007061726E+01  0.59623692199E+01 -0.47786622264E+01  0.84475777197E+01  0.10500000000E+00 0. -1.
    3000001    1    5    5    0    0 -0.35854035266E+01 -0.13187194703E+01  0.82385214971E+01  0.91360481581E+01  0.10000000000E+01 0.  1.
        -13    1    6    6    0    0 -0.90860810567E+01 -0.13849215675E+02  0.18658212309E+02  0.24949900909E+02  0.10500000000E+00 0.  1.
         13    1    6    6    0    0 -0.10347574255E+02 -0.15656270348E+02  0.21334388329E+02  0.28414050125E+02  0.10500000000E+00 0. -1.
</event>
<event>
11    0  0.3482988E-009  0.9118800E+02  0.7816531E-02  0.1126479E+00
         25   -1    0    0    0    0  0.00000000000E+00  0.00000000000E+00  0.99999998245E-14  0.12500000000E+03  0.12500000000E+03 0.  0.
    3000001    1    3    3    0    0 -0.32899569605E+02 -0.98460185404E+01  0.23454230162E+02  0.41598397490E+02  0.10000000000E+01 0. -1.
    1000022    2    1    0    0    0 -0.52586514579E+02 -0.10780382848E+02  0.30408756962E+02  0.62499994982E+02  0.99999351480E+01 0.  0.
    3000022    2    3    3    0    0 -0.19686944973E+02 -0.93436430788E+00  0.69545268002E+01  0.20901597492E+02  0.24999130999E+00 0.  0.
    1000022    2    1    0    0    0  0.52586514579E+02  0.10780382848E+02 -0.30408756962E+02  0.62500005018E+02  0.99999978680E+01 0.  0.
    3000022    2    5    5    0    0  0.45617944893E+02  0.12073636770E+02 -0.28356620579E+02  0.55053883014E+02  0.25000617790E+00 0.  0.
        -13    1    4    4    0    0 -0.11955715777E+02 -0.62952060150E+00  0.42302694592E+01  0.12698095945E+02  0.10500000000E+00 0. -1.
         13    1    4    4    0    0 -0.77312291966E+01 -0.30484370637E+00  0.27242573410E+01  0.82035015473E+01  0.10500000000E+00 0.  1.
    3000001    1    5    5    0    0  0.69685696851E+01 -0.12932539213E+01 -0.20521363827E+01  0.74461220037E+01  0.10000000000E+01 0. -1.
        -13    1    6    6    0    0  0.32583286426E+02  0.85862769976E+01 -0.20224203372E+02  0.39299162001E+02  0.10500000000E+00 0. -1.
         13    1    6    6    0    0  0.13034658468E+02  0.34873597720E+01 -0.81324172072E+01  0.15754721013E+02  0.10500000000E+00 0.  1.
</event>
<event>
11    0  0.3482988E-009  0.9118800E+02  0.7816531E-02  0.1126479E+00
         25   -1    0    0    0    0  0.00000000000E+00  0.00000000000E+00  0.99999998245E-14  0.12500000000E+03  0.12500000000E+03 0.  0.
    3000001    1    3    3    0    0  0.37128347385E+02 -0.10344729704E+02  0.83159925016E+00  0.38564480672E+02  0.10000000000E+01 0. -1.
    1000022    2    1    0    0    0  0.59456165559E+02 -0.15226971432E+02 -0.62732451257E+01  0.62499999516E+02  0.10000002656E+02 0.  0.
    3000022    2    3    3    0    0  0.22327818173E+02 -0.48822417279E+01 -0.71048443759E+01  0.23935518843E+02  0.25000003401E+00 0.  0.
    1000022    2    1    0    0    0 -0.59456165559E+02  0.15226971432E+02  0.62732451257E+01  0.62500000484E+02  0.10000008712E+02 0.  0.
    3000022    2    5    5    0    0 -0.53266841330E+02  0.15102334953E+02  0.30540074419E+01  0.55451116890E+02  0.24999324648E+00 0.  0.
        -13    1    4    4    0    0  0.76353397819E+01 -0.17177750721E+01 -0.24631028986E+01  0.82053071650E+01  0.10500000000E+00 0.  1.
         13    1    4    4    0    0  0.14692478391E+02 -0.31644666558E+01 -0.46417414773E+01  0.15730211678E+02  0.10500000000E+00 0. -1.
    3000001    1    5    5    0    0 -0.61893242287E+01  0.12463647878E+00  0.32192376838E+01  0.70488835942E+01  0.10000000000E+01 0. -1.
        -13    1    6    6    0    0 -0.17720814096E+02  0.49837760641E+01  0.10519261558E+01  0.18438623857E+02  0.10500000000E+00 0.  1.
         13    1    6    6    0    0 -0.35546027234E+02  0.10118558889E+02  0.20020812862E+01  0.37012493034E+02  0.10500000000E+00 0. -1.
</event>
<event>
11    0  0.3482988E-009  0.9118800E+02  0.7816531E-02  0.1126479E+00
         25   -1    0    0    0    0  0.00000000000E+00  0.00000000000E+00  0.99999998245E-14  0.12500000000E+03  0.12500000000E+03 0.  0.
    3000001    1    3    3    0    0  0.53440442350E+02 -0.10743501922E+02 -0.54742702092E+01  0.54792986288E+02  0.10000000000E+01 0. -1.
    1000022    2    1    0    0    0  0.59524045337E+02 -0.13096678247E+02 -0.95715773370E+01  0.62500000867E+02  0.10000003062E+02 0.  0.
    3000022    2    3    3    0    0  0.60836029871E+01 -0.23531763245E+01 -0.40973071279E+01  0.77070145781E+01  0.24996777337E+00 0.  0.
    1000022    2    1    0    0    0 -0.59524045337E+02  0.13096678247E+02  0.95715773370E+01  0.62499999133E+02  0.99999922308E+01 0.  0.
    3000022    2    5    5    0    0 -0.15096812781E+02  0.70902570313E+01  0.50584626148E+01  0.17430893386E+02  0.24999858941E+00 0.  0.
        -13    1    4    4    0    0  0.32007984877E+01 -0.13058981387E+01 -0.21983766334E+01  0.40980929382E+01  0.10500000000E+00 0. -1.
         13    1    4    4    0    0  0.28828044994E+01 -0.10472781858E+01 -0.18989304945E+01  0.36089216399E+01  0.10500000000E+00 0.  1.
    3000001    1    5    5    0    0 -0.44427232556E+02  0.60064212156E+01  0.45131147222E+01  0.45069105748E+02  0.10000000000E+01 0.  1.
        -13    1    6    6    0    0 -0.47626648747E+01  0.22833412263E+01  0.15738962301E+01  0.55122407610E+01  0.10500000000E+00 0. -1.
         13    1    6    6    0    0 -0.10334147906E+02  0.48069158050E+01  0.34845663847E+01  0.11918652625E+02  0.10500000000E+00 0.  1.
</event>
<event>
11    0  0.3482988E-009  0.9118800E+02  0.7816531E-02  0.1126479E+00
         25   -1    0    0    0    0  0.00000000000E+00  0.00000000000E+00  0.99999998245E-14  0.12500000000E+03  0.12500000000E+03 0.  0.
    3000001    1    3    3    0    0 -0.12676948556E+01 -0.82907921593E+01 -0.85080566126E+01  0.11988799448E+02  0.10000000000E+01 0. -1.
    1000022    2    1    0    0    0 -0.25700926705E+02 -0.38728146931E+02 -0.40568991186E+02  0.62500000310E+02  0.99999997380E+01 0.  0.
    3000022    2    3    3    0    0 -0.24433231849E+02 -0.30437354771E+02 -0.32060934573E+02  0.50511200862E+02  0.25000555076E+00 0.  0.
    1000022    2    1    0    0    0  0.25700926705E+02  0.38728146931E+02  0.40568991186E+02  0.62499999690E+02  0.99999958625E+01 0.  0.
    3000022    2    5    5    0    0 -0.51382314069E+00  0.20128816004E+01  0.49589084472E+00  0.21503750957E+01  0.24999752998E+00 0.  0.
        -13    1    4    4    0    0 -0.93269425152E+01 -0.11555776383E+02 -0.12138448807E+02  0.19180218688E+02  0.10500000000E+00 0. -1.
         13    1    4    4    0    0 -0.15106289334E+02 -0.18881578389E+02 -0.19922485766E+02  0.31330982174E+02  0.10500000000E+00 0.  1.
    3000001    1    5    5    0    0  0.26214749845E+02  0.36715265330E+02  0.40073100341E+02  0.60349624594E+02  0.10000000000E+01 0.  1.
        -13    1    6    6    0    0 -0.27396903532E+00  0.13044598574E+01  0.32738475280E+00  0.13765465224E+01  0.10500000000E+00 0.  1.
         13    1    6    6    0    0 -0.23985410537E+00  0.70842174299E+00  0.16850609192E+00  0.77382857328E+00  0.10500000000E+00 0. -1.
</event>
<event>
11    0  0.3482988E-009  0.9118800E+02  0.7816531E-02  0.1126479E+00
         25   -1    0    0    0    0  0.00000000000E+00  0.00000000000E+00  0.99999998245E-14  0.12500000000E+03  0.12500000000E+03 0.  0.
    3000001    1    3    3    0    0 -0.39049264425E+01  0.13861080550E+02  0.29179742899E+02  0.32555113273E+02  0.10000000000E+01 0. -1.
    1000022    2    1    0    0    0 -0.15318682510E+01  0.32907140642E+02  0.52163431210E+02  0.62499999981E+02  0.99999958241E+01 0.  0.
    3000022    2    3    3    0    0  0.23730581914E+01  0.19046060091E+02  0.22983688311E+02  0.29944886709E+02  0.25000283933E+00 0.  0.
    1000022    2    1    0    0    0  0.15318682510E+01 -0.32907140642E+02 -0.52163431210E+02  0.62500000019E+02  0.99999960584E+01 0.  0.
    3000022    2    5    5    0    0  0.48133285062E+01 -0.16438904494E+02 -0.31482823305E+02  0.35841824415E+02  0.25000366037E+00 0.  0.
        -13    1    4    4    0    0  0.14000000838E+01  0.10789254550E+02  0.13083336073E+02  0.17016248757E+02  0.10500000000E+00 0.  1.
         13    1    4    4    0    0  0.97305810761E+00  0.82568055417E+01  0.99003522382E+01  0.12928637951E+02  0.10500000000E+00 0. -1.
    3000001    1    5    5    0    0 -0.32814602552E+01 -0.16468236147E+02 -0.20680607905E+02  0.26658175604E+02  0.10000000000E+01 0. -1.
        -13    1    6    6    0    0  0.27735803670E+01 -0.96547423473E+01 -0.18543456653E+02  0.21089751243E+02  0.10500000000E+00 0. -1.
         13    1    6    6    0    0  0.20397481392E+01 -0.67841621471E+01 -0.12939366652E+02  0.14752073172E+02  0.10500000000E+00 0.  1.
</event>
<event>
11    0  0.3482988E-009  0.9118800E+02  0.7816531E-02  0.1126479E+00
         25   -1    0    0    0    0  0.00000000000E+00  0.00000000000E+00  0.99999998245E-14  0.12500000000E+03  0.12500000000E+03 0.  0.
    3000001    1    3    3    0    0  0.12593303029E+01  0.17114092578E+01 -0.22177361294E+01  0.32300445816E+01  0.10000000000E+01 0. -1.
    1000022    2    1    0    0    0 -0.13454490904E+02  0.33812780673E+02 -0.49818896874E+02  0.62499999827E+02  0.10000001513E+02 0.  0.
    3000022    2    3    3    0    0 -0.14713821207E+02  0.32101371416E+02 -0.47601160745E+02  0.59269955245E+02  0.25001853118E+00 0.  0.
    1000022    2    1    0    0    0  0.13454490904E+02 -0.33812780673E+02  0.49818896874E+02  0.62500000173E+02  0.10000003677E+02 0.  0.
    3000022    2    5    5    0    0  0.12746649122E+02 -0.33499022652E+02  0.45066678199E+02  0.57582372044E+02  0.25000755968E+00 0.  0.
        -13    1    4    4    0    0 -0.90502163356E+01  0.19630120762E+02 -0.29203163140E+02  0.36332957755E+02  0.10500000000E+00 0. -1.
         13    1    4    4    0    0 -0.56636048715E+01  0.12471250654E+02 -0.18397997604E+02  0.22936997490E+02  0.10500000000E+00 0.  1.
    3000001    1    5    5    0    0  0.70784178177E+00 -0.31375802103E+00  0.47522186747E+01  0.49176281290E+01  0.10000000000E+01 0.  1.
        -13    1    6    6    0    0  0.64052944868E+01 -0.16862077700E+02  0.22787646617E+02  0.29062782475E+02  0.10500000000E+00 0. -1.
         13    1    6    6    0    0  0.63413546357E+01 -0.16636944952E+02  0.22279031582E+02  0.28519589569E+02  0.10500000000E+00 0.  1.
</event>
<event>
11    0  0.3482988E-009  0.9118800E+02  0.7816531E-02  0.1126479E+00
         25   -1    0    0    0    0  0.00000000000E+00  0.00000000000E+00  0.99999998245E-14  0.12500000000E+03  0.12500000000E+03 0.  0.
    3000001    1    3    3    0    0  0.14779934323E+02  0.18162618323E+02  0.22740981995E+01  0.23547795769E+02  0.10000000000E+01 0.  1.
    1000022    2    1    0    0    0  0.45657898864E+02  0.41414957913E+02 -0.25312752250E+01  0.62499998573E+02  0.99999999860E+01 0.  0.
    3000022    2    3    3    0    0  0.30877964541E+02  0.23252339590E+02 -0.48053734245E+01  0.38952202804E+02  0.24999789486E+00 0.  0.
    1000022    2    1    0    0    0 -0.45657898864E+02 -0.41414957913E+02  0.25312752250E+01  0.62500001427E+02  0.10000017822E+02 0.  0.
    3000022    2    5    5    0    0 -0.44181530773E+02 -0.36824637424E+02  0.20628881375E+01  0.57553276106E+02  0.25000045500E+00 0.  0.
        -13    1    4    4    0    0  0.19226812942E+02  0.14409059602E+02 -0.29623927111E+01  0.24209050582E+02  0.10500000000E+00 0.  1.
         13    1    4    4    0    0  0.11651151599E+02  0.88432799879E+01 -0.18429807134E+01  0.14743152222E+02  0.10500000000E+00 0. -1.
    3000001    1    5    5    0    0 -0.14763680915E+01 -0.45903204895E+01  0.46838708743E+00  0.49467253210E+01  0.10000000000E+01 0. -1.
        -13    1    6    6    0    0 -0.18863087594E+02 -0.15797100664E+02  0.85154741991E+00  0.24619110889E+02  0.10500000000E+00 0.  1.
         13    1    6    6    0    0 -0.25318443179E+02 -0.21027536760E+02  0.12113407176E+01  0.32934165217E+02  0.10500000000E+00 0. -1.
</event>
<event>
11    0  0.3482988E-009  0.9118800E+02  0.7816531E-02  0.1126479E+00
         25   -1    0    0    0    0  0.00000000000E+00  0.00000000000E+00  0.99999998245E-14  0.12500000000E+03  0.12500000000E+03 0.  0.
    3000001    1    3    3    0    0 -0.13491987580E+02 -0.37397940443E+02 -0.33407476446E+02  0.51939379673E+02  0.10000000000E+01 0. -1.
    1000022    2    1    0    0    0 -0.11934394192E+02 -0.45943976214E+02 -0.39407757898E+02  0.62500000477E+02  0.99999981019E+01 0.  0.
    3000022    2    3    3    0    0  0.15575933878E+01 -0.85460357701E+01 -0.60002814514E+01  0.10560620804E+02  0.25001945609E+00 0.  0.
    1000022    2    1    0    0    0  0.11934394192E+02  0.45943976214E+02  0.39407757898E+02  0.62499999523E+02  0.99999921416E+01 0.  0.
    3000022    2    5    5    0    0  0.22703941910E+01  0.28047977452E+02  0.22354512038E+02  0.35939260413E+02  0.25000338357E+00 0.  0.
        -13    1    4    4    0    0  0.81255660016E+00 -0.46012483062E+01 -0.31517250837E+01  0.56370320388E+01  0.10500000000E+00 0. -1.
         13    1    4    4    0    0  0.74503678767E+00 -0.39447874640E+01 -0.28485563678E+01  0.49235887654E+01  0.10500000000E+00 0.  1.
    3000001    1    5    5    0    0  0.96640000011E+01  0.17895998762E+02  0.17053245860E+02  0.26560739110E+02  0.10000000000E+01 0.  1.
        -13    1    6    6    0    0  0.80221508947E+00  0.10040029223E+02  0.80741576033E+01  0.12909251793E+02  0.10500000000E+00 0.  1.
         13    1    6    6    0    0  0.14681791015E+01  0.18007948229E+02  0.14280354434E+02  0.23030008621E+02  0.10500000000E+00 0. -1.
</event>
<event>
11    0  0.3482988E-009  0.9118800E+02  0.7816531E-02  0.1126479E+00
         25   -1    0    0    0    0  0.00000000000E+00  0.00000000000E+00  0.99999998245E-14  0.12500000000E+03  0.12500000000E+03 0.  0.
    3000001    1    3    3    0    0 -0.26383230045E+02  0.17090028591E+02 -0.18745829432E+02  0.36613522447E+02  0.10000000000E+01 0.  1.
    1000022    2    1    0    0    0 -0.39033405664E+02  0.29253785968E+02 -0.37773790222E+02  0.62500000200E+02  0.10000002303E+02 0.  0.
    3000022    2    3    3    0    0 -0.12650175619E+02  0.12163757377E+02 -0.19027960790E+02  0.25886477753E+02  0.25000386160E+00 0.  0.
    1000022    2    1    0    0    0  0.39033405664E+02 -0.29253785968E+02  0.37773790222E+02  0.62499999800E+02  0.99999998034E+01 0.  0.
    3000022    2    5    5    0    0  0.99984207315E+01 -0.65231694757E+01  0.14906016840E+02  0.19099005162E+02  0.25000598241E+00 0.  0.
        -13    1    4    4    0    0 -0.78769877843E+01  0.75017175750E+01 -0.11839619512E+02  0.16078256072E+02  0.10500000000E+00 0. -1.
         13    1    4    4    0    0 -0.47731878346E+01  0.46620398018E+01 -0.71883412777E+01  0.98082216810E+01  0.10500000000E+00 0.  1.
    3000001    1    5    5    0    0  0.29034984933E+02 -0.22730616492E+02  0.22867773382E+02  0.43400994638E+02  0.10000000000E+01 0. -1.
        -13    1    6    6    0    0  0.39551432726E+01 -0.25061865474E+01  0.58415553475E+01  0.74872507101E+01  0.10500000000E+00 0. -1.
         13    1    6    6    0    0  0.60432774589E+01 -0.40169829283E+01  0.90644614928E+01  0.11611754452E+02  0.10500000000E+00 0.  1.
</event>
<event>
11    0  0.3482988E-009  0.9118800E+02  0.7816531E-02  0.1126479E+00
         25   -1    0    0    0    0  0.00000000000E+00  0.00000000000E+00  0.99999998245E-14  0.12500000000E+03  0.12500000000E+03 0.  0.
    3000001    1    3    3    0    0 -0.10806188121E+02 -0.21992129095E+02  0.57459623794E+01  0.25188162448E+02  0.10000000000E+01 0. -1.
    1000022    2    1    0    0    0 -0.16161821087E+02 -0.56237568689E+02  0.19554575296E+02  0.62500000081E+02  0.10000000110E+02 0.  0.
    3000022    2    3    3    0    0 -0.53556329658E+01 -0.34245439595E+02  0.13808612917E+02  0.37311837633E+02  0.24999882284E+00 0.  0.
    1000022    2    1    0    0    0  0.16161821087E+02  0.56237568689E+02 -0.19554575296E+02  0.62499999919E+02  0.99999990956E+01 0.  0.
    3000022    2    5    5    0    0  0.11164076760E+02  0.50336907654E+02 -0.17241161863E+02  0.54366911285E+02  0.24999646540E+00 0.  0.
        -13    1    4    4    0    0 -0.22950800928E+01 -0.14899300206E+02  0.59453579855E+01  0.16205395578E+02  0.10500000000E+00 0. -1.
         13    1    4    4    0    0 -0.30605528730E+01 -0.19346139389E+02  0.78632549312E+01  0.21106442055E+02  0.10500000000E+00 0.  1.
    3000001    1    5    5    0    0  0.49977443268E+01  0.59006610351E+01 -0.23134134330E+01  0.81330886334E+01  0.10000000000E+01 0.  1.
        -13    1    6    6    0    0  0.75114250003E+01  0.34100848169E+02 -0.11686166926E+02  0.36822097629E+02  0.10500000000E+00 0. -1.
         13    1    6    6    0    0  0.36526517600E+01  0.16236059485E+02 -0.55549949369E+01  0.17544813656E+02  0.10500000000E+00 0.  1.
</event>
<event>
11    0  0.3482988E-009  0.9118800E+02  0.7816531E-02  0.1126479E+00
         25   -1    0    0    0    0  0.00000000000E+00  0.00000000000E+00  0.99999998245E-14  0.12500000000E+03  0.12500000000E+03 0.  0.
    3000001    1    3    3    0    0  0.13753240117E+02 -0.13250800447E+02 -0.29233450355E+02  0.34933221235E+02  0.10000000000E+01 0.  1.
    1000022    2    1    0    0    0  0.19506885153E+02 -0.30483817343E+02 -0.49964670538E+02  0.62500000141E+02  0.10000001371E+02 0.  0.
    3000022    2    3    3    0    0  0.57536450360E+01 -0.17233016896E+02 -0.20731220184E+02  0.27566778906E+02  0.25001281888E+00 0.  0.
    1000022    2    1    0    0    0 -0.19506885153E+02  0.30483817343E+02  0.49964670538E+02  0.62499999859E+02  0.99999996078E+01 0.  0.
    3000022    2    5    5    0    0 -0.19767283248E+02  0.25038279257E+02  0.40828885647E+02  0.51814296429E+02  0.24999218706E+00 0.  0.
        -13    1    4    4    0    0  0.39663554302E+01 -0.11786439535E+02 -0.14128874664E+02  0.18822546496E+02  0.10500000000E+00 0.  1.
         13    1    4    4    0    0  0.17872896057E+01 -0.54465773605E+01 -0.66023455197E+01  0.87442324100E+01  0.10500000000E+00 0. -1.
    3000001    1    5    5    0    0  0.26039809416E+00  0.54455380863E+01  0.91357848911E+01  0.10685703430E+02  0.10000000000E+01 0. -1.
        -13    1    6    6    0    0 -0.14035177916E+02  0.17846099547E+02  0.29059527147E+02  0.36877318655E+02  0.10500000000E+00 0. -1.
         13    1    6    6    0    0 -0.57321053315E+01  0.71921797096E+01  0.11769358500E+02  0.14936977774E+02  0.10500000000E+00 0.  1.
</event>
<event>
11    0  0.3482988E-009  0.9118800E+02  0.7816531E-02  0.1126479E+00
         25   -1    0    0    0    0  0.00000000000E+00  0.00000000000E+00  0.99999998245E-14  0.12500000000E+03  0.12500000000E+03 0.  0.
    3000001    1    3    3    0    0  0.77781812480E+01 -0.52671798321E+02 -0.21415698693E+02  0.57397304748E+02  0.10000000000E+01 0. -1.
    1000022    2    1    0    0    0  0.10107422785E+02 -0.57171775710E+02 -0.20868112354E+02  0.62500000940E+02  0.10000003557E+02 0.  0.
    3000022    2    3    3    0    0  0.23292415368E+01 -0.44999773889E+01  0.54758633864E+00  0.51026961918E+01  0.24998997980E+00 0.  0.
    1000022    2    1    0    0    0 -0.10107422785E+02  0.57171775710E+02  0.20868112354E+02  0.62499999060E+02  0.99999918031E+01 0.  0.
    3000022    2    5    5    0    0 -0.11969715877E+02  0.45471316969E+02  0.16880483938E+02  0.49959263408E+02  0.24999439383E+00 0.  0.
        -13    1    4    4    0    0  0.12631728543E+01 -0.24580221293E+01  0.36534619215E+00  0.27896202767E+01  0.10500000000E+00 0.  1.
         13    1    4    4    0    0  0.10660686825E+01 -0.20419552596E+01  0.18224014650E+00  0.23130759151E+01  0.10500000000E+00 0. -1.
    3000001    1    5    5    0    0  0.18622930919E+01  0.11700458741E+02  0.39876284164E+01  0.12540735652E+02  0.10000000000E+01 0. -1.
        -13    1    6    6    0    0 -0.90648740710E+01  0.34436864185E+02  0.12761175535E+02  0.37827611382E+02  0.10500000000E+00 0.  1.
         13    1    6    6    0    0 -0.29048418056E+01  0.11034452784E+02  0.41193084027E+01  0.12131652026E+02  0.10500000000E+00 0. -1.
</event>
<event>
11    0  0.3482988E-009  0.9118800E+02  0.7816531E-02  0.1126479E+00
         25   -1    0    0    0    0  0.00000000000E+00  0.00000000000E+00  0.99999998245E-14  0.12500000000E+03  0.12500000000E+03 0.  0.
    3000001    1    3    3    0    0 -0.35991060407E+02 -0.13441961802E+01 -0.13420239163E+02  0.38448226380E+02  0.10000000000E+01 0. -1.
    1000022    2    1    0    0    0 -0.54686216939E+02 -0.47466368697E+01 -0.28162688735E+02  0.62499999638E+02  0.10000001661E+02 0.  0.
    3000022    2    3    3    0    0 -0.18695156532E+02 -0.34024406895E+01 -0.14742449572E+02  0.24051773258E+02  0.24999405300E+00 0.  0.
    1000022    2    1    0    0    0  0.54686216939E+02  0.47466368697E+01  0.28162688735E+02  0.62500000362E+02  0.10000006190E+02 0.  0.
    3000022    2    5    5    0    0  0.15613505256E+02  0.32305924889E+01  0.37144224859E+01  0.16373078598E+02  0.24998833676E+00 0.  0.
        -13    1    4    4    0    0 -0.11417410911E+02 -0.20898825577E+01 -0.89278978825E+01  0.14643881542E+02  0.10500000000E+00 0. -1.
         13    1    4    4    0    0 -0.72777456215E+01 -0.13125581317E+01 -0.58145516899E+01  0.94078917158E+01  0.10500000000E+00 0.  1.
    3000001    1    5    5    0    0  0.39072711684E+02  0.15160443808E+01  0.24448266249E+02  0.46126921765E+02  0.10000000000E+01 0.  1.
        -13    1    6    6    0    0  0.10604423350E+02  0.21727110347E+01  0.25692868923E+01  0.11125948407E+02  0.10500000000E+00 0. -1.
         13    1    6    6    0    0  0.50090819057E+01  0.10578814542E+01  0.11451355936E+01  0.52471301906E+01  0.10500000000E+00 0.  1.
</event>
<event>
11    0  0.3482988E-009  0.9118800E+02  0.7816531E-02  0.1126479E+00
         25   -1    0    0    0    0  0.00000000000E+00  0.00000000000E+00  0.99999998245E-14  0.12500000000E+03  0.12500000000E+03 0.  0.
    3000001    1    3    3    0    0 -0.47513057693E+01 -0.99385100699E+01  0.12848357046E+02  0.16953736099E+02  0.10000000000E+01 0.  1.
    1000022    2    1    0    0    0 -0.26126133635E+01 -0.32915891605E+02  0.52114953264E+02  0.62499999873E+02  0.99999980862E+01 0.  0.
    3000022    2    3    3    0    0  0.21386924058E+01 -0.22977381535E+02  0.39266596218E+02  0.45546263775E+02  0.24999574175E+00 0.  0.
    1000022    2    1    0    0    0  0.26126133635E+01  0.32915891605E+02 -0.52114953264E+02  0.62500000127E+02  0.99999996694E+01 0.  0.
    3000022    2    5    5    0    0  0.58048185586E+01  0.14519144544E+02 -0.20730506843E+02  0.25967631553E+02  0.24999546454E+00 0.  0.
        -13    1    4    4    0    0  0.89055950659E+00 -0.92252152622E+01  0.15662825679E+02  0.18199802915E+02  0.10500000000E+00 0. -1.
         13    1    4    4    0    0  0.12481328992E+01 -0.13752166273E+02  0.23603770538E+02  0.27346460860E+02  0.10500000000E+00 0.  1.
    3000001    1    5    5    0    0 -0.31922051951E+01  0.18396747062E+02 -0.31384446420E+02  0.36532368573E+02  0.10000000000E+01 0.  1.
        -13    1    6    6    0    0  0.24641015536E+01  0.63329365856E+01 -0.90408625258E+01  0.11310442187E+02  0.10500000000E+00 0. -1.
         13    1    6    6    0    0  0.33407170050E+01  0.81862079582E+01 -0.11689644318E+02  0.14657189366E+02  0.10500000000E+00 0.  1.
</event>
<event>
11    0  0.3482988E-009  0.9118800E+02  0.7816531E-02  0.1126479E+00
         25   -1    0    0    0    0  0.00000000000E+00  0.00000000000E+00  0.99999998245E-14  0.12500000000E+03  0.12500000000E+03 0.  0.
    3000001    1    3    3    0    0 -0.24707411512E+02 -0.29406130726E+02 -0.45606008427E+02  0.59632916351E+02  0.10000000000E+01 0.  1.
    1000022    2    1    0    0    0 -0.27255621775E+02 -0.29396288457E+02 -0.46896046190E+02  0.62500001499E+02  0.10000017284E+02 0.  0.
    3000022    2    3    3    0    0 -0.25482102636E+01  0.98422690432E-02 -0.12900377629E+01  0.28670851476E+01  0.25001479169E+00 0.  0.
    1000022    2    1    0    0    0  0.27255621775E+02  0.29396288457E+02  0.46896046190E+02  0.62499998501E+02  0.99999985494E+01 0.  0.
    3000022    2    5    5    0    0  0.26468373617E+02  0.28430234314E+02  0.41373936872E+02  0.56751371571E+02  0.24999544596E+00 0.  0.
        -13    1    4    4    0    0 -0.89416719308E+00 -0.49167308997E-01 -0.43051827126E+00  0.99916133599E+00  0.10500000000E+00 0.  1.
         13    1    4    4    0    0 -0.16540430706E+01  0.59009578040E-01 -0.85951949161E+00  0.18679238116E+01  0.10500000000E+00 0. -1.
    3000001    1    5    5    0    0  0.78724815795E+00  0.96605414248E+00  0.55221093179E+01  0.57486269306E+01  0.10000000000E+01 0. -1.
        -13    1    6    6    0    0  0.19204358089E+02  0.20682452722E+02  0.30058479373E+02  0.41232201341E+02  0.10500000000E+00 0.  1.
         13    1    6    6    0    0  0.72640155282E+01  0.77477815923E+01  0.11315457500E+02  0.15519170230E+02  0.10500000000E+00 0. -1.
</event>
<event>
11    0  0.3482988E-009  0.9118800E+02  0.7816531E-02  0.1126479E+00
         25   -1    0    0    0    0  0.00000000000E+00  0.00000000000E+00  0.99999998245E-14  0.12500000000E+03  0.12500000000E+03 0.  0.
    3000001    1    3    3    0    0  0.21870394346E+00 -0.15899981187E+01 -0.25812506105E+01  0.31998093923E+01  0.10000000000E+01 0. -1.
    1000022    2    1    0    0    0 -0.15662738083E+02  0.67766115607E+00 -0.59669669341E+02  0.62499999388E+02  0.99999947656E+01 0.  0.
    3000022    2    3    3    0    0 -0.15881442027E+02  0.22676592748E+01 -0.57088418730E+02  0.59300189995E+02  0.25000187496E+00 0.  0.
    1000022    2    1    0    0    0  0.15662738083E+02 -0.67766115607E+00  0.59669669341E+02  0.62500000612E+02  0.10000002421E+02 0.  0.
    3000022    2    5    5    0    0  0.10052493643E+02  0.28770435128E+01  0.23650570018E+02  0.25860045864E+02  0.25000418357E+00 0.  0.
        -13    1    4    4    0    0 -0.39099707748E+01  0.57871889545E+00 -0.14020348592E+02  0.14567223025E+02  0.10500000000E+00 0. -1.
         13    1    4    4    0    0 -0.11971471252E+02  0.16889403793E+01 -0.43068070138E+02  0.44732966971E+02  0.10500000000E+00 0.  1.
    3000001    1    5    5    0    0  0.56102444406E+01 -0.35547046689E+01  0.36019099322E+02  0.36639954748E+02  0.10000000000E+01 0. -1.
        -13    1    6    6    0    0  0.27415992218E+01  0.81535404739E+00  0.65290312017E+01  0.71288457655E+01  0.10500000000E+00 0. -1.
         13    1    6    6    0    0  0.73108944209E+01  0.20616894655E+01  0.17121538817E+02  0.18731200099E+02  0.10500000000E+00 0.  1.
</event>
<event>
11    0  0.3482988E-009  0.9118800E+02  0.7816531E-02  0.1126479E+00
         25   -1    0    0    0    0  0.00000000000E+00  0.00000000000E+00  0.99999998245E-14  0.12500000000E+03  0.12500000000E+03 0.  0.
    3000001    1    3    3    0    0 -0.32414088065E+01  0.58983187883E+00 -0.69634741353E+01  0.77681789841E+01  0.10000000000E+01 0. -1.
    1000022    2    1    0    0    0 -0.17039040510E+01  0.10248589611E+02 -0.60813765066E+02  0.62499996558E+02  0.99999335155E+01 0.  0.
    3000022    2    3    3    0    0  0.15375047555E+01  0.96587577319E+01 -0.53850290930E+02  0.54731817574E+02  0.24999981192E+00 0.  0.
    1000022    2    1    0    0    0  0.17039040510E+01 -0.10248589611E+02  0.60813765066E+02  0.62500003442E+02  0.99999765355E+01 0.  0.
    3000022    2    5    5    0    0  0.25857701386E+01 -0.11799691215E+02  0.46647100326E+02  0.48186443653E+02  0.24992614663E+00 0.  0.
        -13    1    4    4    0    0  0.81180214834E+00  0.49990884266E+01 -0.27516485669E+02  0.27978883402E+02  0.10500000000E+00 0.  1.
         13    1    4    4    0    0  0.72570260714E+00  0.46596693053E+01 -0.26333805261E+02  0.26752934173E+02  0.10500000000E+00 0. -1.
    3000001    1    5    5    0    0 -0.88186608765E+00  0.15511016047E+01  0.14166664739E+02  0.14313559789E+02  0.10000000000E+01 0.  1.
        -13    1    6    6    0    0  0.17903184770E+01 -0.79346986273E+01  0.31460722130E+02  0.32495426517E+02  0.10500000000E+00 0.  1.
         13    1    6    6    0    0  0.79545166164E+00 -0.38649925881E+01  0.15186378196E+02  0.15691017136E+02  0.10500000000E+00 0. -1.
</event>
<event>
11    0  0.3482988E-009  0.9118800E+02  0.7816531E-02  0.1126479E+00
         25   -1    0    0    0    0  0.00000000000E+00  0.00000000000E+00  0.99999998245E-14  0.12500000000E+03  0.12500000000E+03 0.  0.
    3000001    1    3    3    0    0  0.40257659872E+02 -0.23918207299E+02  0.20123385128E+01  0.46880799108E+02  0.10000000000E+01 0. -1.
    1000022    2    1    0    0    0  0.55588110660E+02 -0.26741108011E+02  0.10607740888E+01  0.62500001938E+02  0.10000004805E+02 0.  0.
    3000022    2    3    3    0    0  0.15330450788E+02 -0.28229007128E+01 -0.95156442405E+00  0.15619202829E+02  0.25006472067E+00 0.  0.
    1000022    2    1    0    0    0 -0.55588110660E+02  0.26741108011E+02 -0.10607740888E+01  0.62499998062E+02  0.99999805819E+01 0.  0.
    3000022    2    5    5    0    0 -0.38736385195E+02  0.14104932734E+02 -0.29380627408E+01  0.41329788108E+02  0.25001402607E+00 0.  0.
        -13    1    4    4    0    0  0.55062158784E+01 -0.96449224642E+00 -0.37289847599E+00  0.56034575814E+01  0.10500000000E+00 0. -1.
         13    1    4    4    0    0  0.98242349099E+01 -0.18584084663E+01 -0.57866594806E+00  0.10015745248E+02  0.10500000000E+00 0.  1.
    3000001    1    5    5    0    0 -0.16851725466E+02  0.12636175278E+02  0.18772886520E+01  0.21170209954E+02  0.10000000000E+01 0.  1.
        -13    1    6    6    0    0 -0.22140278820E+02  0.81301459683E+01 -0.16683061589E+01  0.23644988690E+02  0.10500000000E+00 0. -1.
         13    1    6    6    0    0 -0.16596106374E+02  0.59747867654E+01 -0.12697565818E+01  0.17684799418E+02  0.10500000000E+00 0.  1.
</event>
<event>
11    0  0.3482988E-009  0.9118800E+02  0.7816531E-02  0.1126479E+00
         25   -1    0    0    0    0  0.00000000000E+00  0.00000000000E+00  0.99999998245E-14  0.12500000000E+03  0.12500000000E+03 0.  0.
    3000001    1    3    3    0    0 -0.34611654988E+02 -0.94925579266E+01 -0.50168119058E+02  0.61692102305E+02  0.10000000000E+01 0.  1.
    1000022    2    1    0    0    0 -0.34866428194E+02 -0.87684656969E+01 -0.50136774639E+02  0.62499999821E+02  0.10000000031E+02 0.  0.
    3000022    2    3    3    0    0 -0.25477320618E+00  0.72409222973E+00  0.31344418688E-01  0.80789751540E+00  0.24999395808E+00 0.  0.
    1000022    2    1    0    0    0  0.34866428194E+02  0.87684656969E+01  0.50136774639E+02  0.62500000179E+02  0.10000002275E+02 0.  0.
    3000022    2    5    5    0    0  0.24326586091E+02  0.95776429306E+01  0.40220869007E+02  0.47971812960E+02  0.25000017595E+00 0.  0.
        -13    1    4    4    0    0 -0.12716165566E+00  0.24299616355E+00  0.54493582809E-01  0.29868339883E+00  0.10500000000E+00 0.  1.
         13    1    4    4    0    0 -0.12761155052E+00  0.48109606618E+00 -0.23149164121E-01  0.50921411658E+00  0.10500000000E+00 0. -1.
    3000001    1    5    5    0    0  0.10539842104E+02 -0.80917723376E+00  0.99159056321E+01  0.14528187219E+02  0.10000000000E+01 0. -1.
        -13    1    6    6    0    0  0.12486095813E+02  0.49882577254E+01  0.20698578822E+02  0.24682534190E+02  0.10500000000E+00 0. -1.
         13    1    6    6    0    0  0.11840490277E+02  0.45893852053E+01  0.19522290185E+02  0.23289278770E+02  0.10500000000E+00 0.  1.
</event>
<event>
11    0  0.3482988E-009  0.9118800E+02  0.7816531E-02  0.1126479E+00
         25   -1    0    0    0    0  0.00000000000E+00  0.00000000000E+00  0.99999998245E-14  0.12500000000E+03  0.12500000000E+03 0.  0.
    3000001    1    3    3    0    0 -0.14449405410E+02  0.94886554917E+01  0.53519377302E+01  0.18123552003E+02  0.10000000000E+01 0. -1.
    1000022    2    1    0    0    0 -0.47897906636E+02  0.23753581944E+02  0.30786487896E+02  0.62500000774E+02  0.10000007223E+02 0.  0.
    3000022    2    3    3    0    0 -0.33448501226E+02  0.14264926453E+02  0.25434550166E+02  0.44376448771E+02  0.25000480145E+00 0.  0.
    1000022    2    1    0    0    0  0.47897906636E+02 -0.23753581944E+02 -0.30786487896E+02  0.62499999226E+02  0.99999975520E+01 0.  0.
    3000022    2    5    5    0    0  0.34185113514E+02 -0.14928177521E+02 -0.26017812489E+02  0.45480342250E+02  0.24998891142E+00 0.  0.
        -13    1    4    4    0    0 -0.23964459166E+02  0.10175971463E+02  0.18216857552E+02  0.31775944084E+02  0.10500000000E+00 0. -1.
         13    1    4    4    0    0 -0.94840420595E+01  0.40889549900E+01  0.72176926138E+01  0.12600504687E+02  0.10500000000E+00 0.  1.
    3000001    1    5    5    0    0  0.13712793122E+02 -0.88254044232E+01 -0.47686754073E+01  0.17019656976E+02  0.10000000000E+01 0.  1.
        -13    1    6    6    0    0  0.17406083735E+02 -0.76501283385E+01 -0.13322986195E+02  0.23216571684E+02  0.10500000000E+00 0. -1.
         13    1    6    6    0    0  0.16779029779E+02 -0.72780491827E+01 -0.12694826294E+02  0.22263770567E+02  0.10500000000E+00 0.  1.
</event>
<event>
11    0  0.3482988E-009  0.9118800E+02  0.7816531E-02  0.1126479E+00
         25   -1    0    0    0    0  0.00000000000E+00  0.00000000000E+00  0.99999998245E-14  0.12500000000E+03  0.12500000000E+03 0.  0.
    3000001    1    3    3    0    0 -0.15549514539E+02  0.37524434460E+00 -0.84799165417E+00  0.15609205636E+02  0.10000000000E+01 0.  1.
    1000022    2    1    0    0    0 -0.58309549506E+02  0.49227135444E+01 -0.19545158338E+02  0.62500000127E+02  0.10000006460E+02 0.  0.
    3000022    2    3    3    0    0 -0.42760034966E+02  0.45474691998E+01 -0.18697166684E+02  0.46890794491E+02  0.24999914982E+00 0.  0.
    1000022    2    1    0    0    0  0.58309549506E+02 -0.49227135444E+01  0.19545158338E+02  0.62499999873E+02  0.10000004871E+02 0.  0.
    3000022    2    5    5    0    0  0.40706985664E+02 -0.16395834324E+00  0.10109886562E+02  0.41944699866E+02  0.24995275432E+00 0.  0.
        -13    1    4    4    0    0 -0.14535758104E+02  0.15929371071E+01 -0.63891633538E+01  0.15958011958E+02  0.10500000000E+00 0. -1.
         13    1    4    4    0    0 -0.28224276863E+02  0.29545320926E+01 -0.12308003330E+02  0.30932782534E+02  0.10500000000E+00 0.  1.
    3000001    1    5    5    0    0  0.17602563842E+02 -0.47587552011E+01  0.94352717763E+01  0.20555300007E+02  0.10000000000E+01 0.  1.
        -13    1    6    6    0    0  0.10822893482E+02 -0.37740617366E-01  0.27227482854E+01  0.11160682368E+02  0.10500000000E+00 0. -1.
         13    1    6    6    0    0  0.29884092182E+02 -0.12621772587E+00  0.73871382765E+01  0.30784017499E+02  0.10500000000E+00 0.  1.
</event>
<event>
11    0  0.3482988E-009  0.9118800E+02  0.7816531E-02  0.1126479E+00
         25   -1    0    0    0    0  0.00000000000E+00  0.00000000000E+00  0.99999998245E-14  0.12500000000E+03  0.12500000000E+03 0.  0.
    3000001    1    3    3    0    0  0.32507042736E+00 -0.72511084510E+00 -0.41473352291E+00  0.13429297880E+01  0.10000000000E+01 0.  1.
    1000022    2    1    0    0    0 -0.32185580049E+02 -0.44528928107E+02 -0.28062661526E+02  0.62499999870E+02  0.10000000516E+02 0.  0.
    3000022    2    3    3    0    0 -0.32510650477E+02 -0.43803817262E+02 -0.27647928004E+02  0.61157070082E+02  0.24999396309E+00 0.  0.
    1000022    2    1    0    0    0  0.32185580049E+02  0.44528928107E+02  0.28062661526E+02  0.62500000130E+02  0.10000002142E+02 0.  0.
    3000022    2    5    5    0    0  0.20023307428E+02  0.31003507037E+02  0.13951857361E+02  0.39457155587E+02  0.25002851259E+00 0.  0.
        -13    1    4    4    0    0 -0.21150468300E+02 -0.28588577072E+02 -0.18040112690E+02  0.39876129943E+02  0.10500000000E+00 0. -1.
         13    1    4    4    0    0 -0.11360182177E+02 -0.15215240189E+02 -0.96078153134E+01  0.21280940139E+02  0.10500000000E+00 0.  1.
    3000001    1    5    5    0    0  0.12162272621E+02  0.13525421070E+02  0.14110804165E+02  0.23042844543E+02  0.10000000000E+01 0. -1.
        -13    1    6    6    0    0  0.13292423603E+02  0.20660956724E+02  0.92526114811E+01  0.26252342795E+02  0.10500000000E+00 0. -1.
         13    1    6    6    0    0  0.67308838248E+01  0.10342550313E+02  0.46992458804E+01  0.13204812792E+02  0.10500000000E+00 0.  1.
</event>
<event>
11    0  0.3482988E-009  0.9118800E+02  0.7816531E-02  0.1126479E+00
         25   -1    0    0    0    0  0.00000000000E+00  0.00000000000E+00  0.99999998245E-14  0.12500000000E+03  0.12500000000E+03 0.  0.
    3000001    1    3    3    0    0 -0.42500889783E+02 -0.34090556200E+02 -0.29591640511E+01  0.54573329623E+02  0.10000000000E+01 0.  1.
    1000022    2    1    0    0    0 -0.48924892236E+02 -0.37006973531E+02 -0.65642015913E+01  0.62499999329E+02  0.10000000166E+02 0.  0.
    3000022    2    3    3    0    0 -0.64240024533E+01 -0.29164173317E+01 -0.36050375402E+01  0.79266697053E+01  0.24999875439E+00 0.  0.
    1000022    2    1    0    0    0  0.48924892236E+02  0.37006973531E+02  0.65642015913E+01  0.62500000671E+02  0.10000008556E+02 0.  0.
    3000022    2    5    5    0    0  0.20437058462E+02  0.97510725743E+01  0.97134578015E+00  0.22666335936E+02  0.24999441979E+00 0.  0.
        -13    1    4    4    0    0 -0.42395086732E+01 -0.19292471894E+01 -0.24406759137E+01  0.52595962225E+01  0.10500000000E+00 0. -1.
         13    1    4    4    0    0 -0.21844937802E+01 -0.98717014230E+00 -0.11643616265E+01  0.26670734828E+01  0.10500000000E+00 0.  1.
    3000001    1    5    5    0    0  0.28487833774E+02  0.27255900957E+02  0.55928558112E+01  0.39833664735E+02  0.10000000000E+01 0.  1.
        -13    1    6    6    0    0  0.97373594364E+01  0.47196545125E+01  0.47620038138E+00  0.10831855765E+02  0.10500000000E+00 0. -1.
         13    1    6    6    0    0  0.10699699026E+02  0.50314180618E+01  0.49514539877E+00  0.11834480171E+02  0.10500000000E+00 0.  1.
</event>
<event>
11    0  0.3482988E-009  0.9118800E+02  0.7816531E-02  0.1126479E+00
         25   -1    0    0    0    0  0.00000000000E+00  0.00000000000E+00  0.99999998245E-14  0.12500000000E+03  0.12500000000E+03 0.  0.
    3000001    1    3    3    0    0 -0.56488719614E+00  0.21486799988E+02  0.73691109627E+01  0.22744350236E+02  0.10000000000E+01 0.  1.
    1000022    2    1    0    0    0 -0.11830782097E+02  0.54331578058E+02  0.26727555391E+02  0.62500000285E+02  0.10000001955E+02 0.  0.
    3000022    2    3    3    0    0 -0.11265894901E+02  0.32844778070E+02  0.19358444428E+02  0.39755650049E+02  0.25001147209E+00 0.  0.
    1000022    2    1    0    0    0  0.11830782097E+02 -0.54331578058E+02 -0.26727555391E+02  0.62499999715E+02  0.99999983970E+01 0.  0.
    3000022    2    5    5    0    0  0.29687173917E+01 -0.65177167241E+01 -0.36286960322E+00  0.71755188485E+01  0.24996429495E+00 0.  0.
        -13    1    4    4    0    0 -0.81134645142E+01  0.23528694557E+02  0.13871862495E+02  0.28493286368E+02  0.10500000000E+00 0.  1.
         13    1    4    4    0    0 -0.31524303867E+01  0.93160835130E+01  0.54865819333E+01  0.11262363681E+02  0.10500000000E+00 0. -1.
    3000001    1    5    5    0    0  0.88620647053E+01 -0.47813861334E+02 -0.26364685788E+02  0.55324480867E+02  0.10000000000E+01 0. -1.
        -13    1    6    6    0    0  0.98346262770E+00 -0.21904557097E+01 -0.17407459467E+00  0.24096933250E+01  0.10500000000E+00 0. -1.
         13    1    6    6    0    0  0.19852547640E+01 -0.43272610144E+01 -0.18879500854E+00  0.47658255235E+01  0.10500000000E+00 0.  1.
</event>
<event>
11    0  0.3482988E-009  0.9118800E+02  0.7816531E-02  0.1126479E+00
         25   -1    0    0    0    0  0.00000000000E+00  0.00000000000E+00  0.99999998245E-14  0.12500000000E+03  0.12500000000E+03 0.  0.
    3000001    1    3    3    0    0  0.20466339982E+02 -0.35670421407E+01 -0.16255258066E+02  0.26397505123E+02  0.10000000000E+01 0. -1.
    1000022    2    1    0    0    0  0.46812851696E+02 -0.19392802642E+02 -0.35195538734E+02  0.62499999359E+02  0.10000004742E+02 0.  0.
    3000022    2    3    3    0    0  0.26346511714E+02 -0.15825760502E+02 -0.18940280668E+02  0.36102494236E+02  0.24996672612E+00 0.  0.
    1000022    2    1    0    0    0 -0.46812851696E+02  0.19392802642E+02  0.35195538734E+02  0.62500000641E+02  0.10000012757E+02 0.  0.
    3000022    2    5    5    0    0 -0.73924710403E+01  0.66644351832E+01  0.44637585209E+01  0.10911047712E+02  0.24999531718E+00 0.  0.
        -13    1    4    4    0    0  0.10949629672E+02 -0.65745061253E+01 -0.79464706812E+01  0.15042471274E+02  0.10500000000E+00 0.  1.
         13    1    4    4    0    0  0.15396882042E+02 -0.92512543763E+01 -0.10993809987E+02  0.21060022962E+02  0.10500000000E+00 0. -1.
    3000001    1    5    5    0    0 -0.39420380656E+02  0.12728367459E+02  0.30731780213E+02  0.51588952929E+02  0.10000000000E+01 0. -1.
        -13    1    6    6    0    0 -0.28548980097E+01  0.25165324838E+01  0.16588722488E+01  0.41528617273E+01  0.10500000000E+00 0.  1.
         13    1    6    6    0    0 -0.45375730306E+01  0.41479026994E+01  0.28048862721E+01  0.67581859852E+01  0.10500000000E+00 0. -1.
</event>
<event>
11    0  0.3482988E-009  0.9118800E+02  0.7816531E-02  0.1126479E+00
         25   -1    0    0    0    0  0.00000000000E+00  0.00000000000E+00  0.99999998245E-14  0.12500000000E+03  0.12500000000E+03 0.  0.
    3000001    1    3    3    0    0  0.11378739251E+02 -0.53300238920E+01  0.40430654093E+01  0.13237493703E+02  0.10000000000E+01 0. -1.
    1000022    2    1    0    0    0  0.41999652823E+02 -0.31545471474E+02  0.32359886550E+02  0.62500003647E+02  0.10000029530E+02 0.  0.
    3000022    2    3    3    0    0  0.30620913572E+02 -0.26215447582E+02  0.28316821140E+02  0.49262509944E+02  0.24997318021E+00 0.  0.
    1000022    2    1    0    0    0 -0.41999652823E+02  0.31545471474E+02 -0.32359886550E+02  0.62499996353E+02  0.99999839441E+01 0.  0.
    3000022    2    5    5    0    0 -0.22043850787E+02  0.21943151631E+02 -0.16228818343E+02  0.35083761331E+02  0.25000670173E+00 0.  0.
        -13    1    4    4    0    0  0.12996261903E+02 -0.11066476463E+02  0.11934313252E+02  0.20828071984E+02  0.10500000000E+00 0.  1.
         13    1    4    4    0    0  0.17624651668E+02 -0.15148971119E+02  0.16382507888E+02  0.28434437960E+02  0.10500000000E+00 0. -1.
    3000001    1    5    5    0    0 -0.19955802036E+02  0.96023198432E+01 -0.16131068207E+02  0.27416235022E+02  0.10000000000E+01 0.  1.
        -13    1    6    6    0    0 -0.10910751967E+02  0.10896375410E+02 -0.79745716867E+01  0.17360308873E+02  0.10500000000E+00 0. -1.
         13    1    6    6    0    0 -0.11133098819E+02  0.11046776221E+02 -0.82542466559E+01  0.17723452458E+02  0.10500000000E+00 0.  1.
</event>
<event>
11    0  0.3482988E-009  0.9118800E+02  0.7816531E-02  0.1126479E+00
         25   -1    0    0    0    0  0.00000000000E+00  0.00000000000E+00  0.99999998245E-14  0.12500000000E+03  0.12500000000E+03 0.  0.
    3000001    1    3    3    0    0  0.52753016330E+01 -0.23797640328E+02  0.24499685012E+02  0.34574427807E+02  0.10000000000E+01 0. -1.
    1000022    2    1    0    0    0  0.17129648467E+02 -0.43967439107E+02  0.39745303133E+02  0.62500001968E+02  0.10000028334E+02 0.  0.
    3000022    2    3    3    0    0  0.11854346834E+02 -0.20169798778E+02  0.15245618122E+02  0.27925574161E+02  0.24999741733E+00 0.  0.
    1000022    2    1    0    0    0 -0.17129648467E+02  0.43967439107E+02 -0.39745303133E+02  0.62499998032E+02  0.10000003732E+02 0.  0.
    3000022    2    5    5    0    0 -0.63811168398E+00  0.41842478852E+01 -0.77719638152E+01  0.88533064623E+01  0.24999376810E+00 0.  0.
        -13    1    4    4    0    0  0.48348309847E+01 -0.83470230286E+01  0.62627298231E+01  0.11501356178E+02  0.10500000000E+00 0. -1.
         13    1    4    4    0    0  0.70195158492E+01 -0.11822775750E+02  0.89828882985E+01  0.16424217984E+02  0.10500000000E+00 0.  1.
    3000001    1    5    5    0    0 -0.16491536783E+02  0.39783191221E+02 -0.31973339318E+02  0.53646691570E+02  0.10000000000E+01 0. -1.
        -13    1    6    6    0    0 -0.45655566570E+00  0.29607500859E+01 -0.55858535531E+01  0.63393429520E+01  0.10500000000E+00 0.  1.
         13    1    6    6    0    0 -0.18155601827E+00  0.12234977993E+01 -0.21861102622E+01  0.25139635103E+01  0.10500000000E+00 0. -1.
</event>
<event>
11    0  0.3482988E-009  0.9118800E+02  0.7816531E-02  0.1126479E+00
         25   -1    0    0    0    0  0.00000000000E+00  0.00000000000E+00  0.99999998245E-14  0.12500000000E+03  0.12500000000E+03 0.  0.
    3000001    1    3    3    0    0 -0.22068196061E+02 -0.34569749592E+02  0.83399842666E+01  0.41864402561E+02  0.10000000000E+01 0. -1.
    1000022    2    1    0    0    0 -0.37345973886E+02 -0.46796431596E+02  0.14886973726E+02  0.62499998434E+02  0.10000002098E+02 0.  0.
    3000022    2    3    3    0    0 -0.15277777825E+02 -0.12226682004E+02  0.65469894596E+01  0.20635595873E+02  0.24999591335E+00 0.  0.
    1000022    2    1    0    0    0  0.37345973886E+02  0.46796431596E+02 -0.14886973726E+02  0.62500001566E+02  0.10000021671E+02 0.  0.
    3000022    2    5    5    0    0  0.27254029707E+02  0.33810652680E+02 -0.61841936303E+01  0.43866264079E+02  0.25000680946E+00 0.  0.
        -13    1    4    4    0    0 -0.99448786316E+01 -0.80135802353E+01  0.42347475128E+01  0.13455935147E+02  0.10500000000E+00 0. -1.
         13    1    4    4    0    0 -0.53328991931E+01 -0.42131017684E+01  0.23122419468E+01  0.71796607256E+01  0.10500000000E+00 0.  1.
    3000001    1    5    5    0    0  0.10091944179E+02  0.12985778916E+02 -0.87027800959E+01  0.18633737487E+02  0.10000000000E+01 0. -1.
        -13    1    6    6    0    0  0.19344058091E+02  0.24017663376E+02 -0.44329750616E+01  0.31156107433E+02  0.10500000000E+00 0.  1.
         13    1    6    6    0    0  0.79099716155E+01  0.97929893048E+01 -0.17512185687E+01  0.12710156646E+02  0.10500000000E+00 0. -1.
</event>
<event>
11    0  0.3482988E-009  0.9118800E+02  0.7816531E-02  0.1126479E+00
         25   -1    0    0    0    0  0.00000000000E+00  0.00000000000E+00  0.99999998245E-14  0.12500000000E+03  0.12500000000E+03 0.  0.
    3000001    1    3    3    0    0 -0.24434638266E+01 -0.10685090946E+01 -0.89149235225E+00  0.29844573663E+01  0.10000000000E+01 0. -1.
    1000022    2    1    0    0    0 -0.35153535162E+02 -0.48397513857E+01 -0.50468364699E+02  0.62499999916E+02  0.99999963087E+01 0.  0.
    3000022    2    3    3    0    0 -0.32710071336E+02 -0.37712422910E+01 -0.49576872347E+02  0.59515542550E+02  0.24999607997E+00 0.  0.
    1000022    2    1    0    0    0  0.35153535162E+02  0.48397513857E+01  0.50468364699E+02  0.62500000084E+02  0.99999973597E+01 0.  0.
    3000022    2    5    5    0    0  0.29938255060E+02  0.98365398874E+00  0.44410158837E+02  0.53568567279E+02  0.25000237388E+00 0.  0.
        -13    1    4    4    0    0 -0.15123368924E+02 -0.16777327223E+01 -0.22937573422E+02  0.27525885530E+02  0.10500000000E+00 0.  1.
         13    1    4    4    0    0 -0.17586702411E+02 -0.20935095687E+01 -0.26639298925E+02  0.31989657020E+02  0.10500000000E+00 0. -1.
    3000001    1    5    5    0    0  0.52152801027E+01  0.38560973969E+01  0.60582058622E+01  0.89314328051E+01  0.10000000000E+01 0.  1.
        -13    1    6    6    0    0  0.16693192354E+02  0.50705498273E+00  0.24667775855E+02  0.29789762778E+02  0.10500000000E+00 0.  1.
         13    1    6    6    0    0  0.13245062705E+02  0.47659900601E+00  0.19742382982E+02  0.23778804501E+02  0.10500000000E+00 0. -1.
</event>
<event>
11    0  0.3482988E-009  0.9118800E+02  0.7816531E-02  0.1126479E+00
         25   -1    0    0    0    0  0.00000000000E+00  0.00000000000E+00  0.99999998245E-14  0.12500000000E+03  0.12500000000E+03 0.  0.
    3000001    1    3    3    0    0  0.21010686373E+02  0.20472374791E+01 -0.16799044982E+02  0.26997185695E+02  0.10000000000E+01 0. -1.
    1000022    2    1    0    0    0  0.53875953122E+02 -0.49741625587E-01 -0.30060425873E+02  0.62499999626E+02  0.99999975232E+01 0.  0.
    3000022    2    3    3    0    0  0.32865266750E+02 -0.20969791046E+01 -0.13261380891E+02  0.35502813931E+02  0.24998791012E+00 0.  0.
    1000022    2    1    0    0    0 -0.53875953122E+02  0.49741625587E-01  0.30060425873E+02  0.62500000374E+02  0.10000002203E+02 0.  0.
    3000022    2    5    5    0    0 -0.33640843585E+02  0.37721592385E+01  0.15247229411E+02  0.37127833729E+02  0.24998048149E+00 0.  0.
        -13    1    4    4    0    0  0.23428230380E+02 -0.14755851903E+01 -0.94124922948E+01  0.25291606643E+02  0.10500000000E+00 0. -1.
         13    1    4    4    0    0  0.94370363695E+01 -0.62139391436E+00 -0.38488885959E+01  0.10211207287E+02  0.10500000000E+00 0.  1.
    3000001    1    5    5    0    0 -0.20235109537E+02 -0.37224176129E+01  0.14813196462E+02  0.25372166645E+02  0.10000000000E+01 0.  1.
        -13    1    6    6    0    0 -0.14355556430E+02  0.16137659997E+01  0.65781795561E+01  0.15873553868E+02  0.10500000000E+00 0. -1.
         13    1    6    6    0    0 -0.19285287155E+02  0.21583932388E+01  0.86690498546E+01  0.21254279861E+02  0.10500000000E+00 0.  1.
</event>
<event>
11    0  0.3482988E-009  0.9118800E+02  0.7816531E-02  0.1126479E+00
         25   -1    0    0    0    0  0.00000000000E+00  0.00000000000E+00  0.99999998245E-14  0.12500000000E+03  0.12500000000E+03 0.  0.
    3000001    1    3    3    0    0  0.17193487500E+02 -0.20252043235E+01 -0.38824624915E+01  0.17770508714E+02  0.10000000000E+01 0. -1.
    1000022    2    1    0    0    0  0.61606550834E+02 -0.30195412504E+01  0.13286834811E+01  0.62500000592E+02  0.99999969567E+01 0.  0.
    3000022    2    3    3    0    0  0.44413063335E+02 -0.99433692690E+00  0.52111459726E+01  0.44729491878E+02  0.25000124960E+00 0.  0.
    1000022    2    1    0    0    0 -0.61606550834E+02  0.30195412504E+01 -0.13286834811E+01  0.62499999408E+02  0.99999895559E+01 0.  0.
    3000022    2    5    5    0    0 -0.30402034449E+01  0.24411747533E+01 -0.17418552592E+00  0.39108842082E+01  0.25000705962E+00 0.  0.
        -13    1    4    4    0    0  0.19840081439E+02 -0.37778281035E+00  0.23238270143E+01  0.19979558262E+02  0.10500000000E+00 0. -1.
         13    1    4    4    0    0  0.24572981896E+02 -0.61655411654E+00  0.28873189584E+01  0.24749933616E+02  0.10500000000E+00 0.  1.
    3000001    1    5    5    0    0 -0.58566347390E+02  0.57836649708E+00 -0.11544979552E+01  0.58589115200E+02  0.10000000000E+01 0.  1.
        -13    1    6    6    0    0 -0.16675541232E+01  0.13940144527E+01 -0.14763817739E+00  0.21810169829E+01  0.10500000000E+00 0. -1.
         13    1    6    6    0    0 -0.13726493217E+01  0.10471603007E+01 -0.26547348529E-01  0.17298672254E+01  0.10500000000E+00 0.  1.
</event>
<event>
11    0  0.3482988E-009  0.9118800E+02  0.7816531E-02  0.1126479E+00
         25   -1    0    0    0    0  0.00000000000E+00  0.00000000000E+00  0.99999998245E-14  0.12500000000E+03  0.12500000000E+03 0.  0.
    3000001    1    3    3    0    0 -0.26803382316E+02  0.27156654865E+01  0.14288917241E+02  0.30511789501E+02  0.10000000000E+01 0. -1.
    1000022    2    1    0    0    0 -0.57395056265E+02 -0.16130402479E+01  0.22571122010E+02  0.62500000262E+02  0.10000005069E+02 0.  0.
    3000022    2    3    3    0    0 -0.30591673949E+02 -0.43287057344E+01  0.82822047687E+01  0.31988210761E+02  0.25000699821E+00 0.  0.
    1000022    2    1    0    0    0  0.57395056265E+02  0.16130402479E+01 -0.22571122010E+02  0.62499999738E+02  0.10000001798E+02 0.  0.
    3000022    2    5    5    0    0  0.20031402256E+02  0.50756644643E+01 -0.64663845476E+01  0.21654008795E+02  0.25004338010E+00 0.  0.
        -13    1    4    4    0    0 -0.14269280027E+02 -0.20776535379E+01  0.38299848025E+01  0.14920080607E+02  0.10500000000E+00 0.  1.
         13    1    4    4    0    0 -0.16322393922E+02 -0.22510521966E+01  0.44522199662E+01  0.17068130154E+02  0.10500000000E+00 0. -1.
    3000001    1    5    5    0    0  0.37363654009E+02 -0.34626242163E+01 -0.16104737462E+02  0.40845990943E+02  0.10000000000E+01 0.  1.
        -13    1    6    6    0    0  0.80576077354E+01  0.21013602902E+01 -0.25786549896E+01  0.87178692375E+01  0.10500000000E+00 0. -1.
         13    1    6    6    0    0  0.11973794521E+02  0.29743041740E+01 -0.38877295580E+01  0.12936139558E+02  0.10500000000E+00 0.  1.
</event>
<event>
11    0  0.3482988E-009  0.9118800E+02  0.7816531E-02  0.1126479E+00
         25   -1    0    0    0    0  0.00000000000E+00  0.00000000000E+00  0.99999998245E-14  0.12500000000E+03  0.12500000000E+03 0.  0.
    3000001    1    3    3    0    0 -0.10589744825E+02 -0.24104464607E+02  0.13928757481E+02  0.29802318608E+02  0.10000000000E+01 0.  1.
    1000022    2    1    0    0    0 -0.12325284046E+02 -0.51125549115E+02  0.32257012797E+02  0.62500002720E+02  0.10000053315E+02 0.  0.
    3000022    2    3    3    0    0 -0.17355392210E+01 -0.27021084508E+02  0.18328255315E+02  0.32697684112E+02  0.24999799400E+00 0.  0.
    1000022    2    1    0    0    0  0.12325284046E+02  0.51125549115E+02 -0.32257012797E+02  0.62499997280E+02  0.10000019315E+02 0.  0.
    3000022    2    5    5    0    0 -0.29707135866E+00  0.18121526982E+02 -0.12313928498E+02  0.21912857146E+02  0.24996338167E+00 0.  0.
        -13    1    4    4    0    0 -0.98503522638E+00 -0.14972416043E+02  0.10231782745E+02  0.18161606198E+02  0.10500000000E+00 0. -1.
         13    1    4    4    0    0 -0.75050399463E+00 -0.12048668466E+02  0.80964725697E+01  0.14536077914E+02  0.10500000000E+00 0.  1.
    3000001    1    5    5    0    0  0.12622355404E+02  0.33004022133E+02 -0.19943084299E+02  0.40587140134E+02  0.10000000000E+01 0. -1.
        -13    1    6    6    0    0 -0.16231095997E+00  0.12689940200E+02 -0.86207078647E+01  0.15342377789E+02  0.10500000000E+00 0. -1.
         13    1    6    6    0    0 -0.13476039869E+00  0.54315867815E+01 -0.36932206333E+01  0.65704793567E+01  0.10500000000E+00 0.  1.
</event>
<event>
11    0  0.3482988E-009  0.9118800E+02  0.7816531E-02  0.1126479E+00
         25   -1    0    0    0    0  0.00000000000E+00  0.00000000000E+00  0.99999998245E-14  0.12500000000E+03  0.12500000000E+03 0.  0.
    3000001    1    3    3    0    0  0.48342154620E+01  0.34403931620E+02 -0.51296625697E+02  0.61962439897E+02  0.10000000000E+01 0.  1.
    1000022    2    1    0    0    0  0.48618426216E+01  0.33928845587E+02 -0.51297621895E+02  0.62499999963E+02  0.99999953358E+01 0.  0.
    3000022    2    3    3    0    0  0.27627159575E-01 -0.47508603353E+00 -0.99619831628E-03  0.53756006606E+00  0.24999966601E+00 0.  0.
    1000022    2    1    0    0    0 -0.48618426216E+01 -0.33928845587E+02  0.51297621895E+02  0.62500000037E+02  0.99999958010E+01 0.  0.
    3000022    2    5    5    0    0 -0.51776336993E+01 -0.28937772399E+02  0.48415033118E+02  0.56641685123E+02  0.24999938109E+00 0.  0.
        -13    1    4    4    0    0  0.55328983203E-01 -0.29161460164E+00 -0.50035831732E-01  0.31879296845E+00  0.10500000000E+00 0. -1.
         13    1    4    4    0    0 -0.27701823628E-01 -0.18347143188E+00  0.49039633416E-01  0.21876709761E+00  0.10500000000E+00 0.  1.
    3000001    1    5    5    0    0  0.31579107766E+00 -0.49910731875E+01  0.28825887776E+01  0.58583149138E+01  0.10000000000E+01 0. -1.
        -13    1    6    6    0    0 -0.18985476397E+01 -0.10655859328E+02  0.17939366020E+02  0.20951937843E+02  0.10500000000E+00 0. -1.
         13    1    6    6    0    0 -0.32790860596E+01 -0.18281913071E+02  0.30475667097E+02  0.35689747281E+02  0.10500000000E+00 0.  1.
</event>
<event>
11    0  0.3482988E-009  0.9118800E+02  0.7816531E-02  0.1126479E+00
         25   -1    0    0    0    0  0.00000000000E+00  0.00000000000E+00  0.99999998245E-14  0.12500000000E+03  0.12500000000E+03 0.  0.
    3000001    1    3    3    0    0  0.23024507959E-01  0.42965029263E+02  0.37977850125E+02  0.57352518426E+02  0.10000000000E+01 0.  1.
    1000022    2    1    0    0    0 -0.28100133094E+01  0.46058609702E+02  0.40950682124E+02  0.62500000830E+02  0.10000001744E+02 0.  0.
    3000022    2    3    3    0    0 -0.28330378174E+01  0.30935804384E+01  0.29728319988E+01  0.51474824036E+01  0.25000359719E+00 0.  0.
    1000022    2    1    0    0    0  0.28100133094E+01 -0.46058609702E+02 -0.40950682124E+02  0.62499999170E+02  0.99999913715E+01 0.  0.
    3000022    2    5    5    0    0 -0.61870251505E+00 -0.20294738522E+02 -0.12022595289E+02  0.23597976623E+02  0.24999744474E+00 0.  0.
        -13    1    4    4    0    0 -0.75287369175E+00  0.84838707603E+00  0.84493588306E+00  0.14182810275E+01  0.10500000000E+00 0.  1.
         13    1    4    4    0    0 -0.20801641256E+01  0.22451933624E+01  0.21278961158E+01  0.37292013761E+01  0.10500000000E+00 0. -1.
    3000001    1    5    5    0    0  0.34287158244E+01 -0.25763871179E+02 -0.28928086835E+02  0.38902022547E+02  0.10000000000E+01 0.  1.
        -13    1    6    6    0    0 -0.41467916907E+00 -0.12410473094E+02 -0.72942719086E+01  0.14401709235E+02  0.10500000000E+00 0. -1.
         13    1    6    6    0    0 -0.20402334597E+00 -0.78842654287E+01 -0.47283233803E+01  0.91962673877E+01  0.10500000000E+00 0.  1.
</event>
<event>
11    0  0.3482988E-009  0.9118800E+02  0.7816531E-02  0.1126479E+00
         25   -1    0    0    0    0  0.00000000000E+00  0.00000000000E+00  0.99999998245E-14  0.12500000000E+03  0.12500000000E+03 0.  0.
    3000001    1    3    3    0    0 -0.20039892444E+02  0.18780794474E+02 -0.38514865168E+02  0.47315012090E+02  0.10000000000E+01 0. -1.
    1000022    2    1    0    0    0 -0.26654175691E+02  0.19342067069E+02 -0.52169812398E+02  0.62499999927E+02  0.10000001252E+02 0.  0.
    3000022    2    3    3    0    0 -0.66142832473E+01  0.56127259477E+00 -0.13654947230E+02  0.15184987837E+02  0.25000390697E+00 0.  0.
    1000022    2    1    0    0    0  0.26654175691E+02 -0.19342067069E+02  0.52169812398E+02  0.62500000073E+02  0.10000002163E+02 0.  0.
    3000022    2    5    5    0    0  0.27226062082E+02 -0.18995708175E+02  0.49974922025E+02  0.59997089313E+02  0.25001799508E+00 0.  0.
        -13    1    4    4    0    0 -0.44076543120E+01  0.42767426420E+00 -0.91072756177E+01  0.10127379522E+02  0.10500000000E+00 0. -1.
         13    1    4    4    0    0 -0.22066289353E+01  0.13359833057E+00 -0.45476716121E+01  0.50576083145E+01  0.10500000000E+00 0.  1.
    3000001    1    5    5    0    0 -0.57188639108E+00 -0.34635889371E+00  0.21948903723E+01  0.25029107603E+01  0.10000000000E+01 0. -1.
        -13    1    6    6    0    0  0.20909838758E+02 -0.14583611227E+02  0.38358062560E+02  0.46057084815E+02  0.10500000000E+00 0. -1.
         13    1    6    6    0    0  0.63162233240E+01 -0.44120969483E+01  0.11616859465E+02  0.13940004498E+02  0.10500000000E+00 0.  1.
</event>
<event>
11    0  0.3482988E-009  0.9118800E+02  0.7816531E-02  0.1126479E+00
         25   -1    0    0    0    0  0.00000000000E+00  0.00000000000E+00  0.99999998245E-14  0.12500000000E+03  0.12500000000E+03 0.  0.
    3000001    1    3    3    0    0  0.30073261387E+02 -0.90192829738E+01 -0.74855359896E+01  0.32292131625E+02  0.10000000000E+01 0.  1.
    1000022    2    1    0    0    0  0.54769877083E+02 -0.25915441012E+02 -0.11614668015E+02  0.62499998394E+02  0.99999883780E+01 0.  0.
    3000022    2    3    3    0    0  0.24696615696E+02 -0.16896158039E+02 -0.41291320256E+01  0.30207866769E+02  0.25000030811E+00 0.  0.
    1000022    2    1    0    0    0 -0.54769877083E+02  0.25915441012E+02  0.11614668015E+02  0.62500001606E+02  0.10000008453E+02 0.  0.
    3000022    2    5    5    0    0 -0.19226461570E+02  0.14250881080E+02  0.58353307426E+01  0.24634488483E+02  0.25000376261E+00 0.  0.
        -13    1    4    4    0    0  0.13365084623E+02 -0.91972313849E+01 -0.22895723039E+01  0.16384984543E+02  0.10500000000E+00 0. -1.
         13    1    4    4    0    0  0.11331531073E+02 -0.76989266537E+01 -0.18395597217E+01  0.13822882227E+02  0.10500000000E+00 0.  1.
    3000001    1    5    5    0    0 -0.35543415513E+02  0.11664559932E+02  0.57793372726E+01  0.37865513123E+02  0.10000000000E+01 0. -1.
        -13    1    6    6    0    0 -0.59431626509E+01  0.43464415565E+01  0.18036370075E+01  0.75813500087E+01  0.10500000000E+00 0. -1.
         13    1    6    6    0    0 -0.13283298920E+02  0.99044395237E+01  0.40316937351E+01  0.17053138475E+02  0.10500000000E+00 0.  1.
</event>
<event>
11    0  0.3482988E-009  0.9118800E+02  0.7816531E-02  0.1126479E+00
         25   -1    0    0    0    0  0.00000000000E+00  0.00000000000E+00  0.99999998245E-14  0.12500000000E+03  0.12500000000E+03 0.  0.
    3000001    1    3    3    0    0  0.86761288686E+01 -0.12808232173E+02  0.12522200488E+02  0.19928159188E+02  0.10000000000E+01 0. -1.
    1000022    2    1    0    0    0  0.27829761210E+02 -0.47895324960E+02  0.27162331965E+02  0.62500000381E+02  0.10000000392E+02 0.  0.
    3000022    2    3    3    0    0  0.19153632341E+02 -0.35087092787E+02  0.14640131477E+02  0.42571841194E+02  0.25000169236E+00 0.  0.
    1000022    2    1    0    0    0 -0.27829761210E+02  0.47895324960E+02 -0.27162331965E+02  0.62499999619E+02  0.99999956279E+01 0.  0.
    3000022    2    5    5    0    0 -0.19276779872E+02  0.26098357378E+02 -0.12040542966E+02  0.34608606895E+02  0.24999249995E+00 0.  0.
        -13    1    4    4    0    0  0.12049518988E+02 -0.21956018673E+02  0.91498543145E+01  0.26664368036E+02  0.10500000000E+00 0.  1.
         13    1    4    4    0    0  0.71041133532E+01 -0.13131074114E+02  0.54902771624E+01  0.15907473157E+02  0.10500000000E+00 0. -1.
    3000001    1    5    5    0    0 -0.85529813379E+01  0.21796967583E+02 -0.15121788998E+02  0.27891392724E+02  0.10000000000E+01 0. -1.
        -13    1    6    6    0    0 -0.13897097689E+02  0.18763887555E+02 -0.86924058518E+01  0.24915492065E+02  0.10500000000E+00 0.  1.
         13    1    6    6    0    0 -0.53796821828E+01  0.73344698232E+01 -0.33481371143E+01  0.96931148302E+01  0.10500000000E+00 0. -1.
</event>
<event>
11    0  0.3482988E-009  0.9118800E+02  0.7816531E-02  0.1126479E+00
         25   -1    0    0    0    0  0.00000000000E+00  0.00000000000E+00  0.99999998245E-14  0.12500000000E+03  0.12500000000E+03 0.  0.
    3000001    1    3    3    0    0  0.26537868519E+02 -0.38145407408E+02  0.24387840184E+02  0.52489020954E+02  0.10000000000E+01 0.  1.
    1000022    2    1    0    0    0  0.27645588209E+02 -0.47143603007E+02  0.28626076605E+02  0.62500000463E+02  0.99999972096E+01 0.  0.
    3000022    2    3    3    0    0  0.11077196906E+01 -0.89981955990E+01  0.42382364206E+01  0.10010979509E+02  0.24999165777E+00 0.  0.
    1000022    2    1    0    0    0 -0.27645588209E+02  0.47143603007E+02 -0.28626076605E+02  0.62499999537E+02  0.99999914216E+01 0.  0.
    3000022    2    5    5    0    0 -0.12897819579E+01  0.12940799295E+01  0.75579190913E+00  0.19929628639E+01  0.24999840860E+00 0.  0.
        -13    1    4    4    0    0  0.79225875184E+00 -0.66418856467E+01  0.31491403215E+01  0.73939454040E+01  0.10500000000E+00 0. -1.
         13    1    4    4    0    0  0.31546093874E+00 -0.23563099523E+01  0.10890960991E+01  0.26170341053E+01  0.10500000000E+00 0.  1.
    3000001    1    5    5    0    0 -0.26355806252E+02  0.45849523077E+02 -0.29381868514E+02  0.60507036673E+02  0.10000000000E+01 0.  1.
        -13    1    6    6    0    0 -0.37121501258E+00  0.32576292575E+00  0.18962145255E+00  0.53935458154E+00  0.10500000000E+00 0.  1.
         13    1    6    6    0    0 -0.91856694532E+00  0.96831700372E+00  0.56617045657E+00  0.14536082824E+01  0.10500000000E+00 0. -1.
</event>
<event>
11    0  0.3482988E-009  0.9118800E+02  0.7816531E-02  0.1126479E+00
         25   -1    0    0    0    0  0.00000000000E+00  0.00000000000E+00  0.99999998245E-14  0.12500000000E+03  0.12500000000E+03 0.  0.
    3000001    1    3    3    0    0  0.10766340731E+02  0.44323724078E+02 -0.10266754618E+02  0.46764440115E+02  0.10000000000E+01 0. -1.
    1000022    2    1    0    0    0  0.88892004218E+01  0.59832664404E+02 -0.12136081054E+02  0.62499997715E+02  0.99999818576E+01 0.  0.
    3000022    2    3    3    0    0 -0.18771403087E+01  0.15508940326E+02 -0.18693264362E+01  0.15735557600E+02  0.25001175514E+00 0.  0.
    1000022    2    1    0    0    0 -0.88892004218E+01 -0.59832664404E+02  0.12136081054E+02  0.62500002285E+02  0.10000010422E+02 0.  0.
    3000022    2    5    5    0    0  0.76280744143E+00 -0.16461351369E+02  0.20251100573E+00  0.16482156352E+02  0.25000645931E+00 0.  0.
        -13    1    4    4    0    0 -0.11686027602E+01  0.10092375417E+02 -0.11948088547E+01  0.10230360071E+02  0.10500000000E+00 0.  1.
         13    1    4    4    0    0 -0.70853754850E+00  0.54165649087E+01 -0.67451758151E+00  0.55051975292E+01  0.10500000000E+00 0. -1.
    3000001    1    5    5    0    0 -0.96520078633E+01 -0.43371313036E+02  0.11933570048E+02  0.46017845933E+02  0.10000000000E+01 0.  1.
        -13    1    6    6    0    0  0.44814571826E+00 -0.83030814453E+01  0.12647849502E+00  0.83167913213E+01  0.10500000000E+00 0.  1.
         13    1    6    6    0    0  0.31466172317E+00 -0.81582699232E+01  0.76032510707E-01  0.81653650306E+01  0.10500000000E+00 0. -1.
</event>
<event>
11    0  0.3482988E-009  0.9118800E+02  0.7816531E-02  0.1126479E+00
         25   -1    0    0    0    0  0.00000000000E+00  0.00000000000E+00  0.99999998245E-14  0.12500000000E+03  0.12500000000E+03 0.  0.
    3000001    1    3    3    0    0  0.83754679144E+01 -0.35676257960E+02 -0.42793696254E+01  0.36908763854E+02  0.10000000000E+01 0.  1.
    1000022    2    1    0    0    0  0.66720551062E+01 -0.61207096238E+02 -0.39275448609E+01  0.62500004503E+02  0.10000000247E+02 0.  0.
    3000022    2    3    3    0    0 -0.17034128082E+01 -0.25530838278E+02  0.35182476452E+00  0.25591240649E+02  0.24999781046E+00 0.  0.
    1000022    2    1    0    0    0 -0.66720551062E+01  0.61207096238E+02  0.39275448609E+01  0.62499995497E+02  0.99999439621E+01 0.  0.
    3000022    2    5    5    0    0 -0.47144866420E+01  0.48520734374E+02 -0.87594949658E+00  0.48757746421E+02  0.24999997350E+00 0.  0.
        -13    1    4    4    0    0 -0.72706775726E+00 -0.10432396188E+02  0.19966344099E+00  0.10460134236E+02  0.10500000000E+00 0.  1.
         13    1    4    4    0    0 -0.97634505099E+00 -0.15098442091E+02  0.15216132353E+00  0.15131106413E+02  0.10500000000E+00 0. -1.
    3000001    1    5    5    0    0 -0.19575684642E+01  0.12686361864E+02  0.48034943575E+01  0.13742249076E+02  0.10000000000E+01 0.  1.
        -13    1    6    6    0    0 -0.29793221610E+01  0.30043630316E+02 -0.53125831132E+00  0.30195849773E+02  0.10500000000E+00 0.  1.
         13    1    6    6    0    0 -0.17351644810E+01  0.18477104058E+02 -0.34469118526E+00  0.18561896648E+02  0.10500000000E+00 0. -1.
</event>
<event>
11    0  0.3482988E-009  0.9118800E+02  0.7816531E-02  0.1126479E+00
         25   -1    0    0    0    0  0.00000000000E+00  0.00000000000E+00  0.99999998245E-14  0.12500000000E+03  0.12500000000E+03 0.  0.
    3000001    1    3    3    0    0 -0.94128260131E+00 -0.10720214772E+02  0.40805067239E+02  0.42212113546E+02  0.10000000000E+01 0.  1.
    1000022    2    1    0    0    0 -0.35827926827E+01 -0.21758145365E+02  0.57619416986E+02  0.62500000156E+02  0.99999756311E+01 0.  0.
    3000022    2    3    3    0    0 -0.26415100814E+01 -0.11037930593E+02  0.16814349748E+02  0.20287886610E+02  0.24999680366E+00 0.  0.
    1000022    2    1    0    0    0  0.35827926827E+01  0.21758145365E+02 -0.57619416986E+02  0.62499999844E+02  0.99999736750E+01 0.  0.
    3000022    2    5    5    0    0  0.19350302543E+01  0.16363497117E+02 -0.51698232881E+02  0.54261203090E+02  0.24999552488E+00 0.  0.
        -13    1    4    4    0    0 -0.16932496777E+01 -0.72880775361E+01  0.11040688586E+02  0.13337578419E+02  0.10500000000E+00 0. -1.
         13    1    4    4    0    0 -0.94826040368E+00 -0.37498530564E+01  0.57736611620E+01  0.69503081911E+01  0.10500000000E+00 0.  1.
    3000001    1    5    5    0    0  0.16477624284E+01  0.53946482481E+01 -0.59211841047E+01  0.82387967533E+01  0.10000000000E+01 0.  1.
        -13    1    6    6    0    0  0.14317598859E+01  0.11864319730E+02 -0.37410108422E+02  0.39272627314E+02  0.10500000000E+00 0. -1.
         13    1    6    6    0    0  0.50327036842E+00  0.44991773867E+01 -0.14288124460E+02  0.14988575776E+02  0.10500000000E+00 0.  1.
</event>
<event>
11    0  0.3482988E-009  0.9118800E+02  0.7816531E-02  0.1126479E+00
         25   -1    0    0    0    0  0.00000000000E+00  0.00000000000E+00  0.99999998245E-14  0.12500000000E+03  0.12500000000E+03 0.  0.
    3000001    1    3    3    0    0 -0.35099123027E+02  0.16581095772E+02 -0.16895818191E+02  0.42347961540E+02  0.10000000000E+01 0. -1.
    1000022    2    1    0    0    0 -0.53604581535E+02  0.17875146786E+02 -0.24764456439E+02  0.62499996729E+02  0.99999627159E+01 0.  0.
    3000022    2    3    3    0    0 -0.18505458508E+02  0.12940510142E+01 -0.78686382478E+01  0.20152035189E+02  0.24998356747E+00 0.  0.
    1000022    2    1    0    0    0  0.53604581535E+02 -0.17875146786E+02  0.24764456439E+02  0.62500003271E+02  0.10000003598E+02 0.  0.
    3000022    2    5    5    0    0  0.45315713589E+02 -0.18024574937E+02  0.23191459057E+02  0.54002828366E+02  0.24999716817E+00 0.  0.
        -13    1    4    4    0    0 -0.11948792669E+02  0.79127780420E+00 -0.51187051885E+01  0.13023514680E+02  0.10500000000E+00 0.  1.
         13    1    4    4    0    0 -0.65566658387E+01  0.50277320998E+00 -0.27499330593E+01  0.71285205093E+01  0.10500000000E+00 0. -1.
    3000001    1    5    5    0    0  0.82888679458E+01  0.14942815134E+00  0.15729973823E+01  0.84971749046E+01  0.10000000000E+01 0. -1.
        -13    1    6    6    0    0  0.20632093167E+02 -0.81437729447E+01  0.10584242315E+02  0.24577256084E+02  0.10500000000E+00 0. -1.
         13    1    6    6    0    0  0.24683620422E+02 -0.98808019924E+01  0.12607216742E+02  0.29425572282E+02  0.10500000000E+00 0.  1.
</event>
<event>
11    0  0.3482988E-009  0.9118800E+02  0.7816531E-02  0.1126479E+00
         25   -1    0    0    0    0  0.00000000000E+00  0.00000000000E+00  0.99999998245E-14  0.12500000000E+03  0.12500000000E+03 0.  0.
    3000001    1    3    3    0    0  0.24784045931E+02  0.21793119736E+02  0.21460770927E+02  0.39379610070E+02  0.10000000000E+01 0.  1.
    1000022    2    1    0    0    0  0.43347318273E+02  0.28150591776E+02  0.33686860970E+02  0.62499997431E+02  0.99999629055E+01 0.  0.
    3000022    2    3    3    0    0  0.18563272343E+02  0.63574720400E+01  0.12226090043E+02  0.23120387361E+02  0.25000636665E+00 0.  0.
    1000022    2    1    0    0    0 -0.43347318273E+02 -0.28150591776E+02 -0.33686860970E+02  0.62500002569E+02  0.99999950159E+01 0.  0.
    3000022    2    5    5    0    0 -0.38947041288E+02 -0.28155276214E+02 -0.29830953412E+02  0.56564475416E+02  0.24998768605E+00 0.  0.
        -13    1    4    4    0    0  0.72185726251E+01  0.25373353045E+01  0.47755502412E+01  0.90201311685E+01  0.10500000000E+00 0. -1.
         13    1    4    4    0    0  0.11344699717E+02  0.38201367355E+01  0.74505398015E+01  0.14100256192E+02  0.10500000000E+00 0.  1.
    3000001    1    5    5    0    0 -0.44002769846E+01  0.46844381264E-02 -0.38559075576E+01  0.59355271525E+01  0.10000000000E+01 0.  1.
        -13    1    6    6    0    0 -0.17847764571E+02 -0.12858934985E+02 -0.13721574358E+02  0.25926579739E+02  0.10500000000E+00 0.  1.
         13    1    6    6    0    0 -0.21099276717E+02 -0.15296341229E+02 -0.16109379054E+02  0.30637895677E+02  0.10500000000E+00 0. -1.
</event>
<event>
11    0  0.3482988E-009  0.9118800E+02  0.7816531E-02  0.1126479E+00
         25   -1    0    0    0    0  0.00000000000E+00  0.00000000000E+00  0.99999998245E-14  0.12500000000E+03  0.12500000000E+03 0.  0.
    3000001    1    3    3    0    0  0.75409830617E+01  0.34773593208E+01 -0.49656882183E+01  0.97271019767E+01  0.10000000000E+01 0. -1.
    1000022    2    1    0    0    0  0.45929152481E+02  0.19583540262E+01 -0.41145203596E+02  0.62500000002E+02  0.10000001155E+02 0.  0.
    3000022    2    3    3    0    0  0.38388169419E+02 -0.15190052946E+01 -0.36179515378E+02  0.52772898025E+02  0.25000902438E+00 0.  0.
    1000022    2    1    0    0    0 -0.45929152481E+02 -0.19583540262E+01  0.41145203596E+02  0.62499999998E+02  0.10000001135E+02 0.  0.
    3000022    2    5    5    0    0 -0.42575908934E+02  0.67936701599E+00  0.36172046333E+02  0.55871719094E+02  0.24999501192E+00 0.  0.
        -13    1    4    4    0    0  0.27306444994E+02 -0.10998037036E+01 -0.25683689243E+02  0.37503525495E+02  0.10500000000E+00 0. -1.
         13    1    4    4    0    0  0.11081724425E+02 -0.41920159099E+00 -0.10495826135E+02  0.15269372530E+02  0.10500000000E+00 0.  1.
    3000001    1    5    5    0    0 -0.33532435471E+01 -0.26377210422E+01  0.49731572628E+01  0.66282809041E+01  0.10000000000E+01 0.  1.
        -13    1    6    6    0    0 -0.27043052995E+02  0.38732189421E+00  0.22923821920E+02  0.35454045890E+02  0.10500000000E+00 0.  1.
         13    1    6    6    0    0 -0.15532855939E+02  0.29204512178E+00  0.13248224414E+02  0.20417673204E+02  0.10500000000E+00 0. -1.
</event>
<event>
11    0  0.3482988E-009  0.9118800E+02  0.7816531E-02  0.1126479E+00
         25   -1    0    0    0    0  0.00000000000E+00  0.00000000000E+00  0.99999998245E-14  0.12500000000E+03  0.12500000000E+03 0.  0.
    3000001    1    3    3    0    0 -0.11115589365E+02 -0.48927840991E+01  0.10643847127E+02  0.16179837602E+02  0.10000000000E+01 0. -1.
    1000022    2    1    0    0    0 -0.52652127150E+02 -0.11076897098E+02  0.30187843330E+02  0.62500000491E+02  0.10000001690E+02 0.  0.
    3000022    2    3    3    0    0 -0.41536537785E+02 -0.61841129987E+01  0.19543996203E+02  0.46320162889E+02  0.24995552153E+00 0.  0.
    1000022    2    1    0    0    0  0.52652127150E+02  0.11076897098E+02 -0.30187843330E+02  0.62499999509E+02  0.99999955464E+01 0.  0.
    3000022    2    5    5    0    0  0.33400779278E+02  0.64690750863E+01 -0.24348197387E+02  0.41837282279E+02  0.24996728815E+00 0.  0.
        -13    1    4    4    0    0 -0.10849699911E+02 -0.16477553425E+01  0.51043981112E+01  0.12103594132E+02  0.10500000000E+00 0. -1.
         13    1    4    4    0    0 -0.30686837874E+02 -0.45363576561E+01  0.14439598092E+02  0.34216568758E+02  0.10500000000E+00 0.  1.
    3000001    1    5    5    0    0  0.19251347872E+02  0.46078220115E+01 -0.58396459434E+01  0.20662717230E+02  0.10000000000E+01 0. -1.
        -13    1    6    6    0    0  0.17095863733E+02  0.33028103946E+01 -0.12543917699E+02  0.21460149336E+02  0.10500000000E+00 0. -1.
         13    1    6    6    0    0  0.16304915545E+02  0.31662646917E+01 -0.11804279688E+02  0.20377132943E+02  0.10500000000E+00 0.  1.
</event>
<event>
11    0  0.3482988E-009  0.9118800E+02  0.7816531E-02  0.1126479E+00
         25   -1    0    0    0    0  0.00000000000E+00  0.00000000000E+00  0.99999998245E-14  0.12500000000E+03  0.12500000000E+03 0.  0.
    3000001    1    3    3    0    0 -0.49814418092E+02  0.27924176645E+02 -0.20432730421E+02  0.60660797584E+02  0.10000000000E+01 0.  1.
    1000022    2    1    0    0    0 -0.51068603667E+02  0.28695895009E+02 -0.19359577120E+02  0.62500001395E+02  0.10000013865E+02 0.  0.
    3000022    2    3    3    0    0 -0.12541855749E+01  0.77171836399E+00  0.10731533010E+01  0.18392038107E+01  0.24996391804E+00 0.  0.
    1000022    2    1    0    0    0  0.51068603667E+02 -0.28695895009E+02  0.19359577120E+02  0.62499998605E+02  0.99999964256E+01 0.  0.
    3000022    2    5    5    0    0  0.28082225180E+02 -0.20985081370E+02  0.96308392484E+01  0.36356575274E+02  0.24997963559E+00 0.  0.
        -13    1    4    4    0    0 -0.61184130313E+00  0.31629120402E+00  0.55522006534E+00  0.89088957055E+00  0.10500000000E+00 0.  1.
         13    1    4    4    0    0 -0.64234427176E+00  0.45542715998E+00  0.51793323567E+00  0.94831424018E+00  0.10500000000E+00 0. -1.
    3000001    1    5    5    0    0  0.22986378487E+02 -0.77108136387E+01  0.97287378712E+01  0.26143423331E+02  0.10000000000E+01 0. -1.
        -13    1    6    6    0    0  0.17389425978E+02 -0.13013682158E+02  0.60279046767E+01  0.22540956478E+02  0.10500000000E+00 0. -1.
         13    1    6    6    0    0  0.10692799202E+02 -0.79713992129E+01  0.36029345717E+01  0.13815618796E+02  0.10500000000E+00 0.  1.
</event>
<event>
11    0  0.3482988E-009  0.9118800E+02  0.7816531E-02  0.1126479E+00
         25   -1    0    0    0    0  0.00000000000E+00  0.00000000000E+00  0.99999998245E-14  0.12500000000E+03  0.12500000000E+03 0.  0.
    3000001    1    3    3    0    0 -0.11927397859E+02  0.64904729754E-01  0.66971494652E+01  0.13715642284E+02  0.10000000000E+01 0.  1.
    1000022    2    1    0    0    0 -0.43017072416E+02 -0.53233480756E+01  0.43902658756E+02  0.62499999961E+02  0.99999997609E+01 0.  0.
    3000022    2    3    3    0    0 -0.31089674557E+02 -0.53882528054E+01  0.37205509291E+02  0.48784357676E+02  0.24999983581E+00 0.  0.
    1000022    2    1    0    0    0  0.43017072416E+02  0.53233480756E+01 -0.43902658756E+02  0.62500000039E+02  0.10000000251E+02 0.  0.
    3000022    2    5    5    0    0  0.18102692399E+02 -0.18869272399E+01 -0.14438683664E+02  0.23233726598E+02  0.24999829884E+00 0.  0.
        -13    1    4    4    0    0 -0.10419085099E+02 -0.17620975155E+01  0.12510257341E+02  0.16376198756E+02  0.10500000000E+00 0. -1.
         13    1    4    4    0    0 -0.20670589458E+02 -0.36261552899E+01  0.24695251950E+02  0.32408158921E+02  0.10500000000E+00 0.  1.
    3000001    1    5    5    0    0  0.24914380017E+02  0.72102753156E+01 -0.29463975092E+02  0.39266273441E+02  0.10000000000E+01 0. -1.
        -13    1    6    6    0    0  0.91479177962E+01 -0.90808747516E+00 -0.73571391749E+01  0.11774869201E+02  0.10500000000E+00 0.  1.
         13    1    6    6    0    0  0.89547746031E+01 -0.97883976478E+00 -0.70815444894E+01  0.11458857397E+02  0.10500000000E+00 0. -1.
</event>
<event>
11    0  0.3482988E-009  0.9118800E+02  0.7816531E-02  0.1126479E+00
         25   -1    0    0    0    0  0.00000000000E+00  0.00000000000E+00  0.99999998245E-14  0.12500000000E+03  0.12500000000E+03 0.  0.
    3000001    1    3    3    0    0 -0.50358739294E+02 -0.23859716691E+02 -0.16415243098E+02  0.58101195425E+02  0.10000000000E+01 0. -1.
    1000022    2    1    0    0    0 -0.52333191650E+02 -0.27659163441E+02 -0.17391313923E+02  0.62499998537E+02  0.99999873334E+01 0.  0.
    3000022    2    3    3    0    0 -0.19744523559E+01 -0.37994467503E+01 -0.97607082496E+00  0.43988031123E+01  0.24999370368E+00 0.  0.
    1000022    2    1    0    0    0  0.52333191650E+02  0.27659163441E+02  0.17391313923E+02  0.62500001463E+02  0.10000005616E+02 0.  0.
    3000022    2    5    5    0    0  0.29932482938E+02  0.10265777155E+02  0.96927994641E+01  0.33096111207E+02  0.25000026446E+00 0.  0.
        -13    1    4    4    0    0 -0.70449929584E+00 -0.14668463947E+01 -0.40473222979E+00  0.16801163000E+01  0.10500000000E+00 0.  1.
         13    1    4    4    0    0 -0.12699530601E+01 -0.23326003555E+01 -0.57133859518E+00  0.27186868124E+01  0.10500000000E+00 0. -1.
    3000001    1    5    5    0    0  0.22400708711E+02  0.17393386286E+02  0.76985144593E+01  0.29403890255E+02  0.10000000000E+01 0. -1.
        -13    1    6    6    0    0  0.19274013700E+02  0.65711093370E+01  0.62834175017E+01  0.21311016929E+02  0.10500000000E+00 0. -1.
         13    1    6    6    0    0  0.10658469238E+02  0.36946678182E+01  0.34093819624E+01  0.11785094278E+02  0.10500000000E+00 0.  1.
</event>
<event>
11    0  0.3482988E-009  0.9118800E+02  0.7816531E-02  0.1126479E+00
         25   -1    0    0    0    0  0.00000000000E+00  0.00000000000E+00  0.99999998245E-14  0.12500000000E+03  0.12500000000E+03 0.  0.
    3000001    1    3    3    0    0  0.22435538779E+02 -0.15016850335E+01 -0.16849167681E+02  0.28115883585E+02  0.10000000000E+01 0.  1.
    1000022    2    1    0    0    0  0.45042242181E+02 -0.12753582907E+02 -0.40184478797E+02  0.62500000797E+02  0.10000015287E+02 0.  0.
    3000022    2    3    3    0    0  0.22606703402E+02 -0.11251897874E+02 -0.23335311115E+02  0.34384117211E+02  0.25005410938E+00 0.  0.
    1000022    2    1    0    0    0 -0.45042242181E+02  0.12753582907E+02  0.40184478797E+02  0.62499999203E+02  0.10000005328E+02 0.  0.
    3000022    2    5    5    0    0 -0.80835180877E+01  0.81822634416E+00  0.12035116944E+02  0.14523061039E+02  0.25000611816E+00 0.  0.
        -13    1    4    4    0    0  0.68167786220E+01 -0.33553233744E+01 -0.70644816775E+01  0.10375191184E+02  0.10500000000E+00 0. -1.
         13    1    4    4    0    0  0.15789924780E+02 -0.78965744996E+01 -0.16270829438E+02  0.24008926028E+02  0.10500000000E+00 0.  1.
    3000001    1    5    5    0    0 -0.36958724093E+02  0.11935356563E+02  0.28149361853E+02  0.47976938164E+02  0.10000000000E+01 0.  1.
        -13    1    6    6    0    0 -0.44153807514E+01  0.49673893493E+00  0.65006560399E+01  0.78747628980E+01  0.10500000000E+00 0.  1.
         13    1    6    6    0    0 -0.36681373363E+01  0.32148740923E+00  0.55344609044E+01  0.66482981412E+01  0.10500000000E+00 0. -1.
</event>
<event>
11    0  0.3482988E-009  0.9118800E+02  0.7816531E-02  0.1126479E+00
         25   -1    0    0    0    0  0.00000000000E+00  0.00000000000E+00  0.99999998245E-14  0.12500000000E+03  0.12500000000E+03 0.  0.
    3000001    1    3    3    0    0 -0.84105530123E+01  0.14431466121E+02 -0.30644401475E+01  0.17011625725E+02  0.10000000000E+01 0.  1.
    1000022    2    1    0    0    0 -0.28521952970E+02  0.47970441985E+02 -0.26298002919E+02  0.62500000557E+02  0.10000000333E+02 0.  0.
    3000022    2    3    3    0    0 -0.20111399957E+02  0.33538975864E+02 -0.23233562771E+02  0.45488374832E+02  0.24999118735E+00 0.  0.
    1000022    2    1    0    0    0  0.28521952970E+02 -0.47970441985E+02  0.26298002919E+02  0.62499999443E+02  0.99999933700E+01 0.  0.
    3000022    2    5    5    0    0  0.24797619145E+01 -0.12094358955E+02  0.53343572792E+01  0.13451416517E+02  0.25000209549E+00 0.  0.
        -13    1    4    4    0    0 -0.11172321171E+02  0.18550842122E+02 -0.12805183740E+02  0.25158264237E+02  0.10500000000E+00 0. -1.
         13    1    4    4    0    0 -0.89390787859E+01  0.14988133742E+02 -0.10428379031E+02  0.20330110595E+02  0.10500000000E+00 0.  1.
    3000001    1    5    5    0    0  0.26042191055E+02 -0.35876083030E+02  0.20963645639E+02  0.49048582926E+02  0.10000000000E+01 0. -1.
        -13    1    6    6    0    0  0.74600529697E+00 -0.37910986921E+01  0.17116249351E+01  0.42272494739E+01  0.10500000000E+00 0. -1.
         13    1    6    6    0    0  0.17337566175E+01 -0.83032602630E+01  0.36227323441E+01  0.92241670432E+01  0.10500000000E+00 0.  1.
</event>
<event>
11    0  0.3482988E-009  0.9118800E+02  0.7816531E-02  0.1126479E+00
         25   -1    0    0    0    0  0.00000000000E+00  0.00000000000E+00  0.99999998245E-14  0.12500000000E+03  0.12500000000E+03 0.  0.
    3000001    1    3    3    0    0 -0.20617508642E+02  0.48181792316E+02 -0.78021040472E+01  0.52994712953E+02  0.10000000000E+01 0.  1.
    1000022    2    1    0    0    0 -0.22055242069E+02  0.56203420492E+02 -0.12688248612E+02  0.62500001247E+02  0.10000016268E+02 0.  0.
    3000022    2    3    3    0    0 -0.14377334272E+01  0.80216281752E+01 -0.48861445644E+01  0.95052882938E+01  0.25000171115E+00 0.  0.
    1000022    2    1    0    0    0  0.22055242069E+02 -0.56203420492E+02  0.12688248612E+02  0.62499998753E+02  0.10000000682E+02 0.  0.
    3000022    2    5    5    0    0  0.10115161608E+02 -0.38575109142E+02  0.79447884590E+01  0.40663714804E+02  0.24999678489E+00 0.  0.
        -13    1    4    4    0    0 -0.10956069929E+01  0.59367905098E+01 -0.36231321388E+01  0.70415870182E+01  0.10500000000E+00 0.  1.
         13    1    4    4    0    0 -0.34212643438E+00  0.20848376654E+01 -0.12630124256E+01  0.24637012756E+01  0.10500000000E+00 0. -1.
    3000001    1    5    5    0    0  0.11940080461E+02 -0.17628311350E+02  0.47434601526E+01  0.21836283949E+02  0.10000000000E+01 0. -1.
        -13    1    6    6    0    0  0.43525012293E+01 -0.16837673642E+02  0.34910572705E+01  0.17738377223E+02  0.10500000000E+00 0. -1.
         13    1    6    6    0    0  0.57626603784E+01 -0.21737435499E+02  0.44537311885E+01  0.22925337582E+02  0.10500000000E+00 0.  1.
</event>
<event>
11    0  0.3482988E-009  0.9118800E+02  0.7816531E-02  0.1126479E+00
         25   -1    0    0    0    0  0.00000000000E+00  0.00000000000E+00  0.99999998245E-14  0.12500000000E+03  0.12500000000E+03 0.  0.
    3000001    1    3    3    0    0 -0.52114187848E+02  0.98513823568E+01 -0.19769892469E+02  0.56610837811E+02  0.10000000000E+01 0. -1.
    1000022    2    1    0    0    0 -0.55847211825E+02  0.13514429796E+02 -0.22465507775E+02  0.62499999761E+02  0.10000002465E+02 0.  0.
    3000022    2    3    3    0    0 -0.37330239765E+01  0.36630474390E+01 -0.26956153064E+01  0.58891619506E+01  0.25000410254E+00 0.  0.
    1000022    2    1    0    0    0  0.55847211825E+02 -0.13514429796E+02  0.22465507775E+02  0.62500000239E+02  0.10000005447E+02 0.  0.
    3000022    2    5    5    0    0  0.20627491471E+01 -0.23280868360E+01  0.26421162264E+01  0.40887894412E+01  0.24999716134E+00 0.  0.
        -13    1    4    4    0    0 -0.12524632494E+01  0.12197069154E+01 -0.96205155247E+00  0.19982285505E+01  0.10500000000E+00 0.  1.
         13    1    4    4    0    0 -0.24805607271E+01  0.24433405236E+01 -0.17335637539E+01  0.38909334001E+01  0.10500000000E+00 0. -1.
    3000001    1    5    5    0    0  0.53784462677E+02 -0.11186342960E+02  0.19823391549E+02  0.58411210797E+02  0.10000000000E+01 0.  1.
        -13    1    6    6    0    0  0.85113219617E+00 -0.94635307778E+00  0.99981176139E+00  0.16219305538E+01  0.10500000000E+00 0. -1.
         13    1    6    6    0    0  0.12116169510E+01 -0.13817337582E+01  0.16423044650E+01  0.24668588874E+01  0.10500000000E+00 0.  1.
</event>
<event>
11    0  0.3482988E-009  0.9118800E+02  0.7816531E-02  0.1126479E+00
         25   -1    0    0    0    0  0.00000000000E+00  0.00000000000E+00  0.99999998245E-14  0.12500000000E+03  0.12500000000E+03 0.  0.
    3000001    1    3    3    0    0 -0.17874561328E+02  0.53383833800E+01 -0.38526960275E+02  0.42817344007E+02  0.10000000000E+01 0.  1.
    1000022    2    1    0    0    0 -0.24927483879E+02  0.14212823335E+02 -0.54615620954E+02  0.62499998938E+02  0.10000000765E+02 0.  0.
    3000022    2    3    3    0    0 -0.70529225515E+01  0.88744399550E+01 -0.16088660679E+02  0.19682654931E+02  0.25000329142E+00 0.  0.
    1000022    2    1    0    0    0  0.24927483879E+02 -0.14212823335E+02  0.54615620954E+02  0.62500001062E+02  0.10000014042E+02 0.  0.
    3000022    2    5    5    0    0  0.47769515896E+01 -0.42980898127E+01  0.54147802634E+01  0.84068534641E+01  0.24999467580E+00 0.  0.
        -13    1    4    4    0    0 -0.19936098987E+01  0.24678209782E+01 -0.45572402087E+01  0.55537450543E+01  0.10500000000E+00 0. -1.
         13    1    4    4    0    0 -0.50593126528E+01  0.64066189768E+01 -0.11531420471E+02  0.14128909877E+02  0.10500000000E+00 0. -1.
    3000001    1    5    5    0    0  0.20150532290E+02 -0.99147335224E+01  0.49200840691E+02  0.54093147598E+02  0.10000000000E+01 0. -1.
        -13    1    6    6    0    0  0.17281388575E+01 -0.15342262809E+01  0.18752036419E+01  0.29778730481E+01  0.10500000000E+00 0. -1.
         13    1    6    6    0    0  0.30488127321E+01 -0.27638635318E+01  0.35395766215E+01  0.54289804160E+01  0.10500000000E+00 0.  1.
</event>
<event>
11    0  0.3482988E-009  0.9118800E+02  0.7816531E-02  0.1126479E+00
         25   -1    0    0    0    0  0.00000000000E+00  0.00000000000E+00  0.99999998245E-14  0.12500000000E+03  0.12500000000E+03 0.  0.
    3000001    1    3    3    0    0 -0.16547306433E+01 -0.34866924307E+01  0.56586184170E+01  0.69220748333E+01  0.10000000000E+01 0.  1.
    1000022    2    1    0    0    0  0.78857307814E+01 -0.43485266597E+02  0.43047611643E+02  0.62499999063E+02  0.99999926822E+01 0.  0.
    3000022    2    3    3    0    0  0.95404614247E+01 -0.39998574166E+02  0.37388993226E+02  0.55577924229E+02  0.25001522501E+00 0.  0.
    1000022    2    1    0    0    0 -0.78857307814E+01  0.43485266597E+02 -0.43047611643E+02  0.62500000937E+02  0.10000004400E+02 0.  0.
    3000022    2    5    5    0    0 -0.45995830336E+01  0.20065177394E+02 -0.13407820125E+02  0.24568265062E+02  0.24999938100E+00 0.  0.
        -13    1    4    4    0    0  0.46600596428E+01 -0.19762576911E+02  0.18403463115E+02  0.27403906321E+02  0.10500000000E+00 0. -1.
         13    1    4    4    0    0  0.48804017819E+01 -0.20235997256E+02  0.18985530111E+02  0.28174017908E+02  0.10500000000E+00 0.  1.
    3000001    1    5    5    0    0 -0.32861477478E+01  0.23420089203E+02 -0.29639791519E+02  0.37931735876E+02  0.10000000000E+01 0. -1.
        -13    1    6    6    0    0 -0.20592213341E+01  0.90659038898E+01 -0.59787713405E+01  0.11053856231E+02  0.10500000000E+00 0. -1.
         13    1    6    6    0    0 -0.25403616995E+01  0.10999273504E+02 -0.74290487842E+01  0.13514408830E+02  0.10500000000E+00 0.  1.
</event>
<event>
11    0  0.3482988E-009  0.9118800E+02  0.7816531E-02  0.1126479E+00
         25   -1    0    0    0    0  0.00000000000E+00  0.00000000000E+00  0.99999998245E-14  0.12500000000E+03  0.12500000000E+03 0.  0.
    3000001    1    3    3    0    0  0.24169687991E+02  0.13103012084E+01  0.39340440509E+02  0.46201309140E+02  0.10000000000E+01 0.  1.
    1000022    2    1    0    0    0  0.28651988371E+02 -0.22869919427E+01  0.54590138083E+02  0.62499999583E+02  0.10000000108E+02 0.  0.
    3000022    2    3    3    0    0  0.44823003796E+01 -0.35972931511E+01  0.15249697574E+02  0.16298690442E+02  0.24999864894E+00 0.  0.
    1000022    2    1    0    0    0 -0.28651988371E+02  0.22869919427E+01 -0.54590138083E+02  0.62500000417E+02  0.10000005324E+02 0.  0.
    3000022    2    5    5    0    0 -0.21390237533E+01  0.31812250250E+01 -0.58361123019E+01  0.69870111671E+01  0.25000594521E+00 0.  0.
        -13    1    4    4    0    0  0.28898450450E+01 -0.22489268219E+01  0.97690877822E+01  0.10433358871E+02  0.10500000000E+00 0. -1.
         13    1    4    4    0    0  0.15924553346E+01 -0.13483663292E+01  0.54806097921E+01  0.58653315715E+01  0.10500000000E+00 0.  1.
    3000001    1    5    5    0    0 -0.26512964618E+02 -0.89423308227E+00 -0.48754025781E+02  0.55512989250E+02  0.10000000000E+01 0.  1.
        -13    1    6    6    0    0 -0.11652828101E+01  0.16951935809E+01 -0.32466819187E+01  0.38449361224E+01  0.10500000000E+00 0.  1.
         13    1    6    6    0    0 -0.97374094315E+00  0.14860314441E+01 -0.25894303832E+01  0.31420750447E+01  0.10500000000E+00 0. -1.
</event>
<event>
11    0  0.3482988E-009  0.9118800E+02  0.7816531E-02  0.1126479E+00
         25   -1    0    0    0    0  0.00000000000E+00  0.00000000000E+00  0.99999998245E-14  0.12500000000E+03  0.12500000000E+03 0.  0.
    3000001    1    3    3    0    0 -0.15282742169E+02  0.16649916055E+02  0.26544936808E+02  0.34877149869E+02  0.10000000000E+01 0. -1.
    1000022    2    1    0    0    0 -0.32470289604E+02  0.22641918175E+02  0.47320966990E+02  0.62499999261E+02  0.99999912559E+01 0.  0.
    3000022    2    3    3    0    0 -0.17187547435E+02  0.59920021200E+01  0.20776030181E+02  0.27622849391E+02  0.25000432406E+00 0.  0.
    1000022    2    1    0    0    0  0.32470289604E+02 -0.22641918175E+02 -0.47320966990E+02  0.62500000739E+02  0.10000000498E+02 0.  0.
    3000022    2    5    5    0    0  0.31727640616E+02 -0.22143236051E+02 -0.47362720922E+02  0.61157631650E+02  0.24998817548E+00 0.  0.
        -13    1    4    4    0    0 -0.13032097593E+02  0.45403489654E+01  0.15782237739E+02  0.20965218565E+02  0.10500000000E+00 0.  1.
         13    1    4    4    0    0 -0.41554498421E+01  0.14516531546E+01  0.49937924421E+01  0.66576308268E+01  0.10500000000E+00 0. -1.
    3000001    1    5    5    0    0  0.74264898815E+00 -0.49868212404E+00  0.41753932167E-01  0.13423690891E+01  0.10000000000E+01 0.  1.
        -13    1    6    6    0    0  0.98265575746E+01 -0.68692007454E+01 -0.14752229565E+02  0.19010167143E+02  0.10500000000E+00 0.  1.
         13    1    6    6    0    0  0.21901083042E+02 -0.15274035305E+02 -0.32610491357E+02  0.42147464508E+02  0.10500000000E+00 0. -1.
</event>
<event>
11    0  0.3482988E-009  0.9118800E+02  0.7816531E-02  0.1126479E+00
         25   -1    0    0    0    0  0.00000000000E+00  0.00000000000E+00  0.99999998245E-14  0.12500000000E+03  0.12500000000E+03 0.  0.
    3000001    1    3    3    0    0 -0.24184349260E+02  0.21968277696E+02 -0.34047534669E+02  0.47198756245E+02  0.10000000000E+01 0. -1.
    1000022    2    1    0    0    0 -0.34261410174E+02  0.31505020176E+02 -0.40494932585E+02  0.62499999774E+02  0.99999941653E+01 0.  0.
    3000022    2    3    3    0    0 -0.10077060914E+02  0.95367424801E+01 -0.64473979159E+01  0.15301243529E+02  0.24999970280E+00 0.  0.
    1000022    2    1    0    0    0  0.34261410174E+02 -0.31505020176E+02  0.40494932585E+02  0.62500000226E+02  0.99999969958E+01 0.  0.
    3000022    2    5    5    0    0  0.11305937039E+02 -0.48151130439E+01  0.12270573658E+02  0.17367757579E+02  0.24999896470E+00 0.  0.
        -13    1    4    4    0    0 -0.57291640907E+01  0.54562782016E+01 -0.36095742005E+01  0.86968007854E+01  0.10500000000E+00 0. -1.
         13    1    4    4    0    0 -0.43478968229E+01  0.40804642785E+01 -0.28378237154E+01  0.66044427434E+01  0.10500000000E+00 0.  1.
    3000001    1    5    5    0    0  0.22955473134E+02 -0.26689907132E+02  0.28224358927E+02  0.45132242647E+02  0.10000000000E+01 0. -1.
        -13    1    6    6    0    0  0.55137732058E+01 -0.24217495392E+01  0.60199258871E+01  0.85156971812E+01  0.10500000000E+00 0. -1.
         13    1    6    6    0    0  0.57921638333E+01 -0.23933635047E+01  0.62506477708E+01  0.88520603981E+01  0.10500000000E+00 0.  1.
</event>
<event>
11    0  0.3482988E-009  0.9118800E+02  0.7816531E-02  0.1126479E+00
         25   -1    0    0    0    0  0.00000000000E+00  0.00000000000E+00  0.99999998245E-14  0.12500000000E+03  0.12500000000E+03 0.  0.
    3000001    1    3    3    0    0  0.35193507475E+01 -0.15465108745E+01  0.81726125890E+00  0.40552979587E+01  0.10000000000E+01 0.  1.
    1000022    2    1    0    0    0  0.32534422573E+02 -0.38310032911E+02  0.35778521729E+02  0.62499999843E+02  0.10000004473E+02 0.  0.
    3000022    2    3    3    0    0  0.29015071826E+02 -0.36763522037E+02  0.34961260470E+02  0.58444701884E+02  0.24999822771E+00 0.  0.
    1000022    2    1    0    0    0 -0.32534422573E+02  0.38310032911E+02 -0.35778521729E+02  0.62500000157E+02  0.10000006434E+02 0.  0.
    3000022    2    5    5    0    0 -0.25273687678E+02  0.31977977105E+02 -0.32940772707E+02  0.52407130324E+02  0.24998735883E+00 0.  0.
        -13    1    4    4    0    0  0.12630417104E+02 -0.16043076475E+02  0.15318458368E+02  0.25525946227E+02  0.10500000000E+00 0. -1.
         13    1    4    4    0    0  0.16384654722E+02 -0.20720445561E+02  0.19642802102E+02  0.32918755657E+02  0.10500000000E+00 0.  1.
    3000001    1    5    5    0    0 -0.72607348951E+01  0.63320558061E+01 -0.28377490215E+01  0.10092869833E+02  0.10000000000E+01 0. -1.
        -13    1    6    6    0    0 -0.98108902957E+01  0.12349765621E+02 -0.12686044505E+02  0.20241468067E+02  0.10500000000E+00 0. -1.
         13    1    6    6    0    0 -0.15462797383E+02  0.19628211483E+02 -0.20254728202E+02  0.32165662258E+02  0.10500000000E+00 0.  1.
</event>
<event>
11    0  0.3482988E-009  0.9118800E+02  0.7816531E-02  0.1126479E+00
         25   -1    0    0    0    0  0.00000000000E+00  0.00000000000E+00  0.99999998245E-14  0.12500000000E+03  0.12500000000E+03 0.  0.
    3000001    1    3    3    0    0  0.79544999592E+01  0.19263520021E+01  0.95576595240E+00  0.83005054179E+01  0.10000000000E+01 0.  1.
    1000022    2    1    0    0    0  0.50766097228E+02  0.34934967610E+02 -0.29328215913E+01  0.62499999675E+02  0.99999963615E+01 0.  0.
    3000022    2    3    3    0    0  0.42811597269E+02  0.33008615608E+02 -0.38885875437E+01  0.54199494257E+02  0.24999919342E+00 0.  0.
    1000022    2    1    0    0    0 -0.50766097228E+02 -0.34934967610E+02  0.29328215913E+01  0.62500000325E+02  0.10000000425E+02 0.  0.
    3000022    2    5    5    0    0 -0.40070382357E+02 -0.27056499307E+02  0.63007798605E+01  0.48759122540E+02  0.25001408250E+00 0.  0.
        -13    1    4    4    0    0  0.26327655407E+02  0.20337588197E+02 -0.23395824874E+01  0.33350376371E+02  0.10500000000E+00 0. -1.
         13    1    4    4    0    0  0.16483941862E+02  0.12671027411E+02 -0.15490050563E+01  0.20849117886E+02  0.10500000000E+00 0.  1.
    3000001    1    5    5    0    0 -0.10695714871E+02 -0.78784683030E+01 -0.33679582691E+01  0.13740877785E+02  0.10000000000E+01 0. -1.
        -13    1    6    6    0    0 -0.14804245747E+02 -0.99286707056E+01  0.23029744196E+01  0.17973839609E+02  0.10500000000E+00 0. -1.
         13    1    6    6    0    0 -0.25266136610E+02 -0.17127828601E+02  0.39978054408E+01  0.30785282931E+02  0.10500000000E+00 0.  1.
</event>
<event>
11    0  0.3482988E-009  0.9118800E+02  0.7816531E-02  0.1126479E+00
         25   -1    0    0    0    0  0.00000000000E+00  0.00000000000E+00  0.99999998245E-14  0.12500000000E+03  0.12500000000E+03 0.  0.
    3000001    1    3    3    0    0  0.48206373850E+02  0.17433035498E+02 -0.15292036370E+02  0.53503379172E+02  0.10000000000E+01 0. -1.
    1000022    2    1    0    0    0  0.56855136410E+02  0.16349057038E+02 -0.17505762741E+02  0.62500000119E+02  0.10000004173E+02 0.  0.
    3000022    2    3    3    0    0  0.86487625599E+01 -0.10839784602E+01 -0.22137263706E+01  0.89966209469E+01  0.25000179512E+00 0.  0.
    1000022    2    1    0    0    0 -0.56855136410E+02 -0.16349057038E+02  0.17505762741E+02  0.62499999881E+02  0.10000002690E+02 0.  0.
    3000022    2    5    5    0    0 -0.15374150347E+02 -0.53067062516E+00  0.22639049205E+01  0.15551008590E+02  0.24998493941E+00 0.  0.
        -13    1    4    4    0    0  0.56837688350E+01 -0.71982700756E+00 -0.15112744841E+01  0.59260741353E+01  0.10500000000E+00 0. -1.
         13    1    4    4    0    0  0.29649937249E+01 -0.36415145267E+00 -0.70245188652E+00  0.30705468116E+01  0.10500000000E+00 0.  1.
    3000001    1    5    5    0    0 -0.41480986063E+02 -0.15818386413E+02  0.15241857820E+02  0.46948991291E+02  0.10000000000E+01 0.  1.
        -13    1    6    6    0    0 -0.75833803274E+01 -0.20144041934E+00  0.10850387338E+01  0.76639786982E+01  0.10500000000E+00 0.  1.
         13    1    6    6    0    0 -0.77907700198E+01 -0.32923020583E+00  0.11788661866E+01  0.78870298919E+01  0.10500000000E+00 0. -1.
</event>
<event>
11    0  0.3482988E-009  0.9118800E+02  0.7816531E-02  0.1126479E+00
         25   -1    0    0    0    0  0.00000000000E+00  0.00000000000E+00  0.99999998245E-14  0.12500000000E+03  0.12500000000E+03 0.  0.
    3000001    1    3    3    0    0 -0.18961498596E+02 -0.32249068167E+02  0.32368441063E+02  0.49479862606E+02  0.10000000000E+01 0. -1.
    1000022    2    1    0    0    0 -0.26933491167E+02 -0.36683462612E+02  0.41655258362E+02  0.62500000656E+02  0.10000007857E+02 0.  0.
    3000022    2    3    3    0    0 -0.79719925705E+01 -0.44343944446E+01  0.92868172987E+01  0.13020138049E+02  0.24999930465E+00 0.  0.
    1000022    2    1    0    0    0  0.26933491167E+02  0.36683462612E+02 -0.41655258362E+02  0.62499999344E+02  0.99999996591E+01 0.  0.
    3000022    2    5    5    0    0  0.27179199950E+02  0.33068125291E+02 -0.38889026644E+02  0.57832765188E+02  0.25003162201E+00 0.  0.
        -13    1    4    4    0    0 -0.50282034545E+01 -0.27941083425E+01  0.57704496552E+01  0.81485572731E+01  0.10500000000E+00 0. -1.
         13    1    4    4    0    0 -0.29437891160E+01 -0.16402861021E+01  0.35163676435E+01  0.48715807763E+01  0.10500000000E+00 0.  1.
    3000001    1    5    5    0    0 -0.24570878291E+00  0.36153373211E+01 -0.27662317182E+01  0.46672341563E+01  0.10000000000E+01 0.  1.
        -13    1    6    6    0    0  0.10403855877E+02  0.12562741791E+02 -0.14809338227E+02  0.22031573301E+02  0.10500000000E+00 0. -1.
         13    1    6    6    0    0  0.16775344072E+02  0.20505383500E+02 -0.24079688417E+02  0.35801191886E+02  0.10500000000E+00 0.  1.
</event>
<event>
11    0  0.3482988E-009  0.9118800E+02  0.7816531E-02  0.1126479E+00
         25   -1    0    0    0    0  0.00000000000E+00  0.00000000000E+00  0.99999998245E-14  0.12500000000E+03  0.12500000000E+03 0.  0.
    3000001    1    3    3    0    0 -0.25209426099E+02 -0.31200890866E+02  0.15672273933E+02  0.43077034779E+02  0.10000000000E+01 0.  1.
    1000022    2    1    0    0    0 -0.40585300640E+02 -0.40023204894E+02  0.23605642601E+02  0.62500000075E+02  0.10000004434E+02 0.  0.
    3000022    2    3    3    0    0 -0.15375874541E+02 -0.88223140282E+01  0.79333686688E+01  0.19422965296E+02  0.24999952496E+00 0.  0.
    1000022    2    1    0    0    0  0.40585300640E+02  0.40023204894E+02 -0.23605642601E+02  0.62499999925E+02  0.10000003495E+02 0.  0.
    3000022    2    5    5    0    0  0.33884904005E+02  0.31409417697E+02 -0.15037519361E+02  0.48589378774E+02  0.25000312955E+00 0.  0.
        -13    1    4    4    0    0 -0.11793604937E+02 -0.67781056583E+01  0.60802434705E+01  0.14900074476E+02  0.10500000000E+00 0.  1.
         13    1    4    4    0    0 -0.35822696035E+01 -0.20442083699E+01  0.18531251982E+01  0.45228908203E+01  0.10500000000E+00 0. -1.
    3000001    1    5    5    0    0  0.67003966351E+01  0.86137871970E+01 -0.85681232408E+01  0.13910621151E+02  0.10000000000E+01 0.  1.
        -13    1    6    6    0    0  0.10185124921E+02  0.94682162956E+01 -0.45697891144E+01  0.14638233740E+02  0.10500000000E+00 0. -1.
         13    1    6    6    0    0  0.23699779084E+02  0.21941201402E+02 -0.10467730246E+02  0.33951145033E+02  0.10500000000E+00 0.  1.
</event>
<event>
11    0  0.3482988E-009  0.9118800E+02  0.7816531E-02  0.1126479E+00
         25   -1    0    0    0    0  0.00000000000E+00  0.00000000000E+00  0.99999998245E-14  0.12500000000E+03  0.12500000000E+03 0.  0.
    3000001    1    3    3    0    0 -0.29146484432E+02  0.51049501687E+02 -0.38171338464E+01  0.58916378776E+02  0.10000000000E+01 0.  1.
    1000022    2    1    0    0    0 -0.31939641388E+02  0.52731230834E+02 -0.23508798027E+01  0.62499999718E+02  0.99999965824E+01 0.  0.
    3000022    2    3    3    0    0 -0.27931569558E+01  0.16817291470E+01  0.14662540437E+01  0.35836209423E+01  0.24999886751E+00 0.  0.
    1000022    2    1    0    0    0  0.31939641388E+02 -0.52731230834E+02  0.23508798027E+01  0.62500000282E+02  0.10000000109E+02 0.  0.
    3000022    2    5    5    0    0  0.19049682453E+02 -0.21945477303E+02  0.73295658674E+00  0.29070502270E+02  0.25000252716E+00 0.  0.
        -13    1    4    4    0    0 -0.12480785649E+01  0.82843836668E+00  0.68661383665E+00  0.16512037403E+01  0.10500000000E+00 0.  1.
         13    1    4    4    0    0 -0.15450783909E+01  0.85329078033E+00  0.77964020710E+00  0.19324172020E+01  0.10500000000E+00 0. -1.
    3000001    1    5    5    0    0  0.12889958935E+02 -0.30785753531E+02  0.16179232159E+01  0.33429498012E+02  0.10000000000E+01 0.  1.
        -13    1    6    6    0    0  0.59323747324E+01 -0.67626160041E+01  0.23845683957E+00  0.89996628742E+01  0.10500000000E+00 0.  1.
         13    1    6    6    0    0  0.13117307720E+02 -0.15182861299E+02  0.49449974717E+00  0.20070839396E+02  0.10500000000E+00 0. -1.
</event>
<event>
11    0  0.3482988E-009  0.9118800E+02  0.7816531E-02  0.1126479E+00
         25   -1    0    0    0    0  0.00000000000E+00  0.00000000000E+00  0.99999998245E-14  0.12500000000E+03  0.12500000000E+03 0.  0.
    3000001    1    3    3    0    0 -0.61199896567E+01  0.60740573403E+01 -0.33389439536E+02  0.34499320551E+02  0.10000000000E+01 0. -1.
    1000022    2    1    0    0    0 -0.19437402620E+02  0.93947509671E+01 -0.57794252610E+02  0.62499997192E+02  0.10000002395E+02 0.  0.
    3000022    2    3    3    0    0 -0.13317412963E+02  0.33206936268E+01 -0.24404813074E+02  0.28000676641E+02  0.24999391918E+00 0.  0.
    1000022    2    1    0    0    0  0.19437402620E+02 -0.93947509671E+01  0.57794252610E+02  0.62500002808E+02  0.10000037493E+02 0.  0.
    3000022    2    5    5    0    0  0.12923725028E+02 -0.43722856953E+01  0.23093249943E+02  0.26823501588E+02  0.24998740812E+00 0.  0.
        -13    1    4    4    0    0 -0.47114132893E+01  0.11169772591E+01 -0.85900114227E+01  0.98612562395E+01  0.10500000000E+00 0.  1.
         13    1    4    4    0    0 -0.86059996738E+01  0.22037163676E+01 -0.15814801652E+02  0.18139420401E+02  0.10500000000E+00 0. -1.
    3000001    1    5    5    0    0  0.65136775916E+01 -0.50224652718E+01  0.34701002668E+02  0.35676501220E+02  0.10000000000E+01 0.  1.
        -13    1    6    6    0    0  0.66382473050E+01 -0.22327770783E+01  0.11985533711E+02  0.13882206745E+02  0.10500000000E+00 0.  1.
         13    1    6    6    0    0  0.62854777232E+01 -0.21395086170E+01  0.11107716231E+02  0.12941294843E+02  0.10500000000E+00 0. -1.
</event>
<event>
11    0  0.3482988E-009  0.9118800E+02  0.7816531E-02  0.1126479E+00
         25   -1    0    0    0    0  0.00000000000E+00  0.00000000000E+00  0.99999998245E-14  0.12500000000E+03  0.12500000000E+03 0.  0.
    3000001    1    3    3    0    0 -0.13218886939E+02 -0.71802894202E+01 -0.75342363747E+01  0.16854086917E+02  0.10000000000E+01 0. -1.
    1000022    2    1    0    0    0 -0.52499875821E+02 -0.11066755596E+02 -0.30455541250E+02  0.62500000421E+02  0.10000000957E+02 0.  0.
    3000022    2    3    3    0    0 -0.39280988882E+02 -0.38864661759E+01 -0.22921304876E+02  0.45645913504E+02  0.24999104276E+00 0.  0.
    1000022    2    1    0    0    0  0.52499875821E+02  0.11066755596E+02  0.30455541250E+02  0.62499999579E+02  0.99999956937E+01 0.  0.
    3000022    2    5    5    0    0  0.87355773604E+01  0.77613086251E+00  0.12076674939E+01  0.88562777056E+01  0.25000617323E+00 0.  0.
        -13    1    4    4    0    0 -0.10473265230E+02 -0.10530246808E+01 -0.60775338646E+01  0.12155064312E+02  0.10500000000E+00 0. -1.
         13    1    4    4    0    0 -0.28807723652E+02 -0.28334414951E+01 -0.16843771011E+02  0.33490849192E+02  0.10500000000E+00 0.  1.
    3000001    1    5    5    0    0  0.43764298460E+02  0.10290624734E+02  0.29247873757E+02  0.53643721873E+02  0.10000000000E+01 0.  1.
        -13    1    6    6    0    0  0.29914855037E+01  0.27959910608E+00  0.46790717967E+00  0.30425521044E+01  0.10500000000E+00 0. -1.
         13    1    6    6    0    0  0.57440918567E+01  0.49653175643E+00  0.73976031418E+00  0.58137256012E+01  0.10500000000E+00 0.  1.
</event>
<event>
11    0  0.3482988E-009  0.9118800E+02  0.7816531E-02  0.1126479E+00
         25   -1    0    0    0    0  0.00000000000E+00  0.00000000000E+00  0.99999998245E-14  0.12500000000E+03  0.12500000000E+03 0.  0.
    3000001    1    3    3    0    0 -0.46839951736E+02  0.26559532260E+02  0.17386153136E+02  0.56592120947E+02  0.10000000000E+01 0. -1.
    1000022    2    1    0    0    0 -0.52486305297E+02  0.27971089301E+02  0.16402920127E+02  0.62500001215E+02  0.10000014137E+02 0.  0.
    3000022    2    3    3    0    0 -0.56463535613E+01  0.14115570418E+01 -0.98323300896E+00  0.59078802676E+01  0.25000056938E+00 0.  0.
    1000022    2    1    0    0    0  0.52486305297E+02 -0.27971089301E+02 -0.16402920127E+02  0.62499998785E+02  0.99999989506E+01 0.  0.
    3000022    2    5    5    0    0  0.36134479174E+02 -0.16690718946E+02 -0.66803582211E+01  0.40360505048E+02  0.24999536365E+00 0.  0.
        -13    1    4    4    0    0 -0.26310595220E+01  0.72704718445E+00 -0.45652370431E+00  0.27695686866E+01  0.10500000000E+00 0. -1.
         13    1    4    4    0    0 -0.30152940392E+01  0.68450985734E+00 -0.52670930465E+00  0.31383115810E+01  0.10500000000E+00 0.  1.
    3000001    1    5    5    0    0  0.16351826123E+02 -0.11280370355E+02 -0.97225619060E+01  0.22139493737E+02  0.10000000000E+01 0.  1.
        -13    1    6    6    0    0  0.24071670938E+02 -0.11070556103E+02 -0.44153405549E+01  0.26860916057E+02  0.10500000000E+00 0.  1.
         13    1    6    6    0    0  0.12062808235E+02 -0.56201628431E+01 -0.22650176662E+01  0.13499588991E+02  0.10500000000E+00 0. -1.
</event>
<event>
11    0  0.3482988E-009  0.9118800E+02  0.7816531E-02  0.1126479E+00
         25   -1    0    0    0    0  0.00000000000E+00  0.00000000000E+00  0.99999998245E-14  0.12500000000E+03  0.12500000000E+03 0.  0.
    3000001    1    3    3    0    0  0.21631581348E+02 -0.29158398324E+02 -0.31902962446E+02  0.48341871264E+02  0.10000000000E+01 0.  1.
    1000022    2    1    0    0    0  0.27070416766E+02 -0.33358942896E+02 -0.44278929519E+02  0.62499998548E+02  0.99999842051E+01 0.  0.
    3000022    2    3    3    0    0  0.54388354178E+01 -0.42005445722E+01 -0.12375967073E+02  0.14158127284E+02  0.25000359595E+00 0.  0.
    1000022    2    1    0    0    0 -0.27070416766E+02  0.33358942896E+02  0.44278929519E+02  0.62500001452E+02  0.10000002357E+02 0.  0.
    3000022    2    5    5    0    0 -0.15920998115E+02  0.12785942979E+02  0.17218400501E+02  0.26711314796E+02  0.25000696618E+00 0.  0.
        -13    1    4    4    0    0  0.24103980576E+01 -0.19332048176E+01 -0.56366841346E+01  0.64288826942E+01  0.10500000000E+00 0.  1.
         13    1    4    4    0    0  0.30284373602E+01 -0.22673397546E+01 -0.67392829384E+01  0.77292445900E+01  0.10500000000E+00 0. -1.
    3000001    1    5    5    0    0 -0.11149418651E+02  0.20572999917E+02  0.27060529017E+02  0.35788686656E+02  0.10000000000E+01 0.  1.
        -13    1    6    6    0    0 -0.54073196541E+01  0.43186577192E+01  0.59028708312E+01  0.90964179426E+01  0.10500000000E+00 0.  1.
         13    1    6    6    0    0 -0.10513678461E+02  0.84672852597E+01  0.11315529670E+02  0.17614896854E+02  0.10500000000E+00 0. -1.
</event>
<event>
11    0  0.3482988E-009  0.9118800E+02  0.7816531E-02  0.1126479E+00
         25   -1    0    0    0    0  0.00000000000E+00  0.00000000000E+00  0.99999998245E-14  0.12500000000E+03  0.12500000000E+03 0.  0.
    3000001    1    3    3    0    0 -0.20398804649E+02  0.52375495535E+01 -0.29456569499E+02  0.36224751801E+02  0.10000000000E+01 0. -1.
    1000022    2    1    0    0    0 -0.28706749327E+02  0.49850301279E+01 -0.54381265105E+02  0.62500000135E+02  0.10000002007E+02 0.  0.
    3000022    2    3    3    0    0 -0.83079446786E+01 -0.25251942556E+00 -0.24924695606E+02  0.26275248334E+02  0.25002620473E+00 0.  0.
    1000022    2    1    0    0    0  0.28706749327E+02 -0.49850301279E+01  0.54381265105E+02  0.62499999865E+02  0.10000000321E+02 0.  0.
    3000022    2    5    5    0    0  0.26994048636E+02 -0.50135935064E+01  0.43507866721E+02  0.51447174347E+02  0.25000010790E+00 0.  0.
        -13    1    4    4    0    0 -0.61236443225E+01 -0.17933047661E+00 -0.18467862424E+02  0.19457752869E+02  0.10500000000E+00 0. -1.
         13    1    4    4    0    0 -0.21843003561E+01 -0.73188948953E-01 -0.64568331820E+01  0.68174954645E+01  0.10500000000E+00 0.  1.
    3000001    1    5    5    0    0  0.17127006914E+01  0.28563378423E-01  0.10873398383E+02  0.11052825518E+02  0.10000000000E+01 0. -1.
        -13    1    6    6    0    0  0.10808385492E+02 -0.19439810334E+01  0.17385489927E+02  0.20563719124E+02  0.10500000000E+00 0. -1.
         13    1    6    6    0    0  0.16185663144E+02 -0.30696124729E+01  0.26122376794E+02  0.30883455223E+02  0.10500000000E+00 0.  1.
</event>
<event>
11    0  0.3482988E-009  0.9118800E+02  0.7816531E-02  0.1126479E+00
         25   -1    0    0    0    0  0.00000000000E+00  0.00000000000E+00  0.99999998245E-14  0.12500000000E+03  0.12500000000E+03 0.  0.
    3000001    1    3    3    0    0  0.33064021771E+01 -0.15891228543E+01  0.18031963091E+01  0.42082209699E+01  0.10000000000E+01 0.  1.
    1000022    2    1    0    0    0  0.57213226659E+02  0.92766964874E+01  0.21138583418E+02  0.62499999511E+02  0.99999913739E+01 0.  0.
    3000022    2    3    3    0    0  0.53906824482E+02  0.10865819342E+02  0.19335387109E+02  0.58291778541E+02  0.24999023984E+00 0.  0.
    1000022    2    1    0    0    0 -0.57213226659E+02 -0.92766964874E+01 -0.21138583418E+02  0.62500000489E+02  0.99999974874E+01 0.  0.
    3000022    2    5    5    0    0 -0.56287685381E+02 -0.10153172968E+02 -0.20557674461E+02  0.60778869206E+02  0.25003160172E+00 0.  0.
        -13    1    4    4    0    0  0.15547182076E+02  0.31375960797E+01  0.55320230895E+01  0.16798026197E+02  0.10500000000E+00 0. -1.
         13    1    4    4    0    0  0.38359642406E+02  0.77282232620E+01  0.13803364020E+02  0.41493752344E+02  0.10500000000E+00 0.  1.
    3000001    1    5    5    0    0 -0.92554127789E+00  0.87647648048E+00 -0.58090895713E+00  0.17211312833E+01  0.10000000000E+01 0. -1.
        -13    1    6    6    0    0 -0.33243064930E+02 -0.60306038253E+01 -0.12085578307E+02  0.35882332372E+02  0.10500000000E+00 0. -1.
         13    1    6    6    0    0 -0.23044620451E+02 -0.41225691426E+01 -0.84720961545E+01  0.24896536834E+02  0.10500000000E+00 0.  1.
</event>
<event>
11    0  0.3482988E-009  0.9118800E+02  0.7816531E-02  0.1126479E+00
         25   -1    0    0    0    0  0.00000000000E+00  0.00000000000E+00  0.99999998245E-14  0.12500000000E+03  0.12500000000E+03 0.  0.
    3000001    1    3    3    0    0 -0.83550218859E+01  0.37240272211E+01 -0.99227610731E+01  0.13532773432E+02  0.10000000000E+01 0. -1.
    1000022    2    1    0    0    0 -0.29929123183E+02  0.33278811211E+02 -0.42461963244E+02  0.62500000113E+02  0.10000000074E+02 0.  0.
    3000022    2    3    3    0    0 -0.21574101297E+02  0.29554783990E+02 -0.32539202171E+02  0.48967226680E+02  0.25001484093E+00 0.  0.
    1000022    2    1    0    0    0  0.29929123183E+02 -0.33278811211E+02  0.42461963244E+02  0.62499999887E+02  0.99999986641E+01 0.  0.
    3000022    2    5    5    0    0  0.78315344260E+01 -0.54731032254E+01  0.14115463943E+02  0.17046893854E+02  0.24995473876E+00 0.  0.
        -13    1    4    4    0    0 -0.10175369281E+02  0.13839038482E+02 -0.15318108121E+02  0.23015485820E+02  0.10500000000E+00 0.  1.
         13    1    4    4    0    0 -0.11398732016E+02  0.15715745508E+02 -0.17221094050E+02  0.25951740861E+02  0.10500000000E+00 0. -1.
    3000001    1    5    5    0    0  0.22097588757E+02 -0.27805707985E+02  0.28346499301E+02  0.45453106033E+02  0.10000000000E+01 0. -1.
        -13    1    6    6    0    0  0.43835077387E+01 -0.31257325712E+01  0.78785923401E+01  0.95429862446E+01  0.10500000000E+00 0. -1.
         13    1    6    6    0    0  0.34480266873E+01 -0.23473706542E+01  0.62368716025E+01  0.75039076095E+01  0.10500000000E+00 0.  1.
</event>
<event>
11    0  0.3482988E-009  0.9118800E+02  0.7816531E-02  0.1126479E+00
         25   -1    0    0    0    0  0.00000000000E+00  0.00000000000E+00  0.99999998245E-14  0.12500000000E+03  0.12500000000E+03 0.  0.
    3000001    1    3    3    0    0  0.51015761831E+01 -0.13502310912E+01 -0.23702039082E+00  0.53763725891E+01  0.10000000000E+01 0. -1.
    1000022    2    1    0    0    0  0.52378982355E+02 -0.80363919545E+01 -0.31592853568E+02  0.62499998647E+02  0.10000002307E+02 0.  0.
    3000022    2    3    3    0    0  0.47277406172E+02 -0.66861608633E+01 -0.31355833177E+02  0.57123626058E+02  0.24999669136E+00 0.  0.
    1000022    2    1    0    0    0 -0.52378982355E+02  0.80363919545E+01  0.31592853568E+02  0.62500001353E+02  0.10000019217E+02 0.  0.
    3000022    2    5    5    0    0 -0.23809219643E+02  0.86281606154E+01  0.14295580486E+02  0.29081784948E+02  0.24999750074E+00 0.  0.
        -13    1    4    4    0    0  0.15863528591E+02 -0.22233643227E+01 -0.10459521570E+02  0.19131322608E+02  0.10500000000E+00 0. -1.
         13    1    4    4    0    0  0.31413877581E+02 -0.44627965406E+01 -0.20896311607E+02  0.37992303450E+02  0.10500000000E+00 0.  1.
    3000001    1    5    5    0    0 -0.28569762712E+02 -0.59176866087E+00  0.17297273083E+02  0.33418216405E+02  0.10000000000E+01 0. -1.
        -13    1    6    6    0    0 -0.12352157064E+02  0.44351128165E+01  0.73448185123E+01  0.15040059635E+02  0.10500000000E+00 0. -1.
         13    1    6    6    0    0 -0.11457062579E+02  0.41930477989E+01  0.69507619732E+01  0.14041725314E+02  0.10500000000E+00 0.  1.
</event>
<event>
11    0  0.3482988E-009  0.9118800E+02  0.7816531E-02  0.1126479E+00
         25   -1    0    0    0    0  0.00000000000E+00  0.00000000000E+00  0.99999998245E-14  0.12500000000E+03  0.12500000000E+03 0.  0.
    3000001    1    3    3    0    0 -0.43063279160E+02  0.18295494730E+02 -0.43038864007E+01  0.46996750712E+02  0.10000000000E+01 0. -1.
    1000022    2    1    0    0    0 -0.55825114879E+02  0.23753897595E+02 -0.11205306320E+02  0.62499998992E+02  0.99999941048E+01 0.  0.
    3000022    2    3    3    0    0 -0.12761835719E+02  0.54584028656E+01 -0.69014199197E+01  0.15503248280E+02  0.24999509654E+00 0.  0.
    1000022    2    1    0    0    0  0.55825114879E+02 -0.23753897595E+02  0.11205306320E+02  0.62500001008E+02  0.10000006704E+02 0.  0.
    3000022    2    5    5    0    0  0.10424829768E+02 -0.45892823978E+01 -0.17734750920E+01  0.11530234178E+02  0.24999533400E+00 0.  0.
        -13    1    4    4    0    0 -0.90975789173E+01  0.38963684915E+01 -0.48737841500E+01  0.11032335497E+02  0.10500000000E+00 0.  1.
         13    1    4    4    0    0 -0.36642568019E+01  0.15620343741E+01 -0.20276357697E+01  0.44709127827E+01  0.10500000000E+00 0. -1.
    3000001    1    5    5    0    0  0.45400285110E+02 -0.19164615197E+02  0.12978781412E+02  0.50969766830E+02  0.10000000000E+01 0. -1.
        -13    1    6    6    0    0  0.57247710803E+01 -0.24515712938E+01 -0.94651062660E+00  0.63000089759E+01  0.10500000000E+00 0.  1.
         13    1    6    6    0    0  0.47000586880E+01 -0.21377111040E+01 -0.82696446538E+00  0.52302252019E+01  0.10500000000E+00 0. -1.
</event>
<event>
11    0  0.3482988E-009  0.9118800E+02  0.7816531E-02  0.1126479E+00
         25   -1    0    0    0    0  0.00000000000E+00  0.00000000000E+00  0.99999998245E-14  0.12500000000E+03  0.12500000000E+03 0.  0.
    3000001    1    3    3    0    0 -0.11356484083E+02  0.39693925824E+00  0.58549150116E+01  0.12822141837E+02  0.10000000000E+01 0.  1.
    1000022    2    1    0    0    0 -0.46215244811E+02  0.16223873144E+02  0.37512491601E+02  0.62500001047E+02  0.10000009602E+02 0.  0.
    3000022    2    3    3    0    0 -0.34858760728E+02  0.15826933886E+02  0.31657576590E+02  0.49677859210E+02  0.25000889946E+00 0.  0.
    1000022    2    1    0    0    0  0.46215244811E+02 -0.16223873144E+02 -0.37512491601E+02  0.62499998953E+02  0.99999965102E+01 0.  0.
    3000022    2    5    5    0    0  0.34828204418E+02 -0.10741396911E+02 -0.22427874875E+02  0.42795484335E+02  0.24995484074E+00 0.  0.
        -13    1    4    4    0    0 -0.12734465184E+02  0.58101152021E+01  0.11506094333E+02  0.18119748177E+02  0.10500000000E+00 0. -1.
         13    1    4    4    0    0 -0.22124295544E+02  0.10016818684E+02  0.20151482257E+02  0.31558111034E+02  0.10500000000E+00 0.  1.
    3000001    1    5    5    0    0  0.11387040393E+02 -0.54824762331E+01 -0.15084616726E+02  0.19704514618E+02  0.10000000000E+01 0.  1.
        -13    1    6    6    0    0  0.16957562219E+02 -0.52469449176E+01 -0.11000210255E+02  0.20883127114E+02  0.10500000000E+00 0.  1.
         13    1    6    6    0    0  0.17870642199E+02 -0.54944519936E+01 -0.11427664619E+02  0.21912357221E+02  0.10500000000E+00 0. -1.
</event>
<event>
11    0  0.3482988E-009  0.9118800E+02  0.7816531E-02  0.1126479E+00
         25   -1    0    0    0    0  0.00000000000E+00  0.00000000000E+00  0.99999998245E-14  0.12500000000E+03  0.12500000000E+03 0.  0.
    3000001    1    3    3    0    0 -0.35477511351E+01  0.61699762778E+00  0.57845836195E+01  0.68868448393E+01  0.10000000000E+01 0. -1.
    1000022    2    1    0    0    0 -0.26766420850E+02  0.31310351375E+02  0.45928970802E+02  0.62499998954E+02  0.10000006099E+02 0.  0.
    3000022    2    3    3    0    0 -0.23218669715E+02  0.30693353747E+02  0.40144387182E+02  0.55613154114E+02  0.25000152359E+00 0.  0.
    1000022    2    1    0    0    0  0.26766420850E+02 -0.31310351375E+02 -0.45928970802E+02  0.62500001046E+02  0.10000019178E+02 0.  0.
    3000022    2    5    5    0    0  0.21673451054E+01 -0.51634522550E+01 -0.24790660225E+01  0.61291833620E+01  0.24999269169E+00 0.  0.
        -13    1    4    4    0    0 -0.15316552060E+02  0.20250988509E+02  0.26563776908E+02  0.36747034863E+02  0.10500000000E+00 0. -1.
         13    1    4    4    0    0 -0.79021176541E+01  0.10442365239E+02  0.13580610274E+02  0.18866119251E+02  0.10500000000E+00 0.  1.
    3000001    1    5    5    0    0  0.24599075744E+02 -0.26146899120E+02 -0.43449904779E+02  0.56370817684E+02  0.10000000000E+01 0. -1.
        -13    1    6    6    0    0  0.13864329716E+01 -0.33568448808E+01 -0.15493364190E+01  0.39499458576E+01  0.10500000000E+00 0.  1.
         13    1    6    6    0    0  0.78091213380E+00 -0.18066073742E+01 -0.92972960343E+00  0.21792375045E+01  0.10500000000E+00 0. -1.
</event>
<event>
11    0  0.3482988E-009  0.9118800E+02  0.7816531E-02  0.1126479E+00
         25   -1    0    0    0    0  0.00000000000E+00  0.00000000000E+00  0.99999998245E-14  0.12500000000E+03  0.12500000000E+03 0.  0.
    3000001    1    3    3    0    0  0.26287044855E+01  0.25672931084E+01  0.38316072920E+02  0.38504837685E+02  0.10000000000E+01 0.  1.
    1000022    2    1    0    0    0  0.91609831909E+01 -0.18151736090E+01  0.60983862431E+02  0.62500000979E+02  0.10000008858E+02 0.  0.
    3000022    2    3    3    0    0  0.65322787054E+01 -0.43824667175E+01  0.22667789511E+02  0.23995163294E+02  0.25000113605E+00 0.  0.
    1000022    2    1    0    0    0 -0.91609831909E+01  0.18151736090E+01 -0.60983862431E+02  0.62499999021E+02  0.99999966189E+01 0.  0.
    3000022    2    5    5    0    0 -0.10486066246E+01  0.31616616352E+01 -0.57619401085E+01  0.66601889521E+01  0.24996582641E+00 0.  0.
        -13    1    4    4    0    0  0.36519197851E+01 -0.25024866003E+01  0.12906506717E+02  0.13645068630E+02  0.10500000000E+00 0.  1.
         13    1    4    4    0    0  0.28803589203E+01 -0.18799801172E+01  0.97612827944E+01  0.10350094664E+02  0.10500000000E+00 0. -1.
    3000001    1    5    5    0    0 -0.81123765663E+01 -0.13464880261E+01 -0.55221922322E+02  0.55839810069E+02  0.10000000000E+01 0.  1.
        -13    1    6    6    0    0 -0.41966532915E+00  0.14115592028E+01 -0.26428816516E+01  0.30272870356E+01  0.10500000000E+00 0. -1.
         13    1    6    6    0    0 -0.62894129548E+00  0.17501024324E+01 -0.31190584570E+01  0.36329019165E+01  0.10500000000E+00 0.  1.
</event>
<event>
11    0  0.3482988E-009  0.9118800E+02  0.7816531E-02  0.1126479E+00
         25   -1    0    0    0    0  0.00000000000E+00  0.00000000000E+00  0.99999998245E-14  0.12500000000E+03  0.12500000000E+03 0.  0.
    3000001    1    3    3    0    0  0.20335894060E+02 -0.78097766348E+01 -0.14402472374E+02  0.26133740811E+02  0.10000000000E+01 0. -1.
    1000022    2    1    0    0    0  0.51857364183E+02 -0.76481658616E+01 -0.32535669427E+02  0.62499996290E+02  0.99999545049E+01 0.  0.
    3000022    2    3    3    0    0  0.31521470123E+02  0.16161077326E+00 -0.18133197054E+02  0.36366255479E+02  0.25001081732E+00 0.  0.
    1000022    2    1    0    0    0 -0.51857364183E+02  0.76481658616E+01  0.32535669427E+02  0.62500003710E+02  0.10000000881E+02 0.  0.
    3000022    2    5    5    0    0 -0.32185274073E+02  0.74765792759E+00  0.16480412293E+02  0.36167905033E+02  0.25001131040E+00 0.  0.
        -13    1    4    4    0    0  0.12068582234E+02  0.23551007282E-01 -0.69976785640E+01  0.13950977101E+02  0.10500000000E+00 0. -1.
         13    1    4    4    0    0  0.19452887889E+02  0.13805976598E+00 -0.11135518490E+02  0.22415278378E+02  0.10500000000E+00 0.  1.
    3000001    1    5    5    0    0 -0.19672090110E+02  0.69005079340E+01  0.16055257135E+02  0.26332098677E+02  0.10000000000E+01 0.  1.
        -13    1    6    6    0    0 -0.12131224809E+02  0.27140085700E+00  0.62786697762E+01  0.13662832538E+02  0.10500000000E+00 0.  1.
         13    1    6    6    0    0 -0.20054049263E+02  0.47625707058E+00  0.10201742516E+02  0.22505072495E+02  0.10500000000E+00 0. -1.
</event>
<event>
11    0  0.3482988E-009  0.9118800E+02  0.7816531E-02  0.1126479E+00
         25   -1    0    0    0    0  0.00000000000E+00  0.00000000000E+00  0.99999998245E-14  0.12500000000E+03  0.12500000000E+03 0.  0.
    3000001    1    3    3    0    0 -0.81880534857E+01 -0.32326123407E+01  0.53468175711E+00  0.88758034572E+01  0.10000000000E+01 0. -1.
    1000022    2    1    0    0    0 -0.52802330474E+02 -0.25435245798E+02 -0.19266863835E+02  0.62499999046E+02  0.10000000322E+02 0.  0.
    3000022    2    3    3    0    0 -0.44614276988E+02 -0.22202633458E+02 -0.19801545593E+02  0.53624195589E+02  0.25000218877E+00 0.  0.
    1000022    2    1    0    0    0  0.52802330474E+02  0.25435245798E+02  0.19266863835E+02  0.62500000954E+02  0.10000012243E+02 0.  0.
    3000022    2    5    5    0    0  0.49487257766E+02  0.24249884205E+02  0.15500595399E+02  0.57248375767E+02  0.25001013441E+00 0.  0.
        -13    1    4    4    0    0 -0.17297117535E+02 -0.86716811065E+01 -0.77142348504E+01  0.20830477012E+02  0.10500000000E+00 0. -1.
         13    1    4    4    0    0 -0.27317159453E+02 -0.13530952351E+02 -0.12087310742E+02  0.32793718577E+02  0.10500000000E+00 0.  1.
    3000001    1    5    5    0    0  0.33150727077E+01  0.11853615935E+01  0.37662684369E+01  0.52516251869E+01  0.10000000000E+01 0. -1.
        -13    1    6    6    0    0  0.26198871409E+02  0.12788463906E+02  0.81473430597E+01  0.30270710202E+02  0.10500000000E+00 0. -1.
         13    1    6    6    0    0  0.23288386357E+02  0.11461420298E+02  0.73532523389E+01  0.26977665565E+02  0.10500000000E+00 0.  1.
</event>
<event>
11    0  0.3482988E-009  0.9118800E+02  0.7816531E-02  0.1126479E+00
         25   -1    0    0    0    0  0.00000000000E+00  0.00000000000E+00  0.99999998245E-14  0.12500000000E+03  0.12500000000E+03 0.  0.
    3000001    1    3    3    0    0  0.53189239348E+02 -0.92962615862E+01 -0.14440003008E+02  0.55901961940E+02  0.10000000000E+01 0.  1.
    1000022    2    1    0    0    0  0.57732706408E+02 -0.13035413134E+02 -0.17414438558E+02  0.62500000651E+02  0.10000001317E+02 0.  0.
    3000022    2    3    3    0    0  0.45434670595E+01 -0.37391515474E+01 -0.29744355503E+01  0.65980387105E+01  0.25000153360E+00 0.  0.
    1000022    2    1    0    0    0 -0.57732706408E+02  0.13035413134E+02  0.17414438558E+02  0.62499999349E+02  0.99999931814E+01 0.  0.
    3000022    2    5    5    0    0 -0.35595995760E+02  0.31636380209E+01  0.94184431611E+01  0.36957449661E+02  0.24998840226E+00 0.  0.
        -13    1    4    4    0    0  0.16640406853E+01 -0.14473808390E+01 -0.11144984009E+01  0.24732719991E+01  0.10500000000E+00 0. -1.
         13    1    4    4    0    0  0.28794263742E+01 -0.22917707083E+01 -0.18599371494E+01  0.41247667114E+01  0.10500000000E+00 0.  1.
    3000001    1    5    5    0    0 -0.22136710647E+02  0.98717751127E+01  0.79959953971E+01  0.25542549688E+02  0.10000000000E+01 0. -1.
        -13    1    6    6    0    0 -0.26252695348E+02  0.23542253397E+01  0.69727064116E+01  0.27264923431E+02  0.10500000000E+00 0.  1.
         13    1    6    6    0    0 -0.93433004120E+01  0.80941268114E+00  0.24457367495E+01  0.96925262303E+01  0.10500000000E+00 0. -1.
</event>
<event>
11    0  0.3482988E-009  0.9118800E+02  0.7816531E-02  0.1126479E+00
         25   -1    0    0    0    0  0.00000000000E+00  0.00000000000E+00  0.99999998245E-14  0.12500000000E+03  0.12500000000E+03 0.  0.
    3000001    1    3    3    0    0  0.25479024551E+02 -0.42294671257E+02 -0.15287386868E+02  0.51698395585E+02  0.10000000000E+01 0.  1.
    1000022    2    1    0    0    0  0.29521914697E+02 -0.49310267812E+02 -0.22432224537E+02  0.62500004760E+02  0.99999969082E+01 0.  0.
    3000022    2    3    3    0    0  0.40428901468E+01 -0.70155965552E+01 -0.71448376688E+01  0.10801609175E+02  0.24999937307E+00 0.  0.
    1000022    2    1    0    0    0 -0.29521914697E+02  0.49310267812E+02  0.22432224537E+02  0.62499995240E+02  0.99999374113E+01 0.  0.
    3000022    2    5    5    0    0 -0.13189049231E+02  0.17298174913E+02  0.12957185054E+02  0.25320525646E+02  0.24999902023E+00 0.  0.
        -13    1    4    4    0    0  0.17467597232E+01 -0.31555616273E+01 -0.31510864994E+01  0.47905229193E+01  0.10500000000E+00 0. -1.
         13    1    4    4    0    0  0.22961304237E+01 -0.38600349279E+01 -0.39937511694E+01  0.60110862555E+01  0.10500000000E+00 0.  1.
    3000001    1    5    5    0    0 -0.16332865467E+02  0.32012092899E+02  0.94750394828E+01  0.37179469594E+02  0.10000000000E+01 0. -1.
        -13    1    6    6    0    0 -0.98441693982E+01  0.12907798814E+02  0.96360463786E+01  0.18878118449E+02  0.10500000000E+00 0.  1.
         13    1    6    6    0    0 -0.33448798325E+01  0.43903760998E+01  0.33211386753E+01  0.64424071970E+01  0.10500000000E+00 0. -1.
</event>
<event>
11    0  0.3482988E-009  0.9118800E+02  0.7816531E-02  0.1126479E+00
         25   -1    0    0    0    0  0.00000000000E+00  0.00000000000E+00  0.99999998245E-14  0.12500000000E+03  0.12500000000E+03 0.  0.
    3000001    1    3    3    0    0 -0.39039154994E+01 -0.11752318681E+01  0.99338475236E+00  0.43137616342E+01  0.10000000000E+01 0.  1.
    1000022    2    1    0    0    0 -0.42912239690E+02 -0.44323373939E+02 -0.47777842198E+00  0.62500000047E+02  0.99999970528E+01 0.  0.
    3000022    2    3    3    0    0 -0.39008324191E+02 -0.43148142071E+02 -0.14711631743E+01  0.58186238413E+02  0.24999833909E+00 0.  0.
    1000022    2    1    0    0    0  0.42912239690E+02  0.44323373939E+02  0.47777842198E+00  0.62499999953E+02  0.99999964673E+01 0.  0.
    3000022    2    5    5    0    0  0.30766464852E+00  0.19886146007E+01  0.13284767780E+01  0.24241699512E+01  0.25000767354E+00 0.  0.
        -13    1    4    4    0    0 -0.23692452289E+02 -0.26227319385E+02 -0.83317717519E+00  0.35354063229E+02  0.10500000000E+00 0.  1.
         13    1    4    4    0    0 -0.15315871902E+02 -0.16920822686E+02 -0.63798599915E+00  0.22832175184E+02  0.10500000000E+00 0. -1.
    3000001    1    5    5    0    0  0.42604575041E+02  0.42334759339E+02 -0.85069835599E+00  0.60075830002E+02  0.10000000000E+01 0. -1.
        -13    1    6    6    0    0  0.13900780265E+00  0.73155448024E+00  0.55839720698E+00  0.93665765759E+00  0.10500000000E+00 0.  1.
         13    1    6    6    0    0  0.16865684587E+00  0.12570601205E+01  0.77007957100E+00  0.14875122937E+01  0.10500000000E+00 0. -1.
</event>
<event>
11    0  0.3482988E-009  0.9118800E+02  0.7816531E-02  0.1126479E+00
         25   -1    0    0    0    0  0.00000000000E+00  0.00000000000E+00  0.99999998245E-14  0.12500000000E+03  0.12500000000E+03 0.  0.
    3000001    1    3    3    0    0  0.53375140323E+01 -0.28244511787E+01  0.40311992399E+00  0.61342551446E+01  0.10000000000E+01 0.  1.
    1000022    2    1    0    0    0  0.61656786927E+02 -0.15685509496E+01 -0.14934478785E+01  0.62500000515E+02  0.99999975801E+01 0.  0.
    3000022    2    3    3    0    0  0.56319272894E+02  0.12559002291E+01 -0.18965678025E+01  0.56365745370E+02  0.24999398199E+00 0.  0.
    1000022    2    1    0    0    0 -0.61656786927E+02  0.15685509496E+01  0.14934478785E+01  0.62499999485E+02  0.99999911426E+01 0.  0.
    3000022    2    5    5    0    0 -0.38787068250E+02  0.48178798866E+01 -0.18957058640E+01  0.39131890148E+02  0.24999161184E+00 0.  0.
        -13    1    4    4    0    0  0.33037079587E+02  0.69387916859E+00 -0.11604485841E+01  0.33064902266E+02  0.10500000000E+00 0. -1.
         13    1    4    4    0    0  0.23282193308E+02  0.56202106054E+00 -0.73611921833E+00  0.23300843105E+02  0.10500000000E+00 0.  1.
    3000001    1    5    5    0    0 -0.22869718676E+02 -0.32493289370E+01  0.33891537424E+01  0.23368109337E+02  0.10000000000E+01 0.  1.
        -13    1    6    6    0    0 -0.13528588996E+02  0.17132410843E+01 -0.61540161744E+00  0.13650921558E+02  0.10500000000E+00 0. -1.
         13    1    6    6    0    0 -0.25258479254E+02  0.31046388023E+01 -0.12803042465E+01  0.25480968590E+02  0.10500000000E+00 0.  1.
</event>
<event>
11    0  0.3482988E-009  0.9118800E+02  0.7816531E-02  0.1126479E+00
         25   -1    0    0    0    0  0.00000000000E+00  0.00000000000E+00  0.99999998245E-14  0.12500000000E+03  0.12500000000E+03 0.  0.
    3000001    1    3    3    0    0  0.19015483216E+01  0.21687013928E+01 -0.10964842919E+01  0.32436753156E+01  0.10000000000E+01 0.  1.
    1000022    2    1    0    0    0  0.51006956352E+02  0.32125288554E+02  0.13134162865E+02  0.62500000154E+02  0.10000001199E+02 0.  0.
    3000022    2    3    3    0    0  0.49105408031E+02  0.29956587161E+02  0.14230647157E+02  0.59256324838E+02  0.25000511188E+00 0.  0.
    1000022    2    1    0    0    0 -0.51006956352E+02 -0.32125288554E+02 -0.13134162865E+02  0.62499999846E+02  0.99999992806E+01 0.  0.
    3000022    2    5    5    0    0 -0.18138988334E+02 -0.16740604072E+02 -0.72063994399E+01  0.25715081503E+02  0.25000273686E+00 0.  0.
        -13    1    4    4    0    0  0.15829302916E+02  0.96015392028E+01  0.46010263239E+01  0.19077129084E+02  0.10500000000E+00 0. -1.
         13    1    4    4    0    0  0.33276105115E+02  0.20355047959E+02  0.96296208332E+01  0.40179195754E+02  0.10500000000E+00 0.  1.
    3000001    1    5    5    0    0 -0.32867968019E+02 -0.15384684483E+02 -0.59277634253E+01  0.36784918343E+02  0.10000000000E+01 0.  1.
        -13    1    6    6    0    0 -0.90762163703E+01 -0.83101437734E+01 -0.35436259888E+01  0.12806424297E+02  0.10500000000E+00 0.  1.
         13    1    6    6    0    0 -0.90627719634E+01 -0.84304602982E+01 -0.36627734511E+01  0.12908657206E+02  0.10500000000E+00 0. -1.
</event>
<event>
11    0  0.3482988E-009  0.9118800E+02  0.7816531E-02  0.1126479E+00
         25   -1    0    0    0    0  0.00000000000E+00  0.00000000000E+00  0.99999998245E-14  0.12500000000E+03  0.12500000000E+03 0.  0.
    3000001    1    3    3    0    0 -0.36049342175E+01 -0.93479896532E+00 -0.55331014227E+01  0.67442279893E+01  0.10000000000E+01 0. -1.
    1000022    2    1    0    0    0 -0.52358911281E+02 -0.84438153294E+01 -0.31519783120E+02  0.62499996579E+02  0.99999618331E+01 0.  0.
    3000022    2    3    3    0    0 -0.48753977063E+02 -0.75090163641E+01 -0.25986681697E+02  0.55755768590E+02  0.24999837393E+00 0.  0.
    1000022    2    1    0    0    0  0.52358911281E+02  0.84438153294E+01  0.31519783120E+02  0.62500003421E+02  0.10000004593E+02 0.  0.
    3000022    2    5    5    0    0  0.13466917946E+02 -0.21454320956E+01  0.74295906327E+01  0.15531325766E+02  0.25001048124E+00 0.  0.
        -13    1    4    4    0    0 -0.37025877507E+02 -0.56845969218E+01 -0.19743622091E+02  0.42344443385E+02  0.10500000000E+00 0.  1.
         13    1    4    4    0    0 -0.11728099556E+02 -0.18244194423E+01 -0.62430596061E+01  0.13411325205E+02  0.10500000000E+00 0. -1.
    3000001    1    5    5    0    0  0.38891993335E+02  0.10589247425E+02  0.24090192487E+02  0.46968677655E+02  0.10000000000E+01 0. -1.
        -13    1    6    6    0    0  0.92095542804E+01 -0.14987894742E+01  0.50388875120E+01  0.10604889075E+02  0.10500000000E+00 0.  1.
         13    1    6    6    0    0  0.42573636651E+01 -0.64664262144E+00  0.23907031206E+01  0.49264366907E+01  0.10500000000E+00 0. -1.
</event>
<event>
11    0  0.3482988E-009  0.9118800E+02  0.7816531E-02  0.1126479E+00
         25   -1    0    0    0    0  0.00000000000E+00  0.00000000000E+00  0.99999998245E-14  0.12500000000E+03  0.12500000000E+03 0.  0.
    3000001    1    3    3    0    0 -0.28457920672E+02 -0.47004604591E+01 -0.42941250040E+02  0.51738752715E+02  0.10000000000E+01 0. -1.
    1000022    2    1    0    0    0 -0.33118562474E+02 -0.99534803144E+01 -0.51091476486E+02  0.62500002251E+02  0.10000018060E+02 0.  0.
    3000022    2    3    3    0    0 -0.46606418013E+01 -0.52530198553E+01 -0.81502264455E+01  0.10761249536E+02  0.25000171526E+00 0.  0.
    1000022    2    1    0    0    0  0.33118562474E+02  0.99534803144E+01  0.51091476486E+02  0.62499997749E+02  0.99999899206E+01 0.  0.
    3000022    2    5    5    0    0  0.20240829031E+02  0.63789136406E+01  0.22540233827E+02  0.30959753570E+02  0.25000204429E+00 0.  0.
        -13    1    4    4    0    0 -0.14564461659E+01 -0.16186385970E+01 -0.24585389120E+01  0.32858278902E+01  0.10500000000E+00 0.  1.
         13    1    4    4    0    0 -0.32041956355E+01 -0.36343812583E+01 -0.56916875334E+01  0.74754216456E+01  0.10500000000E+00 0. -1.
    3000001    1    5    5    0    0  0.12877733443E+02  0.35745666739E+01  0.28551242658E+02  0.31540244179E+02  0.10000000000E+01 0.  1.
        -13    1    6    6    0    0  0.50537837824E+01  0.15839359418E+01  0.56619393835E+01  0.77535905340E+01  0.10500000000E+00 0.  1.
         13    1    6    6    0    0  0.15187045248E+02  0.47949776988E+01  0.16878294444E+02  0.23206163036E+02  0.10500000000E+00 0. -1.
</event>
<event>
11    0  0.3482988E-009  0.9118800E+02  0.7816531E-02  0.1126479E+00
         25   -1    0    0    0    0  0.00000000000E+00  0.00000000000E+00  0.99999998245E-14  0.12500000000E+03  0.12500000000E+03 0.  0.
    3000001    1    3    3    0    0  0.11877573142E+02  0.41994882423E+02 -0.16379677334E+02  0.46625537242E+02  0.10000000000E+01 0.  1.
    1000022    2    1    0    0    0  0.17027432717E+02  0.53003163634E+02 -0.26589120502E+02  0.62499998897E+02  0.99999856477E+01 0.  0.
    3000022    2    3    3    0    0  0.51498595755E+01  0.11008281210E+02 -0.10209443168E+02  0.15874461655E+02  0.24998841439E+00 0.  0.
    1000022    2    1    0    0    0 -0.17027432717E+02 -0.53003163634E+02  0.26589120502E+02  0.62500001103E+02  0.99999994360E+01 0.  0.
    3000022    2    5    5    0    0 -0.13514532604E+02 -0.41467476529E+02  0.16116668886E+02  0.46497351728E+02  0.25000108445E+00 0.  0.
        -13    1    4    4    0    0  0.18065371546E+01  0.38209547109E+01 -0.34813499232E+01  0.54766863778E+01  0.10500000000E+00 0. -1.
         13    1    4    4    0    0  0.33433224209E+01  0.71873264993E+01 -0.67280932444E+01  0.10397775278E+02  0.10500000000E+00 0.  1.
    3000001    1    5    5    0    0 -0.35129001127E+01 -0.11535687105E+02  0.10472451616E+02  0.16002649375E+02  0.10000000000E+01 0. -1.
        -13    1    6    6    0    0 -0.37169860300E+01 -0.11484230036E+02  0.44922933435E+01  0.12880032964E+02  0.10500000000E+00 0. -1.
         13    1    6    6    0    0 -0.97975465743E+01 -0.29983246493E+02  0.11624375543E+02  0.33617318764E+02  0.10500000000E+00 0.  1.
</event>
<event>
11    0  0.3482988E-009  0.9118800E+02  0.7816531E-02  0.1126479E+00
         25   -1    0    0    0    0  0.00000000000E+00  0.00000000000E+00  0.99999998245E-14  0.12500000000E+03  0.12500000000E+03 0.  0.
    3000001    1    3    3    0    0  0.62279067795E+01  0.18312932966E+02 -0.38306107173E+02  0.42924447386E+02  0.10000000000E+01 0. -1.
    1000022    2    1    0    0    0  0.15183959061E+02  0.27403058365E+02 -0.53148562524E+02  0.62499999325E+02  0.99999998390E+01 0.  0.
    3000022    2    3    3    0    0  0.89560522810E+01  0.90901253997E+01 -0.14842455351E+02  0.19575551939E+02  0.25000127135E+00 0.  0.
    1000022    2    1    0    0    0 -0.15183959061E+02 -0.27403058365E+02  0.53148562524E+02  0.62500000675E+02  0.10000008274E+02 0.  0.
    3000022    2    5    5    0    0 -0.15305799590E+02 -0.18916441854E+02  0.39822251269E+02  0.46668763307E+02  0.24999802614E+00 0.  0.
        -13    1    4    4    0    0  0.66406276843E+01  0.66968946590E+01 -0.10951813280E+02  0.14453358545E+02  0.10500000000E+00 0.  1.
         13    1    4    4    0    0  0.23154245967E+01  0.23932307407E+01 -0.38906420710E+01  0.51221933940E+01  0.10500000000E+00 0. -1.
    3000001    1    5    5    0    0  0.12184052928E+00 -0.84866165112E+01  0.13326311255E+02  0.15831237367E+02  0.10000000000E+01 0.  1.
        -13    1    6    6    0    0 -0.96009241522E+01 -0.11960110653E+02  0.25090620223E+02  0.29407010042E+02  0.10500000000E+00 0. -1.
         13    1    6    6    0    0 -0.57048754376E+01 -0.69563312015E+01  0.14731631046E+02  0.17261753266E+02  0.10500000000E+00 0.  1.
</event>
<event>
11    0  0.3482988E-009  0.9118800E+02  0.7816531E-02  0.1126479E+00
         25   -1    0    0    0    0  0.00000000000E+00  0.00000000000E+00  0.99999998245E-14  0.12500000000E+03  0.12500000000E+03 0.  0.
    3000001    1    3    3    0    0 -0.11404264719E+02  0.25197088201E+01  0.44062852004E+02  0.45595406710E+02  0.10000000000E+01 0.  1.
    1000022    2    1    0    0    0 -0.18335873282E+02 -0.17298018707E+01  0.58881678384E+02  0.62500011509E+02  0.10000146288E+02 0.  0.
    3000022    2    3    3    0    0 -0.69316085634E+01 -0.42495106908E+01  0.14818826380E+02  0.16904604799E+02  0.25001949550E+00 0.  0.
    1000022    2    1    0    0    0  0.18335873282E+02  0.17298018707E+01 -0.58881678384E+02  0.62499988491E+02  0.10000002428E+02 0.  0.
    3000022    2    5    5    0    0  0.47626206082E+01  0.50440132118E+01 -0.20308416222E+02  0.21462033635E+02  0.24998792677E+00 0.  0.
        -13    1    4    4    0    0 -0.26102640614E+01 -0.15405938067E+01  0.55911775571E+01  0.63607546111E+01  0.10500000000E+00 0.  1.
         13    1    4    4    0    0 -0.43213445020E+01 -0.27089168841E+01  0.92276488228E+01  0.10543850188E+02  0.10500000000E+00 0. -1.
    3000001    1    5    5    0    0  0.13573252674E+02 -0.33142113410E+01 -0.38573262162E+02  0.41037954856E+02  0.10000000000E+01 0. -1.
        -13    1    6    6    0    0  0.24405511388E+01  0.25246507790E+01 -0.10112417204E+02  0.10705239751E+02  0.10500000000E+00 0.  1.
         13    1    6    6    0    0  0.23220694694E+01  0.25193624328E+01 -0.10195999017E+02  0.10756793883E+02  0.10500000000E+00 0. -1.
</event>
<event>
11    0  0.3482988E-009  0.9118800E+02  0.7816531E-02  0.1126479E+00
         25   -1    0    0    0    0  0.00000000000E+00  0.00000000000E+00  0.99999998245E-14  0.12500000000E+03  0.12500000000E+03 0.  0.
    3000001    1    3    3    0    0  0.47108521098E+02  0.28554527316E+01 -0.24576130601E+02  0.53219851237E+02  0.10000000000E+01 0. -1.
    1000022    2    1    0    0    0  0.55682294908E+02 -0.75658481875E-01 -0.26565511663E+02  0.62499999398E+02  0.99999912181E+01 0.  0.
    3000022    2    3    3    0    0  0.85737738105E+01 -0.29311112135E+01 -0.19893810618E+01  0.92801481612E+01  0.25000517411E+00 0.  0.
    1000022    2    1    0    0    0 -0.55682294908E+02  0.75658481875E-01  0.26565511663E+02  0.62500000602E+02  0.99999987447E+01 0.  0.
    3000022    2    5    5    0    0 -0.71009291211E+01  0.15842051479E+01  0.69880968326E+01  0.10091032035E+02  0.25005971835E+00 0.  0.
        -13    1    4    4    0    0  0.62385113433E+01 -0.21591539891E+01 -0.14217034022E+01  0.67537571242E+01  0.10500000000E+00 0.  1.
         13    1    4    4    0    0  0.23352624672E+01 -0.77195722433E+00 -0.56767765959E+00  0.25263910370E+01  0.10500000000E+00 0. -1.
    3000001    1    5    5    0    0 -0.48581365787E+02 -0.15085466660E+01  0.19577414830E+02  0.52408968567E+02  0.10000000000E+01 0. -1.
        -13    1    6    6    0    0 -0.43494442944E+01  0.95603831042E+00  0.41929264717E+01  0.61174612641E+01  0.10500000000E+00 0.  1.
         13    1    6    6    0    0 -0.27514848268E+01  0.62816683749E+00  0.27951703609E+01  0.39735707712E+01  0.10500000000E+00 0. -1.
</event>
<event>
11    0  0.3482988E-009  0.9118800E+02  0.7816531E-02  0.1126479E+00
         25   -1    0    0    0    0  0.00000000000E+00  0.00000000000E+00  0.99999998245E-14  0.12500000000E+03  0.12500000000E+03 0.  0.
    3000001    1    3    3    0    0  0.13413562027E+02 -0.21611963568E+01 -0.12802936602E+02  0.18695175890E+02  0.10000000000E+01 0.  1.
    1000022    2    1    0    0    0  0.53163933387E+02 -0.24784181794E+01 -0.31204225594E+02  0.62499999575E+02  0.99999941018E+01 0.  0.
    3000022    2    3    3    0    0  0.39750371360E+02 -0.31722182258E+00 -0.18401288992E+02  0.43804823684E+02  0.24997694438E+00 0.  0.
    1000022    2    1    0    0    0 -0.53163933387E+02  0.24784181794E+01  0.31204225594E+02  0.62500000425E+02  0.99999994199E+01 0.  0.
    3000022    2    5    5    0    0 -0.33411312107E+02  0.23389497177E-01  0.24646896878E+02  0.41519252747E+02  0.24999831061E+00 0.  0.
        -13    1    4    4    0    0  0.26316770886E+02 -0.26425547372E+00 -0.12186848882E+02  0.29002975218E+02  0.10500000000E+00 0. -1.
         13    1    4    4    0    0  0.13433600474E+02 -0.52966348861E-01 -0.62144401102E+01  0.14801848466E+02  0.10500000000E+00 0.  1.
    3000001    1    5    5    0    0 -0.19752621280E+02  0.24550286822E+01  0.65573287157E+01  0.20980747678E+02  0.10000000000E+01 0.  1.
        -13    1    6    6    0    0 -0.20564920377E+02  0.56744721525E-01  0.15225407738E+02  0.25587950990E+02  0.10500000000E+00 0.  1.
         13    1    6    6    0    0 -0.12846391731E+02 -0.33355224348E-01  0.94214891403E+01  0.15931301758E+02  0.10500000000E+00 0. -1.
</event>
<event>
11    0  0.3482988E-009  0.9118800E+02  0.7816531E-02  0.1126479E+00
         25   -1    0    0    0    0  0.00000000000E+00  0.00000000000E+00  0.99999998245E-14  0.12500000000E+03  0.12500000000E+03 0.  0.
    3000001    1    3    3    0    0 -0.31350476998E+02  0.19833140013E+02  0.12193740065E+02  0.39062682288E+02  0.10000000000E+01 0.  1.
    1000022    2    1    0    0    0 -0.53395510908E+02  0.27600217132E+02  0.13906734616E+02  0.62499999808E+02  0.10000006871E+02 0.  0.
    3000022    2    3    3    0    0 -0.22045033910E+02  0.77670771195E+01  0.17129945517E+01  0.23437317520E+02  0.24999024469E+00 0.  0.
    1000022    2    1    0    0    0  0.53395510908E+02 -0.27600217132E+02 -0.13906734616E+02  0.62500000192E+02  0.10000009276E+02 0.  0.
    3000022    2    5    5    0    0  0.46382275995E+02 -0.19974165944E+02 -0.12180032276E+02  0.51948999214E+02  0.25000301398E+00 0.  0.
        -13    1    4    4    0    0 -0.98122619703E+01  0.33870361328E+01  0.75502765973E+00  0.10408342352E+02  0.10500000000E+00 0.  1.
         13    1    4    4    0    0 -0.12232771940E+02  0.43800409867E+01  0.95796689198E+00  0.13028975169E+02  0.10500000000E+00 0. -1.
    3000001    1    5    5    0    0  0.70132349131E+01 -0.76260511881E+01 -0.17267023404E+01  0.10551000978E+02  0.10000000000E+01 0.  1.
        -13    1    6    6    0    0  0.21768450636E+02 -0.94474821624E+01 -0.57299013496E+01  0.24412356641E+02  0.10500000000E+00 0.  1.
         13    1    6    6    0    0  0.24613825359E+02 -0.10526683782E+02 -0.64501309262E+01  0.27536642573E+02  0.10500000000E+00 0. -1.
</event>
<event>
11    0  0.3482988E-009  0.9118800E+02  0.7816531E-02  0.1126479E+00
         25   -1    0    0    0    0  0.00000000000E+00  0.00000000000E+00  0.99999998245E-14  0.12500000000E+03  0.12500000000E+03 0.  0.
    3000001    1    3    3    0    0 -0.25451721114E+02  0.10837581658E+02 -0.12907986154E+02  0.30542746936E+02  0.10000000000E+01 0. -1.
    1000022    2    1    0    0    0 -0.46058054488E+02  0.30183068002E+02 -0.27818864681E+02  0.62499993619E+02  0.99998996520E+01 0.  0.
    3000022    2    3    3    0    0 -0.20606333374E+02  0.19345486344E+02 -0.14910878527E+02  0.31957246683E+02  0.25000023792E+00 0.  0.
    1000022    2    1    0    0    0  0.46058054488E+02 -0.30183068002E+02  0.27818864681E+02  0.62500006381E+02  0.99999794105E+01 0.  0.
    3000022    2    5    5    0    0  0.29351500335E+02 -0.18884509132E+02  0.22808649214E+02  0.41694510875E+02  0.25000213641E+00 0.  0.
        -13    1    4    4    0    0 -0.79215173804E+01  0.75083795157E+01 -0.57210802875E+01  0.12323472936E+02  0.10500000000E+00 0. -1.
         13    1    4    4    0    0 -0.12684815993E+02  0.11837106828E+02 -0.91897982396E+01  0.19633773747E+02  0.10500000000E+00 0.  1.
    3000001    1    5    5    0    0  0.16706554152E+02 -0.11298558871E+02  0.50102154668E+01  0.20805495505E+02  0.10000000000E+01 0. -1.
        -13    1    6    6    0    0  0.16485532891E+02 -0.10646636342E+02  0.12892610501E+02  0.23480930362E+02  0.10500000000E+00 0.  1.
         13    1    6    6    0    0  0.12865967444E+02 -0.82378727895E+01  0.99160387131E+01  0.18213580514E+02  0.10500000000E+00 0. -1.
</event>
<event>
11    0  0.3482988E-009  0.9118800E+02  0.7816531E-02  0.1126479E+00
         25   -1    0    0    0    0  0.00000000000E+00  0.00000000000E+00  0.99999998245E-14  0.12500000000E+03  0.12500000000E+03 0.  0.
    3000001    1    3    3    0    0  0.22477085173E+01 -0.73701461834E+01 -0.39350944474E+01  0.87095474425E+01  0.10000000000E+01 0. -1.
    1000022    2    1    0    0    0 -0.71966497499E+00 -0.60316283407E+02 -0.12949055620E+02  0.62499999633E+02  0.99999975511E+01 0.  0.
    3000022    2    3    3    0    0 -0.29673734923E+01 -0.52946137223E+02 -0.90139611731E+01  0.53790452191E+02  0.24999708962E+00 0.  0.
    1000022    2    1    0    0    0  0.71966497499E+00  0.60316283407E+02  0.12949055620E+02  0.62500000367E+02  0.10000002137E+02 0.  0.
    3000022    2    5    5    0    0 -0.32218776230E+01  0.28892351662E+02  0.26995682694E+01  0.29197579504E+02  0.25000020308E+00 0.  0.
        -13    1    4    4    0    0 -0.18649243461E+01 -0.33426609943E+02 -0.57502796477E+01  0.33968999634E+02  0.10500000000E+00 0. -1.
         13    1    4    4    0    0 -0.11024491462E+01 -0.19519527280E+02 -0.32636815254E+01  0.19821452556E+02  0.10500000000E+00 0.  1.
    3000001    1    5    5    0    0  0.39415425979E+01  0.31423931745E+02  0.10249487351E+02  0.33302420862E+02  0.10000000000E+01 0.  1.
        -13    1    6    6    0    0 -0.20757004973E+01  0.18100817762E+02  0.16726963691E+01  0.18296367791E+02  0.10500000000E+00 0. -1.
         13    1    6    6    0    0 -0.11461771256E+01  0.10791533900E+02  0.10268719003E+01  0.10901211714E+02  0.10500000000E+00 0.  1.
</event>
<event>
11    0  0.3482988E-009  0.9118800E+02  0.7816531E-02  0.1126479E+00
         25   -1    0    0    0    0  0.00000000000E+00  0.00000000000E+00  0.99999998245E-14  0.12500000000E+03  0.12500000000E+03 0.  0.
    3000001    1    3    3    0    0  0.18344927900E+02  0.32103372469E+02  0.52564269771E+01  0.37360312205E+02  0.10000000000E+01 0.  1.
    1000022    2    1    0    0    0  0.34069731401E+02  0.51404004659E+02  0.17696600674E+01  0.62500000136E+02  0.10000001376E+02 0.  0.
    3000022    2    3    3    0    0  0.15724803501E+02  0.19300632190E+02 -0.34867669096E+01  0.25139687930E+02  0.25003534105E+00 0.  0.
    1000022    2    1    0    0    0 -0.34069731401E+02 -0.51404004659E+02 -0.17696600674E+01  0.62499999864E+02  0.99999996794E+01 0.  0.
    3000022    2    5    5    0    0 -0.26279967282E+02 -0.31839473657E+02 -0.29078914547E+01  0.41387281682E+02  0.24997843754E+00 0.  0.
        -13    1    4    4    0    0  0.52339783906E+01  0.64533208618E+01 -0.11129151912E+01  0.83838824634E+01  0.10500000000E+00 0. -1.
         13    1    4    4    0    0  0.10490825111E+02  0.12847311328E+02 -0.23738517185E+01  0.16755805467E+02  0.10500000000E+00 0.  1.
    3000001    1    5    5    0    0 -0.77897641188E+01 -0.19564531002E+02  0.11382313873E+01  0.21112718183E+02  0.10000000000E+01 0.  1.
        -13    1    6    6    0    0 -0.88531903815E+01 -0.10663634007E+02 -0.10128068983E+01  0.13897081455E+02  0.10500000000E+00 0. -1.
         13    1    6    6    0    0 -0.17426776900E+02 -0.21175839650E+02 -0.18950845565E+01  0.27490200226E+02  0.10500000000E+00 0.  1.
</event>
<event>
11    0  0.3482988E-009  0.9118800E+02  0.7816531E-02  0.1126479E+00
         25   -1    0    0    0    0  0.00000000000E+00  0.00000000000E+00  0.99999998245E-14  0.12500000000E+03  0.12500000000E+03 0.  0.
    3000001    1    3    3    0    0 -0.44488617518E+01  0.32255132767E+01  0.90822893617E+01  0.10662283378E+02  0.10000000000E+01 0.  1.
    1000022    2    1    0    0    0 -0.42281417367E+02  0.21396232231E+02  0.39506113342E+02  0.62499999458E+02  0.99999966317E+01 0.  0.
    3000022    2    3    3    0    0 -0.37832555615E+02  0.18170718954E+02  0.30423823980E+02  0.51837716080E+02  0.24990222234E+00 0.  0.
    1000022    2    1    0    0    0  0.42281417367E+02 -0.21396232231E+02 -0.39506113342E+02  0.62500000542E+02  0.10000003408E+02 0.  0.
    3000022    2    5    5    0    0  0.37057145164E+01 -0.50382084210E+01 -0.74718084445E+01  0.97471192594E+01  0.25009648862E+00 0.  0.
        -13    1    4    4    0    0 -0.19113990774E+02  0.92309528431E+01  0.15448577553E+02  0.26253089478E+02  0.10500000000E+00 0. -1.
         13    1    4    4    0    0 -0.18718564841E+02  0.89397661112E+01  0.14975246427E+02  0.25584626602E+02  0.10500000000E+00 0.  1.
    3000001    1    5    5    0    0  0.38575702851E+02 -0.16358023810E+02 -0.32034304897E+02  0.52752881283E+02  0.10000000000E+01 0.  1.
        -13    1    6    6    0    0  0.14566597530E+01 -0.19479596112E+01 -0.28153754256E+01  0.37220650276E+01  0.10500000000E+00 0. -1.
         13    1    6    6    0    0  0.22490547634E+01 -0.30902488098E+01 -0.46564330189E+01  0.60250542317E+01  0.10500000000E+00 0.  1.
</event>
<event>
11    0  0.3482988E-009  0.9118800E+02  0.7816531E-02  0.1126479E+00
         25   -1    0    0    0    0  0.00000000000E+00  0.00000000000E+00  0.99999998245E-14  0.12500000000E+03  0.12500000000E+03 0.  0.
    3000001    1    3    3    0    0  0.32696491646E+02 -0.13957816060E+02 -0.29416173283E+02  0.46154007905E+02  0.10000000000E+01 0.  1.
    1000022    2    1    0    0    0  0.39427922462E+02 -0.20133812384E+02 -0.42968807782E+02  0.62500001084E+02  0.10000011130E+02 0.  0.
    3000022    2    3    3    0    0  0.67314308157E+01 -0.61759963247E+01 -0.13552634499E+02  0.16345993179E+02  0.24999944477E+00 0.  0.
    1000022    2    1    0    0    0 -0.39427922462E+02  0.20133812384E+02  0.42968807782E+02  0.62499998916E+02  0.99999975738E+01 0.  0.
    3000022    2    5    5    0    0 -0.19546055698E+02  0.45240605698E+01  0.20035337796E+02  0.28354764646E+02  0.25000029951E+00 0.  0.
        -13    1    4    4    0    0  0.44897806964E+01 -0.41288849802E+01 -0.91418807775E+01  0.10990488207E+02  0.10500000000E+00 0. -1.
         13    1    4    4    0    0  0.22416501193E+01 -0.20471113445E+01 -0.44107537214E+01  0.53555049720E+01  0.10500000000E+00 0.  1.
    3000001    1    5    5    0    0 -0.19881866764E+02  0.15609751815E+02  0.22933469986E+02  0.34145234270E+02  0.10000000000E+01 0. -1.
        -13    1    6    6    0    0 -0.11141587215E+02  0.25116633032E+01  0.11411946866E+02  0.16145803619E+02  0.10500000000E+00 0. -1.
         13    1    6    6    0    0 -0.84044684827E+01  0.20123972665E+01  0.86233909297E+01  0.12208961027E+02  0.10500000000E+00 0.  1.
</event>
<event>
11    0  0.3482988E-009  0.9118800E+02  0.7816531E-02  0.1126479E+00
         25   -1    0    0    0    0  0.00000000000E+00  0.00000000000E+00  0.99999998245E-14  0.12500000000E+03  0.12500000000E+03 0.  0.
    3000001    1    3    3    0    0  0.38284887147E+02 -0.10766731881E+02  0.27592010666E+02  0.48414606803E+02  0.10000000000E+01 0.  1.
    1000022    2    1    0    0    0  0.49397105113E+02 -0.18057121100E+02  0.32250834618E+02  0.62500000101E+02  0.10000003152E+02 0.  0.
    3000022    2    3    3    0    0  0.11112217966E+02 -0.72903892185E+01  0.46588239521E+01  0.14085393298E+02  0.25000131620E+00 0.  0.
    1000022    2    1    0    0    0 -0.49397105113E+02  0.18057121100E+02 -0.32250834618E+02  0.62499999899E+02  0.10000001891E+02 0.  0.
    3000022    2    5    5    0    0 -0.41126440992E+02  0.12766451069E+02 -0.29684298609E+02  0.52302834535E+02  0.24998977574E+00 0.  0.
        -13    1    4    4    0    0  0.49485696164E+01 -0.33259754940E+01  0.20959677419E+01  0.63209619529E+01  0.10500000000E+00 0. -1.
         13    1    4    4    0    0  0.61636483499E+01 -0.39644137245E+01  0.25628562102E+01  0.77644313452E+01  0.10500000000E+00 0.  1.
    3000001    1    5    5    0    0 -0.82706641212E+01  0.52906700309E+01 -0.25665360096E+01  0.10197165364E+02  0.10000000000E+01 0.  1.
        -13    1    6    6    0    0 -0.27432475257E+02  0.84742113756E+01 -0.19835429872E+02  0.34897109628E+02  0.10500000000E+00 0. -1.
         13    1    6    6    0    0 -0.13693965735E+02  0.42922396933E+01 -0.98488687369E+01  0.17405724907E+02  0.10500000000E+00 0.  1.
</event>
<event>
11    0  0.3482988E-009  0.9118800E+02  0.7816531E-02  0.1126479E+00
         25   -1    0    0    0    0  0.00000000000E+00  0.00000000000E+00  0.99999998245E-14  0.12500000000E+03  0.12500000000E+03 0.  0.
    3000001    1    3    3    0    0  0.13486244977E+02  0.14229541895E+02 -0.18968986967E+02  0.27298006020E+02  0.10000000000E+01 0.  1.
    1000022    2    1    0    0    0  0.21229444392E+02  0.31000989636E+02 -0.48933621315E+02  0.62500000400E+02  0.10000004367E+02 0.  0.
    3000022    2    3    3    0    0  0.77431994154E+01  0.16771447741E+02 -0.29964634348E+02  0.35201994380E+02  0.25000035072E+00 0.  0.
    1000022    2    1    0    0    0 -0.21229444392E+02 -0.31000989636E+02  0.48933621315E+02  0.62499999600E+02  0.99999993671E+01 0.  0.
    3000022    2    5    5    0    0 -0.50977452107E+01 -0.10969709821E+02  0.93796009573E+01  0.15308851955E+02  0.24998858072E+00 0.  0.
        -13    1    4    4    0    0  0.43166838110E+01  0.93315584911E+01 -0.16803145303E+02  0.19699453293E+02  0.10500000000E+00 0. -1.
         13    1    4    4    0    0  0.34265156044E+01  0.74398892498E+01 -0.13161489045E+02  0.15502541086E+02  0.10500000000E+00 0.  1.
    3000001    1    5    5    0    0 -0.16131699181E+02 -0.20031279815E+02  0.39554020358E+02  0.47191147645E+02  0.10000000000E+01 0.  1.
        -13    1    6    6    0    0 -0.25364113019E+01 -0.53348560443E+01  0.46353797529E+01  0.75094501636E+01  0.10500000000E+00 0.  1.
         13    1    6    6    0    0 -0.25613339088E+01 -0.56348537765E+01  0.47442212044E+01  0.77994017918E+01  0.10500000000E+00 0. -1.
</event>
<event>
11    0  0.3482988E-009  0.9118800E+02  0.7816531E-02  0.1126479E+00
         25   -1    0    0    0    0  0.00000000000E+00  0.00000000000E+00  0.99999998245E-14  0.12500000000E+03  0.12500000000E+03 0.  0.
    3000001    1    3    3    0    0  0.69661211064E+01  0.13145534988E+01 -0.15570451091E+01  0.73266147464E+01  0.10000000000E+01 0.  1.
    1000022    2    1    0    0    0  0.48884055110E+02  0.71282509217E+01 -0.36956573583E+02  0.62499990468E+02  0.99998836172E+01 0.  0.
    3000022    2    3    3    0    0  0.41917934004E+02  0.58136974229E+01 -0.35399528474E+02  0.55173375722E+02  0.25000707378E+00 0.  0.
    1000022    2    1    0    0    0 -0.48884055110E+02 -0.71282509217E+01  0.36956573583E+02  0.62500009532E+02  0.10000002762E+02 0.  0.
    3000022    2    5    5    0    0 -0.41768707075E+02 -0.37453253184E+01  0.27492969249E+02  0.50145570237E+02  0.25000756050E+00 0.  0.
        -13    1    4    4    0    0  0.21418846842E+02  0.29022197428E+01 -0.18078435349E+02  0.28178550870E+02  0.10500000000E+00 0.  1.
         13    1    4    4    0    0  0.20499087162E+02  0.29114776801E+01 -0.17321093124E+02  0.26994824852E+02  0.10500000000E+00 0. -1.
    3000001    1    5    5    0    0 -0.71153480350E+01 -0.33829256033E+01  0.94636043340E+01  0.12354439295E+02  0.10000000000E+01 0.  1.
        -13    1    6    6    0    0 -0.14356144859E+02 -0.12316716923E+01  0.94442683390E+01  0.17228497899E+02  0.10500000000E+00 0. -1.
         13    1    6    6    0    0 -0.27412562216E+02 -0.25136536260E+01  0.18048700910E+02  0.32917072338E+02  0.10500000000E+00 0.  1.
</event>
<event>
11    0  0.3482988E-009  0.9118800E+02  0.7816531E-02  0.1126479E+00
         25   -1    0    0    0    0  0.00000000000E+00  0.00000000000E+00  0.99999998245E-14  0.12500000000E+03  0.12500000000E+03 0.  0.
    3000001    1    3    3    0    0  0.66093731188E+01 -0.32032367331E+02  0.22456451388E+02  0.39686881696E+02  0.10000000000E+01 0.  1.
    1000022    2    1    0    0    0  0.16337810511E+02 -0.50916112052E+02  0.30771338077E+02  0.62499995402E+02  0.99999829732E+01 0.  0.
    3000022    2    3    3    0    0  0.97284373923E+01 -0.18883744721E+02  0.83148866890E+01  0.22813113706E+02  0.25001504786E+00 0.  0.
    1000022    2    1    0    0    0 -0.16337810511E+02  0.50916112052E+02 -0.30771338077E+02  0.62500004598E+02  0.10000040446E+02 0.  0.
    3000022    2    5    5    0    0 -0.14440637401E+02  0.49636254352E+02 -0.28081887370E+02  0.58829793889E+02  0.24999223355E+00 0.  0.
        -13    1    4    4    0    0  0.70633405724E+01 -0.13625777792E+02  0.60076454176E+01  0.16481972847E+02  0.10500000000E+00 0. -1.
         13    1    4    4    0    0  0.26650968199E+01 -0.52579669295E+01  0.23072412714E+01  0.63311408589E+01  0.10500000000E+00 0.  1.
    3000001    1    5    5    0    0 -0.18971731105E+01  0.12798576994E+01 -0.26894507065E+01  0.36702107085E+01  0.10000000000E+01 0.  1.
        -13    1    6    6    0    0 -0.90114317968E+01  0.30925574848E+02 -0.17431363259E+02  0.36625954360E+02  0.10500000000E+00 0. -1.
         13    1    6    6    0    0 -0.54292056038E+01  0.18710679505E+02 -0.10650524111E+02  0.22203839530E+02  0.10500000000E+00 0.  1.
</event>
<event>
11    0  0.3482988E-009  0.9118800E+02  0.7816531E-02  0.1126479E+00
         25   -1    0    0    0    0  0.00000000000E+00  0.00000000000E+00  0.99999998245E-14  0.12500000000E+03  0.12500000000E+03 0.  0.
    3000001    1    3    3    0    0 -0.15357707834E+02  0.43281572620E+02 -0.16917836581E+02  0.48952700772E+02  0.10000000000E+01 0. -1.
    1000022    2    1    0    0    0 -0.22457185708E+02  0.54812131859E+02 -0.17249744636E+02  0.62499990003E+02  0.10000003578E+02 0.  0.
    3000022    2    3    3    0    0 -0.70994778742E+01  0.11530559239E+02 -0.33190805517E+00  0.13547289231E+02  0.25000018452E+00 0.  0.
    1000022    2    1    0    0    0  0.22457185708E+02 -0.54812131859E+02  0.17249744636E+02  0.62500009997E+02  0.10000128537E+02 0.  0.
    3000022    2    5    5    0    0  0.10359624474E+02 -0.14952465796E+02  0.76869427028E+01  0.19749674942E+02  0.25003917339E+00 0.  0.
        -13    1    4    4    0    0 -0.20309835438E+01  0.33489146066E+01 -0.62414588459E-01  0.39185512346E+01  0.10500000000E+00 0. -1.
         13    1    4    4    0    0 -0.50684943304E+01  0.81816446325E+01 -0.26949346671E+00  0.96287379962E+01  0.10500000000E+00 0.  1.
    3000001    1    5    5    0    0  0.12097561234E+02 -0.39859666063E+02  0.95628019329E+01  0.42750335054E+02  0.10000000000E+01 0.  1.
        -13    1    6    6    0    0  0.35980589023E+01 -0.51263949644E+01  0.26028313300E+01  0.67831931366E+01  0.10500000000E+00 0.  1.
         13    1    6    6    0    0  0.67615655719E+01 -0.98260708316E+01  0.50841113728E+01  0.12966481806E+02  0.10500000000E+00 0. -1.
</event>
<event>
11    0  0.3482988E-009  0.9118800E+02  0.7816531E-02  0.1126479E+00
         25   -1    0    0    0    0  0.00000000000E+00  0.00000000000E+00  0.99999998245E-14  0.12500000000E+03  0.12500000000E+03 0.  0.
    3000001    1    3    3    0    0  0.32782456002E+02 -0.31343978474E+01  0.18771949228E+02  0.37919651227E+02  0.10000000000E+01 0. -1.
    1000022    2    1    0    0    0  0.55962044865E+02  0.76043443431E+00  0.25959992253E+02  0.62499999553E+02  0.10000001018E+02 0.  0.
    3000022    2    3    3    0    0  0.23179588864E+02  0.38948322817E+01  0.71880430246E+01  0.24580348326E+02  0.25000583340E+00 0.  0.
    1000022    2    1    0    0    0 -0.55962044865E+02 -0.76043443431E+00 -0.25959992253E+02  0.62500000447E+02  0.10000006601E+02 0.  0.
    3000022    2    5    5    0    0 -0.53721092944E+02 -0.10575250429E+01 -0.26586749118E+02  0.59949911720E+02  0.25000060288E+00 0.  0.
        -13    1    4    4    0    0  0.66701934847E+01  0.11606818733E+01  0.20869985481E+01  0.70855664187E+01  0.10500000000E+00 0. -1.
         13    1    4    4    0    0  0.16509395379E+02  0.27341504084E+01  0.51010444764E+01  0.17494781908E+02  0.10500000000E+00 0.  1.
    3000001    1    5    5    0    0 -0.22409519219E+01  0.29709060860E+00  0.62675686531E+00  0.25500887267E+01  0.10000000000E+01 0.  1.
        -13    1    6    6    0    0 -0.15864259639E+02 -0.33722780065E+00 -0.78104858430E+01  0.17686242410E+02  0.10500000000E+00 0.  1.
         13    1    6    6    0    0 -0.37856833305E+02 -0.72029724226E+00 -0.18776263275E+02  0.42263669310E+02  0.10500000000E+00 0. -1.
</event>
<event>
11    0  0.3482988E-009  0.9118800E+02  0.7816531E-02  0.1126479E+00
         25   -1    0    0    0    0  0.00000000000E+00  0.00000000000E+00  0.99999998245E-14  0.12500000000E+03  0.12500000000E+03 0.  0.
    3000001    1    3    3    0    0 -0.39780077624E+01  0.13714245393E+01  0.44247896517E+00  0.43475439802E+01  0.10000000000E+01 0.  1.
    1000022    2    1    0    0    0 -0.47880632493E+02  0.10345298110E+02  0.37505596122E+02  0.62499998939E+02  0.99999982966E+01 0.  0.
    3000022    2    3    3    0    0 -0.43902624731E+02  0.89738735711E+01  0.37063117157E+02  0.58152454959E+02  0.24999840964E+00 0.  0.
    1000022    2    1    0    0    0  0.47880632493E+02 -0.10345298110E+02 -0.37505596122E+02  0.62500001061E+02  0.10000011561E+02 0.  0.
    3000022    2    5    5    0    0  0.26006648073E+02 -0.32687958167E+01 -0.14477530005E+02  0.29944818552E+02  0.25002592259E+00 0.  0.
        -13    1    4    4    0    0 -0.28853018379E+02  0.59327857086E+01  0.24307595616E+02  0.38191161876E+02  0.10500000000E+00 0. -1.
         13    1    4    4    0    0 -0.15049606353E+02  0.30410878625E+01  0.12755521541E+02  0.19961293083E+02  0.10500000000E+00 0.  1.
    3000001    1    5    5    0    0  0.21873984420E+02 -0.70765022937E+01 -0.23028066117E+02  0.32555182509E+02  0.10000000000E+01 0.  1.
        -13    1    6    6    0    0  0.15450563474E+02 -0.18797260393E+01 -0.85791344797E+01  0.17772615313E+02  0.10500000000E+00 0. -1.
         13    1    6    6    0    0  0.10556084599E+02 -0.13890697774E+01 -0.58983955252E+01  0.12172203238E+02  0.10500000000E+00 0.  1.
</event>
<event>
11    0  0.3482988E-009  0.9118800E+02  0.7816531E-02  0.1126479E+00
         25   -1    0    0    0    0  0.00000000000E+00  0.00000000000E+00  0.99999998245E-14  0.12500000000E+03  0.12500000000E+03 0.  0.
    3000001    1    3    3    0    0 -0.28810034621E+02  0.20887267237E+02 -0.36240404979E+02  0.50800226186E+02  0.10000000000E+01 0. -1.
    1000022    2    1    0    0    0 -0.33806194281E+02  0.29546614059E+02 -0.42312974238E+02  0.62499990907E+02  0.99999950201E+01 0.  0.
    3000022    2    3    3    0    0 -0.49961596596E+01  0.86593468229E+01 -0.60725692596E+01  0.11699764722E+02  0.24999677888E+00 0.  0.
    1000022    2    1    0    0    0  0.33806194281E+02 -0.29546614059E+02  0.42312974238E+02  0.62500009093E+02  0.10000108678E+02 0.  0.
    3000022    2    5    5    0    0  0.85739178147E+01 -0.41960706974E+01  0.13625480435E+02  0.16638367985E+02  0.24999223155E+00 0.  0.
        -13    1    4    4    0    0 -0.16086304138E+01  0.27815178791E+01 -0.20120474684E+01  0.37926103854E+01  0.10500000000E+00 0.  1.
         13    1    4    4    0    0 -0.33875292457E+01  0.58778289438E+01 -0.40605217912E+01  0.79071543364E+01  0.10500000000E+00 0. -1.
    3000001    1    5    5    0    0  0.25232276466E+02 -0.25350543362E+02  0.28687493803E+02  0.45861641108E+02  0.10000000000E+01 0. -1.
        -13    1    6    6    0    0  0.48014233002E+01 -0.22937626200E+01  0.75194937880E+01  0.92124277198E+01  0.10500000000E+00 0.  1.
         13    1    6    6    0    0  0.37724945145E+01 -0.19023080774E+01  0.61059866469E+01  0.74259402648E+01  0.10500000000E+00 0. -1.
</event>
<event>
11    0  0.3482988E-009  0.9118800E+02  0.7816531E-02  0.1126479E+00
         25   -1    0    0    0    0  0.00000000000E+00  0.00000000000E+00  0.99999998245E-14  0.12500000000E+03  0.12500000000E+03 0.  0.
    3000001    1    3    3    0    0 -0.32515229350E+01  0.18922454167E+01  0.64975226035E+01  0.75743510677E+01  0.10000000000E+01 0.  1.
    1000022    2    1    0    0    0 -0.19463263747E+02  0.38440641985E+02  0.44155961624E+02  0.62499994991E+02  0.99999417478E+01 0.  0.
    3000022    2    3    3    0    0 -0.16211740812E+02  0.36548396568E+02  0.37658439021E+02  0.54925643923E+02  0.24999799165E+00 0.  0.
    1000022    2    1    0    0    0  0.19463263747E+02 -0.38440641985E+02 -0.44155961624E+02  0.62500005009E+02  0.10000004365E+02 0.  0.
    3000022    2    5    5    0    0  0.14392437724E+01 -0.12005558535E+02 -0.14283930901E+02  0.18716250572E+02  0.24999026953E+00 0.  0.
        -13    1    4    4    0    0 -0.49009647824E+01  0.10988032553E+02  0.11278934132E+02  0.16491867552E+02  0.10500000000E+00 0.  1.
         13    1    4    4    0    0 -0.11310776029E+02  0.25560364016E+02  0.26379504889E+02  0.38433776371E+02  0.10500000000E+00 0. -1.
    3000001    1    5    5    0    0  0.18024019974E+02 -0.26435083450E+02 -0.29872030724E+02  0.43783754437E+02  0.10000000000E+01 0.  1.
        -13    1    6    6    0    0  0.10931980969E+01 -0.91711040640E+01 -0.10931590491E+02  0.14311356592E+02  0.10500000000E+00 0. -1.
         13    1    6    6    0    0  0.34604567550E+00 -0.28344544708E+01 -0.33523404094E+01  0.44048939803E+01  0.10500000000E+00 0.  1.
</event>
<event>
11    0  0.3482988E-009  0.9118800E+02  0.7816531E-02  0.1126479E+00
         25   -1    0    0    0    0  0.00000000000E+00  0.00000000000E+00  0.99999998245E-14  0.12500000000E+03  0.12500000000E+03 0.  0.
    3000001    1    3    3    0    0  0.25860369341E+02  0.35258037079E+01  0.23292896680E+02  0.34996414530E+02  0.10000000000E+01 0.  1.
    1000022    2    1    0    0    0  0.44555750204E+02  0.14780213267E+02  0.40032242868E+02  0.62499999904E+02  0.99999969247E+01 0.  0.
    3000022    2    3    3    0    0  0.18695380863E+02  0.11254409560E+02  0.16739346188E+02  0.27503585374E+02  0.24999491720E+00 0.  0.
    1000022    2    1    0    0    0 -0.44555750204E+02 -0.14780213267E+02 -0.40032242868E+02  0.62500000096E+02  0.99999981194E+01 0.  0.
    3000022    2    5    5    0    0 -0.31254397704E+01  0.10343541258E+01 -0.49315761271E+01  0.59347460065E+01  0.25000969783E+00 0.  0.
        -13    1    4    4    0    0  0.99139804132E+01  0.60101024416E+01  0.88214833516E+01  0.14568388123E+02  0.10500000000E+00 0. -1.
         13    1    4    4    0    0  0.87814004501E+01  0.52443071180E+01  0.79178628368E+01  0.12935197251E+02  0.10500000000E+00 0.  1.
    3000001    1    5    5    0    0 -0.41430310434E+02 -0.15814567393E+02 -0.35100666741E+02  0.56565254089E+02  0.10000000000E+01 0.  1.
        -13    1    6    6    0    0 -0.18771668515E+01  0.58912956238E+00 -0.28443104469E+01  0.34600514372E+01  0.10500000000E+00 0.  1.
         13    1    6    6    0    0 -0.12482729189E+01  0.44522456342E+00 -0.20872656801E+01  0.24746945693E+01  0.10500000000E+00 0. -1.
</event>
<event>
11    0  0.3482988E-009  0.9118800E+02  0.7816531E-02  0.1126479E+00
         25   -1    0    0    0    0  0.00000000000E+00  0.00000000000E+00  0.99999998245E-14  0.12500000000E+03  0.12500000000E+03 0.  0.
    3000001    1    3    3    0    0 -0.93712838773E+01 -0.15273947291E+02  0.16022851564E+02  0.24059222756E+02  0.10000000000E+01 0.  1.
    1000022    2    1    0    0    0 -0.12784705099E+02 -0.44307164272E+02  0.40983856126E+02  0.62500000345E+02  0.10000004497E+02 0.  0.
    3000022    2    3    3    0    0 -0.34134212219E+01 -0.29033216980E+02  0.24961004562E+02  0.38440777589E+02  0.25000055625E+00 0.  0.
    1000022    2    1    0    0    0  0.12784705099E+02  0.44307164272E+02 -0.40983856126E+02  0.62499999655E+02  0.10000000179E+02 0.  0.
    3000022    2    5    5    0    0  0.60634954564E+01  0.32096313157E+02 -0.24156938890E+02  0.40627078321E+02  0.25000181775E+00 0.  0.
        -13    1    4    4    0    0 -0.18192987445E+01 -0.15671093644E+02  0.13387793270E+02  0.20691473064E+02  0.10500000000E+00 0. -1.
         13    1    4    4    0    0 -0.15941224774E+01 -0.13362123336E+02  0.11573211292E+02  0.17749304525E+02  0.10500000000E+00 0.  1.
    3000001    1    5    5    0    0  0.67212096427E+01  0.12210851115E+02 -0.16826917236E+02  0.21872921334E+02  0.10000000000E+01 0. -1.
        -13    1    6    6    0    0  0.37449543613E+01  0.19807848570E+02 -0.14832396601E+02  0.25027715878E+02  0.10500000000E+00 0.  1.
         13    1    6    6    0    0  0.23185410952E+01  0.12288464587E+02 -0.93245422886E+01  0.15599362442E+02  0.10500000000E+00 0. -1.
</event>
<event>
11    0  0.3482988E-009  0.9118800E+02  0.7816531E-02  0.1126479E+00
         25   -1    0    0    0    0  0.00000000000E+00  0.00000000000E+00  0.99999998245E-14  0.12500000000E+03  0.12500000000E+03 0.  0.
    3000001    1    3    3    0    0 -0.87660173747E+01  0.16333857515E+02 -0.32827587535E+02  0.37713239920E+02  0.10000000000E+01 0. -1.
    1000022    2    1    0    0    0 -0.15910076129E+02  0.33255651399E+02 -0.49468991013E+02  0.62500000152E+02  0.10000003740E+02 0.  0.
    3000022    2    3    3    0    0 -0.71440587540E+01  0.16921793884E+02 -0.16641403479E+02  0.24786760232E+02  0.24997869037E+00 0.  0.
    1000022    2    1    0    0    0  0.15910076129E+02 -0.33255651399E+02  0.49468991013E+02  0.62499999848E+02  0.10000001834E+02 0.  0.
    3000022    2    5    5    0    0  0.66502338078E+00 -0.11240751907E+01 -0.25913878674E+00  0.13547897627E+01  0.25000251793E+00 0.  0.
        -13    1    4    4    0    0 -0.43308691288E+01  0.10407735043E+02 -0.10185298614E+02  0.15193048048E+02  0.10500000000E+00 0. -1.
         13    1    4    4    0    0 -0.28131896251E+01  0.65140588409E+01 -0.64561048641E+01  0.95937121838E+01  0.10500000000E+00 0.  1.
    3000001    1    5    5    0    0  0.15245052748E+02 -0.32131576208E+02  0.49728129800E+02  0.61145210085E+02  0.10000000000E+01 0. -1.
        -13    1    6    6    0    0  0.20354708225E+00 -0.46497206452E+00 -0.10584371129E+00  0.52901637659E+00  0.10500000000E+00 0.  1.
         13    1    6    6    0    0  0.46147629853E+00 -0.65910312621E+00 -0.15329507545E+00  0.82577338613E+00  0.10500000000E+00 0. -1.
</event>
<event>
11    0  0.3482988E-009  0.9118800E+02  0.7816531E-02  0.1126479E+00
         25   -1    0    0    0    0  0.00000000000E+00  0.00000000000E+00  0.99999998245E-14  0.12500000000E+03  0.12500000000E+03 0.  0.
    3000001    1    3    3    0    0  0.69271545169E+01 -0.15644884863E+02 -0.45531984901E+02  0.48650894556E+02  0.10000000000E+01 0.  1.
    1000022    2    1    0    0    0  0.63916543824E+01 -0.15519331821E+02 -0.59367900229E+02  0.62499994749E+02  0.99999430053E+01 0.  0.
    3000022    2    3    3    0    0 -0.53550013447E+00  0.12555304274E+00 -0.13835915328E+02  0.13849100193E+02  0.24999845010E+00 0.  0.
    1000022    2    1    0    0    0 -0.63916543824E+01  0.15519331821E+02  0.59367900229E+02  0.62500005251E+02  0.10000008647E+02 0.  0.
    3000022    2    5    5    0    0 -0.21557477407E+01  0.57928665835E+01  0.84110101327E+01  0.10440888092E+02  0.25000226398E+00 0.  0.
        -13    1    4    4    0    0 -0.34686782166E+00  0.13498269025E+00 -0.84244231015E+01  0.84332951570E+01  0.10500000000E+00 0. -1.
         13    1    4    4    0    0 -0.18863231281E+00 -0.94296475056E-02 -0.54114922263E+01  0.54158050355E+01  0.10500000000E+00 0.  1.
    3000001    1    5    5    0    0 -0.42359066417E+01  0.97264652371E+01  0.50956890096E+02  0.52059117159E+02  0.10000000000E+01 0.  1.
        -13    1    6    6    0    0 -0.51889227300E+00  0.13979612548E+01  0.19980721419E+01  0.24953681382E+01  0.10500000000E+00 0.  1.
         13    1    6    6    0    0 -0.16368554677E+01  0.43949053287E+01  0.64129379908E+01  0.79455199542E+01  0.10500000000E+00 0. -1.
</event>
<event>
11    0  0.3482988E-009  0.9118800E+02  0.7816531E-02  0.1126479E+00
         25   -1    0    0    0    0  0.00000000000E+00  0.00000000000E+00  0.99999998245E-14  0.12500000000E+03  0.12500000000E+03 0.  0.
    3000001    1    3    3    0    0  0.17322062815E+00  0.28530480166E+01 -0.66914705276E+01  0.73447713506E+01  0.10000000000E+01 0. -1.
    1000022    2    1    0    0    0  0.26581838036E+02  0.18149885701E+02 -0.52633046617E+02  0.62499999829E+02  0.99999959014E+01 0.  0.
    3000022    2    3    3    0    0  0.26408617408E+02  0.15296837684E+02 -0.45941576090E+02  0.55155228478E+02  0.24999663821E+00 0.  0.
    1000022    2    1    0    0    0 -0.26581838036E+02 -0.18149885701E+02  0.52633046617E+02  0.62500000171E+02  0.99999980450E+01 0.  0.
    3000022    2    5    5    0    0 -0.22080786278E+02 -0.18632530132E+02  0.47371493617E+02  0.55487414874E+02  0.25000034488E+00 0.  0.
        -13    1    4    4    0    0  0.18429658520E+02  0.10626178660E+02 -0.32058638731E+02  0.38475126100E+02  0.10500000000E+00 0.  1.
         13    1    4    4    0    0  0.79789588876E+01  0.46706590248E+01 -0.13882937358E+02  0.16680102378E+02  0.10500000000E+00 0. -1.
    3000001    1    5    5    0    0 -0.45010517576E+01  0.48264443124E+00  0.52615530006E+01  0.70125852971E+01  0.10000000000E+01 0. -1.
        -13    1    6    6    0    0 -0.12374542712E+02 -0.10519048745E+02  0.26686699944E+02  0.31240529328E+02  0.10500000000E+00 0. -1.
         13    1    6    6    0    0 -0.97062435666E+01 -0.81134813876E+01  0.20684793673E+02  0.24246885546E+02  0.10500000000E+00 0.  1.
</event>
<event>
11    0  0.3482988E-009  0.9118800E+02  0.7816531E-02  0.1126479E+00
         25   -1    0    0    0    0  0.00000000000E+00  0.00000000000E+00  0.99999998245E-14  0.12500000000E+03  0.12500000000E+03 0.  0.
    3000001    1    3    3    0    0  0.19576057473E+02 -0.78455288991E+01 -0.43110074502E+02  0.48002634026E+02  0.10000000000E+01 0.  1.
    1000022    2    1    0    0    0  0.20684482985E+02 -0.80697999461E+01 -0.57561102599E+02  0.62499999974E+02  0.99999978404E+01 0.  0.
    3000022    2    3    3    0    0  0.11084255116E+01 -0.22427104694E+00 -0.14451028098E+02  0.14497365948E+02  0.25000347626E+00 0.  0.
    1000022    2    1    0    0    0 -0.20684482985E+02  0.80697999461E+01  0.57561102599E+02  0.62500000026E+02  0.99999981633E+01 0.  0.
    3000022    2    5    5    0    0 -0.79733214081E+00  0.18631096117E+01  0.11210842589E+01  0.23294304435E+01  0.25000061543E+00 0.  0.
        -13    1    4    4    0    0  0.73144990935E+00 -0.15093296602E+00 -0.10127938342E+02  0.10155981478E+02  0.10500000000E+00 0.  1.
         13    1    4    4    0    0  0.37697560228E+00 -0.73338080917E-01 -0.43230897559E+01  0.43413844700E+01  0.10500000000E+00 0. -1.
    3000001    1    5    5    0    0 -0.19887150844E+02  0.62066903344E+01  0.56440018340E+02  0.60170569582E+02  0.10000000000E+01 0.  1.
        -13    1    6    6    0    0 -0.21147801184E+00  0.54042096018E+00  0.36798763111E+00  0.69513859075E+00  0.10500000000E+00 0.  1.
         13    1    6    6    0    0 -0.58585412896E+00  0.13226886515E+01  0.75309662777E+00  0.16342918527E+01  0.10500000000E+00 0. -1.
</event>
<event>
11    0  0.3482988E-009  0.9118800E+02  0.7816531E-02  0.1126479E+00
         25   -1    0    0    0    0  0.00000000000E+00  0.00000000000E+00  0.99999998245E-14  0.12500000000E+03  0.12500000000E+03 0.  0.
    3000001    1    3    3    0    0 -0.94804710477E+01  0.33016712116E+01  0.61391055069E+01  0.11809698578E+02  0.10000000000E+01 0. -1.
    1000022    2    1    0    0    0 -0.45348191004E+02  0.34745195521E+02  0.23292982354E+02  0.62499998952E+02  0.99999901445E+01 0.  0.
    3000022    2    3    3    0    0 -0.35867719956E+02  0.31443524310E+02  0.17153876848E+02  0.50690300374E+02  0.25001047966E+00 0.  0.
    1000022    2    1    0    0    0  0.45348191004E+02 -0.34745195521E+02 -0.23292982354E+02  0.62500001048E+02  0.10000003243E+02 0.  0.
    3000022    2    5    5    0    0  0.39602775789E+02 -0.26327596022E+02 -0.21102829281E+02  0.52028012325E+02  0.25000066566E+00 0.  0.
        -13    1    4    4    0    0 -0.16076415525E+02  0.14175350007E+02  0.77350676279E+01  0.22786706216E+02  0.10500000000E+00 0.  1.
         13    1    4    4    0    0 -0.19791304431E+02  0.17268174303E+02  0.94188092196E+01  0.27903594158E+02  0.10500000000E+00 0. -1.
    3000001    1    5    5    0    0  0.57454152150E+01 -0.84175994992E+01 -0.21901530730E+01  0.10471988723E+02  0.10000000000E+01 0. -1.
        -13    1    6    6    0    0  0.19237959510E+02 -0.12726611500E+02 -0.10188545318E+02  0.25216724749E+02  0.10500000000E+00 0.  1.
         13    1    6    6    0    0  0.20364816279E+02 -0.13600984522E+02 -0.10914283964E+02  0.26811287576E+02  0.10500000000E+00 0. -1.
</event>
<event>
11    0  0.3482988E-009  0.9118800E+02  0.7816531E-02  0.1126479E+00
         25   -1    0    0    0    0  0.00000000000E+00  0.00000000000E+00  0.99999998245E-14  0.12500000000E+03  0.12500000000E+03 0.  0.
    3000001    1    3    3    0    0 -0.12636421462E+01 -0.25497587099E+01  0.26939024579E+01  0.40441527426E+01  0.10000000000E+01 0. -1.
    1000022    2    1    0    0    0 -0.41115134297E+02 -0.12063791180E+02  0.44387614915E+02  0.62500002702E+02  0.10000032702E+02 0.  0.
    3000022    2    3    3    0    0 -0.39851492151E+02 -0.95140324703E+01  0.41693712457E+02  0.58455849960E+02  0.24999112355E+00 0.  0.
    1000022    2    1    0    0    0  0.41115134297E+02  0.12063791180E+02 -0.44387614915E+02  0.62499997298E+02  0.99999989245E+01 0.  0.
    3000022    2    5    5    0    0  0.32940276655E+02  0.12349218605E+02 -0.31607343424E+02  0.47293251898E+02  0.24998099118E+00 0.  0.
        -13    1    4    4    0    0 -0.27725696585E+02 -0.66431415415E+01  0.29070820077E+02  0.40718167758E+02  0.10500000000E+00 0. -1.
         13    1    4    4    0    0 -0.12125795567E+02 -0.28708909288E+01  0.12622892380E+02  0.17737682201E+02  0.10500000000E+00 0.  1.
    3000001    1    5    5    0    0  0.81748576428E+01 -0.28542742474E+00 -0.12780271490E+02  0.15206745400E+02  0.10000000000E+01 0. -1.
        -13    1    6    6    0    0  0.20194592375E+02  0.75786893331E+01 -0.19297430664E+02  0.28942355613E+02  0.10500000000E+00 0. -1.
         13    1    6    6    0    0  0.12745684279E+02  0.47705292718E+01 -0.12309912761E+02  0.18350896285E+02  0.10500000000E+00 0.  1.
</event>
<event>
11    0  0.3482988E-009  0.9118800E+02  0.7816531E-02  0.1126479E+00
         25   -1    0    0    0    0  0.00000000000E+00  0.00000000000E+00  0.99999998245E-14  0.12500000000E+03  0.12500000000E+03 0.  0.
    3000001    1    3    3    0    0  0.29031410758E+01  0.44469035318E+01  0.13354136456E+01  0.55665526793E+01  0.10000000000E+01 0. -1.
    1000022    2    1    0    0    0  0.36419128795E+02  0.31537484042E+02  0.38539372798E+02  0.62500005648E+02  0.10000080427E+02 0.  0.
    3000022    2    3    3    0    0  0.33515987719E+02  0.27090580510E+02  0.37203959152E+02  0.56933452969E+02  0.25001046575E+00 0.  0.
    1000022    2    1    0    0    0 -0.36419128795E+02 -0.31537484042E+02 -0.38539372798E+02  0.62499994352E+02  0.10000009822E+02 0.  0.
    3000022    2    5    5    0    0 -0.50268260051E+01 -0.53282321582E+01 -0.10883232676E+02  0.13121217077E+02  0.25009292301E+00 0.  0.
        -13    1    4    4    0    0  0.83503161303E+01  0.67184112579E+01  0.92415107450E+01  0.14152080241E+02  0.10500000000E+00 0.  1.
         13    1    4    4    0    0  0.25165671589E+02  0.20372169252E+02  0.27962448407E+02  0.42781372728E+02  0.10500000000E+00 0. -1.
    3000001    1    5    5    0    0 -0.31392302790E+02 -0.26209251884E+02 -0.27656140122E+02  0.49378777275E+02  0.10000000000E+01 0.  1.
        -13    1    6    6    0    0 -0.17216647446E+01 -0.18366989542E+01 -0.38405597369E+01  0.45933121638E+01  0.10500000000E+00 0. -1.
         13    1    6    6    0    0 -0.33051612606E+01 -0.34915332040E+01 -0.70426729393E+01  0.85279049128E+01  0.10500000000E+00 0.  1.
</event>
<event>
11    0  0.3482988E-009  0.9118800E+02  0.7816531E-02  0.1126479E+00
         25   -1    0    0    0    0  0.00000000000E+00  0.00000000000E+00  0.99999998245E-14  0.12500000000E+03  0.12500000000E+03 0.  0.
    3000001    1    3    3    0    0 -0.58601260755E+01  0.16330714789E+01 -0.91102270924E+01  0.11000192623E+02  0.10000000000E+01 0. -1.
    1000022    2    1    0    0    0 -0.17528868962E+02 -0.25021140607E+01 -0.59099307970E+02  0.62499998718E+02  0.99999907684E+01 0.  0.
    3000022    2    3    3    0    0 -0.11668742886E+02 -0.41351855395E+01 -0.49989080878E+02  0.51499806095E+02  0.25000162138E+00 0.  0.
    1000022    2    1    0    0    0  0.17528868962E+02  0.25021140607E+01  0.59099307970E+02  0.62500001282E+02  0.10000006793E+02 0.  0.
    3000022    2    5    5    0    0  0.80570257117E+01  0.58264964054E+01  0.34704190901E+02  0.36101344700E+02  0.24999874059E+00 0.  0.
        -13    1    4    4    0    0 -0.60206846899E+01 -0.21491404345E+01 -0.25538386208E+02  0.26326557767E+02  0.10500000000E+00 0. -1.
         13    1    4    4    0    0 -0.56480581966E+01 -0.19860451051E+01 -0.24450694669E+02  0.25173248328E+02  0.10500000000E+00 0.  1.
    3000001    1    5    5    0    0  0.94718432502E+01 -0.33243823447E+01  0.24395117069E+02  0.26398656582E+02  0.10000000000E+01 0.  1.
        -13    1    6    6    0    0  0.54594419670E+01  0.38868296357E+01  0.23443868260E+02  0.24383169097E+02  0.10500000000E+00 0. -1.
         13    1    6    6    0    0  0.25975837447E+01  0.19396667696E+01  0.11260322641E+02  0.11718175603E+02  0.10500000000E+00 0.  1.
</event>
<event>
11    0  0.3482988E-009  0.9118800E+02  0.7816531E-02  0.1126479E+00
         25   -1    0    0    0    0  0.00000000000E+00  0.00000000000E+00  0.99999998245E-14  0.12500000000E+03  0.12500000000E+03 0.  0.
    3000001    1    3    3    0    0 -0.91368023991E+01 -0.15732499637E+02  0.65203798987E+01  0.19352210647E+02  0.10000000000E+01 0. -1.
    1000022    2    1    0    0    0 -0.33986933394E+02 -0.41054591955E+02  0.31075049983E+02  0.62499999610E+02  0.10000002883E+02 0.  0.
    3000022    2    3    3    0    0 -0.24850130995E+02 -0.25322092318E+02  0.24554670084E+02  0.43147788963E+02  0.24999918175E+00 0.  0.
    1000022    2    1    0    0    0  0.33986933394E+02  0.41054591955E+02 -0.31075049983E+02  0.62500000390E+02  0.10000007764E+02 0.  0.
    3000022    2    5    5    0    0  0.11569024768E+02  0.13532277542E+02 -0.15940463283E+02  0.23898237058E+02  0.24999048849E+00 0.  0.
        -13    1    4    4    0    0 -0.96937179738E+01 -0.99327225300E+01  0.96650600012E+01  0.16913058707E+02  0.10500000000E+00 0. -1.
         13    1    4    4    0    0 -0.15156413021E+02 -0.15389369788E+02  0.14889610083E+02  0.26234730255E+02  0.10500000000E+00 0.  1.
    3000001    1    5    5    0    0  0.22417908626E+02  0.27522314413E+02 -0.15134586700E+02  0.38601763332E+02  0.10000000000E+01 0.  1.
        -13    1    6    6    0    0  0.77771462868E+01  0.91649097454E+01 -0.10725245051E+02  0.16109670431E+02  0.10500000000E+00 0.  1.
         13    1    6    6    0    0  0.37918784813E+01  0.43673677965E+01 -0.52152182328E+01  0.77885666270E+01  0.10500000000E+00 0. -1.
</event>
<event>
11    0  0.3482988E-009  0.9118800E+02  0.7816531E-02  0.1126479E+00
         25   -1    0    0    0    0  0.00000000000E+00  0.00000000000E+00  0.99999998245E-14  0.12500000000E+03  0.12500000000E+03 0.  0.
    3000001    1    3    3    0    0 -0.40074518331E+02  0.21701398926E+02 -0.26005236352E+02  0.52480377786E+02  0.10000000000E+01 0. -1.
    1000022    2    1    0    0    0 -0.49388275813E+02  0.25246948789E+02 -0.27011850610E+02  0.62499997281E+02  0.99999687882E+01 0.  0.
    3000022    2    3    3    0    0 -0.93137574817E+01  0.35455498631E+01 -0.10066142583E+01  0.10019619495E+02  0.25000059544E+00 0.  0.
    1000022    2    1    0    0    0  0.49388275813E+02 -0.25246948789E+02  0.27011850610E+02  0.62500002719E+02  0.10000002779E+02 0.  0.
    3000022    2    5    5    0    0  0.37066565812E+02 -0.18699040573E+02  0.24734963891E+02  0.48326652639E+02  0.24999430954E+00 0.  0.
        -13    1    4    4    0    0 -0.31275180679E+01  0.11596267358E+01 -0.38258668495E+00  0.33590922886E+01  0.10500000000E+00 0. -1.
         13    1    4    4    0    0 -0.61862394137E+01  0.23859231273E+01 -0.62402757336E+00  0.66605272063E+01  0.10500000000E+00 0.  1.
    3000001    1    5    5    0    0  0.12321710001E+02 -0.65479082165E+01  0.22768867184E+01  0.14173350080E+02  0.10000000000E+01 0. -1.
        -13    1    6    6    0    0  0.26625463664E+02 -0.13471976532E+02  0.17798963400E+02  0.34745123256E+02  0.10500000000E+00 0. -1.
         13    1    6    6    0    0  0.10441102148E+02 -0.52270640408E+01  0.69360004919E+01  0.13581529383E+02  0.10500000000E+00 0.  1.
</event>
<event>
11    0  0.3482988E-009  0.9118800E+02  0.7816531E-02  0.1126479E+00
         25   -1    0    0    0    0  0.00000000000E+00  0.00000000000E+00  0.99999998245E-14  0.12500000000E+03  0.12500000000E+03 0.  0.
    3000001    1    3    3    0    0  0.14386749723E+02  0.19618279193E+02 -0.12594389306E+02  0.27413027707E+02  0.10000000000E+01 0. -1.
    1000022    2    1    0    0    0  0.22486869361E+02  0.48500665355E+02 -0.30794089465E+02  0.62500001902E+02  0.10000022912E+02 0.  0.
    3000022    2    3    3    0    0  0.81001196378E+01  0.28882386162E+02 -0.18199700159E+02  0.35086974194E+02  0.25000739552E+00 0.  0.
    1000022    2    1    0    0    0 -0.22486869361E+02 -0.48500665355E+02  0.30794089465E+02  0.62499998098E+02  0.99999991400E+01 0.  0.
    3000022    2    5    5    0    0 -0.16676789135E+02 -0.34811979591E+02  0.16952357007E+02  0.42159626725E+02  0.24999716727E+00 0.  0.
        -13    1    4    4    0    0  0.45588116302E+01  0.16492525513E+02 -0.10365549036E+02  0.20006043915E+02  0.10500000000E+00 0. -1.
         13    1    4    4    0    0  0.35413080076E+01  0.12389860648E+02 -0.78341511230E+01  0.15080930280E+02  0.10500000000E+00 0.  1.
    3000001    1    5    5    0    0 -0.58100802259E+01 -0.13688685764E+02  0.13841732458E+02  0.20340371374E+02  0.10000000000E+01 0. -1.
        -13    1    6    6    0    0 -0.67813329039E+01 -0.14130828464E+02  0.69520949718E+01  0.17146703430E+02  0.10500000000E+00 0. -1.
         13    1    6    6    0    0 -0.98954562315E+01 -0.20681151127E+02  0.10000262035E+02  0.25012923295E+02  0.10500000000E+00 0.  1.
</event>
<event>
11    0  0.3482988E-009  0.9118800E+02  0.7816531E-02  0.1126479E+00
         25   -1    0    0    0    0  0.00000000000E+00  0.00000000000E+00  0.99999998245E-14  0.12500000000E+03  0.12500000000E+03 0.  0.
    3000001    1    3    3    0    0 -0.12197021037E+02 -0.19004944137E+01  0.11001458317E+02  0.16565364056E+02  0.10000000000E+01 0.  1.
    1000022    2    1    0    0    0 -0.42256494944E+02  0.84983014426E+01  0.44140881650E+02  0.62500000489E+02  0.10000006796E+02 0.  0.
    3000022    2    3    3    0    0 -0.30059473907E+02  0.10398795856E+02  0.33139423334E+02  0.45934636434E+02  0.25003717183E+00 0.  0.
    1000022    2    1    0    0    0  0.42256494944E+02 -0.84983014426E+01 -0.44140881650E+02  0.62499999511E+02  0.10000000683E+02 0.  0.
    3000022    2    5    5    0    0 -0.53024746803E-01  0.67817351512E+00 -0.17785821117E+01  0.19205675946E+01  0.24998923414E+00 0.  0.
        -13    1    4    4    0    0 -0.12093553596E+02  0.42141872198E+01  0.13424708048E+02  0.18553900498E+02  0.10500000000E+00 0.  1.
         13    1    4    4    0    0 -0.17965920311E+02  0.61846086365E+01  0.19714715285E+02  0.27380735936E+02  0.10500000000E+00 0. -1.
    3000001    1    5    5    0    0  0.42309519691E+02 -0.91764749577E+01 -0.42362299539E+02  0.60579431916E+02  0.10000000000E+01 0. -1.
        -13    1    6    6    0    0  0.17115120658E-01  0.17379056486E+00 -0.45628552501E+00  0.49971748831E+00  0.10500000000E+00 0.  1.
         13    1    6    6    0    0 -0.70139867461E-01  0.50438295027E+00 -0.13222965867E+01  0.14208501063E+01  0.10500000000E+00 0. -1.
</event>
<event>
11    0  0.3482988E-009  0.9118800E+02  0.7816531E-02  0.1126479E+00
         25   -1    0    0    0    0  0.00000000000E+00  0.00000000000E+00  0.99999998245E-14  0.12500000000E+03  0.12500000000E+03 0.  0.
    3000001    1    3    3    0    0 -0.39672135867E+02 -0.31160139706E+02 -0.37768436103E+01  0.50597403278E+02  0.10000000000E+01 0. -1.
    1000022    2    1    0    0    0 -0.49093306940E+02 -0.37364380730E+02  0.12384585682E-01  0.62500000511E+02  0.10000008841E+02 0.  0.
    3000022    2    3    3    0    0 -0.94211710721E+01 -0.62042410245E+01  0.37892281960E+01  0.11902597233E+02  0.24999901791E+00 0.  0.
    1000022    2    1    0    0    0  0.49093306940E+02  0.37364380730E+02 -0.12384585682E-01  0.62499999489E+02  0.10000002458E+02 0.  0.
    3000022    2    5    5    0    0  0.17050156853E+02  0.13957546286E+02  0.46855041556E+01  0.22528590647E+02  0.25000066729E+00 0.  0.
        -13    1    4    4    0    0 -0.40660218290E+01 -0.26826939628E+01  0.17055347701E+01  0.51622915710E+01  0.10500000000E+00 0. -1.
         13    1    4    4    0    0 -0.53551492431E+01 -0.35215470616E+01  0.20836934259E+01  0.67403056619E+01  0.10500000000E+00 0.  1.
    3000001    1    5    5    0    0  0.32043150087E+02  0.23406834445E+02 -0.46978887413E+01  0.39971408842E+02  0.10000000000E+01 0. -1.
        -13    1    6    6    0    0  0.11354428155E+02  0.93049700135E+01  0.30673081149E+01  0.14997496783E+02  0.10500000000E+00 0. -1.
         13    1    6    6    0    0  0.56957286975E+01  0.46525762721E+01  0.16181960407E+01  0.75310938640E+01  0.10500000000E+00 0.  1.
</event>
<event>
11    0  0.3482988E-009  0.9118800E+02  0.7816531E-02  0.1126479E+00
         25   -1    0    0    0    0  0.00000000000E+00  0.00000000000E+00  0.99999998245E-14  0.12500000000E+03  0.12500000000E+03 0.  0.
    3000001    1    3    3    0    0  0.31567667064E+02 -0.16152802494E+02  0.11842038327E+02  0.37398723294E+02  0.10000000000E+01 0. -1.
    1000022    2    1    0    0    0  0.52787966773E+02 -0.20419346451E+02  0.24550577395E+02  0.62499999103E+02  0.99999945994E+01 0.  0.
    3000022    2    3    3    0    0  0.21220299709E+02 -0.42665439567E+01  0.12708539069E+02  0.25101275810E+02  0.25012984824E+00 0.  0.
    1000022    2    1    0    0    0 -0.52787966773E+02  0.20419346451E+02 -0.24550577395E+02  0.62500000897E+02  0.10000005808E+02 0.  0.
    3000022    2    5    5    0    0 -0.41200392130E+02  0.19769253292E+02 -0.17845923424E+02  0.49059506408E+02  0.24999757126E+00 0.  0.
        -13    1    4    4    0    0  0.11384056919E+02 -0.22237580282E+01  0.68350375272E+01  0.13463677607E+02  0.10500000000E+00 0. -1.
         13    1    4    4    0    0  0.98362427902E+01 -0.20427859285E+01  0.58735015414E+01  0.11637598203E+02  0.10500000000E+00 0.  1.
    3000001    1    5    5    0    0 -0.11587574643E+02  0.65009315879E+00 -0.67046539715E+01  0.13440494489E+02  0.10000000000E+01 0. -1.
        -13    1    6    6    0    0 -0.10112607856E+02  0.48678664630E+01 -0.44033706323E+01  0.12056602319E+02  0.10500000000E+00 0.  1.
         13    1    6    6    0    0 -0.31087784273E+02  0.14901386829E+02 -0.13442552791E+02  0.37002904089E+02  0.10500000000E+00 0. -1.
</event>
<event>
11    0  0.3482988E-009  0.9118800E+02  0.7816531E-02  0.1126479E+00
         25   -1    0    0    0    0  0.00000000000E+00  0.00000000000E+00  0.99999998245E-14  0.12500000000E+03  0.12500000000E+03 0.  0.
    3000001    1    3    3    0    0 -0.17525176550E+02 -0.18252993984E+02 -0.70450017120E+01  0.26285654864E+02  0.10000000000E+01 0.  1.
    1000022    2    1    0    0    0 -0.46483916727E+02 -0.39995422367E+02 -0.67721247305E+01  0.62499999980E+02  0.99999999729E+01 0.  0.
    3000022    2    3    3    0    0 -0.28958740177E+02 -0.21742428383E+02  0.27287698154E+00  0.36214345116E+02  0.25001136805E+00 0.  0.
    1000022    2    1    0    0    0  0.46483916727E+02  0.39995422367E+02  0.67721247305E+01  0.62500000020E+02  0.10000000228E+02 0.  0.
    3000022    2    5    5    0    0  0.29515636564E+02  0.24907521493E+02 -0.53792343746E+00  0.38625241619E+02  0.24999967248E+00 0.  0.
        -13    1    4    4    0    0 -0.10070744141E+02 -0.75342229917E+01  0.43012066449E-01  0.12577649967E+02  0.10500000000E+00 0.  1.
         13    1    4    4    0    0 -0.18887996036E+02 -0.14208205391E+02  0.22986491509E+00  0.23636695149E+02  0.10500000000E+00 0. -1.
    3000001    1    5    5    0    0  0.16968280163E+02  0.15087900874E+02  0.73100481679E+01  0.23874758401E+02  0.10000000000E+01 0. -1.
        -13    1    6    6    0    0  0.11157951493E+02  0.94339704780E+01 -0.14448261266E+00  0.14612719826E+02  0.10500000000E+00 0. -1.
         13    1    6    6    0    0  0.18357685071E+02  0.15473551015E+02 -0.39344082480E+00  0.24012521793E+02  0.10500000000E+00 0.  1.
</event>
<event>
11    0  0.3482988E-009  0.9118800E+02  0.7816531E-02  0.1126479E+00
         25   -1    0    0    0    0  0.00000000000E+00  0.00000000000E+00  0.99999998245E-14  0.12500000000E+03  0.12500000000E+03 0.  0.
    3000001    1    3    3    0    0  0.42602858163E+01  0.36323178963E+02 -0.90883051335E+01  0.37697753984E+02  0.10000000000E+01 0. -1.
    1000022    2    1    0    0    0  0.27354235485E+01  0.61066172903E+02 -0.83480559471E+01  0.62500000330E+02  0.99999994062E+01 0.  0.
    3000022    2    3    3    0    0 -0.15248622678E+01  0.24742993940E+02  0.74024918632E+00  0.24802246346E+02  0.25000181491E+00 0.  0.
    1000022    2    1    0    0    0 -0.27354235485E+01 -0.61066172903E+02  0.83480559471E+01  0.62499999670E+02  0.99999952850E+01 0.  0.
    3000022    2    5    5    0    0  0.14687519498E+01 -0.50463082174E+02  0.64966217996E+01  0.50901360395E+02  0.25000102355E+00 0.  0.
        -13    1    4    4    0    0 -0.97052326320E+00  0.14811236944E+02  0.41731737249E+00  0.14849236816E+02  0.10500000000E+00 0.  1.
         13    1    4    4    0    0 -0.55433900458E+00  0.99317569954E+01  0.32293181383E+00  0.99530095300E+01  0.10500000000E+00 0. -1.
    3000001    1    5    5    0    0 -0.42041754983E+01 -0.10603090729E+02  0.18514341476E+01  0.11598639275E+02  0.10000000000E+01 0.  1.
        -13    1    6    6    0    0  0.42862272358E+00 -0.16161748341E+02  0.20513644350E+01  0.16297390832E+02  0.10500000000E+00 0.  1.
         13    1    6    6    0    0  0.10401292262E+01 -0.34301333833E+02  0.44452573646E+01  0.34603969563E+02  0.10500000000E+00 0. -1.
</event>
<event>
11    0  0.3482988E-009  0.9118800E+02  0.7816531E-02  0.1126479E+00
         25   -1    0    0    0    0  0.00000000000E+00  0.00000000000E+00  0.99999998245E-14  0.12500000000E+03  0.12500000000E+03 0.  0.
    3000001    1    3    3    0    0  0.41576124110E+02  0.99526631004E+01 -0.31511923837E+02  0.53119026184E+02  0.10000000000E+01 0.  1.
    1000022    2    1    0    0    0  0.47012097121E+02  0.15411255555E+02 -0.36859270992E+02  0.62499999276E+02  0.99999988969E+01 0.  0.
    3000022    2    3    3    0    0  0.54359730113E+01  0.54585924548E+01 -0.53473471546E+01  0.93809730923E+01  0.25000079747E+00 0.  0.
    1000022    2    1    0    0    0 -0.47012097121E+02 -0.15411255555E+02  0.36859270992E+02  0.62500000724E+02  0.10000007946E+02 0.  0.
    3000022    2    5    5    0    0 -0.43408915298E+02 -0.11202121808E+02  0.33172814318E+02  0.55770239290E+02  0.25004058674E+00 0.  0.
        -13    1    4    4    0    0  0.20589870094E+01  0.20194113984E+01 -0.19420778761E+01  0.34785257477E+01  0.10500000000E+00 0. -1.
         13    1    4    4    0    0  0.33769860019E+01  0.34391810564E+01 -0.34052692785E+01  0.59024473445E+01  0.10500000000E+00 0.  1.
    3000001    1    5    5    0    0 -0.36031818230E+01 -0.42091337473E+01  0.36864566736E+01  0.67297614340E+01  0.10000000000E+01 0. -1.
        -13    1    6    6    0    0 -0.11411520421E+02 -0.29500641159E+01  0.87624241554E+01  0.14687299911E+02  0.10500000000E+00 0.  1.
         13    1    6    6    0    0 -0.31997394877E+02 -0.82520576920E+01  0.24410390163E+02  0.41082939378E+02  0.10500000000E+00 0. -1.
</event>
<event>
11    0  0.3482988E-009  0.9118800E+02  0.7816531E-02  0.1126479E+00
         25   -1    0    0    0    0  0.00000000000E+00  0.00000000000E+00  0.99999998245E-14  0.12500000000E+03  0.12500000000E+03 0.  0.
    3000001    1    3    3    0    0 -0.32755656915E+02  0.48688073512E+01  0.21928870250E+01  0.33203118806E+02  0.10000000000E+01 0. -1.
    1000022    2    1    0    0    0 -0.60853200016E+02  0.19701977006E+01  0.99627580661E+01  0.62500000245E+02  0.99999925612E+01 0.  0.
    3000022    2    3    3    0    0 -0.28097543101E+02 -0.28986096506E+01  0.77698710411E+01  0.29296881439E+02  0.24999969318E+00 0.  0.
    1000022    2    1    0    0    0  0.60853200016E+02 -0.19701977006E+01 -0.99627580661E+01  0.62499999755E+02  0.99999894966E+01 0.  0.
    3000022    2    5    5    0    0  0.44570875327E+02 -0.41316378829E+01 -0.10714992234E+02  0.46027241116E+02  0.25001429304E+00 0.  0.
        -13    1    4    4    0    0 -0.15048219738E+02 -0.15957172913E+01  0.42160509731E+01  0.15709275660E+02  0.10500000000E+00 0. -1.
         13    1    4    4    0    0 -0.13049323364E+02 -0.13028923592E+01  0.35538200680E+01  0.13587605780E+02  0.10500000000E+00 0.  1.
    3000001    1    5    5    0    0  0.16282324689E+02  0.21614401822E+01  0.75223416843E+00  0.16472758639E+02  0.10000000000E+01 0.  1.
        -13    1    6    6    0    0  0.14635619527E+02 -0.13661148448E+01 -0.35718802042E+01  0.15127358722E+02  0.10500000000E+00 0.  1.
         13    1    6    6    0    0  0.29935255800E+02 -0.27655230381E+01 -0.71431120303E+01  0.30899882394E+02  0.10500000000E+00 0. -1.
</event>
<event>
11    0  0.3482988E-009  0.9118800E+02  0.7816531E-02  0.1126479E+00
         25   -1    0    0    0    0  0.00000000000E+00  0.00000000000E+00  0.99999998245E-14  0.12500000000E+03  0.12500000000E+03 0.  0.
    3000001    1    3    3    0    0  0.15963065973E+02  0.10690430050E+02 -0.71324638730E+01  0.20517719435E+02  0.10000000000E+01 0. -1.
    1000022    2    1    0    0    0  0.54607149380E+02  0.26770422369E+02 -0.10375639952E+02  0.62500001720E+02  0.10000001667E+02 0.  0.
    3000022    2    3    3    0    0  0.38644083406E+02  0.16079992319E+02 -0.32431760788E+01  0.41982282284E+02  0.24999884814E+00 0.  0.
    1000022    2    1    0    0    0 -0.54607149380E+02 -0.26770422369E+02  0.10375639952E+02  0.62499998280E+02  0.99999801695E+01 0.  0.
    3000022    2    5    5    0    0 -0.40243554901E+02 -0.22861520057E+02  0.10976940756E+02  0.47568356499E+02  0.25000239071E+00 0.  0.
        -13    1    4    4    0    0  0.14239037186E+02  0.59619371960E+01 -0.11474233951E+01  0.15479744202E+02  0.10500000000E+00 0. -1.
         13    1    4    4    0    0  0.24405046220E+02  0.10118055123E+02 -0.20957526837E+01  0.26502538082E+02  0.10500000000E+00 0.  1.
    3000001    1    5    5    0    0 -0.14363594479E+02 -0.39089023117E+01 -0.60130080472E+00  0.14931641782E+02  0.10000000000E+01 0. -1.
        -13    1    6    6    0    0 -0.26119409530E+02 -0.14823461218E+02  0.71794924108E+01  0.30879033226E+02  0.10500000000E+00 0.  1.
         13    1    6    6    0    0 -0.14124145371E+02 -0.80380588397E+01  0.37974483456E+01  0.16689323273E+02  0.10500000000E+00 0. -1.
</event>
<event>
11    0  0.3482988E-009  0.9118800E+02  0.7816531E-02  0.1126479E+00
         25   -1    0    0    0    0  0.00000000000E+00  0.00000000000E+00  0.99999998245E-14  0.12500000000E+03  0.12500000000E+03 0.  0.
    3000001    1    3    3    0    0 -0.25252421618E+02  0.17557300890E+00 -0.14093535471E+02  0.28936885899E+02  0.10000000000E+01 0.  1.
    1000022    2    1    0    0    0 -0.58204246896E+02 -0.14332402568E+00 -0.20457153708E+02  0.62500000027E+02  0.99999983464E+01 0.  0.
    3000022    2    3    3    0    0 -0.32951825278E+02 -0.31889703458E+00 -0.63636182376E+01  0.33563114128E+02  0.25001677321E+00 0.  0.
    1000022    2    1    0    0    0  0.58204246896E+02  0.14332402568E+00  0.20457153708E+02  0.62499999973E+02  0.99999980147E+01 0.  0.
    3000022    2    5    5    0    0  0.33543057313E+02  0.48780793909E+01  0.12712534356E+02  0.36202256554E+02  0.24999483738E+00 0.  0.
        -13    1    4    4    0    0 -0.14835313876E+02 -0.17847955874E+00 -0.28071902174E+01  0.15099991214E+02  0.10500000000E+00 0. -1.
         13    1    4    4    0    0 -0.18116511402E+02 -0.14041747584E+00 -0.35564280202E+01  0.18463122914E+02  0.10500000000E+00 0.  1.
    3000001    1    5    5    0    0  0.24661189584E+02 -0.47347553652E+01  0.77446193527E+01  0.26297743420E+02  0.10000000000E+01 0. -1.
        -13    1    6    6    0    0  0.10173631139E+02  0.14447420325E+01  0.38203233161E+01  0.10963391142E+02  0.10500000000E+00 0. -1.
         13    1    6    6    0    0  0.23369426173E+02  0.34333373584E+01  0.88922110397E+01  0.25238865411E+02  0.10500000000E+00 0.  1.
</event>
<event>
11    0  0.3482988E-009  0.9118800E+02  0.7816531E-02  0.1126479E+00
         25   -1    0    0    0    0  0.00000000000E+00  0.00000000000E+00  0.99999998245E-14  0.12500000000E+03  0.12500000000E+03 0.  0.
    3000001    1    3    3    0    0 -0.14861977462E+02 -0.16462617493E+02 -0.84487234386E+01  0.23754516971E+02  0.10000000000E+01 0. -1.
    1000022    2    1    0    0    0 -0.37035398524E+02 -0.48149171332E+02 -0.10783616575E+02  0.62500000828E+02  0.10000013661E+02 0.  0.
    3000022    2    3    3    0    0 -0.22173421062E+02 -0.31686553840E+02 -0.23348931366E+01  0.38745483857E+02  0.24999500443E+00 0.  0.
    1000022    2    1    0    0    0  0.37035398524E+02  0.48149171332E+02  0.10783616575E+02  0.62499999172E+02  0.10000003309E+02 0.  0.
    3000022    2    5    5    0    0  0.36479030772E+02  0.46660244613E+02  0.11758775805E+02  0.60384016332E+02  0.25001327254E+00 0.  0.
        -13    1    4    4    0    0 -0.10793869667E+02 -0.15466882475E+02 -0.10752713033E+01  0.18891778880E+02  0.10500000000E+00 0. -1.
         13    1    4    4    0    0 -0.11379551395E+02 -0.16219671365E+02 -0.12596218332E+01  0.19853704977E+02  0.10500000000E+00 0.  1.
    3000001    1    5    5    0    0  0.55636775265E+00  0.14889267197E+01 -0.97515922996E+00  0.21159828394E+01  0.10000000000E+01 0. -1.
        -13    1    6    6    0    0  0.21435412817E+02  0.27399977714E+02  0.69712211615E+01  0.35480200829E+02  0.10500000000E+00 0. -1.
         13    1    6    6    0    0  0.15043617955E+02  0.19260266898E+02  0.47875546435E+01  0.24903815503E+02  0.10500000000E+00 0.  1.
</event>
<event>
11    0  0.3482988E-009  0.9118800E+02  0.7816531E-02  0.1126479E+00
         25   -1    0    0    0    0  0.00000000000E+00  0.00000000000E+00  0.99999998245E-14  0.12500000000E+03  0.12500000000E+03 0.  0.
    3000001    1    3    3    0    0  0.32035564074E+02 -0.33806829420E+02  0.83108038047E+01  0.47320698863E+02  0.10000000000E+01 0. -1.
    1000022    2    1    0    0    0  0.40864330076E+02 -0.43277791612E+02  0.16229287803E+02  0.62499998011E+02  0.99999624725E+01 0.  0.
    3000022    2    3    3    0    0  0.88287660016E+01 -0.94709621919E+01  0.79184839978E+01  0.15179299148E+02  0.24999970919E+00 0.  0.
    1000022    2    1    0    0    0 -0.40864330076E+02  0.43277791612E+02 -0.16229287803E+02  0.62500001989E+02  0.99999873296E+01 0.  0.
    3000022    2    5    5    0    0 -0.12725126070E+02  0.18677563207E+02 -0.94638020991E+01  0.24503188484E+02  0.24998973830E+00 0.  0.
        -13    1    4    4    0    0  0.20839687124E+01 -0.22144305884E+01  0.18607962481E+01  0.35665411959E+01  0.10500000000E+00 0. -1.
         13    1    4    4    0    0  0.67447972892E+01 -0.72565316035E+01  0.60576877497E+01  0.11612757952E+02  0.10500000000E+00 0.  1.
    3000001    1    5    5    0    0 -0.28139204006E+02  0.24600228405E+02 -0.67654857034E+01  0.37996813505E+02  0.10000000000E+01 0. -1.
        -13    1    6    6    0    0 -0.89670735877E+01  0.13146345020E+02 -0.66158622138E+01  0.17234136298E+02  0.10500000000E+00 0.  1.
         13    1    6    6    0    0 -0.37580524822E+01  0.55312181871E+01 -0.28479398853E+01  0.72690521860E+01  0.10500000000E+00 0. -1.
</event>
<event>
11    0  0.3482988E-009  0.9118800E+02  0.7816531E-02  0.1126479E+00
         25   -1    0    0    0    0  0.00000000000E+00  0.00000000000E+00  0.99999998245E-14  0.12500000000E+03  0.12500000000E+03 0.  0.
    3000001    1    3    3    0    0  0.79722905008E+00 -0.39442913581E+01 -0.19218589588E+02  0.19660803499E+02  0.10000000000E+01 0.  1.
    1000022    2    1    0    0    0  0.52177625660E+01  0.17246627692E+01 -0.61449579839E+02  0.62500005102E+02  0.10000013374E+02 0.  0.
    3000022    2    3    3    0    0  0.44205335160E+01  0.56689541273E+01 -0.42230990251E+02  0.42839201603E+02  0.24999785050E+00 0.  0.
    1000022    2    1    0    0    0 -0.52177625660E+01 -0.17246627692E+01  0.61449579839E+02  0.62499994898E+02  0.99999496016E+01 0.  0.
    3000022    2    5    5    0    0 -0.55069739415E+01  0.66722447612E+00  0.57495090036E+02  0.57762616149E+02  0.24999122018E+00 0.  0.
        -13    1    4    4    0    0  0.21616230532E+01  0.28709214109E+01 -0.20929282502E+02  0.21235835162E+02  0.10500000000E+00 0.  1.
         13    1    4    4    0    0  0.22589104628E+01  0.27980327165E+01 -0.21301707749E+02  0.21603366441E+02  0.10500000000E+00 0. -1.
    3000001    1    5    5    0    0  0.28921137545E+00 -0.23918872453E+01  0.39544898028E+01  0.47373787493E+01  0.10000000000E+01 0.  1.
        -13    1    6    6    0    0 -0.22912060752E+01  0.23293677995E+00  0.23389324977E+02  0.23502668629E+02  0.10500000000E+00 0. -1.
         13    1    6    6    0    0 -0.32157678663E+01  0.43428769617E+00  0.34105765060E+02  0.34259947520E+02  0.10500000000E+00 0.  1.
</event>
<event>
11    0  0.3482988E-009  0.9118800E+02  0.7816531E-02  0.1126479E+00
         25   -1    0    0    0    0  0.00000000000E+00  0.00000000000E+00  0.99999998245E-14  0.12500000000E+03  0.12500000000E+03 0.  0.
    3000001    1    3    3    0    0 -0.51702098889E+01  0.30205194406E+01 -0.16025668579E+01  0.62787601101E+01  0.10000000000E+01 0.  1.
    1000022    2    1    0    0    0 -0.30883927902E+02  0.45558638108E+02 -0.27871910959E+02  0.62499999637E+02  0.10000001261E+02 0.  0.
    3000022    2    3    3    0    0 -0.25713718013E+02  0.42538118667E+02 -0.26269344101E+02  0.56221239527E+02  0.25000126433E+00 0.  0.
    1000022    2    1    0    0    0  0.30883927902E+02 -0.45558638108E+02  0.27871910959E+02  0.62500000363E+02  0.10000005797E+02 0.  0.
    3000022    2    5    5    0    0  0.30987383494E+02 -0.44754241079E+02  0.26264309572E+02  0.60440354797E+02  0.25000064784E+00 0.  0.
        -13    1    4    4    0    0 -0.13115219904E+02  0.21811213145E+02 -0.13487458962E+02  0.28803829367E+02  0.10500000000E+00 0. -1.
         13    1    4    4    0    0 -0.12598498109E+02  0.20726905523E+02 -0.12781885139E+02  0.27417410160E+02  0.10500000000E+00 0.  1.
    3000001    1    5    5    0    0 -0.10345559170E+00 -0.80439702916E+00  0.16076013864E+01  0.20596455660E+01  0.10000000000E+01 0.  1.
        -13    1    6    6    0    0  0.13189809312E+02 -0.19067756897E+02  0.11115100078E+02  0.25711999096E+02  0.10500000000E+00 0. -1.
         13    1    6    6    0    0  0.17797574182E+02 -0.25686484182E+02  0.15149209494E+02  0.34728355701E+02  0.10500000000E+00 0.  1.
</event>
<event>
11    0  0.3482988E-009  0.9118800E+02  0.7816531E-02  0.1126479E+00
         25   -1    0    0    0    0  0.00000000000E+00  0.00000000000E+00  0.99999998245E-14  0.12500000000E+03  0.12500000000E+03 0.  0.
    3000001    1    3    3    0    0  0.11137081354E+02 -0.37604264307E+02 -0.31470492011E+02  0.50294205855E+02  0.10000000000E+01 0.  1.
    1000022    2    1    0    0    0  0.12624800303E+02 -0.49174407113E+02 -0.35053421771E+02  0.62499999604E+02  0.99999837483E+01 0.  0.
    3000022    2    3    3    0    0  0.14877189491E+01 -0.11570142806E+02 -0.35829297599E+01  0.12205793749E+02  0.25000628693E+00 0.  0.
    1000022    2    1    0    0    0 -0.12624800303E+02  0.49174407113E+02  0.35053421771E+02  0.62500000396E+02  0.99999887026E+01 0.  0.
    3000022    2    5    5    0    0 -0.71041845949E+01  0.42171935898E+02  0.28645029968E+02  0.51473700635E+02  0.24999819370E+00 0.  0.
        -13    1    4    4    0    0  0.44290663959E+00 -0.35749735247E+01 -0.10594715330E+01  0.37563422265E+01  0.10500000000E+00 0. -1.
         13    1    4    4    0    0  0.10448123095E+01 -0.79951692815E+01 -0.25234582269E+01  0.84494515221E+01  0.10500000000E+00 0.  1.
    3000001    1    5    5    0    0 -0.55206157081E+01  0.70024712155E+01  0.64083918028E+01  0.11026299761E+02  0.10000000000E+01 0. -1.
        -13    1    6    6    0    0 -0.46861517835E+01  0.28042717141E+02  0.18996725055E+02  0.34194160189E+02  0.10500000000E+00 0.  1.
         13    1    6    6    0    0 -0.24180328114E+01  0.14129218757E+02  0.96483049134E+01  0.17279540447E+02  0.10500000000E+00 0. -1.
</event>
<event>
11    0  0.3482988E-009  0.9118800E+02  0.7816531E-02  0.1126479E+00
         25   -1    0    0    0    0  0.00000000000E+00  0.00000000000E+00  0.99999998245E-14  0.12500000000E+03  0.12500000000E+03 0.  0.
    3000001    1    3    3    0    0  0.64810157596E+01  0.26606131151E+01 -0.54416621774E+01  0.89271560241E+01  0.10000000000E+01 0. -1.
    1000022    2    1    0    0    0  0.26021286372E+02  0.24400590765E+02 -0.50336407640E+02  0.62499999082E+02  0.99999888539E+01 0.  0.
    3000022    2    3    3    0    0  0.19540270612E+02  0.21739977650E+02 -0.44894745462E+02  0.53572843058E+02  0.25007877117E+00 0.  0.
    1000022    2    1    0    0    0 -0.26021286372E+02 -0.24400590765E+02  0.50336407640E+02  0.62500000918E+02  0.10000000330E+02 0.  0.
    3000022    2    5    5    0    0 -0.97572882762E+01 -0.15893749170E+02  0.24489553759E+02  0.30783383137E+02  0.24999370273E+00 0.  0.
        -13    1    4    4    0    0  0.11422926952E+02  0.12616836854E+02 -0.26176232833E+02  0.31222972675E+02  0.10500000000E+00 0.  1.
         13    1    4    4    0    0  0.81173436604E+01  0.91231407956E+01 -0.18718512630E+02  0.22349870383E+02  0.10500000000E+00 0. -1.
    3000001    1    5    5    0    0 -0.16263998095E+02 -0.85068415951E+01  0.25846853880E+02  0.31716617781E+02  0.10000000000E+01 0.  1.
        -13    1    6    6    0    0 -0.46334611019E+01 -0.75807978423E+01  0.11559039905E+02  0.14579433673E+02  0.10500000000E+00 0. -1.
         13    1    6    6    0    0 -0.51238271743E+01 -0.83129513273E+01  0.12930513855E+02  0.16203949464E+02  0.10500000000E+00 0.  1.
</event>
<event>
11    0  0.3482988E-009  0.9118800E+02  0.7816531E-02  0.1126479E+00
         25   -1    0    0    0    0  0.00000000000E+00  0.00000000000E+00  0.99999998245E-14  0.12500000000E+03  0.12500000000E+03 0.  0.
    3000001    1    3    3    0    0 -0.31674449627E+01  0.15776318530E+02 -0.35557050049E+02  0.39041372185E+02  0.10000000000E+01 0. -1.
    1000022    2    1    0    0    0 -0.33749982603E+01  0.18029600396E+02 -0.58904948008E+02  0.62499999689E+02  0.99999978813E+01 0.  0.
    3000022    2    3    3    0    0 -0.20755329765E+00  0.22532818666E+01 -0.23347897959E+02  0.23458627504E+02  0.25001542476E+00 0.  0.
    1000022    2    1    0    0    0  0.33749982603E+01 -0.18029600396E+02  0.58904948008E+02  0.62500000311E+02  0.10000001768E+02 0.  0.
    3000022    2    5    5    0    0  0.30911410248E+01 -0.19127923787E+02  0.54838202167E+02  0.58161185849E+02  0.25000246938E+00 0.  0.
        -13    1    4    4    0    0 -0.26170721071E-01  0.97032773579E+00 -0.98301534036E+01  0.98785202212E+01  0.10500000000E+00 0. -1.
         13    1    4    4    0    0 -0.18138257658E+00  0.12829541308E+01 -0.13517744555E+02  0.13580107283E+02  0.10500000000E+00 0.  1.
    3000001    1    5    5    0    0  0.28385723551E+00  0.10983233905E+01  0.40667458408E+01  0.43388144618E+01  0.10000000000E+01 0.  1.
        -13    1    6    6    0    0  0.85043086278E+00 -0.54265108580E+01  0.15641598200E+02  0.16578325368E+02  0.10500000000E+00 0. -1.
         13    1    6    6    0    0  0.22407101620E+01 -0.13701412929E+02  0.39196603967E+02  0.41582860481E+02  0.10500000000E+00 0.  1.
</event>
<event>
11    0  0.3482988E-009  0.9118800E+02  0.7816531E-02  0.1126479E+00
         25   -1    0    0    0    0  0.00000000000E+00  0.00000000000E+00  0.99999998245E-14  0.12500000000E+03  0.12500000000E+03 0.  0.
    3000001    1    3    3    0    0 -0.35807722401E+01  0.64933594131E+01 -0.42375316260E+01  0.85989720656E+01  0.10000000000E+01 0. -1.
    1000022    2    1    0    0    0 -0.45257441012E+02  0.35882541169E+02 -0.21690026063E+02  0.62499999755E+02  0.10000000552E+02 0.  0.
    3000022    2    3    3    0    0 -0.41676668771E+02  0.29389181756E+02 -0.17452494437E+02  0.53901027689E+02  0.24999935065E+00 0.  0.
    1000022    2    1    0    0    0  0.45257441012E+02 -0.35882541169E+02  0.21690026063E+02  0.62500000245E+02  0.10000003619E+02 0.  0.
    3000022    2    5    5    0    0  0.15859049296E+02 -0.68789600976E+01  0.57023093127E+01  0.18204625347E+02  0.25003190390E+00 0.  0.
        -13    1    4    4    0    0 -0.21250929856E+02  0.15031143470E+02 -0.89678438694E+01  0.27531264817E+02  0.10500000000E+00 0.  1.
         13    1    4    4    0    0 -0.20425738915E+02  0.14358038286E+02 -0.84846505677E+01  0.26369762872E+02  0.10500000000E+00 0. -1.
    3000001    1    5    5    0    0  0.29398391716E+02 -0.29003581072E+02  0.15987716750E+02  0.44295374898E+02  0.10000000000E+01 0.  1.
        -13    1    6    6    0    0  0.10300473108E+02 -0.45137097930E+01  0.37491785186E+01  0.11854985740E+02  0.10500000000E+00 0. -1.
         13    1    6    6    0    0  0.55585761881E+01 -0.23652503045E+01  0.19531307942E+01  0.63496396071E+01  0.10500000000E+00 0.  1.
</event>
<event>
11    0  0.3482988E-009  0.9118800E+02  0.7816531E-02  0.1126479E+00
         25   -1    0    0    0    0  0.00000000000E+00  0.00000000000E+00  0.99999998245E-14  0.12500000000E+03  0.12500000000E+03 0.  0.
    3000001    1    3    3    0    0 -0.87297058270E+00  0.19777716631E+02 -0.16900438740E+02  0.26048895991E+02  0.10000000000E+01 0. -1.
    1000022    2    1    0    0    0 -0.10345741709E+01  0.53539977472E+02 -0.30637401382E+02  0.62500000011E+02  0.10000005325E+02 0.  0.
    3000022    2    3    3    0    0 -0.16160358817E+00  0.33762260841E+02 -0.13736962642E+02  0.36451104020E+02  0.24993756147E+00 0.  0.
    1000022    2    1    0    0    0  0.10345741709E+01 -0.53539977472E+02  0.30637401382E+02  0.62499999989E+02  0.10000005189E+02 0.  0.
    3000022    2    5    5    0    0  0.39049910599E+00 -0.17003401650E+02  0.15223436508E+02  0.22827257222E+02  0.24999194070E+00 0.  0.
        -13    1    4    4    0    0 -0.15608352320E+00  0.19874323301E+02 -0.80651798869E+01  0.21449271325E+02  0.10500000000E+00 0.  1.
         13    1    4    4    0    0 -0.55200649780E-02  0.13887937540E+02 -0.56717827552E+01  0.15001832695E+02  0.10500000000E+00 0. -1.
    3000001    1    5    5    0    0  0.64407506488E+00 -0.36536575822E+02  0.15413964874E+02  0.39672742767E+02  0.10000000000E+01 0. -1.
        -13    1    6    6    0    0  0.21774803322E+00 -0.11629059159E+02  0.10400103908E+02  0.15603064360E+02  0.10500000000E+00 0. -1.
         13    1    6    6    0    0  0.17275107277E+00 -0.53743424909E+01  0.48233326002E+01  0.72241928625E+01  0.10500000000E+00 0.  1.
</event>
<event>
11    0  0.3482988E-009  0.9118800E+02  0.7816531E-02  0.1126479E+00
         25   -1    0    0    0    0  0.00000000000E+00  0.00000000000E+00  0.99999998245E-14  0.12500000000E+03  0.12500000000E+03 0.  0.
    3000001    1    3    3    0    0 -0.27261579834E+02  0.44595705076E+02 -0.20313120505E+02  0.56085590939E+02  0.10000000000E+01 0. -1.
    1000022    2    1    0    0    0 -0.27134850480E+02  0.50307994400E+02 -0.23217575380E+02  0.62500002380E+02  0.10000003991E+02 0.  0.
    3000022    2    3    3    0    0  0.12672935346E+00  0.57122893240E+01 -0.29044548752E+01  0.64144114415E+01  0.25001273808E+00 0.  0.
    1000022    2    1    0    0    0  0.27134850480E+02 -0.50307994400E+02  0.23217575380E+02  0.62499997620E+02  0.99999742394E+01 0.  0.
    3000022    2    5    5    0    0  0.93360368983E+01 -0.10953129861E+02  0.25951854772E+01  0.14626350452E+02  0.25000233909E+00 0.  0.
        -13    1    4    4    0    0  0.13072104127E+00  0.36626883369E+01 -0.18282767883E+01  0.40970714978E+01  0.10500000000E+00 0.  1.
         13    1    4    4    0    0 -0.39916878096E-02  0.20496009871E+01 -0.10761780869E+01  0.23173399437E+01  0.10500000000E+00 0. -1.
    3000001    1    5    5    0    0  0.17798813582E+02 -0.39354864539E+02  0.20622389903E+02  0.47873647168E+02  0.10000000000E+01 0. -1.
        -13    1    6    6    0    0  0.33372586714E+01 -0.38295874207E+01  0.92875748248E+00  0.51649444057E+01  0.10500000000E+00 0.  1.
         13    1    6    6    0    0  0.59987782269E+01 -0.71235424402E+01  0.16664279947E+01  0.94614060463E+01  0.10500000000E+00 0. -1.
</event>
<event>
11    0  0.3482988E-009  0.9118800E+02  0.7816531E-02  0.1126479E+00
         25   -1    0    0    0    0  0.00000000000E+00  0.00000000000E+00  0.99999998245E-14  0.12500000000E+03  0.12500000000E+03 0.  0.
    3000001    1    3    3    0    0  0.48388000888E+01 -0.54158894540E+01 -0.19543259796E+02  0.20873065140E+02  0.10000000000E+01 0. -1.
    1000022    2    1    0    0    0  0.16226223322E+02 -0.24565915508E+01 -0.59472050757E+02  0.62499999928E+02  0.10000000220E+02 0.  0.
    3000022    2    3    3    0    0  0.11387423233E+02  0.29592979032E+01 -0.39928790961E+02  0.41626934788E+02  0.25000054271E+00 0.  0.
    1000022    2    1    0    0    0 -0.16226223322E+02  0.24565915508E+01  0.59472050757E+02  0.62500000072E+02  0.10000001115E+02 0.  0.
    3000022    2    5    5    0    0  0.11331619670E+01  0.65063610414E+00  0.18109164856E+01  0.22470653862E+01  0.25000189681E+00 0.  0.
        -13    1    4    4    0    0  0.38661779250E+01  0.10054380499E+01 -0.13366401915E+02  0.13950984287E+02  0.10500000000E+00 0.  1.
         13    1    4    4    0    0  0.75212453083E+01  0.19538598533E+01 -0.26562389046E+02  0.27675950501E+02  0.10500000000E+00 0. -1.
    3000001    1    5    5    0    0 -0.17359385289E+02  0.18059554467E+01  0.57661134272E+02  0.60252934685E+02  0.10000000000E+01 0.  1.
        -13    1    6    6    0    0  0.55574668787E+00  0.39012288651E+00  0.88862798101E+00  0.11232697522E+01  0.10500000000E+00 0.  1.
         13    1    6    6    0    0  0.57741527914E+00  0.26051321763E+00  0.92228850457E+00  0.11237956339E+01  0.10500000000E+00 0. -1.
</event>
<event>
11    0  0.3482988E-009  0.9118800E+02  0.7816531E-02  0.1126479E+00
         25   -1    0    0    0    0  0.00000000000E+00  0.00000000000E+00  0.99999998245E-14  0.12500000000E+03  0.12500000000E+03 0.  0.
    3000001    1    3    3    0    0  0.18252436882E+02  0.22095910200E+01  0.33982868350E+01  0.18723837695E+02  0.10000000000E+01 0.  1.
    1000022    2    1    0    0    0  0.59855753631E+02 -0.75294206412E+01  0.12916950234E+02  0.62499992936E+02  0.99999047863E+01 0.  0.
    3000022    2    3    3    0    0  0.41603316749E+02 -0.97390116612E+01  0.95186633995E+01  0.43776155241E+02  0.25000430309E+00 0.  0.
    1000022    2    1    0    0    0 -0.59855753631E+02  0.75294206412E+01 -0.12916950234E+02  0.62500007064E+02  0.99999930823E+01 0.  0.
    3000022    2    5    5    0    0 -0.33343262410E+02  0.29941867206E+01 -0.22721974958E+01  0.33555382375E+02  0.25000529924E+00 0.  0.
        -13    1    4    4    0    0  0.22338159443E+02 -0.51952497521E+01  0.51690916466E+01  0.23509881343E+02  0.10500000000E+00 0. -1.
         13    1    4    4    0    0  0.19265157306E+02 -0.45437619092E+01  0.43495717529E+01  0.20266273899E+02  0.10500000000E+00 0.  1.
    3000001    1    5    5    0    0 -0.26512491221E+02  0.45352339206E+01 -0.10644752739E+02  0.28944624688E+02  0.10000000000E+01 0.  1.
        -13    1    6    6    0    0 -0.12187155339E+02  0.10368128395E+01 -0.84356531921E+00  0.12260683650E+02  0.10500000000E+00 0. -1.
         13    1    6    6    0    0 -0.21156107071E+02  0.19573738811E+01 -0.14286321766E+01  0.21294698725E+02  0.10500000000E+00 0.  1.
</event>
<event>
11    0  0.3482988E-009  0.9118800E+02  0.7816531E-02  0.1126479E+00
         25   -1    0    0    0    0  0.00000000000E+00  0.00000000000E+00  0.99999998245E-14  0.12500000000E+03  0.12500000000E+03 0.  0.
    3000001    1    3    3    0    0  0.18915423241E+02 -0.41416232295E+02  0.41648945037E+02  0.61714926530E+02  0.10000000000E+01 0.  1.
    1000022    2    1    0    0    0  0.19618291322E+02 -0.41259214428E+02  0.41461426511E+02  0.62499999695E+02  0.99999971946E+01 0.  0.
    3000022    2    3    3    0    0  0.70286808063E+00  0.15701786678E+00 -0.18751852546E+00  0.78507316510E+00  0.24999705583E+00 0.  0.
    1000022    2    1    0    0    0 -0.19618291322E+02  0.41259214428E+02 -0.41461426511E+02  0.62500000305E+02  0.10000001011E+02 0.  0.
    3000022    2    5    5    0    0 -0.66384018616E+01  0.10905457581E+02 -0.62293946347E+01  0.14207928955E+02  0.25000671384E+00 0.  0.
        -13    1    4    4    0    0  0.55227560143E+00  0.11076345883E+00 -0.13698728344E+00  0.58912426497E+00  0.10500000000E+00 0.  1.
         13    1    4    4    0    0  0.15059247919E+00  0.46254407951E-01 -0.50531242019E-01  0.19594890014E+00  0.10500000000E+00 0. -1.
    3000001    1    5    5    0    0 -0.12979889460E+02  0.30353756847E+02 -0.35232031876E+02  0.48292071350E+02  0.10000000000E+01 0.  1.
        -13    1    6    6    0    0 -0.22306521201E+01  0.35634986853E+01 -0.20462375202E+01  0.46767985578E+01  0.10500000000E+00 0. -1.
         13    1    6    6    0    0 -0.44077497415E+01  0.73419588956E+01 -0.41831571144E+01  0.95311303974E+01  0.10500000000E+00 0.  1.
</event>
<event>
11    0  0.3482988E-009  0.9118800E+02  0.7816531E-02  0.1126479E+00
         25   -1    0    0    0    0  0.00000000000E+00  0.00000000000E+00  0.99999998245E-14  0.12500000000E+03  0.12500000000E+03 0.  0.
    3000001    1    3    3    0    0  0.89162912597E+01 -0.13085905506E+02  0.21136718133E+02  0.26429188905E+02  0.10000000000E+01 0.  1.
    1000022    2    1    0    0    0  0.25808319017E+02 -0.20634362170E+02  0.52099939859E+02  0.62499999985E+02  0.10000001608E+02 0.  0.
    3000022    2    3    3    0    0  0.16892027757E+02 -0.75484566639E+01  0.30963221726E+02  0.36070811080E+02  0.25002509385E+00 0.  0.
    1000022    2    1    0    0    0 -0.25808319017E+02  0.20634362170E+02 -0.52099939859E+02  0.62500000015E+02  0.10000001800E+02 0.  0.
    3000022    2    5    5    0    0  0.16999092225E+00  0.57095641219E+00 -0.52348917581E+01  0.52746073006E+01  0.25000463602E+00 0.  0.
        -13    1    4    4    0    0  0.66608111290E+01 -0.29497222392E+01  0.12079659850E+02  0.14106610978E+02  0.10500000000E+00 0. -1.
         13    1    4    4    0    0  0.10231216628E+02 -0.45987344247E+01  0.18883561876E+02  0.21964200102E+02  0.10500000000E+00 0.  1.
    3000001    1    5    5    0    0 -0.25978309939E+02  0.20063405758E+02 -0.46865048101E+02  0.57225392715E+02  0.10000000000E+01 0. -1.
        -13    1    6    6    0    0  0.13844196081E+00  0.25351923061E+00 -0.22543962887E+01  0.22752507121E+01  0.10500000000E+00 0. -1.
         13    1    6    6    0    0  0.31548961441E-01  0.31743718159E+00 -0.29804954694E+01  0.29993565884E+01  0.10500000000E+00 0.  1.
</event>
<event>
11    0  0.3482988E-009  0.9118800E+02  0.7816531E-02  0.1126479E+00
         25   -1    0    0    0    0  0.00000000000E+00  0.00000000000E+00  0.99999998245E-14  0.12500000000E+03  0.12500000000E+03 0.  0.
    3000001    1    3    3    0    0  0.30233528803E+01  0.67113956579E+01 -0.61210964101E+01  0.96255553386E+01  0.10000000000E+01 0. -1.
    1000022    2    1    0    0    0  0.35113183206E+02  0.45073779817E+02 -0.23273778709E+02  0.62499998487E+02  0.99999886808E+01 0.  0.
    3000022    2    3    3    0    0  0.32089830326E+02  0.38362384159E+02 -0.17152682299E+02  0.52874443149E+02  0.24999897403E+00 0.  0.
    1000022    2    1    0    0    0 -0.35113183206E+02 -0.45073779817E+02  0.23273778709E+02  0.62500001513E+02  0.10000007590E+02 0.  0.
    3000022    2    5    5    0    0 -0.40066657276E+00 -0.47382701083E+01  0.23468774707E+01  0.53086791818E+01  0.25000694175E+00 0.  0.
        -13    1    4    4    0    0  0.16108937637E+02  0.19346831902E+02 -0.85954343848E+01  0.26602449016E+02  0.10500000000E+00 0. -1.
         13    1    4    4    0    0  0.15980892690E+02  0.19015552258E+02 -0.85572479144E+01  0.26271994132E+02  0.10500000000E+00 0.  1.
    3000001    1    5    5    0    0 -0.34712516634E+02 -0.40335509709E+02  0.20926901239E+02  0.57191322331E+02  0.10000000000E+01 0. -1.
        -13    1    6    6    0    0 -0.21585356361E+00 -0.19945123799E+01  0.94040360406E+00  0.22181199996E+01  0.10500000000E+00 0. -1.
         13    1    6    6    0    0 -0.18481300915E+00 -0.27437577285E+01  0.14064738667E+01  0.30905591822E+01  0.10500000000E+00 0.  1.
</event>
<event>
11    0  0.3482988E-009  0.9118800E+02  0.7816531E-02  0.1126479E+00
         25   -1    0    0    0    0  0.00000000000E+00  0.00000000000E+00  0.99999998245E-14  0.12500000000E+03  0.12500000000E+03 0.  0.
    3000001    1    3    3    0    0  0.66025099180E+01 -0.28621397190E+02 -0.84701755554E+01  0.30586294125E+02  0.10000000000E+01 0. -1.
    1000022    2    1    0    0    0  0.17125626279E+02 -0.58743528947E+02 -0.78841688230E+01  0.62500001212E+02  0.10000038244E+02 0.  0.
    3000022    2    3    3    0    0  0.10523116361E+02 -0.30122131757E+02  0.58600673240E+00  0.31913707087E+02  0.24999329899E+00 0.  0.
    1000022    2    1    0    0    0 -0.17125626279E+02  0.58743528947E+02  0.78841688230E+01  0.62499998788E+02  0.10000023091E+02 0.  0.
    3000022    2    5    5    0    0  0.11919394772E+01  0.67618255374E+01  0.59419037075E+00  0.68962714806E+01  0.24998764374E+00 0.  0.
        -13    1    4    4    0    0  0.63242958905E+01 -0.17971455464E+02  0.30379995122E+00  0.19054481085E+02  0.10500000000E+00 0. -1.
         13    1    4    4    0    0  0.41988204706E+01 -0.12150676292E+02  0.28220678119E+00  0.12859226002E+02  0.10500000000E+00 0.  1.
    3000001    1    5    5    0    0 -0.18317565756E+02  0.51981703410E+02  0.72899784523E+01  0.55603727307E+02  0.10000000000E+01 0. -1.
        -13    1    6    6    0    0  0.77593886230E+00  0.41009004818E+01  0.32714013832E+00  0.41877812204E+01  0.10500000000E+00 0. -1.
         13    1    6    6    0    0  0.41600061487E+00  0.26609250556E+01  0.26705023243E+00  0.27084902602E+01  0.10500000000E+00 0.  1.
</event>
<event>
11    0  0.3482988E-009  0.9118800E+02  0.7816531E-02  0.1126479E+00
         25   -1    0    0    0    0  0.00000000000E+00  0.00000000000E+00  0.99999998245E-14  0.12500000000E+03  0.12500000000E+03 0.  0.
    3000001    1    3    3    0    0  0.38579339807E+01 -0.45452541945E+01 -0.12512854902E+00  0.60463747358E+01  0.10000000000E+01 0. -1.
    1000022    2    1    0    0    0  0.33335064454E+02 -0.42940144427E+02 -0.29174760171E+02  0.62500005467E+02  0.10000076338E+02 0.  0.
    3000022    2    3    3    0    0  0.29477130474E+02 -0.38394890232E+02 -0.29049631622E+02  0.56453630732E+02  0.25001688327E+00 0.  0.
    1000022    2    1    0    0    0 -0.33335064454E+02  0.42940144427E+02  0.29174760171E+02  0.62499994533E+02  0.10000007996E+02 0.  0.
    3000022    2    5    5    0    0 -0.23039263280E+02  0.25676631866E+02  0.22945636156E+02  0.41432617530E+02  0.25000066588E+00 0.  0.
        -13    1    4    4    0    0  0.15216940089E+02 -0.19873571320E+02 -0.15090882297E+02  0.29227724103E+02  0.10500000000E+00 0.  1.
         13    1    4    4    0    0  0.14260190384E+02 -0.18521318912E+02 -0.13958749325E+02  0.27225906629E+02  0.10500000000E+00 0. -1.
    3000001    1    5    5    0    0 -0.10295801174E+02  0.17263512561E+02  0.62291240159E+01  0.21067377002E+02  0.10000000000E+01 0.  1.
        -13    1    6    6    0    0 -0.15404084309E+02  0.17121593290E+02  0.15371037583E+02  0.27689611619E+02  0.10500000000E+00 0. -1.
         13    1    6    6    0    0 -0.76351789710E+01  0.85550385755E+01  0.75745985726E+01  0.13743005911E+02  0.10500000000E+00 0.  1.
</event>
<event>
11    0  0.3482988E-009  0.9118800E+02  0.7816531E-02  0.1126479E+00
         25   -1    0    0    0    0  0.00000000000E+00  0.00000000000E+00  0.99999998245E-14  0.12500000000E+03  0.12500000000E+03 0.  0.
    3000001    1    3    3    0    0  0.44464907726E+01 -0.28962357880E+01 -0.68917113413E-02  0.53999545763E+01  0.10000000000E+01 0.  1.
    1000022    2    1    0    0    0  0.40416956589E+02 -0.36985710614E+02 -0.28368588888E+02  0.62499998984E+02  0.99999934015E+01 0.  0.
    3000022    2    3    3    0    0  0.35970465816E+02 -0.34089474826E+02 -0.28361697176E+02  0.57100044408E+02  0.24999943939E+00 0.  0.
    1000022    2    1    0    0    0 -0.40416956589E+02  0.36985710614E+02  0.28368588888E+02  0.62500001016E+02  0.10000006097E+02 0.  0.
    3000022    2    5    5    0    0 -0.35741249999E+02  0.31145413998E+02  0.20669267863E+02  0.51718032692E+02  0.25001400552E+00 0.  0.
        -13    1    4    4    0    0  0.21899270775E+02 -0.20810688195E+02 -0.17235579383E+02  0.34781302812E+02  0.10500000000E+00 0.  1.
         13    1    4    4    0    0  0.14071195041E+02 -0.13278786631E+02 -0.11126117793E+02  0.22318741596E+02  0.10500000000E+00 0. -1.
    3000001    1    5    5    0    0 -0.46757065897E+01  0.58402966167E+01  0.76993210245E+01  0.10781968323E+02  0.10000000000E+01 0.  1.
        -13    1    6    6    0    0 -0.11813853127E+02  0.10291153128E+02  0.67733431172E+01  0.17069392503E+02  0.10500000000E+00 0.  1.
         13    1    6    6    0    0 -0.23927396872E+02  0.20854260869E+02  0.13895924746E+02  0.34648640190E+02  0.10500000000E+00 0. -1.
</event>
<event>
11    0  0.3482988E-009  0.9118800E+02  0.7816531E-02  0.1126479E+00
         25   -1    0    0    0    0  0.00000000000E+00  0.00000000000E+00  0.99999998245E-14  0.12500000000E+03  0.12500000000E+03 0.  0.
    3000001    1    3    3    0    0  0.10267658341E+02  0.16276277286E+02 -0.13031020991E+02  0.23262620621E+02  0.10000000000E+01 0.  1.
    1000022    2    1    0    0    0  0.21516649005E+02  0.51307448302E+02 -0.26661383533E+02  0.62500000962E+02  0.10000015634E+02 0.  0.
    3000022    2    3    3    0    0  0.11248990663E+02  0.35031171017E+02 -0.13630362543E+02  0.39237380341E+02  0.24999851778E+00 0.  0.
    1000022    2    1    0    0    0 -0.21516649005E+02 -0.51307448302E+02  0.26661383533E+02  0.62499999038E+02  0.10000003606E+02 0.  0.
    3000022    2    5    5    0    0 -0.17237510358E+02 -0.29636049061E+02  0.14124862807E+02  0.37081011557E+02  0.25000293680E+00 0.  0.
        -13    1    4    4    0    0  0.71560506214E+01  0.22093999552E+02 -0.86146820834E+01  0.24770499573E+02  0.10500000000E+00 0. -1.
         13    1    4    4    0    0  0.40929400420E+01  0.12937171464E+02 -0.50156804591E+01  0.14466880768E+02  0.10500000000E+00 0.  1.
    3000001    1    5    5    0    0 -0.42791386467E+01 -0.21671399242E+02  0.12536520726E+02  0.25418987481E+02  0.10000000000E+01 0.  1.
        -13    1    6    6    0    0 -0.48436831155E+01 -0.82567457126E+01  0.39621707803E+01  0.10360740233E+02  0.10500000000E+00 0. -1.
         13    1    6    6    0    0 -0.12393827242E+02 -0.21379303348E+02  0.10162692027E+02  0.26720271324E+02  0.10500000000E+00 0.  1.
</event>
<event>
11    0  0.3482988E-009  0.9118800E+02  0.7816531E-02  0.1126479E+00
         25   -1    0    0    0    0  0.00000000000E+00  0.00000000000E+00  0.99999998245E-14  0.12500000000E+03  0.12500000000E+03 0.  0.
    3000001    1    3    3    0    0  0.87106497838E+00 -0.83849074885E+01  0.62670031326E+01  0.10551812927E+02  0.10000000000E+01 0.  1.
    1000022    2    1    0    0    0  0.57365130169E+01 -0.33604248215E+02  0.51420783911E+02  0.62500000359E+02  0.99999973599E+01 0.  0.
    3000022    2    3    3    0    0  0.48654480385E+01 -0.25219340726E+02  0.45153780778E+02  0.51948187432E+02  0.25005518088E+00 0.  0.
    1000022    2    1    0    0    0 -0.57365130169E+01  0.33604248215E+02 -0.51420783911E+02  0.62499999641E+02  0.99999928714E+01 0.  0.
    3000022    2    5    5    0    0  0.55036313401E+00  0.21741493141E+02 -0.35685826597E+02  0.41791579823E+02  0.25000124708E+00 0.  0.
        -13    1    4    4    0    0  0.17359908018E+01 -0.93106038407E+01  0.16661440653E+02  0.19165480364E+02  0.10500000000E+00 0.  1.
         13    1    4    4    0    0  0.31294572367E+01 -0.15908736886E+02  0.28492340126E+02  0.32782707068E+02  0.10500000000E+00 0. -1.
    3000001    1    5    5    0    0 -0.62868761509E+01  0.11862755074E+02 -0.15734957314E+02  0.20708419818E+02  0.10000000000E+01 0. -1.
        -13    1    6    6    0    0  0.35365040762E+00  0.12070994819E+02 -0.19726678413E+02  0.23129782765E+02  0.10500000000E+00 0. -1.
         13    1    6    6    0    0  0.19671272639E+00  0.96704983217E+01 -0.15959148184E+02  0.18661797058E+02  0.10500000000E+00 0.  1.
</event>
<event>
11    0  0.3482988E-009  0.9118800E+02  0.7816531E-02  0.1126479E+00
         25   -1    0    0    0    0  0.00000000000E+00  0.00000000000E+00  0.99999998245E-14  0.12500000000E+03  0.12500000000E+03 0.  0.
    3000001    1    3    3    0    0  0.62808855691E+01  0.16659417811E+02  0.76359911550E+01  0.19398301118E+02  0.10000000000E+01 0. -1.
    1000022    2    1    0    0    0  0.32010385757E+02  0.45289131811E+02  0.27027387847E+02  0.62500000376E+02  0.10000004832E+02 0.  0.
    3000022    2    3    3    0    0  0.25729500188E+02  0.28629714000E+02  0.19391396692E+02  0.43101699258E+02  0.25001924686E+00 0.  0.
    1000022    2    1    0    0    0 -0.32010385757E+02 -0.45289131811E+02 -0.27027387847E+02  0.62499999624E+02  0.10000000137E+02 0.  0.
    3000022    2    5    5    0    0 -0.77811223928E+01 -0.16501792851E+02 -0.12675040874E+02  0.22216529675E+02  0.24999327723E+00 0.  0.
        -13    1    4    4    0    0  0.15147721224E+02  0.16948197061E+02  0.11434356257E+02  0.25445046078E+02  0.10500000000E+00 0. -1.
         13    1    4    4    0    0  0.10581778964E+02  0.11681516939E+02  0.79570404352E+01  0.17656653180E+02  0.10500000000E+00 0.  1.
    3000001    1    5    5    0    0 -0.24229263364E+02 -0.28787338960E+02 -0.14352346972E+02  0.40283469949E+02  0.10000000000E+01 0. -1.
        -13    1    6    6    0    0 -0.19690211906E+01 -0.41666088281E+01 -0.32357968608E+01  0.56319694513E+01  0.10500000000E+00 0.  1.
         13    1    6    6    0    0 -0.58121012022E+01 -0.12335184023E+02 -0.94392440136E+01  0.16584560224E+02  0.10500000000E+00 0. -1.
</event>
<event>
11    0  0.3482988E-009  0.9118800E+02  0.7816531E-02  0.1126479E+00
         25   -1    0    0    0    0  0.00000000000E+00  0.00000000000E+00  0.99999998245E-14  0.12500000000E+03  0.12500000000E+03 0.  0.
    3000001    1    3    3    0    0 -0.12536914408E+02  0.33914625774E+02  0.34710233294E+02  0.50131590435E+02  0.10000000000E+01 0.  1.
    1000022    2    1    0    0    0 -0.17425119223E+02  0.44356870455E+02  0.39180139259E+02  0.62500000944E+02  0.10000003461E+02 0.  0.
    3000022    2    3    3    0    0 -0.48882048141E+01  0.10442244681E+02  0.44699059652E+01  0.12368410509E+02  0.24999779849E+00 0.  0.
    1000022    2    1    0    0    0  0.17425119223E+02 -0.44356870455E+02 -0.39180139259E+02  0.62499999056E+02  0.99999916573E+01 0.  0.
    3000022    2    5    5    0    0  0.77075250828E+01 -0.31924105327E+02 -0.27633588710E+02  0.42921232134E+02  0.24999818600E+00 0.  0.
        -13    1    4    4    0    0 -0.19562605771E+01  0.40705371406E+01  0.17959049893E+01  0.48613298375E+01  0.10500000000E+00 0.  1.
         13    1    4    4    0    0 -0.29319442370E+01  0.63717075404E+01  0.26740009759E+01  0.75070806715E+01  0.10500000000E+00 0. -1.
    3000001    1    5    5    0    0  0.97175941398E+01 -0.12432765128E+02 -0.11546550550E+02  0.19578766922E+02  0.10000000000E+01 0.  1.
        -13    1    6    6    0    0  0.45681213326E+01 -0.18856955459E+02 -0.16406722796E+02  0.25409527339E+02  0.10500000000E+00 0. -1.
         13    1    6    6    0    0  0.31394037502E+01 -0.13067149868E+02 -0.11226865914E+02  0.17511704795E+02  0.10500000000E+00 0.  1.
</event>
<event>
11    0  0.3482988E-009  0.9118800E+02  0.7816531E-02  0.1126479E+00
         25   -1    0    0    0    0  0.00000000000E+00  0.00000000000E+00  0.99999998245E-14  0.12500000000E+03  0.12500000000E+03 0.  0.
    3000001    1    3    3    0    0  0.52894618827E+01 -0.10170391409E+02  0.93721253955E+01  0.14840889557E+02  0.10000000000E+01 0.  1.
    1000022    2    1    0    0    0  0.50498685696E+01 -0.45005050633E+02  0.41896230973E+02  0.62500000233E+02  0.10000005213E+02 0.  0.
    3000022    2    3    3    0    0 -0.23959331309E+00 -0.34834659224E+02  0.32524105578E+02  0.47659110675E+02  0.24999705629E+00 0.  0.
    1000022    2    1    0    0    0 -0.50498685696E+01  0.45005050633E+02 -0.41896230973E+02  0.62499999767E+02  0.10000002305E+02 0.  0.
    3000022    2    5    5    0    0 -0.39367640894E+01  0.38350071918E+02 -0.30251384881E+02  0.49004438135E+02  0.25008405963E+00 0.  0.
        -13    1    4    4    0    0 -0.92590625861E-01 -0.21387697003E+02  0.19929441776E+02  0.29234155206E+02  0.10500000000E+00 0. -1.
         13    1    4    4    0    0 -0.14700268723E+00 -0.13446962221E+02  0.12594663802E+02  0.18424955470E+02  0.10500000000E+00 0.  1.
    3000001    1    5    5    0    0 -0.11131044802E+01  0.66549787152E+01 -0.11644846092E+02  0.13495561633E+02  0.10000000000E+01 0.  1.
        -13    1    6    6    0    0 -0.25422796943E+01  0.24183677940E+02 -0.19085073022E+02  0.30912206360E+02  0.10500000000E+00 0. -1.
         13    1    6    6    0    0 -0.13944843951E+01  0.14166393978E+02 -0.11166311859E+02  0.18092231775E+02  0.10500000000E+00 0.  1.
</event>
<event>
11    0  0.3482988E-009  0.9118800E+02  0.7816531E-02  0.1126479E+00
         25   -1    0    0    0    0  0.00000000000E+00  0.00000000000E+00  0.99999998245E-14  0.12500000000E+03  0.12500000000E+03 0.  0.
    3000001    1    3    3    0    0  0.44743283998E+01 -0.25270541568E+02 -0.52982945371E+02  0.58879643222E+02  0.10000000000E+01 0.  1.
    1000022    2    1    0    0    0  0.56126350120E+01 -0.24529999494E+02 -0.56329634472E+02  0.62499998110E+02  0.99999748483E+01 0.  0.
    3000022    2    3    3    0    0  0.11383066122E+01  0.74054207370E+00 -0.33466891016E+01  0.36203548880E+01  0.24999413161E+00 0.  0.
    1000022    2    1    0    0    0 -0.56126350120E+01  0.24529999494E+02  0.56329634472E+02  0.62500001890E+02  0.99999984795E+01 0.  0.
    3000022    2    5    5    0    0  0.79050292975E+00  0.11138203359E+02  0.15991641664E+02  0.19505885514E+02  0.24999524463E+00 0.  0.
        -13    1    4    4    0    0  0.68090777054E+00  0.45722031700E+00 -0.21713703521E+01  0.23234801519E+01  0.10500000000E+00 0.  1.
         13    1    4    4    0    0  0.45739884164E+00  0.28332175671E+00 -0.11753187495E+01  0.12968747360E+01  0.10500000000E+00 0. -1.
    3000001    1    5    5    0    0 -0.64031379417E+01  0.13391796135E+02  0.40337992808E+02  0.42994116377E+02  0.10000000000E+01 0.  1.
        -13    1    6    6    0    0  0.23659241510E+00  0.29126778891E+01  0.42091707199E+01  0.51252133229E+01  0.10500000000E+00 0. -1.
         13    1    6    6    0    0  0.55391051466E+00  0.82255254696E+01  0.11782470944E+02  0.14380672191E+02  0.10500000000E+00 0.  1.
</event>
<event>
11    0  0.3482988E-009  0.9118800E+02  0.7816531E-02  0.1126479E+00
         25   -1    0    0    0    0  0.00000000000E+00  0.00000000000E+00  0.99999998245E-14  0.12500000000E+03  0.12500000000E+03 0.  0.
    3000001    1    3    3    0    0 -0.27012669255E+01 -0.44442663188E+01  0.52991099151E+00  0.53225136706E+01  0.10000000000E+01 0. -1.
    1000022    2    1    0    0    0 -0.37402284221E+01 -0.59199016060E+02  0.16962817791E+02  0.62500000395E+02  0.10000002545E+02 0.  0.
    3000022    2    3    3    0    0 -0.10389614966E+01 -0.54754749741E+02  0.16432906800E+02  0.57177486725E+02  0.25000416670E+00 0.  0.
    1000022    2    1    0    0    0  0.37402284221E+01  0.59199016060E+02 -0.16962817791E+02  0.62499999605E+02  0.99999976017E+01 0.  0.
    3000022    2    5    5    0    0  0.50217410519E+00  0.45706126910E+02 -0.94030687910E+01  0.46666716360E+02  0.24999428293E+00 0.  0.
        -13    1    4    4    0    0 -0.45883703834E+00 -0.23685745095E+02  0.70407165693E+01  0.24714525424E+02  0.10500000000E+00 0. -1.
         13    1    4    4    0    0 -0.58012445828E+00 -0.31069004646E+02  0.93921902303E+01  0.32462961301E+02  0.10500000000E+00 0.  1.
    3000001    1    5    5    0    0  0.32380543169E+01  0.13492889150E+02 -0.75597490001E+01  0.15833283245E+02  0.10000000000E+01 0.  1.
        -13    1    6    6    0    0  0.38894405754E+00  0.33022487394E+02 -0.68229610677E+01  0.33722392767E+02  0.10500000000E+00 0.  1.
         13    1    6    6    0    0  0.11323004765E+00  0.12683639516E+02 -0.25801077233E+01  0.12944323593E+02  0.10500000000E+00 0. -1.
</event>
<event>
11    0  0.3482988E-009  0.9118800E+02  0.7816531E-02  0.1126479E+00
         25   -1    0    0    0    0  0.00000000000E+00  0.00000000000E+00  0.99999998245E-14  0.12500000000E+03  0.12500000000E+03 0.  0.
    3000001    1    3    3    0    0 -0.65740245260E+01  0.97865803229E+00  0.18346884404E+02  0.19539287022E+02  0.10000000000E+01 0. -1.
    1000022    2    1    0    0    0 -0.23717489099E+02 -0.10927253933E+02  0.55895668872E+02  0.62499999689E+02  0.99999997407E+01 0.  0.
    3000022    2    3    3    0    0 -0.17143464573E+02 -0.11905911966E+02  0.37548784468E+02  0.42960712667E+02  0.25000101248E+00 0.  0.
    1000022    2    1    0    0    0  0.23717489099E+02  0.10927253933E+02 -0.55895668872E+02  0.62500000311E+02  0.10000003626E+02 0.  0.
    3000022    2    5    5    0    0  0.71974648634E+01  0.18648301033E+01 -0.75352722577E+01  0.10588858086E+02  0.24999157897E+00 0.  0.
        -13    1    4    4    0    0 -0.10519367223E+02 -0.73785498043E+01  0.23087578165E+02  0.26422478584E+02  0.10500000000E+00 0.  1.
         13    1    4    4    0    0 -0.66240973502E+01 -0.45273621615E+01  0.14461206303E+02  0.16538234083E+02  0.10500000000E+00 0. -1.
    3000001    1    5    5    0    0  0.16520024236E+02  0.90624238302E+01 -0.48360396614E+02  0.51911142225E+02  0.10000000000E+01 0.  1.
        -13    1    6    6    0    0  0.52921951225E+01  0.13757064207E+01 -0.54921030702E+01  0.77507495447E+01  0.10500000000E+00 0. -1.
         13    1    6    6    0    0  0.19052697409E+01  0.48912368257E+00 -0.20431691876E+01  0.28381085412E+01  0.10500000000E+00 0.  1.
</event>
<event>
11    0  0.3482988E-009  0.9118800E+02  0.7816531E-02  0.1126479E+00
         25   -1    0    0    0    0  0.00000000000E+00  0.00000000000E+00  0.99999998245E-14  0.12500000000E+03  0.12500000000E+03 0.  0.
    3000001    1    3    3    0    0 -0.17617637893E+02 -0.44451533665E+01 -0.66699765774E+01  0.19381154272E+02  0.10000000000E+01 0. -1.
    1000022    2    1    0    0    0 -0.52384552675E+02 -0.52764689968E+01 -0.32160028347E+02  0.62499998177E+02  0.99999932411E+01 0.  0.
    3000022    2    3    3    0    0 -0.34766914782E+02 -0.83131563034E+00 -0.25490051770E+02  0.43118843905E+02  0.25002268029E+00 0.  0.
    1000022    2    1    0    0    0  0.52384552675E+02  0.52764689968E+01  0.32160028347E+02  0.62500001823E+02  0.10000016023E+02 0.  0.
    3000022    2    5    5    0    0  0.20238162860E+01  0.23283400207E+01  0.24366868819E+01  0.39391594276E+01  0.25006883979E+00 0.  0.
        -13    1    4    4    0    0 -0.13108110621E+02 -0.36045065495E+00 -0.96586415400E+01  0.16286585589E+02  0.10500000000E+00 0.  1.
         13    1    4    4    0    0 -0.21658804161E+02 -0.47086497539E+00 -0.15831410230E+02  0.26832258317E+02  0.10500000000E+00 0. -1.
    3000001    1    5    5    0    0  0.50360736389E+02  0.29481289761E+01  0.29723341465E+02  0.58560842395E+02  0.10000000000E+01 0. -1.
        -13    1    6    6    0    0  0.11166682208E+01  0.13304608560E+01  0.14456300349E+01  0.22622876038E+01  0.10500000000E+00 0. -1.
         13    1    6    6    0    0  0.90714806515E+00  0.99787916471E+00  0.99105684702E+00  0.16768718238E+01  0.10500000000E+00 0.  1.
</event>
<event>
11    0  0.3482988E-009  0.9118800E+02  0.7816531E-02  0.1126479E+00
         25   -1    0    0    0    0  0.00000000000E+00  0.00000000000E+00  0.99999998245E-14  0.12500000000E+03  0.12500000000E+03 0.  0.
    3000001    1    3    3    0    0  0.43004693284E+01 -0.42709074854E+01  0.46807372656E+01  0.77229520614E+01  0.10000000000E+01 0.  1.
    1000022    2    1    0    0    0  0.49031521742E+02 -0.13587537252E+02  0.34893247453E+02  0.62499999383E+02  0.99999956111E+01 0.  0.
    3000022    2    3    3    0    0  0.44731052413E+02 -0.93166297667E+01  0.30212510187E+02  0.54777047322E+02  0.25000255863E+00 0.  0.
    1000022    2    1    0    0    0 -0.49031521742E+02  0.13587537252E+02 -0.34893247453E+02  0.62500000617E+02  0.10000003323E+02 0.  0.
    3000022    2    5    5    0    0 -0.23718992818E+02  0.21862429988E+01 -0.13051656575E+02  0.27162078731E+02  0.25000576495E+00 0.  0.
        -13    1    4    4    0    0  0.24558477854E+02 -0.51273376419E+01  0.16667704423E+02  0.30120289201E+02  0.10500000000E+00 0. -1.
         13    1    4    4    0    0  0.20172574559E+02 -0.41892921248E+01  0.13544805764E+02  0.24656758121E+02  0.10500000000E+00 0.  1.
    3000001    1    5    5    0    0 -0.25312528923E+02  0.11401294253E+02 -0.21841590877E+02  0.35337921886E+02  0.10000000000E+01 0. -1.
        -13    1    6    6    0    0 -0.73205279650E+01  0.65587981201E+00 -0.40779785414E+01  0.84060241492E+01  0.10500000000E+00 0. -1.
         13    1    6    6    0    0 -0.16398464853E+02  0.15303631868E+01 -0.89736780339E+01  0.18756054582E+02  0.10500000000E+00 0.  1.
</event>
<event>
11    0  0.3482988E-009  0.9118800E+02  0.7816531E-02  0.1126479E+00
         25   -1    0    0    0    0  0.00000000000E+00  0.00000000000E+00  0.99999998245E-14  0.12500000000E+03  0.12500000000E+03 0.  0.
    3000001    1    3    3    0    0  0.15763579348E+02 -0.85152571720E+01  0.12409117375E+02  0.21817108713E+02  0.10000000000E+01 0.  1.
    1000022    2    1    0    0    0  0.35361274511E+02 -0.33258944383E+02  0.38074569399E+02  0.62499999953E+02  0.10000002133E+02 0.  0.
    3000022    2    3    3    0    0  0.19597695162E+02 -0.24743687211E+02  0.25665452024E+02  0.40682891239E+02  0.24999906746E+00 0.  0.
    1000022    2    1    0    0    0 -0.35361274511E+02  0.33258944383E+02 -0.38074569399E+02  0.62500000047E+02  0.10000002726E+02 0.  0.
    3000022    2    5    5    0    0 -0.30740369561E+02  0.26831544989E+02 -0.35586550057E+02  0.54142101641E+02  0.24999583630E+00 0.  0.
        -13    1    4    4    0    0  0.14748669040E+02 -0.18659903232E+02  0.19334893878E+02  0.30652314323E+02  0.10500000000E+00 0. -1.
         13    1    4    4    0    0  0.48490261226E+01 -0.60837839794E+01  0.63305581452E+01  0.10030576916E+02  0.10500000000E+00 0.  1.
    3000001    1    5    5    0    0 -0.46209049495E+01  0.64273993944E+01 -0.24880193424E+01  0.83578984067E+01  0.10000000000E+01 0. -1.
        -13    1    6    6    0    0 -0.90670504726E+01  0.78559017083E+01 -0.10456828845E+02  0.15914863820E+02  0.10500000000E+00 0. -1.
         13    1    6    6    0    0 -0.21673319088E+02  0.18975643280E+02 -0.25129721211E+02  0.38227237820E+02  0.10500000000E+00 0.  1.
</event>
<event>
11    0  0.3482988E-009  0.9118800E+02  0.7816531E-02  0.1126479E+00
         25   -1    0    0    0    0  0.00000000000E+00  0.00000000000E+00  0.99999998245E-14  0.12500000000E+03  0.12500000000E+03 0.  0.
    3000001    1    3    3    0    0  0.47326717100E+00  0.10415626055E+01  0.52340447305E+01  0.54501429997E+01  0.10000000000E+01 0. -1.
    1000022    2    1    0    0    0 -0.22357321211E+02  0.22205247521E+02  0.53040805430E+02  0.62500000109E+02  0.10000007190E+02 0.  0.
    3000022    2    3    3    0    0 -0.22830588382E+02  0.21163684915E+02  0.47806760699E+02  0.57049857109E+02  0.25000513952E+00 0.  0.
    1000022    2    1    0    0    0  0.22357321211E+02 -0.22205247521E+02 -0.53040805430E+02  0.62499999891E+02  0.10000005827E+02 0.  0.
    3000022    2    5    5    0    0  0.18909818648E+02 -0.12925716335E+02 -0.33669346463E+02  0.40722754991E+02  0.24999741133E+00 0.  0.
        -13    1    4    4    0    0 -0.62332319285E+01  0.57490020607E+01  0.13077711192E+02  0.15586589107E+02  0.10500000000E+00 0.  1.
         13    1    4    4    0    0 -0.16597356453E+02  0.15414682855E+02  0.34729049507E+02  0.41463268002E+02  0.10500000000E+00 0. -1.
    3000001    1    5    5    0    0  0.34475025628E+01 -0.92795311855E+01 -0.19371458967E+02  0.21777244900E+02  0.10000000000E+01 0.  1.
        -13    1    6    6    0    0  0.14274252257E+02 -0.97309715127E+01 -0.25375514349E+02  0.30698108045E+02  0.10500000000E+00 0. -1.
         13    1    6    6    0    0  0.46355663906E+01 -0.31947448227E+01 -0.82938321140E+01  0.10024646945E+02  0.10500000000E+00 0.  1.
</event>
<event>
11    0  0.3482988E-009  0.9118800E+02  0.7816531E-02  0.1126479E+00
         25   -1    0    0    0    0  0.00000000000E+00  0.00000000000E+00  0.99999998245E-14  0.12500000000E+03  0.12500000000E+03 0.  0.
    3000001    1    3    3    0    0  0.39141485157E+02 -0.10216965613E+02 -0.14671002550E+01  0.40491908201E+02  0.10000000000E+01 0. -1.
    1000022    2    1    0    0    0  0.58774403436E+02 -0.18228781617E+02  0.44195357714E+01  0.62499989866E+02  0.99998729116E+01 0.  0.
    3000022    2    3    3    0    0  0.19632918279E+02 -0.80118160041E+01  0.58866360264E+01  0.22008081664E+02  0.24999798776E+00 0.  0.
    1000022    2    1    0    0    0 -0.58774403436E+02  0.18228781617E+02 -0.44195357714E+01  0.62500010134E+02  0.99999995922E+01 0.  0.
    3000022    2    5    5    0    0 -0.50650914799E+02  0.16086199592E+02 -0.43077723081E+00  0.53146298568E+02  0.24999035059E+00 0.  0.
        -13    1    4    4    0    0  0.64918591562E+01 -0.26317569303E+01  0.18924880227E+01  0.72569219205E+01  0.10500000000E+00 0.  1.
         13    1    4    4    0    0  0.13141059123E+02 -0.53800590737E+01  0.39941480036E+01  0.14751159744E+02  0.10500000000E+00 0. -1.
    3000001    1    5    5    0    0 -0.81234886375E+01  0.21425820260E+01 -0.39887585406E+01  0.93537115668E+01  0.10000000000E+01 0. -1.
        -13    1    6    6    0    0 -0.34298899287E+02  0.10895885120E+02 -0.24043377007E+00  0.35988937720E+02  0.10500000000E+00 0. -1.
         13    1    6    6    0    0 -0.16352015512E+02  0.51903144719E+01 -0.19034346074E+00  0.17157360847E+02  0.10500000000E+00 0.  1.
</event>
<event>
11    0  0.3482988E-009  0.9118800E+02  0.7816531E-02  0.1126479E+00
         25   -1    0    0    0    0  0.00000000000E+00  0.00000000000E+00  0.99999998245E-14  0.12500000000E+03  0.12500000000E+03 0.  0.
    3000001    1    3    3    0    0 -0.87872316483E+01 -0.15493771203E+02  0.26040000462E+02  0.31565075799E+02  0.10000000000E+01 0. -1.
    1000022    2    1    0    0    0 -0.19935355670E+02 -0.21605122575E+02  0.54240670987E+02  0.62500001003E+02  0.10000000455E+02 0.  0.
    3000022    2    3    3    0    0 -0.11148124022E+02 -0.61113513723E+01  0.28200670525E+02  0.30934925204E+02  0.24998907439E+00 0.  0.
    1000022    2    1    0    0    0  0.19935355670E+02  0.21605122575E+02 -0.54240670987E+02  0.62499998997E+02  0.99999879180E+01 0.  0.
    3000022    2    5    5    0    0  0.35021942820E+01 -0.38705316096E+00 -0.51453928286E+01  0.62412136899E+01  0.25001204747E+00 0.  0.
        -13    1    4    4    0    0 -0.56181024659E+01 -0.31325819524E+01  0.14388496395E+02  0.15761218180E+02  0.10500000000E+00 0. -1.
         13    1    4    4    0    0 -0.55300215562E+01 -0.29787694200E+01  0.13812174129E+02  0.15173707024E+02  0.10500000000E+00 0.  1.
    3000001    1    5    5    0    0  0.16433161388E+02  0.21992175736E+02 -0.49095278158E+02  0.56258785307E+02  0.10000000000E+01 0.  1.
        -13    1    6    6    0    0  0.85159708302E+00 -0.97889738867E-01 -0.12974350023E+01  0.15585771004E+01  0.10500000000E+00 0. -1.
         13    1    6    6    0    0  0.26505971990E+01 -0.28916342209E+00 -0.38479578263E+01  0.46826365895E+01  0.10500000000E+00 0.  1.
</event>
<event>
11    0  0.3482988E-009  0.9118800E+02  0.7816531E-02  0.1126479E+00
         25   -1    0    0    0    0  0.00000000000E+00  0.00000000000E+00  0.99999998245E-14  0.12500000000E+03  0.12500000000E+03 0.  0.
    3000001    1    3    3    0    0 -0.44019654942E+02  0.15903116712E+02  0.29516794456E+02  0.55343294962E+02  0.10000000000E+01 0.  1.
    1000022    2    1    0    0    0 -0.46942034360E+02  0.19510210399E+02  0.34957793701E+02  0.62499998220E+02  0.99999768691E+01 0.  0.
    3000022    2    3    3    0    0 -0.29223794180E+01  0.36070936870E+01  0.54409992452E+01  0.71567032574E+01  0.25000479762E+00 0.  0.
    1000022    2    1    0    0    0  0.46942034360E+02 -0.19510210399E+02 -0.34957793701E+02  0.62500001780E+02  0.99999991208E+01 0.  0.
    3000022    2    5    5    0    0  0.34455810585E+02 -0.16456951239E+02 -0.21324968958E+02  0.43736151266E+02  0.24999866206E+00 0.  0.
        -13    1    4    4    0    0 -0.69502312875E+00  0.86584119781E+00  0.12771999357E+01  0.16955833230E+01  0.10500000000E+00 0.  1.
         13    1    4    4    0    0 -0.22273562893E+01  0.27412524892E+01  0.41637993095E+01  0.54611199345E+01  0.10500000000E+00 0. -1.
    3000001    1    5    5    0    0  0.12486223774E+02 -0.30532591604E+01 -0.13632824743E+02  0.18763850514E+02  0.10000000000E+01 0.  1.
        -13    1    6    6    0    0  0.24492581641E+02 -0.11692954165E+02 -0.15205775338E+02  0.31110100630E+02  0.10500000000E+00 0.  1.
         13    1    6    6    0    0  0.99632289439E+01 -0.47639970739E+01 -0.61191936203E+01  0.12626050636E+02  0.10500000000E+00 0. -1.
</event>
<event>
11    0  0.3482988E-009  0.9118800E+02  0.7816531E-02  0.1126479E+00
         25   -1    0    0    0    0  0.00000000000E+00  0.00000000000E+00  0.99999998245E-14  0.12500000000E+03  0.12500000000E+03 0.  0.
    3000001    1    3    3    0    0 -0.10014420989E+02  0.14457222093E+02  0.44964616390E+01  0.18180155820E+02  0.10000000000E+01 0. -1.
    1000022    2    1    0    0    0 -0.45083400167E+02  0.41283368131E+02  0.83318878415E+01  0.62499998011E+02  0.99999970755E+01 0.  0.
    3000022    2    3    3    0    0 -0.35068979178E+02  0.26826146038E+02  0.38354262025E+01  0.44319842190E+02  0.25001155536E+00 0.  0.
    1000022    2    1    0    0    0  0.45083400167E+02 -0.41283368131E+02 -0.83318878415E+01  0.62500001989E+02  0.10000021943E+02 0.  0.
    3000022    2    5    5    0    0  0.30460340483E+02 -0.23605048760E+02 -0.88085892445E+01  0.39530803167E+02  0.24997059174E+00 0.  0.
        -13    1    4    4    0    0 -0.15095350548E+02  0.11470211757E+02  0.16234316706E+01  0.19028450313E+02  0.10500000000E+00 0. -1.
         13    1    4    4    0    0 -0.19973628630E+02  0.15355934281E+02  0.22119945319E+01  0.25291391878E+02  0.10500000000E+00 0.  1.
    3000001    1    5    5    0    0  0.14623059684E+02 -0.17678319371E+02  0.47670140296E+00  0.22969198822E+02  0.10000000000E+01 0. -1.
        -13    1    6    6    0    0  0.94298366745E+01 -0.73493137801E+01 -0.27692486413E+01  0.12272489388E+02  0.10500000000E+00 0. -1.
         13    1    6    6    0    0  0.21030503808E+02 -0.16255734980E+02 -0.60393406032E+01  0.27258313779E+02  0.10500000000E+00 0.  1.
</event>
<event>
11    0  0.3482988E-009  0.9118800E+02  0.7816531E-02  0.1126479E+00
         25   -1    0    0    0    0  0.00000000000E+00  0.00000000000E+00  0.99999998245E-14  0.12500000000E+03  0.12500000000E+03 0.  0.
    3000001    1    3    3    0    0 -0.33432558284E+02  0.37694229997E+02 -0.10590075065E+02  0.51495054310E+02  0.10000000000E+01 0.  1.
    1000022    2    1    0    0    0 -0.40000144556E+02  0.43800099157E+02 -0.16964361956E+02  0.62500000671E+02  0.10000012835E+02 0.  0.
    3000022    2    3    3    0    0 -0.65675862721E+01  0.61058691598E+01 -0.63742868916E+01  0.11004946362E+02  0.24996682112E+00 0.  0.
    1000022    2    1    0    0    0  0.40000144556E+02 -0.43800099157E+02  0.16964361956E+02  0.62499999329E+02  0.10000004441E+02 0.  0.
    3000022    2    5    5    0    0  0.23605085102E+02 -0.22393872919E+02  0.13760758386E+02  0.35328551593E+02  0.24999853101E+00 0.  0.
        -13    1    4    4    0    0 -0.42896479736E+01  0.40571256018E+01 -0.41693800067E+01  0.72288382556E+01  0.10500000000E+00 0.  1.
         13    1    4    4    0    0 -0.22779382985E+01  0.20487435580E+01 -0.22049068849E+01  0.37761081062E+01  0.10500000000E+00 0. -1.
    3000001    1    5    5    0    0  0.16395059454E+02 -0.21406226238E+02  0.32036035701E+01  0.27171447736E+02  0.10000000000E+01 0. -1.
        -13    1    6    6    0    0  0.16193120727E+02 -0.15336234355E+02  0.93824882708E+01  0.24196267361E+02  0.10500000000E+00 0. -1.
         13    1    6    6    0    0  0.74119643751E+01 -0.70576385645E+01  0.43782701154E+01  0.11132284231E+02  0.10500000000E+00 0.  1.
</event>
<event>
11    0  0.3482988E-009  0.9118800E+02  0.7816531E-02  0.1126479E+00
         25   -1    0    0    0    0  0.00000000000E+00  0.00000000000E+00  0.99999998245E-14  0.12500000000E+03  0.12500000000E+03 0.  0.
    3000001    1    3    3    0    0 -0.28940195593E+02  0.28345118842E+02 -0.36698254195E+02  0.54669393120E+02  0.10000000000E+01 0. -1.
    1000022    2    1    0    0    0 -0.32953382559E+02  0.34670630883E+02 -0.38965007637E+02  0.62500000996E+02  0.10000011821E+02 0.  0.
    3000022    2    3    3    0    0 -0.40131869664E+01  0.63255120414E+01 -0.22667534415E+01  0.78306078761E+01  0.24995265756E+00 0.  0.
    1000022    2    1    0    0    0  0.32953382559E+02 -0.34670630883E+02  0.38965007637E+02  0.62499999004E+02  0.99999993740E+01 0.  0.
    3000022    2    5    5    0    0  0.27178229893E+02 -0.29325229018E+02  0.36642781933E+02  0.54234501945E+02  0.24999268696E+00 0.  0.
        -13    1    4    4    0    0 -0.14990910351E+01  0.23941105439E+01 -0.79437468001E+00  0.29361701858E+01  0.10500000000E+00 0. -1.
         13    1    4    4    0    0 -0.25140959313E+01  0.39314014976E+01 -0.14723787615E+01  0.48944376903E+01  0.10500000000E+00 0.  1.
    3000001    1    5    5    0    0  0.57751526664E+01 -0.53454018650E+01  0.23222257033E+01  0.82654970592E+01  0.10000000000E+01 0. -1.
        -13    1    6    6    0    0  0.66256046202E+01 -0.71638259626E+01  0.89159767972E+01  0.13218347334E+02  0.10500000000E+00 0.  1.
         13    1    6    6    0    0  0.20552625272E+02 -0.22161403056E+02  0.27726805136E+02  0.41016154611E+02  0.10500000000E+00 0. -1.
</event>
<event>
11    0  0.3482988E-009  0.9118800E+02  0.7816531E-02  0.1126479E+00
         25   -1    0    0    0    0  0.00000000000E+00  0.00000000000E+00  0.99999998245E-14  0.12500000000E+03  0.12500000000E+03 0.  0.
    3000001    1    3    3    0    0 -0.35148740347E-01  0.11674594121E+01  0.27161808298E+01  0.31211913131E+01  0.10000000000E+01 0.  1.
    1000022    2    1    0    0    0 -0.94130888985E+01  0.52853777495E+02  0.30399374675E+02  0.62500000280E+02  0.10000000813E+02 0.  0.
    3000022    2    3    3    0    0 -0.93779401582E+01  0.51686318083E+02  0.27683193845E+02  0.59378808967E+02  0.24998853583E+00 0.  0.
    1000022    2    1    0    0    0  0.94130888985E+01 -0.52853777495E+02 -0.30399374675E+02  0.62499999720E+02  0.99999973148E+01 0.  0.
    3000022    2    5    5    0    0  0.66971631546E+01 -0.40546886329E+02 -0.18253522753E+02  0.44968384229E+02  0.25000394034E+00 0.  0.
        -13    1    4    4    0    0 -0.58003180451E+01  0.31905948586E+02  0.17157773175E+02  0.36688328525E+02  0.10500000000E+00 0. -1.
         13    1    4    4    0    0 -0.35776221131E+01  0.19780369496E+02  0.10525420670E+02  0.22690480442E+02  0.10500000000E+00 0.  1.
    3000001    1    5    5    0    0  0.27159257439E+01 -0.12306891166E+02 -0.12145851922E+02  0.17531615491E+02  0.10000000000E+01 0. -1.
        -13    1    6    6    0    0  0.21908451176E+01 -0.13138377987E+02 -0.59681666870E+01  0.14596123358E+02  0.10500000000E+00 0. -1.
         13    1    6    6    0    0  0.45063180370E+01 -0.27408508342E+02 -0.12285356066E+02  0.30372260871E+02  0.10500000000E+00 0.  1.
</event>
<event>
11    0  0.3482988E-009  0.9118800E+02  0.7816531E-02  0.1126479E+00
         25   -1    0    0    0    0  0.00000000000E+00  0.00000000000E+00  0.99999998245E-14  0.12500000000E+03  0.12500000000E+03 0.  0.
    3000001    1    3    3    0    0  0.85104987997E+01  0.42872277636E+02  0.42447583849E+01  0.43925832414E+02  0.10000000000E+01 0. -1.
    1000022    2    1    0    0    0  0.83323972027E+01  0.60096859569E+02  0.11188765008E+02  0.62499999141E+02  0.10000002851E+02 0.  0.
    3000022    2    3    3    0    0 -0.17810159706E+00  0.17224581933E+02  0.69440066230E+01  0.18574166727E+02  0.24999735285E+00 0.  0.
    1000022    2    1    0    0    0 -0.83323972027E+01 -0.60096859569E+02 -0.11188765008E+02  0.62500000859E+02  0.10000013587E+02 0.  0.
    3000022    2    5    5    0    0 -0.81961769505E+01 -0.26841311528E+02 -0.29228043131E+01  0.28217700211E+02  0.24999805187E+00 0.  0.
        -13    1    4    4    0    0 -0.15673598612E+00  0.11211017326E+02  0.44777029275E+01  0.12073621004E+02  0.10500000000E+00 0.  1.
         13    1    4    4    0    0 -0.21365610938E-01  0.60135646072E+01  0.24663036955E+01  0.65005457227E+01  0.10500000000E+00 0. -1.
    3000001    1    5    5    0    0 -0.13622025219E+00 -0.33255548041E+02 -0.82659606948E+01  0.34282300648E+02  0.10000000000E+01 0. -1.
        -13    1    6    6    0    0 -0.40441098930E+01 -0.13431078873E+02 -0.15011531225E+01  0.14107203487E+02  0.10500000000E+00 0.  1.
         13    1    6    6    0    0 -0.41520670574E+01 -0.13410232654E+02 -0.14216511907E+01  0.14110496724E+02  0.10500000000E+00 0. -1.
</event>
<event>
11    0  0.3482988E-009  0.9118800E+02  0.7816531E-02  0.1126479E+00
         25   -1    0    0    0    0  0.00000000000E+00  0.00000000000E+00  0.99999998245E-14  0.12500000000E+03  0.12500000000E+03 0.  0.
    3000001    1    3    3    0    0  0.78476385919E+00  0.18570591082E+02 -0.45558669484E+02  0.49214581911E+02  0.10000000000E+01 0. -1.
    1000022    2    1    0    0    0  0.25299315490E+01  0.27654632650E+02 -0.55091476812E+02  0.62500000031E+02  0.99999962951E+01 0.  0.
    3000022    2    3    3    0    0  0.17451676898E+01  0.90840415679E+01 -0.95328073277E+01  0.13285418120E+02  0.24999522873E+00 0.  0.
    1000022    2    1    0    0    0 -0.25299315490E+01 -0.27654632650E+02  0.55091476812E+02  0.62499999969E+02  0.99999959075E+01 0.  0.
    3000022    2    5    5    0    0  0.21222198051E+01 -0.20581088429E+02  0.34743607010E+02  0.40438419211E+02  0.25000477438E+00 0.  0.
        -13    1    4    4    0    0  0.85269617632E+00  0.41496053904E+01 -0.44216273104E+01  0.61243880296E+01  0.10500000000E+00 0. -1.
         13    1    4    4    0    0  0.89247151352E+00  0.49344361775E+01 -0.51111800172E+01  0.71610300908E+01  0.10500000000E+00 0.  1.
    3000001    1    5    5    0    0 -0.46521513541E+01 -0.70735442208E+01  0.20347869802E+02  0.22061580758E+02  0.10000000000E+01 0.  1.
        -13    1    6    6    0    0  0.10044882582E+01 -0.91035732719E+01  0.15358745107E+02  0.17882564672E+02  0.10500000000E+00 0.  1.
         13    1    6    6    0    0  0.11177315468E+01 -0.11477515157E+02  0.19384861903E+02  0.22555854539E+02  0.10500000000E+00 0. -1.
</event>
<event>
11    0  0.3482988E-009  0.9118800E+02  0.7816531E-02  0.1126479E+00
         25   -1    0    0    0    0  0.00000000000E+00  0.00000000000E+00  0.99999998245E-14  0.12500000000E+03  0.12500000000E+03 0.  0.
    3000001    1    3    3    0    0 -0.44084188542E+01  0.10250380931E+01 -0.40635503290E+01  0.61641950945E+01  0.10000000000E+01 0. -1.
    1000022    2    1    0    0    0 -0.58684352282E+02  0.99908156651E+01 -0.16204358232E+02  0.62500008230E+02  0.10000010131E+02 0.  0.
    3000022    2    3    3    0    0 -0.54275933428E+02  0.89657775720E+01 -0.12140807903E+02  0.56335813136E+02  0.25001633994E+00 0.  0.
    1000022    2    1    0    0    0  0.58684352282E+02 -0.99908156651E+01  0.16204358232E+02  0.62499991770E+02  0.99999072524E+01 0.  0.
    3000022    2    5    5    0    0  0.84426191484E+01 -0.97750620859E+00 -0.11440575012E+01  0.85793183307E+01  0.24999796390E+00 0.  0.
        -13    1    4    4    0    0 -0.28871449958E+02  0.47593077518E+01 -0.63895410928E+01  0.29950774503E+02  0.10500000000E+00 0. -1.
         13    1    4    4    0    0 -0.25404483471E+02  0.42064698202E+01 -0.57512668099E+01  0.26385038633E+02  0.10500000000E+00 0.  1.
    3000001    1    5    5    0    0  0.50241733134E+02 -0.90133094565E+01  0.17348415733E+02  0.53920673439E+02  0.10000000000E+01 0. -1.
        -13    1    6    6    0    0  0.56689122870E+01 -0.70820747971E+00 -0.75892832071E+00  0.57641236583E+01  0.10500000000E+00 0.  1.
         13    1    6    6    0    0  0.27737068614E+01 -0.26929872889E+00 -0.38512918054E+00  0.28151946725E+01  0.10500000000E+00 0. -1.
</event>
<event>
11    0  0.3482988E-009  0.9118800E+02  0.7816531E-02  0.1126479E+00
         25   -1    0    0    0    0  0.00000000000E+00  0.00000000000E+00  0.99999998245E-14  0.12500000000E+03  0.12500000000E+03 0.  0.
    3000001    1    3    3    0    0 -0.61050358473E+01 -0.55096616887E+02 -0.19541060111E+01  0.55477267285E+02  0.10000000000E+01 0.  1.
    1000022    2    1    0    0    0 -0.10112781009E+02 -0.60841440993E+02 -0.15167920330E+01  0.62499999469E+02  0.99999996890E+01 0.  0.
    3000022    2    3    3    0    0 -0.40077451619E+01 -0.57448241056E+01  0.43731397808E+00  0.70227321843E+01  0.24999706069E+00 0.  0.
    1000022    2    1    0    0    0  0.10112781009E+02  0.60841440993E+02  0.15167920330E+01  0.62500000531E+02  0.10000006321E+02 0.  0.
    3000022    2    5    5    0    0  0.80210851434E+01  0.56052228138E+02 -0.95769650066E+00  0.56631879463E+02  0.25000556074E+00 0.  0.
        -13    1    4    4    0    0 -0.20964602735E+01 -0.28992542126E+01  0.25377027250E+00  0.35883485086E+01  0.10500000000E+00 0. -1.
         13    1    4    4    0    0 -0.19112848885E+01 -0.28455698929E+01  0.18354370558E+00  0.34343836758E+01  0.10500000000E+00 0.  1.
    3000001    1    5    5    0    0  0.20916958658E+01  0.47892128550E+01  0.24744885337E+01  0.58681210680E+01  0.10000000000E+01 0. -1.
        -13    1    6    6    0    0  0.40995855203E+01  0.28620996579E+02 -0.55669665794E+00  0.28918661497E+02  0.10500000000E+00 0.  1.
         13    1    6    6    0    0  0.39214996231E+01  0.27431231559E+02 -0.40099984272E+00  0.27713217965E+02  0.10500000000E+00 0. -1.
</event>
<event>
11    0  0.3482988E-009  0.9118800E+02  0.7816531E-02  0.1126479E+00
         25   -1    0    0    0    0  0.00000000000E+00  0.00000000000E+00  0.99999998245E-14  0.12500000000E+03  0.12500000000E+03 0.  0.
    3000001    1    3    3    0    0 -0.18217195214E+02 -0.29030841499E+02  0.48334036322E+02  0.59260737650E+02  0.10000000000E+01 0. -1.
    1000022    2    1    0    0    0 -0.20284705885E+02 -0.28579804811E+02  0.50773776513E+02  0.62500006973E+02  0.99999977190E+01 0.  0.
    3000022    2    3    3    0    0 -0.20675106706E+01  0.45103668798E+00  0.24397401908E+01  0.32392693232E+01  0.24999816585E+00 0.  0.
    1000022    2    1    0    0    0  0.20284705885E+02  0.28579804811E+02 -0.50773776513E+02  0.62499993027E+02  0.99999105527E+01 0.  0.
    3000022    2    5    5    0    0  0.16040043966E+02  0.19639449794E+02 -0.28759562080E+02  0.38342742774E+02  0.25002760107E+00 0.  0.
        -13    1    4    4    0    0 -0.14597062264E+01  0.27332017233E+00  0.17235340612E+01  0.22775075948E+01  0.10500000000E+00 0.  1.
         13    1    4    4    0    0 -0.60780444420E+00  0.17771651565E+00  0.71620612956E+00  0.96176172847E+00  0.10500000000E+00 0. -1.
    3000001    1    5    5    0    0  0.42446619189E+01  0.89403550173E+01 -0.22014214434E+02  0.24157250253E+02  0.10000000000E+01 0. -1.
        -13    1    6    6    0    0  0.78851767638E+01  0.96039551545E+01 -0.14183872183E+02  0.18857497775E+02  0.10500000000E+00 0. -1.
         13    1    6    6    0    0  0.81548672018E+01  0.10035494639E+02 -0.14575689896E+02  0.19485244999E+02  0.10500000000E+00 0.  1.
</event>
<event>
11    0  0.3482988E-009  0.9118800E+02  0.7816531E-02  0.1126479E+00
         25   -1    0    0    0    0  0.00000000000E+00  0.00000000000E+00  0.99999998245E-14  0.12500000000E+03  0.12500000000E+03 0.  0.
    3000001    1    3    3    0    0  0.63178188961E+01  0.24270518860E+02 -0.30859663573E+02  0.39778031087E+02  0.10000000000E+01 0.  1.
    1000022    2    1    0    0    0  0.32940732315E+01  0.40758724215E+02 -0.46196594872E+02  0.62500000989E+02  0.10000011387E+02 0.  0.
    3000022    2    3    3    0    0 -0.30237456646E+01  0.16488205355E+02 -0.15336931299E+02  0.22721969902E+02  0.25000173352E+00 0.  0.
    1000022    2    1    0    0    0 -0.32940732315E+01 -0.40758724215E+02  0.46196594872E+02  0.62499999011E+02  0.99999990290E+01 0.  0.
    3000022    2    5    5    0    0  0.10050559091E+01 -0.23569926482E+02  0.20404078813E+02  0.31191994228E+02  0.24999992916E+00 0.  0.
        -13    1    4    4    0    0 -0.14726761955E+01  0.78017833319E+01 -0.73364777741E+01  0.10810713643E+02  0.10500000000E+00 0. -1.
         13    1    4    4    0    0 -0.15510694691E+01  0.86864220228E+01 -0.80004535253E+01  0.11911256259E+02  0.10500000000E+00 0.  1.
    3000001    1    5    5    0    0 -0.42991291406E+01 -0.17188797733E+02  0.25792516059E+02  0.31308004784E+02  0.10000000000E+01 0. -1.
        -13    1    6    6    0    0  0.54524935803E+00 -0.13208380939E+02  0.11517603091E+02  0.17533534437E+02  0.10500000000E+00 0. -1.
         13    1    6    6    0    0  0.45980655110E+00 -0.10361545542E+02  0.88864757220E+01  0.13658459791E+02  0.10500000000E+00 0.  1.
</event>
<event>
11    0  0.3482988E-009  0.9118800E+02  0.7816531E-02  0.1126479E+00
         25   -1    0    0    0    0  0.00000000000E+00  0.00000000000E+00  0.99999998245E-14  0.12500000000E+03  0.12500000000E+03 0.  0.
    3000001    1    3    3    0    0  0.43965245822E+02  0.14594854577E+02  0.36872563834E+02  0.59216033167E+02  0.10000000000E+01 0. -1.
    1000022    2    1    0    0    0  0.45225073026E+02  0.13560108588E+02  0.39712294511E+02  0.62499999627E+02  0.99999921482E+01 0.  0.
    3000022    2    3    3    0    0  0.12598272039E+01 -0.10347459885E+01  0.28397306768E+01  0.32839664605E+01  0.25000310575E+00 0.  0.
    1000022    2    1    0    0    0 -0.45225073026E+02 -0.13560108588E+02 -0.39712294511E+02  0.62500000373E+02  0.99999968092E+01 0.  0.
    3000022    2    5    5    0    0 -0.14177836879E+02 -0.91542329315E+01 -0.13311711383E+02  0.21495934695E+02  0.25001864110E+00 0.  0.
        -13    1    4    4    0    0  0.37929671912E+00 -0.34786456767E+00  0.82444063473E+00  0.97754954798E+00  0.10500000000E+00 0.  1.
         13    1    4    4    0    0  0.88053048481E+00 -0.68688142079E+00  0.20152900421E+01  0.23064169126E+01  0.10500000000E+00 0. -1.
    3000001    1    5    5    0    0 -0.31047236147E+02 -0.44058756566E+01 -0.26400583128E+02  0.41004065678E+02  0.10000000000E+01 0. -1.
        -13    1    6    6    0    0 -0.34515506056E+01 -0.22134204285E+01 -0.32124933144E+01  0.52099491237E+01  0.10500000000E+00 0.  1.
         13    1    6    6    0    0 -0.10726286274E+02 -0.69408125030E+01 -0.10099218069E+02  0.16285985571E+02  0.10500000000E+00 0. -1.
</event>
<event>
11    0  0.3482988E-009  0.9118800E+02  0.7816531E-02  0.1126479E+00
         25   -1    0    0    0    0  0.00000000000E+00  0.00000000000E+00  0.99999998245E-14  0.12500000000E+03  0.12500000000E+03 0.  0.
    3000001    1    3    3    0    0 -0.35539519740E+02  0.16694759212E+01  0.83551782869E+01  0.36560273760E+02  0.10000000000E+01 0.  1.
    1000022    2    1    0    0    0 -0.58024590191E+02 -0.14129510019E+01  0.20914125162E+02  0.62500000108E+02  0.99999942373E+01 0.  0.
    3000022    2    3    3    0    0 -0.22485070452E+02 -0.30824269231E+01  0.12558946875E+02  0.25939726348E+02  0.25001487472E+00 0.  0.
    1000022    2    1    0    0    0  0.58024590191E+02  0.14129510019E+01 -0.20914125162E+02  0.62499999892E+02  0.99999928905E+01 0.  0.
    3000022    2    5    5    0    0  0.51759918666E+02  0.13404266285E+01 -0.21632262112E+02  0.56115088790E+02  0.25000390650E+00 0.  0.
        -13    1    4    4    0    0 -0.14923785220E+02 -0.20232486585E+01  0.83899776544E+01  0.17239943459E+02  0.10500000000E+00 0.  1.
         13    1    4    4    0    0 -0.75612852323E+01 -0.10591782646E+01  0.41689692208E+01  0.86997828895E+01  0.10500000000E+00 0. -1.
    3000001    1    5    5    0    0  0.62646715256E+01  0.72524373406E-01  0.71813694983E+00  0.63849111026E+01  0.10000000000E+01 0. -1.
        -13    1    6    6    0    0  0.31587640523E+02  0.75605201508E+00 -0.13199023429E+02  0.34242895510E+02  0.10500000000E+00 0.  1.
         13    1    6    6    0    0  0.20172278143E+02  0.58437461342E+00 -0.84332386828E+01  0.21872193279E+02  0.10500000000E+00 0. -1.
</event>
<event>
11    0  0.3482988E-009  0.9118800E+02  0.7816531E-02  0.1126479E+00
         25   -1    0    0    0    0  0.00000000000E+00  0.00000000000E+00  0.99999998245E-14  0.12500000000E+03  0.12500000000E+03 0.  0.
    3000001    1    3    3    0    0 -0.13699862646E+02  0.18410403734E+01  0.31690869536E+02  0.34588825915E+02  0.10000000000E+01 0. -1.
    1000022    2    1    0    0    0 -0.29344343142E+02 -0.36269751743E+01  0.54147989925E+02  0.62500001376E+02  0.99999967804E+01 0.  0.
    3000022    2    3    3    0    0 -0.15644480496E+02 -0.54680155477E+01  0.22457120389E+02  0.27911175461E+02  0.24999083725E+00 0.  0.
    1000022    2    1    0    0    0  0.29344343142E+02  0.36269751743E+01 -0.54147989925E+02  0.62499998624E+02  0.99999795856E+01 0.  0.
    3000022    2    5    5    0    0  0.99332638118E+00  0.25306335645E+01 -0.62555771792E+01  0.68253606375E+01  0.24999689916E+00 0.  0.
        -13    1    4    4    0    0 -0.10847921901E+02 -0.38041315649E+01  0.15653898656E+02  0.19421750556E+02  0.10500000000E+00 0. -1.
         13    1    4    4    0    0 -0.47965585950E+01 -0.16638839829E+01  0.68032217334E+01  0.84894249050E+01  0.10500000000E+00 0.  1.
    3000001    1    5    5    0    0  0.28351016761E+02  0.10963416099E+01 -0.47892412746E+02  0.55674637987E+02  0.10000000000E+01 0. -1.
        -13    1    6    6    0    0  0.47636415958E+00  0.12165859731E+01 -0.31764650458E+01  0.34362711519E+01  0.10500000000E+00 0.  1.
         13    1    6    6    0    0  0.51696222160E+00  0.13140475914E+01 -0.30791121335E+01  0.33890894856E+01  0.10500000000E+00 0. -1.
</event>
<event>
11    0  0.3482988E-009  0.9118800E+02  0.7816531E-02  0.1126479E+00
         25   -1    0    0    0    0  0.00000000000E+00  0.00000000000E+00  0.99999998245E-14  0.12500000000E+03  0.12500000000E+03 0.  0.
    3000001    1    3    3    0    0 -0.16091051121E+02 -0.45963416607E+02 -0.98391675496E+00  0.48718843218E+02  0.10000000000E+01 0. -1.
    1000022    2    1    0    0    0 -0.19276991827E+02 -0.58265087571E+02 -0.63108727672E+01  0.62500000166E+02  0.10000003105E+02 0.  0.
    3000022    2    3    3    0    0 -0.31859407064E+01 -0.12301670964E+02 -0.53269560122E+01  0.13781156948E+02  0.24999953579E+00 0.  0.
    1000022    2    1    0    0    0  0.19276991827E+02  0.58265087571E+02  0.63108727672E+01  0.62499999834E+02  0.10000001030E+02 0.  0.
    3000022    2    5    5    0    0 -0.10938130681E+01  0.27045221586E+01  0.92066382095E+00  0.30693640178E+01  0.25001293684E+00 0.  0.
        -13    1    4    4    0    0 -0.23128936812E+01 -0.88782585757E+01 -0.38853191174E+01  0.99639190163E+01  0.10500000000E+00 0. -1.
         13    1    4    4    0    0 -0.87304702526E+00 -0.34234123886E+01 -0.14416368948E+01  0.38172379317E+01  0.10500000000E+00 0.  1.
    3000001    1    5    5    0    0  0.20370804895E+02  0.55560565412E+02  0.53902089463E+01  0.59430635816E+02  0.10000000000E+01 0. -1.
        -13    1    6    6    0    0 -0.47530472609E+00  0.11209220057E+01  0.32043312029E+00  0.12633618287E+01  0.10500000000E+00 0.  1.
         13    1    6    6    0    0 -0.61850834198E+00  0.15836001529E+01  0.60023070066E+00  0.18060021892E+01  0.10500000000E+00 0. -1.
</event>
<event>
11    0  0.3482988E-009  0.9118800E+02  0.7816531E-02  0.1126479E+00
         25   -1    0    0    0    0  0.00000000000E+00  0.00000000000E+00  0.99999998245E-14  0.12500000000E+03  0.12500000000E+03 0.  0.
    3000001    1    3    3    0    0 -0.44106777382E+00 -0.10856705968E+02  0.37919706139E+02  0.39458417592E+02  0.10000000000E+01 0. -1.
    1000022    2    1    0    0    0 -0.81174581694E+01 -0.17566634240E+02  0.58581311438E+02  0.62500000480E+02  0.10000012226E+02 0.  0.
    3000022    2    3    3    0    0 -0.76763903956E+01 -0.67099282726E+01  0.20661605299E+02  0.23041582888E+02  0.25000297713E+00 0.  0.
    1000022    2    1    0    0    0  0.81174581694E+01  0.17566634240E+02 -0.58581311438E+02  0.62499999520E+02  0.10000006227E+02 0.  0.
    3000022    2    5    5    0    0 -0.87327179356E+00  0.56787511582E+01 -0.26420177499E+02  0.27038844355E+02  0.25001320144E+00 0.  0.
        -13    1    4    4    0    0 -0.51636480483E+01 -0.45771190247E+01  0.14023658078E+02  0.15629692595E+02  0.10500000000E+00 0. -1.
         13    1    4    4    0    0 -0.25127423473E+01 -0.21328092479E+01  0.66379472217E+01  0.74118902927E+01  0.10500000000E+00 0.  1.
    3000001    1    5    5    0    0  0.89907299630E+01  0.11887883082E+02 -0.32161133939E+02  0.35461155166E+02  0.10000000000E+01 0. -1.
        -13    1    6    6    0    0 -0.49076454955E+00  0.29031570782E+01 -0.13780272593E+02  0.14091703538E+02  0.10500000000E+00 0. -1.
         13    1    6    6    0    0 -0.38250724401E+00  0.27755940800E+01 -0.12639904906E+02  0.12947140816E+02  0.10500000000E+00 0.  1.
</event>
<event>
11    0  0.3482988E-009  0.9118800E+02  0.7816531E-02  0.1126479E+00
         25   -1    0    0    0    0  0.00000000000E+00  0.00000000000E+00  0.99999998245E-14  0.12500000000E+03  0.12500000000E+03 0.  0.
    3000001    1    3    3    0    0 -0.21629230322E+00  0.48944755138E+02  0.14198021415E+02  0.50972734378E+02  0.10000000000E+01 0.  1.
    1000022    2    1    0    0    0  0.15094071142E-01  0.57802255388E+02  0.21567316367E+02  0.62500000343E+02  0.99999975938E+01 0.  0.
    3000022    2    3    3    0    0  0.23138637436E+00  0.88575002500E+01  0.73692949516E+01  0.11527265965E+02  0.25000442935E+00 0.  0.
    1000022    2    1    0    0    0 -0.15094071142E-01 -0.57802255388E+02 -0.21567316367E+02  0.62499999657E+02  0.99999933047E+01 0.  0.
    3000022    2    5    5    0    0  0.23700924331E+01 -0.22727984817E+02 -0.40473513221E+01  0.23208235305E+02  0.25000250535E+00 0.  0.
        -13    1    4    4    0    0  0.47205109756E-01  0.43885689421E+01  0.36401962793E+01  0.57029658629E+01  0.10500000000E+00 0. -1.
         13    1    4    4    0    0  0.18418126461E+00  0.44689313079E+01  0.37290986723E+01  0.58243001022E+01  0.10500000000E+00 0.  1.
    3000001    1    5    5    0    0 -0.23851865042E+01 -0.35074270571E+02 -0.17519965045E+02  0.39291764352E+02  0.10000000000E+01 0.  1.
        -13    1    6    6    0    0  0.86799979293E+00 -0.88016092634E+01 -0.16037640401E+01  0.89891508699E+01  0.10500000000E+00 0.  1.
         13    1    6    6    0    0  0.15020926402E+01 -0.13926375554E+02 -0.24435872820E+01  0.14219084435E+02  0.10500000000E+00 0. -1.
</event>
<event>
11    0  0.3482988E-009  0.9118800E+02  0.7816531E-02  0.1126479E+00
         25   -1    0    0    0    0  0.00000000000E+00  0.00000000000E+00  0.99999998245E-14  0.12500000000E+03  0.12500000000E+03 0.  0.
    3000001    1    3    3    0    0  0.12588878247E+02  0.97314170645E+01 -0.44300976560E+01  0.16547087322E+02  0.10000000000E+01 0. -1.
    1000022    2    1    0    0    0  0.42729170677E+02  0.44393251227E+02 -0.31156329958E+01  0.62500000999E+02  0.10000008738E+02 0.  0.
    3000022    2    3    3    0    0  0.30140292430E+02  0.34661834162E+02  0.13144646602E+01  0.45952913677E+02  0.24996572812E+00 0.  0.
    1000022    2    1    0    0    0 -0.42729170677E+02 -0.44393251227E+02  0.31156329958E+01  0.62499999001E+02  0.99999962460E+01 0.  0.
    3000022    2    5    5    0    0 -0.41174889936E+02 -0.43012005571E+02  0.46562950371E+01  0.59725603984E+02  0.25000662990E+00 0.  0.
        -13    1    4    4    0    0  0.16538369577E+02  0.18917680887E+02  0.71743307178E+00  0.25138059862E+02  0.10500000000E+00 0. -1.
         13    1    4    4    0    0  0.13601922852E+02  0.15744153275E+02  0.59703158845E+00  0.20814853815E+02  0.10500000000E+00 0.  1.
    3000001    1    5    5    0    0 -0.15542807412E+01 -0.13812456557E+01 -0.15406620414E+01  0.27743950169E+01  0.10000000000E+01 0.  1.
        -13    1    6    6    0    0 -0.27206398200E+02 -0.28477621830E+02  0.31174027417E+01  0.39508129201E+02  0.10500000000E+00 0.  1.
         13    1    6    6    0    0 -0.13968491736E+02 -0.14534383741E+02  0.15388922954E+01  0.20217474783E+02  0.10500000000E+00 0. -1.
</event>
<event>
11    0  0.3482988E-009  0.9118800E+02  0.7816531E-02  0.1126479E+00
         25   -1    0    0    0    0  0.00000000000E+00  0.00000000000E+00  0.99999998245E-14  0.12500000000E+03  0.12500000000E+03 0.  0.
    3000001    1    3    3    0    0 -0.46313985621E+00 -0.13908767589E+01  0.64768813157E+01  0.67155810071E+01  0.10000000000E+01 0.  1.
    1000022    2    1    0    0    0  0.22335582660E+02 -0.16805628570E+02  0.54999477872E+02  0.62499998165E+02  0.99999900032E+01 0.  0.
    3000022    2    3    3    0    0  0.22798722516E+02 -0.15414751811E+02  0.48522596556E+02  0.55784417158E+02  0.24999867428E+00 0.  0.
    1000022    2    1    0    0    0 -0.22335582660E+02  0.16805628570E+02 -0.54999477872E+02  0.62500001835E+02  0.10000012942E+02 0.  0.
    3000022    2    5    5    0    0 -0.14651613223E+02  0.48482960331E+01 -0.28132505680E+02  0.32088566775E+02  0.24999466886E+00 0.  0.
        -13    1    4    4    0    0  0.12209681905E+02 -0.82591126615E+01  0.25853450994E+02  0.29760732979E+02  0.10500000000E+00 0. -1.
         13    1    4    4    0    0  0.10589040611E+02 -0.71556391500E+01  0.22669145562E+02  0.26023684179E+02  0.10500000000E+00 0.  1.
    3000001    1    5    5    0    0 -0.76839694374E+01  0.11957332537E+02 -0.26866972191E+02  0.30411435060E+02  0.10000000000E+01 0.  1.
        -13    1    6    6    0    0 -0.10444037712E+02  0.34567751578E+01 -0.20139859214E+02  0.22948903511E+02  0.10500000000E+00 0.  1.
         13    1    6    6    0    0 -0.42075755109E+01  0.13915208753E+01 -0.79926464668E+01  0.91396632634E+01  0.10500000000E+00 0. -1.
</event>
<event>
11    0  0.3482988E-009  0.9118800E+02  0.7816531E-02  0.1126479E+00
         25   -1    0    0    0    0  0.00000000000E+00  0.00000000000E+00  0.99999998245E-14  0.12500000000E+03  0.12500000000E+03 0.  0.
    3000001    1    3    3    0    0  0.44998728155E+02  0.12283422957E+02  0.63504782225E+01  0.47086055141E+02  0.10000000000E+01 0. -1.
    1000022    2    1    0    0    0  0.59888493995E+02  0.10872898000E+02  0.10069678410E+02  0.62499998753E+02  0.99999898484E+01 0.  0.
    3000022    2    3    3    0    0  0.14889765840E+02 -0.14105249565E+01  0.37192001877E+01  0.15413943612E+02  0.25000043947E+00 0.  0.
    1000022    2    1    0    0    0 -0.59888493995E+02 -0.10872898000E+02 -0.10069678410E+02  0.62500001247E+02  0.10000005431E+02 0.  0.
    3000022    2    5    5    0    0 -0.93751098065E+01  0.17259388396E+01 -0.26984710599E+01  0.99103884918E+01  0.25001047003E+00 0.  0.
        -13    1    4    4    0    0  0.11187973015E+02 -0.10769834021E+01  0.28141705953E+01  0.11587114160E+02  0.10500000000E+00 0.  1.
         13    1    4    4    0    0  0.37017928254E+01 -0.33354155448E+00  0.90502959238E+00  0.38268294519E+01  0.10500000000E+00 0. -1.
    3000001    1    5    5    0    0 -0.50513384189E+02 -0.12598836840E+02 -0.73712073504E+01  0.52589612755E+02  0.10000000000E+01 0.  1.
        -13    1    6    6    0    0 -0.41484536868E+01  0.79525455761E+00 -0.11348547583E+01  0.43750449284E+01  0.10500000000E+00 0.  1.
         13    1    6    6    0    0 -0.52266561197E+01  0.93068428203E+00 -0.15636163016E+01  0.55353435634E+01  0.10500000000E+00 0. -1.
</event>
<event>
11    0  0.3482988E-009  0.9118800E+02  0.7816531E-02  0.1126479E+00
         25   -1    0    0    0    0  0.00000000000E+00  0.00000000000E+00  0.99999998245E-14  0.12500000000E+03  0.12500000000E+03 0.  0.
    3000001    1    3    3    0    0 -0.31246074415E+01  0.10950687475E+01 -0.39990209900E+02  0.40139497195E+02  0.10000000000E+01 0. -1.
    1000022    2    1    0    0    0 -0.13229435609E+01 -0.47448814583E+01 -0.61497851911E+02  0.62500002018E+02  0.10000019144E+02 0.  0.
    3000022    2    3    3    0    0  0.18016638806E+01 -0.58399502057E+01 -0.21507642011E+02  0.22360504823E+02  0.24999985151E+00 0.  0.
    1000022    2    1    0    0    0  0.13229435609E+01  0.47448814583E+01  0.61497851911E+02  0.62499997982E+02  0.99999939148E+01 0.  0.
    3000022    2    5    5    0    0 -0.62533095132E+00  0.46911626296E+01  0.58948781187E+02  0.59138983129E+02  0.24995276609E+00 0.  0.
        -13    1    4    4    0    0  0.13186040895E+01 -0.41272118775E+01 -0.15236704061E+02  0.15841110133E+02  0.10500000000E+00 0.  1.
         13    1    4    4    0    0  0.48305979115E+00 -0.17127383282E+01 -0.62709379505E+01  0.65193946898E+01  0.10500000000E+00 0. -1.
    3000001    1    5    5    0    0  0.19482745122E+01  0.53718828662E-01  0.25490707237E+01  0.33610148530E+01  0.10000000000E+01 0.  1.
        -13    1    6    6    0    0 -0.49507239681E+00  0.35150782066E+01  0.44136844635E+02  0.44279486795E+02  0.10500000000E+00 0. -1.
         13    1    6    6    0    0 -0.13025855451E+00  0.11760844230E+01  0.14811936553E+02  0.14859496334E+02  0.10500000000E+00 0.  1.
</event>
<event>
11    0  0.3482988E-009  0.9118800E+02  0.7816531E-02  0.1126479E+00
         25   -1    0    0    0    0  0.00000000000E+00  0.00000000000E+00  0.99999998245E-14  0.12500000000E+03  0.12500000000E+03 0.  0.
    3000001    1    3    3    0    0  0.34266781038E+02 -0.32243276753E+01 -0.41827668743E+01  0.34685791188E+02  0.10000000000E+01 0.  1.
    1000022    2    1    0    0    0  0.59393034733E+02 -0.47122901542E+01 -0.16015984310E+02  0.62499999638E+02  0.99999974037E+01 0.  0.
    3000022    2    3    3    0    0  0.25126253695E+02 -0.14879624789E+01 -0.11833217435E+02  0.27814208450E+02  0.24999942970E+00 0.  0.
    1000022    2    1    0    0    0 -0.59393034733E+02  0.47122901542E+01  0.16015984310E+02  0.62500000362E+02  0.10000001928E+02 0.  0.
    3000022    2    5    5    0    0 -0.37539125011E+02 -0.17896046845E+01  0.94729333383E+01  0.38758064412E+02  0.24999886299E+00 0.  0.
        -13    1    4    4    0    0  0.12109960657E+02 -0.78241440895E+00 -0.56848081648E+01  0.13401171154E+02  0.10500000000E+00 0.  1.
         13    1    4    4    0    0  0.13016293039E+02 -0.70554806996E+00 -0.61484092706E+01  0.14413037296E+02  0.10500000000E+00 0. -1.
    3000001    1    5    5    0    0 -0.21853909722E+02  0.65018948388E+01  0.65430509714E+01  0.23741935950E+02  0.10000000000E+01 0. -1.
        -13    1    6    6    0    0 -0.16757209229E+02 -0.73541651018E+00  0.42486125121E+01  0.17303370535E+02  0.10500000000E+00 0.  1.
         13    1    6    6    0    0 -0.20781915782E+02 -0.10541881744E+01  0.52243208263E+01  0.21454693877E+02  0.10500000000E+00 0. -1.
</event>
<event>
11    0  0.3482988E-009  0.9118800E+02  0.7816531E-02  0.1126479E+00
         25   -1    0    0    0    0  0.00000000000E+00  0.00000000000E+00  0.99999998245E-14  0.12500000000E+03  0.12500000000E+03 0.  0.
    3000001    1    3    3    0    0  0.16015510380E+01  0.13142494917E+02  0.21281028181E+02  0.25083307175E+02  0.10000000000E+01 0. -1.
    1000022    2    1    0    0    0 -0.79687226585E+01  0.32968481916E+02  0.51534730675E+02  0.62500000136E+02  0.10000010532E+02 0.  0.
    3000022    2    3    3    0    0 -0.95702736965E+01  0.19825986999E+02  0.30253702493E+02  0.37416692961E+02  0.24999698568E+00 0.  0.
    1000022    2    1    0    0    0  0.79687226585E+01 -0.32968481916E+02 -0.51534730675E+02  0.62499999864E+02  0.10000008830E+02 0.  0.
    3000022    2    5    5    0    0  0.61669619335E+01 -0.15416811416E+02 -0.17344293267E+02  0.24012424087E+02  0.25001574435E+00 0.  0.
        -13    1    4    4    0    0 -0.66223936719E+01  0.13788357460E+02  0.20957995388E+02  0.25946550736E+02  0.10500000000E+00 0.  1.
         13    1    4    4    0    0 -0.29478800246E+01  0.60376295389E+01  0.92957071052E+01  0.11470142226E+02  0.10500000000E+00 0. -1.
    3000001    1    5    5    0    0  0.18017607250E+01 -0.17551670500E+02 -0.34190437407E+02  0.38487575777E+02  0.10000000000E+01 0.  1.
        -13    1    6    6    0    0  0.27895569152E+01 -0.69215899484E+01 -0.77030000626E+01  0.10725542884E+02  0.10500000000E+00 0.  1.
         13    1    6    6    0    0  0.33774050183E+01 -0.84952214678E+01 -0.96412932045E+01  0.13286881203E+02  0.10500000000E+00 0. -1.
</event>
<event>
11    0  0.3482988E-009  0.9118800E+02  0.7816531E-02  0.1126479E+00
         25   -1    0    0    0    0  0.00000000000E+00  0.00000000000E+00  0.99999998245E-14  0.12500000000E+03  0.12500000000E+03 0.  0.
    3000001    1    3    3    0    0 -0.22872549487E+02 -0.22694159653E+02  0.37956211577E+02  0.49798116427E+02  0.10000000000E+01 0.  1.
    1000022    2    1    0    0    0 -0.32421195031E+02 -0.25680634094E+02  0.45777957799E+02  0.62500001774E+02  0.99999973385E+01 0.  0.
    3000022    2    3    3    0    0 -0.95486455438E+01 -0.29864744410E+01  0.78217462222E+01  0.12701885347E+02  0.25003218680E+00 0.  0.
    1000022    2    1    0    0    0  0.32421195031E+02  0.25680634094E+02 -0.45777957799E+02  0.62499998226E+02  0.99999751615E+01 0.  0.
    3000022    2    5    5    0    0  0.26285720850E+02  0.24422688774E+02 -0.41442247828E+02  0.54817234998E+02  0.25000048572E+00 0.  0.
        -13    1    4    4    0    0 -0.52158417810E+01 -0.15876745124E+01  0.43285948680E+01  0.69622894491E+01  0.10500000000E+00 0.  1.
         13    1    4    4    0    0 -0.43328037628E+01 -0.13987999286E+01  0.34931513543E+01  0.57395958979E+01  0.10500000000E+00 0. -1.
    3000001    1    5    5    0    0  0.61354741812E+01  0.12579453198E+01 -0.43357099711E+01  0.76827632274E+01  0.10000000000E+01 0.  1.
        -13    1    6    6    0    0  0.13175422544E+02  0.12244244208E+02 -0.20878112263E+02  0.27557573770E+02  0.10500000000E+00 0. -1.
         13    1    6    6    0    0  0.13110298306E+02  0.12178444566E+02 -0.20564135566E+02  0.27259661228E+02  0.10500000000E+00 0.  1.
</event>
<event>
11    0  0.3482988E-009  0.9118800E+02  0.7816531E-02  0.1126479E+00
         25   -1    0    0    0    0  0.00000000000E+00  0.00000000000E+00  0.99999998245E-14  0.12500000000E+03  0.12500000000E+03 0.  0.
    3000001    1    3    3    0    0 -0.21615296333E+02  0.16912139478E+02  0.13181818074E+02  0.30463122378E+02  0.10000000000E+01 0.  1.
    1000022    2    1    0    0    0 -0.38447331964E+02  0.33071309609E+02  0.35133191926E+02  0.62499999809E+02  0.99999973402E+01 0.  0.
    3000022    2    3    3    0    0 -0.16832035631E+02  0.16159170131E+02  0.21951373853E+02  0.32036877431E+02  0.24999742841E+00 0.  0.
    1000022    2    1    0    0    0  0.38447331964E+02 -0.33071309609E+02 -0.35133191926E+02  0.62500000191E+02  0.99999997317E+01 0.  0.
    3000022    2    5    5    0    0  0.29949973458E+02 -0.23685802539E+02 -0.21311146012E+02  0.43729230421E+02  0.24999361108E+00 0.  0.
        -13    1    4    4    0    0 -0.11933674991E+02  0.11434373915E+02  0.15492762887E+02  0.22653790687E+02  0.10500000000E+00 0. -1.
         13    1    4    4    0    0 -0.48983606403E+01  0.47247962156E+01  0.64586109658E+01  0.93830867442E+01  0.10500000000E+00 0.  1.
    3000001    1    5    5    0    0  0.84973585060E+01 -0.93855070703E+01 -0.13822045914E+02  0.18770769771E+02  0.10000000000E+01 0.  1.
        -13    1    6    6    0    0  0.12630715094E+02 -0.10039407261E+02 -0.90640664877E+01  0.18506566085E+02  0.10500000000E+00 0.  1.
         13    1    6    6    0    0  0.17319258364E+02 -0.13646395277E+02 -0.12247079525E+02  0.25222664336E+02  0.10500000000E+00 0. -1.
</event>
<event>
11    0  0.3482988E-009  0.9118800E+02  0.7816531E-02  0.1126479E+00
         25   -1    0    0    0    0  0.00000000000E+00  0.00000000000E+00  0.99999998245E-14  0.12500000000E+03  0.12500000000E+03 0.  0.
    3000001    1    3    3    0    0  0.29308744095E+02  0.21883065045E+02  0.40229099022E+02  0.54380616255E+02  0.10000000000E+01 0.  1.
    1000022    2    1    0    0    0  0.31057358093E+02  0.27831869744E+02  0.45465124527E+02  0.62499999914E+02  0.99999987928E+01 0.  0.
    3000022    2    3    3    0    0  0.17486139977E+01  0.59488046991E+01  0.52360255044E+01  0.81193836583E+01  0.24999929311E+00 0.  0.
    1000022    2    1    0    0    0 -0.31057358093E+02 -0.27831869744E+02 -0.45465124527E+02  0.62500000086E+02  0.99999998708E+01 0.  0.
    3000022    2    5    5    0    0 -0.58324227479E+01 -0.89153233559E+01 -0.16688566882E+02  0.19800780418E+02  0.24998987277E+00 0.  0.
        -13    1    4    4    0    0  0.11102196486E+01  0.35914402452E+01  0.31286744548E+01  0.48918973361E+01  0.10500000000E+00 0. -1.
         13    1    4    4    0    0  0.63839434910E+00  0.23573644539E+01  0.21073510497E+01  0.32274863222E+01  0.10500000000E+00 0.  1.
    3000001    1    5    5    0    0 -0.25224935345E+02 -0.18916546388E+02 -0.28776557645E+02  0.42699219668E+02  0.10000000000E+01 0. -1.
        -13    1    6    6    0    0 -0.36161001888E+01 -0.54967779252E+01 -0.10196383042E+02  0.12135402765E+02  0.10500000000E+00 0.  1.
         13    1    6    6    0    0 -0.22163225590E+01 -0.34185454307E+01 -0.64921838400E+01  0.76653776528E+01  0.10500000000E+00 0. -1.
</event>
<event>
11    0  0.3482988E-009  0.9118800E+02  0.7816531E-02  0.1126479E+00
         25   -1    0    0    0    0  0.00000000000E+00  0.00000000000E+00  0.99999998245E-14  0.12500000000E+03  0.12500000000E+03 0.  0.
    3000001    1    3    3    0    0  0.31966884677E+02  0.47821005293E+02 -0.13864404215E+02  0.59177292667E+02  0.10000000000E+01 0.  1.
    1000022    2    1    0    0    0  0.31860687968E+02  0.51101195951E+02 -0.13409487777E+02  0.62499998915E+02  0.99999918215E+01 0.  0.
    3000022    2    3    3    0    0 -0.10619670884E+00  0.32801906582E+01  0.45491643831E+00  0.33227062473E+01  0.24999868919E+00 0.  0.
    1000022    2    1    0    0    0 -0.31860687968E+02 -0.51101195951E+02  0.13409487777E+02  0.62500001085E+02  0.10000005388E+02 0.  0.
    3000022    2    5    5    0    0 -0.96421755127E+01 -0.12508684612E+02 -0.59766766975E+00  0.15806911330E+02  0.24999960006E+00 0.  0.
        -13    1    4    4    0    0 -0.82865723668E-03  0.15975681170E+01  0.26652733952E+00  0.16230484891E+01  0.10500000000E+00 0.  1.
         13    1    4    4    0    0 -0.10536805160E+00  0.16826225412E+01  0.18838909879E+00  0.16996577582E+01  0.10500000000E+00 0. -1.
    3000001    1    5    5    0    0 -0.22218512455E+02 -0.38592511339E+02  0.14007155447E+02  0.46693089756E+02  0.10000000000E+01 0. -1.
        -13    1    6    6    0    0 -0.48268167744E+01 -0.62854221922E+01 -0.36621189285E+00  0.79340927937E+01  0.10500000000E+00 0. -1.
         13    1    6    6    0    0 -0.48153587383E+01 -0.62232624198E+01 -0.23145577690E+00  0.78728185360E+01  0.10500000000E+00 0.  1.
</event>
<event>
11    0  0.3482988E-009  0.9118800E+02  0.7816531E-02  0.1126479E+00
         25   -1    0    0    0    0  0.00000000000E+00  0.00000000000E+00  0.99999998245E-14  0.12500000000E+03  0.12500000000E+03 0.  0.
    3000001    1    3    3    0    0  0.83134856525E+01 -0.91288305337E+00 -0.14351553435E+02  0.16640747734E+02  0.10000000000E+01 0. -1.
    1000022    2    1    0    0    0  0.24284720983E+02 -0.18153259617E+02 -0.53730451449E+02  0.62500000334E+02  0.10000006046E+02 0.  0.
    3000022    2    3    3    0    0  0.15971235331E+02 -0.17240376564E+02 -0.39378898014E+02  0.45859252600E+02  0.24999634242E+00 0.  0.
    1000022    2    1    0    0    0 -0.24284720983E+02  0.18153259617E+02  0.53730451449E+02  0.62499999666E+02  0.10000001867E+02 0.  0.
    3000022    2    5    5    0    0 -0.21232833750E+02  0.19063319987E+02  0.46936610732E+02  0.54930422580E+02  0.24999979219E+00 0.  0.
        -13    1    4    4    0    0  0.90264302700E+01 -0.96588786991E+01 -0.22088460554E+02  0.25742600797E+02  0.10500000000E+00 0. -1.
         13    1    4    4    0    0  0.69448050610E+01 -0.75814978646E+01 -0.17290437460E+02  0.20116651803E+02  0.10500000000E+00 0.  1.
    3000001    1    5    5    0    0 -0.30518872337E+01 -0.91006036974E+00  0.67938407170E+01  0.75695770854E+01  0.10000000000E+01 0.  1.
        -13    1    6    6    0    0 -0.13197353410E+02  0.11771823117E+02  0.29049272247E+02  0.34009075254E+02  0.10500000000E+00 0. -1.
         13    1    6    6    0    0 -0.80354803397E+01  0.72914968696E+01  0.17887338485E+02  0.20921347327E+02  0.10500000000E+00 0.  1.
</event>
<event>
11    0  0.3482988E-009  0.9118800E+02  0.7816531E-02  0.1126479E+00
         25   -1    0    0    0    0  0.00000000000E+00  0.00000000000E+00  0.99999998245E-14  0.12500000000E+03  0.12500000000E+03 0.  0.
    3000001    1    3    3    0    0  0.87715583295E+01  0.53392952714E+01  0.18509969418E+02  0.21191207549E+02  0.10000000000E+01 0.  1.
    1000022    2    1    0    0    0  0.37180911585E+02  0.15316285942E+02  0.46789327904E+02  0.62499999652E+02  0.99999974762E+01 0.  0.
    3000022    2    3    3    0    0  0.28409353255E+02  0.99769906708E+01  0.28279358485E+02  0.41308792103E+02  0.24998690307E+00 0.  0.
    1000022    2    1    0    0    0 -0.37180911585E+02 -0.15316285942E+02 -0.46789327904E+02  0.62500000348E+02  0.10000001823E+02 0.  0.
    3000022    2    5    5    0    0 -0.28396113939E+02 -0.13461522176E+02 -0.41413816602E+02  0.51987677101E+02  0.24999720430E+00 0.  0.
        -13    1    4    4    0    0  0.19759114205E+02  0.69788711542E+01  0.19642032500E+02  0.28721902835E+02  0.10500000000E+00 0. -1.
         13    1    4    4    0    0  0.86502390503E+01  0.29981195166E+01  0.86373259856E+01  0.12586889268E+02  0.10500000000E+00 0.  1.
    3000001    1    5    5    0    0 -0.87847976454E+01 -0.18547637659E+01 -0.53755113013E+01  0.10512323247E+02  0.10000000000E+01 0.  1.
        -13    1    6    6    0    0 -0.19775615055E+02 -0.93646834151E+01 -0.28759196668E+02  0.36136887861E+02  0.10500000000E+00 0.  1.
         13    1    6    6    0    0 -0.86204988843E+01 -0.40968387612E+01 -0.12654619934E+02  0.15850789240E+02  0.10500000000E+00 0. -1.
</event>
<event>
11    0  0.3482988E-009  0.9118800E+02  0.7816531E-02  0.1126479E+00
         25   -1    0    0    0    0  0.00000000000E+00  0.00000000000E+00  0.99999998245E-14  0.12500000000E+03  0.12500000000E+03 0.  0.
    3000001    1    3    3    0    0 -0.27701389339E+02  0.74350636970E+01  0.30505748278E+02  0.41883741732E+02  0.10000000000E+01 0. -1.
    1000022    2    1    0    0    0 -0.36117982455E+02  0.84654066968E+01  0.49295823457E+02  0.62499999191E+02  0.99999960699E+01 0.  0.
    3000022    2    3    3    0    0 -0.84165931168E+01  0.10303429998E+01  0.18790075179E+02  0.20616257459E+02  0.25000000059E+00 0.  0.
    1000022    2    1    0    0    0  0.36117982455E+02 -0.84654066968E+01 -0.49295823457E+02  0.62500000809E+02  0.10000006184E+02 0.  0.
    3000022    2    5    5    0    0  0.31513132978E+01  0.66154882163E+00 -0.11440160361E+01  0.34263251976E+01  0.25001864935E+00 0.  0.
        -13    1    4    4    0    0 -0.37214897249E+01  0.39466567418E+00  0.83584257781E+01  0.91585781240E+01  0.10500000000E+00 0.  1.
         13    1    4    4    0    0 -0.46951033919E+01  0.63567732567E+00  0.10431649401E+02  0.11457679335E+02  0.10500000000E+00 0. -1.
    3000001    1    5    5    0    0  0.32966669158E+02 -0.91269555185E+01 -0.48151807421E+02  0.59073675612E+02  0.10000000000E+01 0. -1.
        -13    1    6    6    0    0  0.10261036843E+01  0.18860212381E+00 -0.41904815466E+00  0.11291970103E+01  0.10500000000E+00 0. -1.
         13    1    6    6    0    0  0.21252096134E+01  0.47294669782E+00 -0.72496788139E+00  0.22971281873E+01  0.10500000000E+00 0.  1.
</event>
<event>
11    0  0.3482988E-009  0.9118800E+02  0.7816531E-02  0.1126479E+00
         25   -1    0    0    0    0  0.00000000000E+00  0.00000000000E+00  0.99999998245E-14  0.12500000000E+03  0.12500000000E+03 0.  0.
    3000001    1    3    3    0    0 -0.71731385386E+01  0.18564966634E+02  0.57885917153E+01  0.20751378187E+02  0.10000000000E+01 0. -1.
    1000022    2    1    0    0    0 -0.33732685403E+02  0.49256561646E+02  0.15561074318E+02  0.62500000300E+02  0.10000003690E+02 0.  0.
    3000022    2    3    3    0    0 -0.26559546865E+02  0.30691595012E+02  0.97724826027E+01  0.41748622113E+02  0.24999604611E+00 0.  0.
    1000022    2    1    0    0    0  0.33732685403E+02 -0.49256561646E+02 -0.15561074318E+02  0.62499999700E+02  0.99999999440E+01 0.  0.
    3000022    2    5    5    0    0  0.10012050102E+02 -0.13222209087E+02 -0.89386704673E+01  0.18842247396E+02  0.24999368374E+00 0.  0.
        -13    1    4    4    0    0 -0.16023625379E+02  0.18422792104E+02  0.58929954391E+01  0.25117608553E+02  0.10500000000E+00 0. -1.
         13    1    4    4    0    0 -0.10535921486E+02  0.12268802908E+02  0.38794871635E+01  0.16631013559E+02  0.10500000000E+00 0.  1.
    3000001    1    5    5    0    0  0.23720635301E+02 -0.36034352559E+02 -0.66224038507E+01  0.43657752304E+02  0.10000000000E+01 0. -1.
        -13    1    6    6    0    0  0.41447363927E+01 -0.55668929719E+01 -0.37768195104E+01  0.79021849978E+01  0.10500000000E+00 0.  1.
         13    1    6    6    0    0  0.58673137093E+01 -0.76553161151E+01 -0.51618509568E+01  0.10940062399E+02  0.10500000000E+00 0. -1.
</event>
<event>
11    0  0.3482988E-009  0.9118800E+02  0.7816531E-02  0.1126479E+00
         25   -1    0    0    0    0  0.00000000000E+00  0.00000000000E+00  0.99999998245E-14  0.12500000000E+03  0.12500000000E+03 0.  0.
    3000001    1    3    3    0    0 -0.10527020242E+02  0.27303645387E+02  0.15862836502E+02  0.33300702522E+02  0.10000000000E+01 0.  1.
    1000022    2    1    0    0    0 -0.12347681889E+02  0.49291593189E+02  0.34987477206E+02  0.62500001091E+02  0.10000008394E+02 0.  0.
    3000022    2    3    3    0    0 -0.18206616474E+01  0.21987947802E+02  0.19124640705E+02  0.29199298568E+02  0.24999482906E+00 0.  0.
    1000022    2    1    0    0    0  0.12347681889E+02 -0.49291593189E+02 -0.34987477206E+02  0.62499998909E+02  0.99999947619E+01 0.  0.
    3000022    2    5    5    0    0  0.53309489887E+01 -0.37286220758E+02 -0.27803782057E+02  0.46816600559E+02  0.25003143331E+00 0.  0.
        -13    1    4    4    0    0 -0.87755210648E+00  0.10498640869E+02  0.90433579764E+01  0.13884700439E+02  0.10500000000E+00 0. -1.
         13    1    4    4    0    0 -0.94310954092E+00  0.11489306933E+02  0.10081282728E+02  0.15314598129E+02  0.10500000000E+00 0.  1.
    3000001    1    5    5    0    0  0.70167329008E+01 -0.12005372432E+02 -0.71836951496E+01  0.15683398351E+02  0.10000000000E+01 0. -1.
        -13    1    6    6    0    0  0.28792543270E+01 -0.19705698720E+02 -0.14665462180E+02  0.24732397245E+02  0.10500000000E+00 0. -1.
         13    1    6    6    0    0  0.24516946617E+01 -0.17580522038E+02 -0.13138319876E+02  0.22084203314E+02  0.10500000000E+00 0.  1.
</event>
<event>
11    0  0.3482988E-009  0.9118800E+02  0.7816531E-02  0.1126479E+00
         25   -1    0    0    0    0  0.00000000000E+00  0.00000000000E+00  0.99999998245E-14  0.12500000000E+03  0.12500000000E+03 0.  0.
    3000001    1    3    3    0    0 -0.39093318982E+02  0.79237102165E+01 -0.98846807617E+01  0.41106929907E+02  0.10000000000E+01 0. -1.
    1000022    2    1    0    0    0 -0.60478351955E+02  0.74471204745E+01 -0.96519095313E+01  0.62500000190E+02  0.10000000380E+02 0.  0.
    3000022    2    3    3    0    0 -0.21385032972E+02 -0.47658974198E+00  0.23277123039E+00  0.21393070282E+02  0.25000129397E+00 0.  0.
    1000022    2    1    0    0    0  0.60478351955E+02 -0.74471204745E+01  0.96519095313E+01  0.62499999810E+02  0.99999980085E+01 0.  0.
    3000022    2    5    5    0    0  0.27431481349E+01 -0.10194818624E+01  0.26919125744E+01  0.39841057654E+01  0.25000096690E+00 0.  0.
        -13    1    4    4    0    0 -0.13748229817E+02 -0.33945364774E+00  0.19688893234E+00  0.13754229973E+02  0.10500000000E+00 0. -1.
         13    1    4    4    0    0 -0.76368031552E+01 -0.13713609424E+00  0.35882298051E-01  0.76388403098E+01  0.10500000000E+00 0.  1.
    3000001    1    5    5    0    0  0.57735203820E+02 -0.64276386121E+01  0.69599969569E+01  0.58515894045E+02  0.10000000000E+01 0. -1.
        -13    1    6    6    0    0  0.17025131122E+01 -0.56886026210E+00  0.16682818085E+01  0.24528232891E+01  0.10500000000E+00 0.  1.
         13    1    6    6    0    0  0.10406350227E+01 -0.45062160034E+00  0.10236307659E+01  0.15312824763E+01  0.10500000000E+00 0. -1.
</event>
<event>
11    0  0.3482988E-009  0.9118800E+02  0.7816531E-02  0.1126479E+00
         25   -1    0    0    0    0  0.00000000000E+00  0.00000000000E+00  0.99999998245E-14  0.12500000000E+03  0.12500000000E+03 0.  0.
    3000001    1    3    3    0    0  0.26107443673E+02  0.42651413517E+02 -0.36176033374E+02  0.61728818884E+02  0.10000000000E+01 0.  1.
    1000022    2    1    0    0    0  0.25753249117E+02  0.43155691571E+02 -0.35785560512E+02  0.62499998931E+02  0.99999985091E+01 0.  0.
    3000022    2    3    3    0    0 -0.35419455558E+00  0.50427805409E+00  0.39047286258E+00  0.77118004705E+00  0.24999893903E+00 0.  0.
    1000022    2    1    0    0    0 -0.25753249117E+02 -0.43155691571E+02  0.35785560512E+02  0.62500001069E+02  0.10000011866E+02 0.  0.
    3000022    2    5    5    0    0 -0.58884596859E+01 -0.11515880363E+02  0.42995110640E+01  0.13632232322E+02  0.25000935605E+00 0.  0.
        -13    1    4    4    0    0 -0.27888119925E+00  0.30978678449E+00  0.27881698954E+00  0.51235387067E+00  0.10500000000E+00 0.  1.
         13    1    4    4    0    0 -0.75313356333E-01  0.19449126961E+00  0.11165587304E+00  0.25882617638E+00  0.10500000000E+00 0. -1.
    3000001    1    5    5    0    0 -0.19864789432E+02 -0.31639811208E+02  0.31486049448E+02  0.48867768747E+02  0.10000000000E+01 0. -1.
        -13    1    6    6    0    0 -0.21218229686E+01 -0.42448724129E+01  0.16199961260E+01  0.50156242842E+01  0.10500000000E+00 0.  1.
         13    1    6    6    0    0 -0.37666367173E+01 -0.72710079504E+01  0.26795149379E+01  0.86166080378E+01  0.10500000000E+00 0. -1.
</event>
<event>
11    0  0.3482988E-009  0.9118800E+02  0.7816531E-02  0.1126479E+00
         25   -1    0    0    0    0  0.00000000000E+00  0.00000000000E+00  0.99999998245E-14  0.12500000000E+03  0.12500000000E+03 0.  0.
    3000001    1    3    3    0    0 -0.39566967189E+01  0.35341381297E+02  0.29961847827E+02  0.46512159766E+02  0.10000000000E+01 0.  1.
    1000022    2    1    0    0    0 -0.23267973268E+01  0.50059255920E+02  0.35984811829E+02  0.62499998828E+02  0.10000004103E+02 0.  0.
    3000022    2    3    3    0    0  0.16298993921E+01  0.14717874623E+02  0.60229640023E+01  0.15987839062E+02  0.24999410489E+00 0.  0.
    1000022    2    1    0    0    0  0.23267973268E+01 -0.50059255920E+02 -0.35984811829E+02  0.62500001172E+02  0.10000018750E+02 0.  0.
    3000022    2    5    5    0    0  0.59229228792E+01 -0.38195068548E+02 -0.26652946134E+02  0.46950892569E+02  0.24999715046E+00 0.  0.
        -13    1    4    4    0    0  0.11632363055E+01  0.10731044494E+02  0.44184837912E+01  0.11663724047E+02  0.10500000000E+00 0. -1.
         13    1    4    4    0    0  0.46666308656E+00  0.39868301294E+01  0.16044802111E+01  0.43241150152E+01  0.10500000000E+00 0.  1.
    3000001    1    5    5    0    0 -0.35961255524E+01 -0.11864187372E+02 -0.93318656952E+01  0.15549108603E+02  0.10000000000E+01 0.  1.
        -13    1    6    6    0    0  0.15345998478E+01 -0.97659634330E+01 -0.67907650558E+01  0.11993938199E+02  0.10500000000E+00 0.  1.
         13    1    6    6    0    0  0.43883230314E+01 -0.28429105115E+02 -0.19862181078E+02  0.34956954370E+02  0.10500000000E+00 0. -1.
</event>
<event>
11    0  0.3482988E-009  0.9118800E+02  0.7816531E-02  0.1126479E+00
         25   -1    0    0    0    0  0.00000000000E+00  0.00000000000E+00  0.99999998245E-14  0.12500000000E+03  0.12500000000E+03 0.  0.
    3000001    1    3    3    0    0 -0.47982801607E+02  0.61296193257E+01  0.91208096576E+01  0.49235258220E+02  0.10000000000E+01 0.  1.
    1000022    2    1    0    0    0 -0.59879410088E+02  0.36063544671E+01  0.14411815618E+02  0.62500001073E+02  0.10000007980E+02 0.  0.
    3000022    2    3    3    0    0 -0.11896608481E+02 -0.25232648587E+01  0.52910059606E+01  0.13264742853E+02  0.24999995559E+00 0.  0.
    1000022    2    1    0    0    0  0.59879410088E+02 -0.36063544671E+01 -0.14411815618E+02  0.62499998927E+02  0.99999945730E+01 0.  0.
    3000022    2    5    5    0    0  0.49814391571E+02 -0.55311693487E+01 -0.91946684948E+01  0.50957549699E+02  0.25000132334E+00 0.  0.
        -13    1    4    4    0    0 -0.36688266466E+01 -0.72928371845E+00  0.16268366215E+01  0.40804124911E+01  0.10500000000E+00 0. -1.
         13    1    4    4    0    0 -0.82277818343E+01 -0.17939811402E+01  0.36641693392E+01  0.91843303616E+01  0.10500000000E+00 0.  1.
    3000001    1    5    5    0    0  0.10065018518E+02  0.19248148816E+01 -0.52171471234E+01  0.11542449229E+02  0.10000000000E+01 0.  1.
        -13    1    6    6    0    0  0.13748506952E+02 -0.15597581440E+01 -0.25581767363E+01  0.14071587760E+02  0.10500000000E+00 0.  1.
         13    1    6    6    0    0  0.36065884619E+02 -0.39714112047E+01 -0.66364917585E+01  0.36885961939E+02  0.10500000000E+00 0. -1.
</event>
<event>
11    0  0.3482988E-009  0.9118800E+02  0.7816531E-02  0.1126479E+00
         25   -1    0    0    0    0  0.00000000000E+00  0.00000000000E+00  0.99999998245E-14  0.12500000000E+03  0.12500000000E+03 0.  0.
    3000001    1    3    3    0    0 -0.26315057773E+02  0.72966253700E+01  0.11397554471E+02  0.29607891774E+02  0.10000000000E+01 0.  1.
    1000022    2    1    0    0    0 -0.53015809071E+02  0.24569335313E+02  0.19797033539E+02  0.62499993823E+02  0.99999220928E+01 0.  0.
    3000022    2    3    3    0    0 -0.26700751298E+02  0.17272709943E+02  0.83994790674E+01  0.32892102049E+02  0.24999997333E+00 0.  0.
    1000022    2    1    0    0    0  0.53015809071E+02 -0.24569335313E+02 -0.19797033539E+02  0.62500006177E+02  0.99999993030E+01 0.  0.
    3000022    2    5    5    0    0  0.16785408394E+02 -0.52400617825E+01 -0.18805422081E+01  0.17686354128E+02  0.25000178386E+00 0.  0.
        -13    1    4    4    0    0 -0.17273738856E+02  0.11235429090E+02  0.54172120395E+01  0.21306668726E+02  0.10500000000E+00 0. -1.
         13    1    4    4    0    0 -0.94270124420E+01  0.60372808525E+01  0.29822670279E+01  0.11585433324E+02  0.10500000000E+00 0.  1.
    3000001    1    5    5    0    0  0.36230400676E+02 -0.19329273530E+02 -0.17916491331E+02  0.44813652049E+02  0.10000000000E+01 0.  1.
        -13    1    6    6    0    0  0.99284795599E+01 -0.30672791109E+01 -0.11676181374E+01  0.10457402384E+02  0.10500000000E+00 0. -1.
         13    1    6    6    0    0  0.68569288345E+01 -0.21727826716E+01 -0.71292407072E+00  0.72289517435E+01  0.10500000000E+00 0.  1.
</event>
<event>
11    0  0.3482988E-009  0.9118800E+02  0.7816531E-02  0.1126479E+00
         25   -1    0    0    0    0  0.00000000000E+00  0.00000000000E+00  0.99999998245E-14  0.12500000000E+03  0.12500000000E+03 0.  0.
    3000001    1    3    3    0    0 -0.24781668338E+01 -0.19775694381E+01  0.28471888425E+01  0.43770510670E+01  0.10000000000E+01 0. -1.
    1000022    2    1    0    0    0 -0.96186363536E+01 -0.16164793067E+02  0.58757394524E+02  0.62500000245E+02  0.99999959567E+01 0.  0.
    3000022    2    3    3    0    0 -0.71404695198E+01 -0.14187223629E+02  0.55910205682E+02  0.58122949178E+02  0.25000498936E+00 0.  0.
    1000022    2    1    0    0    0  0.96186363536E+01  0.16164793067E+02 -0.58757394524E+02  0.62499999755E+02  0.99999928926E+01 0.  0.
    3000022    2    5    5    0    0  0.77020943553E+00  0.90205972692E+01 -0.34834982592E+02  0.35993095274E+02  0.24999501110E+00 0.  0.
        -13    1    4    4    0    0 -0.30989180877E+01 -0.61646643423E+01  0.24048653245E+02  0.25019095260E+02  0.10500000000E+00 0. -1.
         13    1    4    4    0    0 -0.40415514320E+01 -0.80225592871E+01  0.31861552437E+02  0.33103853918E+02  0.10500000000E+00 0.  1.
    3000001    1    5    5    0    0  0.88484269181E+01  0.71441957983E+01 -0.23922411932E+02  0.26506904481E+02  0.10000000000E+01 0.  1.
        -13    1    6    6    0    0  0.24824312488E+00  0.33477539574E+01 -0.13103594815E+02  0.13527169079E+02  0.10500000000E+00 0.  1.
         13    1    6    6    0    0  0.52196631065E+00  0.56728433118E+01 -0.21731387777E+02  0.22465926195E+02  0.10500000000E+00 0.  1.
</event>
<event>
11    0  0.3482988E-009  0.9118800E+02  0.7816531E-02  0.1126479E+00
         25   -1    0    0    0    0  0.00000000000E+00  0.00000000000E+00  0.99999998245E-14  0.12500000000E+03  0.12500000000E+03 0.  0.
    3000001    1    3    3    0    0 -0.31068638253E+02 -0.17729292209E+02  0.37462995384E+02  0.51807954102E+02  0.10000000000E+01 0.  1.
    1000022    2    1    0    0    0 -0.34645560712E+02 -0.18737075229E+02  0.47485336327E+02  0.62499998816E+02  0.99999910366E+01 0.  0.
    3000022    2    3    3    0    0 -0.35769224596E+01 -0.10077830197E+01  0.10022340943E+02  0.10692044714E+02  0.25000257680E+00 0.  0.
    1000022    2    1    0    0    0  0.34645560712E+02  0.18737075229E+02 -0.47485336327E+02  0.62500001184E+02  0.10000005833E+02 0.  0.
    3000022    2    5    5    0    0  0.95589540426E+01  0.31421814132E+01 -0.65455798994E+01  0.12006415416E+02  0.24997699649E+00 0.  0.
        -13    1    4    4    0    0 -0.23687752083E+01 -0.71630448942E+00  0.65909746448E+01  0.70410340063E+01  0.10500000000E+00 0.  1.
         13    1    4    4    0    0 -0.12081472514E+01 -0.29147853027E+00  0.34313662987E+01  0.36510107080E+01  0.10500000000E+00 0. -1.
    3000001    1    5    5    0    0  0.25086606670E+02  0.15594893816E+02 -0.40939756428E+02  0.50493585768E+02  0.10000000000E+01 0.  1.
        -13    1    6    6    0    0  0.70533630568E+01  0.23503281542E+01 -0.48221289788E+01  0.88621625878E+01  0.10500000000E+00 0.  1.
         13    1    6    6    0    0  0.25055909858E+01  0.79185325899E+00 -0.17234509206E+01  0.31442528282E+01  0.10500000000E+00 0. -1.
</event>
<event>
11    0  0.3482988E-009  0.9118800E+02  0.7816531E-02  0.1126479E+00
         25   -1    0    0    0    0  0.00000000000E+00  0.00000000000E+00  0.99999998245E-14  0.12500000000E+03  0.12500000000E+03 0.  0.
    3000001    1    3    3    0    0 -0.63094707482E+00 -0.62254181645E+00 -0.21131151213E+00  0.13528876818E+01  0.10000000000E+01 0. -1.
    1000022    2    1    0    0    0 -0.44166431329E+02  0.45485345711E+01 -0.42835581855E+02  0.62499999941E+02  0.10000004836E+02 0.  0.
    3000022    2    3    3    0    0 -0.43535484254E+02  0.51710763876E+01 -0.42624270343E+02  0.61147112260E+02  0.24999032907E+00 0.  0.
    1000022    2    1    0    0    0  0.44166431329E+02 -0.45485345711E+01  0.42835581855E+02  0.62500000059E+02  0.10000005568E+02 0.  0.
    3000022    2    5    5    0    0  0.46963940164E+01 -0.29606769539E+01  0.84793356730E+01  0.10138212570E+02  0.24999175391E+00 0.  0.
        -13    1    4    4    0    0 -0.21285323565E+02  0.25820303178E+01 -0.20787855177E+02  0.29864323660E+02  0.10500000000E+00 0.  1.
         13    1    4    4    0    0 -0.22250160689E+02  0.25890460697E+01 -0.21836415167E+02  0.31282788599E+02  0.10500000000E+00 0. -1.
    3000001    1    5    5    0    0  0.39470037312E+02 -0.15878576172E+01  0.34356246182E+02  0.52361787489E+02  0.10000000000E+01 0.  1.
        -13    1    6    6    0    0  0.12679509333E+01 -0.78581514603E+00  0.22208900106E+01  0.26774208583E+01  0.10500000000E+00 0.  1.
         13    1    6    6    0    0  0.34284430831E+01 -0.21748618079E+01  0.62584456623E+01  0.74607917117E+01  0.10500000000E+00 0. -1.
</event>
<event>
11    0  0.3482988E-009  0.9118800E+02  0.7816531E-02  0.1126479E+00
         25   -1    0    0    0    0  0.00000000000E+00  0.00000000000E+00  0.99999998245E-14  0.12500000000E+03  0.12500000000E+03 0.  0.
    3000001    1    3    3    0    0  0.59596401477E+01 -0.21356821551E+02 -0.13472068185E+02  0.25963970394E+02  0.10000000000E+01 0.  1.
    1000022    2    1    0    0    0  0.23597843455E+02 -0.51104020756E+02 -0.25254124804E+02  0.62499999791E+02  0.10000000056E+02 0.  0.
    3000022    2    3    3    0    0  0.17638203307E+02 -0.29747199206E+02 -0.11782056619E+02  0.36536029397E+02  0.25001895672E+00 0.  0.
    1000022    2    1    0    0    0 -0.23597843455E+02  0.51104020756E+02  0.25254124804E+02  0.62500000209E+02  0.10000002666E+02 0.  0.
    3000022    2    5    5    0    0 -0.17375294653E+01  0.10826623991E+02  0.21829768837E+01  0.11183142508E+02  0.24998520118E+00 0.  0.
        -13    1    4    4    0    0  0.12497921316E+02 -0.21126259085E+02 -0.83251423822E+01  0.25919797083E+02  0.10500000000E+00 0.  1.
         13    1    4    4    0    0  0.51402819911E+01 -0.86209401206E+01 -0.34569142367E+01  0.10616232314E+02  0.10500000000E+00 0. -1.
    3000001    1    5    5    0    0 -0.21860313989E+02  0.40277396766E+02  0.23071147920E+02  0.51316857701E+02  0.10000000000E+01 0.  1.
        -13    1    6    6    0    0 -0.43795661428E+00  0.29297085592E+01  0.60719671676E+00  0.30256753115E+01  0.10500000000E+00 0.  1.
         13    1    6    6    0    0 -0.12995728510E+01  0.78969154314E+01  0.15757801669E+01  0.81574671964E+01  0.10500000000E+00 0. -1.
</event>
<event>
11    0  0.3482988E-009  0.9118800E+02  0.7816531E-02  0.1126479E+00
         25   -1    0    0    0    0  0.00000000000E+00  0.00000000000E+00  0.99999998245E-14  0.12500000000E+03  0.12500000000E+03 0.  0.
    3000001    1    3    3    0    0  0.17054301361E+01  0.21061352254E+01 -0.91946468822E+00  0.30314539168E+01  0.10000000000E+01 0. -1.
    1000022    2    1    0    0    0  0.98831346140E+01  0.60603812475E+02  0.59792590478E+01  0.62500000087E+02  0.10000001789E+02 0.  0.
    3000022    2    3    3    0    0  0.81777044779E+01  0.58497677250E+02  0.68987237360E+01  0.59468546170E+02  0.25000051411E+00 0.  0.
    1000022    2    1    0    0    0 -0.98831346140E+01 -0.60603812475E+02 -0.59792590478E+01  0.62499999913E+02  0.10000000699E+02 0.  0.
    3000022    2    5    5    0    0 -0.99290136891E+01 -0.31007486832E+02 -0.20019434246E+01  0.32620849389E+02  0.24996975855E+00 0.  0.
        -13    1    4    4    0    0  0.57586263945E+01  0.40902120258E+02  0.48466345456E+01  0.41589014307E+02  0.10500000000E+00 0.  1.
         13    1    4    4    0    0  0.24190780834E+01  0.17595556992E+02  0.20520891904E+01  0.17879531864E+02  0.10500000000E+00 0. -1.
    3000001    1    5    5    0    0  0.45879075132E-01 -0.29596325643E+02 -0.39773156232E+01  0.29879150524E+02  0.10000000000E+01 0. -1.
        -13    1    6    6    0    0 -0.74881534585E+01 -0.23352637610E+02 -0.14856392829E+01  0.24569010453E+02  0.10500000000E+00 0.  1.
         13    1    6    6    0    0 -0.24408602306E+01 -0.76548492220E+01 -0.51630414172E+00  0.80518389355E+01  0.10500000000E+00 0. -1.
</event>
<event>
11    0  0.3482988E-009  0.9118800E+02  0.7816531E-02  0.1126479E+00
         25   -1    0    0    0    0  0.00000000000E+00  0.00000000000E+00  0.99999998245E-14  0.12500000000E+03  0.12500000000E+03 0.  0.
    3000001    1    3    3    0    0  0.41994454747E+01 -0.80615522125E+01  0.16238008424E+02  0.18635903089E+02  0.10000000000E+01 0. -1.
    1000022    2    1    0    0    0  0.47018337191E+01 -0.16284508575E+02  0.59320801860E+02  0.62500000008E+02  0.10000000388E+02 0.  0.
    3000022    2    3    3    0    0  0.50238824447E+00 -0.82229563629E+01  0.43082793437E+02  0.43864096919E+02  0.25000583801E+00 0.  0.
    1000022    2    1    0    0    0 -0.47018337191E+01  0.16284508575E+02 -0.59320801860E+02  0.62499999992E+02  0.10000000289E+02 0.  0.
    3000022    2    5    5    0    0 -0.60223778080E+01  0.11832868571E+02 -0.30149200804E+02  0.32944235011E+02  0.24999653363E+00 0.  0.
        -13    1    4    4    0    0  0.30427585857E+00 -0.38791948328E+01  0.20311728435E+02  0.20681346024E+02  0.10500000000E+00 0.  1.
         13    1    4    4    0    0  0.19811238589E+00 -0.43437615301E+01  0.22771065002E+02  0.23182750895E+02  0.10500000000E+00 0. -1.
    3000001    1    5    5    0    0  0.13205440888E+01  0.44516400050E+01 -0.29171601056E+02  0.29555764981E+02  0.10000000000E+01 0. -1.
        -13    1    6    6    0    0 -0.23401173086E+01  0.45134161303E+01 -0.11663671583E+02  0.12723966912E+02  0.10500000000E+00 0.  1.
         13    1    6    6    0    0 -0.36822604994E+01  0.73194524402E+01 -0.18485529222E+02  0.20220268100E+02  0.10500000000E+00 0. -1.
</event>
<event>
11    0  0.3482988E-009  0.9118800E+02  0.7816531E-02  0.1126479E+00
         25   -1    0    0    0    0  0.00000000000E+00  0.00000000000E+00  0.99999998245E-14  0.12500000000E+03  0.12500000000E+03 0.  0.
    3000001    1    3    3    0    0  0.65748898817E+00 -0.38053840505E+00 -0.38994275653E+00  0.13149739924E+01  0.10000000000E+01 0.  1.
    1000022    2    1    0    0    0  0.49816868035E+02 -0.24681682093E+02  0.26745917642E+02  0.62500001160E+02  0.10000013138E+02 0.  0.
    3000022    2    3    3    0    0  0.49159379047E+02 -0.24301143688E+02  0.27135860398E+02  0.61185027168E+02  0.24999430863E+00 0.  0.
    1000022    2    1    0    0    0 -0.49816868035E+02  0.24681682093E+02 -0.26745917642E+02  0.62499998840E+02  0.99999986376E+01 0.  0.
    3000022    2    5    5    0    0 -0.39367697003E+02  0.20120559228E+02 -0.16666170854E+02  0.47249086987E+02  0.24999837736E+00 0.  0.
        -13    1    4    4    0    0  0.16984707357E+02 -0.84405052537E+01  0.94289948895E+01  0.21181109097E+02  0.10500000000E+00 0. -1.
         13    1    4    4    0    0  0.32174671689E+02 -0.15860638434E+02  0.17706865509E+02  0.40003918071E+02  0.10500000000E+00 0.  1.
    3000001    1    5    5    0    0 -0.10449171031E+02  0.45611228653E+01 -0.10079746788E+02  0.15250911853E+02  0.10000000000E+01 0.  1.
        -13    1    6    6    0    0 -0.17056730031E+02  0.87146110702E+01 -0.72906257831E+01  0.20494895334E+02  0.10500000000E+00 0.  1.
         13    1    6    6    0    0 -0.22310966972E+02  0.11405948158E+02 -0.93755450706E+01  0.26754191653E+02  0.10500000000E+00 0. -1.
</event>
<event>
11    0  0.3482988E-009  0.9118800E+02  0.7816531E-02  0.1126479E+00
         25   -1    0    0    0    0  0.00000000000E+00  0.00000000000E+00  0.99999998245E-14  0.12500000000E+03  0.12500000000E+03 0.  0.
    3000001    1    3    3    0    0  0.10107055297E+02 -0.45805954587E+01 -0.10355712003E+02  0.15211022077E+02  0.10000000000E+01 0.  1.
    1000022    2    1    0    0    0  0.43565292289E+02 -0.31140437588E+02 -0.30636393840E+02  0.62499999301E+02  0.99999869899E+01 0.  0.
    3000022    2    3    3    0    0  0.33458236991E+02 -0.26559842129E+02 -0.20280681837E+02  0.47288977224E+02  0.24994931379E+00 0.  0.
    1000022    2    1    0    0    0 -0.43565292289E+02  0.31140437588E+02  0.30636393840E+02  0.62500000699E+02  0.99999957247E+01 0.  0.
    3000022    2    5    5    0    0 -0.12353180122E+02  0.39355769187E+01  0.57781664537E+01  0.14196461918E+02  0.24999725896E+00 0.  0.
        -13    1    4    4    0    0  0.23069796334E+02 -0.18252086260E+02 -0.13975048348E+02  0.32567885363E+02  0.10500000000E+00 0.  1.
         13    1    4    4    0    0  0.10388440658E+02 -0.83077558694E+01 -0.63056334890E+01  0.14721091861E+02  0.10500000000E+00 0. -1.
    3000001    1    5    5    0    0 -0.31212112167E+02  0.27204860669E+02  0.24858227386E+02  0.48303538781E+02  0.10000000000E+01 0.  1.
        -13    1    6    6    0    0 -0.36050748212E+01  0.11711874781E+01  0.16482262373E+01  0.41347211882E+01  0.10500000000E+00 0. -1.
         13    1    6    6    0    0 -0.87481053004E+01  0.27643894405E+01  0.41299402165E+01  0.10061740730E+02  0.10500000000E+00 0.  1.
</event>
<event>
11    0  0.3482988E-009  0.9118800E+02  0.7816531E-02  0.1126479E+00
         25   -1    0    0    0    0  0.00000000000E+00  0.00000000000E+00  0.99999998245E-14  0.12500000000E+03  0.12500000000E+03 0.  0.
    3000001    1    3    3    0    0 -0.88565673843E+01  0.54280498182E+01  0.17747665047E+02  0.20588397832E+02  0.10000000000E+01 0.  1.
    1000022    2    1    0    0    0 -0.31056387422E+02  0.27211743124E+02  0.45839633143E+02  0.62500000873E+02  0.99999989439E+01 0.  0.
    3000022    2    3    3    0    0 -0.22199820038E+02  0.21783693306E+02  0.28091968095E+02  0.41911603041E+02  0.24998841512E+00 0.  0.
    1000022    2    1    0    0    0  0.31056387422E+02 -0.27211743124E+02 -0.45839633143E+02  0.62499999127E+02  0.99999880311E+01 0.  0.
    3000022    2    5    5    0    0  0.20434949931E+02 -0.11740823476E+02 -0.23124170870E+02  0.33018538590E+02  0.24999521200E+00 0.  0.
        -13    1    4    4    0    0 -0.16558057640E+02  0.16280520683E+02  0.20951865283E+02  0.31276449772E+02  0.10500000000E+00 0.  1.
         13    1    4    4    0    0 -0.56417623984E+01  0.55031726234E+01  0.71401028128E+01  0.10635153269E+02  0.10500000000E+00 0. -1.
    3000001    1    5    5    0    0  0.10621437492E+02 -0.15470919648E+02 -0.22715462273E+02  0.29481460537E+02  0.10000000000E+01 0. -1.
        -13    1    6    6    0    0  0.10828992984E+02 -0.62124308816E+01 -0.12343198244E+02  0.17556393548E+02  0.10500000000E+00 0. -1.
         13    1    6    6    0    0  0.96059569472E+01 -0.55283925948E+01 -0.10780972626E+02  0.15462145042E+02  0.10500000000E+00 0.  1.
</event>
<event>
11    0  0.3482988E-009  0.9118800E+02  0.7816531E-02  0.1126479E+00
         25   -1    0    0    0    0  0.00000000000E+00  0.00000000000E+00  0.99999998245E-14  0.12500000000E+03  0.12500000000E+03 0.  0.
    3000001    1    3    3    0    0 -0.38519494922E+02  0.41246078404E+01 -0.15316291586E+02  0.41669565234E+02  0.10000000000E+01 0.  1.
    1000022    2    1    0    0    0 -0.54774326036E+02  0.26985578755E+01 -0.28262002485E+02  0.62500001717E+02  0.10000021138E+02 0.  0.
    3000022    2    3    3    0    0 -0.16254831114E+02 -0.14260499649E+01 -0.12945710900E+02  0.20830436482E+02  0.25000057327E+00 0.  0.
    1000022    2    1    0    0    0  0.54774326036E+02 -0.26985578755E+01  0.28262002485E+02  0.62499998283E+02  0.99999996814E+01 0.  0.
    3000022    2    5    5    0    0  0.51005201993E+02 -0.49412571319E+01  0.26124301419E+02  0.57519459974E+02  0.24999726432E+00 0.  0.
        -13    1    4    4    0    0 -0.11098373426E+02 -0.10056663172E+01 -0.87913384170E+01  0.14194502936E+02  0.10500000000E+00 0.  1.
         13    1    4    4    0    0 -0.51564576886E+01 -0.42038364771E+00 -0.41543724828E+01  0.66359335464E+01  0.10500000000E+00 0. -1.
    3000001    1    5    5    0    0  0.37691240433E+01  0.22426992564E+01  0.21377010662E+01  0.49805383100E+01  0.10000000000E+01 0. -1.
        -13    1    6    6    0    0  0.37501470807E+02 -0.36385242411E+01  0.19245374768E+02  0.42308328333E+02  0.10500000000E+00 0.  1.
         13    1    6    6    0    0  0.13503731186E+02 -0.13027328908E+01  0.68789266507E+01  0.15211131641E+02  0.10500000000E+00 0. -1.
</event>
<event>
11    0  0.3482988E-009  0.9118800E+02  0.7816531E-02  0.1126479E+00
         25   -1    0    0    0    0  0.00000000000E+00  0.00000000000E+00  0.99999998245E-14  0.12500000000E+03  0.12500000000E+03 0.  0.
    3000001    1    3    3    0    0  0.49710907285E+00  0.31335828667E+01 -0.35662130442E+00  0.33456894308E+01  0.10000000000E+01 0.  1.
    1000022    2    1    0    0    0  0.39952833782E+02  0.41849396313E+02 -0.21416096553E+02  0.62499999712E+02  0.99999936730E+01 0.  0.
    3000022    2    3    3    0    0  0.39455724709E+02  0.38715813446E+02 -0.21059475249E+02  0.59154310281E+02  0.25000792848E+00 0.  0.
    1000022    2    1    0    0    0 -0.39952833782E+02 -0.41849396313E+02  0.21416096553E+02  0.62500000288E+02  0.99999972771E+01 0.  0.
    3000022    2    5    5    0    0 -0.29947008373E+02 -0.30129643873E+02  0.20114147830E+02  0.47002767960E+02  0.25000517841E+00 0.  0.
        -13    1    4    4    0    0  0.28215644227E+02  0.27729668960E+02 -0.15100720094E+02  0.42345010239E+02  0.10500000000E+00 0. -1.
         13    1    4    4    0    0  0.11240080482E+02  0.10986144485E+02 -0.59587551547E+01  0.16809300042E+02  0.10500000000E+00 0.  1.
    3000001    1    5    5    0    0 -0.10005825409E+02 -0.11719752440E+02  0.13019487236E+01  0.15497232329E+02  0.10000000000E+01 0. -1.
        -13    1    6    6    0    0 -0.90305396814E+01 -0.90245433360E+01  0.60629202047E+01  0.14133755897E+02  0.10500000000E+00 0.  1.
         13    1    6    6    0    0 -0.20916468692E+02 -0.21105100537E+02  0.14051227625E+02  0.32869012062E+02  0.10500000000E+00 0. -1.
</event>
<event>
11    0  0.3482988E-009  0.9118800E+02  0.7816531E-02  0.1126479E+00
         25   -1    0    0    0    0  0.00000000000E+00  0.00000000000E+00  0.99999998245E-14  0.12500000000E+03  0.12500000000E+03 0.  0.
    3000001    1    3    3    0    0  0.10703140023E+02  0.23662544451E+01 -0.43304566479E+01  0.11828322841E+02  0.10000000000E+01 0. -1.
    1000022    2    1    0    0    0  0.56163207801E+02 -0.75721175127E+01 -0.24384566226E+02  0.62499999603E+02  0.10000000314E+02 0.  0.
    3000022    2    3    3    0    0  0.45460067778E+02 -0.99383719578E+01 -0.20054109578E+02  0.50671676762E+02  0.25003078561E+00 0.  0.
    1000022    2    1    0    0    0 -0.56163207801E+02  0.75721175127E+01  0.24384566226E+02  0.62500000397E+02  0.10000005277E+02 0.  0.
    3000022    2    5    5    0    0 -0.44439869593E+02  0.19468741413E+01  0.18124135961E+02  0.48033728977E+02  0.24997335588E+00 0.  0.
        -13    1    4    4    0    0  0.28143353236E+02 -0.62090983894E+01 -0.12391997926E+02  0.31371545575E+02  0.10500000000E+00 0. -1.
         13    1    4    4    0    0  0.17316714542E+02 -0.37292735685E+01 -0.76621116521E+01  0.19300131187E+02  0.10500000000E+00 0.  1.
    3000001    1    5    5    0    0 -0.11723338207E+02  0.56252433714E+01  0.62604302646E+01  0.14466271421E+02  0.10000000000E+01 0. -1.
        -13    1    6    6    0    0 -0.18763834880E+02  0.85482975100E+00  0.77137369848E+01  0.20305787268E+02  0.10500000000E+00 0. -1.
         13    1    6    6    0    0 -0.25676034713E+02  0.10920443903E+01  0.10410398976E+02  0.27727941708E+02  0.10500000000E+00 0.  1.
</event>
<event>
11    0  0.3482988E-009  0.9118800E+02  0.7816531E-02  0.1126479E+00
         25   -1    0    0    0    0  0.00000000000E+00  0.00000000000E+00  0.99999998245E-14  0.12500000000E+03  0.12500000000E+03 0.  0.
    3000001    1    3    3    0    0  0.25947008629E+02  0.17361023066E+01 -0.34681699942E+02  0.43359907967E+02  0.10000000000E+01 0. -1.
    1000022    2    1    0    0    0  0.39350752113E+02 -0.32359197862E+01 -0.47405668289E+02  0.62500002284E+02  0.10000001543E+02 0.  0.
    3000022    2    3    3    0    0  0.13403743484E+02 -0.49720220928E+01 -0.12723968347E+02  0.19140094317E+02  0.24999381978E+00 0.  0.
    1000022    2    1    0    0    0 -0.39350752113E+02  0.32359197862E+01  0.47405668289E+02  0.62499997716E+02  0.99999729899E+01 0.  0.
    3000022    2    5    5    0    0 -0.55439823237E+01 -0.13696865092E+01  0.28932797176E+01  0.64066645175E+01  0.25000315424E+00 0.  0.
        -13    1    4    4    0    0  0.41911281169E+01 -0.15033847852E+01 -0.39525736388E+01  0.59547950489E+01  0.10500000000E+00 0. -1.
         13    1    4    4    0    0  0.92126153668E+01 -0.34686373077E+01 -0.87713947084E+01  0.13185299268E+02  0.10500000000E+00 0.  1.
    3000001    1    5    5    0    0 -0.33806769789E+02  0.46056062954E+01  0.44512388572E+02  0.56093333198E+02  0.10000000000E+01 0. -1.
        -13    1    6    6    0    0 -0.34925888630E+01 -0.87042379416E+00  0.18890900654E+01  0.40663867035E+01  0.10500000000E+00 0. -1.
         13    1    6    6    0    0 -0.20513934606E+01 -0.49926271500E+00  0.10041896522E+01  0.23402778140E+01  0.10500000000E+00 0.  1.
</event>
<event>
11    0  0.3482988E-009  0.9118800E+02  0.7816531E-02  0.1126479E+00
         25   -1    0    0    0    0  0.00000000000E+00  0.00000000000E+00  0.99999998245E-14  0.12500000000E+03  0.12500000000E+03 0.  0.
    3000001    1    3    3    0    0  0.74455501542E+01 -0.25790504853E+02 -0.75071826625E+01  0.27891650170E+02  0.10000000000E+01 0.  1.
    1000022    2    1    0    0    0  0.26649289517E+02 -0.53124756090E+02 -0.16547677920E+02  0.62500000994E+02  0.10000006915E+02 0.  0.
    3000022    2    3    3    0    0  0.19203739363E+02 -0.27334251237E+02 -0.90404952577E+01  0.34608350824E+02  0.24999210423E+00 0.  0.
    1000022    2    1    0    0    0 -0.26649289517E+02  0.53124756090E+02  0.16547677920E+02  0.62499999006E+02  0.99999944905E+01 0.  0.
    3000022    2    5    5    0    0 -0.70696618012E+01  0.15719014810E+02  0.27026059103E+00  0.17239579022E+02  0.24999899141E+00 0.  0.
        -13    1    4    4    0    0  0.81081195237E+01 -0.11631366839E+02 -0.37964389958E+01  0.14678360630E+02  0.10500000000E+00 0.  1.
         13    1    4    4    0    0  0.11095619839E+02 -0.15702884399E+02 -0.52440562619E+01  0.19929990194E+02  0.10500000000E+00 0. -1.
    3000001    1    5    5    0    0 -0.19579627716E+02  0.37405741280E+02  0.16277417329E+02  0.45260419984E+02  0.10000000000E+01 0. -1.
        -13    1    6    6    0    0 -0.28784634311E+01  0.64362444775E+01  0.17272537103E+00  0.70534852202E+01  0.10500000000E+00 0. -1.
         13    1    6    6    0    0 -0.41911983701E+01  0.92827703327E+01  0.97535220004E-01  0.10186093802E+02  0.10500000000E+00 0.  1.
</event>
<event>
11    0  0.3482988E-009  0.9118800E+02  0.7816531E-02  0.1126479E+00
         25   -1    0    0    0    0  0.00000000000E+00  0.00000000000E+00  0.99999998245E-14  0.12500000000E+03  0.12500000000E+03 0.  0.
    3000001    1    3    3    0    0  0.99146430303E+00  0.46396617074E+01  0.23559374074E+00  0.48543760293E+01  0.10000000000E+01 0. -1.
    1000022    2    1    0    0    0  0.27278102400E+02  0.49900120820E+02 -0.23919298048E+02  0.62499998587E+02  0.10000003792E+02 0.  0.
    3000022    2    3    3    0    0  0.26286638097E+02  0.45260459113E+02 -0.24154891788E+02  0.57645622557E+02  0.25000237373E+00 0.  0.
    1000022    2    1    0    0    0 -0.27278102400E+02 -0.49900120820E+02  0.23919298048E+02  0.62500001413E+02  0.10000021457E+02 0.  0.
    3000022    2    5    5    0    0 -0.14165304382E+02 -0.24630992561E+02  0.17257808779E+02  0.33245091499E+02  0.25000422753E+00 0.  0.
        -13    1    4    4    0    0  0.79880156043E+01  0.13757298564E+02 -0.72901247440E+01  0.17499388585E+02  0.10500000000E+00 0.  1.
         13    1    4    4    0    0  0.18298622492E+02  0.31503160549E+02 -0.16864767044E+02  0.40146233972E+02  0.10500000000E+00 0. -1.
    3000001    1    5    5    0    0 -0.13112798017E+02 -0.25269128259E+02  0.66614892683E+01  0.29254909914E+02  0.10000000000E+01 0.  1.
        -13    1    6    6    0    0 -0.81999618401E+01 -0.14368544236E+02  0.10087875767E+02  0.19377066345E+02  0.10500000000E+00 0. -1.
         13    1    6    6    0    0 -0.59653425422E+01 -0.10262448325E+02  0.71699330120E+01  0.13868025153E+02  0.10500000000E+00 0.  1.
</event>
<event>
11    0  0.3482988E-009  0.9118800E+02  0.7816531E-02  0.1126479E+00
         25   -1    0    0    0    0  0.00000000000E+00  0.00000000000E+00  0.99999998245E-14  0.12500000000E+03  0.12500000000E+03 0.  0.
    3000001    1    3    3    0    0  0.24056556819E+02  0.44995080995E+02 -0.29101211154E+02  0.58746538028E+02  0.10000000000E+01 0.  1.
    1000022    2    1    0    0    0  0.24338313454E+02  0.46410456192E+02 -0.32557119777E+02  0.62500000320E+02  0.10000002308E+02 0.  0.
    3000022    2    3    3    0    0  0.28175663496E+00  0.14153751974E+01 -0.34559086225E+01  0.37534622918E+01  0.25000203605E+00 0.  0.
    1000022    2    1    0    0    0 -0.24338313454E+02 -0.46410456192E+02  0.32557119777E+02  0.62499999680E+02  0.99999983041E+01 0.  0.
    3000022    2    5    5    0    0 -0.82178759310E+01 -0.74458124546E+01  0.54264644341E+01  0.12348385281E+02  0.24998971883E+00 0.  0.
        -13    1    4    4    0    0  0.24258544601E+00  0.96984371315E+00 -0.23653765382E+01  0.25701120003E+01  0.10500000000E+00 0. -1.
         13    1    4    4    0    0  0.39171188950E-01  0.44553148424E+00 -0.10905320843E+01  0.11833502915E+01  0.10500000000E+00 0.  1.
    3000001    1    5    5    0    0 -0.16120437523E+02 -0.38964643737E+02  0.27130655343E+02  0.50151614399E+02  0.10000000000E+01 0.  1.
        -13    1    6    6    0    0 -0.44688237016E+01 -0.41199075645E+01  0.29282573867E+01  0.67475728924E+01  0.10500000000E+00 0. -1.
         13    1    6    6    0    0 -0.37490522294E+01 -0.33259048901E+01  0.24982070474E+01  0.56008123883E+01  0.10500000000E+00 0.  1.
</event>
<event>
11    0  0.3482988E-009  0.9118800E+02  0.7816531E-02  0.1126479E+00
         25   -1    0    0    0    0  0.00000000000E+00  0.00000000000E+00  0.99999998245E-14  0.12500000000E+03  0.12500000000E+03 0.  0.
    3000001    1    3    3    0    0  0.11302188431E+02  0.97990953644E+01  0.81876369148E+00  0.15014396667E+02  0.10000000000E+01 0. -1.
    1000022    2    1    0    0    0  0.33510020287E+02  0.51716491155E+02  0.29553060288E+01  0.62500006835E+02  0.10000005182E+02 0.  0.
    3000022    2    3    3    0    0  0.22207831856E+02  0.41917395791E+02  0.21365423373E+01  0.47485610168E+02  0.24998854593E+00 0.  0.
    1000022    2    1    0    0    0 -0.33510020287E+02 -0.51716491155E+02 -0.29553060288E+01  0.62499993165E+02  0.99999197448E+01 0.  0.
    3000022    2    5    5    0    0 -0.71635264330E+01 -0.48920624344E+01  0.61153884994E-01  0.86783999723E+01  0.25000092533E+00 0.  0.
        -13    1    4    4    0    0  0.15615833355E+02  0.29379161667E+02  0.15057808352E+01  0.33305672078E+02  0.10500000000E+00 0.  1.
         13    1    4    4    0    0  0.65919985011E+01  0.12538234123E+02  0.63076150216E+00  0.14179938090E+02  0.10500000000E+00 0. -1.
    3000001    1    5    5    0    0 -0.26346493854E+02 -0.46824428721E+02 -0.30164599138E+01  0.53821593193E+02  0.10000000000E+01 0. -1.
        -13    1    6    6    0    0 -0.51489134627E+01 -0.35360876008E+01  0.78576719216E-02  0.62471042980E+01  0.10500000000E+00 0. -1.
         13    1    6    6    0    0 -0.20146129703E+01 -0.13559748336E+01  0.53296213073E-01  0.24312956743E+01  0.10500000000E+00 0.  1.
</event>
<event>
11    0  0.3482988E-009  0.9118800E+02  0.7816531E-02  0.1126479E+00
         25   -1    0    0    0    0  0.00000000000E+00  0.00000000000E+00  0.99999998245E-14  0.12500000000E+03  0.12500000000E+03 0.  0.
    3000001    1    3    3    0    0 -0.18229019984E+02 -0.11148847373E+01  0.68357429668E+01  0.19526072812E+02  0.10000000000E+01 0.  1.
    1000022    2    1    0    0    0 -0.56178753495E+02 -0.17585309428E+02  0.18464958194E+02  0.62499998771E+02  0.99999856672E+01 0.  0.
    3000022    2    3    3    0    0 -0.37949733511E+02 -0.16470424691E+02  0.11629215227E+02  0.42973925960E+02  0.25000495247E+00 0.  0.
    1000022    2    1    0    0    0  0.56178753495E+02  0.17585309428E+02 -0.18464958194E+02  0.62500001229E+02  0.10000001026E+02 0.  0.
    3000022    2    5    5    0    0  0.68828349545E+01  0.57120701795E+01 -0.18956056695E+01  0.91464180491E+01  0.24995905306E+00 0.  0.
        -13    1    4    4    0    0 -0.19454247056E+02 -0.85012186506E+01  0.60116108733E+01  0.22065559983E+02  0.10500000000E+00 0. -1.
         13    1    4    4    0    0 -0.18495486456E+02 -0.79692060406E+01  0.56176043539E+01  0.20908365977E+02  0.10500000000E+00 0.  1.
    3000001    1    5    5    0    0  0.49295918541E+02  0.11873239249E+02 -0.16569352524E+02  0.53353583180E+02  0.10000000000E+01 0. -1.
        -13    1    6    6    0    0  0.29352831470E+01  0.25047253422E+01 -0.77817697143E+00  0.39377811762E+01  0.10500000000E+00 0. -1.
         13    1    6    6    0    0  0.39475518076E+01  0.32073448374E+01 -0.11174286981E+01  0.52086368730E+01  0.10500000000E+00 0.  1.
</event>
<event>
11    0  0.3482988E-009  0.9118800E+02  0.7816531E-02  0.1126479E+00
         25   -1    0    0    0    0  0.00000000000E+00  0.00000000000E+00  0.99999998245E-14  0.12500000000E+03  0.12500000000E+03 0.  0.
    3000001    1    3    3    0    0 -0.17816184427E+02 -0.24818231735E+02  0.28633355416E+02  0.41883530133E+02  0.10000000000E+01 0. -1.
    1000022    2    1    0    0    0 -0.19935900152E+02 -0.37556262568E+02  0.44702760287E+02  0.62500001592E+02  0.10000022438E+02 0.  0.
    3000022    2    3    3    0    0 -0.21197157254E+01 -0.12738030833E+02  0.16069404871E+02  0.20616471459E+02  0.24999654316E+00 0.  0.
    1000022    2    1    0    0    0  0.19935900152E+02  0.37556262568E+02 -0.44702760287E+02  0.62499998408E+02  0.10000002541E+02 0.  0.
    3000022    2    5    5    0    0  0.24388456470E+01  0.15615423791E+01 -0.66878697834E+01  0.72922208963E+01  0.25000133774E+00 0.  0.
        -13    1    4    4    0    0 -0.14823651043E+01 -0.86661513148E+01  0.10989717247E+02  0.14074249361E+02  0.10500000000E+00 0.  1.
         13    1    4    4    0    0 -0.63735062104E+00 -0.40718795180E+01  0.50796876237E+01  0.65422220979E+01  0.10500000000E+00 0. -1.
    3000001    1    5    5    0    0  0.17497054505E+02  0.35994720189E+02 -0.38014890504E+02  0.55207777512E+02  0.10000000000E+01 0. -1.
        -13    1    6    6    0    0  0.18100033807E+01  0.11913933239E+01 -0.50053083603E+01  0.54552421644E+01  0.10500000000E+00 0.  1.
         13    1    6    6    0    0  0.62884226637E+00  0.37014905525E+00 -0.16825614230E+01  0.18369787319E+01  0.10500000000E+00 0. -1.
</event>
<event>
11    0  0.3482988E-009  0.9118800E+02  0.7816531E-02  0.1126479E+00
         25   -1    0    0    0    0  0.00000000000E+00  0.00000000000E+00  0.99999998245E-14  0.12500000000E+03  0.12500000000E+03 0.  0.
    3000001    1    3    3    0    0  0.24539961187E+01  0.13420338289E+02 -0.36997453991E+02  0.39445394896E+02  0.10000000000E+01 0.  1.
    1000022    2    1    0    0    0  0.10244359989E+02  0.24264968845E+02 -0.55789915555E+02  0.62500001796E+02  0.99999961138E+01 0.  0.
    3000022    2    3    3    0    0  0.77903638707E+01  0.10844630556E+02 -0.18792461564E+02  0.23054606900E+02  0.25001306281E+00 0.  0.
    1000022    2    1    0    0    0 -0.10244359989E+02 -0.24264968845E+02  0.55789915555E+02  0.62499998204E+02  0.99999736597E+01 0.  0.
    3000022    2    5    5    0    0 -0.65603717944E+01 -0.19112682635E+02  0.49721500164E+02  0.53671437304E+02  0.24997615984E+00 0.  0.
        -13    1    4    4    0    0  0.45947417665E+01  0.65045431020E+01 -0.11199067090E+02  0.13742301901E+02  0.10500000000E+00 0. -1.
         13    1    4    4    0    0  0.31956221042E+01  0.43400874540E+01 -0.75933944747E+01  0.93123049987E+01  0.10500000000E+00 0.  1.
    3000001    1    5    5    0    0 -0.36839881949E+01 -0.51522862098E+01  0.60684153906E+01  0.88285608998E+01  0.10000000000E+01 0.  1.
        -13    1    6    6    0    0 -0.39999824539E+01 -0.11540948408E+02  0.29918732153E+02  0.32316171005E+02  0.10500000000E+00 0.  1.
         13    1    6    6    0    0 -0.25603893405E+01 -0.75717342268E+01  0.19802768012E+02  0.21355266299E+02  0.10500000000E+00 0. -1.
</event>
<event>
11    0  0.3482988E-009  0.9118800E+02  0.7816531E-02  0.1126479E+00
         25   -1    0    0    0    0  0.00000000000E+00  0.00000000000E+00  0.99999998245E-14  0.12500000000E+03  0.12500000000E+03 0.  0.
    3000001    1    3    3    0    0  0.12638718100E+02 -0.27244714895E+02  0.50352531107E+02  0.58637778554E+02  0.10000000000E+01 0. -1.
    1000022    2    1    0    0    0  0.15522151648E+02 -0.29042535393E+02  0.52171294244E+02  0.62499999145E+02  0.99999948089E+01 0.  0.
    3000022    2    3    3    0    0  0.28834335482E+01 -0.17978204976E+01  0.18187631371E+01  0.38622205903E+01  0.25000194240E+00 0.  0.
    1000022    2    1    0    0    0 -0.15522151648E+02  0.29042535393E+02 -0.52171294244E+02  0.62500000855E+02  0.10000005500E+02 0.  0.
    3000022    2    5    5    0    0 -0.18346341713E+01  0.49295175484E+01 -0.16433109729E+02  0.17256177004E+02  0.25004727061E+00 0.  0.
        -13    1    4    4    0    0  0.71627778478E+00 -0.46916342286E+00  0.48351557028E+00  0.98892896055E+00  0.10500000000E+00 0. -1.
         13    1    4    4    0    0  0.21671557634E+01 -0.13286570747E+01  0.13352475668E+01  0.28732916298E+01  0.10500000000E+00 0.  1.
    3000001    1    5    5    0    0 -0.13687517476E+02  0.24113017844E+02 -0.35738184515E+02  0.45243823851E+02  0.10000000000E+01 0. -1.
        -13    1    6    6    0    0 -0.58709542088E+00  0.16455231060E+01 -0.56207993168E+01  0.58870057997E+01  0.10500000000E+00 0.  1.
         13    1    6    6    0    0 -0.12475387505E+01  0.32839944424E+01 -0.10812310412E+02  0.11369171204E+02  0.10500000000E+00 0. -1.
</event>
<event>
11    0  0.3482988E-009  0.9118800E+02  0.7816531E-02  0.1126479E+00
         25   -1    0    0    0    0  0.00000000000E+00  0.00000000000E+00  0.99999998245E-14  0.12500000000E+03  0.12500000000E+03 0.  0.
    3000001    1    3    3    0    0 -0.85803850163E+01 -0.82725710368E+01 -0.10751110629E+02  0.16082438196E+02  0.10000000000E+01 0. -1.
    1000022    2    1    0    0    0 -0.18891296926E+02 -0.40362880075E+02 -0.42663880762E+02  0.62500002094E+02  0.10000017628E+02 0.  0.
    3000022    2    3    3    0    0 -0.10310911909E+02 -0.32090309038E+02 -0.31912770133E+02  0.46417563898E+02  0.25000405615E+00 0.  0.
    1000022    2    1    0    0    0  0.18891296926E+02  0.40362880075E+02  0.42663880762E+02  0.62499997906E+02  0.99999914548E+01 0.  0.
    3000022    2    5    5    0    0  0.13564450561E+02  0.19062001632E+02  0.25544011299E+02  0.34639763789E+02  0.24999372944E+00 0.  0.
        -13    1    4    4    0    0 -0.73601533210E+01 -0.22798381579E+02 -0.22719048670E+02  0.33016726927E+02  0.10500000000E+00 0.  1.
         13    1    4    4    0    0 -0.29507585882E+01 -0.92919274594E+01 -0.91937214632E+01  0.13400836970E+02  0.10500000000E+00 0. -1.
    3000001    1    5    5    0    0  0.53268463646E+01  0.21300878443E+02  0.17119869464E+02  0.27860234117E+02  0.10000000000E+01 0. -1.
        -13    1    6    6    0    0  0.53058894238E+01  0.75611189911E+01  0.10063616147E+02  0.13660540909E+02  0.10500000000E+00 0.  1.
         13    1    6    6    0    0  0.82585611371E+01  0.11500882641E+02  0.15480395151E+02  0.20979222879E+02  0.10500000000E+00 0. -1.
</event>
<event>
11    0  0.3482988E-009  0.9118800E+02  0.7816531E-02  0.1126479E+00
         25   -1    0    0    0    0  0.00000000000E+00  0.00000000000E+00  0.99999998245E-14  0.12500000000E+03  0.12500000000E+03 0.  0.
    3000001    1    3    3    0    0 -0.11495086022E+02  0.11581059584E+00 -0.46115724834E+02  0.47537464086E+02  0.10000000000E+01 0.  1.
    1000022    2    1    0    0    0 -0.11318570689E+02 -0.39181188280E+01 -0.60520975768E+02  0.62500000642E+02  0.99999937401E+01 0.  0.
    3000022    2    3    3    0    0  0.17651533333E+00 -0.40339294238E+01 -0.14405250934E+02  0.14962536556E+02  0.25000294771E+00 0.  0.
    1000022    2    1    0    0    0  0.11318570689E+02  0.39181188280E+01  0.60520975768E+02  0.62499999358E+02  0.99999857151E+01 0.  0.
    3000022    2    5    5    0    0 -0.17176571392E+01  0.13503894705E+01  0.65820611530E+01  0.69397349612E+01  0.24998908032E+00 0.  0.
        -13    1    4    4    0    0  0.49435873056E-01 -0.10887070726E+01 -0.37673423276E+01  0.39232155446E+01  0.10500000000E+00 0.  1.
         13    1    4    4    0    0  0.12707946027E+00 -0.29452223512E+01 -0.10637908606E+02  0.11039321012E+02  0.10500000000E+00 0. -1.
    3000001    1    5    5    0    0  0.13036227828E+02  0.25677293575E+01  0.53938914615E+02  0.55560264397E+02  0.10000000000E+01 0.  1.
        -13    1    6    6    0    0 -0.52158365464E+00  0.42229285383E+00  0.18895023224E+01  0.20078906318E+01  0.10500000000E+00 0.  1.
         13    1    6    6    0    0 -0.11960734846E+01  0.92809661668E+00  0.46925588306E+01  0.49318443294E+01  0.10500000000E+00 0. -1.
</event>
<event>
11    0  0.3482988E-009  0.9118800E+02  0.7816531E-02  0.1126479E+00
         25   -1    0    0    0    0  0.00000000000E+00  0.00000000000E+00  0.99999998245E-14  0.12500000000E+03  0.12500000000E+03 0.  0.
    3000001    1    3    3    0    0 -0.47165439237E+01  0.10504251989E+01  0.33881496735E+01  0.59857111435E+01  0.10000000000E+01 0. -1.
    1000022    2    1    0    0    0 -0.55412225946E+02 -0.14547744519E+02  0.22893187507E+02  0.62499993191E+02  0.99999729892E+01 0.  0.
    3000022    2    3    3    0    0 -0.50695682022E+02 -0.15598169718E+02  0.19505037833E+02  0.56514282048E+02  0.25000045371E+00 0.  0.
    1000022    2    1    0    0    0  0.55412225946E+02  0.14547744519E+02 -0.22893187507E+02  0.62500006809E+02  0.10000058101E+02 0.  0.
    3000022    2    5    5    0    0  0.25703785521E+02  0.11588020868E+02 -0.12832672909E+02  0.30979135144E+02  0.25000501257E+00 0.  0.
        -13    1    4    4    0    0 -0.23148733068E+02 -0.70526411528E+01  0.88932996951E+01  0.25781881125E+02  0.10500000000E+00 0.  1.
         13    1    4    4    0    0 -0.27546948955E+02 -0.85455285651E+01  0.10611738138E+02  0.30732400923E+02  0.10500000000E+00 0. -1.
    3000001    1    5    5    0    0  0.29708440425E+02  0.29597236511E+01 -0.10060514598E+02  0.31520871665E+02  0.10000000000E+01 0. -1.
        -13    1    6    6    0    0  0.10823332808E+02  0.49503941310E+01 -0.54098261678E+01  0.13073950409E+02  0.10500000000E+00 0.  1.
         13    1    6    6    0    0  0.14880452713E+02  0.66376267369E+01 -0.74228467409E+01  0.17905184735E+02  0.10500000000E+00 0. -1.
</event>
<event>
11    0  0.3482988E-009  0.9118800E+02  0.7816531E-02  0.1126479E+00
         25   -1    0    0    0    0  0.00000000000E+00  0.00000000000E+00  0.99999998245E-14  0.12500000000E+03  0.12500000000E+03 0.  0.
    3000001    1    3    3    0    0 -0.35946601087E+02 -0.10725082576E+02 -0.52309670401E+00  0.37529443856E+02  0.10000000000E+01 0.  1.
    1000022    2    1    0    0    0 -0.60531198655E+02 -0.11302557477E+02  0.38047477968E+01  0.62499999375E+02  0.99999999998E+01 0.  0.
    3000022    2    3    3    0    0 -0.24584597568E+02 -0.57747490127E+00  0.43278445008E+01  0.24970555520E+02  0.24998017787E+00 0.  0.
    1000022    2    1    0    0    0  0.60531198655E+02  0.11302557477E+02 -0.38047477968E+01  0.62500000625E+02  0.10000007809E+02 0.  0.
    3000022    2    5    5    0    0  0.17801059479E+02  0.73581824396E+01  0.11136414023E+01  0.19295678610E+02  0.24989691427E+00 0.  0.
        -13    1    4    4    0    0 -0.13403358486E+02 -0.35192928015E+00  0.24161281534E+01  0.13624337532E+02  0.10500000000E+00 0. -1.
         13    1    4    4    0    0 -0.11181239082E+02 -0.22554562112E+00  0.19117163474E+01  0.11346217988E+02  0.10500000000E+00 0.  1.
    3000001    1    5    5    0    0  0.42730139176E+02  0.39443750379E+01 -0.49183891991E+01  0.43204322014E+02  0.10000000000E+01 0.  1.
        -13    1    6    6    0    0  0.50942267282E+01  0.20727391013E+01  0.34607748680E+00  0.55116411319E+01  0.10500000000E+00 0. -1.
         13    1    6    6    0    0  0.12706832751E+02  0.52854433383E+01  0.76756391549E+00  0.13784037479E+02  0.10500000000E+00 0.  1.
</event>
<event>
11    0  0.3482988E-009  0.9118800E+02  0.7816531E-02  0.1126479E+00
         25   -1    0    0    0    0  0.00000000000E+00  0.00000000000E+00  0.99999998245E-14  0.12500000000E+03  0.12500000000E+03 0.  0.
    3000001    1    3    3    0    0  0.20076146067E+02  0.18746582572E+02 -0.10792220989E+02  0.29528935520E+02  0.10000000000E+01 0. -1.
    1000022    2    1    0    0    0  0.34220132757E+02  0.46057969188E+02 -0.22669273902E+02  0.62499999839E+02  0.99999994477E+01 0.  0.
    3000022    2    3    3    0    0  0.14143986689E+02  0.27311386617E+02 -0.11877052913E+02  0.32971064319E+02  0.24999610899E+00 0.  0.
    1000022    2    1    0    0    0 -0.34220132757E+02 -0.46057969188E+02  0.22669273902E+02  0.62500000161E+02  0.10000001465E+02 0.  0.
    3000022    2    5    5    0    0 -0.18522538486E+02 -0.30937533578E+02  0.10696190768E+02  0.37612317291E+02  0.24999836370E+00 0.  0.
        -13    1    4    4    0    0  0.96445994667E+01  0.18726482481E+02 -0.81496304744E+01  0.22585990057E+02  0.10500000000E+00 0. -1.
         13    1    4    4    0    0  0.44993872227E+01  0.85849041351E+01 -0.37274224382E+01  0.10385074262E+02  0.10500000000E+00 0.  1.
    3000001    1    5    5    0    0 -0.15697594271E+02 -0.15120435610E+02  0.11973083133E+02  0.24887682871E+02  0.10000000000E+01 0.  1.
        -13    1    6    6    0    0 -0.80215213906E+01 -0.13523160154E+02  0.46793331026E+01  0.16405116557E+02  0.10500000000E+00 0.  1.
         13    1    6    6    0    0 -0.10501017095E+02 -0.17414373424E+02  0.60168576658E+01  0.21207200734E+02  0.10500000000E+00 0. -1.
</event>
<event>
11    0  0.3482988E-009  0.9118800E+02  0.7816531E-02  0.1126479E+00
         25   -1    0    0    0    0  0.00000000000E+00  0.00000000000E+00  0.99999998245E-14  0.12500000000E+03  0.12500000000E+03 0.  0.
    3000001    1    3    3    0    0  0.22165341943E+01  0.28629590883E+01  0.91169428994E+01  0.98604364207E+01  0.10000000000E+01 0.  1.
    1000022    2    1    0    0    0  0.22794099549E+01  0.35620632878E+02  0.50321215319E+02  0.62500000633E+02  0.10000008580E+02 0.  0.
    3000022    2    3    3    0    0  0.62875760646E-01  0.32757673789E+02  0.41204272419E+02  0.52639564212E+02  0.25001877829E+00 0.  0.
    1000022    2    1    0    0    0 -0.22794099549E+01 -0.35620632878E+02 -0.50321215319E+02  0.62499999367E+02  0.10000000668E+02 0.  0.
    3000022    2    5    5    0    0 -0.23608886500E+01 -0.35574207447E+02 -0.50066297462E+02  0.61463767148E+02  0.24999954072E+00 0.  0.
        -13    1    4    4    0    0  0.10044518406E+00  0.19859121422E+02  0.24974122864E+02  0.31907877252E+02  0.10500000000E+00 0.  1.
         13    1    4    4    0    0 -0.37569423418E-01  0.12898552368E+02  0.16230149555E+02  0.20731686961E+02  0.10500000000E+00 0. -1.
    3000001    1    5    5    0    0  0.81478695064E-01 -0.46425431285E-01 -0.25491785674E+00  0.10362322192E+01  0.10000000000E+01 0. -1.
        -13    1    6    6    0    0 -0.66694746902E+00 -0.97937518282E+01 -0.13844299420E+02  0.16971683630E+02  0.10500000000E+00 0.  1.
         13    1    6    6    0    0 -0.16939411809E+01 -0.25780455618E+02 -0.36221998042E+02  0.44492083518E+02  0.10500000000E+00 0. -1.
</event>
<event>
11    0  0.3482988E-009  0.9118800E+02  0.7816531E-02  0.1126479E+00
         25   -1    0    0    0    0  0.00000000000E+00  0.00000000000E+00  0.99999998245E-14  0.12500000000E+03  0.12500000000E+03 0.  0.
    3000001    1    3    3    0    0  0.39574829593E+01 -0.19276984587E+02  0.21952206367E+02  0.29498528277E+02  0.10000000000E+01 0.  1.
    1000022    2    1    0    0    0 -0.19034221569E+01 -0.39274138294E+02  0.47541234331E+02  0.62500001123E+02  0.10000011201E+02 0.  0.
    3000022    2    3    3    0    0 -0.58609051162E+01 -0.19997153706E+02  0.25589027964E+02  0.33001472845E+02  0.24998537878E+00 0.  0.
    1000022    2    1    0    0    0  0.19034221569E+01  0.39274138294E+02 -0.47541234331E+02  0.62499998877E+02  0.99999971698E+01 0.  0.
    3000022    2    5    5    0    0 -0.22622561542E+01  0.30920178862E+02 -0.38865157455E+02  0.49716578993E+02  0.24999812103E+00 0.  0.
        -13    1    4    4    0    0 -0.20310415870E+01 -0.69644815165E+01  0.89966647079E+01  0.11557687208E+02  0.10500000000E+00 0.  1.
         13    1    4    4    0    0 -0.38298635292E+01 -0.13032672190E+02  0.16592363256E+02  0.21443785638E+02  0.10500000000E+00 0. -1.
    3000001    1    5    5    0    0  0.41656783110E+01  0.83539594320E+01 -0.86760768756E+01  0.12783419884E+02  0.10000000000E+01 0.  1.
        -13    1    6    6    0    0 -0.14891019634E+01  0.20225117695E+02 -0.25510696276E+02  0.32589560597E+02  0.10500000000E+00 0. -1.
         13    1    6    6    0    0 -0.77315419078E+00  0.10695061166E+02 -0.13354461179E+02  0.17127018396E+02  0.10500000000E+00 0.  1.
</event>
<event>
11    0  0.3482988E-009  0.9118800E+02  0.7816531E-02  0.1126479E+00
         25   -1    0    0    0    0  0.00000000000E+00  0.00000000000E+00  0.99999998245E-14  0.12500000000E+03  0.12500000000E+03 0.  0.
    3000001    1    3    3    0    0 -0.90263792966E+01  0.47604767705E+02 -0.32488594721E+02  0.58345507268E+02  0.10000000000E+01 0. -1.
    1000022    2    1    0    0    0 -0.11422831721E+02  0.49147112485E+02 -0.35501141760E+02  0.62499992965E+02  0.99999152105E+01 0.  0.
    3000022    2    3    3    0    0 -0.23964524248E+01  0.15423447800E+01 -0.30125470395E+01  0.41544856970E+01  0.25000019327E+00 0.  0.
    1000022    2    1    0    0    0  0.11422831721E+02 -0.49147112485E+02  0.35501141760E+02  0.62500007035E+02  0.10000003144E+02 0.  0.
    3000022    2    5    5    0    0  0.11510777101E+02 -0.39145515352E+02  0.24481056668E+02  0.47584178025E+02  0.25000221886E+00 0.  0.
        -13    1    4    4    0    0 -0.17348907649E+01  0.10752754386E+01 -0.21847202860E+01  0.29916702631E+01  0.10500000000E+00 0.  1.
         13    1    4    4    0    0 -0.66156165992E+00  0.46706934138E+00 -0.82782675341E+00  0.11628154338E+01  0.10500000000E+00 0. -1.
    3000001    1    5    5    0    0 -0.87945379620E-01 -0.10001597134E+02  0.11020085092E+02  0.14915829010E+02  0.10000000000E+01 0.  1.
        -13    1    6    6    0    0  0.63801374110E+01 -0.21929259358E+02  0.13691087000E+02  0.26628095268E+02  0.10500000000E+00 0. -1.
         13    1    6    6    0    0  0.51306396900E+01 -0.17216255994E+02  0.10789969668E+02  0.20956082757E+02  0.10500000000E+00 0.  1.
</event>
<event>
11    0  0.3482988E-009  0.9118800E+02  0.7816531E-02  0.1126479E+00
         25   -1    0    0    0    0  0.00000000000E+00  0.00000000000E+00  0.99999998245E-14  0.12500000000E+03  0.12500000000E+03 0.  0.
    3000001    1    3    3    0    0  0.92020628684E+00  0.20334556603E+02  0.41636387541E+02  0.46356550123E+02  0.10000000000E+01 0. -1.
    1000022    2    1    0    0    0 -0.39549784552E+01  0.24729877298E+02  0.56382987399E+02  0.62500000159E+02  0.10000003301E+02 0.  0.
    3000022    2    3    3    0    0 -0.48751847421E+01  0.43953206955E+01  0.14746599859E+02  0.16143450036E+02  0.25000279093E+00 0.  0.
    1000022    2    1    0    0    0  0.39549784552E+01 -0.24729877298E+02 -0.56382987399E+02  0.62499999841E+02  0.10000001317E+02 0.  0.
    3000022    2    5    5    0    0  0.67889290393E+01 -0.11135528830E+02 -0.27238754008E+02  0.30201022673E+02  0.24998146597E+00 0.  0.
        -13    1    4    4    0    0 -0.21585023493E+01  0.20009686672E+01  0.67421696786E+01  0.73573694331E+01  0.10500000000E+00 0. -1.
         13    1    4    4    0    0 -0.27166823927E+01  0.23943520283E+01  0.80044301799E+01  0.87860806031E+01  0.10500000000E+00 0. -1.
    3000001    1    5    5    0    0 -0.28339505841E+01 -0.13594348468E+02 -0.29144233391E+02  0.32298977168E+02  0.10000000000E+01 0. -1.
        -13    1    6    6    0    0  0.37844704756E+01 -0.62601384328E+01 -0.15416677101E+02  0.17064480883E+02  0.10500000000E+00 0.  1.
         13    1    6    6    0    0  0.30044585637E+01 -0.48753903974E+01 -0.11822076908E+02  0.13136541790E+02  0.10500000000E+00 0. -1.
</event>
<event>
11    0  0.3482988E-009  0.9118800E+02  0.7816531E-02  0.1126479E+00
         25   -1    0    0    0    0  0.00000000000E+00  0.00000000000E+00  0.99999998245E-14  0.12500000000E+03  0.12500000000E+03 0.  0.
    3000001    1    3    3    0    0  0.52349831864E+00  0.20056706928E+01  0.17647487036E+01  0.29001902359E+01  0.10000000000E+01 0.  1.
    1000022    2    1    0    0    0  0.35132067141E+02  0.50291981186E+02  0.65348566811E+01  0.62499999473E+02  0.10000003453E+02 0.  0.
    3000022    2    3    3    0    0  0.34608568823E+02  0.48286310493E+02  0.47701079775E+01  0.59599809237E+02  0.25002797607E+00 0.  0.
    1000022    2    1    0    0    0 -0.35132067141E+02 -0.50291981186E+02 -0.65348566811E+01  0.62500000527E+02  0.10000010042E+02 0.  0.
    3000022    2    5    5    0    0 -0.18336600660E+02 -0.18109994758E+02 -0.41671216695E+01  0.26108049304E+02  0.25000306208E+00 0.  0.
        -13    1    4    4    0    0  0.14517736843E+02  0.20211037390E+02  0.19385255160E+01  0.24960361007E+02  0.10500000000E+00 0. -1.
         13    1    4    4    0    0  0.20090831980E+02  0.28075273103E+02  0.28315824615E+01  0.34639448230E+02  0.10500000000E+00 0.  1.
    3000001    1    5    5    0    0 -0.16795466481E+02 -0.32181986428E+02 -0.23677350116E+01  0.36391951223E+02  0.10000000000E+01 0.  1.
        -13    1    6    6    0    0 -0.59901911795E+01 -0.59018140321E+01 -0.13079963494E+01  0.85109152673E+01  0.10500000000E+00 0. -1.
         13    1    6    6    0    0 -0.12346409481E+02 -0.12208180726E+02 -0.28591253201E+01  0.17597134036E+02  0.10500000000E+00 0.  1.
</event>
<event>
11    0  0.3482988E-009  0.9118800E+02  0.7816531E-02  0.1126479E+00
         25   -1    0    0    0    0  0.00000000000E+00  0.00000000000E+00  0.99999998245E-14  0.12500000000E+03  0.12500000000E+03 0.  0.
    3000001    1    3    3    0    0  0.36114364772E+02 -0.12909465856E+02 -0.69407036974E+01  0.38988139470E+02  0.10000000000E+01 0.  1.
    1000022    2    1    0    0    0  0.58893757633E+02 -0.17935611547E+02 -0.40111501337E+01  0.62500001554E+02  0.10000000956E+02 0.  0.
    3000022    2    3    3    0    0  0.22779392861E+02 -0.50261456915E+01  0.29295535637E+01  0.23511862083E+02  0.24998980793E+00 0.  0.
    1000022    2    1    0    0    0 -0.58893757633E+02  0.17935611547E+02  0.40111501337E+01  0.62499998446E+02  0.99999815326E+01 0.  0.
    3000022    2    5    5    0    0 -0.22539375919E+00 -0.71519416949E+00 -0.80164278338E-01  0.79450171252E+00  0.25000322580E+00 0.  0.
        -13    1    4    4    0    0  0.12925829221E+02 -0.28879026841E+01  0.17192448169E+01  0.13356042479E+02  0.10500000000E+00 0.  1.
         13    1    4    4    0    0  0.98535636401E+01 -0.21382430074E+01  0.12103087469E+01  0.10155819604E+02  0.10500000000E+00 0. -1.
    3000001    1    5    5    0    0 -0.58668363874E+02  0.18650805717E+02  0.40913144120E+01  0.61705496734E+02  0.10000000000E+01 0.  1.
        -13    1    6    6    0    0 -0.84247325157E-01 -0.16620755963E+00 -0.16786828089E-01  0.21454454612E+00  0.10500000000E+00 0. -1.
         13    1    6    6    0    0 -0.14114643403E+00 -0.54898660986E+00 -0.63377450250E-01  0.57995716639E+00  0.10500000000E+00 0.  1.
</event>
<event>
11    0  0.3482988E-009  0.9118800E+02  0.7816531E-02  0.1126479E+00
         25   -1    0    0    0    0  0.00000000000E+00  0.00000000000E+00  0.99999998245E-14  0.12500000000E+03  0.12500000000E+03 0.  0.
    3000001    1    3    3    0    0  0.78575535166E+01 -0.22090406379E+01  0.70208003341E+01  0.10812615092E+02  0.10000000000E+01 0. -1.
    1000022    2    1    0    0    0  0.53516374562E+02 -0.20711919724E+02  0.22655334380E+02  0.62499998731E+02  0.99999850325E+01 0.  0.
    3000022    2    3    3    0    0  0.45658821045E+02 -0.18502879086E+02  0.15634534046E+02  0.51687383639E+02  0.24999776644E+00 0.  0.
    1000022    2    1    0    0    0 -0.53516374562E+02  0.20711919724E+02 -0.22655334380E+02  0.62500001269E+02  0.10000000892E+02 0.  0.
    3000022    2    5    5    0    0 -0.82950007095E+01  0.60771138605E+01 -0.12476402291E+01  0.10361344165E+02  0.24999423444E+00 0.  0.
        -13    1    4    4    0    0  0.27644543506E+02 -0.11184408592E+02  0.95269487438E+01  0.31306318189E+02  0.10500000000E+00 0.  1.
         13    1    4    4    0    0  0.18014277540E+02 -0.73184704940E+01  0.61075853019E+01  0.20381065450E+02  0.10500000000E+00 0. -1.
    3000001    1    5    5    0    0 -0.45221373852E+02  0.14634805863E+02 -0.21407694151E+02  0.52138657104E+02  0.10000000000E+01 0.  1.
        -13    1    6    6    0    0 -0.32520286287E+01  0.23087777113E+01 -0.50063787222E+00  0.40209212876E+01  0.10500000000E+00 0. -1.
         13    1    6    6    0    0 -0.50429720808E+01  0.37683361492E+01 -0.74700235691E+00  0.63404228772E+01  0.10500000000E+00 0.  1.
</event>
<event>
11    0  0.3482988E-009  0.9118800E+02  0.7816531E-02  0.1126479E+00
         25   -1    0    0    0    0  0.00000000000E+00  0.00000000000E+00  0.99999998245E-14  0.12500000000E+03  0.12500000000E+03 0.  0.
    3000001    1    3    3    0    0  0.59737686254E+00 -0.16853364938E+01  0.14933631615E+01  0.25352222280E+01  0.10000000000E+01 0. -1.
    1000022    2    1    0    0    0  0.10053608351E+02 -0.60868789764E+02 -0.40682778833E+00  0.62500000894E+02  0.99999997345E+01 0.  0.
    3000022    2    3    3    0    0  0.94562314884E+01 -0.59183453271E+02 -0.19001909498E+01  0.59964778666E+02  0.24999973376E+00 0.  0.
    1000022    2    1    0    0    0 -0.10053608351E+02  0.60868789764E+02  0.40682778833E+00  0.62499999106E+02  0.99999885550E+01 0.  0.
    3000022    2    5    5    0    0 -0.11802835329E+01  0.11390390916E+02  0.39031420252E+01  0.12100871542E+02  0.24999994115E+00 0.  0.
        -13    1    4    4    0    0  0.25862092376E+01 -0.16427614176E+02 -0.51985604800E+00  0.16638397190E+02  0.10500000000E+00 0.  1.
         13    1    4    4    0    0  0.68700222508E+01 -0.42755839094E+02 -0.13803349018E+01  0.43326381476E+02  0.10500000000E+00 0. -1.
    3000001    1    5    5    0    0 -0.88733248180E+01  0.49478398849E+02 -0.34963142369E+01  0.50399127564E+02  0.10000000000E+01 0.  1.
        -13    1    6    6    0    0 -0.77234581857E+00  0.68434686636E+01  0.23491325461E+01  0.72772955232E+01  0.10500000000E+00 0. -1.
         13    1    6    6    0    0 -0.40793771436E+00  0.45469222520E+01  0.15540094792E+01  0.48235760184E+01  0.10500000000E+00 0.  1.
</event>
<event>
11    0  0.3482988E-009  0.9118800E+02  0.7816531E-02  0.1126479E+00
         25   -1    0    0    0    0  0.00000000000E+00  0.00000000000E+00  0.99999998245E-14  0.12500000000E+03  0.12500000000E+03 0.  0.
    3000001    1    3    3    0    0  0.23008883709E+02  0.66162236408E+01 -0.74184290323E+01  0.25084182947E+02  0.10000000000E+01 0. -1.
    1000022    2    1    0    0    0  0.54298069785E+02  0.93905922163E+01 -0.27745029088E+02  0.62500001159E+02  0.99999950592E+01 0.  0.
    3000022    2    3    3    0    0  0.31289186076E+02  0.27743685755E+01 -0.20326600056E+02  0.37415818212E+02  0.24999269171E+00 0.  0.
    1000022    2    1    0    0    0 -0.54298069785E+02 -0.93905922163E+01  0.27745029088E+02  0.62499998841E+02  0.99999805761E+01 0.  0.
    3000022    2    5    5    0    0 -0.28799863599E+02 -0.87940488061E+01  0.11448178947E+02  0.32216311694E+02  0.25000042274E+00 0.  0.
        -13    1    4    4    0    0  0.16008027391E+02  0.14050022559E+01 -0.10477433405E+02  0.19183811093E+02  0.10500000000E+00 0. -1.
         13    1    4    4    0    0  0.15281158685E+02  0.13693663196E+01 -0.98491666502E+01  0.18232007119E+02  0.10500000000E+00 0.  1.
    3000001    1    5    5    0    0 -0.25498206186E+02 -0.59654341024E+00  0.16296850141E+02  0.30283687147E+02  0.10000000000E+01 0. -1.
        -13    1    6    6    0    0 -0.74993221533E+01 -0.23163978270E+01  0.29633549339E+01  0.83903533368E+01  0.10500000000E+00 0.  1.
         13    1    6    6    0    0 -0.21300541446E+02 -0.64776509790E+01  0.84848240131E+01  0.23825958357E+02  0.10500000000E+00 0. -1.
</event>
<event>
11    0  0.3482988E-009  0.9118800E+02  0.7816531E-02  0.1126479E+00
         25   -1    0    0    0    0  0.00000000000E+00  0.00000000000E+00  0.99999998245E-14  0.12500000000E+03  0.12500000000E+03 0.  0.
    3000001    1    3    3    0    0  0.35263914071E+02 -0.33325388760E+02  0.32938446854E+02  0.58652079697E+02  0.10000000000E+01 0.  1.
    1000022    2    1    0    0    0  0.35392036880E+02 -0.36732986008E+02  0.34703624754E+02  0.62499999872E+02  0.99999938654E+01 0.  0.
    3000022    2    3    3    0    0  0.12812280968E+00 -0.34075972481E+01  0.17651778993E+01  0.38479201749E+01  0.25000439219E+00 0.  0.
    1000022    2    1    0    0    0 -0.35392036880E+02  0.36732986008E+02 -0.34703624754E+02  0.62500000128E+02  0.99999954714E+01 0.  0.
    3000022    2    5    5    0    0 -0.11444203420E+02  0.62423741303E+01 -0.10897325840E+02  0.16992681946E+02  0.25000517780E+00 0.  0.
        -13    1    4    4    0    0  0.65396240406E-01 -0.13817393711E+01  0.78688882385E+00  0.15948979212E+01  0.10500000000E+00 0.  1.
         13    1    4    4    0    0  0.62726569269E-01 -0.20258578770E+01  0.97828907550E+00  0.22530222537E+01  0.10500000000E+00 0. -1.
    3000001    1    5    5    0    0 -0.23947833461E+02  0.30490611878E+02 -0.23806298914E+02  0.45507318182E+02  0.10000000000E+01 0.  1.
        -13    1    6    6    0    0 -0.45409734699E+01  0.25464570070E+01 -0.43319474934E+01  0.67736015109E+01  0.10500000000E+00 0.  1.
         13    1    6    6    0    0 -0.69032299496E+01  0.36959171232E+01 -0.65653783462E+01  0.10219080436E+02  0.10500000000E+00 0. -1.
</event>
<event>
11    0  0.3482988E-009  0.9118800E+02  0.7816531E-02  0.1126479E+00
         25   -1    0    0    0    0  0.00000000000E+00  0.00000000000E+00  0.99999998245E-14  0.12500000000E+03  0.12500000000E+03 0.  0.
    3000001    1    3    3    0    0 -0.26239312163E+01 -0.98061574679E+01  0.29283446709E+02  0.31009127535E+02  0.10000000000E+01 0.  1.
    1000022    2    1    0    0    0 -0.26539294205E+01 -0.10310275191E+02  0.60769276560E+02  0.62499999426E+02  0.99999919357E+01 0.  0.
    3000022    2    3    3    0    0 -0.29998204198E-01 -0.50411772314E+00  0.31485829850E+02  0.31490871890E+02  0.24999295366E+00 0.  0.
    1000022    2    1    0    0    0  0.26539294205E+01  0.10310275191E+02 -0.60769276560E+02  0.62500000574E+02  0.99999991162E+01 0.  0.
    3000022    2    5    5    0    0 -0.20656148750E+01  0.12150145770E+01 -0.29092396996E+02  0.29192005094E+02  0.25014641961E+00 0.  0.
        -13    1    4    4    0    0 -0.49561369699E-01 -0.21486075985E+00  0.17051913262E+02  0.17053662139E+02  0.10500000000E+00 0. -1.
         13    1    4    4    0    0  0.19563165501E-01 -0.28925696329E+00  0.14433916589E+02  0.14437209751E+02  0.10500000000E+00 0.  1.
    3000001    1    5    5    0    0  0.47195442954E+01  0.90952606140E+01 -0.31676879564E+02  0.33307995480E+02  0.10000000000E+01 0. -1.
        -13    1    6    6    0    0 -0.12045463074E+01  0.75047529828E+00 -0.17833910743E+02  0.17890599273E+02  0.10500000000E+00 0. -1.
         13    1    6    6    0    0 -0.86106856755E+00  0.46453927870E+00 -0.11258486253E+02  0.11301405821E+02  0.10500000000E+00 0.  1.
</event>
<event>
11    0  0.3482988E-009  0.9118800E+02  0.7816531E-02  0.1126479E+00
         25   -1    0    0    0    0  0.00000000000E+00  0.00000000000E+00  0.99999998245E-14  0.12500000000E+03  0.12500000000E+03 0.  0.
    3000001    1    3    3    0    0 -0.13113873885E+02  0.30330474546E+01  0.48443867079E+02  0.50288978143E+02  0.10000000000E+01 0. -1.
    1000022    2    1    0    0    0 -0.20445283574E+02  0.21737429449E+01  0.58167991225E+02  0.62500000306E+02  0.10000002814E+02 0.  0.
    3000022    2    3    3    0    0 -0.73314096895E+01 -0.85930450973E+00  0.97241241461E+01  0.12211022163E+02  0.24999915477E+00 0.  0.
    1000022    2    1    0    0    0  0.20445283574E+02 -0.21737429449E+01 -0.58167991225E+02  0.62499999694E+02  0.99999989849E+01 0.  0.
    3000022    2    5    5    0    0  0.56333275711E+01  0.29971186145E+01 -0.24883124740E+02  0.25689482354E+02  0.25001450336E+00 0.  0.
        -13    1    4    4    0    0 -0.34021766759E+01 -0.36408450983E+00  0.46030267717E+01  0.57363964408E+01  0.10500000000E+00 0. -1.
         13    1    4    4    0    0 -0.39292330137E+01 -0.49521999990E+00  0.51210973743E+01  0.64746257221E+01  0.10500000000E+00 0.  1.
    3000001    1    5    5    0    0  0.14811956003E+02 -0.51708615594E+01 -0.33284866485E+02  0.36810517340E+02  0.10000000000E+01 0. -1.
        -13    1    6    6    0    0  0.14743569279E+01  0.81530404297E+00 -0.64994325188E+01  0.67150649364E+01  0.10500000000E+00 0. -1.
         13    1    6    6    0    0  0.41589706433E+01  0.21818145715E+01 -0.18383692221E+02  0.18974417417E+02  0.10500000000E+00 0.  1.
</event>
<event>
11    0  0.3482988E-009  0.9118800E+02  0.7816531E-02  0.1126479E+00
         25   -1    0    0    0    0  0.00000000000E+00  0.00000000000E+00  0.99999998245E-14  0.12500000000E+03  0.12500000000E+03 0.  0.
    3000001    1    3    3    0    0  0.33748798976E+02  0.28347511088E+02 -0.21401906304E+02  0.49006167068E+02  0.10000000000E+01 0.  1.
    1000022    2    1    0    0    0  0.46003509485E+02  0.33304408942E+02 -0.24098619964E+02  0.62500000358E+02  0.10000001037E+02 0.  0.
    3000022    2    3    3    0    0  0.12254710508E+02  0.49568978538E+01 -0.26967136599E+01  0.13493833290E+02  0.25001265853E+00 0.  0.
    1000022    2    1    0    0    0 -0.46003509485E+02 -0.33304408942E+02  0.24098619964E+02  0.62499999642E+02  0.99999965608E+01 0.  0.
    3000022    2    5    5    0    0 -0.33486657362E+02 -0.29113350491E+02  0.17389464848E+02  0.47659200460E+02  0.25000532229E+00 0.  0.
        -13    1    4    4    0    0  0.80481132057E+01  0.32802530232E+01 -0.17215394442E+01  0.88604124693E+01  0.10500000000E+00 0.  1.
         13    1    4    4    0    0  0.42065973026E+01  0.16766448306E+01 -0.97517421571E+00  0.46334208210E+01  0.10500000000E+00 0. -1.
    3000001    1    5    5    0    0 -0.12516852123E+02 -0.41910584505E+01  0.67091551161E+01  0.14840799182E+02  0.10000000000E+01 0. -1.
        -13    1    6    6    0    0 -0.19453392867E+02 -0.16964744065E+02  0.10170627305E+02  0.27743282430E+02  0.10500000000E+00 0.  1.
         13    1    6    6    0    0 -0.14033264495E+02 -0.12148606426E+02  0.72188375433E+01  0.19915918029E+02  0.10500000000E+00 0. -1.
</event>
<event>
11    0  0.3482988E-009  0.9118800E+02  0.7816531E-02  0.1126479E+00
         25   -1    0    0    0    0  0.00000000000E+00  0.00000000000E+00  0.99999998245E-14  0.12500000000E+03  0.12500000000E+03 0.  0.
    3000001    1    3    3    0    0  0.60914867043E+01  0.53902660911E+01 -0.18068701585E+01  0.83920175507E+01  0.10000000000E+01 0. -1.
    1000022    2    1    0    0    0  0.32344513355E+02  0.39955223036E+02 -0.34112496279E+02  0.62499998794E+02  0.10000002743E+02 0.  0.
    3000022    2    3    3    0    0  0.26253026650E+02  0.34564956945E+02 -0.32305626121E+02  0.54107981244E+02  0.24999656108E+00 0.  0.
    1000022    2    1    0    0    0 -0.32344513355E+02 -0.39955223036E+02  0.34112496279E+02  0.62500001206E+02  0.10000017814E+02 0.  0.
    3000022    2    5    5    0    0  0.29306478500E+00 -0.11468866152E+01 -0.25288879331E+00  0.12359973063E+01  0.25000144642E+00 0.  0.
        -13    1    4    4    0    0  0.86781154679E+01  0.11512466731E+02 -0.10719080995E+02  0.17965419580E+02  0.10500000000E+00 0. -1.
         13    1    4    4    0    0  0.17574911183E+02  0.23052490214E+02 -0.21586545126E+02  0.36142561664E+02  0.10500000000E+00 0.  1.
    3000001    1    5    5    0    0 -0.32637578140E+02 -0.38808336421E+02  0.34365385073E+02  0.61264003899E+02  0.10000000000E+01 0.  1.
        -13    1    6    6    0    0  0.10423326251E+00 -0.41832719646E+00 -0.33213737012E-01  0.44496108666E+00  0.10500000000E+00 0.  1.
         13    1    6    6    0    0  0.18883152248E+00 -0.72855941870E+00 -0.21967505630E+00  0.79103621967E+00  0.10500000000E+00 0. -1.
</event>
<event>
11    0  0.3482988E-009  0.9118800E+02  0.7816531E-02  0.1126479E+00
         25   -1    0    0    0    0  0.00000000000E+00  0.00000000000E+00  0.99999998245E-14  0.12500000000E+03  0.12500000000E+03 0.  0.
    3000001    1    3    3    0    0 -0.37704999878E+02 -0.31321953353E+02  0.22650325641E+01  0.49080160454E+02  0.10000000000E+01 0. -1.
    1000022    2    1    0    0    0 -0.47036550070E+02 -0.39861336090E+02 -0.22105418979E+01  0.62500002310E+02  0.10000031793E+02 0.  0.
    3000022    2    3    3    0    0 -0.93315501921E+01 -0.85393827369E+01 -0.44755744620E+01  0.13419841856E+02  0.25000431565E+00 0.  0.
    1000022    2    1    0    0    0  0.47036550070E+02  0.39861336090E+02  0.22105418979E+01  0.62499997690E+02  0.10000002922E+02 0.  0.
    3000022    2    5    5    0    0  0.45955008318E+02  0.36284253936E+02  0.15371508487E+01  0.58573331827E+02  0.24999069620E+00 0.  0.
        -13    1    4    4    0    0 -0.25575415175E+01 -0.22921575930E+01 -0.12244021065E+01  0.36476280736E+01  0.10500000000E+00 0. -1.
         13    1    4    4    0    0 -0.67740086746E+01 -0.62472251438E+01 -0.32511723555E+01  0.97722137822E+01  0.10500000000E+00 0.  1.
    3000001    1    5    5    0    0  0.10815417518E+01  0.35770821545E+01  0.67339104916E+00  0.39266658638E+01  0.10000000000E+01 0. -1.
        -13    1    6    6    0    0  0.30801265794E+02  0.24263314211E+02  0.10000470617E+01  0.39222920725E+02  0.10500000000E+00 0.  1.
         13    1    6    6    0    0  0.15153742523E+02  0.12020939725E+02  0.53710378698E+00  0.19350411102E+02  0.10500000000E+00 0. -1.
</event>
<event>
11    0  0.3482988E-009  0.9118800E+02  0.7816531E-02  0.1126479E+00
         25   -1    0    0    0    0  0.00000000000E+00  0.00000000000E+00  0.99999998245E-14  0.12500000000E+03  0.12500000000E+03 0.  0.
    3000001    1    3    3    0    0 -0.10962283171E+02  0.24020341216E+02  0.32727724293E+02  0.42062481880E+02  0.10000000000E+01 0.  1.
    1000022    2    1    0    0    0 -0.16631618392E+02  0.40388575213E+02  0.43570658449E+02  0.62500000466E+02  0.10000002122E+02 0.  0.
    3000022    2    3    3    0    0 -0.56693352217E+01  0.16368233997E+02  0.10842934156E+02  0.20437518586E+02  0.24999763891E+00 0.  0.
    1000022    2    1    0    0    0  0.16631618392E+02 -0.40388575213E+02 -0.43570658449E+02  0.62499999534E+02  0.99999962975E+01 0.  0.
    3000022    2    5    5    0    0 -0.12670702050E+01 -0.14608482259E+01 -0.20193201797E+01  0.28070795695E+01  0.24999455569E+00 0.  0.
        -13    1    4    4    0    0 -0.43475714118E+01  0.12580724539E+02  0.83275917872E+01  0.15701459075E+02  0.10500000000E+00 0.  1.
         13    1    4    4    0    0 -0.13217638099E+01  0.37875094584E+01  0.25153423685E+01  0.47360595115E+01  0.10500000000E+00 0. -1.
    3000001    1    5    5    0    0  0.17898688597E+02 -0.38927726987E+02 -0.41551338269E+02  0.59692919964E+02  0.10000000000E+01 0.  1.
        -13    1    6    6    0    0 -0.66475530234E+00 -0.77951594197E+00 -0.97249597997E+00  0.14164456032E+01  0.10500000000E+00 0. -1.
         13    1    6    6    0    0 -0.60231490262E+00 -0.68133228398E+00 -0.10468241998E+01  0.13906339663E+01  0.10500000000E+00 0.  1.
</event>
<event>
11    0  0.3482988E-009  0.9118800E+02  0.7816531E-02  0.1126479E+00
         25   -1    0    0    0    0  0.00000000000E+00  0.00000000000E+00  0.99999998245E-14  0.12500000000E+03  0.12500000000E+03 0.  0.
    3000001    1    3    3    0    0 -0.12668844123E+02 -0.12693679373E+02  0.25553918968E+02  0.31235106564E+02  0.10000000000E+01 0. -1.
    1000022    2    1    0    0    0 -0.33231741043E+02 -0.25746588089E+02  0.45155448636E+02  0.62500001002E+02  0.10000008633E+02 0.  0.
    3000022    2    3    3    0    0 -0.20562896921E+02 -0.13052908717E+02  0.19601529668E+02  0.31264894438E+02  0.25000629526E+00 0.  0.
    1000022    2    1    0    0    0  0.33231741043E+02  0.25746588089E+02 -0.45155448636E+02  0.62499998998E+02  0.99999961094E+01 0.  0.
    3000022    2    5    5    0    0  0.14535384190E+02  0.14220121600E+02 -0.15431745776E+02  0.25528230024E+02  0.24999720582E+00 0.  0.
        -13    1    4    4    0    0 -0.10640767952E+02 -0.67190647804E+01  0.10050016333E+02  0.16105453344E+02  0.10500000000E+00 0. -1.
         13    1    4    4    0    0 -0.99221289690E+01 -0.63338439363E+01  0.95515133356E+01  0.15159441094E+02  0.10500000000E+00 0.  1.
    3000001    1    5    5    0    0  0.18696356853E+02  0.11526466489E+02 -0.29723702860E+02  0.36971768974E+02  0.10000000000E+01 0.  1.
        -13    1    6    6    0    0  0.97631608950E+01  0.95059924971E+01 -0.10288409123E+02  0.17074706185E+02  0.10500000000E+00 0. -1.
         13    1    6    6    0    0  0.47722232950E+01  0.47141291033E+01 -0.51433366534E+01  0.84535238398E+01  0.10500000000E+00 0.  1.
</event>
<event>
11    0  0.3482988E-009  0.9118800E+02  0.7816531E-02  0.1126479E+00
         25   -1    0    0    0    0  0.00000000000E+00  0.00000000000E+00  0.99999998245E-14  0.12500000000E+03  0.12500000000E+03 0.  0.
    3000001    1    3    3    0    0  0.42913673319E+02  0.20486345667E+02  0.33194085628E+02  0.58001043415E+02  0.10000000000E+01 0. -1.
    1000022    2    1    0    0    0  0.46700562416E+02  0.22902396241E+02  0.33178113474E+02  0.62499996957E+02  0.10000006116E+02 0.  0.
    3000022    2    3    3    0    0  0.37868890970E+01  0.24160505742E+01 -0.15972153616E-01  0.44989535421E+01  0.24999690884E+00 0.  0.
    1000022    2    1    0    0    0 -0.46700562416E+02 -0.22902396241E+02 -0.33178113474E+02  0.62500003043E+02  0.10000044154E+02 0.  0.
    3000022    2    5    5    0    0 -0.16970057771E+02 -0.58824661031E+01 -0.66254942086E+01  0.19145389468E+02  0.24999234024E+00 0.  0.
        -13    1    4    4    0    0  0.13329283259E+01  0.82705567352E+00 -0.58450612512E-01  0.15732642764E+01  0.10500000000E+00 0.  1.
         13    1    4    4    0    0  0.24539607711E+01  0.15889949006E+01  0.42478458896E-01  0.29256892658E+01  0.10500000000E+00 0. -1.
    3000001    1    5    5    0    0 -0.29730504645E+02 -0.17019930138E+02 -0.26552619266E+02  0.43354613575E+02  0.10000000000E+01 0. -1.
        -13    1    6    6    0    0 -0.56580771120E+01 -0.19173497996E+01 -0.22396732720E+01  0.63810052676E+01  0.10500000000E+00 0. -1.
         13    1    6    6    0    0 -0.11311980659E+02 -0.39651163035E+01 -0.43858209366E+01  0.12764384201E+02  0.10500000000E+00 0.  1.
</event>
<event>
11    0  0.3482988E-009  0.9118800E+02  0.7816531E-02  0.1126479E+00
         25   -1    0    0    0    0  0.00000000000E+00  0.00000000000E+00  0.99999998245E-14  0.12500000000E+03  0.12500000000E+03 0.  0.
    3000001    1    3    3    0    0  0.16263361152E+02 -0.21576602034E+02 -0.44754099445E+02  0.52287437195E+02  0.10000000000E+01 0.  1.
    1000022    2    1    0    0    0  0.22477766723E+02 -0.22712748757E+02 -0.52774341034E+02  0.62500000224E+02  0.10000000172E+02 0.  0.
    3000022    2    3    3    0    0  0.62144055711E+01 -0.11361467229E+01 -0.80202415889E+01  0.10212563029E+02  0.25000498429E+00 0.  0.
    1000022    2    1    0    0    0 -0.22477766723E+02  0.22712748757E+02  0.52774341034E+02  0.62499999776E+02  0.99999973744E+01 0.  0.
    3000022    2    5    5    0    0 -0.23013972608E+02  0.22726460782E+02  0.50820153462E+02  0.60240231240E+02  0.25001413118E+00 0.  0.
        -13    1    4    4    0    0  0.36076723293E+01 -0.71508928459E+00 -0.46117738137E+01  0.58996724510E+01  0.10500000000E+00 0.  1.
         13    1    4    4    0    0  0.26067332418E+01 -0.42105743836E+00 -0.34084677751E+01  0.43128905776E+01  0.10500000000E+00 0. -1.
    3000001    1    5    5    0    0  0.53620588479E+00 -0.13712025112E-01  0.19541875717E+01  0.22597685359E+01  0.10000000000E+01 0.  1.
        -13    1    6    6    0    0 -0.69383904883E+01  0.67902254776E+01  0.15280062361E+02  0.18103584048E+02  0.10500000000E+00 0.  1.
         13    1    6    6    0    0 -0.16075582120E+02  0.15936235305E+02  0.35540091101E+02  0.42136647193E+02  0.10500000000E+00 0. -1.
</event>
<event>
11    0  0.3482988E-009  0.9118800E+02  0.7816531E-02  0.1126479E+00
         25   -1    0    0    0    0  0.00000000000E+00  0.00000000000E+00  0.99999998245E-14  0.12500000000E+03  0.12500000000E+03 0.  0.
    3000001    1    3    3    0    0  0.17483565090E+02 -0.23045995478E+02  0.18233877635E+02  0.34209169085E+02  0.10000000000E+01 0.  1.
    1000022    2    1    0    0    0  0.36450017987E+02 -0.34685189352E+02  0.35701319377E+02  0.62500001379E+02  0.99999897729E+01 0.  0.
    3000022    2    3    3    0    0  0.18966452897E+02 -0.11639193874E+02  0.17467441741E+02  0.28290832294E+02  0.25000275613E+00 0.  0.
    1000022    2    1    0    0    0 -0.36450017987E+02  0.34685189352E+02 -0.35701319377E+02  0.62499998621E+02  0.99999725380E+01 0.  0.
    3000022    2    5    5    0    0 -0.31670265040E+02  0.28097825821E+02 -0.33556912277E+02  0.54024275742E+02  0.25000846318E+00 0.  0.
        -13    1    4    4    0    0  0.13173179058E+02 -0.81389021787E+01  0.12159132730E+02  0.19688319098E+02  0.10500000000E+00 0.  1.
         13    1    4    4    0    0  0.57932738395E+01 -0.35002916951E+01  0.53083090114E+01  0.86025131962E+01  0.10500000000E+00 0. -1.
    3000001    1    5    5    0    0 -0.47797529469E+01  0.65873635310E+01 -0.21444070994E+01  0.84757228795E+01  0.10000000000E+01 0. -1.
        -13    1    6    6    0    0 -0.14994194856E+02  0.13382037557E+02 -0.15970476982E+02  0.25670449326E+02  0.10500000000E+00 0. -1.
         13    1    6    6    0    0 -0.16676070185E+02  0.14715788264E+02 -0.17586435295E+02  0.28353826416E+02  0.10500000000E+00 0.  1.
</event>
<event>
11    0  0.3482988E-009  0.9118800E+02  0.7816531E-02  0.1126479E+00
         25   -1    0    0    0    0  0.00000000000E+00  0.00000000000E+00  0.99999998245E-14  0.12500000000E+03  0.12500000000E+03 0.  0.
    3000001    1    3    3    0    0  0.25232203608E+02  0.51898569337E+02  0.11586340647E+02  0.58867383904E+02  0.10000000000E+01 0.  1.
    1000022    2    1    0    0    0  0.25757023840E+02  0.55148770192E+02  0.10071689969E+02  0.62500000298E+02  0.99999983776E+01 0.  0.
    3000022    2    3    3    0    0  0.52482023242E+00  0.32502008553E+01 -0.15146506779E+01  0.36326163935E+01  0.24998662093E+00 0.  0.
    1000022    2    1    0    0    0 -0.25757023840E+02 -0.55148770192E+02 -0.10071689969E+02  0.62499999702E+02  0.99999946561E+01 0.  0.
    3000022    2    5    5    0    0 -0.87257234127E+01 -0.17916838287E+02 -0.80528661796E+01  0.21495638994E+02  0.24999750166E+00 0.  0.
        -13    1    4    4    0    0  0.17181711020E+00  0.85715854359E+00 -0.41432427831E+00  0.97310405189E+00  0.10500000000E+00 0. -1.
         13    1    4    4    0    0  0.35300312222E+00  0.23930423117E+01 -0.11003263995E+01  0.26595123416E+01  0.10500000000E+00 0.  1.
    3000001    1    5    5    0    0 -0.17031300427E+02 -0.37231931905E+02 -0.20188237896E+01  0.41004360709E+02  0.10000000000E+01 0. -1.
        -13    1    6    6    0    0 -0.42082027218E+01 -0.86261211058E+01 -0.39510191567E+01  0.10379812756E+02  0.10500000000E+00 0.  1.
         13    1    6    6    0    0 -0.45175206909E+01 -0.92907171815E+01 -0.41018470229E+01  0.11115826237E+02  0.10500000000E+00 0. -1.
</event>
<event>
11    0  0.3482988E-009  0.9118800E+02  0.7816531E-02  0.1126479E+00
         25   -1    0    0    0    0  0.00000000000E+00  0.00000000000E+00  0.99999998245E-14  0.12500000000E+03  0.12500000000E+03 0.  0.
    3000001    1    3    3    0    0 -0.58286955701E+02 -0.16598213076E+02 -0.10617571773E+02  0.61535377731E+02  0.10000000000E+01 0.  1.
    1000022    2    1    0    0    0 -0.58395247017E+02 -0.17240128709E+02 -0.99510916452E+01  0.62499991012E+02  0.99998869740E+01 0.  0.
    3000022    2    3    3    0    0 -0.10829131672E+00 -0.64191563305E+00  0.66648012773E+00  0.96461328120E+00  0.25000066477E+00 0.  0.
    1000022    2    1    0    0    0  0.58395247017E+02  0.17240128709E+02  0.99510916452E+01  0.62500008988E+02  0.99999993208E+01 0.  0.
    3000022    2    5    5    0    0  0.49204418121E+01 -0.90365445364E+00 -0.60074811636E+00  0.50448701266E+01  0.24995459159E+00 0.  0.
        -13    1    4    4    0    0 -0.98461442728E-01 -0.23618280586E+00  0.29654770305E+00  0.40551512138E+00  0.10500000000E+00 0. -1.
         13    1    4    4    0    0 -0.98298739874E-02 -0.40573282719E+00  0.36993242468E+00  0.55909815981E+00  0.10500000000E+00 0.  1.
    3000001    1    5    5    0    0  0.53474805205E+02  0.18143783162E+02  0.10551839762E+02  0.57455138861E+02  0.10000000000E+01 0.  1.
        -13    1    6    6    0    0  0.21540134565E+01 -0.41047760408E+00 -0.32822909406E+00  0.22196903326E+01  0.10500000000E+00 0. -1.
         13    1    6    6    0    0  0.27664283555E+01 -0.49317684955E+00 -0.27251902230E+00  0.28251797941E+01  0.10500000000E+00 0.  1.
</event>
<event>
11    0  0.3482988E-009  0.9118800E+02  0.7816531E-02  0.1126479E+00
         25   -1    0    0    0    0  0.00000000000E+00  0.00000000000E+00  0.99999998245E-14  0.12500000000E+03  0.12500000000E+03 0.  0.
    3000001    1    3    3    0    0 -0.79640871911E+01  0.83693483291E+01  0.49943507808E+02  0.51272084495E+02  0.10000000000E+01 0. -1.
    1000022    2    1    0    0    0 -0.81159412985E+01  0.58408728521E+01  0.60879107144E+02  0.62499999882E+02  0.99999999911E+01 0.  0.
    3000022    2    3    3    0    0 -0.15185410743E+00 -0.25284754770E+01  0.10935599335E+02  0.11227915387E+02  0.25000642854E+00 0.  0.
    1000022    2    1    0    0    0  0.81159412985E+01 -0.58408728521E+01 -0.60879107144E+02  0.62500000118E+02  0.10000001465E+02 0.  0.
    3000022    2    5    5    0    0  0.29607890932E+01 -0.73357248258E+01 -0.45434929711E+02  0.46119133436E+02  0.25000050633E+00 0.  0.
        -13    1    4    4    0    0 -0.67148246631E-01 -0.12810723909E+01  0.52413969433E+01  0.53971216657E+01  0.10500000000E+00 0.  1.
         13    1    4    4    0    0 -0.84705860797E-01 -0.12474030861E+01  0.56942023919E+01  0.58307937214E+01  0.10500000000E+00 0. -1.
    3000001    1    5    5    0    0  0.51551522054E+01  0.14948519737E+01 -0.15444177432E+02  0.16380866682E+02  0.10000000000E+01 0.  1.
        -13    1    6    6    0    0  0.76859353959E+00 -0.18443602197E+01 -0.11583049913E+02  0.11754593610E+02  0.10500000000E+00 0.  1.
         13    1    6    6    0    0  0.21921955536E+01 -0.54913646061E+01 -0.33851879799E+02  0.34364539827E+02  0.10500000000E+00 0. -1.
</event>
<event>
11    0  0.3482988E-009  0.9118800E+02  0.7816531E-02  0.1126479E+00
         25   -1    0    0    0    0  0.00000000000E+00  0.00000000000E+00  0.99999998245E-14  0.12500000000E+03  0.12500000000E+03 0.  0.
    3000001    1    3    3    0    0  0.31458072639E+02  0.43433265256E+02  0.10055520856E+02  0.54572633844E+02  0.10000000000E+01 0.  1.
    1000022    2    1    0    0    0  0.32521762912E+02  0.50994711043E+02  0.12170643105E+02  0.62500000382E+02  0.99999938428E+01 0.  0.
    3000022    2    3    3    0    0  0.10636902723E+01  0.75614457874E+01  0.21151222490E+01  0.79273665379E+01  0.24999741277E+00 0.  0.
    1000022    2    1    0    0    0 -0.32521762912E+02 -0.50994711043E+02 -0.12170643105E+02  0.62499999618E+02  0.99999890715E+01 0.  0.
    3000022    2    5    5    0    0 -0.20530674880E+02 -0.38855582775E+02 -0.61330930777E+01  0.44372764926E+02  0.25002515226E+00 0.  0.
        -13    1    4    4    0    0  0.48542706008E+00  0.31339478424E+01  0.82984117417E+00  0.32797758892E+01  0.10500000000E+00 0. -1.
         13    1    4    4    0    0  0.57826321223E+00  0.44274979450E+01  0.12852810749E+01  0.46475906486E+01  0.10500000000E+00 0.  1.
    3000001    1    5    5    0    0 -0.11991088031E+02 -0.12139128268E+02 -0.60375500273E+01  0.18127234693E+02  0.10000000000E+01 0. -1.
        -13    1    6    6    0    0 -0.59786225540E+01 -0.11398848655E+02 -0.18161755813E+01  0.12999507569E+02  0.10500000000E+00 0. -1.
         13    1    6    6    0    0 -0.14552052326E+02 -0.27456734121E+02 -0.43169174964E+01  0.31373257356E+02  0.10500000000E+00 0.  1.
</event>
<event>
11    0  0.3482988E-009  0.9118800E+02  0.7816531E-02  0.1126479E+00
         25   -1    0    0    0    0  0.00000000000E+00  0.00000000000E+00  0.99999998245E-14  0.12500000000E+03  0.12500000000E+03 0.  0.
    3000001    1    3    3    0    0  0.46477802107E+02  0.40591048106E+02 -0.64997733816E+01  0.62056960359E+02  0.10000000000E+01 0.  1.
    1000022    2    1    0    0    0  0.46253755288E+02  0.40302740674E+02 -0.65214544683E+01  0.62500005240E+02  0.10000025129E+02 0.  0.
    3000022    2    3    3    0    0 -0.22404681899E+00 -0.28830743140E+00 -0.21681086682E-01  0.44304488120E+00  0.25000109027E+00 0.  0.
    1000022    2    1    0    0    0 -0.46253755288E+02 -0.40302740674E+02  0.65214544683E+01  0.62499994760E+02  0.99999596248E+01 0.  0.
    3000022    2    5    5    0    0 -0.32820238041E+02 -0.23338447272E+02  0.67610412974E+01  0.40836568482E+02  0.24999958615E+00 0.  0.
        -13    1    4    4    0    0 -0.14291079074E+00 -0.24577847951E+00 -0.19074176982E-01  0.30367643855E+00  0.10500000000E+00 0. -1.
         13    1    4    4    0    0 -0.81136028256E-01 -0.42528951886E-01 -0.26069096997E-02  0.13936844265E+00  0.10500000000E+00 0.  1.
    3000001    1    5    5    0    0 -0.13433517246E+02 -0.16964293402E+02 -0.23958682904E+00  0.21663426278E+02  0.10000000000E+01 0. -1.
        -13    1    6    6    0    0 -0.13353982847E+02 -0.94230779849E+01  0.27209060472E+01  0.16569176543E+02  0.10500000000E+00 0.  1.
         13    1    6    6    0    0 -0.19466255194E+02 -0.13915369288E+02  0.40401352501E+01  0.24267391939E+02  0.10500000000E+00 0. -1.
</event>
<event>
11    0  0.3482988E-009  0.9118800E+02  0.7816531E-02  0.1126479E+00
         25   -1    0    0    0    0  0.00000000000E+00  0.00000000000E+00  0.99999998245E-14  0.12500000000E+03  0.12500000000E+03 0.  0.
    3000001    1    3    3    0    0 -0.18567021305E+02 -0.43228591679E+02 -0.59680745542E+01  0.47434832482E+02  0.10000000000E+01 0.  1.
    1000022    2    1    0    0    0 -0.29027598741E+02 -0.54056615179E+02 -0.64444685067E+01  0.62499998448E+02  0.99999749196E+01 0.  0.
    3000022    2    3    3    0    0 -0.10460577436E+02 -0.10828023500E+02 -0.47639395253E+00  0.15065165966E+02  0.25000235789E+00 0.  0.
    1000022    2    1    0    0    0  0.29027598741E+02  0.54056615179E+02  0.64444685067E+01  0.62500001552E+02  0.99999943195E+01 0.  0.
    3000022    2    5    5    0    0  0.14793453845E+01  0.86956255122E+00  0.16638392427E+01  0.24032192223E+01  0.24999961538E+00 0.  0.
        -13    1    4    4    0    0 -0.71277461931E+01 -0.73445211425E+01 -0.27868185603E+00  0.10238918165E+02  0.10500000000E+00 0.  1.
         13    1    4    4    0    0 -0.33328312433E+01 -0.34835023575E+01 -0.19771209650E+00  0.48262478018E+01  0.10500000000E+00 0. -1.
    3000001    1    5    5    0    0  0.27548253357E+02  0.53187052628E+02  0.47806292640E+01  0.60096782330E+02  0.10000000000E+01 0.  1.
        -13    1    6    6    0    0  0.49210392752E+00  0.23496115787E+00  0.55908457180E+00  0.78801876857E+00  0.10500000000E+00 0.  1.
         13    1    6    6    0    0  0.98724145703E+00  0.63460139335E+00  0.11047546709E+01  0.16152004538E+01  0.10500000000E+00 0. -1.
</event>
<event>
11    0  0.3482988E-009  0.9118800E+02  0.7816531E-02  0.1126479E+00
         25   -1    0    0    0    0  0.00000000000E+00  0.00000000000E+00  0.99999998245E-14  0.12500000000E+03  0.12500000000E+03 0.  0.
    3000001    1    3    3    0    0  0.12253185621E+02 -0.11439073760E+02  0.19546421552E+02  0.25769275540E+02  0.10000000000E+01 0. -1.
    1000022    2    1    0    0    0  0.19198192399E+02 -0.26149160496E+02  0.52477620782E+02  0.62500000600E+02  0.10000010305E+02 0.  0.
    3000022    2    3    3    0    0  0.69450067776E+01 -0.14710086736E+02  0.32931199230E+02  0.36730725060E+02  0.25001968142E+00 0.  0.
    1000022    2    1    0    0    0 -0.19198192399E+02  0.26149160496E+02 -0.52477620782E+02  0.62499999400E+02  0.10000002800E+02 0.  0.
    3000022    2    5    5    0    0 -0.10732387039E+01  0.36460474337E+01 -0.19348043104E+01  0.42721680747E+01  0.24989824785E+00 0.  0.
        -13    1    4    4    0    0  0.45855356971E+01 -0.97744671389E+01  0.21748795087E+02  0.24281442672E+02  0.10500000000E+00 0. -1.
         13    1    4    4    0    0  0.23594710805E+01 -0.49356195968E+01  0.11182404143E+02  0.12449282389E+02  0.10500000000E+00 0.  1.
    3000001    1    5    5    0    0 -0.18124953695E+02  0.22503113062E+02 -0.50542816471E+02  0.58227831325E+02  0.10000000000E+01 0.  1.
        -13    1    6    6    0    0 -0.31522638589E+00  0.12641000090E+01 -0.67319771908E+00  0.14702165405E+01  0.10500000000E+00 0. -1.
         13    1    6    6    0    0 -0.75801231797E+00  0.23819474248E+01 -0.12616065913E+01  0.28019515342E+01  0.10500000000E+00 0.  1.
</event>
<event>
11    0  0.3482988E-009  0.9118800E+02  0.7816531E-02  0.1126479E+00
         25   -1    0    0    0    0  0.00000000000E+00  0.00000000000E+00  0.99999998245E-14  0.12500000000E+03  0.12500000000E+03 0.  0.
    3000001    1    3    3    0    0 -0.37520644863E+02 -0.53465544002E+01  0.33265215341E+02  0.50437674278E+02  0.10000000000E+01 0. -1.
    1000022    2    1    0    0    0 -0.45974834659E+02 -0.18025546337E+01  0.41101281436E+02  0.62499999421E+02  0.99999983422E+01 0.  0.
    3000022    2    3    3    0    0 -0.84541897957E+01  0.35439997665E+01  0.78360660955E+01  0.12062325143E+02  0.24999312852E+00 0.  0.
    1000022    2    1    0    0    0  0.45974834659E+02  0.18025546337E+01 -0.41101281436E+02  0.62500000579E+02  0.10000005579E+02 0.  0.
    3000022    2    5    5    0    0 -0.28991251612E+00 -0.49727661435E+00 -0.11993633228E+01  0.13536260008E+01  0.24999534375E+00 0.  0.
        -13    1    4    4    0    0 -0.29477126373E+01  0.12767484563E+01  0.26913404766E+01  0.41920681022E+01  0.10500000000E+00 0. -1.
         13    1    4    4    0    0 -0.55064771584E+01  0.22672513102E+01  0.51447256189E+01  0.78702570412E+01  0.10500000000E+00 0.  1.
    3000001    1    5    5    0    0  0.46264747175E+02  0.22998312481E+01 -0.39901918113E+02  0.61146374578E+02  0.10000000000E+01 0. -1.
        -13    1    6    6    0    0 -0.88777016456E-01 -0.20867830921E+00 -0.61093770810E+00  0.66007414626E+00  0.10500000000E+00 0. -1.
         13    1    6    6    0    0 -0.20113549967E+00 -0.28859830515E+00 -0.58842561466E+00  0.69355185455E+00  0.10500000000E+00 0.  1.
</event>
<event>
11    0  0.3482988E-009  0.9118800E+02  0.7816531E-02  0.1126479E+00
         25   -1    0    0    0    0  0.00000000000E+00  0.00000000000E+00  0.99999998245E-14  0.12500000000E+03  0.12500000000E+03 0.  0.
    3000001    1    3    3    0    0 -0.61398254291E+01  0.11837477988E+01 -0.51137617248E+02  0.51528192409E+02  0.10000000000E+01 0.  1.
    1000022    2    1    0    0    0 -0.86151736086E+01 -0.28754902325E+01 -0.61022620184E+02  0.62499999056E+02  0.10000002377E+02 0.  0.
    3000022    2    3    3    0    0 -0.24753481796E+01 -0.40592380313E+01 -0.98850029359E+01  0.10971806647E+02  0.24999210878E+00 0.  0.
    1000022    2    1    0    0    0  0.86151736086E+01  0.28754902325E+01  0.61022620184E+02  0.62500000944E+02  0.10000014176E+02 0.  0.
    3000022    2    5    5    0    0  0.21822548414E+01  0.45311212964E+01  0.42493689385E+02  0.42790997047E+02  0.24998858373E+00 0.  0.
        -13    1    4    4    0    0 -0.60912790046E+00 -0.98123956765E+00 -0.24539727477E+01  0.27141988016E+01  0.10500000000E+00 0. -1.
         13    1    4    4    0    0 -0.18662202791E+01 -0.30779984636E+01 -0.74310301882E+01  0.82576078455E+01  0.10500000000E+00 0.  1.
    3000001    1    5    5    0    0  0.64329187673E+01 -0.16556310639E+01  0.18528930798E+02  0.19709003897E+02  0.10000000000E+01 0.  1.
        -13    1    6    6    0    0  0.11281991183E+01  0.21866736125E+01  0.20748036541E+02  0.20893693307E+02  0.10500000000E+00 0.  1.
         13    1    6    6    0    0  0.10540557231E+01  0.23444476839E+01  0.21745652845E+02  0.21897303739E+02  0.10500000000E+00 0. -1.
</event>
<event>
11    0  0.3482988E-009  0.9118800E+02  0.7816531E-02  0.1126479E+00
         25   -1    0    0    0    0  0.00000000000E+00  0.00000000000E+00  0.99999998245E-14  0.12500000000E+03  0.12500000000E+03 0.  0.
    3000001    1    3    3    0    0 -0.20041114259E+02  0.36238675001E+00  0.16937476773E+02  0.26261296700E+02  0.10000000000E+01 0. -1.
    1000022    2    1    0    0    0 -0.39342884929E+02  0.49069194189E+01  0.47268484776E+02  0.62500000815E+02  0.99999998082E+01 0.  0.
    3000022    2    3    3    0    0 -0.19301770670E+02  0.45445326689E+01  0.30331008002E+02  0.36238704115E+02  0.25000268575E+00 0.  0.
    1000022    2    1    0    0    0  0.39342884929E+02 -0.49069194189E+01 -0.47268484776E+02  0.62499999185E+02  0.99999896207E+01 0.  0.
    3000022    2    5    5    0    0  0.19739222838E+02 -0.68532583067E+01 -0.27873240090E+02  0.34836533768E+02  0.25000841209E+00 0.  0.
        -13    1    4    4    0    0 -0.75509367258E+01  0.17673821379E+01  0.11974463945E+02  0.14266712895E+02  0.10500000000E+00 0.  1.
         13    1    4    4    0    0 -0.11750833944E+02  0.27771505310E+01  0.18356544057E+02  0.21971991220E+02  0.10500000000E+00 0. -1.
    3000001    1    5    5    0    0  0.19603662091E+02  0.19463388878E+01 -0.19395244686E+02  0.27663465417E+02  0.10000000000E+01 0.  1.
        -13    1    6    6    0    0  0.11654355533E+02 -0.40646773278E+01 -0.16361941719E+02  0.20495603590E+02  0.10500000000E+00 0.  1.
         13    1    6    6    0    0  0.80848673047E+01 -0.27885809789E+01 -0.11511298370E+02  0.14340930178E+02  0.10500000000E+00 0. -1.
</event>
<event>
11    0  0.3482988E-009  0.9118800E+02  0.7816531E-02  0.1126479E+00
         25   -1    0    0    0    0  0.00000000000E+00  0.00000000000E+00  0.99999998245E-14  0.12500000000E+03  0.12500000000E+03 0.  0.
    3000001    1    3    3    0    0  0.14645868566E+02 -0.65647763167E+01 -0.73388444175E+01  0.17676436053E+02  0.10000000000E+01 0.  1.
    1000022    2    1    0    0    0  0.41225565421E+02 -0.33216146530E+02 -0.31676337803E+02  0.62500000197E+02  0.10000000672E+02 0.  0.
    3000022    2    3    3    0    0  0.26579696855E+02 -0.26651370213E+02 -0.24337493386E+02  0.44823564144E+02  0.24999832776E+00 0.  0.
    1000022    2    1    0    0    0 -0.41225565421E+02  0.33216146530E+02  0.31676337803E+02  0.62499999803E+02  0.99999982101E+01 0.  0.
    3000022    2    5    5    0    0 -0.32046789795E+01  0.48223728192E+01  0.73546233355E+00  0.58419733096E+01  0.25000067181E+00 0.  0.
        -13    1    4    4    0    0  0.13268706720E+02 -0.13396676061E+02 -0.12168945798E+02  0.22441563545E+02  0.10500000000E+00 0.  1.
         13    1    4    4    0    0  0.13310990135E+02 -0.13254694152E+02 -0.12168547587E+02  0.22382000599E+02  0.10500000000E+00 0. -1.
    3000001    1    5    5    0    0 -0.38020886442E+02  0.28393773710E+02  0.30940875469E+02  0.56658026493E+02  0.10000000000E+01 0.  1.
        -13    1    6    6    0    0 -0.17590394705E+01  0.25341876043E+01  0.41713186240E+00  0.31146991288E+01  0.10500000000E+00 0.  1.
         13    1    6    6    0    0 -0.14456395091E+01  0.22881852150E+01  0.31833047115E+00  0.27272741808E+01  0.10500000000E+00 0. -1.
</event>
<event>
11    0  0.3482988E-009  0.9118800E+02  0.7816531E-02  0.1126479E+00
         25   -1    0    0    0    0  0.00000000000E+00  0.00000000000E+00  0.99999998245E-14  0.12500000000E+03  0.12500000000E+03 0.  0.
    3000001    1    3    3    0    0 -0.24023249078E+01 -0.12265180913E+02 -0.14181363052E-02  0.12538174899E+02  0.10000000000E+01 0.  1.
    1000022    2    1    0    0    0 -0.26225551737E+02 -0.54640956153E+02  0.11525462794E+02  0.62499999853E+02  0.10000001786E+02 0.  0.
    3000022    2    3    3    0    0 -0.23823226830E+02 -0.42375775241E+02  0.11526880930E+02  0.49961824954E+02  0.25000987333E+00 0.  0.
    1000022    2    1    0    0    0  0.26225551737E+02  0.54640956153E+02 -0.11525462794E+02  0.62500000147E+02  0.10000003624E+02 0.  0.
    3000022    2    5    5    0    0  0.60138789416E+01  0.58180795419E+01 -0.33684967774E+01  0.90236400202E+01  0.25003838482E+00 0.  0.
        -13    1    4    4    0    0 -0.78868173294E+01 -0.14131346724E+02  0.38186906057E+01  0.16627996595E+02  0.10500000000E+00 0. -1.
         13    1    4    4    0    0 -0.15936409500E+02 -0.28244428517E+02  0.77081903244E+01  0.33333828359E+02  0.10500000000E+00 0.  1.
    3000001    1    5    5    0    0  0.20211672796E+02  0.48822876611E+02 -0.81569660164E+01  0.53476360127E+02  0.10000000000E+01 0. -1.
        -13    1    6    6    0    0  0.30726441043E+01  0.30127090456E+01 -0.16661248259E+01  0.46156857043E+01  0.10500000000E+00 0.  1.
         13    1    6    6    0    0  0.29412348373E+01  0.28053704962E+01 -0.17023719515E+01  0.44079543158E+01  0.10500000000E+00 0. -1.
</event>
<event>
11    0  0.3482988E-009  0.9118800E+02  0.7816531E-02  0.1126479E+00
         25   -1    0    0    0    0  0.00000000000E+00  0.00000000000E+00  0.99999998245E-14  0.12500000000E+03  0.12500000000E+03 0.  0.
    3000001    1    3    3    0    0 -0.29991050009E+02 -0.34643231948E+02  0.25846464583E+02  0.52618022881E+02  0.10000000000E+01 0. -1.
    1000022    2    1    0    0    0 -0.33590841212E+02 -0.39106478026E+02  0.33890835983E+02  0.62500000059E+02  0.10000000344E+02 0.  0.
    3000022    2    3    3    0    0 -0.35997912030E+01 -0.44632460778E+01  0.80443713996E+01  0.98819771784E+01  0.24999896675E+00 0.  0.
    1000022    2    1    0    0    0  0.33590841212E+02  0.39106478026E+02 -0.33890835983E+02  0.62499999941E+02  0.99999996026E+01 0.  0.
    3000022    2    5    5    0    0  0.36284293560E+01  0.11195040131E+01 -0.44540439557E+01  0.58583099612E+01  0.24999843120E+00 0.  0.
        -13    1    4    4    0    0 -0.17659654736E+01 -0.20821461952E+01  0.38223232815E+01  0.46984196386E+01  0.10500000000E+00 0.  1.
         13    1    4    4    0    0 -0.18338257294E+01 -0.23810998827E+01  0.42220481180E+01  0.51835575398E+01  0.10500000000E+00 0. -1.
    3000001    1    5    5    0    0  0.29962411856E+02  0.37986974013E+02 -0.29436792027E+02  0.56641689979E+02  0.10000000000E+01 0. -1.
        -13    1    6    6    0    0  0.10310923731E+01  0.36063851677E+00 -0.12663389304E+01  0.16756643185E+01  0.10500000000E+00 0.  1.
         13    1    6    6    0    0  0.25973369829E+01  0.75886549630E+00 -0.31877050253E+01  0.41826456427E+01  0.10500000000E+00 0. -1.
</event>
<event>
11    0  0.3482988E-009  0.9118800E+02  0.7816531E-02  0.1126479E+00
         25   -1    0    0    0    0  0.00000000000E+00  0.00000000000E+00  0.99999998245E-14  0.12500000000E+03  0.12500000000E+03 0.  0.
    3000001    1    3    3    0    0  0.34991792623E+02  0.20721359488E+02  0.27694902714E+01  0.40773402683E+02  0.10000000000E+01 0. -1.
    1000022    2    1    0    0    0  0.50819778602E+02  0.33292599986E+02  0.10733231595E+02  0.62499997071E+02  0.10000013123E+02 0.  0.
    3000022    2    3    3    0    0  0.15827985979E+02  0.12571240498E+02  0.79637413239E+01  0.21726594388E+02  0.25000004768E+00 0.  0.
    1000022    2    1    0    0    0 -0.50819778602E+02 -0.33292599986E+02 -0.10733231595E+02  0.62500002929E+02  0.10000049732E+02 0.  0.
    3000022    2    5    5    0    0 -0.16256102603E+02 -0.16000435470E+02 -0.22699063877E+01  0.22923563905E+02  0.25000008344E+00 0.  0.
        -13    1    4    4    0    0  0.80133183172E+01  0.64152291419E+01  0.41033172065E+01  0.11055164969E+02  0.10500000000E+00 0.  1.
         13    1    4    4    0    0  0.78146676620E+01  0.61560113563E+01  0.38604241174E+01  0.10671429419E+02  0.10500000000E+00 0. -1.
    3000001    1    5    5    0    0 -0.34563675999E+02 -0.17292164516E+02 -0.84633252075E+01  0.39576439023E+02  0.10000000000E+01 0. -1.
        -13    1    6    6    0    0 -0.48097508718E+01 -0.46722454981E+01 -0.66926587643E+00  0.67396233765E+01  0.10500000000E+00 0. -1.
         13    1    6    6    0    0 -0.11446351731E+02 -0.11328189972E+02 -0.16006405113E+01  0.16183940529E+02  0.10500000000E+00 0.  1.
</event>
<event>
11    0  0.3482988E-009  0.9118800E+02  0.7816531E-02  0.1126479E+00
         25   -1    0    0    0    0  0.00000000000E+00  0.00000000000E+00  0.99999998245E-14  0.12500000000E+03  0.12500000000E+03 0.  0.
    3000001    1    3    3    0    0 -0.24256201836E+01  0.10202577555E+02  0.97920076448E+01  0.14382615748E+02  0.10000000000E+01 0.  1.
    1000022    2    1    0    0    0 -0.11831101147E+02  0.53934391256E+02  0.27520113680E+02  0.62500001262E+02  0.99999993187E+01 0.  0.
    3000022    2    3    3    0    0 -0.94054809630E+01  0.43731813701E+02  0.17728106035E+02  0.48117385514E+02  0.24988684935E+00 0.  0.
    1000022    2    1    0    0    0  0.11831101147E+02 -0.53934391256E+02 -0.27520113680E+02  0.62499998738E+02  0.99999835404E+01 0.  0.
    3000022    2    5    5    0    0 -0.78712635944E-01 -0.10764276812E+02 -0.89803426668E+01  0.14020873801E+02  0.24999353478E+00 0.  0.
        -13    1    4    4    0    0 -0.35217597020E+01  0.16653675965E+02  0.67634013933E+01  0.18316722904E+02  0.10500000000E+00 0. -1.
         13    1    4    4    0    0 -0.58837212610E+01  0.27078137736E+02  0.10964704642E+02  0.29800662611E+02  0.10500000000E+00 0.  1.
    3000001    1    5    5    0    0  0.11909813783E+02 -0.43170114444E+02 -0.18539771013E+02  0.48479124937E+02  0.10000000000E+01 0. -1.
        -13    1    6    6    0    0  0.12826676852E-01 -0.28461309388E+01 -0.23752543284E+01  0.37085689921E+01  0.10500000000E+00 0.  1.
         13    1    6    6    0    0 -0.91539312796E-01 -0.79181458731E+01 -0.66050883384E+01  0.10312304809E+02  0.10500000000E+00 0. -1.
</event>
<event>
11    0  0.3482988E-009  0.9118800E+02  0.7816531E-02  0.1126479E+00
         25   -1    0    0    0    0  0.00000000000E+00  0.00000000000E+00  0.99999998245E-14  0.12500000000E+03  0.12500000000E+03 0.  0.
    3000001    1    3    3    0    0  0.12804255453E+01  0.31162755005E+01 -0.11068569634E+01  0.36845345581E+01  0.10000000000E+01 0. -1.
    1000022    2    1    0    0    0 -0.26187231964E+01  0.61246175829E+02  0.69496772295E+01  0.62499999510E+02  0.10000008013E+02 0.  0.
    3000022    2    3    3    0    0 -0.38991487417E+01  0.58129900328E+02  0.80565341929E+01  0.58815464952E+02  0.25000232488E+00 0.  0.
    1000022    2    1    0    0    0  0.26187231964E+01 -0.61246175829E+02 -0.69496772295E+01  0.62500000490E+02  0.10000014142E+02 0.  0.
    3000022    2    5    5    0    0 -0.20256135680E+01 -0.42248904865E+02 -0.22296901544E+01  0.42356901273E+02  0.24998942502E+00 0.  0.
        -13    1    4    4    0    0 -0.26088358230E+01  0.38091775573E+02  0.52945611156E+01  0.38546501696E+02  0.10500000000E+00 0.  1.
         13    1    4    4    0    0 -0.12903129188E+01  0.20038124756E+02  0.27619730773E+01  0.20268963255E+02  0.10500000000E+00 0. -1.
    3000001    1    5    5    0    0  0.46443367644E+01 -0.18997270964E+02 -0.47199870751E+01  0.20143099217E+02  0.10000000000E+01 0.  1.
        -13    1    6    6    0    0 -0.14595350821E+01 -0.30845694497E+02 -0.15974936786E+01  0.30921677230E+02  0.10500000000E+00 0.  1.
         13    1    6    6    0    0 -0.56607848587E+00 -0.11403210368E+02 -0.63219647580E+00  0.11435224044E+02  0.10500000000E+00 0. -1.
</event>
<event>
11    0  0.3482988E-009  0.9118800E+02  0.7816531E-02  0.1126479E+00
         25   -1    0    0    0    0  0.00000000000E+00  0.00000000000E+00  0.99999998245E-14  0.12500000000E+03  0.12500000000E+03 0.  0.
    3000001    1    3    3    0    0  0.30365394083E+02 -0.21827183220E+02  0.36709099723E+02  0.52412222693E+02  0.10000000000E+01 0.  1.
    1000022    2    1    0    0    0  0.34908299281E+02 -0.29475930315E+02  0.41458775375E+02  0.62499999365E+02  0.10000001924E+02 0.  0.
    3000022    2    3    3    0    0  0.45429051984E+01 -0.76487470945E+01  0.47496756515E+01  0.10087776672E+02  0.24999928056E+00 0.  0.
    1000022    2    1    0    0    0 -0.34908299281E+02  0.29475930315E+02 -0.41458775375E+02  0.62500000635E+02  0.10000009859E+02 0.  0.
    3000022    2    5    5    0    0 -0.27643329643E+02  0.25895544391E+02 -0.37943080953E+02  0.53614109883E+02  0.24998634309E+00 0.  0.
        -13    1    4    4    0    0  0.22632263880E+01 -0.39202332629E+01  0.24598222531E+01  0.51528800720E+01  0.10500000000E+00 0. -1.
         13    1    4    4    0    0  0.22796788104E+01 -0.37285138315E+01  0.22898533984E+01  0.49348966004E+01  0.10500000000E+00 0.  1.
    3000001    1    5    5    0    0 -0.72649696378E+01  0.35803859231E+01 -0.35156944214E+01  0.88858907522E+01  0.10000000000E+01 0.  1.
        -13    1    6    6    0    0 -0.13768374876E+02  0.12937082313E+02 -0.18838258873E+02  0.26680091227E+02  0.10500000000E+00 0.  1.
         13    1    6    6    0    0 -0.13874954767E+02  0.12958462079E+02 -0.19104822080E+02  0.26934018656E+02  0.10500000000E+00 0. -1.
</event>
<event>
11    0  0.3482988E-009  0.9118800E+02  0.7816531E-02  0.1126479E+00
         25   -1    0    0    0    0  0.00000000000E+00  0.00000000000E+00  0.99999998245E-14  0.12500000000E+03  0.12500000000E+03 0.  0.
    3000001    1    3    3    0    0 -0.45761233791E+01  0.64687074057E+00  0.71189115100E+01  0.85462417485E+01  0.10000000000E+01 0.  1.
    1000022    2    1    0    0    0 -0.35602569147E+02 -0.18764602867E+02  0.46761059052E+02  0.62499999652E+02  0.10000003114E+02 0.  0.
    3000022    2    3    3    0    0 -0.31026445768E+02 -0.19411473608E+02  0.39642147542E+02  0.53953757904E+02  0.24997125909E+00 0.  0.
    1000022    2    1    0    0    0  0.35602569147E+02  0.18764602867E+02 -0.46761059052E+02  0.62500000348E+02  0.10000007458E+02 0.  0.
    3000022    2    5    5    0    0 -0.65195794560E+00  0.42094147395E+00 -0.73883651961E+00  0.11002803578E+01  0.24999315129E+00 0.  0.
        -13    1    4    4    0    0 -0.14115996784E+02 -0.87888090595E+01  0.17928607178E+02  0.24453026607E+02  0.10500000000E+00 0. -1.
         13    1    4    4    0    0 -0.16910448984E+02 -0.10622664548E+02  0.21713540364E+02  0.29500731297E+02  0.10500000000E+00 0.  1.
    3000001    1    5    5    0    0  0.36254527093E+02  0.18343661394E+02 -0.46022222532E+02  0.61399719990E+02  0.10000000000E+01 0. -1.
        -13    1    6    6    0    0 -0.35376753490E+00  0.30048604743E+00 -0.46008044893E+00  0.66192322284E+00  0.10500000000E+00 0. -1.
         13    1    6    6    0    0 -0.29819041070E+00  0.12045542651E+00 -0.27875607068E+00  0.43835713494E+00  0.10500000000E+00 0.  1.
</event>
<event>
11    0  0.3482988E-009  0.9118800E+02  0.7816531E-02  0.1126479E+00
         25   -1    0    0    0    0  0.00000000000E+00  0.00000000000E+00  0.99999998245E-14  0.12500000000E+03  0.12500000000E+03 0.  0.
    3000001    1    3    3    0    0  0.14085463339E+01 -0.73681793739E+01 -0.34889608003E+01  0.83334817170E+01  0.10000000000E+01 0. -1.
    1000022    2    1    0    0    0  0.22442697926E+02 -0.40018247367E+02 -0.41244575946E+02  0.62499997626E+02  0.99999922904E+01 0.  0.
    3000022    2    3    3    0    0  0.21034151592E+02 -0.32650067993E+02 -0.37755615146E+02  0.54166515909E+02  0.24999516783E+00 0.  0.
    1000022    2    1    0    0    0 -0.22442697926E+02  0.40018247367E+02  0.41244575946E+02  0.62500002374E+02  0.10000021961E+02 0.  0.
    3000022    2    5    5    0    0 -0.23156235028E+02  0.37146925636E+02  0.37649040373E+02  0.57737492559E+02  0.25000220046E+00 0.  0.
        -13    1    4    4    0    0  0.79546607152E+01 -0.12424747665E+02 -0.14403203745E+02  0.20618299754E+02  0.10500000000E+00 0. -1.
         13    1    4    4    0    0  0.13079490876E+02 -0.20225320328E+02 -0.23352411401E+02  0.33548216155E+02  0.10500000000E+00 0.  1.
    3000001    1    5    5    0    0  0.71353710199E+00  0.28713217312E+01  0.35955355732E+01  0.47625098150E+01  0.10000000000E+01 0.  1.
        -13    1    6    6    0    0 -0.10443261928E+02  0.16742516346E+02  0.16884166826E+02  0.25970361716E+02  0.10500000000E+00 0. -1.
         13    1    6    6    0    0 -0.12712973100E+02  0.20404409290E+02  0.20764873548E+02  0.31767130842E+02  0.10500000000E+00 0.  1.
</event>
<event>
11    0  0.3482988E-009  0.9118800E+02  0.7816531E-02  0.1126479E+00
         25   -1    0    0    0    0  0.00000000000E+00  0.00000000000E+00  0.99999998245E-14  0.12500000000E+03  0.12500000000E+03 0.  0.
    3000001    1    3    3    0    0  0.16264722179E+01 -0.21368989076E+01  0.36470680217E+00  0.28887298019E+01  0.10000000000E+01 0. -1.
    1000022    2    1    0    0    0  0.49505288914E+02 -0.27390314376E+02 -0.24601770893E+02  0.62500000477E+02  0.99999988295E+01 0.  0.
    3000022    2    3    3    0    0  0.47878816696E+02 -0.25253415469E+02 -0.24966477695E+02  0.59611270676E+02  0.25000412692E+00 0.  0.
    1000022    2    1    0    0    0 -0.49505288914E+02  0.27390314376E+02  0.24601770893E+02  0.62499999523E+02  0.99999928609E+01 0.  0.
    3000022    2    5    5    0    0 -0.25985178222E+02  0.12131244871E+02  0.74957224769E+01  0.29641945692E+02  0.24999925842E+00 0.  0.
        -13    1    4    4    0    0  0.20002569766E+02 -0.10497208066E+02 -0.10370090060E+02  0.24856467313E+02  0.10500000000E+00 0.  1.
         13    1    4    4    0    0  0.27876246929E+02 -0.14756207403E+02 -0.14596387635E+02  0.34754803362E+02  0.10500000000E+00 0. -1.
    3000001    1    5    5    0    0 -0.23520110692E+02  0.15259069505E+02  0.17106048416E+02  0.32858053831E+02  0.10000000000E+01 0.  1.
        -13    1    6    6    0    0 -0.17363520006E+02  0.80588918682E+01  0.50362045921E+01  0.19794240244E+02  0.10500000000E+00 0.  1.
         13    1    6    6    0    0 -0.86216582158E+01  0.40723530026E+01  0.24595178848E+01  0.98477054481E+01  0.10500000000E+00 0. -1.
</event>
<event>
11    0  0.3482988E-009  0.9118800E+02  0.7816531E-02  0.1126479E+00
         25   -1    0    0    0    0  0.00000000000E+00  0.00000000000E+00  0.99999998245E-14  0.12500000000E+03  0.12500000000E+03 0.  0.
    3000001    1    3    3    0    0  0.10959766372E+02  0.32292705282E+02  0.44879739110E+01  0.34410422886E+02  0.10000000000E+01 0. -1.
    1000022    2    1    0    0    0  0.25475986557E+02  0.54475918445E+02  0.13769473768E+02  0.62499999853E+02  0.99999996150E+01 0.  0.
    3000022    2    3    3    0    0  0.14516220185E+02  0.22183213162E+02  0.92814998567E+01  0.28089576966E+02  0.24999979957E+00 0.  0.
    1000022    2    1    0    0    0 -0.25475986557E+02 -0.54475918445E+02 -0.13769473768E+02  0.62500000147E+02  0.10000001456E+02 0.  0.
    3000022    2    5    5    0    0 -0.21566824018E+02 -0.35709334959E+02 -0.82337191020E+01  0.42522242836E+02  0.25000817656E+00 0.  0.
        -13    1    4    4    0    0  0.50004420621E+01  0.77069535770E+01  0.31710221669E+01  0.97194629912E+01  0.10500000000E+00 0.  1.
         13    1    4    4    0    0  0.95157781231E+01  0.14476259585E+02  0.61104776898E+01  0.18370113975E+02  0.10500000000E+00 0. -1.
    3000001    1    5    5    0    0 -0.39091625394E+01 -0.18766583486E+02 -0.55357546656E+01  0.19977757312E+02  0.10000000000E+01 0.  1.
        -13    1    6    6    0    0 -0.11638193752E+02 -0.19143233897E+02 -0.44369604417E+01  0.22838752173E+02  0.10500000000E+00 0. -1.
         13    1    6    6    0    0 -0.99286302658E+01 -0.16566101062E+02 -0.37967586604E+01  0.19683490663E+02  0.10500000000E+00 0.  1.
</event>
<event>
11    0  0.3482988E-009  0.9118800E+02  0.7816531E-02  0.1126479E+00
         25   -1    0    0    0    0  0.00000000000E+00  0.00000000000E+00  0.99999998245E-14  0.12500000000E+03  0.12500000000E+03 0.  0.
    3000001    1    3    3    0    0 -0.27134009684E+02  0.19489700688E+02 -0.19278005972E+01  0.33478639901E+02  0.10000000000E+01 0.  1.
    1000022    2    1    0    0    0 -0.54481845187E+02  0.28946584059E+02  0.27220403254E+00  0.62499998651E+02  0.99999776335E+01 0.  0.
    3000022    2    3    3    0    0 -0.27347835503E+02  0.94568833716E+01  0.22000046297E+01  0.29021358751E+02  0.24998714783E+00 0.  0.
    1000022    2    1    0    0    0  0.54481845187E+02 -0.28946584059E+02 -0.27220403254E+00  0.62500001349E+02  0.99999944928E+01 0.  0.
    3000022    2    5    5    0    0  0.52980082559E+02 -0.29423943509E+02  0.67528781317E-01  0.60603008618E+02  0.24998778135E+00 0.  0.
        -13    1    4    4    0    0 -0.19805179827E+02  0.68345798516E+01  0.16288053449E+01  0.21014772461E+02  0.10500000000E+00 0.  1.
         13    1    4    4    0    0 -0.75426556761E+01  0.26223035201E+01  0.57119928480E+00  0.80065862902E+01  0.10500000000E+00 0. -1.
    3000001    1    5    5    0    0  0.15017626279E+01  0.47735944909E+00 -0.33973281385E+00  0.18969927303E+01  0.10000000000E+01 0. -1.
        -13    1    6    6    0    0  0.13234557376E+02 -0.73467647437E+01  0.42881848890E-01  0.15137414739E+02  0.10500000000E+00 0.  1.
         13    1    6    6    0    0  0.39745525184E+02 -0.22077178765E+02  0.24646932427E-01  0.45465593879E+02  0.10500000000E+00 0. -1.
</event>
<event>
11    0  0.3482988E-009  0.9118800E+02  0.7816531E-02  0.1126479E+00
         25   -1    0    0    0    0  0.00000000000E+00  0.00000000000E+00  0.99999998245E-14  0.12500000000E+03  0.12500000000E+03 0.  0.
    3000001    1    3    3    0    0 -0.28893058461E+01  0.17652579578E+01 -0.10649656637E+02  0.11219599388E+02  0.10000000000E+01 0. -1.
    1000022    2    1    0    0    0 -0.33225255886E+02  0.16131078126E+02 -0.49417817594E+02  0.62499999754E+02  0.99999981612E+01 0.  0.
    3000022    2    3    3    0    0 -0.30335950040E+02  0.14365820168E+02 -0.38768160957E+02  0.51280400366E+02  0.25000754855E+00 0.  0.
    1000022    2    1    0    0    0  0.33225255886E+02 -0.16131078126E+02  0.49417817594E+02  0.62500000246E+02  0.10000001239E+02 0.  0.
    3000022    2    5    5    0    0  0.57728859787E+01 -0.33674754233E+01  0.36583570760E+01  0.76231344973E+01  0.24999963893E+00 0.  0.
        -13    1    4    4    0    0 -0.18607572706E+02  0.88512471647E+01 -0.23875666573E+02  0.31537990070E+02  0.10500000000E+00 0. -1.
         13    1    4    4    0    0 -0.11728377334E+02  0.55145730033E+01 -0.14892494385E+02  0.19742410296E+02  0.10500000000E+00 0.  1.
    3000001    1    5    5    0    0  0.27452369908E+02 -0.12763602702E+02  0.45759460518E+02  0.54876865749E+02  0.10000000000E+01 0.  1.
        -13    1    6    6    0    0  0.16944743706E+01 -0.10074106629E+01  0.11271894110E+01  0.22732577075E+01  0.10500000000E+00 0. -1.
         13    1    6    6    0    0  0.40784116081E+01 -0.23600647604E+01  0.25311676649E+01  0.53498767898E+01  0.10500000000E+00 0.  1.
</event>
<event>
11    0  0.3482988E-009  0.9118800E+02  0.7816531E-02  0.1126479E+00
         25   -1    0    0    0    0  0.00000000000E+00  0.00000000000E+00  0.99999998245E-14  0.12500000000E+03  0.12500000000E+03 0.  0.
    3000001    1    3    3    0    0  0.25690318605E+02  0.20262230961E+02  0.41443251476E+01  0.32995846777E+02  0.10000000000E+01 0.  1.
    1000022    2    1    0    0    0  0.52560496591E+02  0.30423296328E+02  0.10865867934E+02  0.62500005701E+02  0.10000043264E+02 0.  0.
    3000022    2    3    3    0    0  0.26870177986E+02  0.10161065367E+02  0.67215427868E+01  0.29504158924E+02  0.25008403066E+00 0.  0.
    1000022    2    1    0    0    0 -0.52560496591E+02 -0.30423296328E+02 -0.10865867934E+02  0.62499994299E+02  0.99999720028E+01 0.  0.
    3000022    2    5    5    0    0 -0.20936598324E+02 -0.74628919146E+01 -0.65287873333E+01  0.23167293138E+02  0.25000443986E+00 0.  0.
        -13    1    4    4    0    0  0.10583174565E+02  0.40637862625E+01  0.26277176636E+01  0.11637605758E+02  0.10500000000E+00 0. -1.
         13    1    4    4    0    0  0.16287003420E+02  0.60972791043E+01  0.40938251232E+01  0.17866553166E+02  0.10500000000E+00 0.  1.
    3000001    1    5    5    0    0 -0.31623898267E+02 -0.22960404414E+02 -0.43370806010E+01  0.39332701161E+02  0.10000000000E+01 0. -1.
        -13    1    6    6    0    0 -0.82241551822E+01 -0.29689427454E+01 -0.26219928638E+01  0.91289222291E+01  0.10500000000E+00 0.  1.
         13    1    6    6    0    0 -0.12712443142E+02 -0.44939491691E+01 -0.39067944695E+01  0.14038370909E+02  0.10500000000E+00 0. -1.
</event>
<event>
11    0  0.3482988E-009  0.9118800E+02  0.7816531E-02  0.1126479E+00
         25   -1    0    0    0    0  0.00000000000E+00  0.00000000000E+00  0.99999998245E-14  0.12500000000E+03  0.12500000000E+03 0.  0.
    3000001    1    3    3    0    0 -0.81438172665E+01 -0.14680980182E+02 -0.10003731786E+02  0.19568535674E+02  0.10000000000E+01 0. -1.
    1000022    2    1    0    0    0 -0.27630653803E+02 -0.51999875284E+02 -0.18406794123E+02  0.62500000622E+02  0.99999974358E+01 0.  0.
    3000022    2    3    3    0    0 -0.19486836536E+02 -0.37318895102E+02 -0.84030623373E+01  0.42931464948E+02  0.24999221423E+00 0.  0.
    1000022    2    1    0    0    0  0.27630653803E+02  0.51999875284E+02  0.18406794123E+02  0.62499999378E+02  0.99999896597E+01 0.  0.
    3000022    2    5    5    0    0  0.15230633024E+02  0.33207995237E+02  0.15828658429E+02  0.39816479927E+02  0.25003226529E+00 0.  0.
        -13    1    4    4    0    0 -0.54452657967E+01 -0.10391563287E+02 -0.23056224398E+01  0.11956689633E+02  0.10500000000E+00 0. -1.
         13    1    4    4    0    0 -0.14041570740E+02 -0.26927331815E+02 -0.60974398975E+01  0.30974775315E+02  0.10500000000E+00 0.  1.
    3000001    1    5    5    0    0  0.12400020779E+02  0.18791880048E+02  0.25781356942E+01  0.22683519451E+02  0.10000000000E+01 0. -1.
        -13    1    6    6    0    0  0.95783795448E+01  0.20993851503E+02  0.10038780526E+02  0.25164961655E+02  0.10500000000E+00 0.  1.
         13    1    6    6    0    0  0.56522534791E+01  0.12214143734E+02  0.57898779027E+01  0.14651518272E+02  0.10500000000E+00 0. -1.
</event>
<event>
11    0  0.3482988E-009  0.9118800E+02  0.7816531E-02  0.1126479E+00
         25   -1    0    0    0    0  0.00000000000E+00  0.00000000000E+00  0.99999998245E-14  0.12500000000E+03  0.12500000000E+03 0.  0.
    3000001    1    3    3    0    0  0.36913395377E+01 -0.21962959368E+01  0.64634981053E+00  0.44572941907E+01  0.10000000000E+01 0. -1.
    1000022    2    1    0    0    0  0.49945219109E+02 -0.27017138285E+02 -0.24120515634E+02  0.62500000194E+02  0.10000003840E+02 0.  0.
    3000022    2    3    3    0    0  0.46253879572E+02 -0.24820842348E+02 -0.24766865444E+02  0.58042706003E+02  0.25001184486E+00 0.  0.
    1000022    2    1    0    0    0 -0.49945219109E+02  0.27017138285E+02  0.24120515634E+02  0.62499999806E+02  0.10000001417E+02 0.  0.
    3000022    2    5    5    0    0 -0.18441201845E+02  0.10486093199E+02  0.14276900393E+02  0.25572025093E+02  0.25001290136E+00 0.  0.
        -13    1    4    4    0    0  0.30512365932E+02 -0.16313814888E+02 -0.16307319508E+02  0.38250290529E+02  0.10500000000E+00 0. -1.
         13    1    4    4    0    0  0.15741513639E+02 -0.85070274603E+01 -0.84595459366E+01  0.19792415475E+02  0.10500000000E+00 0.  1.
    3000001    1    5    5    0    0 -0.31504017264E+02  0.16531045086E+02  0.98436152413E+01  0.36927974714E+02  0.10000000000E+01 0.  1.
        -13    1    6    6    0    0 -0.76778316862E+01  0.43323620064E+01  0.58637457324E+01  0.10588342598E+02  0.10500000000E+00 0. -1.
         13    1    6    6    0    0 -0.10763370159E+02  0.61537311925E+01  0.84131546602E+01  0.14983682495E+02  0.10500000000E+00 0.  1.
</event>
<event>
11    0  0.3482988E-009  0.9118800E+02  0.7816531E-02  0.1126479E+00
         25   -1    0    0    0    0  0.00000000000E+00  0.00000000000E+00  0.99999998245E-14  0.12500000000E+03  0.12500000000E+03 0.  0.
    3000001    1    3    3    0    0  0.57497821393E+01  0.15426535185E+02  0.42436721950E-01  0.16493628568E+02  0.10000000000E+01 0.  1.
    1000022    2    1    0    0    0  0.22356466406E+02  0.55262730828E+02 -0.15889269518E+02  0.62499999984E+02  0.10000005170E+02 0.  0.
    3000022    2    3    3    0    0  0.16606684267E+02  0.39836195644E+02 -0.15931706240E+02  0.46006371416E+02  0.25000295526E+00 0.  0.
    1000022    2    1    0    0    0 -0.22356466406E+02 -0.55262730828E+02  0.15889269518E+02  0.62500000016E+02  0.10000005372E+02 0.  0.
    3000022    2    5    5    0    0 -0.17779570047E+02 -0.31031844509E+02  0.91732261979E+01  0.36922879968E+02  0.25000309603E+00 0.  0.
        -13    1    4    4    0    0  0.50418191248E+01  0.12053436790E+02 -0.48697759638E+01  0.13943852462E+02  0.10500000000E+00 0.  1.
         13    1    4    4    0    0  0.11564865142E+02  0.27782758853E+02 -0.11061930276E+02  0.32062518954E+02  0.10500000000E+00 0. -1.
    3000001    1    5    5    0    0 -0.45768963596E+01 -0.24230886319E+02  0.67160433199E+01  0.25577120048E+02  0.10000000000E+01 0. -1.
        -13    1    6    6    0    0 -0.86599196038E+01 -0.14993481826E+02  0.44728910574E+01  0.17883413662E+02  0.10500000000E+00 0. -1.
         13    1    6    6    0    0 -0.91196504428E+01 -0.16038362683E+02  0.47003351405E+01  0.19039466305E+02  0.10500000000E+00 0.  1.
</event>
<event>
11    0  0.3482988E-009  0.9118800E+02  0.7816531E-02  0.1126479E+00
         25   -1    0    0    0    0  0.00000000000E+00  0.00000000000E+00  0.99999998245E-14  0.12500000000E+03  0.12500000000E+03 0.  0.
    3000001    1    3    3    0    0  0.14082554727E+02 -0.18516500475E+02  0.41776540502E+02  0.47827382050E+02  0.10000000000E+01 0.  1.
    1000022    2    1    0    0    0  0.20417440657E+02 -0.19100517158E+02  0.54995896141E+02  0.62500000027E+02  0.99999886184E+01 0.  0.
    3000022    2    3    3    0    0  0.63348859302E+01 -0.58401668351E+00  0.13219355639E+02  0.14672617977E+02  0.24999911133E+00 0.  0.
    1000022    2    1    0    0    0 -0.20417440657E+02  0.19100517158E+02 -0.54995896141E+02  0.62499999973E+02  0.99999882779E+01 0.  0.
    3000022    2    5    5    0    0 -0.11425704360E+02  0.60876605020E+01 -0.17311232673E+02  0.21618223829E+02  0.24998870742E+00 0.  0.
        -13    1    4    4    0    0  0.16187679145E+01 -0.12208173118E+00  0.33517773104E+01  0.37256878088E+01  0.10500000000E+00 0. -1.
         13    1    4    4    0    0  0.47161180157E+01 -0.46193495232E+00  0.98675783285E+01  0.10946930168E+02  0.10500000000E+00 0.  1.
    3000001    1    5    5    0    0 -0.89917362975E+01  0.13012856656E+02 -0.37684663467E+02  0.40881776144E+02  0.10000000000E+01 0. -1.
        -13    1    6    6    0    0 -0.35635892701E+01  0.19390695962E+01 -0.54825140135E+01  0.68211541761E+01  0.10500000000E+00 0.  1.
         13    1    6    6    0    0 -0.78621150895E+01  0.41485909058E+01 -0.11828718660E+02  0.14797069653E+02  0.10500000000E+00 0. -1.
</event>
<event>
11    0  0.3482988E-009  0.9118800E+02  0.7816531E-02  0.1126479E+00
         25   -1    0    0    0    0  0.00000000000E+00  0.00000000000E+00  0.99999998245E-14  0.12500000000E+03  0.12500000000E+03 0.  0.
    3000001    1    3    3    0    0 -0.10475426607E+02 -0.20152657953E+02 -0.62568466499E+01  0.23579913383E+02  0.10000000000E+01 0. -1.
    1000022    2    1    0    0    0 -0.36728292585E+02 -0.48758997556E+02 -0.89354822423E+01  0.62500001030E+02  0.99999983468E+01 0.  0.
    3000022    2    3    3    0    0 -0.26252865978E+02 -0.28606339603E+02 -0.26786355923E+01  0.38920087647E+02  0.24999242787E+00 0.  0.
    1000022    2    1    0    0    0  0.36728292585E+02  0.48758997556E+02  0.89354822423E+01  0.62499998970E+02  0.99999854701E+01 0.  0.
    3000022    2    5    5    0    0  0.15373352117E+02  0.28615247105E+02  0.46519956105E+01  0.32815787301E+02  0.25002171235E+00 0.  0.
        -13    1    4    4    0    0 -0.19773654753E+02 -0.21573662524E+02 -0.20342312700E+01  0.29335464183E+02  0.10500000000E+00 0.  1.
         13    1    4    4    0    0 -0.64792112259E+01 -0.70326770794E+01 -0.64440432237E+00  0.95846234638E+01  0.10500000000E+00 0. -1.
    3000001    1    5    5    0    0  0.21354940469E+02  0.20143750451E+02  0.42834866318E+01  0.29684211669E+02  0.10000000000E+01 0.  1.
        -13    1    6    6    0    0  0.92986312745E+01  0.17359095336E+02  0.27620391922E+01  0.19885739110E+02  0.10500000000E+00 0.  1.
         13    1    6    6    0    0  0.60747208421E+01  0.11256151769E+02  0.18899564184E+01  0.12930048191E+02  0.10500000000E+00 0. -1.
</event>
<event>
11    0  0.3482988E-009  0.9118800E+02  0.7816531E-02  0.1126479E+00
         25   -1    0    0    0    0  0.00000000000E+00  0.00000000000E+00  0.99999998245E-14  0.12500000000E+03  0.12500000000E+03 0.  0.
    3000001    1    3    3    0    0  0.19001829161E+02 -0.12108261385E+02  0.52000515528E+01  0.23145626831E+02  0.10000000000E+01 0.  1.
    1000022    2    1    0    0    0  0.45655017243E+02 -0.32668023083E+02  0.25586523228E+02  0.62500003500E+02  0.99999967524E+01 0.  0.
    3000022    2    3    3    0    0  0.26653188082E+02 -0.20559761698E+02  0.20386471675E+02  0.39354376670E+02  0.24999938301E+00 0.  0.
    1000022    2    1    0    0    0 -0.45655017243E+02  0.32668023083E+02 -0.25586523228E+02  0.62499996500E+02  0.99999529981E+01 0.  0.
    3000022    2    5    5    0    0 -0.23865878919E+02  0.20934642486E+02 -0.10216757694E+02  0.33350923415E+02  0.25004451810E+00 0.  0.
        -13    1    4    4    0    0  0.13703766495E+02 -0.10503204060E+02  0.10505223623E+02  0.20210919327E+02  0.10500000000E+00 0.  1.
         13    1    4    4    0    0  0.12949421587E+02 -0.10056557638E+02  0.98812480519E+01  0.19143457342E+02  0.10500000000E+00 0. -1.
    3000001    1    5    5    0    0 -0.21789138324E+02  0.11733380597E+02 -0.15369765534E+02  0.29149073085E+02  0.10000000000E+01 0.  1.
        -13    1    6    6    0    0 -0.15379471018E+02  0.13519567901E+02 -0.65341392884E+01  0.21494484089E+02  0.10500000000E+00 0. -1.
         13    1    6    6    0    0 -0.84864079008E+01  0.74150745855E+01 -0.36826184057E+01  0.11856439326E+02  0.10500000000E+00 0.  1.
</event>
<event>
11    0  0.3482988E-009  0.9118800E+02  0.7816531E-02  0.1126479E+00
         25   -1    0    0    0    0  0.00000000000E+00  0.00000000000E+00  0.99999998245E-14  0.12500000000E+03  0.12500000000E+03 0.  0.
    3000001    1    3    3    0    0  0.42631973412E+02  0.35779396968E+02  0.14874762462E+02  0.57618651170E+02  0.10000000000E+01 0. -1.
    1000022    2    1    0    0    0  0.46766850910E+02  0.37926947404E+02  0.13440929730E+02  0.62499998780E+02  0.99999786028E+01 0.  0.
    3000022    2    3    3    0    0  0.41348774984E+01  0.21475504357E+01 -0.14338327322E+01  0.48813476095E+01  0.24998676105E+00 0.  0.
    1000022    2    1    0    0    0 -0.46766850910E+02 -0.37926947404E+02 -0.13440929730E+02  0.62500001220E+02  0.99999938536E+01 0.  0.
    3000022    2    5    5    0    0 -0.11052856365E+02 -0.13976977619E+02 -0.16304579433E+01  0.17895318698E+02  0.25000201740E+00 0.  0.
        -13    1    4    4    0    0  0.24791357600E+01  0.12740897530E+01 -0.79241830043E+00  0.28997190516E+01  0.10500000000E+00 0. -1.
         13    1    4    4    0    0  0.16557417384E+01  0.87346068268E+00 -0.64141443180E+00  0.19816285580E+01  0.10500000000E+00 0.  1.
    3000001    1    5    5    0    0 -0.35713994545E+02 -0.23949969784E+02 -0.11810471787E+02  0.44604682522E+02  0.10000000000E+01 0. -1.
        -13    1    6    6    0    0 -0.54792589086E+01 -0.70348463753E+01 -0.83258388359E+00  0.89563141210E+01  0.10500000000E+00 0.  1.
         13    1    6    6    0    0 -0.55735974564E+01 -0.69421312441E+01 -0.79787405974E+00  0.89390045772E+01  0.10500000000E+00 0. -1.
</event>
<event>
11    0  0.3482988E-009  0.9118800E+02  0.7816531E-02  0.1126479E+00
         25   -1    0    0    0    0  0.00000000000E+00  0.00000000000E+00  0.99999998245E-14  0.12500000000E+03  0.12500000000E+03 0.  0.
    3000001    1    3    3    0    0 -0.12830108990E+02  0.75514795494E+01 -0.20880351607E+02  0.25663702447E+02  0.10000000000E+01 0. -1.
    1000022    2    1    0    0    0 -0.28774779099E+02  0.28995233400E+02 -0.46233519041E+02  0.62499998221E+02  0.10000001131E+02 0.  0.
    3000022    2    3    3    0    0 -0.15944670109E+02  0.21443753850E+02 -0.25353167434E+02  0.36836295774E+02  0.25000661483E+00 0.  0.
    1000022    2    1    0    0    0  0.28774779099E+02 -0.28995233400E+02  0.46233519041E+02  0.62500001779E+02  0.10000023370E+02 0.  0.
    3000022    2    5    5    0    0  0.14946283786E+02 -0.13674409635E+02  0.15694100469E+02  0.25627098311E+02  0.25000089260E+00 0.  0.
        -13    1    4    4    0    0 -0.53763567339E+01  0.71491750680E+01 -0.85190446368E+01  0.12353180255E+02  0.10500000000E+00 0.  1.
         13    1    4    4    0    0 -0.10568313375E+02  0.14294578782E+02 -0.16834122797E+02  0.24483115519E+02  0.10500000000E+00 0. -1.
    3000001    1    5    5    0    0  0.13828495313E+02 -0.15320823765E+02  0.30539418572E+02  0.36872903468E+02  0.10000000000E+01 0.  1.
        -13    1    6    6    0    0  0.73679694407E+01 -0.67511518002E+01  0.78271909204E+01  0.12694131204E+02  0.10500000000E+00 0. -1.
         13    1    6    6    0    0  0.75783143453E+01 -0.69232578347E+01  0.78669095488E+01  0.12932967108E+02  0.10500000000E+00 0.  1.
</event>
<event>
11    0  0.3482988E-009  0.9118800E+02  0.7816531E-02  0.1126479E+00
         25   -1    0    0    0    0  0.00000000000E+00  0.00000000000E+00  0.99999998245E-14  0.12500000000E+03  0.12500000000E+03 0.  0.
    3000001    1    3    3    0    0 -0.16242275392E+01  0.34412887389E+02  0.15493335982E+02  0.37787939788E+02  0.10000000000E+01 0. -1.
    1000022    2    1    0    0    0 -0.29753715203E+01  0.58970526499E+02  0.17885024381E+02  0.62499999623E+02  0.10000001224E+02 0.  0.
    3000022    2    3    3    0    0 -0.13511439810E+01  0.24557639110E+02  0.23916883984E+01  0.24712059835E+02  0.24999834396E+00 0.  0.
    1000022    2    1    0    0    0  0.29753715203E+01 -0.58970526499E+02 -0.17885024381E+02  0.62500000377E+02  0.10000005940E+02 0.  0.
    3000022    2    5    5    0    0  0.22667647766E+00 -0.30538673501E+02 -0.14204047036E+02  0.33682034045E+02  0.25000747855E+00 0.  0.
        -13    1    4    4    0    0 -0.64889222162E+00  0.12899226557E+02  0.12856233558E+01  0.12979790418E+02  0.10500000000E+00 0. -1.
         13    1    4    4    0    0 -0.70225175942E+00  0.11658412554E+02  0.11060650426E+01  0.11732269418E+02  0.10500000000E+00 0.  1.
    3000001    1    5    5    0    0  0.27486950426E+01 -0.28431852998E+02 -0.36809773441E+01  0.28817966332E+02  0.10000000000E+01 0. -1.
        -13    1    6    6    0    0  0.97275567761E-01 -0.15000397692E+02 -0.70500362461E+01  0.16575144932E+02  0.10500000000E+00 0.  1.
         13    1    6    6    0    0  0.12940090989E+00 -0.15538275810E+02 -0.71540107903E+01  0.17106889113E+02  0.10500000000E+00 0. -1.
</event>
<event>
11    0  0.3482988E-009  0.9118800E+02  0.7816531E-02  0.1126479E+00
         25   -1    0    0    0    0  0.00000000000E+00  0.00000000000E+00  0.99999998245E-14  0.12500000000E+03  0.12500000000E+03 0.  0.
    3000001    1    3    3    0    0 -0.34656316408E+02  0.15970491576E+02  0.17967005935E+02  0.42189218651E+02  0.10000000000E+01 0. -1.
    1000022    2    1    0    0    0 -0.50143715830E+02  0.28510050491E+02  0.21886863961E+02  0.62500000659E+02  0.10000002607E+02 0.  0.
    3000022    2    3    3    0    0 -0.15487399422E+02  0.12539558915E+02  0.39198580256E+01  0.20310782008E+02  0.25000037560E+00 0.  0.
    1000022    2    1    0    0    0  0.50143715830E+02 -0.28510050491E+02 -0.21886863961E+02  0.62499999341E+02  0.99999943659E+01 0.  0.
    3000022    2    5    5    0    0  0.34283909411E+02 -0.22297500195E+02 -0.11339502605E+02  0.42440685484E+02  0.25001118349E+00 0.  0.
        -13    1    4    4    0    0 -0.95032937089E+01  0.77729313222E+01  0.24212057072E+01  0.12514164564E+02  0.10500000000E+00 0.  1.
         13    1    4    4    0    0 -0.59841057135E+01  0.47666275930E+01  0.14986523184E+01  0.77966174443E+01  0.10500000000E+00 0. -1.
    3000001    1    5    5    0    0  0.15859806419E+02 -0.62125502955E+01 -0.10547361355E+02  0.20059313856E+02  0.10000000000E+01 0.  1.
        -13    1    6    6    0    0  0.92823921038E+01 -0.60581161909E+01 -0.30404277530E+01  0.11494294275E+02  0.10500000000E+00 0.  1.
         13    1    6    6    0    0  0.25001517307E+02 -0.16239384005E+02 -0.82990748524E+01  0.30946391210E+02  0.10500000000E+00 0. -1.
</event>
<event>
11    0  0.3482988E-009  0.9118800E+02  0.7816531E-02  0.1126479E+00
         25   -1    0    0    0    0  0.00000000000E+00  0.00000000000E+00  0.99999998245E-14  0.12500000000E+03  0.12500000000E+03 0.  0.
    3000001    1    3    3    0    0  0.91580632969E+01  0.93253672813E+01 -0.19446681422E+02  0.23452207073E+02  0.10000000000E+01 0.  1.
    1000022    2    1    0    0    0  0.13771665408E+02  0.19898092219E+02 -0.56750833981E+02  0.62499999987E+02  0.99999999353E+01 0.  0.
    3000022    2    3    3    0    0  0.46136021109E+01  0.10572724938E+02 -0.37304152560E+02  0.39047792914E+02  0.24999238449E+00 0.  0.
    1000022    2    1    0    0    0 -0.13771665408E+02 -0.19898092219E+02  0.56750833981E+02  0.62500000013E+02  0.10000000100E+02 0.  0.
    3000022    2    5    5    0    0 -0.11507854962E+02 -0.10497072587E+02  0.26659562494E+02  0.30877403226E+02  0.24999772571E+00 0.  0.
        -13    1    4    4    0    0  0.20126307188E+01  0.45289308197E+01 -0.15837013179E+02  0.16594695183E+02  0.10500000000E+00 0.  1.
         13    1    4    4    0    0  0.26009713920E+01  0.60437941184E+01 -0.21467139380E+02  0.22453097731E+02  0.10500000000E+00 0. -1.
    3000001    1    5    5    0    0 -0.22638104456E+01 -0.94010196328E+01  0.30091271487E+02  0.31622596787E+02  0.10000000000E+01 0.  1.
        -13    1    6    6    0    0 -0.35002125913E+01 -0.31420135246E+01  0.79975248393E+01  0.92787480690E+01  0.10500000000E+00 0.  1.
         13    1    6    6    0    0 -0.80076423709E+01 -0.73550590620E+01  0.18662037655E+02  0.21598655157E+02  0.10500000000E+00 0. -1.
</event>
<event>
11    0  0.3482988E-009  0.9118800E+02  0.7816531E-02  0.1126479E+00
         25   -1    0    0    0    0  0.00000000000E+00  0.00000000000E+00  0.99999998245E-14  0.12500000000E+03  0.12500000000E+03 0.  0.
    3000001    1    3    3    0    0 -0.16888137407E+02  0.49396872161E+02  0.19200132993E+02  0.55631872800E+02  0.10000000000E+01 0.  1.
    1000022    2    1    0    0    0 -0.17698454593E+02  0.53846871636E+02  0.24362451754E+02  0.62499998710E+02  0.99999951663E+01 0.  0.
    3000022    2    3    3    0    0 -0.81031718579E+00  0.44499994753E+01  0.51623187604E+01  0.68681259093E+01  0.25001849998E+00 0.  0.
    1000022    2    1    0    0    0  0.17698454593E+02 -0.53846871636E+02 -0.24362451754E+02  0.62500001290E+02  0.10000011295E+02 0.  0.
    3000022    2    5    5    0    0  0.14897139522E+02 -0.49898004211E+02 -0.24508617252E+02  0.57554065139E+02  0.25000833510E+00 0.  0.
        -13    1    4    4    0    0 -0.18338617162E+00  0.11753261699E+01  0.13399837335E+01  0.17948825866E+01  0.10500000000E+00 0. -1.
         13    1    4    4    0    0 -0.62693101417E+00  0.32746733054E+01  0.38223350269E+01  0.50732433227E+01  0.10500000000E+00 0. -1.
    3000001    1    5    5    0    0  0.28013150710E+01 -0.39488674246E+01  0.14616549848E+00  0.49459361518E+01  0.10000000000E+01 0. -1.
        -13    1    6    6    0    0  0.47232629687E+01 -0.15655708925E+02 -0.77126078182E+01  0.18080535926E+02  0.10500000000E+00 0. -1.
         13    1    6    6    0    0  0.10173876553E+02 -0.34242295287E+02 -0.16796009434E+02  0.39473529213E+02  0.10500000000E+00 0.  1.
</event>
<event>
11    0  0.3482988E-009  0.9118800E+02  0.7816531E-02  0.1126479E+00
         25   -1    0    0    0    0  0.00000000000E+00  0.00000000000E+00  0.99999998245E-14  0.12500000000E+03  0.12500000000E+03 0.  0.
    3000001    1    3    3    0    0  0.10922431514E+02 -0.24194402135E+01 -0.28122499927E+02  0.30282473533E+02  0.10000000000E+01 0.  1.
    1000022    2    1    0    0    0  0.15906806561E+02 -0.12738979257E+02 -0.58231794003E+02  0.62499999323E+02  0.99999997513E+01 0.  0.
    3000022    2    3    3    0    0  0.49843750473E+01 -0.10319539043E+02 -0.30109294076E+02  0.32217525790E+02  0.24999515565E+00 0.  0.
    1000022    2    1    0    0    0 -0.15906806561E+02  0.12738979257E+02  0.58231794003E+02  0.62500000677E+02  0.10000008218E+02 0.  0.
    3000022    2    5    5    0    0  0.66485812733E+00 -0.93944235726E+00  0.34966201092E+01  0.36896397738E+01  0.25000240046E+00 0.  0.
        -13    1    4    4    0    0  0.34149383186E+01 -0.71771634157E+01 -0.20906520949E+02  0.22366651999E+02  0.10500000000E+00 0.  1.
         13    1    4    4    0    0  0.15694367288E+01 -0.31423756276E+01 -0.92027731269E+01  0.98508737915E+01  0.10500000000E+00 0. -1.
    3000001    1    5    5    0    0 -0.16571664688E+02  0.13678421614E+02  0.54735173894E+02  0.58810360904E+02  0.10000000000E+01 0.  1.
        -13    1    6    6    0    0  0.15690542124E+00 -0.29203188545E+00  0.98757429583E+00  0.10470099919E+01  0.10500000000E+00 0. -1.
         13    1    6    6    0    0  0.50795270609E+00 -0.64741047180E+00  0.25090458133E+01  0.26426297819E+01  0.10500000000E+00 0.  1.
</event>
<event>
11    0  0.3482988E-009  0.9118800E+02  0.7816531E-02  0.1126479E+00
         25   -1    0    0    0    0  0.00000000000E+00  0.00000000000E+00  0.99999998245E-14  0.12500000000E+03  0.12500000000E+03 0.  0.
    3000001    1    3    3    0    0  0.87277545452E+01 -0.14167200730E+02 -0.27012932391E+02  0.31742428897E+02  0.10000000000E+01 0.  1.
    1000022    2    1    0    0    0  0.22084627182E+02 -0.19537321376E+02 -0.54192367929E+02  0.62500004400E+02  0.10000006194E+02 0.  0.
    3000022    2    3    3    0    0  0.13356872637E+02 -0.53701206464E+01 -0.27179435538E+02  0.30757575503E+02  0.24998449543E+00 0.  0.
    1000022    2    1    0    0    0 -0.22084627182E+02  0.19537321376E+02  0.54192367929E+02  0.62499995600E+02  0.99999511940E+01 0.  0.
    3000022    2    5    5    0    0 -0.16200109687E+02  0.78643369851E+01  0.30386660017E+02  0.35322839017E+02  0.24999823297E+00 0.  0.
        -13    1    4    4    0    0  0.44996559015E+01 -0.17532247442E+01 -0.90865082275E+01  0.10290595561E+02  0.10500000000E+00 0.  1.
         13    1    4    4    0    0  0.88572167350E+01 -0.36168959023E+01 -0.18092927311E+02  0.20466979942E+02  0.10500000000E+00 0. -1.
    3000001    1    5    5    0    0 -0.58845174944E+01  0.11672984391E+02  0.23805707912E+02  0.27177156583E+02  0.10000000000E+01 0. -1.
        -13    1    6    6    0    0 -0.44225233766E+01  0.21220551057E+01  0.82207721659E+01  0.95736069949E+01  0.10500000000E+00 0.  1.
         13    1    6    6    0    0 -0.11777586311E+02  0.57422818794E+01  0.22165887852E+02  0.25749232022E+02  0.10500000000E+00 0. -1.
</event>
<event>
11    0  0.3482988E-009  0.9118800E+02  0.7816531E-02  0.1126479E+00
         25   -1    0    0    0    0  0.00000000000E+00  0.00000000000E+00  0.99999998245E-14  0.12500000000E+03  0.12500000000E+03 0.  0.
    3000001    1    3    3    0    0  0.15894273724E+01 -0.80918099707E+01  0.40531853887E+02  0.41374325946E+02  0.10000000000E+01 0.  1.
    1000022    2    1    0    0    0 -0.45850602339E+01 -0.11316600943E+02  0.60474472716E+02  0.62499999342E+02  0.99999916613E+01 0.  0.
    3000022    2    3    3    0    0 -0.61744876063E+01 -0.32247909721E+01  0.19942618829E+02  0.21125673396E+02  0.24991330427E+00 0.  0.
    1000022    2    1    0    0    0  0.45850602339E+01  0.11316600943E+02 -0.60474472716E+02  0.62500000658E+02  0.99999998870E+01 0.  0.
    3000022    2    5    5    0    0  0.45109589314E+01  0.46474272452E+01 -0.46865790229E+02  0.47311860290E+02  0.24999964765E+00 0.  0.
        -13    1    4    4    0    0 -0.34305913295E+01 -0.18228893569E+01  0.11302408870E+02  0.11951876578E+02  0.10500000000E+00 0. -1.
         13    1    4    4    0    0 -0.27438962769E+01 -0.14019016152E+01  0.86402099590E+01  0.91737968177E+01  0.10500000000E+00 0.  1.
    3000001    1    5    5    0    0  0.74101302570E-01  0.66691736976E+01 -0.13608682487E+02  0.15188140368E+02  0.10000000000E+01 0. -1.
        -13    1    6    6    0    0  0.14412566683E+01  0.14220377350E+01 -0.14822551429E+02  0.14960563759E+02  0.10500000000E+00 0.  1.
         13    1    6    6    0    0  0.30697022631E+01  0.32253895102E+01 -0.32043238800E+02  0.32351296532E+02  0.10500000000E+00 0. -1.
</event>
<event>
11    0  0.3482988E-009  0.9118800E+02  0.7816531E-02  0.1126479E+00
         25   -1    0    0    0    0  0.00000000000E+00  0.00000000000E+00  0.99999998245E-14  0.12500000000E+03  0.12500000000E+03 0.  0.
    3000001    1    3    3    0    0 -0.34849890535E+01 -0.26294647022E+02 -0.23699113339E+02  0.35583726389E+02  0.10000000000E+01 0.  1.
    1000022    2    1    0    0    0 -0.53508613272E+01 -0.50896278486E+02 -0.34455579600E+02  0.62500000481E+02  0.10000010691E+02 0.  0.
    3000022    2    3    3    0    0 -0.18658722737E+01 -0.24601631464E+02 -0.10756466262E+02  0.26916274092E+02  0.24998896220E+00 0.  0.
    1000022    2    1    0    0    0  0.53508613272E+01  0.50896278486E+02  0.34455579600E+02  0.62499999519E+02  0.10000004680E+02 0.  0.
    3000022    2    5    5    0    0  0.49281555414E+01  0.40892941406E+02  0.31955692774E+02  0.52132026377E+02  0.24999936364E+00 0.  0.
        -13    1    4    4    0    0 -0.72115884330E+00 -0.10234900769E+02 -0.45100473102E+01  0.11208247658E+02  0.10500000000E+00 0. -1.
         13    1    4    4    0    0 -0.11447134304E+01 -0.14366730696E+02 -0.62464189516E+01  0.15708026433E+02  0.10500000000E+00 0.  1.
    3000001    1    5    5    0    0  0.42270578575E+00  0.10003337080E+02  0.24998868266E+01  0.10367973142E+02  0.10000000000E+01 0.  1.
        -13    1    6    6    0    0  0.14530536106E+01  0.11902967222E+02  0.92539624591E+01  0.15147238682E+02  0.10500000000E+00 0. -1.
         13    1    6    6    0    0  0.34751019309E+01  0.28989974184E+02  0.22701730315E+02  0.36984787696E+02  0.10500000000E+00 0.  1.
</event>
<event>
11    0  0.3482988E-009  0.9118800E+02  0.7816531E-02  0.1126479E+00
         25   -1    0    0    0    0  0.00000000000E+00  0.00000000000E+00  0.99999998245E-14  0.12500000000E+03  0.12500000000E+03 0.  0.
    3000001    1    3    3    0    0 -0.21678166668E+02 -0.32060877911E+00  0.42036956678E+02  0.47309105115E+02  0.10000000000E+01 0. -1.
    1000022    2    1    0    0    0 -0.32437226419E+02 -0.31187351591E+01  0.52386541531E+02  0.62500000528E+02  0.10000008283E+02 0.  0.
    3000022    2    3    3    0    0 -0.10759059751E+02 -0.27981263800E+01  0.10349584853E+02  0.15190895412E+02  0.25003768224E+00 0.  0.
    1000022    2    1    0    0    0  0.32437226419E+02  0.31187351591E+01 -0.52386541531E+02  0.62499999472E+02  0.10000001686E+02 0.  0.
    3000022    2    5    5    0    0  0.16052662926E+02 -0.56356530084E+00 -0.17417000165E+02  0.23694302972E+02  0.25001143051E+00 0.  0.
        -13    1    4    4    0    0 -0.45123153075E+01 -0.11159871379E+01  0.42825380019E+01  0.63212003183E+01  0.10500000000E+00 0.  1.
         13    1    4    4    0    0 -0.62467444431E+01 -0.16821392421E+01  0.60670468513E+01  0.88696950941E+01  0.10500000000E+00 0. -1.
    3000001    1    5    5    0    0  0.16384563493E+02  0.36823004600E+01 -0.34969541366E+02  0.38805696500E+02  0.10000000000E+01 0. -1.
        -13    1    6    6    0    0  0.54115103317E+01 -0.24428992568E+00 -0.58748521959E+01  0.79918104934E+01  0.10500000000E+00 0. -1.
         13    1    6    6    0    0  0.10641152594E+02 -0.31927537516E+00 -0.11542147969E+02  0.15702492478E+02  0.10500000000E+00 0.  1.
</event>
<event>
11    0  0.3482988E-009  0.9118800E+02  0.7816531E-02  0.1126479E+00
         25   -1    0    0    0    0  0.00000000000E+00  0.00000000000E+00  0.99999998245E-14  0.12500000000E+03  0.12500000000E+03 0.  0.
    3000001    1    3    3    0    0 -0.34819730889E+02  0.97292522856E+01 -0.47849007447E+02  0.59979992688E+02  0.10000000000E+01 0. -1.
    1000022    2    1    0    0    0 -0.37115451442E+02  0.89309967921E+01 -0.48465769138E+02  0.62500000352E+02  0.99999913221E+01 0.  0.
    3000022    2    3    3    0    0 -0.22957205536E+01 -0.79825549354E+00 -0.61676169108E+00  0.25200076643E+01  0.24999790332E+00 0.  0.
    1000022    2    1    0    0    0  0.37115451442E+02 -0.89309967921E+01  0.48465769138E+02  0.62499999648E+02  0.99999869206E+01 0.  0.
    3000022    2    5    5    0    0  0.51465115727E+01 -0.48837114607E+01  0.10751388759E+02  0.12883791386E+02  0.25000246222E+00 0.  0.
        -13    1    4    4    0    0 -0.12386339216E+01 -0.48255069626E+00 -0.38367289124E+00  0.13875514599E+01  0.10500000000E+00 0.  1.
         13    1    4    4    0    0 -0.10570866319E+01 -0.31570479729E+00 -0.23308879984E+00  0.11324562045E+01  0.10500000000E+00 0. -1.
    3000001    1    5    5    0    0  0.31968939869E+02 -0.40472853314E+01  0.37714380379E+02  0.49616208262E+02  0.10000000000E+01 0. -1.
        -13    1    6    6    0    0  0.24894688626E+01 -0.22697325807E+01  0.50919293091E+01  0.61063827504E+01  0.10500000000E+00 0. -1.
         13    1    6    6    0    0  0.26570427101E+01 -0.26139788800E+01  0.56594594499E+01  0.67774086356E+01  0.10500000000E+00 0.  1.
</event>
<event>
11    0  0.3482988E-009  0.9118800E+02  0.7816531E-02  0.1126479E+00
         25   -1    0    0    0    0  0.00000000000E+00  0.00000000000E+00  0.99999998245E-14  0.12500000000E+03  0.12500000000E+03 0.  0.
    3000001    1    3    3    0    0 -0.10421797195E+02  0.20982110295E+02 -0.16066984272E+02  0.28425530651E+02  0.10000000000E+01 0. -1.
    1000022    2    1    0    0    0 -0.15234366482E+02  0.51665146956E+02 -0.30081168693E+02  0.62499999510E+02  0.99999948344E+01 0.  0.
    3000022    2    3    3    0    0 -0.48125692874E+01  0.30683036662E+02 -0.14014184421E+02  0.34074468859E+02  0.25000224468E+00 0.  0.
    1000022    2    1    0    0    0  0.15234366482E+02 -0.51665146956E+02  0.30081168693E+02  0.62500000490E+02  0.10000000960E+02 0.  0.
    3000022    2    5    5    0    0  0.15024471629E+02 -0.40682160132E+02  0.26844437655E+02  0.51004502099E+02  0.25000133255E+00 0.  0.
        -13    1    4    4    0    0 -0.13580101302E+01  0.88846736207E+01 -0.40824754705E+01  0.98721450470E+01  0.10500000000E+00 0. -1.
         13    1    4    4    0    0 -0.34545591572E+01  0.21798363041E+02 -0.99317089502E+01  0.24202323812E+02  0.10500000000E+00 0.  1.
    3000001    1    5    5    0    0  0.20989485336E+00 -0.10982986825E+02  0.32367310373E+01  0.11495498391E+02  0.10000000000E+01 0. -1.
        -13    1    6    6    0    0  0.58439337381E+01 -0.15700588396E+02  0.10422222660E+02  0.19730529332E+02  0.10500000000E+00 0. -1.
         13    1    6    6    0    0  0.91805378909E+01 -0.24981571735E+02  0.16422214995E+02  0.31273972768E+02  0.10500000000E+00 0.  1.
</event>
<event>
11    0  0.3482988E-009  0.9118800E+02  0.7816531E-02  0.1126479E+00
         25   -1    0    0    0    0  0.00000000000E+00  0.00000000000E+00  0.99999998245E-14  0.12500000000E+03  0.12500000000E+03 0.  0.
    3000001    1    3    3    0    0  0.72659528555E+01 -0.27713586688E+01  0.28361821508E+02  0.29425625210E+02  0.10000000000E+01 0.  1.
    1000022    2    1    0    0    0  0.24924766543E+02 -0.71626451480E+01  0.55979478314E+02  0.62500004592E+02  0.10000055448E+02 0.  0.
    3000022    2    3    3    0    0  0.17658813687E+02 -0.43912864792E+01  0.27617656806E+02  0.33074379382E+02  0.25001248327E+00 0.  0.
    1000022    2    1    0    0    0 -0.24924766543E+02  0.71626451480E+01 -0.55979478314E+02  0.62499995408E+02  0.99999980536E+01 0.  0.
    3000022    2    5    5    0    0 -0.91349362525E+01  0.60073411625E+00 -0.10670948133E+02  0.14061990452E+02  0.24999922656E+00 0.  0.
        -13    1    4    4    0    0  0.51281303177E+01 -0.12844473855E+01  0.79479890218E+01  0.95461552539E+01  0.10500000000E+00 0. -1.
         13    1    4    4    0    0  0.12530683370E+02 -0.31068390937E+01  0.19669667784E+02  0.23528224128E+02  0.10500000000E+00 0.  1.
    3000001    1    5    5    0    0 -0.15789830290E+02  0.65619110317E+01 -0.45308530181E+02  0.48438004956E+02  0.10000000000E+01 0.  1.
        -13    1    6    6    0    0 -0.38429101510E+01  0.25382307838E+00 -0.43902195481E+01  0.58410133765E+01  0.10500000000E+00 0. -1.
         13    1    6    6    0    0 -0.52920261015E+01  0.34691103788E+00 -0.62807285845E+01  0.82209770757E+01  0.10500000000E+00 0.  1.
</event>
<event>
11    0  0.3482988E-009  0.9118800E+02  0.7816531E-02  0.1126479E+00
         25   -1    0    0    0    0  0.00000000000E+00  0.00000000000E+00  0.99999998245E-14  0.12500000000E+03  0.12500000000E+03 0.  0.
    3000001    1    3    3    0    0 -0.30872226642E+02  0.49824632142E+02  0.12410932721E+02  0.59921778987E+02  0.10000000000E+01 0. -1.
    1000022    2    1    0    0    0 -0.30664174542E+02  0.52257748323E+02  0.11622654564E+02  0.62499999926E+02  0.10000001579E+02 0.  0.
    3000022    2    3    3    0    0  0.20805209974E+00  0.24331161803E+01 -0.78827815630E+00  0.25782209397E+01  0.25000147760E+00 0.  0.
    1000022    2    1    0    0    0  0.30664174542E+02 -0.52257748323E+02 -0.11622654564E+02  0.62500000074E+02  0.10000002499E+02 0.  0.
    3000022    2    5    5    0    0  0.29407705214E+02 -0.45446367726E+02 -0.12161810076E+02  0.55481146216E+02  0.24999138456E+00 0.  0.
        -13    1    4    4    0    0  0.19055464894E+00  0.17082197308E+01 -0.56182827099E+00  0.18113535627E+01  0.10500000000E+00 0.  1.
         13    1    4    4    0    0  0.17497450794E-01  0.72489644954E+00 -0.22644988531E+00  0.76686737699E+00  0.10500000000E+00 0. -1.
    3000001    1    5    5    0    0  0.12564693278E+01 -0.68113805966E+01  0.53915551177E+00  0.70188538573E+01  0.10000000000E+01 0.  1.
        -13    1    6    6    0    0  0.81465515058E+01 -0.12519292070E+02 -0.33574697664E+01  0.15309559223E+02  0.10500000000E+00 0.  1.
         13    1    6    6    0    0  0.21261153709E+02 -0.32927075656E+02 -0.88043403097E+01  0.40171586994E+02  0.10500000000E+00 0. -1.
</event>
<event>
11    0  0.3482988E-009  0.9118800E+02  0.7816531E-02  0.1126479E+00
         25   -1    0    0    0    0  0.00000000000E+00  0.00000000000E+00  0.99999998245E-14  0.12500000000E+03  0.12500000000E+03 0.  0.
    3000001    1    3    3    0    0  0.72105278477E+01  0.52658791141E+01  0.10633254188E+02  0.13920750314E+02  0.10000000000E+01 0. -1.
    1000022    2    1    0    0    0  0.15977998690E+02  0.31014138361E+02  0.50882966306E+02  0.62499997176E+02  0.10000008322E+02 0.  0.
    3000022    2    3    3    0    0  0.87674708428E+01  0.25748259247E+02  0.40249712118E+02  0.48579246862E+02  0.25000161965E+00 0.  0.
    1000022    2    1    0    0    0 -0.15977998690E+02 -0.31014138361E+02 -0.50882966306E+02  0.62500002824E+02  0.10000043620E+02 0.  0.
    3000022    2    5    5    0    0 -0.37203784173E+01 -0.59557268689E+01 -0.44335451439E+01  0.83084724191E+01  0.24998658011E+00 0.  0.
        -13    1    4    4    0    0  0.49785818521E+01  0.14495112799E+02  0.22586219911E+02  0.27295474482E+02  0.10500000000E+00 0.  1.
         13    1    4    4    0    0  0.37888889907E+01  0.11253146448E+02  0.17663492207E+02  0.21283772380E+02  0.10500000000E+00 0. -1.
    3000001    1    5    5    0    0 -0.12257620273E+02 -0.25058411493E+02 -0.46449421162E+02  0.54191530405E+02  0.10000000000E+01 0.  1.
        -13    1    6    6    0    0 -0.16403891030E+01 -0.27362821037E+01 -0.19757646788E+01  0.37540361248E+01  0.10500000000E+00 0. -1.
         13    1    6    6    0    0 -0.20799893143E+01 -0.32194447652E+01 -0.24577804651E+01  0.45544362943E+01  0.10500000000E+00 0.  1.
</event>
<event>
11    0  0.3482988E-009  0.9118800E+02  0.7816531E-02  0.1126479E+00
         25   -1    0    0    0    0  0.00000000000E+00  0.00000000000E+00  0.99999998245E-14  0.12500000000E+03  0.12500000000E+03 0.  0.
    3000001    1    3    3    0    0 -0.13596572216E+02  0.20816753185E+02  0.18100966037E+02  0.30770910950E+02  0.10000000000E+01 0. -1.
    1000022    2    1    0    0    0 -0.34310299423E+02  0.34841352934E+02  0.37618254999E+02  0.62499997911E+02  0.10000005448E+02 0.  0.
    3000022    2    3    3    0    0 -0.20713727207E+02  0.14024599749E+02  0.19517288961E+02  0.31729086962E+02  0.24999614820E+00 0.  0.
    1000022    2    1    0    0    0  0.34310299423E+02 -0.34841352934E+02 -0.37618254999E+02  0.62500002089E+02  0.10000031556E+02 0.  0.
    3000022    2    5    5    0    0  0.11353795448E+02 -0.18106159504E+02 -0.14089447514E+02  0.25599154462E+02  0.24998971891E+00 0.  0.
        -13    1    4    4    0    0 -0.54390806195E+01  0.36678175960E+01  0.51573055097E+01  0.83453765058E+01  0.10500000000E+00 0. -1.
         13    1    4    4    0    0 -0.15274646588E+02  0.10356782154E+02  0.14359983452E+02  0.23383710456E+02  0.10500000000E+00 0.  1.
    3000001    1    5    5    0    0  0.22956503975E+02 -0.16735193431E+02 -0.23528807485E+02  0.36900847627E+02  0.10000000000E+01 0. -1.
        -13    1    6    6    0    0  0.69101758212E+01 -0.10969466898E+02 -0.86142931621E+01  0.15565885956E+02  0.10500000000E+00 0. -1.
         13    1    6    6    0    0  0.44436196270E+01 -0.71366926059E+01 -0.54751543520E+01  0.10033268506E+02  0.10500000000E+00 0.  1.
</event>
<event>
11    0  0.3482988E-009  0.9118800E+02  0.7816531E-02  0.1126479E+00
         25   -1    0    0    0    0  0.00000000000E+00  0.00000000000E+00  0.99999998245E-14  0.12500000000E+03  0.12500000000E+03 0.  0.
    3000001    1    3    3    0    0  0.29700115372E+02  0.20751767301E+02  0.86135396435E+00  0.36255684104E+02  0.10000000000E+01 0.  1.
    1000022    2    1    0    0    0  0.45610270567E+02  0.41530163593E+02 -0.10948804935E+01  0.62500000507E+02  0.10000001545E+02 0.  0.
    3000022    2    3    3    0    0  0.15910155194E+02  0.20778396292E+02 -0.19562344579E+01  0.26244316403E+02  0.24999883077E+00 0.  0.
    1000022    2    1    0    0    0 -0.45610270567E+02 -0.41530163593E+02  0.10948804935E+01  0.62499999493E+02  0.99999952029E+01 0.  0.
    3000022    2    5    5    0    0 -0.26975676067E+02 -0.28679366460E+02 -0.29500384916E+01  0.39483647290E+02  0.25003279955E+00 0.  0.
        -13    1    4    4    0    0  0.48203572574E+01  0.62247628650E+01 -0.57170774199E+00  0.78943898787E+01  0.10500000000E+00 0.  1.
         13    1    4    4    0    0  0.11089797937E+02  0.14553633427E+02 -0.13845267159E+01  0.18349926524E+02  0.10500000000E+00 0. -1.
    3000001    1    5    5    0    0 -0.18634594500E+02 -0.12850797133E+02  0.40449189851E+01  0.23016352203E+02  0.10000000000E+01 0. -1.
        -13    1    6    6    0    0 -0.15708239457E+02 -0.16703602100E+02 -0.16532157028E+01  0.22989198705E+02  0.10500000000E+00 0.  1.
         13    1    6    6    0    0 -0.11267436610E+02 -0.11975764360E+02 -0.12968227888E+01  0.16494448585E+02  0.10500000000E+00 0. -1.
</event>
<event>
11    0  0.3482988E-009  0.9118800E+02  0.7816531E-02  0.1126479E+00
         25   -1    0    0    0    0  0.00000000000E+00  0.00000000000E+00  0.99999998245E-14  0.12500000000E+03  0.12500000000E+03 0.  0.
    3000001    1    3    3    0    0  0.39715030607E+02  0.47092660255E+02  0.17612733907E+01  0.61636875245E+02  0.10000000000E+01 0.  1.
    1000022    2    1    0    0    0  0.40037351237E+02  0.46927848706E+02  0.10186818441E+01  0.62500005768E+02  0.10000026506E+02 0.  0.
    3000022    2    3    3    0    0  0.32232062927E+00 -0.16481154919E+00 -0.74259154663E+00  0.86313052293E+00  0.24999731937E+00 0.  0.
    1000022    2    1    0    0    0 -0.40037351237E+02 -0.46927848706E+02 -0.10186818441E+01  0.62499994232E+02  0.99999544024E+01 0.  0.
    3000022    2    5    5    0    0 -0.77233169135E+01 -0.58394004185E+01 -0.31188299151E+01  0.10175353585E+02  0.24999828587E+00 0.  0.
        -13    1    4    4    0    0  0.13295341419E+00 -0.81300099556E-02 -0.33902128118E+00  0.37908196541E+00  0.10500000000E+00 0. -1.
         13    1    4    4    0    0  0.18936721507E+00 -0.15668153923E+00 -0.40357026545E+00  0.48404855752E+00  0.10500000000E+00 0.  1.
    3000001    1    5    5    0    0 -0.32314034323E+02 -0.41088448287E+02  0.21001480710E+01  0.52324640647E+02  0.10000000000E+01 0.  1.
        -13    1    6    6    0    0 -0.26177739672E+01 -0.20437043222E+01 -0.10485683827E+01  0.34842486354E+01  0.10500000000E+00 0. -1.
         13    1    6    6    0    0 -0.51055429463E+01 -0.37956960963E+01 -0.20702615323E+01  0.66911049494E+01  0.10500000000E+00 0.  1.
</event>
<event>
11    0  0.3482988E-009  0.9118800E+02  0.7816531E-02  0.1126479E+00
         25   -1    0    0    0    0  0.00000000000E+00  0.00000000000E+00  0.99999998245E-14  0.12500000000E+03  0.12500000000E+03 0.  0.
    3000001    1    3    3    0    0 -0.21687227070E+02 -0.43452924731E+02  0.22896017052E+02  0.53700280097E+02  0.10000000000E+01 0.  1.
    1000022    2    1    0    0    0 -0.21627422905E+02 -0.50328898752E+02  0.28381454445E+02  0.62500002747E+02  0.99999957924E+01 0.  0.
    3000022    2    3    3    0    0  0.59804165102E-01 -0.68759740214E+01  0.54854373939E+01  0.87997226505E+01  0.25000008399E+00 0.  0.
    1000022    2    1    0    0    0  0.21627422905E+02  0.50328898752E+02 -0.28381454445E+02  0.62499997253E+02  0.99999614517E+01 0.  0.
    3000022    2    5    5    0    0  0.40307576421E+01  0.64865042475E+01 -0.79279050935E+01  0.11010718122E+02  0.24997974994E+00 0.  0.
        -13    1    4    4    0    0  0.38447039228E-01 -0.17311949774E+01  0.13646098345E+01  0.22071926117E+01  0.10500000000E+00 0.  1.
         13    1    4    4    0    0  0.21357125874E-01 -0.51447790440E+01  0.41208275594E+01  0.65925300388E+01  0.10500000000E+00 0. -1.
    3000001    1    5    5    0    0  0.17596665263E+02  0.43842394505E+02 -0.20453549352E+02  0.51489279130E+02  0.10000000000E+01 0.  1.
        -13    1    6    6    0    0  0.21868167856E+01  0.34289642659E+01 -0.41527593554E+01  0.58134670252E+01  0.10500000000E+00 0. -1.
         13    1    6    6    0    0  0.18439408565E+01  0.30575399816E+01 -0.37751457381E+01  0.51972510970E+01  0.10500000000E+00 0.  1.
</event>
<event>
11    0  0.3482988E-009  0.9118800E+02  0.7816531E-02  0.1126479E+00
         25   -1    0    0    0    0  0.00000000000E+00  0.00000000000E+00  0.99999998245E-14  0.12500000000E+03  0.12500000000E+03 0.  0.
    3000001    1    3    3    0    0 -0.23864577853E+02 -0.82437344105E+01  0.50978664707E+02  0.56897288938E+02  0.10000000000E+01 0. -1.
    1000022    2    1    0    0    0 -0.23193125363E+02 -0.97076734243E+01  0.56339066786E+02  0.62500000455E+02  0.99999811560E+01 0.  0.
    3000022    2    3    3    0    0  0.67145248935E+00 -0.14639390138E+01  0.53604020788E+01  0.56027115174E+01  0.25000003762E+00 0.  0.
    1000022    2    1    0    0    0  0.23193125363E+02  0.97076734243E+01 -0.56339066786E+02  0.62499999545E+02  0.99999754658E+01 0.  0.
    3000022    2    5    5    0    0  0.19765906867E+02  0.88592196294E+01 -0.53910055180E+02  0.58099340748E+02  0.24999817324E+00 0.  0.
        -13    1    4    4    0    0  0.51946463068E+00 -0.10908860005E+01  0.40647174725E+01  0.42417954807E+01  0.10500000000E+00 0. -1.
         13    1    4    4    0    0  0.15198785867E+00 -0.37305301333E+00  0.12956846063E+01  0.13609160367E+01  0.10500000000E+00 0.  1.
    3000001    1    5    5    0    0  0.34272184965E+01  0.84845379494E+00 -0.24290116060E+01  0.44006587969E+01  0.10000000000E+01 0.  1.
        -13    1    6    6    0    0  0.45748404039E+01  0.20403090537E+01 -0.12471037178E+02  0.13439859339E+02  0.10500000000E+00 0. -1.
         13    1    6    6    0    0  0.15191066463E+02  0.68189105757E+01 -0.41439018002E+02  0.44659481408E+02  0.10500000000E+00 0.  1.
</event>
<event>
11    0  0.3482988E-009  0.9118800E+02  0.7816531E-02  0.1126479E+00
         25   -1    0    0    0    0  0.00000000000E+00  0.00000000000E+00  0.99999998245E-14  0.12500000000E+03  0.12500000000E+03 0.  0.
    3000001    1    3    3    0    0  0.48859062029E+01  0.20982307682E+02 -0.44149887498E+00  0.21571375393E+02  0.10000000000E+01 0.  1.
    1000022    2    1    0    0    0  0.19655730227E+02  0.57497011842E+02  0.10676887600E+02  0.62500000359E+02  0.10000000723E+02 0.  0.
    3000022    2    3    3    0    0  0.14769824025E+02  0.36514704160E+02  0.11118386475E+02  0.40928624966E+02  0.25000432364E+00 0.  0.
    1000022    2    1    0    0    0 -0.19655730227E+02 -0.57497011842E+02 -0.10676887600E+02  0.62499999641E+02  0.99999962401E+01 0.  0.
    3000022    2    5    5    0    0 -0.89267601070E+01 -0.14303376904E+02 -0.69149361188E+00  0.16876442217E+02  0.25000320757E+00 0.  0.
        -13    1    4    4    0    0  0.90417855697E+01  0.22205201955E+02  0.67963662245E+01  0.24920403267E+02  0.10500000000E+00 0.  1.
         13    1    4    4    0    0  0.57280384549E+01  0.14309502206E+02  0.43220202508E+01  0.16008221699E+02  0.10500000000E+00 0. -1.
    3000001    1    5    5    0    0 -0.10728970121E+02 -0.43193634938E+02 -0.99853939884E+01  0.45623557425E+02  0.10000000000E+01 0. -1.
        -13    1    6    6    0    0 -0.44919449846E+01 -0.73253889714E+01 -0.35502437882E+00  0.86009278939E+01  0.10500000000E+00 0.  1.
         13    1    6    6    0    0 -0.44348151223E+01 -0.69779879331E+01 -0.33646923306E+00  0.82755143229E+01  0.10500000000E+00 0. -1.
</event>
<event>
11    0  0.3482988E-009  0.9118800E+02  0.7816531E-02  0.1126479E+00
         25   -1    0    0    0    0  0.00000000000E+00  0.00000000000E+00  0.99999998245E-14  0.12500000000E+03  0.12500000000E+03 0.  0.
    3000001    1    3    3    0    0 -0.90751356331E+01 -0.17238037587E+02  0.46980954953E+02  0.50869619174E+02  0.10000000000E+01 0. -1.
    1000022    2    1    0    0    0 -0.13156321398E+02 -0.24547212325E+02  0.55050846778E+02  0.62500000290E+02  0.99999939766E+01 0.  0.
    3000022    2    3    3    0    0 -0.40811857647E+01 -0.73091747388E+01  0.80698918252E+01  0.11630381116E+02  0.24999643686E+00 0.  0.
    1000022    2    1    0    0    0  0.13156321398E+02  0.24547212325E+02 -0.55050846778E+02  0.62499999710E+02  0.99999903558E+01 0.  0.
    3000022    2    5    5    0    0  0.19442848185E+01  0.62111987436E+01 -0.56698292342E+01  0.86353169208E+01  0.25000298001E+00 0.  0.
        -13    1    4    4    0    0 -0.10168562244E+01 -0.17962639576E+01  0.20207530248E+01  0.28905066293E+01  0.10500000000E+00 0. -1.
         13    1    4    4    0    0 -0.30643295403E+01 -0.55129107812E+01  0.60491388004E+01  0.87398744865E+01  0.10500000000E+00 0.  1.
    3000001    1    5    5    0    0  0.11212036579E+02  0.18336013582E+02 -0.49381017544E+02  0.53864682790E+02  0.10000000000E+01 0. -1.
        -13    1    6    6    0    0  0.14766096916E+01  0.46346276151E+01 -0.42528078602E+01  0.64620081250E+01  0.10500000000E+00 0.  1.
         13    1    6    6    0    0  0.46767512693E+00  0.15765711285E+01 -0.14170213740E+01  0.21733087958E+01  0.10500000000E+00 0. -1.
</event>
<event>
11    0  0.3482988E-009  0.9118800E+02  0.7816531E-02  0.1126479E+00
         25   -1    0    0    0    0  0.00000000000E+00  0.00000000000E+00  0.99999998245E-14  0.12500000000E+03  0.12500000000E+03 0.  0.
    3000001    1    3    3    0    0  0.27128438757E+02  0.23412962290E+02  0.41418094422E+01  0.36087027836E+02  0.10000000000E+01 0.  1.
    1000022    2    1    0    0    0  0.51345015195E+02  0.33308236921E+02  0.77782133445E+01  0.62499997989E+02  0.99999956824E+01 0.  0.
    3000022    2    3    3    0    0  0.24216576438E+02  0.98952746314E+01  0.36364039024E+01  0.26412970153E+02  0.25004912903E+00 0.  0.
    1000022    2    1    0    0    0 -0.51345015195E+02 -0.33308236921E+02 -0.77782133445E+01  0.62500002011E+02  0.10000020819E+02 0.  0.
    3000022    2    5    5    0    0 -0.24535245939E+01 -0.16510276405E+01 -0.27214099416E+01  0.40266917466E+01  0.24999829842E+00 0.  0.
        -13    1    4    4    0    0  0.16441610738E+02  0.67608060890E+01  0.25036725599E+01  0.17953118501E+02  0.10500000000E+00 0. -1.
         13    1    4    4    0    0  0.77749657004E+01  0.31344685423E+01  0.11327313424E+01  0.84598516523E+01  0.10500000000E+00 0.  1.
    3000001    1    5    5    0    0 -0.48891490601E+02 -0.31657209281E+02 -0.50568034029E+01  0.58473310264E+02  0.10000000000E+01 0.  1.
        -13    1    6    6    0    0 -0.16778473594E+01 -0.10659710722E+01 -0.18321840578E+01  0.27054370275E+01  0.10500000000E+00 0.  1.
         13    1    6    6    0    0 -0.77567723448E+00 -0.58505656832E+00 -0.88922588379E+00  0.13212547191E+01  0.10500000000E+00 0. -1.
</event>
<event>
11    0  0.3482988E-009  0.9118800E+02  0.7816531E-02  0.1126479E+00
         25   -1    0    0    0    0  0.00000000000E+00  0.00000000000E+00  0.99999998245E-14  0.12500000000E+03  0.12500000000E+03 0.  0.
    3000001    1    3    3    0    0  0.52186536334E+01 -0.85147917369E-01  0.45114966145E+01  0.69710255785E+01  0.10000000000E+01 0.  1.
    1000022    2    1    0    0    0  0.41673023822E+02  0.25516970004E+02  0.37662891064E+02  0.62500000023E+02  0.99999983397E+01 0.  0.
    3000022    2    3    3    0    0  0.36454370189E+02  0.25602117922E+02  0.33151394450E+02  0.55528974444E+02  0.25000178302E+00 0.  0.
    1000022    2    1    0    0    0 -0.41673023822E+02 -0.25516970004E+02 -0.37662891064E+02  0.62499999977E+02  0.99999980584E+01 0.  0.
    3000022    2    5    5    0    0 -0.62015277886E+01 -0.22580733942E+01 -0.95178937608E+01  0.11584931721E+02  0.24999792424E+00 0.  0.
        -13    1    4    4    0    0  0.15685968993E+02  0.11044985113E+02  0.14353389556E+02  0.23959802506E+02  0.10500000000E+00 0.  1.
         13    1    4    4    0    0  0.20768401197E+02  0.14557132808E+02  0.18798004894E+02  0.31569171938E+02  0.10500000000E+00 0. -1.
    3000001    1    5    5    0    0 -0.35471496034E+02 -0.23258896610E+02 -0.28144997303E+02  0.50915068257E+02  0.10000000000E+01 0.  1.
        -13    1    6    6    0    0 -0.43632446980E+01 -0.15734425975E+01 -0.67612317532E+01  0.81999332755E+01  0.10500000000E+00 0. -1.
         13    1    6    6    0    0 -0.18382830906E+01 -0.68463079673E+00 -0.27566620076E+01  0.33849984451E+01  0.10500000000E+00 0.  1.
</event>
<event>
11    0  0.3482988E-009  0.9118800E+02  0.7816531E-02  0.1126479E+00
         25   -1    0    0    0    0  0.00000000000E+00  0.00000000000E+00  0.99999998245E-14  0.12500000000E+03  0.12500000000E+03 0.  0.
    3000001    1    3    3    0    0 -0.18157618719E+02 -0.20871497128E+02  0.77704626970E+01  0.28752366866E+02  0.10000000000E+01 0.  1.
    1000022    2    1    0    0    0 -0.44230707880E+02 -0.37101890429E+02  0.21756476702E+02  0.62499999907E+02  0.99999958424E+01 0.  0.
    3000022    2    3    3    0    0 -0.26073089162E+02 -0.16230393301E+02  0.13986014005E+02  0.33747633040E+02  0.25000585321E+00 0.  0.
    1000022    2    1    0    0    0  0.44230707880E+02  0.37101890429E+02 -0.21756476702E+02  0.62500000093E+02  0.99999970080E+01 0.  0.
    3000022    2    5    5    0    0  0.39868919043E+02  0.28960460483E+02 -0.17659787392E+02  0.52346628893E+02  0.24997739843E+00 0.  0.
        -13    1    4    4    0    0 -0.16688272545E+02 -0.10448100628E+02  0.89352779166E+01  0.21622013406E+02  0.10500000000E+00 0.  1.
         13    1    4    4    0    0 -0.93848166170E+01 -0.57822926730E+01  0.50507360886E+01  0.12125619635E+02  0.10500000000E+00 0. -1.
    3000001    1    5    5    0    0  0.43617888378E+01  0.81414299458E+01 -0.40966893097E+01  0.10153371200E+02  0.10000000000E+01 0.  1.
        -13    1    6    6    0    0  0.28520170195E+02  0.20710277483E+02 -0.12674880709E+02  0.37456365646E+02  0.10500000000E+00 0. -1.
         13    1    6    6    0    0  0.11348748848E+02  0.82501830000E+01 -0.49849066834E+01  0.14890263248E+02  0.10500000000E+00 0.  1.
</event>
<event>
11    0  0.3482988E-009  0.9118800E+02  0.7816531E-02  0.1126479E+00
         25   -1    0    0    0    0  0.00000000000E+00  0.00000000000E+00  0.99999998245E-14  0.12500000000E+03  0.12500000000E+03 0.  0.
    3000001    1    3    3    0    0  0.15257025183E+02  0.37232584339E+02  0.24522875438E+02  0.47131874286E+02  0.10000000000E+01 0. -1.
    1000022    2    1    0    0    0  0.21367246729E+02  0.45187273449E+02  0.36163533035E+02  0.62499999841E+02  0.99999972047E+01 0.  0.
    3000022    2    3    3    0    0  0.61102215466E+01  0.79546891093E+01  0.11640657597E+02  0.15368125555E+02  0.24997521795E+00 0.  0.
    1000022    2    1    0    0    0 -0.21367246729E+02 -0.45187273449E+02 -0.36163533035E+02  0.62500000159E+02  0.99999991904E+01 0.  0.
    3000022    2    5    5    0    0 -0.12635202070E+02 -0.36163320401E+02 -0.25773470897E+02  0.46171077238E+02  0.24999489583E+00 0.  0.
        -13    1    4    4    0    0  0.30752001171E+01  0.40263901645E+01  0.57780249080E+01  0.76853933116E+01  0.10500000000E+00 0. -1.
         13    1    4    4    0    0  0.30350214296E+01  0.39282989448E+01  0.58626326887E+01  0.76827322432E+01  0.10500000000E+00 0.  1.
    3000001    1    5    5    0    0 -0.87320446594E+01 -0.90239530476E+01 -0.10390062138E+02  0.16328922921E+02  0.10000000000E+01 0.  1.
        -13    1    6    6    0    0 -0.51581621686E+01 -0.14651325536E+02 -0.10388345962E+02  0.18686806409E+02  0.10500000000E+00 0.  1.
         13    1    6    6    0    0 -0.74770399012E+01 -0.21511994865E+02 -0.15385124935E+02  0.27484270829E+02  0.10500000000E+00 0. -1.
</event>
<event>
11    0  0.3482988E-009  0.9118800E+02  0.7816531E-02  0.1126479E+00
         25   -1    0    0    0    0  0.00000000000E+00  0.00000000000E+00  0.99999998245E-14  0.12500000000E+03  0.12500000000E+03 0.  0.
    3000001    1    3    3    0    0 -0.21685912560E+02  0.27624449721E+02  0.14202099475E+02  0.37895760389E+02  0.10000000000E+01 0.  1.
    1000022    2    1    0    0    0 -0.28732963315E+02  0.47717622680E+02  0.26527257806E+02  0.62499998890E+02  0.99999879712E+01 0.  0.
    3000022    2    3    3    0    0 -0.70470507553E+01  0.20093172959E+02  0.12325158331E+02  0.24604238501E+02  0.25000085047E+00 0.  0.
    1000022    2    1    0    0    0  0.28732963315E+02 -0.47717622680E+02 -0.26527257806E+02  0.62500001110E+02  0.10000001849E+02 0.  0.
    3000022    2    5    5    0    0  0.11000430595E+02 -0.14315046635E+02 -0.40791659702E+01  0.18510324706E+02  0.24998450970E+00 0.  0.
        -13    1    4    4    0    0 -0.53127773305E+01  0.15138209146E+02  0.92583305224E+01  0.18523463180E+02  0.10500000000E+00 0. -1.
         13    1    4    4    0    0 -0.17342734248E+01  0.49549638127E+01  0.30668278089E+01  0.60807753212E+01  0.10500000000E+00 0.  1.
    3000001    1    5    5    0    0  0.17732532720E+02 -0.33402576044E+02 -0.22448091836E+02  0.43989676404E+02  0.10000000000E+01 0.  1.
        -13    1    6    6    0    0  0.78053351879E+01 -0.10225319320E+02 -0.29139052792E+01  0.13190234326E+02  0.10500000000E+00 0. -1.
         13    1    6    6    0    0  0.31950954075E+01 -0.40897273148E+01 -0.11652606910E+01  0.53200903800E+01  0.10500000000E+00 0.  1.
</event>
<event>
11    0  0.3482988E-009  0.9118800E+02  0.7816531E-02  0.1126479E+00
         25   -1    0    0    0    0  0.00000000000E+00  0.00000000000E+00  0.99999998245E-14  0.12500000000E+03  0.12500000000E+03 0.  0.
    3000001    1    3    3    0    0  0.16145649094E+02  0.12682318213E+02 -0.16469037977E+02  0.26339179786E+02  0.10000000000E+01 0. -1.
    1000022    2    1    0    0    0  0.32489115775E+02  0.39167950461E+02 -0.34879491123E+02  0.62499999811E+02  0.10000004413E+02 0.  0.
    3000022    2    3    3    0    0  0.16343466681E+02  0.26485632248E+02 -0.18410453146E+02  0.36160820025E+02  0.25000223853E+00 0.  0.
    1000022    2    1    0    0    0 -0.32489115775E+02 -0.39167950461E+02  0.34879491123E+02  0.62500000189E+02  0.10000006773E+02 0.  0.
    3000022    2    5    5    0    0 -0.13421370553E+02 -0.23568128825E+02  0.20031264647E+02  0.33718006297E+02  0.25000287792E+00 0.  0.
        -13    1    4    4    0    0  0.65621336068E+01  0.10721921871E+02 -0.74870144016E+01  0.14631733176E+02  0.10500000000E+00 0. -1.
         13    1    4    4    0    0  0.97813330739E+01  0.15763710377E+02 -0.10923438744E+02  0.21529086849E+02  0.10500000000E+00 0.  1.
    3000001    1    5    5    0    0 -0.19067745222E+02 -0.15599821636E+02  0.14848226475E+02  0.28781993892E+02  0.10000000000E+01 0.  1.
        -13    1    6    6    0    0 -0.76022220374E+01 -0.13392766970E+02  0.11451026962E+02  0.19191066424E+02  0.10500000000E+00 0.  1.
         13    1    6    6    0    0 -0.58191485155E+01 -0.10175361855E+02  0.85802376857E+01  0.14526939873E+02  0.10500000000E+00 0. -1.
</event>
<event>
11    0  0.3482988E-009  0.9118800E+02  0.7816531E-02  0.1126479E+00
         25   -1    0    0    0    0  0.00000000000E+00  0.00000000000E+00  0.99999998245E-14  0.12500000000E+03  0.12500000000E+03 0.  0.
    3000001    1    3    3    0    0 -0.13645531269E+02  0.88979396101E+01 -0.56673657641E+00  0.16330800448E+02  0.10000000000E+01 0. -1.
    1000022    2    1    0    0    0 -0.56722804298E+02  0.21310242159E+02 -0.11603760835E+02  0.62500001332E+02  0.99999976293E+01 0.  0.
    3000022    2    3    3    0    0 -0.43077273029E+02  0.12412302549E+02 -0.11037024259E+02  0.46169200884E+02  0.24999910757E+00 0.  0.
    1000022    2    1    0    0    0  0.56722804298E+02 -0.21310242159E+02  0.11603760835E+02  0.62499998668E+02  0.99999809848E+01 0.  0.
    3000022    2    5    5    0    0  0.12735368769E+02 -0.90733331645E+01  0.13716473830E+01  0.15699009663E+02  0.24999092298E+00 0.  0.
        -13    1    4    4    0    0 -0.20360511513E+02  0.59355105140E+01 -0.52352108089E+01  0.21844888906E+02  0.10500000000E+00 0. -1.
         13    1    4    4    0    0 -0.22716761517E+02  0.64767920349E+01 -0.58018134497E+01  0.24324311977E+02  0.10500000000E+00 0.  1.
    3000001    1    5    5    0    0  0.43987435529E+02 -0.12236908995E+02  0.10232113452E+02  0.46800989005E+02  0.10000000000E+01 0. -1.
        -13    1    6    6    0    0  0.63632850608E+01 -0.45494562624E+01  0.61934152804E+00  0.78475192244E+01  0.10500000000E+00 0.  1.
         13    1    6    6    0    0  0.63720837081E+01 -0.45238769020E+01  0.75230585499E+00  0.78514904386E+01  0.10500000000E+00 0. -1.
</event>
<event>
11    0  0.3482988E-009  0.9118800E+02  0.7816531E-02  0.1126479E+00
         25   -1    0    0    0    0  0.00000000000E+00  0.00000000000E+00  0.99999998245E-14  0.12500000000E+03  0.12500000000E+03 0.  0.
    3000001    1    3    3    0    0 -0.13731368711E+02 -0.13285888079E+02  0.42705344519E+02  0.46795424554E+02  0.10000000000E+01 0.  1.
    1000022    2    1    0    0    0 -0.14851668506E+02 -0.22097692219E+02  0.55654020355E+02  0.62499999407E+02  0.99999942712E+01 0.  0.
    3000022    2    3    3    0    0 -0.11202997951E+01 -0.88118041404E+01  0.12948675836E+02  0.15704574854E+02  0.25000315436E+00 0.  0.
    1000022    2    1    0    0    0  0.14851668506E+02  0.22097692219E+02 -0.55654020355E+02  0.62500000593E+02  0.10000001678E+02 0.  0.
    3000022    2    5    5    0    0  0.37017143461E+00 -0.78441177593E+00 -0.47262558557E+01  0.48116860257E+01  0.24999854196E+00 0.  0.
        -13    1    4    4    0    0 -0.36525425139E+00 -0.33340385152E+01  0.49194051090E+01  0.59548967343E+01  0.10500000000E+00 0. -1.
         13    1    4    4    0    0 -0.75504554374E+00 -0.54777656252E+01  0.80292707274E+01  0.97496781194E+01  0.10500000000E+00 0.  1.
    3000001    1    5    5    0    0  0.14481497071E+02  0.22882103995E+02 -0.50927764499E+02  0.57688314567E+02  0.10000000000E+01 0.  1.
        -13    1    6    6    0    0  0.25996002417E+00 -0.46830431323E+00 -0.31408415913E+01  0.31879145292E+01  0.10500000000E+00 0.  1.
         13    1    6    6    0    0  0.11021141044E+00 -0.31610746271E+00 -0.15854142644E+01  0.16237714965E+01  0.10500000000E+00 0. -1.
</event>
<event>
11    0  0.3482988E-009  0.9118800E+02  0.7816531E-02  0.1126479E+00
         25   -1    0    0    0    0  0.00000000000E+00  0.00000000000E+00  0.99999998245E-14  0.12500000000E+03  0.12500000000E+03 0.  0.
    3000001    1    3    3    0    0 -0.29972470391E+02  0.25361592105E+02  0.25430909677E+02  0.46789854695E+02  0.10000000000E+01 0. -1.
    1000022    2    1    0    0    0 -0.35748025058E+02  0.37651195025E+02  0.33327415684E+02  0.62500000669E+02  0.99999832509E+01 0.  0.
    3000022    2    3    3    0    0 -0.57755546678E+01  0.12289602921E+02  0.78965060064E+01  0.15710145973E+02  0.25001545080E+00 0.  0.
    1000022    2    1    0    0    0  0.35748025058E+02 -0.37651195025E+02 -0.33327415684E+02  0.62499999331E+02  0.99999748928E+01 0.  0.
    3000022    2    5    5    0    0  0.11817009421E+02 -0.13082782978E+02 -0.17035465929E+02  0.24516739772E+02  0.25001502361E+00 0.  0.
        -13    1    4    4    0    0 -0.17917437533E+01  0.38456240583E+01  0.24132809251E+01  0.48820200633E+01  0.10500000000E+00 0.  1.
         13    1    4    4    0    0 -0.39838109146E+01  0.84439788624E+01  0.54832250813E+01  0.10828125910E+02  0.10500000000E+00 0. -1.
    3000001    1    5    5    0    0  0.23931015638E+02 -0.24568412047E+02 -0.16291949755E+02  0.37983259560E+02  0.10000000000E+01 0. -1.
        -13    1    6    6    0    0  0.30813449775E+01 -0.34215596040E+01 -0.44939642225E+01  0.64349433896E+01  0.10500000000E+00 0.  1.
         13    1    6    6    0    0  0.87356644432E+01 -0.96612233744E+01 -0.12541501707E+02  0.18081796382E+02  0.10500000000E+00 0. -1.
</event>
<event>
11    0  0.3482988E-009  0.9118800E+02  0.7816531E-02  0.1126479E+00
         25   -1    0    0    0    0  0.00000000000E+00  0.00000000000E+00  0.99999998245E-14  0.12500000000E+03  0.12500000000E+03 0.  0.
    3000001    1    3    3    0    0 -0.91426339703E+00  0.20184614091E+01 -0.11360595415E+01  0.26834111315E+01  0.10000000000E+01 0.  1.
    1000022    2    1    0    0    0 -0.29814919705E+02  0.15452008102E+02 -0.51754768685E+02  0.62500000205E+02  0.99999976282E+01 0.  0.
    3000022    2    3    3    0    0 -0.28900656308E+02  0.13433546693E+02 -0.50618709144E+02  0.59816589073E+02  0.25000244381E+00 0.  0.
    1000022    2    1    0    0    0  0.29814919705E+02 -0.15452008102E+02  0.51754768685E+02  0.62499999795E+02  0.99999950677E+01 0.  0.
    3000022    2    5    5    0    0  0.16162567236E+02 -0.47143629406E+01  0.18823470000E+02  0.25255480942E+02  0.24999432572E+00 0.  0.
        -13    1    4    4    0    0 -0.19590915529E+02  0.91608903258E+01 -0.34371857100E+02  0.40609869100E+02  0.10500000000E+00 0.  1.
         13    1    4    4    0    0 -0.93097407792E+01  0.42726563673E+01 -0.16246852043E+02  0.19206719973E+02  0.10500000000E+00 0. -1.
    3000001    1    5    5    0    0  0.13652352469E+02 -0.10737645162E+02  0.32931298685E+02  0.37244518854E+02  0.10000000000E+01 0. -1.
        -13    1    6    6    0    0  0.46105590764E+01 -0.13751437835E+01  0.53353852608E+01  0.71850982112E+01  0.10500000000E+00 0.  1.
         13    1    6    6    0    0  0.11552008159E+02 -0.33392191570E+01  0.13488084739E+02  0.18070382730E+02  0.10500000000E+00 0. -1.
</event>
<event>
11    0  0.3482988E-009  0.9118800E+02  0.7816531E-02  0.1126479E+00
         25   -1    0    0    0    0  0.00000000000E+00  0.00000000000E+00  0.99999998245E-14  0.12500000000E+03  0.12500000000E+03 0.  0.
    3000001    1    3    3    0    0  0.15538013662E+02 -0.16857075610E+02  0.32614478331E+02  0.39878503777E+02  0.10000000000E+01 0. -1.
    1000022    2    1    0    0    0  0.29670171450E+02 -0.21377505167E+02  0.49688361601E+02  0.62500001408E+02  0.10000004815E+02 0.  0.
    3000022    2    3    3    0    0  0.14132157788E+02 -0.45204295564E+01  0.17073883270E+02  0.22621497630E+02  0.24999599954E+00 0.  0.
    1000022    2    1    0    0    0 -0.29670171450E+02  0.21377505167E+02 -0.49688361601E+02  0.62499998592E+02  0.99999872212E+01 0.  0.
    3000022    2    5    5    0    0  0.70200717350E+00  0.10650386242E+01 -0.24252593958E+01  0.27516399417E+01  0.25003577626E+00 0.  0.
        -13    1    4    4    0    0  0.67080922618E+01 -0.21472931776E+01  0.80022082265E+01  0.10660944202E+02  0.10500000000E+00 0. -1.
         13    1    4    4    0    0  0.74240655266E+01 -0.23731363788E+01  0.90716750436E+01  0.11960553428E+02  0.10500000000E+00 0.  1.
    3000001    1    5    5    0    0 -0.30372178624E+02  0.20312466543E+02 -0.47263102205E+02  0.59748358651E+02  0.10000000000E+01 0. -1.
        -13    1    6    6    0    0  0.50480246123E+00  0.76680546921E+00 -0.18129929850E+01  0.20348918193E+01  0.10500000000E+00 0.  1.
         13    1    6    6    0    0  0.19720471227E+00  0.29823315502E+00 -0.61226641078E+00  0.71674812247E+00  0.10500000000E+00 0. -1.
</event>
<event>
11    0  0.3482988E-009  0.9118800E+02  0.7816531E-02  0.1126479E+00
         25   -1    0    0    0    0  0.00000000000E+00  0.00000000000E+00  0.99999998245E-14  0.12500000000E+03  0.12500000000E+03 0.  0.
    3000001    1    3    3    0    0 -0.11218896769E+02  0.12541682449E+02  0.17444695563E+02  0.24258500503E+02  0.10000000000E+01 0. -1.
    1000022    2    1    0    0    0 -0.35508576923E+02  0.21847346729E+02  0.45476205003E+02  0.62499995895E+02  0.99999335622E+01 0.  0.
    3000022    2    3    3    0    0 -0.24289680154E+02  0.93056642802E+01  0.28031509440E+02  0.38241495393E+02  0.24999737825E+00 0.  0.
    1000022    2    1    0    0    0  0.35508576923E+02 -0.21847346729E+02 -0.45476205003E+02  0.62500004105E+02  0.99999848718E+01 0.  0.
    3000022    2    5    5    0    0  0.23315473919E+01 -0.15345505332E+00 -0.64461379121E+01  0.68611115775E+01  0.24999280774E+00 0.  0.
        -13    1    4    4    0    0 -0.75734034459E+01  0.29349689827E+01  0.88088486684E+01  0.11982375497E+02  0.10500000000E+00 0. -1.
         13    1    4    4    0    0 -0.16716276708E+02  0.63706952975E+01  0.19222660772E+02  0.26259119896E+02  0.10500000000E+00 0.  1.
    3000001    1    5    5    0    0  0.33177029531E+02 -0.21693891675E+02 -0.39030067091E+02  0.55638892527E+02  0.10000000000E+01 0.  1.
        -13    1    6    6    0    0  0.15021754997E+01 -0.15537074273E+00 -0.41227275883E+01  0.43918764859E+01  0.10500000000E+00 0.  1.
         13    1    6    6    0    0  0.82937189217E+00  0.19156894122E-02 -0.23234103238E+01  0.24692350917E+01  0.10500000000E+00 0. -1.
</event>
<event>
11    0  0.3482988E-009  0.9118800E+02  0.7816531E-02  0.1126479E+00
         25   -1    0    0    0    0  0.00000000000E+00  0.00000000000E+00  0.99999998245E-14  0.12500000000E+03  0.12500000000E+03 0.  0.
    3000001    1    3    3    0    0  0.35645048372E+02  0.35879948456E+01  0.44743821668E+02  0.57327591594E+02  0.10000000000E+01 0. -1.
    1000022    2    1    0    0    0  0.36094742324E+02  0.40119466221E+01  0.49873077989E+02  0.62499999169E+02  0.99999924423E+01 0.  0.
    3000022    2    3    3    0    0  0.44969395216E+00  0.42395177642E+00  0.51292563207E+01  0.51724075750E+01  0.25013987826E+00 0.  0.
    1000022    2    1    0    0    0 -0.36094742324E+02 -0.40119466221E+01 -0.49873077989E+02  0.62500000831E+02  0.10000002833E+02 0.  0.
    3000022    2    5    5    0    0 -0.65693925405E+00 -0.15695653018E+01 -0.48286362933E+01  0.51257484123E+01  0.24992781578E+00 0.  0.
        -13    1    4    4    0    0  0.18088542139E+00  0.11429701413E+00  0.15518945305E+01  0.15700907544E+01  0.10500000000E+00 0. -1.
         13    1    4    4    0    0  0.26880853077E+00  0.30965476230E+00  0.35773617902E+01  0.36023168206E+01  0.10500000000E+00 0.  1.
    3000001    1    5    5    0    0 -0.35437803070E+02 -0.24423813203E+01 -0.45044441696E+02  0.57374252419E+02  0.10000000000E+01 0. -1.
        -13    1    6    6    0    0 -0.47700904429E+00 -0.99588843740E+00 -0.30760879331E+01  0.32699653485E+01  0.10500000000E+00 0.  1.
         13    1    6    6    0    0 -0.17993020977E+00 -0.57367686436E+00 -0.17525483602E+01  0.18557830638E+01  0.10500000000E+00 0. -1.
</event>
<event>
11    0  0.3482988E-009  0.9118800E+02  0.7816531E-02  0.1126479E+00
         25   -1    0    0    0    0  0.00000000000E+00  0.00000000000E+00  0.99999998245E-14  0.12500000000E+03  0.12500000000E+03 0.  0.
    3000001    1    3    3    0    0 -0.21326831923E+01  0.57189819381E+00  0.24827212426E+01  0.34697708730E+01  0.10000000000E+01 0. -1.
    1000022    2    1    0    0    0 -0.43261457553E+02  0.38676108946E+02  0.20948866017E+02  0.62500000083E+02  0.99999955063E+01 0.  0.
    3000022    2    3    3    0    0 -0.41128774361E+02  0.38104210752E+02  0.18466144774E+02  0.59030229210E+02  0.25000051256E+00 0.  0.
    1000022    2    1    0    0    0  0.43261457553E+02 -0.38676108946E+02 -0.20948866017E+02  0.62499999917E+02  0.99999944733E+01 0.  0.
    3000022    2    5    5    0    0  0.39648129369E+02 -0.31286976494E+02 -0.19191339965E+02  0.54029798221E+02  0.25001110673E+00 0.  0.
        -13    1    4    4    0    0 -0.24856344885E+02  0.22987168053E+02  0.11208572667E+02  0.35663579495E+02  0.10500000000E+00 0. -1.
         13    1    4    4    0    0 -0.16272429476E+02  0.15117042700E+02  0.72575721069E+01  0.23366649715E+02  0.10500000000E+00 0.  1.
    3000001    1    5    5    0    0  0.36133281844E+01 -0.73891324516E+01 -0.17575260520E+01  0.84702016965E+01  0.10000000000E+01 0. -1.
        -13    1    6    6    0    0  0.12337502162E+02 -0.97219026211E+01 -0.59179433065E+01  0.16785780534E+02  0.10500000000E+00 0.  1.
         13    1    6    6    0    0  0.27310627207E+02 -0.21565073873E+02 -0.13273396658E+02  0.37244017687E+02  0.10500000000E+00 0. -1.
</event>
<event>
11    0  0.3482988E-009  0.9118800E+02  0.7816531E-02  0.1126479E+00
         25   -1    0    0    0    0  0.00000000000E+00  0.00000000000E+00  0.99999998245E-14  0.12500000000E+03  0.12500000000E+03 0.  0.
    3000001    1    3    3    0    0  0.10842931640E+02  0.41561423200E+01  0.23202840496E+02  0.25965640617E+02  0.10000000000E+01 0.  1.
    1000022    2    1    0    0    0  0.34950147990E+02  0.43633433505E+01  0.50652724592E+02  0.62500000475E+02  0.99999970552E+01 0.  0.
    3000022    2    3    3    0    0  0.24107216349E+02  0.20720103053E+00  0.27449884096E+02  0.36534359858E+02  0.25000204252E+00 0.  0.
    1000022    2    1    0    0    0 -0.34950147990E+02 -0.43633433505E+01 -0.50652724592E+02  0.62499999525E+02  0.99999911193E+01 0.  0.
    3000022    2    5    5    0    0 -0.17684371669E+02  0.20623559270E+01 -0.29242338726E+02  0.34236927044E+02  0.24997190176E+00 0.  0.
        -13    1    4    4    0    0  0.10270803705E+02  0.23366362663E-01  0.11704700038E+02  0.15572443055E+02  0.10500000000E+00 0. -1.
         13    1    4    4    0    0  0.13836412644E+02  0.18383466787E+00  0.15745184058E+02  0.20961916803E+02  0.10500000000E+00 0.  1.
    3000001    1    5    5    0    0 -0.17265776320E+02 -0.64256992775E+01 -0.21410385866E+02  0.28263072481E+02  0.10000000000E+01 0. -1.
        -13    1    6    6    0    0 -0.60568081618E+01  0.74824272959E+00 -0.10094095763E+02  0.11796041139E+02  0.10500000000E+00 0.  1.
         13    1    6    6    0    0 -0.11627563507E+02  0.13141131974E+01 -0.19148242963E+02  0.22440885905E+02  0.10500000000E+00 0. -1.
</event>
<event>
11    0  0.3482988E-009  0.9118800E+02  0.7816531E-02  0.1126479E+00
         25   -1    0    0    0    0  0.00000000000E+00  0.00000000000E+00  0.99999998245E-14  0.12500000000E+03  0.12500000000E+03 0.  0.
    3000001    1    3    3    0    0  0.20360544224E+00  0.69722674657E+00 -0.30504901055E+01  0.32913629693E+01  0.10000000000E+01 0. -1.
    1000022    2    1    0    0    0 -0.21387303357E+02  0.38018091608E+02 -0.43628636510E+02  0.62500000547E+02  0.10000005516E+02 0.  0.
    3000022    2    3    3    0    0 -0.21590908799E+02  0.37320864862E+02 -0.40578146404E+02  0.59208637578E+02  0.25000289964E+00 0.  0.
    1000022    2    1    0    0    0  0.21387303357E+02 -0.38018091608E+02  0.43628636510E+02  0.62499999453E+02  0.99999986727E+01 0.  0.
    3000022    2    5    5    0    0  0.18985454988E+02 -0.26334117612E+02  0.28432408879E+02  0.43155505194E+02  0.25000468495E+00 0.  0.
        -13    1    4    4    0    0 -0.82704334056E+01  0.14253491963E+02 -0.15430514503E+02  0.22575958555E+02  0.10500000000E+00 0.  1.
         13    1    4    4    0    0 -0.13320475394E+02  0.23067372898E+02 -0.25147631901E+02  0.36632679023E+02  0.10500000000E+00 0. -1.
    3000001    1    5    5    0    0  0.24018483689E+01 -0.11683973997E+02  0.15196227630E+02  0.19344494259E+02  0.10000000000E+01 0.  1.
        -13    1    6    6    0    0  0.10110275691E+02 -0.14109837392E+02  0.15143001977E+02  0.23035336326E+02  0.10500000000E+00 0. -1.
         13    1    6    6    0    0  0.88751792973E+01 -0.12224280220E+02  0.13289406902E+02  0.20120168868E+02  0.10500000000E+00 0.  1.
</event>
<event>
11    0  0.3482988E-009  0.9118800E+02  0.7816531E-02  0.1126479E+00
         25   -1    0    0    0    0  0.00000000000E+00  0.00000000000E+00  0.99999998245E-14  0.12500000000E+03  0.12500000000E+03 0.  0.
    3000001    1    3    3    0    0  0.28759088946E+02  0.12444007656E+02 -0.31442604276E+02  0.44402431095E+02  0.10000000000E+01 0. -1.
    1000022    2    1    0    0    0  0.43150658605E+02  0.12080823599E+02 -0.42406653284E+02  0.62500001385E+02  0.10000014679E+02 0.  0.
    3000022    2    3    3    0    0  0.14391569659E+02 -0.36318405623E+00 -0.10964049008E+02  0.18097570290E+02  0.24999969366E+00 0.  0.
    1000022    2    1    0    0    0 -0.43150658605E+02 -0.12080823599E+02  0.42406653284E+02  0.62499998615E+02  0.99999973649E+01 0.  0.
    3000022    2    5    5    0    0 -0.13030993693E+02  0.89345803008E+00  0.10948179763E+02  0.17044946591E+02  0.25000062182E+00 0.  0.
        -13    1    4    4    0    0  0.76997472681E+01 -0.15013284222E+00 -0.59287589594E+01  0.97195604664E+01  0.10500000000E+00 0. -1.
         13    1    4    4    0    0  0.66918223908E+01 -0.21305121400E+00 -0.50352900484E+01  0.83780098234E+01  0.10500000000E+00 0.  1.
    3000001    1    5    5    0    0 -0.30119664912E+02 -0.12974281630E+02  0.31458473521E+02  0.45455052024E+02  0.10000000000E+01 0.  1.
        -13    1    6    6    0    0 -0.36048644533E+01  0.25466004979E+00  0.29806969144E+01  0.46856673552E+01  0.10500000000E+00 0.  1.
         13    1    6    6    0    0 -0.94261292396E+01  0.63879798030E+00  0.79674828481E+01  0.12359279236E+02  0.10500000000E+00 0. -1.
</event>
<event>
11    0  0.3482988E-009  0.9118800E+02  0.7816531E-02  0.1126479E+00
         25   -1    0    0    0    0  0.00000000000E+00  0.00000000000E+00  0.99999998245E-14  0.12500000000E+03  0.12500000000E+03 0.  0.
    3000001    1    3    3    0    0  0.16141019120E+02  0.53355799429E+01  0.54750126613E+01  0.17887891860E+02  0.10000000000E+01 0.  1.
    1000022    2    1    0    0    0  0.51968452710E+02  0.31271743275E+02  0.11296366302E+02  0.62500000369E+02  0.10000007498E+02 0.  0.
    3000022    2    3    3    0    0  0.35827433590E+02  0.25936163332E+02  0.58213536403E+01  0.44612108509E+02  0.25000271922E+00 0.  0.
    1000022    2    1    0    0    0 -0.51968452710E+02 -0.31271743275E+02 -0.11296366302E+02  0.62499999631E+02  0.10000002888E+02 0.  0.
    3000022    2    5    5    0    0 -0.94277403362E+01 -0.15897525487E+01 -0.24031468353E+01  0.98614003412E+01  0.25000192926E+00 0.  0.
        -13    1    4    4    0    0  0.27505336859E+02  0.19924580139E+02  0.44677983357E+01  0.34256454814E+02  0.10500000000E+00 0.  1.
         13    1    4    4    0    0  0.83220967309E+01  0.60115831931E+01  0.13535553046E+01  0.10355653695E+02  0.10500000000E+00 0. -1.
    3000001    1    5    5    0    0 -0.42540712374E+02 -0.29681990726E+02 -0.88932194663E+01  0.52638599290E+02  0.10000000000E+01 0.  1.
        -13    1    6    6    0    0 -0.59412905527E+01 -0.96509721294E+00 -0.14639124747E+01  0.61955153777E+01  0.10500000000E+00 0. -1.
         13    1    6    6    0    0 -0.34864497835E+01 -0.62465533572E+00 -0.93923436062E+00  0.36658849634E+01  0.10500000000E+00 0.  1.
</event>
<event>
11    0  0.3482988E-009  0.9118800E+02  0.7816531E-02  0.1126479E+00
         25   -1    0    0    0    0  0.00000000000E+00  0.00000000000E+00  0.99999998245E-14  0.12500000000E+03  0.12500000000E+03 0.  0.
    3000001    1    3    3    0    0 -0.16137695864E+02  0.13165732158E+02 -0.22548853600E+00  0.20852159987E+02  0.10000000000E+01 0.  1.
    1000022    2    1    0    0    0 -0.39570962519E+02  0.46500579480E+02 -0.88365466249E+01  0.62500003329E+02  0.10000044660E+02 0.  0.
    3000022    2    3    3    0    0 -0.23433266655E+02  0.33334847323E+02 -0.86110580889E+01  0.41647843342E+02  0.25000294808E+00 0.  0.
    1000022    2    1    0    0    0  0.39570962519E+02 -0.46500579480E+02  0.88365466249E+01  0.62499996671E+02  0.10000003048E+02 0.  0.
    3000022    2    5    5    0    0  0.30310160233E+02 -0.33602340425E+02  0.10641643666E+02  0.46487957293E+02  0.24999599405E+00 0.  0.
        -13    1    4    4    0    0 -0.98601093594E+01  0.14118274601E+02 -0.36779530866E+01  0.17609253198E+02  0.10500000000E+00 0.  1.
         13    1    4    4    0    0 -0.13573157295E+02  0.19216572722E+02 -0.49331050023E+01  0.24038590144E+02  0.10500000000E+00 0. -1.
    3000001    1    5    5    0    0  0.92608022856E+01 -0.12898239055E+02 -0.18050970412E+01  0.16012039378E+02  0.10000000000E+01 0.  1.
        -13    1    6    6    0    0  0.16703970367E+02 -0.18419440197E+02  0.58554596929E+01  0.25545955382E+02  0.10500000000E+00 0. -1.
         13    1    6    6    0    0  0.13606189867E+02 -0.15182900228E+02  0.47861839732E+01  0.20942001911E+02  0.10500000000E+00 0.  1.
</event>
<event>
11    0  0.3482988E-009  0.9118800E+02  0.7816531E-02  0.1126479E+00
         25   -1    0    0    0    0  0.00000000000E+00  0.00000000000E+00  0.99999998245E-14  0.12500000000E+03  0.12500000000E+03 0.  0.
    3000001    1    3    3    0    0 -0.14109355444E+02  0.24168288949E+02 -0.45778888054E+02  0.53664575777E+02  0.10000000000E+01 0. -1.
    1000022    2    1    0    0    0 -0.12417071377E+02  0.28424918954E+02 -0.53330012509E+02  0.62499999417E+02  0.10000000693E+02 0.  0.
    3000022    2    3    3    0    0  0.16922840671E+01  0.42566300048E+01 -0.75511244544E+01  0.88354236407E+01  0.25001204857E+00 0.  0.
    1000022    2    1    0    0    0  0.12417071377E+02 -0.28424918954E+02  0.53330012509E+02  0.62500000583E+02  0.10000007977E+02 0.  0.
    3000022    2    5    5    0    0  0.10376851606E+02 -0.27047862160E+02  0.43110455737E+02  0.51940733433E+02  0.24999805445E+00 0.  0.
        -13    1    4    4    0    0  0.11836503614E+01  0.28540132770E+01 -0.51372792978E+01  0.59957554609E+01  0.10500000000E+00 0. -1.
         13    1    4    4    0    0  0.50863370568E+00  0.14026167278E+01 -0.24138451566E+01  0.28396681799E+01  0.10500000000E+00 0.  1.
    3000001    1    5    5    0    0  0.20402197709E+01 -0.13770567940E+01  0.10219556772E+02  0.10559267150E+02  0.10000000000E+01 0.  1.
        -13    1    6    6    0    0  0.32340535474E+01 -0.84172807038E+01  0.13332129617E+02  0.16095540435E+02  0.10500000000E+00 0. -1.
         13    1    6    6    0    0  0.71427980585E+01 -0.18630581456E+02  0.29778326120E+02  0.35845192998E+02  0.10500000000E+00 0.  1.
</event>
<event>
11    0  0.3482988E-009  0.9118800E+02  0.7816531E-02  0.1126479E+00
         25   -1    0    0    0    0  0.00000000000E+00  0.00000000000E+00  0.99999998245E-14  0.12500000000E+03  0.12500000000E+03 0.  0.
    3000001    1    3    3    0    0 -0.87418742020E+01 -0.22891139950E+02 -0.35242682119E+02  0.42935664612E+02  0.10000000000E+01 0. -1.
    1000022    2    1    0    0    0 -0.16152591217E+02 -0.27740683705E+02 -0.52685844445E+02  0.62499999889E+02  0.10000002289E+02 0.  0.
    3000022    2    3    3    0    0 -0.74107170151E+01 -0.48495437558E+01 -0.17443162327E+02  0.19564335277E+02  0.25000314161E+00 0.  0.
    1000022    2    1    0    0    0  0.16152591217E+02  0.27740683705E+02  0.52685844445E+02  0.62500000111E+02  0.10000003674E+02 0.  0.
    3000022    2    5    5    0    0  0.58147505001E+01  0.16811483520E+02  0.21858744361E+02  0.28183408395E+02  0.25000441623E+00 0.  0.
        -13    1    4    4    0    0 -0.29507598124E+01 -0.20056424156E+01 -0.70500127535E+01  0.79021066681E+01  0.10500000000E+00 0.  1.
         13    1    4    4    0    0 -0.44599572027E+01 -0.28439013402E+01 -0.10393149573E+02  0.11662228609E+02  0.10500000000E+00 0. -1.
    3000001    1    5    5    0    0  0.10337840717E+02  0.10929200186E+02  0.30827100084E+02  0.34316591716E+02  0.10000000000E+01 0. -1.
        -13    1    6    6    0    0  0.43173365181E+01  0.12466012165E+02  0.16161684753E+02  0.20862692371E+02  0.10500000000E+00 0.  1.
         13    1    6    6    0    0  0.14974139820E+01  0.43454713543E+01  0.56970596081E+01  0.73207160239E+01  0.10500000000E+00 0. -1.
</event>
<event>
11    0  0.3482988E-009  0.9118800E+02  0.7816531E-02  0.1126479E+00
         25   -1    0    0    0    0  0.00000000000E+00  0.00000000000E+00  0.99999998245E-14  0.12500000000E+03  0.12500000000E+03 0.  0.
    3000001    1    3    3    0    0  0.10479384404E+01  0.32213274974E+02  0.39144783585E+02  0.50715947605E+02  0.10000000000E+01 0.  1.
    1000022    2    1    0    0    0 -0.53843314417E+00  0.42439878887E+02  0.44775181438E+02  0.62500000029E+02  0.99999950321E+01 0.  0.
    3000022    2    3    3    0    0 -0.15863715846E+01  0.10226603913E+02  0.56303978531E+01  0.11784052425E+02  0.25001832197E+00 0.  0.
    1000022    2    1    0    0    0  0.53843314417E+00 -0.42439878887E+02 -0.44775181438E+02  0.62499999971E+02  0.99999946651E+01 0.  0.
    3000022    2    5    5    0    0 -0.30153181644E+01 -0.31738821718E+02 -0.29110569962E+02  0.43173287224E+02  0.24999704557E+00 0.  0.
        -13    1    4    4    0    0 -0.99028316772E+00  0.64501856836E+01  0.34832458659E+01  0.73979445029E+01  0.10500000000E+00 0. -1.
         13    1    4    4    0    0 -0.59608841684E+00  0.37764182297E+01  0.21471519872E+01  0.43861079219E+01  0.10500000000E+00 0.  1.
    3000001    1    5    5    0    0  0.35537513086E+01 -0.10701057170E+02 -0.15664611476E+02  0.19326712747E+02  0.10000000000E+01 0. -1.
        -13    1    6    6    0    0 -0.99767968293E+00 -0.11007077938E+02 -0.10052401237E+02  0.14940312083E+02  0.10500000000E+00 0.  1.
         13    1    6    6    0    0 -0.20176384815E+01 -0.20731743780E+02 -0.19058168725E+02  0.28232975141E+02  0.10500000000E+00 0. -1.
</event>
<event>
11    0  0.3482988E-009  0.9118800E+02  0.7816531E-02  0.1126479E+00
         25   -1    0    0    0    0  0.00000000000E+00  0.00000000000E+00  0.99999998245E-14  0.12500000000E+03  0.12500000000E+03 0.  0.
    3000001    1    3    3    0    0 -0.12914380972E+02 -0.40770102549E+02  0.77127115030E+01  0.43468016017E+02  0.10000000000E+01 0. -1.
    1000022    2    1    0    0    0 -0.23193000342E+02 -0.55330227637E+02  0.14384042962E+02  0.62500000170E+02  0.99999987091E+01 0.  0.
    3000022    2    3    3    0    0 -0.10278619370E+02 -0.14560125088E+02  0.66713314588E+01  0.19031984153E+02  0.24999730890E+00 0.  0.
    1000022    2    1    0    0    0  0.23193000342E+02  0.55330227637E+02 -0.14384042962E+02  0.62499999830E+02  0.99999965779E+01 0.  0.
    3000022    2    5    5    0    0  0.21229080870E+02  0.54100638638E+02 -0.14724346035E+02  0.59953497330E+02  0.25000064440E+00 0.  0.
        -13    1    4    4    0    0 -0.56025552890E+01 -0.80489889721E+01  0.36864353568E+01  0.10477388982E+02  0.10500000000E+00 0.  1.
         13    1    4    4    0    0 -0.46760640806E+01 -0.65111361156E+01  0.29848961020E+01  0.85545951711E+01  0.10500000000E+00 0. -1.
    3000001    1    5    5    0    0  0.19639194719E+01  0.12295889989E+01  0.34030307319E+00  0.25465024995E+01  0.10000000000E+01 0.  1.
        -13    1    6    6    0    0  0.99472111186E+01  0.25213260345E+02 -0.68204886344E+01  0.27949697609E+02  0.10500000000E+00 0.  1.
         13    1    6    6    0    0  0.11281869751E+02  0.28887378293E+02 -0.79038574006E+01  0.32003799721E+02  0.10500000000E+00 0. -1.
</event>
<event>
11    0  0.3482988E-009  0.9118800E+02  0.7816531E-02  0.1126479E+00
         25   -1    0    0    0    0  0.00000000000E+00  0.00000000000E+00  0.99999998245E-14  0.12500000000E+03  0.12500000000E+03 0.  0.
    3000001    1    3    3    0    0 -0.13111047976E+02 -0.93401777105E+01  0.42598305479E+02  0.45549469024E+02  0.10000000000E+01 0.  1.
    1000022    2    1    0    0    0 -0.21148662861E+02 -0.77553192056E+01  0.57435521077E+02  0.62499999940E+02  0.99999997151E+01 0.  0.
    3000022    2    3    3    0    0 -0.80376148853E+01  0.15848585048E+01  0.14837215599E+02  0.16950530916E+02  0.25000420598E+00 0.  0.
    1000022    2    1    0    0    0  0.21148662861E+02  0.77553192056E+01 -0.57435521077E+02  0.62500000060E+02  0.10000000466E+02 0.  0.
    3000022    2    5    5    0    0  0.14543849675E+02  0.99382641179E+01 -0.40790439147E+02  0.44432140248E+02  0.25000842156E+00 0.  0.
        -13    1    4    4    0    0 -0.21336952799E+01  0.42969746776E+00  0.38767081012E+01  0.44471548391E+01  0.10500000000E+00 0.  1.
         13    1    4    4    0    0 -0.59039196054E+01  0.11551610371E+01  0.10960507497E+02  0.12503376077E+02  0.10500000000E+00 0. -1.
    3000001    1    5    5    0    0  0.66048131862E+01 -0.21829449123E+01 -0.16645081930E+02  0.18067859812E+02  0.10000000000E+01 0.  1.
        -13    1    6    6    0    0  0.81468759462E+01  0.54939247140E+01 -0.22684091845E+02  0.24721121420E+02  0.10500000000E+00 0. -1.
         13    1    6    6    0    0  0.63969737285E+01  0.44443394039E+01 -0.18106347302E+02  0.19711018828E+02  0.10500000000E+00 0.  1.
</event>
<event>
11    0  0.3482988E-009  0.9118800E+02  0.7816531E-02  0.1126479E+00
         25   -1    0    0    0    0  0.00000000000E+00  0.00000000000E+00  0.99999998245E-14  0.12500000000E+03  0.12500000000E+03 0.  0.
    3000001    1    3    3    0    0  0.18219935523E+02  0.82826146963E+01 -0.91484947740E+00  0.20060027573E+02  0.10000000000E+01 0.  1.
    1000022    2    1    0    0    0  0.51830465412E+02  0.29521989695E+02 -0.15757694740E+02  0.62500000802E+02  0.10000006819E+02 0.  0.
    3000022    2    3    3    0    0  0.33610529889E+02  0.21239374999E+02 -0.14842845263E+02  0.42439973229E+02  0.25000487112E+00 0.  0.
    1000022    2    1    0    0    0 -0.51830465412E+02 -0.29521989695E+02  0.15757694740E+02  0.62499999198E+02  0.99999967907E+01 0.  0.
    3000022    2    5    5    0    0 -0.42299110760E+02 -0.26944410861E+02  0.15777494358E+02  0.52575734682E+02  0.25000284958E+00 0.  0.
        -13    1    4    4    0    0  0.18699923216E+02  0.11748819475E+02 -0.82797311650E+01  0.23585734258E+02  0.10500000000E+00 0.  1.
         13    1    4    4    0    0  0.14910606673E+02  0.94905555238E+01 -0.65631140980E+01  0.18854238971E+02  0.10500000000E+00 0. -1.
    3000001    1    5    5    0    0 -0.95313546521E+01 -0.25775788341E+01 -0.19799617964E-01  0.99242645156E+01  0.10000000000E+01 0. -1.
        -13    1    6    6    0    0 -0.18785286786E+02 -0.11894859665E+02  0.70241641810E+01  0.23317902854E+02  0.10500000000E+00 0.  1.
         13    1    6    6    0    0 -0.23513823974E+02 -0.15049551196E+02  0.87533301773E+01  0.29257831828E+02  0.10500000000E+00 0. -1.
</event>
<event>
11    0  0.3482988E-009  0.9118800E+02  0.7816531E-02  0.1126479E+00
         25   -1    0    0    0    0  0.00000000000E+00  0.00000000000E+00  0.99999998245E-14  0.12500000000E+03  0.12500000000E+03 0.  0.
    3000001    1    3    3    0    0  0.29450195183E+02  0.27713716345E+02  0.10313095631E+02  0.41745946049E+02  0.10000000000E+01 0.  1.
    1000022    2    1    0    0    0  0.39270652790E+02  0.43055241677E+02  0.20256157299E+02  0.62500000215E+02  0.10000005597E+02 0.  0.
    3000022    2    3    3    0    0  0.98204576067E+01  0.15341525332E+02  0.99430616679E+01  0.20754054166E+02  0.25000380766E+00 0.  0.
    1000022    2    1    0    0    0 -0.39270652790E+02 -0.43055241677E+02 -0.20256157299E+02  0.62499999785E+02  0.10000002909E+02 0.  0.
    3000022    2    5    5    0    0 -0.16962742343E+02 -0.25828901067E+02 -0.97411921326E+01  0.32400927179E+02  0.24999946931E+00 0.  0.
        -13    1    4    4    0    0  0.53997890855E+01  0.85434761676E+01  0.54802029799E+01  0.11497493505E+02  0.10500000000E+00 0.  1.
         13    1    4    4    0    0  0.44206685212E+01  0.67980491640E+01  0.44628586880E+01  0.92565606615E+01  0.10500000000E+00 0. -1.
    3000001    1    5    5    0    0 -0.22307910446E+02 -0.17226340610E+02 -0.10514965167E+02  0.30099072606E+02  0.10000000000E+01 0.  1.
        -13    1    6    6    0    0 -0.12116413884E+02 -0.18428735293E+02 -0.69946325555E+01  0.23137884076E+02  0.10500000000E+00 0. -1.
         13    1    6    6    0    0 -0.48463284592E+01 -0.74001657744E+01 -0.27465595771E+01  0.92630431032E+01  0.10500000000E+00 0.  1.
</event>
<event>
11    0  0.3482988E-009  0.9118800E+02  0.7816531E-02  0.1126479E+00
         25   -1    0    0    0    0  0.00000000000E+00  0.00000000000E+00  0.99999998245E-14  0.12500000000E+03  0.12500000000E+03 0.  0.
    3000001    1    3    3    0    0 -0.15220898773E+02  0.13472683118E+02  0.12889542004E+02  0.24090023722E+02  0.10000000000E+01 0.  1.
    1000022    2    1    0    0    0 -0.47725313777E+02  0.28932696567E+02  0.26295314295E+02  0.62500000109E+02  0.99999977036E+01 0.  0.
    3000022    2    3    3    0    0 -0.32504415004E+02  0.15460013449E+02  0.13405772291E+02  0.38409976387E+02  0.25008953351E+00 0.  0.
    1000022    2    1    0    0    0  0.47725313777E+02 -0.28932696567E+02 -0.26295314295E+02  0.62499999891E+02  0.99999963366E+01 0.  0.
    3000022    2    5    5    0    0  0.30711154212E+02 -0.14237101356E+02 -0.12398487019E+02  0.36050728584E+02  0.25000609022E+00 0.  0.
        -13    1    4    4    0    0 -0.22160219624E+02  0.10485882870E+02  0.91446276845E+01  0.26166090916E+02  0.10500000000E+00 0. -1.
         13    1    4    4    0    0 -0.10344195380E+02  0.49741305793E+01  0.42611446069E+01  0.12243885472E+02  0.10500000000E+00 0.  1.
    3000001    1    5    5    0    0  0.17014159565E+02 -0.14695595211E+02 -0.13896827276E+02  0.26449271307E+02  0.10000000000E+01 0. -1.
        -13    1    6    6    0    0  0.18137571675E+02 -0.83731620627E+01 -0.73760161524E+01  0.21295492210E+02  0.10500000000E+00 0. -1.
         13    1    6    6    0    0  0.12573582536E+02 -0.58639392932E+01 -0.50224708669E+01  0.14755236374E+02  0.10500000000E+00 0.  1.
</event>
<event>
11    0  0.3482988E-009  0.9118800E+02  0.7816531E-02  0.1126479E+00
         25   -1    0    0    0    0  0.00000000000E+00  0.00000000000E+00  0.99999998245E-14  0.12500000000E+03  0.12500000000E+03 0.  0.
    3000001    1    3    3    0    0 -0.73654451589E+01  0.56825766642E+02  0.72537260176E+01  0.57767067418E+02  0.10000000000E+01 0.  1.
    1000022    2    1    0    0    0 -0.10530239156E+02  0.60269527746E+02  0.79339753732E+01  0.62499999644E+02  0.10000003942E+02 0.  0.
    3000022    2    3    3    0    0 -0.31647939970E+01  0.34437611037E+01  0.68024935559E+00  0.47329322263E+01  0.24999337976E+00 0.  0.
    1000022    2    1    0    0    0  0.10530239156E+02 -0.60269527746E+02 -0.79339753732E+01  0.62500000356E+02  0.10000008394E+02 0.  0.
    3000022    2    5    5    0    0  0.36257983029E+01 -0.42839733737E+02 -0.30538658268E+01  0.43101946540E+02  0.24999802892E+00 0.  0.
        -13    1    4    4    0    0 -0.15808551801E+01  0.17669127885E+01  0.40538852147E+00  0.24075815160E+01  0.10500000000E+00 0.  1.
         13    1    4    4    0    0 -0.15839388168E+01  0.16768483152E+01  0.27486083412E+00  0.23253507103E+01  0.10500000000E+00 0. -1.
    3000001    1    5    5    0    0  0.69044408530E+01 -0.17429794009E+02 -0.48801095464E+01  0.19398053816E+02  0.10000000000E+01 0.  1.
        -13    1    6    6    0    0  0.13362260765E+01 -0.15559978479E+02 -0.10538632528E+01  0.15653117362E+02  0.10500000000E+00 0. -1.
         13    1    6    6    0    0  0.22895722263E+01 -0.27279755258E+02 -0.20000025740E+01  0.27448829177E+02  0.10500000000E+00 0.  1.
</event>
<event>
11    0  0.3482988E-009  0.9118800E+02  0.7816531E-02  0.1126479E+00
         25   -1    0    0    0    0  0.00000000000E+00  0.00000000000E+00  0.99999998245E-14  0.12500000000E+03  0.12500000000E+03 0.  0.
    3000001    1    3    3    0    0 -0.18720758267E+01  0.91336962680E+00 -0.88649212388E+01  0.91610993089E+01  0.10000000000E+01 0.  1.
    1000022    2    1    0    0    0  0.24719371321E+01 -0.11366910264E+02 -0.60588224387E+02  0.62499999745E+02  0.99999955797E+01 0.  0.
    3000022    2    3    3    0    0  0.43440129588E+01 -0.12280279891E+02 -0.51723303148E+02  0.53338900436E+02  0.24997673893E+00 0.  0.
    1000022    2    1    0    0    0 -0.24719371321E+01  0.11366910264E+02  0.60588224387E+02  0.62500000255E+02  0.99999987656E+01 0.  0.
    3000022    2    5    5    0    0  0.19515975887E+01  0.98359085619E+01  0.32697027165E+02  0.34201051367E+02  0.24999765050E+00 0.  0.
        -13    1    4    4    0    0  0.19011993354E+01 -0.55579331685E+01 -0.23215571141E+02  0.23947420497E+02  0.10500000000E+00 0. -1.
         13    1    4    4    0    0  0.24428136234E+01 -0.67223467228E+01 -0.28507732007E+02  0.29391479940E+02  0.10500000000E+00 0.  1.
    3000001    1    5    5    0    0 -0.44235347208E+01  0.15310017025E+01  0.27891197223E+02  0.28298948888E+02  0.10000000000E+01 0. -1.
        -13    1    6    6    0    0  0.11604235760E+01  0.56588622752E+01  0.18650922495E+02  0.19525297438E+02  0.10500000000E+00 0. -1.
         13    1    6    6    0    0  0.79117401267E+00  0.41770462868E+01  0.14046104670E+02  0.14675753929E+02  0.10500000000E+00 0.  1.
</event>
<event>
11    0  0.3482988E-009  0.9118800E+02  0.7816531E-02  0.1126479E+00
         25   -1    0    0    0    0  0.00000000000E+00  0.00000000000E+00  0.99999998245E-14  0.12500000000E+03  0.12500000000E+03 0.  0.
    3000001    1    3    3    0    0 -0.14069206639E+02 -0.70332511369E+01 -0.43529795330E+02  0.46295272745E+02  0.10000000000E+01 0. -1.
    1000022    2    1    0    0    0 -0.15175086552E+02 -0.51132327609E+01 -0.59580379477E+02  0.62500000114E+02  0.99999997238E+01 0.  0.
    3000022    2    3    3    0    0 -0.11058799122E+01  0.19200183759E+01 -0.16050584147E+02  0.16204727369E+02  0.24999341360E+00 0.  0.
    1000022    2    1    0    0    0  0.15175086552E+02  0.51132327609E+01  0.59580379477E+02  0.62499999886E+02  0.99999982986E+01 0.  0.
    3000022    2    5    5    0    0  0.13920786144E+02  0.95782762153E+00  0.38428431151E+02  0.40884135819E+02  0.25004056018E+00 0.  0.
        -13    1    4    4    0    0 -0.69897905250E+00  0.11920115239E+01 -0.95522581058E+01  0.96522600001E+01  0.10500000000E+00 0. -1.
         13    1    4    4    0    0 -0.40690085968E+00  0.72800685207E+00 -0.64983260411E+01  0.65524673691E+01  0.10500000000E+00 0.  1.
    3000001    1    5    5    0    0  0.12543004077E+01  0.41554051394E+01  0.21151948326E+02  0.21615864067E+02  0.10000000000E+01 0. -1.
        -13    1    6    6    0    0  0.71251792655E+01  0.55772869002E+00  0.19705181662E+02  0.20961499235E+02  0.10500000000E+00 0. -1.
         13    1    6    6    0    0  0.67956068784E+01  0.40009893151E+00  0.18723249489E+02  0.19922636584E+02  0.10500000000E+00 0.  1.
</event>
<event>
11    0  0.3482988E-009  0.9118800E+02  0.7816531E-02  0.1126479E+00
         25   -1    0    0    0    0  0.00000000000E+00  0.00000000000E+00  0.99999998245E-14  0.12500000000E+03  0.12500000000E+03 0.  0.
    3000001    1    3    3    0    0 -0.42259085791E+02 -0.67584151569E+01  0.15930329802E+02  0.45675835131E+02  0.10000000000E+01 0. -1.
    1000022    2    1    0    0    0 -0.54933707227E+02 -0.13816156822E+02  0.24446917193E+02  0.62499999507E+02  0.99999899565E+01 0.  0.
    3000022    2    3    3    0    0 -0.12674621436E+02 -0.70577416650E+01  0.85165873914E+01  0.16824164376E+02  0.25000041422E+00 0.  0.
    1000022    2    1    0    0    0  0.54933707227E+02  0.13816156822E+02 -0.24446917193E+02  0.62500000493E+02  0.99999961181E+01 0.  0.
    3000022    2    5    5    0    0  0.47011054433E+02  0.85436131103E+01 -0.18527880221E+02  0.51248194275E+02  0.25001422645E+00 0.  0.
        -13    1    4    4    0    0 -0.55042713824E+01 -0.30462614608E+01  0.37672125266E+01  0.73334594537E+01  0.10500000000E+00 0. -1.
         13    1    4    4    0    0 -0.71703500534E+01 -0.40114802042E+01  0.47493748648E+01  0.94907049224E+01  0.10500000000E+00 0.  1.
    3000001    1    5    5    0    0  0.79226527937E+01  0.52725437115E+01 -0.59190369721E+01  0.11251806217E+02  0.10000000000E+01 0. -1.
        -13    1    6    6    0    0  0.15635344936E+02  0.27881501010E+01 -0.61687032241E+01  0.17038242771E+02  0.10500000000E+00 0. -1.
         13    1    6    6    0    0  0.31375709497E+02  0.57554630094E+01 -0.12359176997E+02  0.34209951504E+02  0.10500000000E+00 0.  1.
</event>
<event>
11    0  0.3482988E-009  0.9118800E+02  0.7816531E-02  0.1126479E+00
         25   -1    0    0    0    0  0.00000000000E+00  0.00000000000E+00  0.99999998245E-14  0.12500000000E+03  0.12500000000E+03 0.  0.
    3000001    1    3    3    0    0 -0.67676736096E+01 -0.31291217448E-02 -0.20763405635E+01  0.71493080793E+01  0.10000000000E+01 0.  1.
    1000022    2    1    0    0    0 -0.52403415852E+02  0.25592400731E+02 -0.20128615442E+02  0.62500001359E+02  0.10000002109E+02 0.  0.
    3000022    2    3    3    0    0 -0.45635742242E+02  0.25595529853E+02 -0.18052274878E+02  0.55350693280E+02  0.24999966995E+00 0.  0.
    1000022    2    1    0    0    0  0.52403415852E+02 -0.25592400731E+02  0.20128615442E+02  0.62499998641E+02  0.99999851193E+01 0.  0.
    3000022    2    5    5    0    0  0.33971362764E+01 -0.25333885192E+01 -0.99061555229E+00  0.43591747751E+01  0.24998655480E+00 0.  0.
        -13    1    4    4    0    0 -0.10932126639E+02  0.61355075617E+01 -0.43054780156E+01  0.13255338993E+02  0.10500000000E+00 0. -1.
         13    1    4    4    0    0 -0.34703615603E+02  0.19460022291E+02 -0.13746796863E+02  0.42095354286E+02  0.10500000000E+00 0.  1.
    3000001    1    5    5    0    0  0.49006279575E+02 -0.23059012212E+02  0.21119230994E+02  0.58140823866E+02  0.10000000000E+01 0.  1.
        -13    1    6    6    0    0  0.23851799940E+01 -0.18041581702E+01 -0.73877016968E+00  0.30823492130E+01  0.10500000000E+00 0. -1.
         13    1    6    6    0    0  0.10119562824E+01 -0.72923034891E+00 -0.25184538260E+00  0.12768255621E+01  0.10500000000E+00 0.  1.
</event>
<event>
11    0  0.3482988E-009  0.9118800E+02  0.7816531E-02  0.1126479E+00
         25   -1    0    0    0    0  0.00000000000E+00  0.00000000000E+00  0.99999998245E-14  0.12500000000E+03  0.12500000000E+03 0.  0.
    3000001    1    3    3    0    0 -0.38284081356E+01 -0.42921413670E+01  0.18959433816E+02  0.19837825410E+02  0.10000000000E+01 0. -1.
    1000022    2    1    0    0    0 -0.25100393002E+01 -0.28713452746E+01  0.61576823053E+02  0.62499999884E+02  0.99999963582E+01 0.  0.
    3000022    2    3    3    0    0  0.13183688354E+01  0.14207960924E+01  0.42617389238E+02  0.42662174474E+02  0.25001504743E+00 0.  0.
    1000022    2    1    0    0    0  0.25100393002E+01  0.28713452746E+01 -0.61576823053E+02  0.62500000116E+02  0.99999978110E+01 0.  0.
    3000022    2    5    5    0    0  0.44762733925E+01  0.53878673376E+01 -0.33568266293E+02  0.34292231477E+02  0.24999967294E+00 0.  0.
        -13    1    4    4    0    0  0.53419302714E+00  0.62633036894E+00  0.16928817505E+02  0.16949145672E+02  0.10500000000E+00 0.  1.
         13    1    4    4    0    0  0.78417580827E+00  0.79446572342E+00  0.25688571733E+02  0.25713028802E+02  0.10500000000E+00 0. -1.
    3000001    1    5    5    0    0 -0.19662340924E+01 -0.25165220630E+01 -0.28008556760E+02  0.28207768639E+02  0.10000000000E+01 0. -1.
        -13    1    6    6    0    0  0.11851676747E+01  0.14712225559E+01 -0.91687220601E+01  0.93619232768E+01  0.10500000000E+00 0.  1.
         13    1    6    6    0    0  0.32911057178E+01  0.39166447817E+01 -0.24399544233E+02  0.24930308201E+02  0.10500000000E+00 0. -1.
</event>
<event>
11    0  0.3482988E-009  0.9118800E+02  0.7816531E-02  0.1126479E+00
         25   -1    0    0    0    0  0.00000000000E+00  0.00000000000E+00  0.99999998245E-14  0.12500000000E+03  0.12500000000E+03 0.  0.
    3000001    1    3    3    0    0 -0.63521903972E+01 -0.34957123938E+02  0.19603139809E+02  0.40591057232E+02  0.10000000000E+01 0.  1.
    1000022    2    1    0    0    0 -0.28272523650E+01 -0.54779945786E+02  0.28238527142E+02  0.62500002163E+02  0.10000001949E+02 0.  0.
    3000022    2    3    3    0    0  0.35249380322E+01 -0.19822821848E+02  0.86353873337E+01  0.21908944931E+02  0.24999888312E+00 0.  0.
    1000022    2    1    0    0    0  0.28272523650E+01  0.54779945786E+02 -0.28238527142E+02  0.62499997837E+02  0.99999749085E+01 0.  0.
    3000022    2    5    5    0    0  0.44949767049E+01  0.24565019858E+02 -0.86096465611E+01  0.26416538936E+02  0.24999858913E+00 0.  0.
        -13    1    4    4    0    0  0.15545146353E+01 -0.83706293362E+01  0.36528585106E+01  0.92648988949E+01  0.10500000000E+00 0.  1.
         13    1    4    4    0    0  0.19704233970E+01 -0.11452192512E+02  0.49825288231E+01  0.12644046036E+02  0.10500000000E+00 0. -1.
    3000001    1    5    5    0    0 -0.16677243399E+01  0.30214925928E+02 -0.19628880581E+02  0.36083458900E+02  0.10000000000E+01 0.  1.
        -13    1    6    6    0    0  0.29007487296E+01  0.15652877164E+02 -0.55370142183E+01  0.16855161173E+02  0.10500000000E+00 0.  1.
         13    1    6    6    0    0  0.15942279753E+01  0.89121426933E+01 -0.30726323428E+01  0.95613777636E+01  0.10500000000E+00 0. -1.
</event>
<event>
11    0  0.3482988E-009  0.9118800E+02  0.7816531E-02  0.1126479E+00
         25   -1    0    0    0    0  0.00000000000E+00  0.00000000000E+00  0.99999998245E-14  0.12500000000E+03  0.12500000000E+03 0.  0.
    3000001    1    3    3    0    0  0.24949232696E+01  0.14587776696E+01 -0.11934345407E+01  0.32828281121E+01  0.10000000000E+01 0.  1.
    1000022    2    1    0    0    0  0.43284987762E+02 -0.38067313958E+01 -0.43796905126E+02  0.62499997403E+02  0.99999703621E+01 0.  0.
    3000022    2    3    3    0    0  0.40790064493E+02 -0.52655090654E+01 -0.42603470585E+02  0.59217169291E+02  0.24997174145E+00 0.  0.
    1000022    2    1    0    0    0 -0.43284987762E+02  0.38067313958E+01  0.43796905126E+02  0.62500002597E+02  0.10000002828E+02 0.  0.
    3000022    2    5    5    0    0 -0.21871383774E+02  0.44623969531E+01  0.16365259626E+02  0.27679498467E+02  0.24999596735E+00 0.  0.
        -13    1    4    4    0    0  0.29105706027E+02 -0.37645864570E+01 -0.30341067261E+02  0.42212623966E+02  0.10500000000E+00 0.  1.
         13    1    4    4    0    0  0.11684358466E+02 -0.15009226083E+01 -0.12262403324E+02  0.17004545325E+02  0.10500000000E+00 0. -1.
    3000001    1    5    5    0    0 -0.21413603988E+02 -0.65566555734E+00  0.27431645499E+02  0.34820504130E+02  0.10000000000E+01 0. -1.
        -13    1    6    6    0    0 -0.12195591944E+02  0.24894076984E+01  0.92075622780E+01  0.15482888673E+02  0.10500000000E+00 0. -1.
         13    1    6    6    0    0 -0.96757918303E+01  0.19729892547E+01  0.71576973484E+01  0.12196609794E+02  0.10500000000E+00 0.  1.
</event>
<event>
11    0  0.3482988E-009  0.9118800E+02  0.7816531E-02  0.1126479E+00
         25   -1    0    0    0    0  0.00000000000E+00  0.00000000000E+00  0.99999998245E-14  0.12500000000E+03  0.12500000000E+03 0.  0.
    3000001    1    3    3    0    0 -0.55716547804E+01 -0.82733704497E+01 -0.23498369044E+01  0.10296296862E+02  0.10000000000E+01 0.  1.
    1000022    2    1    0    0    0 -0.44039631937E+02 -0.34719517447E+02 -0.25716061511E+02  0.62500002734E+02  0.10000022462E+02 0.  0.
    3000022    2    3    3    0    0 -0.38467977157E+02 -0.26446146997E+02 -0.23366224606E+02  0.52203705872E+02  0.24999383072E+00 0.  0.
    1000022    2    1    0    0    0  0.44039631937E+02  0.34719517447E+02  0.25716061511E+02  0.62499997266E+02  0.99999882837E+01 0.  0.
    3000022    2    5    5    0    0  0.16916439354E+02  0.74519625974E+01  0.79848059062E+01  0.20137460176E+02  0.25001999544E+00 0.  0.
        -13    1    4    4    0    0 -0.25605586998E+02 -0.17605279937E+02 -0.15613790844E+02  0.34776334722E+02  0.10500000000E+00 0. -1.
         13    1    4    4    0    0 -0.12862390158E+02 -0.88408670605E+01 -0.77524337620E+01  0.17427371150E+02  0.10500000000E+00 0.  1.
    3000001    1    5    5    0    0  0.27123192583E+02  0.27267554850E+02  0.17731255604E+02  0.42362537090E+02  0.10000000000E+01 0. -1.
        -13    1    6    6    0    0  0.74316778790E+01  0.32676360932E+01  0.35786397337E+01  0.88727092299E+01  0.10500000000E+00 0.  1.
         13    1    6    6    0    0  0.94847614754E+01  0.41843265041E+01  0.44061661724E+01  0.11264750946E+02  0.10500000000E+00 0. -1.
</event>
<event>
11    0  0.3482988E-009  0.9118800E+02  0.7816531E-02  0.1126479E+00
         25   -1    0    0    0    0  0.00000000000E+00  0.00000000000E+00  0.99999998245E-14  0.12500000000E+03  0.12500000000E+03 0.  0.
    3000001    1    3    3    0    0 -0.15742371342E+02  0.44468318387E+02  0.13215577610E+02  0.48999031492E+02  0.10000000000E+01 0.  1.
    1000022    2    1    0    0    0 -0.24562699104E+02  0.54417815198E+02  0.15544300220E+02  0.62499999350E+02  0.99999925613E+01 0.  0.
    3000022    2    3    3    0    0 -0.88203277618E+01  0.99494968113E+01  0.23287226100E+01  0.13500967858E+02  0.25003095037E+00 0.  0.
    1000022    2    1    0    0    0  0.24562699104E+02 -0.54417815198E+02 -0.15544300220E+02  0.62500000650E+02  0.10000000685E+02 0.  0.
    3000022    2    5    5    0    0  0.11257902157E+02 -0.13974003377E+02 -0.48342943636E+01  0.18586178659E+02  0.25000756808E+00 0.  0.
        -13    1    4    4    0    0 -0.36631213658E+01  0.41322623151E+01  0.10326692047E+01  0.56188504756E+01  0.10500000000E+00 0. -1.
         13    1    4    4    0    0 -0.51572063961E+01  0.58172344963E+01  0.12960534053E+01  0.78821173821E+01  0.10500000000E+00 0.  1.
    3000001    1    5    5    0    0  0.13304796946E+02 -0.40443811821E+02 -0.10710005857E+02  0.43913821991E+02  0.10000000000E+01 0.  1.
        -13    1    6    6    0    0  0.51994068547E+01 -0.63539528143E+01 -0.22363415717E+01  0.85099234210E+01  0.10500000000E+00 0. -1.
         13    1    6    6    0    0  0.60584953024E+01 -0.76200505627E+01 -0.25979527919E+01  0.10076255238E+02  0.10500000000E+00 0.  1.
</event>
<event>
11    0  0.3482988E-009  0.9118800E+02  0.7816531E-02  0.1126479E+00
         25   -1    0    0    0    0  0.00000000000E+00  0.00000000000E+00  0.99999998245E-14  0.12500000000E+03  0.12500000000E+03 0.  0.
    3000001    1    3    3    0    0 -0.24562901038E+02 -0.34461772411E+02  0.56087093907E+01  0.42701375694E+02  0.10000000000E+01 0.  1.
    1000022    2    1    0    0    0 -0.32746645257E+02 -0.50335252599E+02  0.14151659750E+02  0.62500000118E+02  0.10000005565E+02 0.  0.
    3000022    2    3    3    0    0 -0.81837442185E+01 -0.15873480188E+02  0.85429503596E+01  0.19798624425E+02  0.24997106738E+00 0.  0.
    1000022    2    1    0    0    0  0.32746645257E+02  0.50335252599E+02 -0.14151659750E+02  0.62499999882E+02  0.10000004084E+02 0.  0.
    3000022    2    5    5    0    0  0.20536880143E+02  0.23406289007E+02 -0.50463406324E+01  0.31545932612E+02  0.24999896377E+00 0.  0.
        -13    1    4    4    0    0 -0.40280012347E+01 -0.76880128281E+01  0.41116023854E+01  0.96045111467E+01  0.10500000000E+00 0. -1.
         13    1    4    4    0    0 -0.41557429838E+01 -0.81854673604E+01  0.44313479742E+01  0.10194113278E+02  0.10500000000E+00 0.  1.
    3000001    1    5    5    0    0  0.12209765114E+02  0.26928963593E+02 -0.91053191180E+01  0.30954067270E+02  0.10000000000E+01 0.  1.
        -13    1    6    6    0    0  0.12860799535E+02  0.14568199457E+02 -0.31617507695E+01  0.19688582809E+02  0.10500000000E+00 0. -1.
         13    1    6    6    0    0  0.76760806086E+01  0.88380895498E+01 -0.18845898629E+01  0.11857349803E+02  0.10500000000E+00 0.  1.
</event>
<event>
11    0  0.3482988E-009  0.9118800E+02  0.7816531E-02  0.1126479E+00
         25   -1    0    0    0    0  0.00000000000E+00  0.00000000000E+00  0.99999998245E-14  0.12500000000E+03  0.12500000000E+03 0.  0.
    3000001    1    3    3    0    0 -0.68303983910E+00  0.61600981589E+00 -0.80074508787E+00  0.15770872553E+01  0.10000000000E+01 0. -1.
    1000022    2    1    0    0    0 -0.49388582224E+02  0.35721118414E+02  0.95404951026E+01  0.62500007838E+02  0.99999789068E+01 0.  0.
    3000022    2    3    3    0    0 -0.48705542385E+02  0.35105108598E+02  0.10341240190E+02  0.60922920583E+02  0.24998998146E+00 0.  0.
    1000022    2    1    0    0    0  0.49388582224E+02 -0.35721118414E+02 -0.95404951026E+01  0.62499992162E+02  0.99998809321E+01 0.  0.
    3000022    2    5    5    0    0  0.73579920576E+01 -0.84310396230E+01 -0.47135725833E+01  0.12145070941E+02  0.25001086432E+00 0.  0.
        -13    1    4    4    0    0 -0.19233439569E+02  0.13839291841E+02  0.41417385512E+01  0.24054442823E+02  0.10500000000E+00 0.  1.
         13    1    4    4    0    0 -0.29472102816E+02  0.21265816757E+02  0.61995016392E+01  0.36868477759E+02  0.10500000000E+00 0. -1.
    3000001    1    5    5    0    0  0.42030590166E+02 -0.27290078791E+02 -0.48269225193E+01  0.50354921221E+02  0.10000000000E+01 0.  1.
        -13    1    6    6    0    0  0.42904451572E+01 -0.50123208947E+01 -0.27679235536E+01  0.71556765017E+01  0.10500000000E+00 0.  1.
         13    1    6    6    0    0  0.30675469003E+01 -0.34187187283E+01 -0.19456490297E+01  0.49893944397E+01  0.10500000000E+00 0. -1.
</event>
<event>
11    0  0.3482988E-009  0.9118800E+02  0.7816531E-02  0.1126479E+00
         25   -1    0    0    0    0  0.00000000000E+00  0.00000000000E+00  0.99999998245E-14  0.12500000000E+03  0.12500000000E+03 0.  0.
    3000001    1    3    3    0    0  0.10568959694E+01  0.15039075109E+02  0.21966240928E+02  0.26660955529E+02  0.10000000000E+01 0. -1.
    1000022    2    1    0    0    0  0.59983178783E+01  0.43001481717E+02  0.43830842407E+02  0.62500000333E+02  0.10000002416E+02 0.  0.
    3000022    2    3    3    0    0  0.49414219088E+01  0.27962406609E+02  0.21864601479E+02  0.35839044804E+02  0.25000165048E+00 0.  0.
    1000022    2    1    0    0    0 -0.59983178783E+01 -0.43001481717E+02 -0.43830842407E+02  0.62499999667E+02  0.99999982484E+01 0.  0.
    3000022    2    5    5    0    0  0.21199591537E+01 -0.13312455706E+02 -0.16657384240E+02  0.21430040862E+02  0.24999577161E+00 0.  0.
        -13    1    4    4    0    0  0.26652909276E+01  0.15384312079E+02  0.12073963981E+02  0.19737590154E+02  0.10500000000E+00 0.  1.
         13    1    4    4    0    0  0.22761309812E+01  0.12578094530E+02  0.97906374982E+01  0.16101454651E+02  0.10500000000E+00 0. -1.
    3000001    1    5    5    0    0 -0.81182770319E+01 -0.29689026011E+02 -0.27173458167E+02  0.41069958805E+02  0.10000000000E+01 0.  1.
        -13    1    6    6    0    0  0.48458352182E+00 -0.31388573485E+01 -0.39226204963E+01  0.50482891361E+01  0.10500000000E+00 0.  1.
         13    1    6    6    0    0  0.16353756318E+01 -0.10173598358E+02 -0.12734763744E+02  0.16381751726E+02  0.10500000000E+00 0.  1.
</event>
<event>
11    0  0.3482988E-009  0.9118800E+02  0.7816531E-02  0.1126479E+00
         25   -1    0    0    0    0  0.00000000000E+00  0.00000000000E+00  0.99999998245E-14  0.12500000000E+03  0.12500000000E+03 0.  0.
    3000001    1    3    3    0    0 -0.38145432154E+01  0.26947238931E+00  0.22291745873E+01  0.45379042135E+01  0.10000000000E+01 0. -1.
    1000022    2    1    0    0    0 -0.29274963698E+02  0.18089245597E+01  0.54276645428E+02  0.62500000834E+02  0.10000007889E+02 0.  0.
    3000022    2    3    3    0    0 -0.25460420482E+02  0.15394521704E+01  0.52047470841E+02  0.57962096621E+02  0.24999924122E+00 0.  0.
    1000022    2    1    0    0    0  0.29274963698E+02 -0.18089245597E+01 -0.54276645428E+02  0.62499999166E+02  0.99999974636E+01 0.  0.
    3000022    2    5    5    0    0  0.23920523915E+02 -0.53223117124E+01 -0.42869629437E+02  0.49380017135E+02  0.24999574622E+00 0.  0.
        -13    1    4    4    0    0 -0.77266085971E+01  0.46579763029E+00  0.15902131819E+02  0.17686330010E+02  0.10500000000E+00 0. -1.
         13    1    4    4    0    0 -0.17733811885E+02  0.10736545401E+01  0.36145339022E+02  0.40275766610E+02  0.10500000000E+00 0.  1.
    3000001    1    5    5    0    0  0.53544397830E+01  0.35133871527E+01 -0.11407015991E+02  0.13119982031E+02  0.10000000000E+01 0. -1.
        -13    1    6    6    0    0  0.15184044427E+02 -0.34208067925E+01 -0.27312122884E+02  0.31435969934E+02  0.10500000000E+00 0.  1.
         13    1    6    6    0    0  0.87364794881E+01 -0.19015049199E+01 -0.15557506552E+02  0.17944047201E+02  0.10500000000E+00 0. -1.
</event>
<event>
11    0  0.3482988E-009  0.9118800E+02  0.7816531E-02  0.1126479E+00
         25   -1    0    0    0    0  0.00000000000E+00  0.00000000000E+00  0.99999998245E-14  0.12500000000E+03  0.12500000000E+03 0.  0.
    3000001    1    3    3    0    0 -0.11441985523E+01 -0.78843987634E+01  0.63275729551E+01  0.10223067724E+02  0.10000000000E+01 0.  1.
    1000022    2    1    0    0    0 -0.18410135246E+02 -0.32626135664E+02  0.49018894914E+02  0.62499999373E+02  0.10000002744E+02 0.  0.
    3000022    2    3    3    0    0 -0.17265936694E+02 -0.24741736901E+02  0.42691321959E+02  0.52276931649E+02  0.24999451668E+00 0.  0.
    1000022    2    1    0    0    0  0.18410135246E+02  0.32626135664E+02 -0.49018894914E+02  0.62500000627E+02  0.10000010579E+02 0.  0.
    3000022    2    5    5    0    0  0.26144169228E+01  0.20798523517E+00 -0.24999488729E+01  0.36318977578E+01  0.25000650396E+00 0.  0.
        -13    1    4    4    0    0 -0.68946910446E+01 -0.99319066235E+01  0.17204680653E+02  0.21028352174E+02  0.10500000000E+00 0.  1.
         13    1    4    4    0    0 -0.10371245649E+02 -0.14809830277E+02  0.25486641307E+02  0.31248579476E+02  0.10500000000E+00 0. -1.
    3000001    1    5    5    0    0  0.15795718323E+02  0.32418150429E+02 -0.46518946041E+02  0.58868102869E+02  0.10000000000E+01 0.  1.
        -13    1    6    6    0    0  0.89938253463E+00  0.11620037049E+00 -0.82034932680E+00  0.12273505969E+01  0.10500000000E+00 0.  1.
         13    1    6    6    0    0  0.17150343881E+01  0.91784864683E-01 -0.16795995461E+01  0.24045471609E+01  0.10500000000E+00 0. -1.
</event>
<event>
11    0  0.3482988E-009  0.9118800E+02  0.7816531E-02  0.1126479E+00
         25   -1    0    0    0    0  0.00000000000E+00  0.00000000000E+00  0.99999998245E-14  0.12500000000E+03  0.12500000000E+03 0.  0.
    3000001    1    3    3    0    0 -0.22411610408E+02  0.26563883955E+02 -0.25767343643E+02  0.43276739830E+02  0.10000000000E+01 0.  1.
    1000022    2    1    0    0    0 -0.37029725642E+02  0.36900415842E+02 -0.32762916165E+02  0.62499999790E+02  0.10000001387E+02 0.  0.
    3000022    2    3    3    0    0 -0.14618115233E+02  0.10336531887E+02 -0.69955725219E+01  0.19223259960E+02  0.25000834893E+00 0.  0.
    1000022    2    1    0    0    0  0.37029725642E+02 -0.36900415842E+02  0.32762916165E+02  0.62500000210E+02  0.10000004008E+02 0.  0.
    3000022    2    5    5    0    0  0.58568602691E+01 -0.10271264798E+02  0.10612501111E+02  0.15889914306E+02  0.25000813534E+00 0.  0.
        -13    1    4    4    0    0 -0.46291227255E+01  0.32635570414E+01 -0.22662789340E+01  0.61013627147E+01  0.10500000000E+00 0.  1.
         13    1    4    4    0    0 -0.99889925079E+01  0.70729748454E+01 -0.47292935879E+01  0.13121897246E+02  0.10500000000E+00 0. -1.
    3000001    1    5    5    0    0  0.31172865373E+02 -0.26629151044E+02  0.22150415054E+02  0.46610085903E+02  0.10000000000E+01 0.  1.
        -13    1    6    6    0    0  0.22994132892E+01 -0.41361390448E+01  0.42970158991E+01  0.63929897787E+01  0.10500000000E+00 0.  1.
         13    1    6    6    0    0  0.35574469799E+01 -0.61351257535E+01  0.63154852117E+01  0.94969245277E+01  0.10500000000E+00 0. -1.
</event>
<event>
11    0  0.3482988E-009  0.9118800E+02  0.7816531E-02  0.1126479E+00
         25   -1    0    0    0    0  0.00000000000E+00  0.00000000000E+00  0.99999998245E-14  0.12500000000E+03  0.12500000000E+03 0.  0.
    3000001    1    3    3    0    0 -0.20139707013E+01 -0.10235208723E+01 -0.14302327327E+01  0.28546871337E+01  0.10000000000E+01 0.  1.
    1000022    2    1    0    0    0 -0.37500354984E+02  0.14268425515E+02 -0.46865611649E+02  0.62499999221E+02  0.99999878374E+01 0.  0.
    3000022    2    3    3    0    0 -0.35486384283E+02  0.15291946387E+02 -0.45435378916E+02  0.59645312087E+02  0.25000582229E+00 0.  0.
    1000022    2    1    0    0    0  0.37500354984E+02 -0.14268425515E+02  0.46865611649E+02  0.62500000779E+02  0.99999975771E+01 0.  0.
    3000022    2    5    5    0    0  0.52246899615E+01 -0.57837457922E+01  0.11180973912E+02  0.13631793189E+02  0.25001468788E+00 0.  0.
        -13    1    4    4    0    0 -0.22180543353E+02  0.96175044412E+01 -0.28465576536E+02  0.37346659391E+02  0.10500000000E+00 0. -1.
         13    1    4    4    0    0 -0.13305840930E+02  0.56744419462E+01 -0.16969802380E+02  0.22298652697E+02  0.10500000000E+00 0.  1.
    3000001    1    5    5    0    0  0.32275665023E+02 -0.84846797229E+01  0.35684637737E+02  0.48868207590E+02  0.10000000000E+01 0. -1.
        -13    1    6    6    0    0  0.22617502734E+01 -0.26010982155E+01  0.49241092122E+01  0.60115807205E+01  0.10500000000E+00 0. -1.
         13    1    6    6    0    0  0.29629396882E+01 -0.31826475767E+01  0.62568646998E+01  0.76202124685E+01  0.10500000000E+00 0.  1.
</event>
<event>
11    0  0.3482988E-009  0.9118800E+02  0.7816531E-02  0.1126479E+00
         25   -1    0    0    0    0  0.00000000000E+00  0.00000000000E+00  0.99999998245E-14  0.12500000000E+03  0.12500000000E+03 0.  0.
    3000001    1    3    3    0    0 -0.40927891670E+02  0.28209520456E+02 -0.34380399834E+02  0.60447342817E+02  0.10000000000E+01 0. -1.
    1000022    2    1    0    0    0 -0.42545930771E+02  0.29275102013E+02 -0.33749996805E+02  0.62500000073E+02  0.99999950830E+01 0.  0.
    3000022    2    3    3    0    0 -0.16180391009E+01  0.10655815572E+01  0.63040302837E+00  0.20526572556E+01  0.24995848340E+00 0.  0.
    1000022    2    1    0    0    0  0.42545930771E+02 -0.29275102013E+02  0.33749996805E+02  0.62499999927E+02  0.99999941746E+01 0.  0.
    3000022    2    5    5    0    0  0.33442837407E+00  0.69433625707E+00  0.71877726114E+00  0.10830671691E+01  0.24989711167E+00 0.  0.
        -13    1    4    4    0    0 -0.37797619209E+00  0.25515778549E+00  0.13403668210E+00  0.48678776631E+00  0.10500000000E+00 0. -1.
         13    1    4    4    0    0 -0.12400629089E+01  0.81042377175E+00  0.49636634626E+00  0.15658694893E+01  0.10500000000E+00 0.  1.
    3000001    1    5    5    0    0  0.42211502397E+02 -0.29969438270E+02  0.33031219544E+02  0.61416932758E+02  0.10000000000E+01 0. -1.
        -13    1    6    6    0    0  0.88718355900E-01  0.20439236789E+00  0.16242110384E+00  0.29504711776E+00  0.10500000000E+00 0. -1.
         13    1    6    6    0    0  0.24571001817E+00  0.48994388918E+00  0.55635615730E+00  0.78802005136E+00  0.10500000000E+00 0.  1.
</event>
<event>
11    0  0.3482988E-009  0.9118800E+02  0.7816531E-02  0.1126479E+00
         25   -1    0    0    0    0  0.00000000000E+00  0.00000000000E+00  0.99999998245E-14  0.12500000000E+03  0.12500000000E+03 0.  0.
    3000001    1    3    3    0    0  0.27960033075E+02  0.21343720594E+02  0.36261840155E+02  0.50529584501E+02  0.10000000000E+01 0.  1.
    1000022    2    1    0    0    0  0.35913044509E+02  0.21770206615E+02  0.45194704611E+02  0.62499999429E+02  0.99999970881E+01 0.  0.
    3000022    2    3    3    0    0  0.79530114340E+01  0.42648602021E+00  0.89328644558E+01  0.11970414928E+02  0.24996993605E+00 0.  0.
    1000022    2    1    0    0    0 -0.35913044509E+02 -0.21770206615E+02 -0.45194704611E+02  0.62500000571E+02  0.10000004229E+02 0.  0.
    3000022    2    5    5    0    0 -0.95842754927E+01 -0.12465222237E+01 -0.12019201622E+02  0.15425169743E+02  0.24999921496E+00 0.  0.
        -13    1    4    4    0    0  0.54709084332E+01  0.28187902826E+00  0.60711624783E+01  0.81780397229E+01  0.10500000000E+00 0.  1.
         13    1    4    4    0    0  0.24821030008E+01  0.14460699195E+00  0.28617019775E+01  0.37923752052E+01  0.10500000000E+00 0. -1.
    3000001    1    5    5    0    0 -0.26328769017E+02 -0.20523684391E+02 -0.33175502989E+02  0.47074830828E+02  0.10000000000E+01 0.  1.
        -13    1    6    6    0    0 -0.44509834978E+01 -0.63225973491E+00 -0.56568413823E+01  0.72264711924E+01  0.10500000000E+00 0. -1.
         13    1    6    6    0    0 -0.51332919949E+01 -0.61426248876E+00 -0.63623602395E+01  0.81986985508E+01  0.10500000000E+00 0.  1.
</event>
<event>
11    0  0.3482988E-009  0.9118800E+02  0.7816531E-02  0.1126479E+00
         25   -1    0    0    0    0  0.00000000000E+00  0.00000000000E+00  0.99999998245E-14  0.12500000000E+03  0.12500000000E+03 0.  0.
    3000001    1    3    3    0    0 -0.19486037908E+02  0.34429720317E+02 -0.37398961584E+02  0.54449918660E+02  0.10000000000E+01 0. -1.
    1000022    2    1    0    0    0 -0.23974588613E+02  0.40705987168E+02 -0.39679877776E+02  0.62499992404E+02  0.99999029888E+01 0.  0.
    3000022    2    3    3    0    0 -0.44885507046E+01  0.62762668500E+01 -0.22809161913E+01  0.80500737440E+01  0.24999122350E+00 0.  0.
    1000022    2    1    0    0    0  0.23974588613E+02 -0.40705987168E+02  0.39679877776E+02  0.62500007596E+02  0.99999979396E+01 0.  0.
    3000022    2    5    5    0    0  0.20560768168E+02 -0.27278650163E+02  0.30935823069E+02  0.46086414395E+02  0.25000085890E+00 0.  0.
        -13    1    4    4    0    0 -0.23315421777E+01  0.33759408491E+01 -0.12124641942E+01  0.42795046402E+01  0.10500000000E+00 0. -1.
         13    1    4    4    0    0 -0.21570085268E+01  0.29003260009E+01 -0.10684519972E+01  0.37705691038E+01  0.10500000000E+00 0.  1.
    3000001    1    5    5    0    0  0.34138204441E+01 -0.13427337005E+02  0.87440547062E+01  0.16413593201E+02  0.10000000000E+01 0. -1.
        -13    1    6    6    0    0  0.98843829647E+01 -0.13011740344E+02  0.14760365847E+02  0.22020123485E+02  0.10500000000E+00 0. -1.
         13    1    6    6    0    0  0.10676385204E+02 -0.14266909819E+02  0.16175457223E+02  0.24066290910E+02  0.10500000000E+00 0.  1.
</event>
<event>
11    0  0.3482988E-009  0.9118800E+02  0.7816531E-02  0.1126479E+00
         25   -1    0    0    0    0  0.00000000000E+00  0.00000000000E+00  0.99999998245E-14  0.12500000000E+03  0.12500000000E+03 0.  0.
    3000001    1    3    3    0    0 -0.13688787270E+02  0.15612030622E+02  0.24716441879E+02  0.32295834039E+02  0.10000000000E+01 0.  1.
    1000022    2    1    0    0    0 -0.31934062664E+02  0.33589427497E+02  0.40721198553E+02  0.62499999648E+02  0.99999973304E+01 0.  0.
    3000022    2    3    3    0    0 -0.18245275394E+02  0.17977396875E+02  0.16004756674E+02  0.30204165609E+02  0.25002277824E+00 0.  0.
    1000022    2    1    0    0    0  0.31934062664E+02 -0.33589427497E+02 -0.40721198553E+02  0.62500000352E+02  0.10000001729E+02 0.  0.
    3000022    2    5    5    0    0  0.47909469425E+00 -0.11887937415E+01  0.45181554874E+00  0.13818101957E+01  0.24999968207E+00 0.  0.
        -13    1    4    4    0    0 -0.12857121445E+02  0.12730176692E+02  0.11306394374E+02  0.21335616916E+02  0.10500000000E+00 0.  1.
         13    1    4    4    0    0 -0.53881539489E+01  0.52472201832E+01  0.46983623000E+01  0.88685486935E+01  0.10500000000E+00 0. -1.
    3000001    1    5    5    0    0  0.31454967970E+02 -0.32400633756E+02 -0.41173014101E+02  0.61118190156E+02  0.10000000000E+01 0.  1.
        -13    1    6    6    0    0  0.23807109919E+00 -0.49071856585E+00  0.24964862214E+00  0.60895976360E+00  0.10500000000E+00 0. -1.
         13    1    6    6    0    0  0.24102359506E+00 -0.69807517565E+00  0.20216692660E+00  0.77285043213E+00  0.10500000000E+00 0.  1.
</event>
<event>
11    0  0.3482988E-009  0.9118800E+02  0.7816531E-02  0.1126479E+00
         25   -1    0    0    0    0  0.00000000000E+00  0.00000000000E+00  0.99999998245E-14  0.12500000000E+03  0.12500000000E+03 0.  0.
    3000001    1    3    3    0    0  0.28500647637E+02 -0.45692750754E+02  0.25529768260E+02  0.59606068941E+02  0.10000000000E+01 0. -1.
    1000022    2    1    0    0    0  0.31148766470E+02 -0.46821819953E+02  0.25371669315E+02  0.62499998996E+02  0.99999897155E+01 0.  0.
    3000022    2    3    3    0    0  0.26481188335E+01 -0.11290691986E+01 -0.15809894509E+00  0.28939300544E+01  0.25001054415E+00 0.  0.
    1000022    2    1    0    0    0 -0.31148766470E+02  0.46821819953E+02 -0.25371669315E+02  0.62500001004E+02  0.10000002267E+02 0.  0.
    3000022    2    5    5    0    0 -0.54714871245E+01  0.16125824059E+02 -0.63175537048E+01  0.18164618292E+02  0.24999990257E+00 0.  0.
        -13    1    4    4    0    0  0.68846162605E+00 -0.27864498570E+00 -0.69022188643E-01  0.75326721761E+00  0.10500000000E+00 0. -1.
         13    1    4    4    0    0  0.19596572074E+01 -0.85042421286E+00 -0.89076756444E-01  0.21406628368E+01  0.10500000000E+00 0.  1.
    3000001    1    5    5    0    0 -0.25677279346E+02  0.30695995894E+02 -0.19054115611E+02  0.44335382712E+02  0.10000000000E+01 0.  1.
        -13    1    6    6    0    0 -0.39045507070E+01  0.11496322205E+02 -0.45486854953E+01  0.12965820652E+02  0.10500000000E+00 0.  1.
         13    1    6    6    0    0 -0.15669364174E+01  0.46295018540E+01 -0.17688682096E+01  0.51987976393E+01  0.10500000000E+00 0. -1.
</event>
<event>
11    0  0.3482988E-009  0.9118800E+02  0.7816531E-02  0.1126479E+00
         25   -1    0    0    0    0  0.00000000000E+00  0.00000000000E+00  0.99999998245E-14  0.12500000000E+03  0.12500000000E+03 0.  0.
    3000001    1    3    3    0    0  0.10909157838E+02 -0.22061569388E+01 -0.11052891407E+02  0.15717609921E+02  0.10000000000E+01 0. -1.
    1000022    2    1    0    0    0  0.48688364422E+02  0.58854531133E+01 -0.37430662573E+02  0.62499998865E+02  0.99999984515E+01 0.  0.
    3000022    2    3    3    0    0  0.37779206584E+02  0.80916100521E+01 -0.26377771166E+02  0.46782388944E+02  0.25000052901E+00 0.  0.
    1000022    2    1    0    0    0 -0.48688364422E+02 -0.58854531133E+01  0.37430662573E+02  0.62500001135E+02  0.10000012636E+02 0.  0.
    3000022    2    5    5    0    0 -0.26741987592E+02 -0.77304096095E+01  0.18336931647E+02  0.33334647012E+02  0.24999211212E+00 0.  0.
        -13    1    4    4    0    0  0.20073248521E+02  0.43383562255E+01 -0.14088071506E+02  0.24904646648E+02  0.10500000000E+00 0. -1.
         13    1    4    4    0    0  0.17705958064E+02  0.37532538266E+01 -0.12289699660E+02  0.21877742296E+02  0.10500000000E+00 0.  1.
    3000001    1    5    5    0    0 -0.21946376830E+02  0.18449564962E+01  0.19093730927E+02  0.29165354123E+02  0.10000000000E+01 0.  1.
        -13    1    6    6    0    0 -0.17772348527E+02 -0.51576190523E+01  0.12129676735E+02  0.22126849959E+02  0.10500000000E+00 0.  1.
         13    1    6    6    0    0 -0.89696390659E+01 -0.25727905572E+01  0.62072549117E+01  0.11207797052E+02  0.10500000000E+00 0. -1.
</event>
<event>
11    0  0.3482988E-009  0.9118800E+02  0.7816531E-02  0.1126479E+00
         25   -1    0    0    0    0  0.00000000000E+00  0.00000000000E+00  0.99999998245E-14  0.12500000000E+03  0.12500000000E+03 0.  0.
    3000001    1    3    3    0    0  0.88430226601E+01  0.49855014450E+00  0.23436476832E+01  0.92163054679E+01  0.10000000000E+01 0. -1.
    1000022    2    1    0    0    0  0.60401590846E+02 -0.12526092802E+02 -0.99736000000E+00  0.62500000108E+02  0.10000005445E+02 0.  0.
    3000022    2    3    3    0    0  0.51558568186E+02 -0.13024642947E+02 -0.33410076832E+01  0.53283694640E+02  0.25000977701E+00 0.  0.
    1000022    2    1    0    0    0 -0.60401590846E+02  0.12526092802E+02  0.99736000000E+00  0.62499999892E+02  0.10000004093E+02 0.  0.
    3000022    2    5    5    0    0 -0.57810625932E+02  0.11892407457E+02  0.28692404568E+01  0.59091394203E+02  0.25000434461E+00 0.  0.
        -13    1    4    4    0    0  0.18102717261E+02 -0.45992323300E+01 -0.12243176271E+01  0.18718207417E+02  0.10500000000E+00 0.  1.
         13    1    4    4    0    0  0.33455850925E+02 -0.84254106166E+01 -0.21166900561E+01  0.34565487223E+02  0.10500000000E+00 0. -1.
    3000001    1    5    5    0    0 -0.25909649138E+01  0.63368534489E+00 -0.18718804568E+01  0.34086056893E+01  0.10000000000E+01 0.  1.
        -13    1    6    6    0    0 -0.15289519720E+02  0.31737516700E+01  0.77806154571E+00  0.15635169258E+02  0.10500000000E+00 0. -1.
         13    1    6    6    0    0 -0.42521106212E+02  0.87186557872E+01  0.20911789110E+01  0.43456224945E+02  0.10500000000E+00 0.  1.
</event>
<event>
11    0  0.3482988E-009  0.9118800E+02  0.7816531E-02  0.1126479E+00
         25   -1    0    0    0    0  0.00000000000E+00  0.00000000000E+00  0.99999998245E-14  0.12500000000E+03  0.12500000000E+03 0.  0.
    3000001    1    3    3    0    0 -0.20020425306E+01 -0.49469836686E+02  0.13182104710E+02  0.51244909997E+02  0.10000000000E+01 0.  1.
    1000022    2    1    0    0    0  0.10689901556E+01 -0.58782495366E+02  0.18700942039E+02  0.62499994218E+02  0.99999771357E+01 0.  0.
    3000022    2    3    3    0    0  0.30710326862E+01 -0.93126586798E+01  0.55188373290E+01  0.11255084221E+02  0.25000381292E+00 0.  0.
    1000022    2    1    0    0    0 -0.10689901556E+01  0.58782495366E+02 -0.18700942039E+02  0.62500005782E+02  0.10000049407E+02 0.  0.
    3000022    2    5    5    0    0  0.87116844489E+00  0.38379445349E+02 -0.74772186334E+01  0.39111533568E+02  0.24999960676E+00 0.  0.
        -13    1    4    4    0    0  0.91999069007E+00 -0.27468855575E+01  0.16798331352E+01  0.33503175220E+01  0.10500000000E+00 0. -1.
         13    1    4    4    0    0  0.21510419962E+01 -0.65657731223E+01  0.38390041938E+01  0.79047666988E+01  0.10500000000E+00 0.  1.
    3000001    1    5    5    0    0 -0.19401586005E+01  0.20403050017E+02 -0.11223723406E+02  0.23388472213E+02  0.10000000000E+01 0.  1.
        -13    1    6    6    0    0  0.41769557709E+00  0.21326444274E+02 -0.41534726266E+01  0.21731407106E+02  0.10500000000E+00 0. -1.
         13    1    6    6    0    0  0.45347286780E+00  0.17053001075E+02 -0.33237460068E+01  0.17380126462E+02  0.10500000000E+00 0.  1.
</event>
<event>
11    0  0.3482988E-009  0.9118800E+02  0.7816531E-02  0.1126479E+00
         25   -1    0    0    0    0  0.00000000000E+00  0.00000000000E+00  0.99999998245E-14  0.12500000000E+03  0.12500000000E+03 0.  0.
    3000001    1    3    3    0    0 -0.35161374407E+02  0.17380018077E+02  0.40831454978E+02  0.56626804556E+02  0.10000000000E+01 0.  1.
    1000022    2    1    0    0    0 -0.37434256628E+02  0.16522503991E+02  0.46172862350E+02  0.62500002786E+02  0.10000021163E+02 0.  0.
    3000022    2    3    3    0    0 -0.22728822208E+01 -0.85751408548E+00  0.53414073716E+01  0.58731982304E+01  0.25000149645E+00 0.  0.
    1000022    2    1    0    0    0  0.37434256628E+02 -0.16522503991E+02 -0.46172862350E+02  0.62499997214E+02  0.99999863342E+01 0.  0.
    3000022    2    5    5    0    0  0.23361757551E+01 -0.43788791980E+01 -0.53735374323E+01  0.73191326154E+01  0.24999502953E+00 0.  0.
        -13    1    4    4    0    0 -0.54632819392E+00 -0.19701190429E+00  0.13341968183E+01  0.14589017568E+01  0.10500000000E+00 0.  1.
         13    1    4    4    0    0 -0.17265540269E+01 -0.66050218119E+00  0.40072105533E+01  0.44142964736E+01  0.10500000000E+00 0. -1.
    3000001    1    5    5    0    0  0.35098080873E+02 -0.12143624793E+02 -0.40799324918E+02  0.55180864598E+02  0.10000000000E+01 0.  1.
        -13    1    6    6    0    0  0.80362442910E+00 -0.15766201129E+01 -0.19869717380E+01  0.26628227299E+01  0.10500000000E+00 0. -1.
         13    1    6    6    0    0  0.15325513260E+01 -0.28022590851E+01 -0.33865656944E+01  0.46563098854E+01  0.10500000000E+00 0.  1.
</event>
<event>
11    0  0.3482988E-009  0.9118800E+02  0.7816531E-02  0.1126479E+00
         25   -1    0    0    0    0  0.00000000000E+00  0.00000000000E+00  0.99999998245E-14  0.12500000000E+03  0.12500000000E+03 0.  0.
    3000001    1    3    3    0    0  0.16832113725E+02 -0.18541334914E+02  0.25920359405E+02  0.36055043815E+02  0.10000000000E+01 0.  1.
    1000022    2    1    0    0    0  0.22204366811E+02 -0.36910765424E+02  0.44167992390E+02  0.62499999754E+02  0.99999953904E+01 0.  0.
    3000022    2    3    3    0    0  0.53722530860E+01 -0.18369430509E+02  0.18247632985E+02  0.26444955938E+02  0.25000911069E+00 0.  0.
    1000022    2    1    0    0    0 -0.22204366811E+02  0.36910765424E+02 -0.44167992390E+02  0.62500000246E+02  0.99999984692E+01 0.  0.
    3000022    2    5    5    0    0 -0.48393969437E+01  0.21083957786E+01 -0.45715040986E+01  0.69875782453E+01  0.25000894605E+00 0.  0.
        -13    1    4    4    0    0  0.19408753676E+01 -0.64772762111E+01  0.64962768833E+01  0.93773526462E+01  0.10500000000E+00 0. -1.
         13    1    4    4    0    0  0.34313777184E+01 -0.11892154298E+02  0.11751356102E+02  0.17067603292E+02  0.10500000000E+00 0.  1.
    3000001    1    5    5    0    0 -0.17364969868E+02  0.34802369645E+02 -0.39596488291E+02  0.55512422001E+02  0.10000000000E+01 0.  1.
        -13    1    6    6    0    0 -0.35118868756E+01  0.15615340162E+01 -0.33562887196E+01  0.51036689627E+01  0.10500000000E+00 0. -1.
         13    1    6    6    0    0 -0.13275100681E+01  0.54686176243E+00 -0.12152153790E+01  0.18839092827E+01  0.10500000000E+00 0.  1.
</event>
<event>
11    0  0.3482988E-009  0.9118800E+02  0.7816531E-02  0.1126479E+00
         25   -1    0    0    0    0  0.00000000000E+00  0.00000000000E+00  0.99999998245E-14  0.12500000000E+03  0.12500000000E+03 0.  0.
    3000001    1    3    3    0    0 -0.19004368615E+01  0.56416787120E+02  0.10955146040E+02  0.57510701213E+02  0.10000000000E+01 0.  1.
    1000022    2    1    0    0    0 -0.39434501866E+01  0.60794427795E+02  0.97332814174E+01  0.62499999847E+02  0.99999981682E+01 0.  0.
    3000022    2    3    3    0    0 -0.20430133251E+01  0.43776406752E+01 -0.12218646230E+01  0.49892986340E+01  0.25001274802E+00 0.  0.
    1000022    2    1    0    0    0  0.39434501866E+01 -0.60794427795E+02 -0.97332814174E+01  0.62500000153E+02  0.10000000083E+02 0.  0.
    3000022    2    5    5    0    0  0.62489882138E+01 -0.41412414199E+02 -0.95400993256E+01  0.42954789079E+02  0.25001225740E+00 0.  0.
        -13    1    4    4    0    0 -0.15771998160E+01  0.33501181234E+01 -0.93104327546E+00  0.38195179383E+01  0.10500000000E+00 0. -1.
         13    1    4    4    0    0 -0.46581350917E+00  0.10275225518E+01 -0.29082134759E+00  0.11697806957E+01  0.10500000000E+00 0.  1.
    3000001    1    5    5    0    0 -0.23055380272E+01 -0.19382013596E+02 -0.19318209178E+00  0.19545211075E+02  0.10000000000E+01 0. -1.
        -13    1    6    6    0    0  0.23904267677E+01 -0.15655353492E+02 -0.36627390904E+01  0.16255181196E+02  0.10500000000E+00 0. -1.
         13    1    6    6    0    0  0.38585614461E+01 -0.25757060708E+02 -0.58773602351E+01  0.26699607882E+02  0.10500000000E+00 0.  1.
</event>
<event>
11    0  0.3482988E-009  0.9118800E+02  0.7816531E-02  0.1126479E+00
         25   -1    0    0    0    0  0.00000000000E+00  0.00000000000E+00  0.99999998245E-14  0.12500000000E+03  0.12500000000E+03 0.  0.
    3000001    1    3    3    0    0  0.27761470253E+01  0.99560856358E+01 -0.57673463724E+01  0.11878253982E+02  0.10000000000E+01 0.  1.
    1000022    2    1    0    0    0  0.12914608384E+02  0.59215218304E+02 -0.11533463917E+02  0.62499999944E+02  0.10000000729E+02 0.  0.
    3000022    2    3    3    0    0  0.10138461359E+02  0.49259132668E+02 -0.57661175447E+01  0.50621745962E+02  0.25000543203E+00 0.  0.
    1000022    2    1    0    0    0 -0.12914608384E+02 -0.59215218304E+02  0.11533463917E+02  0.62500000056E+02  0.10000001425E+02 0.  0.
    3000022    2    5    5    0    0 -0.95884947630E+00 -0.10568937561E+02 -0.15201474720E+01  0.10723580988E+02  0.25001474587E+00 0.  0.
        -13    1    4    4    0    0  0.59417041181E+01  0.29179128270E+02 -0.34017291974E+01  0.29971789419E+02  0.10500000000E+00 0. -1.
         13    1    4    4    0    0  0.41967572409E+01  0.20080004398E+02 -0.23643883473E+01  0.20649956543E+02  0.10500000000E+00 0.  1.
    3000001    1    5    5    0    0 -0.11955758908E+02 -0.48646280743E+02  0.13053611389E+02  0.51776419068E+02  0.10000000000E+01 0. -1.
        -13    1    6    6    0    0 -0.71027149354E+00 -0.79175338147E+01 -0.11124767522E+01  0.80274813500E+01  0.10500000000E+00 0. -1.
         13    1    6    6    0    0 -0.24857798276E+00 -0.26514037465E+01 -0.40767071980E+00  0.26960996377E+01  0.10500000000E+00 0.  1.
</event>
<event>
11    0  0.3482988E-009  0.9118800E+02  0.7816531E-02  0.1126479E+00
         25   -1    0    0    0    0  0.00000000000E+00  0.00000000000E+00  0.99999998245E-14  0.12500000000E+03  0.12500000000E+03 0.  0.
    3000001    1    3    3    0    0  0.28241224262E+01 -0.96552216013E+01  0.18675304715E+02  0.21235959546E+02  0.10000000000E+01 0. -1.
    1000022    2    1    0    0    0 -0.34464350683E+01 -0.34365490683E+02  0.51121278515E+02  0.62499999649E+02  0.99999987274E+01 0.  0.
    3000022    2    3    3    0    0 -0.62705574944E+01 -0.24710269081E+02  0.32445973801E+02  0.41264040103E+02  0.25000079357E+00 0.  0.
    1000022    2    1    0    0    0  0.34464350683E+01  0.34365490683E+02 -0.51121278515E+02  0.62500000351E+02  0.10000003114E+02 0.  0.
    3000022    2    5    5    0    0 -0.19332227286E+01  0.14724137969E+01 -0.21513323810E+01  0.32551621840E+01  0.24999464572E+00 0.  0.
        -13    1    4    4    0    0 -0.33768139995E+01 -0.13541060550E+02  0.17706693201E+02  0.22545536204E+02  0.10500000000E+00 0. -1.
         13    1    4    4    0    0 -0.28937434949E+01 -0.11169208532E+02  0.14739280600E+02  0.18718503900E+02  0.10500000000E+00 0.  1.
    3000001    1    5    5    0    0  0.53796577969E+01  0.32893076886E+02 -0.48969946134E+02  0.59244838167E+02  0.10000000000E+01 0. -1.
        -13    1    6    6    0    0 -0.14919271208E+01  0.11384772626E+01 -0.16506976895E+01  0.25015604877E+01  0.10500000000E+00 0.  1.
         13    1    6    6    0    0 -0.44129560781E+00  0.33393653423E+00 -0.50063469147E+00  0.75360169630E+00  0.10500000000E+00 0. -1.
</event>
<event>
11    0  0.3482988E-009  0.9118800E+02  0.7816531E-02  0.1126479E+00
         25   -1    0    0    0    0  0.00000000000E+00  0.00000000000E+00  0.99999998245E-14  0.12500000000E+03  0.12500000000E+03 0.  0.
    3000001    1    3    3    0    0  0.48543392555E+02 -0.18459195226E+02  0.12813796668E+02  0.53501366657E+02  0.10000000000E+01 0.  1.
    1000022    2    1    0    0    0  0.54314106164E+02 -0.24806702186E+02  0.15519518813E+02  0.62500000536E+02  0.10000000050E+02 0.  0.
    3000022    2    3    3    0    0  0.57707136089E+01 -0.63475069604E+01  0.27057221448E+01  0.89986338782E+01  0.24999836114E+00 0.  0.
    1000022    2    1    0    0    0 -0.54314106164E+02  0.24806702186E+02 -0.15519518813E+02  0.62499999464E+02  0.99999933547E+01 0.  0.
    3000022    2    5    5    0    0 -0.23756699567E+02  0.11621750662E+02 -0.18669851689E+01  0.26514033873E+02  0.24999167409E+00 0.  0.
        -13    1    4    4    0    0  0.24993146938E+01 -0.28417056659E+01  0.12171511065E+01  0.39767256438E+01  0.10500000000E+00 0.  1.
         13    1    4    4    0    0  0.32713989152E+01 -0.35058012945E+01  0.14885710382E+01  0.50219082344E+01  0.10500000000E+00 0. -1.
    3000001    1    5    5    0    0 -0.30557406598E+02  0.13184951525E+02 -0.13652533644E+02  0.35985965592E+02  0.10000000000E+01 0.  1.
        -13    1    6    6    0    0 -0.11230103130E+02  0.54511907247E+01 -0.82552279737E+00  0.12510923608E+02  0.10500000000E+00 0.  1.
         13    1    6    6    0    0 -0.12526596436E+02  0.61705599368E+01 -0.10414623715E+01  0.14003110264E+02  0.10500000000E+00 0. -1.
</event>
<event>
11    0  0.3482988E-009  0.9118800E+02  0.7816531E-02  0.1126479E+00
         25   -1    0    0    0    0  0.00000000000E+00  0.00000000000E+00  0.99999998245E-14  0.12500000000E+03  0.12500000000E+03 0.  0.
    3000001    1    3    3    0    0  0.76358548915E+01  0.19263811119E+02  0.47778651329E+01  0.21289168466E+02  0.10000000000E+01 0.  1.
    1000022    2    1    0    0    0  0.28094408379E+02  0.49317618541E+02  0.24181122507E+02  0.62500000179E+02  0.10000002795E+02 0.  0.
    3000022    2    3    3    0    0  0.20458553488E+02  0.30053807422E+02  0.19403257374E+02  0.41210831712E+02  0.25000469092E+00 0.  0.
    1000022    2    1    0    0    0 -0.28094408379E+02 -0.49317618541E+02 -0.24181122507E+02  0.62499999821E+02  0.10000000563E+02 0.  0.
    3000022    2    5    5    0    0 -0.20855217580E+02 -0.28196734812E+02 -0.17355713589E+02  0.39131563420E+02  0.25001436565E+00 0.  0.
        -13    1    4    4    0    0  0.13298251951E+02  0.19626915865E+02  0.12677803444E+02  0.26884885279E+02  0.10500000000E+00 0. -1.
         13    1    4    4    0    0  0.71603015368E+01  0.10426891557E+02  0.67254539299E+01  0.14325946433E+02  0.10500000000E+00 0.  1.
    3000001    1    5    5    0    0 -0.72391907985E+01 -0.21120883729E+02 -0.68254089179E+01  0.23368436401E+02  0.10000000000E+01 0. -1.
        -13    1    6    6    0    0 -0.15727207907E+02 -0.21223134303E+02 -0.13076551339E+02  0.29474967652E+02  0.10500000000E+00 0. -1.
         13    1    6    6    0    0 -0.51280096739E+01 -0.69736005082E+01 -0.42791622502E+01  0.96565957680E+01  0.10500000000E+00 0.  1.
</event>
<event>
11    0  0.3482988E-009  0.9118800E+02  0.7816531E-02  0.1126479E+00
         25   -1    0    0    0    0  0.00000000000E+00  0.00000000000E+00  0.99999998245E-14  0.12500000000E+03  0.12500000000E+03 0.  0.
    3000001    1    3    3    0    0 -0.39229000812E+01  0.11670383838E+01  0.73920177664E+01  0.85084105622E+01  0.10000000000E+01 0. -1.
    1000022    2    1    0    0    0 -0.46690774704E+02  0.43008536514E-01  0.40326415814E+02  0.62499998868E+02  0.99999876943E+01 0.  0.
    3000022    2    3    3    0    0 -0.42767874623E+02 -0.11240298473E+01  0.32934398048E+02  0.53991588306E+02  0.24998032418E+00 0.  0.
    1000022    2    1    0    0    0  0.46690774704E+02 -0.43008536514E-01 -0.40326415814E+02  0.62500001132E+02  0.10000001845E+02 0.  0.
    3000022    2    5    5    0    0  0.41222008204E+02  0.49893920994E+00 -0.39019334215E+02  0.56763314223E+02  0.24999650437E+00 0.  0.
        -13    1    4    4    0    0 -0.24387110108E+02 -0.68161957814E+00  0.18845396877E+02  0.30827840552E+02  0.10500000000E+00 0.  1.
         13    1    4    4    0    0 -0.18380764515E+02 -0.44241026913E+00  0.14089001171E+02  0.23163747754E+02  0.10500000000E+00 0. -1.
    3000001    1    5    5    0    0  0.54687664998E+01 -0.54194774646E+00 -0.13070815994E+01  0.57366869094E+01  0.10000000000E+01 0. -1.
        -13    1    6    6    0    0  0.27896155935E+02  0.37818470444E+00 -0.26362117901E+02  0.38383731253E+02  0.10500000000E+00 0.  1.
         13    1    6    6    0    0  0.13325852269E+02  0.12075450551E+00 -0.12657216313E+02  0.18379582970E+02  0.10500000000E+00 0. -1.
</event>
<event>
11    0  0.3482988E-009  0.9118800E+02  0.7816531E-02  0.1126479E+00
         25   -1    0    0    0    0  0.00000000000E+00  0.00000000000E+00  0.99999998245E-14  0.12500000000E+03  0.12500000000E+03 0.  0.
    3000001    1    3    3    0    0 -0.39831467600E+02 -0.12334925086E+02  0.51700257564E+01  0.42028863348E+02  0.10000000000E+01 0. -1.
    1000022    2    1    0    0    0 -0.58686743073E+02 -0.13916022875E+02  0.12979232339E+02  0.62500001381E+02  0.10000009771E+02 0.  0.
    3000022    2    3    3    0    0 -0.18855275473E+02 -0.15810977893E+01  0.78092065825E+01  0.20471138033E+02  0.25000308441E+00 0.  0.
    1000022    2    1    0    0    0  0.58686743073E+02  0.13916022875E+02 -0.12979232339E+02  0.62499998619E+02  0.99999925024E+01 0.  0.
    3000022    2    5    5    0    0  0.58271400234E+01 -0.52483420725E+00 -0.36649244581E+01  0.69083416984E+01  0.25000388336E+00 0.  0.
        -13    1    4    4    0    0 -0.73207810172E+01 -0.66733550735E+00  0.30679786325E+01  0.79663472979E+01  0.10500000000E+00 0. -1.
         13    1    4    4    0    0 -0.11534494456E+02 -0.91376228193E+00  0.47412279500E+01  0.12504790735E+02  0.10500000000E+00 0.  1.
    3000001    1    5    5    0    0  0.52859603049E+02  0.14440857083E+02 -0.93143078809E+01  0.55591656920E+02  0.10000000000E+01 0.  1.
        -13    1    6    6    0    0  0.43336028724E+01 -0.40982985273E+00 -0.26984394673E+01  0.51225652677E+01  0.10500000000E+00 0. -1.
         13    1    6    6    0    0  0.14935371510E+01 -0.11500435452E+00 -0.96648499078E+00  0.17857764307E+01  0.10500000000E+00 0.  1.
</event>
<event>
11    0  0.3482988E-009  0.9118800E+02  0.7816531E-02  0.1126479E+00
         25   -1    0    0    0    0  0.00000000000E+00  0.00000000000E+00  0.99999998245E-14  0.12500000000E+03  0.12500000000E+03 0.  0.
    3000001    1    3    3    0    0 -0.12376921336E+01  0.87744427010E+01 -0.13867256603E+02  0.16487071669E+02  0.10000000000E+01 0.  1.
    1000022    2    1    0    0    0 -0.18749088289E+02  0.37465499086E+02 -0.45288607596E+02  0.62499999308E+02  0.10000000100E+02 0.  0.
    3000022    2    3    3    0    0 -0.17511396156E+02  0.28691056385E+02 -0.31421350994E+02  0.46012927639E+02  0.24999961994E+00 0.  0.
    1000022    2    1    0    0    0  0.18749088289E+02 -0.37465499086E+02  0.45288607596E+02  0.62500000692E+02  0.10000008752E+02 0.  0.
    3000022    2    5    5    0    0  0.13097133315E+02 -0.26006949074E+02  0.37590266451E+02  0.47549836151E+02  0.24996984039E+00 0.  0.
        -13    1    4    4    0    0 -0.93308357859E+01  0.15253775320E+02 -0.16804359015E+02  0.24538534285E+02  0.10500000000E+00 0. -1.
         13    1    4    4    0    0 -0.81805603699E+01  0.13437281065E+02 -0.14616991979E+02  0.21474393354E+02  0.10500000000E+00 0.  1.
    3000001    1    5    5    0    0  0.56519549747E+01 -0.11458550013E+02  0.76983411453E+01  0.14950164541E+02  0.10000000000E+01 0.  1.
        -13    1    6    6    0    0  0.71068543363E+01 -0.14030229944E+02  0.20211503744E+02  0.25609971484E+02  0.10500000000E+00 0.  1.
         13    1    6    6    0    0  0.59902789784E+01 -0.11976719129E+02  0.17378762707E+02  0.21939864666E+02  0.10500000000E+00 0. -1.
</event>
<event>
11    0  0.3482988E-009  0.9118800E+02  0.7816531E-02  0.1126479E+00
         25   -1    0    0    0    0  0.00000000000E+00  0.00000000000E+00  0.99999998245E-14  0.12500000000E+03  0.12500000000E+03 0.  0.
    3000001    1    3    3    0    0  0.45567976050E+01 -0.54523766506E+01 -0.70980523466E+01  0.10093322677E+02  0.10000000000E+01 0.  1.
    1000022    2    1    0    0    0  0.98658645389E+01 -0.27376930924E+02 -0.54400536498E+02  0.62499999754E+02  0.99999983992E+01 0.  0.
    3000022    2    3    3    0    0  0.53090669339E+01 -0.21924554274E+02 -0.47302484152E+02  0.52406677077E+02  0.25004692318E+00 0.  0.
    1000022    2    1    0    0    0 -0.98658645389E+01  0.27376930924E+02  0.54400536498E+02  0.62500000246E+02  0.10000001475E+02 0.  0.
    3000022    2    5    5    0    0 -0.99981923757E+01  0.13595683976E+02  0.27736802299E+02  0.32468433528E+02  0.25000080054E+00 0.  0.
        -13    1    4    4    0    0  0.30090108431E+01 -0.12215725760E+02 -0.26277922838E+02  0.29134487395E+02  0.10500000000E+00 0.  1.
         13    1    4    4    0    0  0.23000560908E+01 -0.97088285140E+01 -0.21024561314E+02  0.23272189682E+02  0.10500000000E+00 0. -1.
    3000001    1    5    5    0    0  0.13232783679E+00  0.13781246948E+02  0.26663734199E+02  0.30031566718E+02  0.10000000000E+01 0.  1.
        -13    1    6    6    0    0 -0.24114018083E+01  0.33038594346E+01  0.67536685311E+01  0.78964175087E+01  0.10500000000E+00 0.  1.
         13    1    6    6    0    0 -0.75867905674E+01  0.10291824542E+02  0.20983133768E+02  0.24572016019E+02  0.10500000000E+00 0. -1.
</event>
<event>
11    0  0.3482988E-009  0.9118800E+02  0.7816531E-02  0.1126479E+00
         25   -1    0    0    0    0  0.00000000000E+00  0.00000000000E+00  0.99999998245E-14  0.12500000000E+03  0.12500000000E+03 0.  0.
    3000001    1    3    3    0    0 -0.32537208722E+02  0.10142982088E+02  0.27194111142E+01  0.34204462192E+02  0.10000000000E+01 0. -1.
    1000022    2    1    0    0    0 -0.56881205590E+02  0.23818955225E+02 -0.18536069651E+01  0.62499999272E+02  0.99999936448E+01 0.  0.
    3000022    2    3    3    0    0 -0.24343996869E+02  0.13675973136E+02 -0.45730180793E+01  0.28295537080E+02  0.24999911648E+00 0.  0.
    1000022    2    1    0    0    0  0.56881205590E+02 -0.23818955225E+02  0.18536069651E+01  0.62500000728E+02  0.10000002739E+02 0.  0.
    3000022    2    5    5    0    0  0.22461876408E+02 -0.90476673159E+01  0.55654229756E+01  0.24848191396E+02  0.25001427097E+00 0.  0.
        -13    1    4    4    0    0 -0.17245756505E+02  0.96924982221E+01 -0.32836928362E+01  0.20053785250E+02  0.10500000000E+00 0. -1.
         13    1    4    4    0    0 -0.70982403636E+01  0.39834749141E+01 -0.12893252431E+01  0.82417518304E+01  0.10500000000E+00 0.  1.
    3000001    1    5    5    0    0  0.34419329182E+02 -0.14771287909E+02 -0.37118160106E+01  0.37651809332E+02  0.10000000000E+01 0.  1.
        -13    1    6    6    0    0  0.12486084123E+02 -0.50460656038E+01  0.30288708157E+01  0.13803990663E+02  0.10500000000E+00 0.  1.
         13    1    6    6    0    0  0.99757922844E+01 -0.40016017121E+01  0.25365521600E+01  0.11044200733E+02  0.10500000000E+00 0. -1.
</event>
<event>
11    0  0.3482988E-009  0.9118800E+02  0.7816531E-02  0.1126479E+00
         25   -1    0    0    0    0  0.00000000000E+00  0.00000000000E+00  0.99999998245E-14  0.12500000000E+03  0.12500000000E+03 0.  0.
    3000001    1    3    3    0    0 -0.77506689514E+01 -0.11030311655E+02  0.84712250100E+01  0.15953128144E+02  0.10000000000E+01 0.  1.
    1000022    2    1    0    0    0 -0.40353306006E+02 -0.42262267400E+02  0.19792965099E+02  0.62500000226E+02  0.10000000474E+02 0.  0.
    3000022    2    3    3    0    0 -0.32602637054E+02 -0.31231955745E+02  0.11321740089E+02  0.46546872082E+02  0.24999892808E+00 0.  0.
    1000022    2    1    0    0    0  0.40353306006E+02  0.42262267400E+02 -0.19792965099E+02  0.62499999774E+02  0.99999976502E+01 0.  0.
    3000022    2    5    5    0    0  0.62890486173E+01  0.88975488021E+01 -0.93270653600E-01  0.10899069165E+02  0.25000409167E+00 0.  0.
        -13    1    4    4    0    0 -0.14017553344E+02 -0.13339001478E+02  0.48640858012E+01  0.19952220875E+02  0.10500000000E+00 0.  1.
         13    1    4    4    0    0 -0.18585083711E+02 -0.17892954267E+02  0.64576542874E+01  0.26594651207E+02  0.10500000000E+00 0. -1.
    3000001    1    5    5    0    0  0.34064257388E+02  0.33364718598E+02 -0.19699694445E+02  0.51600930609E+02  0.10000000000E+01 0.  1.
        -13    1    6    6    0    0  0.26353754235E+01  0.37524769696E+01 -0.10263597373E+00  0.45877931703E+01  0.10500000000E+00 0.  1.
         13    1    6    6    0    0  0.36536731938E+01  0.51450718325E+01  0.93653201255E-02  0.63112759944E+01  0.10500000000E+00 0. -1.
</event>
<event>
11    0  0.3482988E-009  0.9118800E+02  0.7816531E-02  0.1126479E+00
         25   -1    0    0    0    0  0.00000000000E+00  0.00000000000E+00  0.99999998245E-14  0.12500000000E+03  0.12500000000E+03 0.  0.
    3000001    1    3    3    0    0 -0.31986275406E+01 -0.59434589638E+00 -0.10289611407E+02  0.10837922683E+02  0.10000000000E+01 0. -1.
    1000022    2    1    0    0    0  0.11265064745E+01 -0.11435411823E+02 -0.60615278549E+02  0.62500005059E+02  0.10000048921E+02 0.  0.
    3000022    2    3    3    0    0  0.43251340151E+01 -0.10841065926E+02 -0.50325667142E+02  0.51662082375E+02  0.24997483123E+00 0.  0.
    1000022    2    1    0    0    0 -0.11265064745E+01  0.11435411823E+02  0.60615278549E+02  0.62499994941E+02  0.99999856884E+01 0.  0.
    3000022    2    5    5    0    0 -0.20782697591E+01  0.71469462993E+01  0.53908941828E+02  0.54420902040E+02  0.25004654265E+00 0.  0.
        -13    1    4    4    0    0  0.24603656310E+01 -0.62716062308E+01 -0.29276003906E+02  0.30041336080E+02  0.10500000000E+00 0. -1.
         13    1    4    4    0    0  0.18647683841E+01 -0.45694596956E+01 -0.21049663236E+02  0.21620746296E+02  0.10500000000E+00 0.  1.
    3000001    1    5    5    0    0  0.95176328460E+00  0.42884655235E+01  0.67063367209E+01  0.80790929015E+01  0.10000000000E+01 0. -1.
        -13    1    6    6    0    0 -0.15101730365E+01  0.52991923887E+01  0.39812748120E+02  0.40192387344E+02  0.10500000000E+00 0.  1.
         13    1    6    6    0    0 -0.56809672254E+00  0.18477539106E+01  0.14096193708E+02  0.14228514696E+02  0.10500000000E+00 0. -1.
</event>
<event>
11    0  0.3482988E-009  0.9118800E+02  0.7816531E-02  0.1126479E+00
         25   -1    0    0    0    0  0.00000000000E+00  0.00000000000E+00  0.99999998245E-14  0.12500000000E+03  0.12500000000E+03 0.  0.
    3000001    1    3    3    0    0  0.24627193951E+02  0.16205101163E+02 -0.44012976325E+01  0.29824074276E+02  0.10000000000E+01 0. -1.
    1000022    2    1    0    0    0  0.55246130445E+02  0.27380050055E+02 -0.21088959140E+01  0.62500003591E+02  0.10000046835E+02 0.  0.
    3000022    2    3    3    0    0  0.30618936494E+02  0.11174948893E+02  0.22924017185E+01  0.32675929315E+02  0.24999229525E+00 0.  0.
    1000022    2    1    0    0    0 -0.55246130445E+02 -0.27380050055E+02  0.21088959140E+01  0.62499996409E+02  0.10000001950E+02 0.  0.
    3000022    2    5    5    0    0 -0.33580110387E+02 -0.12129428576E+02  0.39485556898E+01  0.35922144187E+02  0.24999951984E+00 0.  0.
        -13    1    4    4    0    0  0.15479030007E+02  0.56182383678E+01  0.12194731760E+01  0.16512513804E+02  0.10500000000E+00 0. -1.
         13    1    4    4    0    0  0.15139906488E+02  0.55567105248E+01  0.10729285425E+01  0.16163415511E+02  0.10500000000E+00 0.  1.
    3000001    1    5    5    0    0 -0.21666020058E+02 -0.15250621479E+02 -0.18396597758E+01  0.26577852222E+02  0.10000000000E+01 0.  1.
        -13    1    6    6    0    0 -0.10699878867E+02 -0.38577619108E+01  0.13082074791E+01  0.11449548748E+02  0.10500000000E+00 0. -1.
         13    1    6    6    0    0 -0.22880231520E+02 -0.82716666650E+01  0.26403482107E+01  0.24472595439E+02  0.10500000000E+00 0.  1.
</event>
<event>
11    0  0.3482988E-009  0.9118800E+02  0.7816531E-02  0.1126479E+00
         25   -1    0    0    0    0  0.00000000000E+00  0.00000000000E+00  0.99999998245E-14  0.12500000000E+03  0.12500000000E+03 0.  0.
    3000001    1    3    3    0    0 -0.61059089685E+02  0.38929973901E-01 -0.93386637173E+01  0.61777217392E+02  0.10000000000E+01 0.  1.
    1000022    2    1    0    0    0 -0.61078616000E+02 -0.17685376646E+00 -0.86960289660E+01  0.62500005745E+02  0.10000059431E+02 0.  0.
    3000022    2    3    3    0    0 -0.19526315190E-01 -0.21578374036E+00  0.64263475125E+00  0.72278835297E+00  0.24999936015E+00 0.  0.
    1000022    2    1    0    0    0  0.61078616000E+02  0.17685376646E+00  0.86960289660E+01  0.62499994255E+02  0.99999876185E+01 0.  0.
    3000022    2    5    5    0    0  0.47718852132E+01 -0.16352548012E+01 -0.14378481774E+01  0.52511764916E+01  0.25000082280E+00 0.  0.
        -13    1    4    4    0    0 -0.29347776158E-01 -0.15219395614E+00  0.25693964159E+00  0.31791079200E+00  0.10500000000E+00 0.  1.
         13    1    4    4    0    0  0.98214609676E-02 -0.63589784221E-01  0.38569510966E+00  0.40487756096E+00  0.10500000000E+00 0. -1.
    3000001    1    5    5    0    0  0.56306730787E+02  0.18121085676E+01  0.10133877143E+02  0.57248817763E+02  0.10000000000E+01 0.  1.
        -13    1    6    6    0    0  0.31208053954E+01 -0.10136405826E+01 -0.95550489258E+00  0.34191970032E+01  0.10500000000E+00 0. -1.
         13    1    6    6    0    0  0.16510798178E+01 -0.62161421851E+00 -0.48234328482E+00  0.18319794884E+01  0.10500000000E+00 0.  1.
</event>
<event>
11    0  0.3482988E-009  0.9118800E+02  0.7816531E-02  0.1126479E+00
         25   -1    0    0    0    0  0.00000000000E+00  0.00000000000E+00  0.99999998245E-14  0.12500000000E+03  0.12500000000E+03 0.  0.
    3000001    1    3    3    0    0  0.11350595551E+02  0.12421696277E+02  0.11867055342E+02  0.20614595805E+02  0.10000000000E+01 0. -1.
    1000022    2    1    0    0    0  0.40724733848E+02  0.25438232027E+02  0.38738124688E+02  0.62499999860E+02  0.10000004126E+02 0.  0.
    3000022    2    3    3    0    0  0.29374138297E+02  0.13016535750E+02  0.26871069347E+02  0.41885404055E+02  0.25000270385E+00 0.  0.
    1000022    2    1    0    0    0 -0.40724733848E+02 -0.25438232027E+02 -0.38738124688E+02  0.62500000140E+02  0.10000005875E+02 0.  0.
    3000022    2    5    5    0    0 -0.23142414738E+02 -0.86468429704E+01 -0.20074239612E+02  0.31833580430E+02  0.24998737709E+00 0.  0.
        -13    1    4    4    0    0  0.22187000621E+02  0.98240367008E+01  0.20321919438E+02  0.31650689223E+02  0.10500000000E+00 0. -1.
         13    1    4    4    0    0  0.71871376758E+01  0.31924990492E+01  0.65491499091E+01  0.10234714832E+02  0.10500000000E+00 0.  1.
    3000001    1    5    5    0    0 -0.17582319109E+02 -0.16791389056E+02 -0.18663885076E+02  0.30666419710E+02  0.10000000000E+01 0.  1.
        -13    1    6    6    0    0 -0.91087208983E+01 -0.34091217505E+01 -0.78228851401E+01  0.12481965567E+02  0.10500000000E+00 0. -1.
         13    1    6    6    0    0 -0.14033693840E+02 -0.52377212199E+01 -0.12251354472E+02  0.19351614862E+02  0.10500000000E+00 0.  1.
</event>
<event>
11    0  0.3482988E-009  0.9118800E+02  0.7816531E-02  0.1126479E+00
         25   -1    0    0    0    0  0.00000000000E+00  0.00000000000E+00  0.99999998245E-14  0.12500000000E+03  0.12500000000E+03 0.  0.
    3000001    1    3    3    0    0 -0.10251464959E+02  0.37162641569E+02  0.32249499681E+02  0.50271111902E+02  0.10000000000E+01 0. -1.
    1000022    2    1    0    0    0 -0.14242938883E+02  0.42281875376E+02  0.42610231421E+02  0.62499998904E+02  0.99999873989E+01 0.  0.
    3000022    2    3    3    0    0 -0.39914739248E+01  0.51192338068E+01  0.10360731740E+02  0.12228887002E+02  0.24999254638E+00 0.  0.
    1000022    2    1    0    0    0  0.14242938883E+02 -0.42281875376E+02 -0.42610231421E+02  0.62500001096E+02  0.10000001094E+02 0.  0.
    3000022    2    5    5    0    0  0.44007460793E+01 -0.28029235008E+02 -0.26403705968E+02  0.38758518751E+02  0.25001154675E+00 0.  0.
        -13    1    4    4    0    0 -0.11825614304E+01  0.15609948615E+01  0.30579298690E+01  0.36327835854E+01  0.10500000000E+00 0.  1.
         13    1    4    4    0    0 -0.28089124944E+01  0.35582389454E+01  0.73028018705E+01  0.85961034168E+01  0.10500000000E+00 0. -1.
    3000001    1    5    5    0    0  0.98421928041E+01 -0.14252640369E+02 -0.16206525453E+02  0.23741482345E+02  0.10000000000E+01 0.  1.
        -13    1    6    6    0    0  0.25193902888E+01 -0.16404323378E+02 -0.15489373068E+02  0.22702001145E+02  0.10500000000E+00 0.  1.
         13    1    6    6    0    0  0.18813557905E+01 -0.11624911629E+02 -0.10914332899E+02  0.16056517606E+02  0.10500000000E+00 0. -1.
</event>
<event>
11    0  0.3482988E-009  0.9118800E+02  0.7816531E-02  0.1126479E+00
         25   -1    0    0    0    0  0.00000000000E+00  0.00000000000E+00  0.99999998245E-14  0.12500000000E+03  0.12500000000E+03 0.  0.
    3000001    1    3    3    0    0 -0.30250133323E+02 -0.49450188614E+02  0.14405236647E+01  0.57995403511E+02  0.10000000000E+01 0. -1.
    1000022    2    1    0    0    0 -0.33275156934E+02 -0.51946459878E+02 -0.76100650932E+00  0.62499998284E+02  0.99999945909E+01 0.  0.
    3000022    2    3    3    0    0 -0.30250236114E+01 -0.24962712640E+01 -0.22015301740E+01  0.45045947734E+01  0.25000178373E+00 0.  0.
    1000022    2    1    0    0    0  0.33275156934E+02  0.51946459878E+02  0.76100650932E+00  0.62500001716E+02  0.10000016035E+02 0.  0.
    3000022    2    5    5    0    0  0.68142530101E+01  0.52535006928E+01 -0.16606578135E+01  0.87666198005E+01  0.25004947149E+00 0.  0.
        -13    1    4    4    0    0 -0.13556452681E+01 -0.11588663858E+01 -0.93343354413E+00  0.20157054781E+01  0.10500000000E+00 0.  1.
         13    1    4    4    0    0 -0.16693783433E+01 -0.13374048783E+01 -0.12680966299E+01  0.24888892953E+01  0.10500000000E+00 0.  1.
    3000001    1    5    5    0    0  0.26460903924E+02  0.46692959185E+02  0.24216643228E+01  0.53733381915E+02  0.10000000000E+01 0. -1.
        -13    1    6    6    0    0  0.25224783248E+01  0.18912141980E+01 -0.65054690324E+00  0.32208421748E+01  0.10500000000E+00 0.  1.
         13    1    6    6    0    0  0.42917746852E+01  0.33622864948E+01 -0.10101109102E+01  0.55457776256E+01  0.10500000000E+00 0. -1.
</event>
<event>
11    0  0.3482988E-009  0.9118800E+02  0.7816531E-02  0.1126479E+00
         25   -1    0    0    0    0  0.00000000000E+00  0.00000000000E+00  0.99999998245E-14  0.12500000000E+03  0.12500000000E+03 0.  0.
    3000001    1    3    3    0    0  0.19448072373E+02  0.15009203214E+02  0.20805837937E+02  0.32208486341E+02  0.10000000000E+01 0.  1.
    1000022    2    1    0    0    0  0.29276040354E+02  0.31649237213E+02  0.44130366237E+02  0.62500000041E+02  0.10000001299E+02 0.  0.
    3000022    2    3    3    0    0  0.98279679811E+01  0.16640034000E+02  0.23324528300E+02  0.30291513700E+02  0.24999138072E+00 0.  0.
    1000022    2    1    0    0    0 -0.29276040354E+02 -0.31649237213E+02 -0.44130366237E+02  0.62499999959E+02  0.10000000786E+02 0.  0.
    3000022    2    5    5    0    0 -0.10651941635E+02 -0.73781452638E+01 -0.18437185497E+02  0.22536485424E+02  0.24995612685E+00 0.  0.
        -13    1    4    4    0    0  0.52295767699E+01  0.89840926640E+01  0.12526334775E+02  0.16278282529E+02  0.10500000000E+00 0. -1.
         13    1    4    4    0    0  0.45983912112E+01  0.76559413356E+01  0.10798193524E+02  0.14013231171E+02  0.10500000000E+00 0.  1.
    3000001    1    5    5    0    0 -0.18624098718E+02 -0.24271091949E+02 -0.25693180740E+02  0.39963514535E+02  0.10000000000E+01 0.  1.
        -13    1    6    6    0    0 -0.38904275634E+01 -0.26715369344E+01 -0.68124796357E+01  0.82881505780E+01  0.10500000000E+00 0. -1.
         13    1    6    6    0    0 -0.67615140719E+01 -0.47066083294E+01 -0.11624705861E+02  0.14248334846E+02  0.10500000000E+00 0.  1.
</event>
<event>
11    0  0.3482988E-009  0.9118800E+02  0.7816531E-02  0.1126479E+00
         25   -1    0    0    0    0  0.00000000000E+00  0.00000000000E+00  0.99999998245E-14  0.12500000000E+03  0.12500000000E+03 0.  0.
    3000001    1    3    3    0    0  0.57394698295E+01  0.66344823345E+01 -0.41633620703E+01  0.97617341441E+01  0.10000000000E+01 0.  1.
    1000022    2    1    0    0    0  0.51449841787E+02  0.26200441938E+02 -0.21741680661E+02  0.62499999575E+02  0.99999945657E+01 0.  0.
    3000022    2    3    3    0    0  0.45710371958E+02  0.19565959603E+02 -0.17578318590E+02  0.52738265431E+02  0.24995306723E+00 0.  0.
    1000022    2    1    0    0    0 -0.51449841787E+02 -0.26200441938E+02  0.21741680661E+02  0.62500000425E+02  0.99999998720E+01 0.  0.
    3000022    2    5    5    0    0 -0.43208437862E+02 -0.24642084938E+02  0.21089362107E+02  0.54028003334E+02  0.24999534656E+00 0.  0.
        -13    1    4    4    0    0  0.22177574128E+02  0.95039941087E+01 -0.84591530891E+01  0.25568320129E+02  0.10500000000E+00 0.  1.
         13    1    4    4    0    0  0.23532797829E+02  0.10061965495E+02 -0.91191655014E+01  0.27169945302E+02  0.10500000000E+00 0. -1.
    3000001    1    5    5    0    0 -0.82414039257E+01 -0.15583569999E+01  0.65231855417E+00  0.84719970905E+01  0.10000000000E+01 0.  1.
        -13    1    6    6    0    0 -0.18194277195E+02 -0.10409573299E+02  0.88242245379E+01  0.22743546395E+02  0.10500000000E+00 0. -1.
         13    1    6    6    0    0 -0.25014160667E+02 -0.14232511639E+02  0.12265137569E+02  0.31284456939E+02  0.10500000000E+00 0.  1.
</event>
<event>
11    0  0.3482988E-009  0.9118800E+02  0.7816531E-02  0.1126479E+00
         25   -1    0    0    0    0  0.00000000000E+00  0.00000000000E+00  0.99999998245E-14  0.12500000000E+03  0.12500000000E+03 0.  0.
    3000001    1    3    3    0    0 -0.45534770200E+01  0.10784991384E+02  0.54093124541E+01  0.12934869668E+02  0.10000000000E+01 0. -1.
    1000022    2    1    0    0    0 -0.32740738688E+02  0.38966750633E+02  0.34869563206E+02  0.62500000026E+02  0.99999970182E+01 0.  0.
    3000022    2    3    3    0    0 -0.28187261668E+02  0.28181759250E+02  0.29460250751E+02  0.49565130357E+02  0.24999656147E+00 0.  0.
    1000022    2    1    0    0    0  0.32740738688E+02 -0.38966750633E+02 -0.34869563206E+02  0.62499999974E+02  0.99999966940E+01 0.  0.
    3000022    2    5    5    0    0  0.29368463981E+02 -0.30165445060E+02 -0.25777295746E+02  0.49365901449E+02  0.24999537242E+00 0.  0.
        -13    1    4    4    0    0 -0.17519678604E+02  0.17489619812E+02  0.18368580264E+02  0.30825990746E+02  0.10500000000E+00 0. -1.
         13    1    4    4    0    0 -0.10667583063E+02  0.10692139437E+02  0.11091670488E+02  0.18739139611E+02  0.10500000000E+00 0.  1.
    3000001    1    5    5    0    0  0.33722747066E+01 -0.88013055736E+01 -0.90922674598E+01  0.13134098525E+02  0.10000000000E+01 0.  1.
        -13    1    6    6    0    0  0.10771380451E+02 -0.10982187414E+02 -0.94365896038E+01  0.18046920113E+02  0.10500000000E+00 0. -1.
         13    1    6    6    0    0  0.18597083530E+02 -0.19183257646E+02 -0.16340706142E+02  0.31318981336E+02  0.10500000000E+00 0.  1.
</event>
<event>
11    0  0.3482988E-009  0.9118800E+02  0.7816531E-02  0.1126479E+00
         25   -1    0    0    0    0  0.00000000000E+00  0.00000000000E+00  0.99999998245E-14  0.12500000000E+03  0.12500000000E+03 0.  0.
    3000001    1    3    3    0    0  0.89609965353E+01 -0.18026900475E+02 -0.50014996502E+01  0.20767368596E+02  0.10000000000E+01 0.  1.
    1000022    2    1    0    0    0  0.15943748648E+02 -0.54730405815E+02 -0.23592998425E+02  0.62499999225E+02  0.99999943413E+01 0.  0.
    3000022    2    3    3    0    0  0.69827521125E+01 -0.36703505340E+02 -0.18591498774E+02  0.41732630629E+02  0.25000247773E+00 0.  0.
    1000022    2    1    0    0    0 -0.15943748648E+02  0.54730405815E+02  0.23592998425E+02  0.62500000775E+02  0.10000004035E+02 0.  0.
    3000022    2    5    5    0    0 -0.44190919256E+01  0.10055479173E+02  0.76201872979E+00  0.11012910968E+02  0.25000120694E+00 0.  0.
        -13    1    4    4    0    0  0.44205045198E+01 -0.23395527843E+02 -0.11903804602E+02  0.26619601279E+02  0.10500000000E+00 0. -1.
         13    1    4    4    0    0  0.25622475927E+01 -0.13307977496E+02 -0.66876941725E+01  0.15113029349E+02  0.10500000000E+00 0.  1.
    3000001    1    5    5    0    0 -0.11524656722E+02  0.44674926641E+02  0.22830979695E+02  0.51487089807E+02  0.10000000000E+01 0.  1.
        -13    1    6    6    0    0 -0.33698686555E+01  0.76369803571E+01  0.56408553613E+00  0.83671202467E+01  0.10500000000E+00 0. -1.
         13    1    6    6    0    0 -0.10492232701E+01  0.24184988162E+01  0.19793319366E+00  0.26457907218E+01  0.10500000000E+00 0.  1.
</event>
<event>
11    0  0.3482988E-009  0.9118800E+02  0.7816531E-02  0.1126479E+00
         25   -1    0    0    0    0  0.00000000000E+00  0.00000000000E+00  0.99999998245E-14  0.12500000000E+03  0.12500000000E+03 0.  0.
    3000001    1    3    3    0    0 -0.16887190497E+02 -0.31084699184E+01  0.85047102248E+01  0.19187753493E+02  0.10000000000E+01 0.  1.
    1000022    2    1    0    0    0 -0.58722058326E+02 -0.13041528002E+02  0.13707243736E+02  0.62499999596E+02  0.99999916042E+01 0.  0.
    3000022    2    3    3    0    0 -0.41834867829E+02 -0.99330580839E+01  0.52025335111E+01  0.43312246103E+02  0.24999683209E+00 0.  0.
    1000022    2    1    0    0    0  0.58722058326E+02  0.13041528002E+02 -0.13707243736E+02  0.62500000404E+02  0.99999966493E+01 0.  0.
    3000022    2    5    5    0    0  0.55504126380E+02  0.14264993982E+02 -0.12103415843E+02  0.58572632466E+02  0.25000081301E+00 0.  0.
        -13    1    4    4    0    0 -0.22714062724E+02 -0.54618203634E+01  0.28229225184E+01  0.23531681701E+02  0.10500000000E+00 0.  1.
         13    1    4    4    0    0 -0.19120805104E+02 -0.44712377205E+01  0.23796109927E+01  0.19780564402E+02  0.10500000000E+00 0. -1.
    3000001    1    5    5    0    0  0.32179319453E+01 -0.12234659793E+01 -0.16038278924E+01  0.39273679374E+01  0.10000000000E+01 0. -1.
        -13    1    6    6    0    0  0.39043315645E+02  0.10020084795E+02 -0.85567412397E+01  0.41206934386E+02  0.10500000000E+00 0. -1.
         13    1    6    6    0    0  0.16460810735E+02  0.42449091865E+01 -0.35466746037E+01  0.17365698080E+02  0.10500000000E+00 0.  1.
</event>
<event>
11    0  0.3482988E-009  0.9118800E+02  0.7816531E-02  0.1126479E+00
         25   -1    0    0    0    0  0.00000000000E+00  0.00000000000E+00  0.99999998245E-14  0.12500000000E+03  0.12500000000E+03 0.  0.
    3000001    1    3    3    0    0 -0.20458570635E+02  0.29195414731E+02  0.42078949542E+02  0.55159435714E+02  0.10000000000E+01 0.  1.
    1000022    2    1    0    0    0 -0.22108976754E+02  0.29971348595E+02  0.49184971927E+02  0.62500002586E+02  0.10000013507E+02 0.  0.
    3000022    2    3    3    0    0 -0.16504061192E+01  0.77593386422E+00  0.71060223843E+01  0.73405668721E+01  0.24990829759E+00 0.  0.
    1000022    2    1    0    0    0  0.22108976754E+02 -0.29971348595E+02 -0.49184971927E+02  0.62499997414E+02  0.99999811772E+01 0.  0.
    3000022    2    5    5    0    0  0.12881445694E+02 -0.20111472738E+02 -0.23737192825E+02  0.33673725671E+02  0.24999696903E+00 0.  0.
        -13    1    4    4    0    0 -0.10776058505E+01  0.46967376411E+00  0.43728349134E+01  0.45292977373E+01  0.10500000000E+00 0. -1.
         13    1    4    4    0    0 -0.57280026879E+00  0.30626010011E+00  0.27331874709E+01  0.28112691348E+01  0.10500000000E+00 0.  1.
    3000001    1    5    5    0    0  0.92275310595E+01 -0.98598758575E+01 -0.25447779102E+02  0.28826271743E+02  0.10000000000E+01 0.  1.
        -13    1    6    6    0    0  0.78079584211E+01 -0.12282630351E+02 -0.14412706885E+02  0.20483270437E+02  0.10500000000E+00 0. -1.
         13    1    6    6    0    0  0.50734872732E+01 -0.78288423864E+01 -0.93244859399E+01  0.13190455233E+02  0.10500000000E+00 0.  1.
</event>
<event>
11    0  0.3482988E-009  0.9118800E+02  0.7816531E-02  0.1126479E+00
         25   -1    0    0    0    0  0.00000000000E+00  0.00000000000E+00  0.99999998245E-14  0.12500000000E+03  0.12500000000E+03 0.  0.
    3000001    1    3    3    0    0  0.17087097781E+02  0.10740857965E+02 -0.25395228018E+02  0.32453852568E+02  0.10000000000E+01 0.  1.
    1000022    2    1    0    0    0  0.28685348593E+02  0.13196093875E+02 -0.53002489112E+02  0.62499999938E+02  0.10000001134E+02 0.  0.
    3000022    2    3    3    0    0  0.11598250811E+02  0.24552359106E+01 -0.27607261094E+02  0.30046147370E+02  0.25000279721E+00 0.  0.
    1000022    2    1    0    0    0 -0.28685348593E+02 -0.13196093875E+02  0.53002489112E+02  0.62500000062E+02  0.10000001911E+02 0.  0.
    3000022    2    5    5    0    0 -0.87980421886E+01 -0.82637896420E+01  0.14453893644E+02  0.18832772149E+02  0.24999946779E+00 0.  0.
        -13    1    4    4    0    0  0.71082077250E+01  0.14809370048E+01 -0.17051628668E+02  0.18533452368E+02  0.10500000000E+00 0.  1.
         13    1    4    4    0    0  0.44900430865E+01  0.97429890583E+00 -0.10555632426E+02  0.11512695002E+02  0.10500000000E+00 0. -1.
    3000001    1    5    5    0    0 -0.19887306404E+02 -0.49323042333E+01  0.38548595468E+02  0.43667227914E+02  0.10000000000E+01 0.  1.
        -13    1    6    6    0    0 -0.65392803841E+01 -0.61328439329E+01  0.10687834175E+02  0.13950440388E+02  0.10500000000E+00 0. -1.
         13    1    6    6    0    0 -0.22587618045E+01 -0.21309457091E+01  0.37660594682E+01  0.48823317608E+01  0.10500000000E+00 0.  1.
</event>
<event>
11    0  0.3482988E-009  0.9118800E+02  0.7816531E-02  0.1126479E+00
         25   -1    0    0    0    0  0.00000000000E+00  0.00000000000E+00  0.99999998245E-14  0.12500000000E+03  0.12500000000E+03 0.  0.
    3000001    1    3    3    0    0 -0.63584808976E+01 -0.26455330740E+02 -0.15610008777E+02  0.31384505379E+02  0.10000000000E+01 0.  1.
    1000022    2    1    0    0    0 -0.72847001207E+01 -0.56471159422E+02 -0.23752711298E+02  0.62499999321E+02  0.99999959458E+01 0.  0.
    3000022    2    3    3    0    0 -0.92621922315E+00 -0.30015828682E+02 -0.81427025208E+01  0.31115493943E+02  0.25001084907E+00 0.  0.
    1000022    2    1    0    0    0  0.72847001207E+01  0.56471159422E+02  0.23752711298E+02  0.62500000679E+02  0.10000004428E+02 0.  0.
    3000022    2    5    5    0    0  0.55998909735E+01  0.53088998061E+02  0.24107980858E+02  0.58575231412E+02  0.24999985421E+00 0.  0.
        -13    1    4    4    0    0 -0.42564883870E+00 -0.12438764707E+02 -0.33240637268E+01  0.12882719784E+02  0.10500000000E+00 0.  1.
         13    1    4    4    0    0 -0.50057038445E+00 -0.17577063975E+02 -0.48186387939E+01  0.18232774158E+02  0.10500000000E+00 0. -1.
    3000001    1    5    5    0    0  0.16848091472E+01  0.33821613606E+01 -0.35526956053E+00  0.39247692662E+01  0.10000000000E+01 0. -1.
        -13    1    6    6    0    0  0.38399994867E+01  0.35915587307E+02  0.16316599952E+02  0.39634801206E+02  0.10500000000E+00 0. -1.
         13    1    6    6    0    0  0.17598914868E+01  0.17173410754E+02  0.77913809065E+01  0.18940430206E+02  0.10500000000E+00 0.  1.
</event>
<event>
11    0  0.3482988E-009  0.9118800E+02  0.7816531E-02  0.1126479E+00
         25   -1    0    0    0    0  0.00000000000E+00  0.00000000000E+00  0.99999998245E-14  0.12500000000E+03  0.12500000000E+03 0.  0.
    3000001    1    3    3    0    0 -0.42528334442E+01  0.52899515329E+01 -0.66731961413E+01  0.95708790748E+01  0.10000000000E+01 0.  1.
    1000022    2    1    0    0    0 -0.16258021287E+02  0.50259253701E+02 -0.31873721780E+02  0.62499997791E+02  0.99999872474E+01 0.  0.
    3000022    2    3    3    0    0 -0.12005187843E+02  0.44969302168E+02 -0.25200525639E+02  0.52929118716E+02  0.24988581130E+00 0.  0.
    1000022    2    1    0    0    0  0.16258021287E+02 -0.50259253701E+02  0.31873721780E+02  0.62500002209E+02  0.10000014863E+02 0.  0.
    3000022    2    5    5    0    0  0.13683629484E+02 -0.36735211398E+02  0.27964824035E+02  0.48154037796E+02  0.25000081615E+00 0.  0.
        -13    1    4    4    0    0 -0.67075024792E+01  0.25380063662E+02 -0.14210597282E+02  0.29851136010E+02  0.10500000000E+00 0. -1.
         13    1    4    4    0    0 -0.52976853640E+01  0.19589238507E+02 -0.10989928357E+02  0.23077982706E+02  0.10500000000E+00 0.  1.
    3000001    1    5    5    0    0  0.25743918034E+01 -0.13524042303E+02  0.39088977450E+01  0.14345964414E+02  0.10000000000E+01 0.  1.
        -13    1    6    6    0    0  0.10130188893E+02 -0.27204048569E+02  0.20669756342E+02  0.35636088980E+02  0.10500000000E+00 0.  1.
         13    1    6    6    0    0  0.35534405910E+01 -0.95311628291E+01  0.72950676930E+01  0.12517948816E+02  0.10500000000E+00 0. -1.
</event>
<event>
11    0  0.3482988E-009  0.9118800E+02  0.7816531E-02  0.1126479E+00
         25   -1    0    0    0    0  0.00000000000E+00  0.00000000000E+00  0.99999998245E-14  0.12500000000E+03  0.12500000000E+03 0.  0.
    3000001    1    3    3    0    0 -0.38536854857E+01 -0.23265650844E+02 -0.17372124711E+02  0.29307543705E+02  0.10000000000E+01 0.  1.
    1000022    2    1    0    0    0 -0.15052509478E+01 -0.53820624843E+02 -0.30121825844E+02  0.62499997026E+02  0.99999898636E+01 0.  0.
    3000022    2    3    3    0    0  0.23484345379E+01 -0.30554973998E+02 -0.12749701133E+02  0.33192453322E+02  0.24999543731E+00 0.  0.
    1000022    2    1    0    0    0  0.15052509478E+01  0.53820624843E+02  0.30121825844E+02  0.62500002974E+02  0.10000027033E+02 0.  0.
    3000022    2    5    5    0    0  0.77320893452E+00  0.48943133385E+02  0.23827404526E+02  0.54441122892E+02  0.24999557793E+00 0.  0.
        -13    1    4    4    0    0  0.17899128247E+01 -0.23027067934E+02 -0.95945213692E+01  0.25010308092E+02  0.10500000000E+00 0. -1.
         13    1    4    4    0    0  0.55852171315E+00 -0.75279060639E+01 -0.31551797636E+01  0.81821452292E+01  0.10500000000E+00 0.  1.
    3000001    1    5    5    0    0  0.73204201329E+00  0.48774914580E+01  0.62944213183E+01  0.80588800813E+01  0.10000000000E+01 0. -1.
        -13    1    6    6    0    0  0.41379037659E+00  0.26842855989E+02  0.13141357921E+02  0.29890072819E+02  0.10500000000E+00 0. -1.
         13    1    6    6    0    0  0.35941855792E+00  0.22100277396E+02  0.10686046605E+02  0.24551050073E+02  0.10500000000E+00 0.  1.
</event>
<event>
11    0  0.3482988E-009  0.9118800E+02  0.7816531E-02  0.1126479E+00
         25   -1    0    0    0    0  0.00000000000E+00  0.00000000000E+00  0.99999998245E-14  0.12500000000E+03  0.12500000000E+03 0.  0.
    3000001    1    3    3    0    0  0.35516484914E+01 -0.56413019034E+01  0.29887701813E+02  0.30638427078E+02  0.10000000000E+01 0.  1.
    1000022    2    1    0    0    0 -0.28318099226E+01 -0.11591335597E+02  0.60529925318E+02  0.62499999606E+02  0.99999941704E+01 0.  0.
    3000022    2    3    3    0    0 -0.63834584140E+01 -0.59500336934E+01  0.30642223505E+02  0.31861572527E+02  0.25000067518E+00 0.  0.
    1000022    2    1    0    0    0  0.28318099226E+01  0.11591335597E+02 -0.60529925318E+02  0.62500000394E+02  0.99999990983E+01 0.  0.
    3000022    2    5    5    0    0  0.13812558782E+01  0.55056485875E+00 -0.29129403653E+02  0.29168401478E+02  0.24999623155E+00 0.  0.
        -13    1    4    4    0    0 -0.25559888562E+01 -0.22998999492E+01  0.12016487515E+02  0.12499184614E+02  0.10500000000E+00 0. -1.
         13    1    4    4    0    0 -0.38274695578E+01 -0.36501337442E+01  0.18625735989E+02  0.19362387913E+02  0.10500000000E+00 0.  1.
    3000001    1    5    5    0    0  0.14505540443E+01  0.11040770738E+02 -0.31400521664E+02  0.33331598916E+02  0.10000000000E+01 0.  1.
        -13    1    6    6    0    0  0.80898705857E+00  0.38330537300E+00 -0.17964030480E+02  0.17986628343E+02  0.10500000000E+00 0.  1.
         13    1    6    6    0    0  0.57226881968E+00  0.16725948575E+00 -0.11165373174E+02  0.11181773135E+02  0.10500000000E+00 0. -1.
</event>
<event>
11    0  0.3482988E-009  0.9118800E+02  0.7816531E-02  0.1126479E+00
         25   -1    0    0    0    0  0.00000000000E+00  0.00000000000E+00  0.99999998245E-14  0.12500000000E+03  0.12500000000E+03 0.  0.
    3000001    1    3    3    0    0 -0.35300572688E+01 -0.41861653582E+02  0.21716023661E+02  0.47301638752E+02  0.10000000000E+01 0. -1.
    1000022    2    1    0    0    0  0.52674833471E+00 -0.55681194306E+02  0.26562703586E+02  0.62499999759E+02  0.99999942480E+01 0.  0.
    3000022    2    3    3    0    0  0.40568056035E+01 -0.13819540723E+02  0.48466799251E+01  0.15198361007E+02  0.24998699617E+00 0.  0.
    1000022    2    1    0    0    0 -0.52674833471E+00  0.55681194306E+02 -0.26562703586E+02  0.62500000241E+02  0.99999972611E+01 0.  0.
    3000022    2    5    5    0    0  0.42190646975E+01  0.29038616465E+02 -0.11543112680E+02  0.31533279292E+02  0.24999891831E+00 0.  0.
        -13    1    4    4    0    0  0.12076923184E+01 -0.42751323681E+01  0.15116866624E+01  0.46937723705E+01  0.10500000000E+00 0. -1.
         13    1    4    4    0    0  0.28491132851E+01 -0.95444083550E+01  0.33349932627E+01  0.10504588636E+02  0.10500000000E+00 0.  1.
    3000001    1    5    5    0    0 -0.47458130322E+01  0.26642577841E+02 -0.15019590907E+02  0.30966720949E+02  0.10000000000E+01 0. -1.
        -13    1    6    6    0    0  0.17048267469E+01  0.12067596415E+02 -0.48405133964E+01  0.13113920559E+02  0.10500000000E+00 0.  1.
         13    1    6    6    0    0  0.25142379506E+01  0.16971020049E+02 -0.67025992832E+01  0.18419358733E+02  0.10500000000E+00 0. -1.
</event>
<event>
11    0  0.3482988E-009  0.9118800E+02  0.7816531E-02  0.1126479E+00
         25   -1    0    0    0    0  0.00000000000E+00  0.00000000000E+00  0.99999998245E-14  0.12500000000E+03  0.12500000000E+03 0.  0.
    3000001    1    3    3    0    0  0.40300940024E+01 -0.61582316771E+00  0.47166003176E+01  0.63140489702E+01  0.10000000000E+01 0. -1.
    1000022    2    1    0    0    0  0.18049951221E+02  0.74710693975E+01  0.58520358668E+02  0.62500000519E+02  0.10000003460E+02 0.  0.
    3000022    2    3    3    0    0  0.14019857218E+02  0.80868925653E+01  0.53803758351E+02  0.56185951549E+02  0.25002201726E+00 0.  0.
    1000022    2    1    0    0    0 -0.18049951221E+02 -0.74710693975E+01 -0.58520358668E+02  0.62499999481E+02  0.99999969696E+01 0.  0.
    3000022    2    5    5    0    0 -0.63177509028E+01  0.57888042610E+00 -0.93448753545E+01  0.11297710707E+02  0.24998563981E+00 0.  0.
        -13    1    4    4    0    0  0.32991579907E+01  0.19184802272E+01  0.12663143966E+02  0.13226157792E+02  0.10500000000E+00 0. -1.
         13    1    4    4    0    0  0.10720699228E+02  0.61684123381E+01  0.41140614385E+02  0.42959793757E+02  0.10500000000E+00 0.  1.
    3000001    1    5    5    0    0 -0.11732200318E+02 -0.80499498236E+01 -0.49175483314E+02  0.51202288773E+02  0.10000000000E+01 0. -1.
        -13    1    6    6    0    0 -0.41930157050E+01  0.33550282081E+00 -0.62363749588E+01  0.75231203946E+01  0.10500000000E+00 0. -1.
         13    1    6    6    0    0 -0.21247351977E+01  0.24337760529E+00 -0.31085003956E+01  0.37745903127E+01  0.10500000000E+00 0.  1.
</event>
<event>
11    0  0.3482988E-009  0.9118800E+02  0.7816531E-02  0.1126479E+00
         25   -1    0    0    0    0  0.00000000000E+00  0.00000000000E+00  0.99999998245E-14  0.12500000000E+03  0.12500000000E+03 0.  0.
    3000001    1    3    3    0    0  0.11149504291E+01 -0.11356990175E+01  0.87019256206E+00  0.20712705793E+01  0.10000000000E+01 0.  1.
    1000022    2    1    0    0    0  0.16584088644E+02 -0.81673377183E+01  0.58860111645E+02  0.62500000495E+02  0.99999958737E+01 0.  0.
    3000022    2    3    3    0    0  0.15469138215E+02 -0.70316387008E+01  0.57989919083E+02  0.60428729916E+02  0.25000812545E+00 0.  0.
    1000022    2    1    0    0    0 -0.16584088644E+02  0.81673377183E+01 -0.58860111645E+02  0.62499999505E+02  0.99999896839E+01 0.  0.
    3000022    2    5    5    0    0  0.46246416403E-01 -0.14072839510E+01 -0.18480053662E+01  0.23367076510E+01  0.24998392581E+00 0.  0.
        -13    1    4    4    0    0  0.63988801423E+01 -0.29794446548E+01  0.24094080601E+02  0.25106941322E+02  0.10500000000E+00 0. -1.
         13    1    4    4    0    0  0.90702580727E+01 -0.40521940459E+01  0.33895838482E+02  0.35321788594E+02  0.10500000000E+00 0.  1.
    3000001    1    5    5    0    0 -0.16630335060E+02  0.95746216693E+01 -0.57012106279E+02  0.60163291854E+02  0.10000000000E+01 0. -1.
        -13    1    6    6    0    0 -0.36011871068E-01 -0.78236232556E+00 -0.98119658614E+00  0.12598251482E+01  0.10500000000E+00 0.  1.
         13    1    6    6    0    0  0.82258287471E-01 -0.62492162543E+00 -0.86680878001E+00  0.10768825028E+01  0.10500000000E+00 0. -1.
</event>
<event>
11    0  0.3482988E-009  0.9118800E+02  0.7816531E-02  0.1126479E+00
         25   -1    0    0    0    0  0.00000000000E+00  0.00000000000E+00  0.99999998245E-14  0.12500000000E+03  0.12500000000E+03 0.  0.
    3000001    1    3    3    0    0  0.11540405697E+02  0.11495802534E+02 -0.28768873214E+01  0.16571388602E+02  0.10000000000E+01 0. -1.
    1000022    2    1    0    0    0  0.52390695001E+02  0.32483670059E+02 -0.25052432838E+01  0.62499999359E+02  0.99999966375E+01 0.  0.
    3000022    2    3    3    0    0  0.40850289304E+02  0.20987867525E+02  0.37164403760E+00  0.45928610757E+02  0.24989449761E+00 0.  0.
    1000022    2    1    0    0    0 -0.52390695001E+02 -0.32483670059E+02  0.25052432838E+01  0.62500000641E+02  0.10000004654E+02 0.  0.
    3000022    2    5    5    0    0 -0.37230155992E+02 -0.17687576669E+02  0.24603256516E+01  0.41292258182E+02  0.24999960769E+00 0.  0.
        -13    1    4    4    0    0  0.22520754578E+02  0.11585058483E+02  0.13969760911E+00  0.25326438898E+02  0.10500000000E+00 0. -1.
         13    1    4    4    0    0  0.18329534726E+02  0.94028090421E+01  0.23194642849E+00  0.20602171859E+02  0.10500000000E+00 0.  1.
    3000001    1    5    5    0    0 -0.15160539009E+02 -0.14796093390E+02  0.44917632184E-01  0.21207742460E+02  0.10000000000E+01 0. -1.
        -13    1    6    6    0    0 -0.23606310332E+02 -0.11245821491E+02  0.16128272036E+01  0.26198065293E+02  0.10500000000E+00 0.  1.
         13    1    6    6    0    0 -0.13623845660E+02 -0.64417551778E+01  0.84749844794E+00  0.15094192889E+02  0.10500000000E+00 0. -1.
</event>
<event>
11    0  0.3482988E-009  0.9118800E+02  0.7816531E-02  0.1126479E+00
         25   -1    0    0    0    0  0.00000000000E+00  0.00000000000E+00  0.99999998245E-14  0.12500000000E+03  0.12500000000E+03 0.  0.
    3000001    1    3    3    0    0  0.11988643656E+01 -0.10370501237E+01  0.67393451263E+01  0.69951069654E+01  0.10000000000E+01 0. -1.
    1000022    2    1    0    0    0  0.27611448527E+02 -0.26490906040E+02  0.48395155969E+02  0.62499993779E+02  0.99998954257E+01 0.  0.
    3000022    2    3    3    0    0  0.26412584162E+02 -0.25453855916E+02  0.41655810843E+02  0.55504886814E+02  0.25000025686E+00 0.  0.
    1000022    2    1    0    0    0 -0.27611448527E+02  0.26490906040E+02 -0.48395155969E+02  0.62500006221E+02  0.99999731854E+01 0.  0.
    3000022    2    5    5    0    0 -0.25748176373E+00  0.15877586505E+01 -0.60432683241E+01  0.62586634673E+01  0.25000393734E+00 0.  0.
        -13    1    4    4    0    0  0.65675264800E+01 -0.63443248689E+01  0.10405428897E+02  0.13844379280E+02  0.10500000000E+00 0. -1.
         13    1    4    4    0    0  0.19845057682E+02 -0.19109531047E+02  0.31250381946E+02  0.41660507534E+02  0.10500000000E+00 0.  1.
    3000001    1    5    5    0    0 -0.27353966764E+02  0.24903147389E+02 -0.42351887645E+02  0.56241342753E+02  0.10000000000E+01 0.  1.
        -13    1    6    6    0    0 -0.85441725563E-01  0.83461283390E+00 -0.33218919645E+01  0.34278083515E+01  0.10500000000E+00 0.  1.
         13    1    6    6    0    0 -0.17204003817E+00  0.75314581664E+00 -0.27213763596E+01  0.28308551158E+01  0.10500000000E+00 0. -1.
</event>
<event>
11    0  0.3482988E-009  0.9118800E+02  0.7816531E-02  0.1126479E+00
         25   -1    0    0    0    0  0.00000000000E+00  0.00000000000E+00  0.99999998245E-14  0.12500000000E+03  0.12500000000E+03 0.  0.
    3000001    1    3    3    0    0  0.17943958417E+02  0.15438088699E+02  0.33520948406E+01  0.23928158437E+02  0.10000000000E+01 0.  1.
    1000022    2    1    0    0    0  0.51447345573E+02  0.30530592878E+02  0.15076589880E+02  0.62499999468E+02  0.99999951541E+01 0.  0.
    3000022    2    3    3    0    0  0.33503387157E+02  0.15092504179E+02  0.11724495039E+02  0.38571841031E+02  0.25000656069E+00 0.  0.
    1000022    2    1    0    0    0 -0.51447345573E+02 -0.30530592878E+02 -0.15076589880E+02  0.62500000532E+02  0.10000001802E+02 0.  0.
    3000022    2    5    5    0    0 -0.18425498621E+02 -0.13524991981E+02 -0.13816380155E+01  0.22899690626E+02  0.24999935890E+00 0.  0.
        -13    1    4    4    0    0  0.12387885635E+02  0.56090359924E+01  0.42827496197E+01  0.14257417879E+02  0.10500000000E+00 0.  1.
         13    1    4    4    0    0  0.21115501522E+02  0.94834681864E+01  0.74417454194E+01  0.24314423152E+02  0.10500000000E+00 0. -1.
    3000001    1    5    5    0    0 -0.33021846953E+02 -0.17005600898E+02 -0.13694951864E+02  0.39600309905E+02  0.10000000000E+01 0.  1.
        -13    1    6    6    0    0 -0.94515101757E+01 -0.68588448428E+01 -0.72930614331E+00  0.11701184112E+02  0.10500000000E+00 0. -1.
         13    1    6    6    0    0 -0.89739884451E+01 -0.66661471378E+01 -0.65233187216E+00  0.11198506514E+02  0.10500000000E+00 0.  1.
</event>
<event>
11    0  0.3482988E-009  0.9118800E+02  0.7816531E-02  0.1126479E+00
         25   -1    0    0    0    0  0.00000000000E+00  0.00000000000E+00  0.99999998245E-14  0.12500000000E+03  0.12500000000E+03 0.  0.
    3000001    1    3    3    0    0  0.27490397872E+01  0.63258105066E+01 -0.25058084021E+02  0.26009242071E+02  0.10000000000E+01 0.  1.
    1000022    2    1    0    0    0  0.15972122640E+02  0.20702152414E+02 -0.55879891034E+02  0.62499999976E+02  0.99999979415E+01 0.  0.
    3000022    2    3    3    0    0  0.13223082853E+02  0.14376341907E+02 -0.30821807013E+02  0.36490757905E+02  0.24999629009E+00 0.  0.
    1000022    2    1    0    0    0 -0.15972122640E+02 -0.20702152414E+02  0.55879891034E+02  0.62500000024E+02  0.99999982416E+01 0.  0.
    3000022    2    5    5    0    0 -0.66458984424E+00 -0.43421920823E+01  0.17531104764E+02  0.18074801423E+02  0.25000099321E+00 0.  0.
        -13    1    4    4    0    0  0.52900354781E+01  0.56695989898E+01 -0.12181030552E+02  0.14440130137E+02  0.10500000000E+00 0. -1.
         13    1    4    4    0    0  0.79330473750E+01  0.87067429177E+01 -0.18640776461E+02  0.22050627768E+02  0.10500000000E+00 0.  1.
    3000001    1    5    5    0    0 -0.15307532796E+02 -0.16359960332E+02  0.38348786270E+02  0.44425198601E+02  0.10000000000E+01 0.  1.
        -13    1    6    6    0    0 -0.46875061087E+00 -0.28852941368E+01  0.11464462804E+02  0.11831719308E+02  0.10500000000E+00 0. -1.
         13    1    6    6    0    0 -0.19583923337E+00 -0.14568979455E+01  0.60666419603E+01  0.62430821157E+01  0.10500000000E+00 0.  1.
</event>
<event>
11    0  0.3482988E-009  0.9118800E+02  0.7816531E-02  0.1126479E+00
         25   -1    0    0    0    0  0.00000000000E+00  0.00000000000E+00  0.99999998245E-14  0.12500000000E+03  0.12500000000E+03 0.  0.
    3000001    1    3    3    0    0  0.50144165376E-01  0.93190805692E+01  0.73884524880E+01  0.11934697619E+02  0.10000000000E+01 0. -1.
    1000022    2    1    0    0    0  0.92877841484E+01  0.56641470248E+02  0.22621484046E+02  0.62500004970E+02  0.99999997256E+01 0.  0.
    3000022    2    3    3    0    0  0.92376399830E+01  0.47322389679E+02  0.15233031558E+02  0.50565307351E+02  0.24999926213E+00 0.  0.
    1000022    2    1    0    0    0 -0.92877841484E+01 -0.56641470248E+02 -0.22621484046E+02  0.62499995030E+02  0.99999375994E+01 0.  0.
    3000022    2    5    5    0    0 -0.11338949364E+02 -0.46051801077E+02 -0.18610098991E+02  0.50948389861E+02  0.24997987176E+00 0.  0.
        -13    1    4    4    0    0  0.44908263198E+01  0.23330868563E+02  0.74783798945E+01  0.24908515407E+02  0.10500000000E+00 0.  1.
         13    1    4    4    0    0  0.47468136632E+01  0.23991521117E+02  0.77546516638E+01  0.25656791944E+02  0.10500000000E+00 0. -1.
    3000001    1    5    5    0    0  0.20511652153E+01 -0.10589669172E+02 -0.40113850558E+01  0.11551605169E+02  0.10000000000E+01 0.  1.
        -13    1    6    6    0    0 -0.56959846580E+01 -0.22870807629E+02 -0.92210489099E+01  0.25309224619E+02  0.10500000000E+00 0.  1.
         13    1    6    6    0    0 -0.56429647056E+01 -0.23180993448E+02 -0.93890500806E+01  0.25639165242E+02  0.10500000000E+00 0. -1.
</event>
<event>
11    0  0.3482988E-009  0.9118800E+02  0.7816531E-02  0.1126479E+00
         25   -1    0    0    0    0  0.00000000000E+00  0.00000000000E+00  0.99999998245E-14  0.12500000000E+03  0.12500000000E+03 0.  0.
    3000001    1    3    3    0    0 -0.20654619752E+01 -0.37889556498E+01  0.59660703082E+01  0.74307679959E+01  0.10000000000E+01 0. -1.
    1000022    2    1    0    0    0 -0.11887170777E+02 -0.83626465524E+01  0.59958413104E+02  0.62499999078E+02  0.99999948169E+01 0.  0.
    3000022    2    3    3    0    0 -0.98217088017E+01 -0.45736909026E+01  0.53992342796E+02  0.55069231082E+02  0.25003821995E+00 0.  0.
    1000022    2    1    0    0    0  0.11887170777E+02  0.83626465524E+01 -0.59958413104E+02  0.62500000922E+02  0.10000006347E+02 0.  0.
    3000022    2    5    5    0    0  0.11244026591E+02  0.88130360285E+01 -0.39547957659E+02  0.42049984380E+02  0.24998667624E+00 0.  0.
        -13    1    4    4    0    0 -0.38752033895E+01 -0.18286084130E+01  0.21058152404E+02  0.21489946899E+02  0.10500000000E+00 0. -1.
         13    1    4    4    0    0 -0.59465054122E+01 -0.27450824896E+01  0.32934190392E+02  0.33579284183E+02  0.10500000000E+00 0.  1.
    3000001    1    5    5    0    0  0.64314418635E+00 -0.45038947612E+00 -0.20410455445E+02  0.20450016543E+02  0.10000000000E+01 0. -1.
        -13    1    6    6    0    0  0.43145154228E+01  0.34584212604E+01 -0.15270893847E+02  0.16241519166E+02  0.10500000000E+00 0.  1.
         13    1    6    6    0    0  0.69295111678E+01  0.53546147681E+01 -0.24277063812E+02  0.25808465214E+02  0.10500000000E+00 0. -1.
</event>
<event>
11    0  0.3482988E-009  0.9118800E+02  0.7816531E-02  0.1126479E+00
         25   -1    0    0    0    0  0.00000000000E+00  0.00000000000E+00  0.99999998245E-14  0.12500000000E+03  0.12500000000E+03 0.  0.
    3000001    1    3    3    0    0  0.34975851903E+02 -0.18600914817E+02  0.17348514647E+02  0.43258238624E+02  0.10000000000E+01 0.  1.
    1000022    2    1    0    0    0  0.45810645764E+02 -0.29692561545E+02  0.28739981258E+02  0.62500000404E+02  0.10000002568E+02 0.  0.
    3000022    2    3    3    0    0  0.10834793860E+02 -0.11091646728E+02  0.11391466611E+02  0.19241761780E+02  0.24999941058E+00 0.  0.
    1000022    2    1    0    0    0 -0.45810645764E+02  0.29692561545E+02 -0.28739981258E+02  0.62499999596E+02  0.99999975216E+01 0.  0.
    3000022    2    5    5    0    0 -0.14848472494E+02  0.11512780471E+02 -0.14998267714E+02  0.24042291596E+02  0.25000241810E+00 0.  0.
        -13    1    4    4    0    0  0.32425985336E+01 -0.33666066878E+01  0.34747989317E+01  0.58252672433E+01  0.10500000000E+00 0. -1.
         13    1    4    4    0    0  0.75921953266E+01 -0.77250400404E+01  0.79166676789E+01  0.13416494536E+02  0.10500000000E+00 0.  1.
    3000001    1    5    5    0    0 -0.30962173270E+02  0.18179781074E+02 -0.13741713544E+02  0.38457708000E+02  0.10000000000E+01 0.  1.
        -13    1    6    6    0    0 -0.75510608125E+01  0.58778307316E+01 -0.75549906126E+01  0.12192469875E+02  0.10500000000E+00 0. -1.
         13    1    6    6    0    0 -0.72974116814E+01  0.56349497391E+01 -0.74432771010E+01  0.11849821721E+02  0.10500000000E+00 0.  1.
</event>
<event>
11    0  0.3482988E-009  0.9118800E+02  0.7816531E-02  0.1126479E+00
         25   -1    0    0    0    0  0.00000000000E+00  0.00000000000E+00  0.99999998245E-14  0.12500000000E+03  0.12500000000E+03 0.  0.
    3000001    1    3    3    0    0  0.54326729851E+02 -0.17573856480E+02  0.11138967348E+02  0.58183422050E+02  0.10000000000E+01 0. -1.
    1000022    2    1    0    0    0  0.56890192675E+02 -0.21034845862E+02  0.11282339775E+02  0.62500000564E+02  0.10000005831E+02 0.  0.
    3000022    2    3    3    0    0  0.25634628249E+01 -0.34609893823E+01  0.14337242686E+00  0.43165785145E+01  0.25001051891E+00 0.  0.
    1000022    2    1    0    0    0 -0.56890192675E+02  0.21034845862E+02 -0.11282339775E+02  0.62499999436E+02  0.99999987797E+01 0.  0.
    3000022    2    5    5    0    0 -0.29036771754E+02  0.12089480029E+02 -0.98333643250E+00  0.31469335621E+02  0.24998529811E+00 0.  0.
        -13    1    4    4    0    0  0.13420483696E+01 -0.18400567164E+01  0.14117549197E+00  0.22842631340E+01  0.10500000000E+00 0. -1.
         13    1    4    4    0    0  0.12214144553E+01 -0.16209326660E+01  0.21969348884E-02  0.20323153805E+01  0.10500000000E+00 0.  1.
    3000001    1    5    5    0    0 -0.27853420922E+02  0.89453658332E+01 -0.10299003343E+02  0.31030663815E+02  0.10000000000E+01 0.  1.
        -13    1    6    6    0    0 -0.20309604757E+02  0.84237674092E+01 -0.65214080289E+00  0.21997186533E+02  0.10500000000E+00 0. -1.
         13    1    6    6    0    0 -0.87271669965E+01  0.36657126194E+01 -0.33119562960E+00  0.94721490876E+01  0.10500000000E+00 0.  1.
</event>
<event>
11    0  0.3482988E-009  0.9118800E+02  0.7816531E-02  0.1126479E+00
         25   -1    0    0    0    0  0.00000000000E+00  0.00000000000E+00  0.99999998245E-14  0.12500000000E+03  0.12500000000E+03 0.  0.
    3000001    1    3    3    0    0  0.45923914141E+02  0.17424783056E+02  0.35226708957E+02  0.60452874030E+02  0.10000000000E+01 0.  1.
    1000022    2    1    0    0    0  0.46432097399E+02  0.19325835154E+02  0.35732651215E+02  0.62500000072E+02  0.10000003648E+02 0.  0.
    3000022    2    3    3    0    0  0.50818325843E+00  0.19010520983E+01  0.50594225779E+00  0.20471260427E+01  0.24999632354E+00 0.  0.
    1000022    2    1    0    0    0 -0.46432097399E+02 -0.19325835154E+02 -0.35732651215E+02  0.62499999928E+02  0.10000002742E+02 0.  0.
    3000022    2    5    5    0    0 -0.28134659752E+02 -0.11259792875E+02 -0.15513064265E+02  0.34044965946E+02  0.25005682151E+00 0.  0.
        -13    1    4    4    0    0  0.17001723881E+00  0.81670627359E+00  0.16792664933E+00  0.85740268157E+00  0.10500000000E+00 0.  1.
         13    1    4    4    0    0  0.33816601962E+00  0.10843458247E+01  0.33801560846E+00  0.11897233611E+01  0.10500000000E+00 0. -1.
    3000001    1    5    5    0    0 -0.18297437647E+02 -0.80660422790E+01 -0.20219586949E+02  0.28455033981E+02  0.10000000000E+01 0. -1.
        -13    1    6    6    0    0 -0.18948965394E+02 -0.75410415218E+01 -0.10401393622E+02  0.22893898991E+02  0.10500000000E+00 0.  1.
         13    1    6    6    0    0 -0.91856943583E+01 -0.37187513533E+01 -0.51116706440E+01  0.11151066955E+02  0.10500000000E+00 0. -1.
</event>
<event>
11    0  0.3482988E-009  0.9118800E+02  0.7816531E-02  0.1126479E+00
         25   -1    0    0    0    0  0.00000000000E+00  0.00000000000E+00  0.99999998245E-14  0.12500000000E+03  0.12500000000E+03 0.  0.
    3000001    1    3    3    0    0  0.35043739227E+01 -0.18390905046E+02 -0.25414429186E+02  0.31581628138E+02  0.10000000000E+01 0.  1.
    1000022    2    1    0    0    0  0.15801499655E+02 -0.32247058663E+02 -0.50166619756E+02  0.62500000191E+02  0.10000005123E+02 0.  0.
    3000022    2    3    3    0    0  0.12297125732E+02 -0.13856153617E+02 -0.24752190570E+02  0.30918372054E+02  0.24999619486E+00 0.  0.
    1000022    2    1    0    0    0 -0.15801499655E+02  0.32247058663E+02  0.50166619756E+02  0.62499999809E+02  0.10000002732E+02 0.  0.
    3000022    2    5    5    0    0 -0.12199975365E+02  0.30725102724E+02  0.46450905788E+02  0.57014212957E+02  0.24998856168E+00 0.  0.
        -13    1    4    4    0    0  0.55186526537E+01 -0.62639911710E+01 -0.11253173356E+02  0.14012067945E+02  0.10500000000E+00 0. -1.
         13    1    4    4    0    0  0.67784730787E+01 -0.75921624460E+01 -0.13499017214E+02  0.16906304109E+02  0.10500000000E+00 0.  1.
    3000001    1    5    5    0    0 -0.36015242904E+01  0.15219559387E+01  0.37157139678E+01  0.54857868518E+01  0.10000000000E+01 0.  1.
        -13    1    6    6    0    0 -0.62008250230E+01  0.15565034285E+02  0.23654379926E+02  0.28987259925E+02  0.10500000000E+00 0.  1.
         13    1    6    6    0    0 -0.59991503418E+01  0.15160068439E+02  0.22796525862E+02  0.28026953032E+02  0.10500000000E+00 0. -1.
</event>
<event>
11    0  0.3482988E-009  0.9118800E+02  0.7816531E-02  0.1126479E+00
         25   -1    0    0    0    0  0.00000000000E+00  0.00000000000E+00  0.99999998245E-14  0.12500000000E+03  0.12500000000E+03 0.  0.
    3000001    1    3    3    0    0 -0.22275684742E+02 -0.19169476178E+02 -0.83450756850E+00  0.29417194811E+02  0.10000000000E+01 0. -1.
    1000022    2    1    0    0    0 -0.52771819806E+02 -0.31831831800E+02 -0.28494604096E+01  0.62500000635E+02  0.10000008666E+02 0.  0.
    3000022    2    3    3    0    0 -0.30496135064E+02 -0.12662355622E+02 -0.20149528411E+01  0.33082805824E+02  0.25000495282E+00 0.  0.
    1000022    2    1    0    0    0  0.52771819806E+02  0.31831831800E+02  0.28494604096E+01  0.62499999365E+02  0.10000000734E+02 0.  0.
    3000022    2    5    5    0    0  0.47299705713E+02  0.24730610087E+02  0.32140206181E+01  0.53472026913E+02  0.24999558265E+00 0.  0.
        -13    1    4    4    0    0 -0.11261560773E+02 -0.46276119569E+01 -0.78217453842E+00  0.12200834623E+02  0.10500000000E+00 0.  1.
         13    1    4    4    0    0 -0.19234574290E+02 -0.80347436654E+01 -0.12327783027E+01  0.20881971201E+02  0.10500000000E+00 0. -1.
    3000001    1    5    5    0    0  0.54721140925E+01  0.71012217127E+01 -0.36456020850E+00  0.90279724524E+01  0.10000000000E+01 0.  1.
        -13    1    6    6    0    0  0.35844616169E+02  0.18756730990E+02  0.24200722871E+01  0.40528005634E+02  0.10500000000E+00 0. -1.
         13    1    6    6    0    0  0.11455089544E+02  0.59738790974E+01  0.79394833107E+00  0.12944021280E+02  0.10500000000E+00 0.  1.
</event>
<event>
11    0  0.3482988E-009  0.9118800E+02  0.7816531E-02  0.1126479E+00
         25   -1    0    0    0    0  0.00000000000E+00  0.00000000000E+00  0.99999998245E-14  0.12500000000E+03  0.12500000000E+03 0.  0.
    3000001    1    3    3    0    0 -0.37754100040E+02 -0.81726084816E+01  0.16333515190E+02  0.41951726040E+02  0.10000000000E+01 0.  1.
    1000022    2    1    0    0    0 -0.56588104957E+02 -0.16066979210E+02  0.18598082111E+02  0.62500000799E+02  0.99999999060E+01 0.  0.
    3000022    2    3    3    0    0 -0.18834004917E+02 -0.78943707287E+01  0.22645669206E+01  0.20548274760E+02  0.25000368557E+00 0.  0.
    1000022    2    1    0    0    0  0.56588104957E+02  0.16066979210E+02 -0.18598082111E+02  0.62499999201E+02  0.99999899153E+01 0.  0.
    3000022    2    5    5    0    0  0.35666042855E+02  0.65506967206E+01 -0.14868613317E+02  0.39193320919E+02  0.25000449612E+00 0.  0.
        -13    1    4    4    0    0 -0.12035987700E+02 -0.51042753489E+01  0.14301051099E+01  0.13151990434E+02  0.10500000000E+00 0.  1.
         13    1    4    4    0    0 -0.67980172172E+01 -0.27900953798E+01  0.83446181071E+00  0.73962843258E+01  0.10500000000E+00 0. -1.
    3000001    1    5    5    0    0  0.20922062102E+02  0.95162824898E+01 -0.37294687936E+01  0.23306678281E+02  0.10000000000E+01 0.  1.
        -13    1    6    6    0    0  0.18154821199E+02  0.33039681083E+01 -0.76319081520E+01  0.19969245982E+02  0.10500000000E+00 0. -1.
         13    1    6    6    0    0  0.17511221655E+02  0.32467286123E+01 -0.72367051652E+01  0.19224074937E+02  0.10500000000E+00 0.  1.
</event>
<event>
11    0  0.3482988E-009  0.9118800E+02  0.7816531E-02  0.1126479E+00
         25   -1    0    0    0    0  0.00000000000E+00  0.00000000000E+00  0.99999998245E-14  0.12500000000E+03  0.12500000000E+03 0.  0.
    3000001    1    3    3    0    0 -0.35685555386E+02 -0.29531205197E+02 -0.15135466340E+02  0.48740468658E+02  0.10000000000E+01 0.  1.
    1000022    2    1    0    0    0 -0.46069793348E+02 -0.33999268213E+02 -0.22975506448E+02  0.62500000202E+02  0.10000001530E+02 0.  0.
    3000022    2    3    3    0    0 -0.10384237961E+02 -0.44680630152E+01 -0.78400401080E+01  0.13759531544E+02  0.24998854821E+00 0.  0.
    1000022    2    1    0    0    0  0.46069793348E+02  0.33999268213E+02  0.22975506448E+02  0.62499999798E+02  0.99999990085E+01 0.  0.
    3000022    2    5    5    0    0  0.16104535888E+02  0.15873423165E+02  0.51586268464E+01  0.23194731551E+02  0.25000321443E+00 0.  0.
        -13    1    4    4    0    0 -0.66008651940E+01 -0.29036806047E+01 -0.49969710288E+01  0.87740256910E+01  0.10500000000E+00 0. -1.
         13    1    4    4    0    0 -0.37833727672E+01 -0.15643824105E+01 -0.28430690792E+01  0.49855058531E+01  0.10500000000E+00 0.  1.
    3000001    1    5    5    0    0  0.29965257459E+02  0.18125845047E+02  0.17816879601E+02  0.39305268247E+02  0.10000000000E+01 0.  1.
        -13    1    6    6    0    0  0.10588783558E+02  0.10424247685E+02  0.33337316750E+01  0.15228659459E+02  0.10500000000E+00 0.  1.
         13    1    6    6    0    0  0.55157523303E+01  0.54491754803E+01  0.18248951714E+01  0.79660720918E+01  0.10500000000E+00 0. -1.
</event>
<event>
11    0  0.3482988E-009  0.9118800E+02  0.7816531E-02  0.1126479E+00
         25   -1    0    0    0    0  0.00000000000E+00  0.00000000000E+00  0.99999998245E-14  0.12500000000E+03  0.12500000000E+03 0.  0.
    3000001    1    3    3    0    0  0.76717666639E+01  0.65767849312E+00 -0.10736736282E-01  0.77645772598E+01  0.10000000000E+01 0. -1.
    1000022    2    1    0    0    0  0.57909991333E+02 -0.14627965242E+02 -0.15450096765E+02  0.62499999632E+02  0.10000000034E+02 0.  0.
    3000022    2    3    3    0    0  0.50238224669E+02 -0.15285643735E+02 -0.15439360028E+02  0.54735422372E+02  0.25000380864E+00 0.  0.
    1000022    2    1    0    0    0 -0.57909991333E+02  0.14627965242E+02  0.15450096765E+02  0.62500000368E+02  0.10000004635E+02 0.  0.
    3000022    2    5    5    0    0 -0.33705237684E+02  0.13378410665E+02  0.10347838472E+02  0.37711605391E+02  0.25000176436E+00 0.  0.
        -13    1    4    4    0    0  0.28786508086E+02 -0.86907438251E+01 -0.88337592088E+01  0.31340682871E+02  0.10500000000E+00 0.  1.
         13    1    4    4    0    0  0.21451716583E+02 -0.65948999097E+01 -0.66056008196E+01  0.23394739502E+02  0.10500000000E+00 0. -1.
    3000001    1    5    5    0    0 -0.24204753649E+02  0.12495545763E+01  0.51022582927E+01  0.24788394977E+02  0.10000000000E+01 0.  1.
        -13    1    6    6    0    0 -0.11184974148E+02  0.43824686309E+01  0.34262194414E+01  0.12492384986E+02  0.10500000000E+00 0.  1.
         13    1    6    6    0    0 -0.22520263536E+02  0.89959420345E+01  0.69216190306E+01  0.25219220405E+02  0.10500000000E+00 0. -1.
</event>
<event>
11    0  0.3482988E-009  0.9118800E+02  0.7816531E-02  0.1126479E+00
         25   -1    0    0    0    0  0.00000000000E+00  0.00000000000E+00  0.99999998245E-14  0.12500000000E+03  0.12500000000E+03 0.  0.
    3000001    1    3    3    0    0  0.11241099557E+01 -0.43339050510E+01 -0.27506299772E+01  0.53490486496E+01  0.10000000000E+01 0.  1.
    1000022    2    1    0    0    0 -0.17094180260E+02 -0.47002153640E+02 -0.36122521938E+02  0.62499999749E+02  0.99999965963E+01 0.  0.
    3000022    2    3    3    0    0 -0.18218290215E+02 -0.42668248589E+02 -0.33371891961E+02  0.57150951100E+02  0.25000502490E+00 0.  0.
    1000022    2    1    0    0    0  0.17094180260E+02  0.47002153640E+02  0.36122521938E+02  0.62500000251E+02  0.99999997315E+01 0.  0.
    3000022    2    5    5    0    0  0.66949791919E+01  0.71328016437E+01  0.66720698806E+01  0.11843927191E+02  0.24997828769E+00 0.  0.
        -13    1    4    4    0    0 -0.86078572904E+01 -0.20003080652E+02 -0.15697404552E+02  0.26844701104E+02  0.10500000000E+00 0.  1.
         13    1    4    4    0    0 -0.96104329251E+01 -0.22665167937E+02 -0.17674487409E+02  0.30306249995E+02  0.10500000000E+00 0. -1.
    3000001    1    5    5    0    0  0.10399201068E+02  0.39869351996E+02  0.29450452058E+02  0.50656073060E+02  0.10000000000E+01 0. -1.
        -13    1    6    6    0    0  0.16904082588E+01  0.18129646441E+01  0.16589328198E+01  0.29845274304E+01  0.10500000000E+00 0. -1.
         13    1    6    6    0    0  0.50045709331E+01  0.53198369996E+01  0.50131370609E+01  0.88593997606E+01  0.10500000000E+00 0.  1.
</event>
<event>
11    0  0.3482988E-009  0.9118800E+02  0.7816531E-02  0.1126479E+00
         25   -1    0    0    0    0  0.00000000000E+00  0.00000000000E+00  0.99999998245E-14  0.12500000000E+03  0.12500000000E+03 0.  0.
    3000001    1    3    3    0    0  0.20278134206E+01 -0.52561365962E+02  0.75083214578E+01  0.53143053264E+02  0.10000000000E+01 0.  1.
    1000022    2    1    0    0    0  0.43995895469E+01 -0.60325581991E+02  0.12153919928E+02  0.62500000038E+02  0.10000000220E+02 0.  0.
    3000022    2    3    3    0    0  0.23717761264E+01 -0.77642160288E+01  0.46455984705E+01  0.93569467744E+01  0.24999050633E+00 0.  0.
    1000022    2    1    0    0    0 -0.43995895469E+01  0.60325581991E+02 -0.12153919928E+02  0.62499999962E+02  0.99999997406E+01 0.  0.
    3000022    2    5    5    0    0  0.23068593096E+01  0.13370944500E+02 -0.52852476824E+01  0.14563655747E+02  0.24993792698E+00 0.  0.
        -13    1    4    4    0    0  0.75637066306E+00 -0.23698469008E+01  0.14657078084E+01  0.28892205338E+01  0.10500000000E+00 0. -1.
         13    1    4    4    0    0  0.16154054633E+01 -0.53943691281E+01  0.31798906620E+01  0.64677262406E+01  0.10500000000E+00 0.  1.
    3000001    1    5    5    0    0 -0.67064488566E+01  0.46954637492E+02 -0.68686722459E+01  0.47936344215E+02  0.10000000000E+01 0.  1.
        -13    1    6    6    0    0  0.17524524979E+01  0.10059974314E+02 -0.39967398846E+01  0.10966272277E+02  0.10500000000E+00 0.  1.
         13    1    6    6    0    0  0.55440681176E+00  0.33109701859E+01 -0.12885077978E+01  0.35973834700E+01  0.10500000000E+00 0. -1.
</event>
<event>
11    0  0.3482988E-009  0.9118800E+02  0.7816531E-02  0.1126479E+00
         25   -1    0    0    0    0  0.00000000000E+00  0.00000000000E+00  0.99999998245E-14  0.12500000000E+03  0.12500000000E+03 0.  0.
    3000001    1    3    3    0    0  0.20442140116E+02 -0.16846249828E+02  0.15698443678E+02  0.30807764601E+02  0.10000000000E+01 0.  1.
    1000022    2    1    0    0    0  0.47813229879E+02 -0.27979843685E+02  0.27152779206E+02  0.62499999781E+02  0.99999974933E+01 0.  0.
    3000022    2    3    3    0    0  0.27371089763E+02 -0.11133593857E+02  0.11454335529E+02  0.31692235180E+02  0.25000265123E+00 0.  0.
    1000022    2    1    0    0    0 -0.47813229879E+02  0.27979843685E+02 -0.27152779206E+02  0.62500000219E+02  0.10000000231E+02 0.  0.
    3000022    2    5    5    0    0 -0.27319309253E+02  0.20699580796E+02 -0.13736370782E+02  0.36926517363E+02  0.24999822011E+00 0.  0.
        -13    1    4    4    0    0  0.16167420634E+02 -0.65195715005E+01  0.67965368488E+01  0.18710805452E+02  0.10500000000E+00 0. -1.
         13    1    4    4    0    0  0.11203669129E+02 -0.46140223568E+01  0.46577986799E+01  0.12981429729E+02  0.10500000000E+00 0.  1.
    3000001    1    5    5    0    0 -0.20493920627E+02  0.72802628885E+01 -0.13416408424E+02  0.25573482856E+02  0.10000000000E+01 0. -1.
        -13    1    6    6    0    0 -0.12622320785E+02  0.95265864336E+01 -0.62727507836E+01  0.17012855682E+02  0.10500000000E+00 0.  1.
         13    1    6    6    0    0 -0.14696988468E+02  0.11172994363E+02 -0.74636199985E+01  0.19913661681E+02  0.10500000000E+00 0. -1.
</event>
<event>
11    0  0.3482988E-009  0.9118800E+02  0.7816531E-02  0.1126479E+00
         25   -1    0    0    0    0  0.00000000000E+00  0.00000000000E+00  0.99999998245E-14  0.12500000000E+03  0.12500000000E+03 0.  0.
    3000001    1    3    3    0    0 -0.33528812737E+02  0.27652240708E+02  0.15249273478E+02  0.46069165841E+02  0.10000000000E+01 0. -1.
    1000022    2    1    0    0    0 -0.47482235256E+02  0.32270544439E+02  0.22589795168E+02  0.62500005458E+02  0.10000056661E+02 0.  0.
    3000022    2    3    3    0    0 -0.13953422519E+02  0.46183037315E+01  0.73405216902E+01  0.16430839617E+02  0.25000496462E+00 0.  0.
    1000022    2    1    0    0    0  0.47482235256E+02 -0.32270544439E+02 -0.22589795168E+02  0.62499994542E+02  0.99999884339E+01 0.  0.
    3000022    2    5    5    0    0  0.23118584816E+02 -0.20407432259E+02 -0.15274847189E+02  0.34413888416E+02  0.25000796152E+00 0.  0.
        -13    1    4    4    0    0 -0.83470152529E+01  0.27947771500E+01  0.43341156810E+01  0.98121876605E+01  0.10500000000E+00 0.  1.
         13    1    4    4    0    0 -0.56064072660E+01  0.18235265815E+01  0.30064060093E+01  0.66186519563E+01  0.10500000000E+00 0. -1.
    3000001    1    5    5    0    0  0.24363650440E+02 -0.11863112180E+02 -0.73149479794E+01  0.28086106125E+02  0.10000000000E+01 0. -1.
        -13    1    6    6    0    0  0.12176937720E+02 -0.10745830139E+02 -0.79691849125E+01  0.18090594539E+02  0.10500000000E+00 0.  1.
         13    1    6    6    0    0  0.10941647097E+02 -0.96616021199E+01 -0.73056622764E+01  0.16323293877E+02  0.10500000000E+00 0. -1.
</event>
<event>
11    0  0.3482988E-009  0.9118800E+02  0.7816531E-02  0.1126479E+00
         25   -1    0    0    0    0  0.00000000000E+00  0.00000000000E+00  0.99999998245E-14  0.12500000000E+03  0.12500000000E+03 0.  0.
    3000001    1    3    3    0    0 -0.82562889924E+01  0.18759597897E+02  0.95557781009E+01  0.22636292018E+02  0.10000000000E+01 0.  1.
    1000022    2    1    0    0    0 -0.11288731440E+02  0.51166977130E+02  0.32569230693E+02  0.62500002781E+02  0.10000027684E+02 0.  0.
    3000022    2    3    3    0    0 -0.30324424477E+01  0.32407379232E+02  0.23013452592E+02  0.39863710764E+02  0.24999953916E+00 0.  0.
    1000022    2    1    0    0    0  0.11288731440E+02 -0.51166977130E+02 -0.32569230693E+02  0.62499997219E+02  0.99999929150E+01 0.  0.
    3000022    2    5    5    0    0 -0.51504910748E+00 -0.19038275529E+02 -0.10311384778E+02  0.21658909984E+02  0.25002988747E+00 0.  0.
        -13    1    4    4    0    0 -0.20108348362E+01  0.21961347471E+02  0.15559902960E+02  0.26990106421E+02  0.10500000000E+00 0. -1.
         13    1    4    4    0    0 -0.10216076114E+01  0.10446031761E+02  0.74535496314E+01  0.12873604343E+02  0.10500000000E+00 0.  1.
    3000001    1    5    5    0    0  0.11803780548E+02 -0.32128701600E+02 -0.22257845914E+02  0.40841087234E+02  0.10000000000E+01 0. -1.
        -13    1    6    6    0    0 -0.13721399459E+00 -0.72102019066E+01 -0.39254604432E+01  0.82113399580E+01  0.10500000000E+00 0. -1.
         13    1    6    6    0    0 -0.37783511290E+00 -0.11828073623E+02 -0.63859243350E+01  0.13447570026E+02  0.10500000000E+00 0.  1.
</event>
<event>
11    0  0.3482988E-009  0.9118800E+02  0.7816531E-02  0.1126479E+00
         25   -1    0    0    0    0  0.00000000000E+00  0.00000000000E+00  0.99999998245E-14  0.12500000000E+03  0.12500000000E+03 0.  0.
    3000001    1    3    3    0    0  0.10354379585E+02  0.85032788834E+01 -0.95688768283E+01  0.16494918372E+02  0.10000000000E+01 0.  1.
    1000022    2    1    0    0    0  0.26881016716E+02  0.42919068399E+02 -0.35236544723E+02  0.62500004834E+02  0.10000051420E+02 0.  0.
    3000022    2    3    3    0    0  0.16526637131E+02  0.34415789515E+02 -0.25667667895E+02  0.46005086462E+02  0.25000480772E+00 0.  0.
    1000022    2    1    0    0    0 -0.26881016716E+02 -0.42919068399E+02  0.35236544723E+02  0.62499995166E+02  0.99999909907E+01 0.  0.
    3000022    2    5    5    0    0 -0.56349940288E+01 -0.11563719398E+02  0.42371709644E+01  0.13545806740E+02  0.24999688489E+00 0.  0.
        -13    1    4    4    0    0  0.64694174636E+01  0.13464409187E+02 -0.10117880621E+02  0.18042344923E+02  0.10500000000E+00 0.  1.
         13    1    4    4    0    0  0.10057219667E+02  0.20951380329E+02 -0.15549787274E+02  0.27962741539E+02  0.10500000000E+00 0. -1.
    3000001    1    5    5    0    0 -0.21246022687E+02 -0.31355349001E+02  0.30999373759E+02  0.48954188425E+02  0.10000000000E+01 0.  1.
        -13    1    6    6    0    0 -0.19203079220E+01 -0.40544590689E+01  0.14502739273E+01  0.47159877355E+01  0.10500000000E+00 0. -1.
         13    1    6    6    0    0 -0.37146861068E+01 -0.75092603292E+01  0.27868970371E+01  0.88298190049E+01  0.10500000000E+00 0.  1.
</event>
<event>
11    0  0.3482988E-009  0.9118800E+02  0.7816531E-02  0.1126479E+00
         25   -1    0    0    0    0  0.00000000000E+00  0.00000000000E+00  0.99999998245E-14  0.12500000000E+03  0.12500000000E+03 0.  0.
    3000001    1    3    3    0    0 -0.79343144903E+01  0.53017973973E+01  0.33184234886E+01  0.10152553202E+02  0.10000000000E+01 0.  1.
    1000022    2    1    0    0    0 -0.32630723355E+02  0.47372500123E+02  0.22300943672E+02  0.62500000302E+02  0.10000003725E+02 0.  0.
    3000022    2    3    3    0    0 -0.24696408865E+02  0.42070702726E+02  0.18982520183E+02  0.52347447100E+02  0.25001340508E+00 0.  0.
    1000022    2    1    0    0    0  0.32630723355E+02 -0.47372500123E+02 -0.22300943672E+02  0.62499999698E+02  0.99999999472E+01 0.  0.
    3000022    2    5    5    0    0  0.79474070951E+01 -0.19873996977E+02 -0.74960956786E+01  0.22680189289E+02  0.25000076270E+00 0.  0.
        -13    1    4    4    0    0 -0.63191988390E+01  0.10716436450E+02  0.48240759332E+01  0.13343800724E+02  0.10500000000E+00 0.  1.
         13    1    4    4    0    0 -0.18377210026E+02  0.31354266276E+02  0.14158444250E+02  0.39003646376E+02  0.10500000000E+00 0. -1.
    3000001    1    5    5    0    0  0.24683316260E+02 -0.27498503146E+02 -0.14804847993E+02  0.39819810408E+02  0.10000000000E+01 0. -1.
        -13    1    6    6    0    0  0.52813902837E+01 -0.13132143907E+02 -0.50066209407E+01  0.15014112200E+02  0.10500000000E+00 0. -1.
         13    1    6    6    0    0  0.26660168114E+01 -0.67418530705E+01 -0.24894747379E+01  0.76660770889E+01  0.10500000000E+00 0.  1.
</event>
<event>
11    0  0.3482988E-009  0.9118800E+02  0.7816531E-02  0.1126479E+00
         25   -1    0    0    0    0  0.00000000000E+00  0.00000000000E+00  0.99999998245E-14  0.12500000000E+03  0.12500000000E+03 0.  0.
    3000001    1    3    3    0    0 -0.48028652687E+01  0.35103433234E+01  0.54918206056E+01  0.81578256050E+01  0.10000000000E+01 0.  1.
    1000022    2    1    0    0    0 -0.49085339388E+02  0.59959053977E+01  0.36890766431E+02  0.62499999187E+02  0.99999913117E+01 0.  0.
    3000022    2    3    3    0    0 -0.44282474119E+02  0.24855620743E+01  0.31398945825E+02  0.54342173582E+02  0.24999560754E+00 0.  0.
    1000022    2    1    0    0    0  0.49085339388E+02 -0.59959053977E+01 -0.36890766431E+02  0.62500000813E+02  0.10000001470E+02 0.  0.
    3000022    2    5    5    0    0  0.39238530534E+02 -0.77400251990E+01 -0.26122144654E+02  0.47770275308E+02  0.24998618778E+00 0.  0.
        -13    1    4    4    0    0 -0.31057053570E+02  0.17884983849E+01  0.22028557429E+02  0.38118337717E+02  0.10500000000E+00 0. -1.
         13    1    4    4    0    0 -0.13225420549E+02  0.69706368936E+00  0.93703883961E+01  0.16223835865E+02  0.10500000000E+00 0.  1.
    3000001    1    5    5    0    0  0.98468088534E+01  0.17441198013E+01 -0.10768621777E+02  0.14729725505E+02  0.10000000000E+01 0. -1.
        -13    1    6    6    0    0  0.27167195110E+02 -0.53108113464E+01 -0.18069880715E+02  0.33057417040E+02  0.10500000000E+00 0.  1.
         13    1    6    6    0    0  0.12071335425E+02 -0.24292138527E+01 -0.80522639393E+01  0.14712858268E+02  0.10500000000E+00 0. -1.
</event>
<event>
11    0  0.3482988E-009  0.9118800E+02  0.7816531E-02  0.1126479E+00
         25   -1    0    0    0    0  0.00000000000E+00  0.00000000000E+00  0.99999998245E-14  0.12500000000E+03  0.12500000000E+03 0.  0.
    3000001    1    3    3    0    0 -0.40792028492E+02  0.27113445607E+02 -0.28189678185E+02  0.56522442245E+02  0.10000000000E+01 0.  1.
    1000022    2    1    0    0    0 -0.45876382853E+02  0.26854181196E+02 -0.31312307279E+02  0.62499999547E+02  0.99999902437E+01 0.  0.
    3000022    2    3    3    0    0 -0.50843543611E+01 -0.25926441110E+00 -0.31226290934E+01  0.59775573017E+01  0.25000307310E+00 0.  0.
    1000022    2    1    0    0    0  0.45876382853E+02 -0.26854181196E+02  0.31312307279E+02  0.62500000453E+02  0.99999959057E+01 0.  0.
    3000022    2    5    5    0    0  0.19105081447E+02 -0.16541962545E+02  0.12660113547E+02  0.28266263241E+02  0.25000131899E+00 0.  0.
        -13    1    4    4    0    0 -0.37439459906E+01 -0.19750634769E+00 -0.22594380638E+01  0.43786100194E+01  0.10500000000E+00 0.  1.
         13    1    4    4    0    0 -0.13404083705E+01 -0.61758063410E-01 -0.86319102959E+00  0.15989472823E+01  0.10500000000E+00 0. -1.
    3000001    1    5    5    0    0  0.26771301406E+02 -0.10312218651E+02  0.18652193732E+02  0.34233737212E+02  0.10000000000E+01 0.  1.
        -13    1    6    6    0    0  0.93851013589E+01 -0.82154503978E+01  0.62540410428E+01  0.13953415608E+02  0.10500000000E+00 0.  1.
         13    1    6    6    0    0  0.97199800879E+01 -0.83265121473E+01  0.64060725042E+01  0.14312847633E+02  0.10500000000E+00 0. -1.
</event>
<event>
11    0  0.3482988E-009  0.9118800E+02  0.7816531E-02  0.1126479E+00
         25   -1    0    0    0    0  0.00000000000E+00  0.00000000000E+00  0.99999998245E-14  0.12500000000E+03  0.12500000000E+03 0.  0.
    3000001    1    3    3    0    0  0.32470779514E+01  0.16561793218E+01 -0.25216926600E+00  0.37881439395E+01  0.10000000000E+01 0. -1.
    1000022    2    1    0    0    0  0.30145496224E+02  0.50571539850E+02 -0.18439587182E+02  0.62500000231E+02  0.10000003404E+02 0.  0.
    3000022    2    3    3    0    0  0.26898418273E+02  0.48915360528E+02 -0.18187417916E+02  0.58711856292E+02  0.24999520723E+00 0.  0.
    1000022    2    1    0    0    0 -0.30145496224E+02 -0.50571539850E+02  0.18439587182E+02  0.62499999769E+02  0.10000000512E+02 0.  0.
    3000022    2    5    5    0    0 -0.10502641966E+02 -0.25852340926E+02  0.59584952937E+01  0.28534455852E+02  0.24996993828E+00 0.  0.
        -13    1    4    4    0    0  0.16157872414E+02  0.29463817927E+02 -0.11000141568E+02  0.35358274100E+02  0.10500000000E+00 0. -1.
         13    1    4    4    0    0  0.10740545858E+02  0.19451542601E+02 -0.71872763484E+01  0.23353582192E+02  0.10500000000E+00 0.  1.
    3000001    1    5    5    0    0 -0.19642854258E+02 -0.24719198923E+02  0.12481091888E+02  0.33965543916E+02  0.10000000000E+01 0.  1.
        -13    1    6    6    0    0 -0.80079473172E+01 -0.19750735982E+02  0.45566244091E+01  0.21794325938E+02  0.10500000000E+00 0. -1.
         13    1    6    6    0    0 -0.24946946490E+01 -0.61016049442E+01  0.14018708845E+01  0.67401299145E+01  0.10500000000E+00 0.  1.
</event>
<event>
11    0  0.3482988E-009  0.9118800E+02  0.7816531E-02  0.1126479E+00
         25   -1    0    0    0    0  0.00000000000E+00  0.00000000000E+00  0.99999998245E-14  0.12500000000E+03  0.12500000000E+03 0.  0.
    3000001    1    3    3    0    0  0.19668020644E+02 -0.23198745761E+01  0.28745289094E+02  0.34921404600E+02  0.10000000000E+01 0. -1.
    1000022    2    1    0    0    0  0.36408498923E+02  0.43704489868E+01  0.49614219916E+02  0.62499997847E+02  0.99999647413E+01 0.  0.
    3000022    2    3    3    0    0  0.16740478279E+02  0.66903235629E+01  0.20868930822E+02  0.27578593248E+02  0.24997894634E+00 0.  0.
    1000022    2    1    0    0    0 -0.36408498923E+02 -0.43704489868E+01 -0.49614219916E+02  0.62500002153E+02  0.99999916522E+01 0.  0.
    3000022    2    5    5    0    0 -0.60050498792E+01 -0.39605778502E+01 -0.13331517053E+02  0.15150532935E+02  0.25000067015E+00 0.  0.
        -13    1    4    4    0    0  0.89990575517E+01  0.35349545163E+01  0.11245916225E+02  0.14831068639E+02  0.10500000000E+00 0. -1.
         13    1    4    4    0    0  0.77414207274E+01  0.31553690466E+01  0.96230145972E+01  0.12747524608E+02  0.10500000000E+00 0.  1.
    3000001    1    5    5    0    0 -0.30403449044E+02 -0.40987113662E+00 -0.36282702863E+02  0.47349469217E+02  0.10000000000E+01 0. -1.
        -13    1    6    6    0    0 -0.20750369890E+01 -0.13524379439E+01 -0.44792688743E+01  0.51195450526E+01  0.10500000000E+00 0.  1.
         13    1    6    6    0    0 -0.39300128902E+01 -0.26081399063E+01 -0.88522481786E+01  0.10030987883E+02  0.10500000000E+00 0. -1.
</event>
<event>
11    0  0.3482988E-009  0.9118800E+02  0.7816531E-02  0.1126479E+00
         25   -1    0    0    0    0  0.00000000000E+00  0.00000000000E+00  0.99999998245E-14  0.12500000000E+03  0.12500000000E+03 0.  0.
    3000001    1    3    3    0    0  0.76590688767E+01 -0.65424336838E+01 -0.23631117985E+02  0.25707868674E+02  0.10000000000E+01 0.  1.
    1000022    2    1    0    0    0  0.13748990435E+02 -0.26149278386E+02 -0.54161154612E+02  0.62500002910E+02  0.10000009838E+02 0.  0.
    3000022    2    3    3    0    0  0.60899215585E+01 -0.19606844702E+02 -0.30530036627E+02  0.36792134236E+02  0.25000280502E+00 0.  0.
    1000022    2    1    0    0    0 -0.13748990435E+02  0.26149278386E+02  0.54161154612E+02  0.62499997090E+02  0.99999734647E+01 0.  0.
    3000022    2    5    5    0    0  0.65790495835E+00  0.36806751706E+01  0.30538408661E+01  0.48341121700E+01  0.24997558000E+00 0.  0.
        -13    1    4    4    0    0  0.30670721792E+01 -0.96875512244E+01 -0.15180106561E+02  0.18267518734E+02  0.10500000000E+00 0. -1.
         13    1    4    4    0    0  0.30228493792E+01 -0.99192934778E+01 -0.15349930066E+02  0.18524615502E+02  0.10500000000E+00 0.  1.
    3000001    1    5    5    0    0 -0.14406895393E+02  0.22468603215E+02  0.51107313746E+02  0.57665884920E+02  0.10000000000E+01 0. -1.
        -13    1    6    6    0    0  0.37635273514E+00  0.17572630722E+01  0.14303134399E+01  0.22992251787E+01  0.10500000000E+00 0. -1.
         13    1    6    6    0    0  0.28155222320E+00  0.19234120984E+01  0.16235274262E+01  0.25348869912E+01  0.10500000000E+00 0.  1.
</event>
<event>
11    0  0.3482988E-009  0.9118800E+02  0.7816531E-02  0.1126479E+00
         25   -1    0    0    0    0  0.00000000000E+00  0.00000000000E+00  0.99999998245E-14  0.12500000000E+03  0.12500000000E+03 0.  0.
    3000001    1    3    3    0    0 -0.13007409708E+02 -0.20989871877E+02 -0.12780500927E+02  0.27822807778E+02  0.10000000000E+01 0. -1.
    1000022    2    1    0    0    0 -0.22195812071E+02 -0.52978913073E+02 -0.22512904068E+02  0.62500000111E+02  0.99999930202E+01 0.  0.
    3000022    2    3    3    0    0 -0.91884023632E+01 -0.31989041197E+02 -0.97324031417E+01  0.34677192333E+02  0.25000510426E+00 0.  0.
    1000022    2    1    0    0    0  0.22195812071E+02  0.52978913073E+02  0.22512904068E+02  0.62499999889E+02  0.99999916297E+01 0.  0.
    3000022    2    5    5    0    0  0.28611537799E+01  0.18094253352E+02  0.86805607680E+01  0.20273204886E+02  0.24999149564E+00 0.  0.
        -13    1    4    4    0    0 -0.37150512640E+01 -0.13141375514E+02 -0.40231139816E+01  0.14237058243E+02  0.10500000000E+00 0. -1.
         13    1    4    4    0    0 -0.54733510992E+01 -0.18847665683E+02 -0.57092891601E+01  0.20440134091E+02  0.10500000000E+00 0.  1.
    3000001    1    5    5    0    0  0.19334658291E+02  0.34884659721E+02  0.13832343300E+02  0.42226795003E+02  0.10000000000E+01 0.  1.
        -13    1    6    6    0    0  0.80446246423E+00  0.48816142304E+01  0.23625805450E+01  0.54836237273E+01  0.10500000000E+00 0.  1.
         13    1    6    6    0    0  0.20566913157E+01  0.13212639122E+02  0.63179802230E+01  0.14789581158E+02  0.10500000000E+00 0. -1.
</event>
<event>
11    0  0.3482988E-009  0.9118800E+02  0.7816531E-02  0.1126479E+00
         25   -1    0    0    0    0  0.00000000000E+00  0.00000000000E+00  0.99999998245E-14  0.12500000000E+03  0.12500000000E+03 0.  0.
    3000001    1    3    3    0    0  0.26049467117E+02 -0.20226001305E+02 -0.24604876534E+01  0.33086551125E+02  0.10000000000E+01 0.  1.
    1000022    2    1    0    0    0  0.47048358065E+02 -0.39675000895E+02  0.43123641033E+01  0.62500000853E+02  0.99999964939E+01 0.  0.
    3000022    2    3    3    0    0  0.20998890948E+02 -0.19448999590E+02  0.67728517567E+01  0.29413449728E+02  0.24999578797E+00 0.  0.
    1000022    2    1    0    0    0 -0.47048358065E+02  0.39675000895E+02 -0.43123641033E+01  0.62499999147E+02  0.99999858256E+01 0.  0.
    3000022    2    5    5    0    0 -0.41317532004E+02  0.30136426114E+02 -0.43684448806E+01  0.51327268001E+02  0.24999993103E+00 0.  0.
        -13    1    4    4    0    0  0.99599056821E+01 -0.91773818713E+01  0.32642325420E+01  0.13931629420E+02  0.10500000000E+00 0.  1.
         13    1    4    4    0    0  0.11038985266E+02 -0.10271617718E+02  0.35086192147E+01  0.15481820308E+02  0.10500000000E+00 0. -1.
    3000001    1    5    5    0    0 -0.57308260616E+01  0.95385747810E+01  0.56080777281E-01  0.11172731146E+02  0.10000000000E+01 0.  1.
        -13    1    6    6    0    0 -0.20843254584E+02  0.15126030200E+02 -0.21722952540E+01  0.25845075796E+02  0.10500000000E+00 0. -1.
         13    1    6    6    0    0 -0.20474277420E+02  0.15010395915E+02 -0.21961496266E+01  0.25482192205E+02  0.10500000000E+00 0.  1.
</event>
<event>
11    0  0.3482988E-009  0.9118800E+02  0.7816531E-02  0.1126479E+00
         25   -1    0    0    0    0  0.00000000000E+00  0.00000000000E+00  0.99999998245E-14  0.12500000000E+03  0.12500000000E+03 0.  0.
    3000001    1    3    3    0    0  0.68037184482E+01 -0.22967007508E+02 -0.28605887282E+02  0.37323863758E+02  0.10000000000E+01 0.  1.
    1000022    2    1    0    0    0  0.18141190292E+02 -0.33923355894E+02 -0.48232284195E+02  0.62499999585E+02  0.99999924575E+01 0.  0.
    3000022    2    3    3    0    0  0.11337471844E+02 -0.10956348386E+02 -0.19626396913E+02  0.25176135828E+02  0.25004332160E+00 0.  0.
    1000022    2    1    0    0    0 -0.18141190292E+02  0.33923355894E+02  0.48232284195E+02  0.62500000415E+02  0.99999976409E+01 0.  0.
    3000022    2    5    5    0    0 -0.11499514903E+02  0.26177224882E+02  0.29116310641E+02  0.40808185310E+02  0.24999476831E+00 0.  0.
        -13    1    4    4    0    0  0.53698145769E+01 -0.52656104614E+01 -0.92987700475E+01  0.11959921050E+02  0.10500000000E+00 0. -1.
         13    1    4    4    0    0  0.59676572668E+01 -0.56907379248E+01 -0.10327626865E+02  0.13216214778E+02  0.10500000000E+00 0.  1.
    3000001    1    5    5    0    0 -0.66416753893E+01  0.77461310117E+01  0.19115973554E+02  0.21691815105E+02  0.10000000000E+01 0.  1.
        -13    1    6    6    0    0 -0.63814371458E+01  0.14566203942E+02  0.16286302306E+02  0.22762945880E+02  0.10500000000E+00 0.  1.
         13    1    6    6    0    0 -0.51180777568E+01  0.11611020940E+02  0.12830008335E+02  0.18045239430E+02  0.10500000000E+00 0. -1.
</event>
<event>
11    0  0.3482988E-009  0.9118800E+02  0.7816531E-02  0.1126479E+00
         25   -1    0    0    0    0  0.00000000000E+00  0.00000000000E+00  0.99999998245E-14  0.12500000000E+03  0.12500000000E+03 0.  0.
    3000001    1    3    3    0    0  0.11309090771E+02  0.32806676440E+02 -0.30959382389E+02  0.46515125615E+02  0.10000000000E+01 0.  1.
    1000022    2    1    0    0    0  0.11920691113E+02  0.47178923418E+02 -0.37924878979E+02  0.62499999292E+02  0.99999887215E+01 0.  0.
    3000022    2    3    3    0    0  0.61160034202E+00  0.14372246978E+02 -0.69654965903E+01  0.15984873677E+02  0.25001107232E+00 0.  0.
    1000022    2    1    0    0    0 -0.11920691113E+02 -0.47178923418E+02  0.37924878979E+02  0.62500000708E+02  0.99999975729E+01 0.  0.
    3000022    2    5    5    0    0 -0.86488530985E+01 -0.29899405822E+02  0.18208236988E+02  0.36060775610E+02  0.25003002331E+00 0.  0.
        -13    1    4    4    0    0  0.26420217007E+00  0.75363361735E+01 -0.36925103956E+01  0.83971318752E+01  0.10500000000E+00 0. -1.
         13    1    4    4    0    0  0.34739817194E+00  0.68359108046E+01 -0.32729861946E+01  0.75877418016E+01  0.10500000000E+00 0.  1.
    3000001    1    5    5    0    0 -0.32718380147E+01 -0.17279517596E+02  0.19716641992E+02  0.26439225098E+02  0.10000000000E+01 0. -1.
        -13    1    6    6    0    0 -0.46521671258E+01 -0.15905510220E+02  0.96412232460E+01  0.19172692169E+02  0.10500000000E+00 0. -1.
         13    1    6    6    0    0 -0.39966859727E+01 -0.13993895602E+02  0.85670137417E+01  0.16888083442E+02  0.10500000000E+00 0.  1.
</event>
<event>
11    0  0.3482988E-009  0.9118800E+02  0.7816531E-02  0.1126479E+00
         25   -1    0    0    0    0  0.00000000000E+00  0.00000000000E+00  0.99999998245E-14  0.12500000000E+03  0.12500000000E+03 0.  0.
    3000001    1    3    3    0    0 -0.42489468320E+02  0.30522570969E+02  0.81164910341E+00  0.52332026819E+02  0.10000000000E+01 0.  1.
    1000022    2    1    0    0    0 -0.51480578259E+02  0.33907276128E+02 -0.25093261724E+01  0.62499999337E+02  0.99999943514E+01 0.  0.
    3000022    2    3    3    0    0 -0.89911099391E+01  0.33847051582E+01 -0.33209752758E+01  0.10167972518E+02  0.25000281502E+00 0.  0.
    1000022    2    1    0    0    0  0.51480578259E+02 -0.33907276128E+02  0.25093261724E+01  0.62500000663E+02  0.10000002636E+02 0.  0.
    3000022    2    5    5    0    0  0.30580388415E+02 -0.14275520144E+02  0.18689759594E+01  0.33800979305E+02  0.24999962040E+00 0.  0.
        -13    1    4    4    0    0 -0.40211444555E+01  0.15826717999E+01 -0.14759522785E+01  0.45677032398E+01  0.10500000000E+00 0. -1.
         13    1    4    4    0    0 -0.49699654836E+01  0.18020333583E+01 -0.18450229973E+01  0.56002692786E+01  0.10500000000E+00 0.  1.
    3000001    1    5    5    0    0  0.20900189844E+02 -0.19631755984E+02  0.64035021296E+00  0.28699021358E+02  0.10000000000E+01 0.  1.
        -13    1    6    6    0    0  0.12840526579E+02 -0.60110954242E+01  0.72209634816E+00  0.14196648871E+02  0.10500000000E+00 0. -1.
         13    1    6    6    0    0  0.17739861836E+02 -0.82644247193E+01  0.11468796112E+01  0.19604330434E+02  0.10500000000E+00 0.  1.
</event>
<event>
11    0  0.3482988E-009  0.9118800E+02  0.7816531E-02  0.1126479E+00
         25   -1    0    0    0    0  0.00000000000E+00  0.00000000000E+00  0.99999998245E-14  0.12500000000E+03  0.12500000000E+03 0.  0.
    3000001    1    3    3    0    0  0.19115789070E+01  0.11295737505E+01 -0.49624543955E+02  0.49684257401E+02  0.10000000000E+01 0.  1.
    1000022    2    1    0    0    0  0.62038815755E+01 -0.17126457122E+01 -0.61358199721E+02  0.62499999994E+02  0.10000001212E+02 0.  0.
    3000022    2    3    3    0    0  0.42923026686E+01 -0.28422194628E+01 -0.11733655767E+02  0.12815742593E+02  0.25001376245E+00 0.  0.
    1000022    2    1    0    0    0 -0.62038815755E+01  0.17126457122E+01  0.61358199721E+02  0.62500000006E+02  0.10000001290E+02 0.  0.
    3000022    2    5    5    0    0 -0.87156949723E+01  0.14489023293E+01  0.52357464335E+02  0.53098297787E+02  0.24999908123E+00 0.  0.
        -13    1    4    4    0    0  0.30275231639E+01 -0.20242079018E+01 -0.83961285876E+01  0.91525578063E+01  0.10500000000E+00 0. -1.
         13    1    4    4    0    0  0.12647795047E+01 -0.81801156100E+00 -0.33375271791E+01  0.36631847866E+01  0.10500000000E+00 0.  1.
    3000001    1    5    5    0    0  0.25118133968E+01  0.26374338290E+00  0.90007353867E+01  0.94017022190E+01  0.10000000000E+01 0. -1.
        -13    1    6    6    0    0 -0.35066989993E+01  0.63797992905E+00  0.20926630908E+02  0.21228256226E+02  0.10500000000E+00 0. -1.
         13    1    6    6    0    0 -0.52089959731E+01  0.81092240028E+00  0.31430833427E+02  0.31870041561E+02  0.10500000000E+00 0.  1.
</event>
<event>
11    0  0.3482988E-009  0.9118800E+02  0.7816531E-02  0.1126479E+00
         25   -1    0    0    0    0  0.00000000000E+00  0.00000000000E+00  0.99999998245E-14  0.12500000000E+03  0.12500000000E+03 0.  0.
    3000001    1    3    3    0    0  0.14632230205E+02 -0.14658003663E+02  0.59381319918E+01  0.21568974100E+02  0.10000000000E+01 0. -1.
    1000022    2    1    0    0    0  0.36738176777E+02 -0.39987539345E+02  0.29283988427E+02  0.62500010789E+02  0.10000121733E+02 0.  0.
    3000022    2    3    3    0    0  0.22105946572E+02 -0.25329535683E+02  0.23345856435E+02  0.40931036689E+02  0.25000013345E+00 0.  0.
    1000022    2    1    0    0    0 -0.36738176777E+02  0.39987539345E+02 -0.29283988427E+02  0.62499989211E+02  0.99999868695E+01 0.  0.
    3000022    2    5    5    0    0 -0.18629172627E+01  0.60122947691E+01 -0.52140550986E+01  0.81772254684E+01  0.24999334164E+00 0.  0.
        -13    1    4    4    0    0  0.14895654433E+02 -0.17135842876E+02  0.15734837736E+02  0.27624514034E+02  0.10500000000E+00 0.  1.
         13    1    4    4    0    0  0.72102921386E+01 -0.81936928066E+01  0.76110186986E+01  0.13306522655E+02  0.10500000000E+00 0. -1.
    3000001    1    5    5    0    0 -0.34875259514E+02  0.33975244576E+02 -0.24069933328E+02  0.54322763742E+02  0.10000000000E+01 0.  1.
        -13    1    6    6    0    0 -0.74281689277E+00  0.25180465974E+01 -0.22450690334E+01  0.34559652151E+01  0.10500000000E+00 0. -1.
         13    1    6    6    0    0 -0.11201003700E+01  0.34942481717E+01 -0.29689860652E+01  0.47212602534E+01  0.10500000000E+00 0.  1.
</event>
<event>
11    0  0.3482988E-009  0.9118800E+02  0.7816531E-02  0.1126479E+00
         25   -1    0    0    0    0  0.00000000000E+00  0.00000000000E+00  0.99999998245E-14  0.12500000000E+03  0.12500000000E+03 0.  0.
    3000001    1    3    3    0    0 -0.65899771532E+01 -0.12248078536E+02 -0.47576609230E+02  0.49577988791E+02  0.10000000000E+01 0.  1.
    1000022    2    1    0    0    0 -0.12795308081E+02 -0.16702661248E+02 -0.57996130961E+02  0.62500000193E+02  0.10000000802E+02 0.  0.
    3000022    2    3    3    0    0 -0.62053309280E+01 -0.44545827113E+01 -0.10419521731E+02  0.12922011402E+02  0.25001304578E+00 0.  0.
    1000022    2    1    0    0    0  0.12795308081E+02  0.16702661248E+02  0.57996130961E+02  0.62499999807E+02  0.99999983857E+01 0.  0.
    3000022    2    5    5    0    0  0.77203083722E+01  0.11655112102E+02  0.24283121618E+02  0.28021015289E+02  0.25000562696E+00 0.  0.
        -13    1    4    4    0    0 -0.17539456284E+01 -0.12419786091E+01 -0.29976969988E+01  0.36899930121E+01  0.10500000000E+00 0.  1.
         13    1    4    4    0    0 -0.44513852996E+01 -0.32126041023E+01 -0.74218247323E+01  0.92320183904E+01  0.10500000000E+00 0. -1.
    3000001    1    5    5    0    0  0.50749997090E+01  0.50475491455E+01  0.33713009343E+02  0.34478984518E+02  0.10000000000E+01 0. -1.
        -13    1    6    6    0    0  0.56053722367E+01  0.84036191072E+01  0.17587099879E+02  0.20281965367E+02  0.10500000000E+00 0.  1.
         13    1    6    6    0    0  0.21149361355E+01  0.32514929950E+01  0.66960217399E+01  0.77390499220E+01  0.10500000000E+00 0. -1.
</event>
<event>
11    0  0.3482988E-009  0.9118800E+02  0.7816531E-02  0.1126479E+00
         25   -1    0    0    0    0  0.00000000000E+00  0.00000000000E+00  0.99999998245E-14  0.12500000000E+03  0.12500000000E+03 0.  0.
    3000001    1    3    3    0    0  0.74426368076E+01  0.29552648383E+02 -0.22269475093E+02  0.37758196329E+02  0.10000000000E+01 0.  1.
    1000022    2    1    0    0    0  0.19647172171E+02  0.45672044780E+02 -0.36528113124E+02  0.62500000283E+02  0.99999969115E+01 0.  0.
    3000022    2    3    3    0    0  0.12204535363E+02  0.16119396397E+02 -0.14258638030E+02  0.24741803954E+02  0.24996148859E+00 0.  0.
    1000022    2    1    0    0    0 -0.19647172171E+02 -0.45672044780E+02  0.36528113124E+02  0.62499999717E+02  0.99999933782E+01 0.  0.
    3000022    2    5    5    0    0 -0.19343358773E+02 -0.35077336383E+02  0.28344144913E+02  0.49071765125E+02  0.25005049156E+00 0.  0.
        -13    1    4    4    0    0  0.90065867186E+01  0.11879009809E+02 -0.10550817746E+02  0.18263632127E+02  0.10500000000E+00 0. -1.
         13    1    4    4    0    0  0.31979486447E+01  0.42403865879E+01 -0.37078202843E+01  0.64781718262E+01  0.10500000000E+00 0.  1.
    3000001    1    5    5    0    0 -0.30381339786E+00 -0.10594708397E+02  0.81839682102E+01  0.13428234592E+02  0.10000000000E+01 0. -1.
        -13    1    6    6    0    0 -0.14480220888E+02 -0.26254789245E+02  0.21182167002E+02  0.36710842801E+02  0.10500000000E+00 0.  1.
         13    1    6    6    0    0 -0.48631378854E+01 -0.88225471381E+01  0.71619779110E+01  0.12360922324E+02  0.10500000000E+00 0. -1.
</event>
<event>
11    0  0.3482988E-009  0.9118800E+02  0.7816531E-02  0.1126479E+00
         25   -1    0    0    0    0  0.00000000000E+00  0.00000000000E+00  0.99999998245E-14  0.12500000000E+03  0.12500000000E+03 0.  0.
    3000001    1    3    3    0    0 -0.41836667170E+01 -0.17596132985E+01  0.28967880811E+02  0.29338326892E+02  0.10000000000E+01 0. -1.
    1000022    2    1    0    0    0 -0.17434491379E+02 -0.89938132742E+01  0.58492725798E+02  0.62500006384E+02  0.10000082997E+02 0.  0.
    3000022    2    3    3    0    0 -0.13250824662E+02 -0.72341999758E+01  0.29524844987E+02  0.33161679492E+02  0.25002347583E+00 0.  0.
    1000022    2    1    0    0    0  0.17434491379E+02  0.89938132742E+01 -0.58492725798E+02  0.62499993616E+02  0.10000003195E+02 0.  0.
    3000022    2    5    5    0    0  0.56152304038E+01  0.63869691914E+00 -0.29970174871E+02  0.30499387205E+02  0.24998366445E+00 0.  0.
        -13    1    4    4    0    0 -0.88273342249E+01 -0.48743637964E+01  0.19669914753E+02  0.22104248988E+02  0.10500000000E+00 0.  1.
         13    1    4    4    0    0 -0.44234904371E+01 -0.23598361793E+01  0.98549302342E+01  0.11057430504E+02  0.10500000000E+00 0. -1.
    3000001    1    5    5    0    0  0.11819260975E+02  0.83551163551E+01 -0.28522550926E+02  0.32000606410E+02  0.10000000000E+01 0. -1.
        -13    1    6    6    0    0  0.21067389590E+01  0.30037440440E+00 -0.11295819784E+02  0.11495005150E+02  0.10500000000E+00 0.  1.
         13    1    6    6    0    0  0.35084914448E+01  0.33832251474E+00 -0.18674355088E+02  0.19004382055E+02  0.10500000000E+00 0. -1.
</event>
<event>
11    0  0.3482988E-009  0.9118800E+02  0.7816531E-02  0.1126479E+00
         25   -1    0    0    0    0  0.00000000000E+00  0.00000000000E+00  0.99999998245E-14  0.12500000000E+03  0.12500000000E+03 0.  0.
    3000001    1    3    3    0    0 -0.17849331172E+02  0.21147751374E+02  0.13816246587E+02  0.30946965622E+02  0.10000000000E+01 0. -1.
    1000022    2    1    0    0    0 -0.36128747879E+02  0.46411557927E+02  0.18626081274E+02  0.62500000454E+02  0.10000001032E+02 0.  0.
    3000022    2    3    3    0    0 -0.18279416707E+02  0.25263806552E+02  0.48098346873E+01  0.31553034831E+02  0.25000141500E+00 0.  0.
    1000022    2    1    0    0    0  0.36128747879E+02 -0.46411557927E+02 -0.18626081274E+02  0.62499999546E+02  0.99999953576E+01 0.  0.
    3000022    2    5    5    0    0  0.31349980962E+02 -0.36960987024E+02 -0.18455638427E+02  0.51861439756E+02  0.24995153686E+00 0.  0.
        -13    1    4    4    0    0 -0.95076884574E+01  0.13048783606E+02  0.25318855387E+01  0.16342838272E+02  0.10500000000E+00 0. -1.
         13    1    4    4    0    0 -0.87717282492E+01  0.12215022946E+02  0.22779491485E+01  0.15210196560E+02  0.10500000000E+00 0.  1.
    3000001    1    5    5    0    0  0.47787669163E+01 -0.94505709030E+01 -0.17044284783E+00  0.10638559790E+02  0.10000000000E+01 0. -1.
        -13    1    6    6    0    0  0.17987452615E+02 -0.21297360755E+02 -0.10645905646E+02  0.29840783480E+02  0.10500000000E+00 0. -1.
         13    1    6    6    0    0  0.13362528347E+02 -0.15663626269E+02 -0.78097327807E+01  0.22020656276E+02  0.10500000000E+00 0.  1.
</event>
<event>
11    0  0.3482988E-009  0.9118800E+02  0.7816531E-02  0.1126479E+00
         25   -1    0    0    0    0  0.00000000000E+00  0.00000000000E+00  0.99999998245E-14  0.12500000000E+03  0.12500000000E+03 0.  0.
    3000001    1    3    3    0    0  0.29475308170E+02 -0.70853268133E+01 -0.38728379247E+02  0.49192306379E+02  0.10000000000E+01 0.  1.
    1000022    2    1    0    0    0  0.34750354961E+02 -0.13400459876E+02 -0.49184248283E+02  0.62500000337E+02  0.10000013407E+02 0.  0.
    3000022    2    3    3    0    0  0.52750467909E+01 -0.63151330623E+01 -0.10455869036E+02  0.13307693958E+02  0.24999388144E+00 0.  0.
    1000022    2    1    0    0    0 -0.34750354961E+02  0.13400459876E+02  0.49184248283E+02  0.62499999663E+02  0.10000009197E+02 0.  0.
    3000022    2    5    5    0    0 -0.21749119040E+02  0.12007880842E+02  0.26703920982E+02  0.36474309905E+02  0.25001177719E+00 0.  0.
        -13    1    4    4    0    0  0.17315293718E+01 -0.20767911385E+01 -0.35224512829E+01  0.44418400961E+01  0.10500000000E+00 0.  1.
         13    1    4    4    0    0  0.35435174191E+01 -0.42383419237E+01 -0.69334177535E+01  0.88658538622E+01  0.10500000000E+00 0. -1.
    3000001    1    5    5    0    0 -0.13001235921E+02  0.13925790335E+01  0.22480327301E+02  0.26025689758E+02  0.10000000000E+01 0. -1.
        -13    1    6    6    0    0 -0.15119543394E+02  0.83506897467E+01  0.18496035090E+02  0.25307092894E+02  0.10500000000E+00 0.  1.
         13    1    6    6    0    0 -0.66295756460E+01  0.36571910954E+01  0.82078858927E+01  0.11167217011E+02  0.10500000000E+00 0. -1.
</event>
<event>
11    0  0.3482988E-009  0.9118800E+02  0.7816531E-02  0.1126479E+00
         25   -1    0    0    0    0  0.00000000000E+00  0.00000000000E+00  0.99999998245E-14  0.12500000000E+03  0.12500000000E+03 0.  0.
    3000001    1    3    3    0    0 -0.21525697957E+01 -0.69859297960E+00 -0.54934131740E+01  0.60248798475E+01  0.10000000000E+01 0.  1.
    1000022    2    1    0    0    0 -0.89707095387E+01 -0.32412295214E+02 -0.51722523427E+02  0.62499998940E+02  0.99999963578E+01 0.  0.
    3000022    2    3    3    0    0 -0.68181397430E+01 -0.31713702234E+02 -0.46229110253E+02  0.56475119092E+02  0.25000548411E+00 0.  0.
    1000022    2    1    0    0    0  0.89707095387E+01  0.32412295214E+02  0.51722523427E+02  0.62500001060E+02  0.10000009612E+02 0.  0.
    3000022    2    5    5    0    0  0.79258472066E+01  0.29777618440E+02  0.40549861029E+02  0.50930141768E+02  0.24999425629E+00 0.  0.
        -13    1    4    4    0    0 -0.52553258856E+01 -0.24451242067E+02 -0.35646658345E+02  0.43545114134E+02  0.10500000000E+00 0. -1.
         13    1    4    4    0    0 -0.15628138573E+01 -0.72624601672E+01 -0.10582451908E+02  0.12930004958E+02  0.10500000000E+00 0.  1.
    3000001    1    5    5    0    0  0.10448623321E+01  0.26346767743E+01  0.11172662398E+02  0.11569859292E+02  0.10000000000E+01 0. -1.
        -13    1    6    6    0    0  0.44922958463E+01  0.17118575961E+02  0.23255780151E+02  0.29224453807E+02  0.10500000000E+00 0.  1.
         13    1    6    6    0    0  0.34335513602E+01  0.12659042479E+02  0.17294080878E+02  0.21705687961E+02  0.10500000000E+00 0. -1.
</event>
<event>
11    0  0.3482988E-009  0.9118800E+02  0.7816531E-02  0.1126479E+00
         25   -1    0    0    0    0  0.00000000000E+00  0.00000000000E+00  0.99999998245E-14  0.12500000000E+03  0.12500000000E+03 0.  0.
    3000001    1    3    3    0    0 -0.33311769705E+01  0.50391685695E+01 -0.15501146505E+02  0.16666598419E+02  0.10000000000E+01 0.  1.
    1000022    2    1    0    0    0 -0.11347206911E+02  0.28606047757E+01 -0.60574811590E+02  0.62499999552E+02  0.99999990247E+01 0.  0.
    3000022    2    3    3    0    0 -0.80160299404E+01 -0.21785637938E+01 -0.45073665085E+02  0.45833401133E+02  0.24999811051E+00 0.  0.
    1000022    2    1    0    0    0  0.11347206911E+02 -0.28606047757E+01  0.60574811590E+02  0.62500000448E+02  0.10000004623E+02 0.  0.
    3000022    2    5    5    0    0  0.35920465354E+00  0.22630573416E+01  0.38654356476E+01  0.45005053908E+01  0.24999902450E+00 0.  0.
        -13    1    4    4    0    0 -0.37796471115E+01 -0.97945904991E+00 -0.21457279713E+02  0.21809881935E+02  0.10500000000E+00 0.  1.
         13    1    4    4    0    0 -0.42363828289E+01 -0.11991047439E+01 -0.23616385372E+02  0.24023519199E+02  0.10500000000E+00 0. -1.
    3000001    1    5    5    0    0  0.10988002257E+02 -0.51236621173E+01  0.56709375942E+02  0.57999495057E+02  0.10000000000E+01 0.  1.
        -13    1    6    6    0    0  0.19332306937E+00  0.11115213537E+01  0.17750631283E+01  0.21058793029E+01  0.10500000000E+00 0.  1.
         13    1    6    6    0    0  0.16588158417E+00  0.11515359879E+01  0.20903725194E+01  0.23946260880E+01  0.10500000000E+00 0. -1.
</event>
<event>
11    0  0.3482988E-009  0.9118800E+02  0.7816531E-02  0.1126479E+00
         25   -1    0    0    0    0  0.00000000000E+00  0.00000000000E+00  0.99999998245E-14  0.12500000000E+03  0.12500000000E+03 0.  0.
    3000001    1    3    3    0    0 -0.48771021397E+01  0.71937202996E+00 -0.29835070313E+02  0.30256157092E+02  0.10000000000E+01 0. -1.
    1000022    2    1    0    0    0 -0.18171374262E+02 -0.40613472262E+01 -0.58817997194E+02  0.62500001711E+02  0.10000001803E+02 0.  0.
    3000022    2    3    3    0    0 -0.13294272123E+02 -0.47807192562E+01 -0.28982926881E+02  0.32243844619E+02  0.25003464640E+00 0.  0.
    1000022    2    1    0    0    0  0.18171374262E+02  0.40613472262E+01  0.58817997194E+02  0.62499998289E+02  0.99999804181E+01 0.  0.
    3000022    2    5    5    0    0  0.91381380428E+01  0.70332638133E+01  0.34038499284E+02  0.35939592391E+02  0.25000195443E+00 0.  0.
        -13    1    4    4    0    0 -0.89960327963E+01 -0.32014334915E+01 -0.19680661541E+02  0.21875037055E+02  0.10500000000E+00 0.  1.
         13    1    4    4    0    0 -0.42982393265E+01 -0.15792857646E+01 -0.93022653401E+01  0.10368807564E+02  0.10500000000E+00 0. -1.
    3000001    1    5    5    0    0  0.90332362197E+01 -0.29719165870E+01  0.24779497910E+02  0.26560405898E+02  0.10000000000E+01 0.  1.
        -13    1    6    6    0    0  0.56046914217E+01  0.42565864297E+01  0.20640349783E+02  0.21807479408E+02  0.10500000000E+00 0. -1.
         13    1    6    6    0    0  0.35334466211E+01  0.27766773836E+01  0.13398149501E+02  0.14132112983E+02  0.10500000000E+00 0.  1.
</event>
<event>
11    0  0.3482988E-009  0.9118800E+02  0.7816531E-02  0.1126479E+00
         25   -1    0    0    0    0  0.00000000000E+00  0.00000000000E+00  0.99999998245E-14  0.12500000000E+03  0.12500000000E+03 0.  0.
    3000001    1    3    3    0    0  0.13100205002E+02 -0.22075229775E+01  0.18377232514E+01  0.13448633966E+02  0.10000000000E+01 0.  1.
    1000022    2    1    0    0    0  0.53984226192E+02 -0.17231002535E+02  0.24393565281E+02  0.62500001339E+02  0.10000000719E+02 0.  0.
    3000022    2    3    3    0    0  0.40884021190E+02 -0.15023479558E+02  0.22555842029E+02  0.49051367374E+02  0.25000976191E+00 0.  0.
    1000022    2    1    0    0    0 -0.53984226192E+02  0.17231002535E+02 -0.24393565281E+02  0.62499998661E+02  0.99999839756E+01 0.  0.
    3000022    2    5    5    0    0 -0.28847762787E+02  0.10229809294E+02 -0.78899921768E+01  0.31609443073E+02  0.24999762369E+00 0.  0.
        -13    1    4    4    0    0  0.26255922953E+02 -0.96879464836E+01  0.14542033139E+02  0.31539048020E+02  0.10500000000E+00 0. -1.
         13    1    4    4    0    0  0.14628098237E+02 -0.53355330740E+01  0.80138088897E+01  0.17512319353E+02  0.10500000000E+00 0.  1.
    3000001    1    5    5    0    0 -0.25136463405E+02  0.70011932413E+01 -0.16503573104E+02  0.30890555588E+02  0.10000000000E+01 0.  1.
        -13    1    6    6    0    0 -0.10796958728E+02  0.38547411032E+01 -0.28986072005E+01  0.11825662579E+02  0.10500000000E+00 0. -1.
         13    1    6    6    0    0 -0.18050804060E+02  0.63750681907E+01 -0.49913849763E+01  0.19783780493E+02  0.10500000000E+00 0.  1.
</event>
<event>
11    0  0.3482988E-009  0.9118800E+02  0.7816531E-02  0.1126479E+00
         25   -1    0    0    0    0  0.00000000000E+00  0.00000000000E+00  0.99999998245E-14  0.12500000000E+03  0.12500000000E+03 0.  0.
    3000001    1    3    3    0    0  0.13781383696E+02  0.93329020463E+00  0.17185369347E+02  0.22071123369E+02  0.10000000000E+01 0. -1.
    1000022    2    1    0    0    0  0.43619853890E+02 -0.84213930107E+01  0.42809326152E+02  0.62499999986E+02  0.10000003952E+02 0.  0.
    3000022    2    3    3    0    0  0.29838470195E+02 -0.93546832153E+01  0.25623956805E+02  0.40428876617E+02  0.25000113931E+00 0.  0.
    1000022    2    1    0    0    0 -0.43619853890E+02  0.84213930107E+01 -0.42809326152E+02  0.62500000014E+02  0.10000004121E+02 0.  0.
    3000022    2    5    5    0    0 -0.22085507666E+02  0.93731162687E+00 -0.26172974960E+02  0.34259820792E+02  0.25000099925E+00 0.  0.
        -13    1    4    4    0    0  0.15969755399E+02 -0.50336495935E+01  0.13800989578E+02  0.21699056525E+02  0.10500000000E+00 0. -1.
         13    1    4    4    0    0  0.13868714796E+02 -0.43210336218E+01  0.11822967227E+02  0.18729820093E+02  0.10500000000E+00 0.  1.
    3000001    1    5    5    0    0 -0.21534346224E+02  0.74840813838E+01 -0.16636351193E+02  0.28240179222E+02  0.10000000000E+01 0. -1.
        -13    1    6    6    0    0 -0.64198976806E+01  0.27480627918E+00 -0.76756546349E+01  0.10010859294E+02  0.10500000000E+00 0. -1.
         13    1    6    6    0    0 -0.15665609985E+02  0.66250534769E+00 -0.18497320325E+02  0.24248961498E+02  0.10500000000E+00 0.  1.
</event>
<event>
11    0  0.3482988E-009  0.9118800E+02  0.7816531E-02  0.1126479E+00
         25   -1    0    0    0    0  0.00000000000E+00  0.00000000000E+00  0.99999998245E-14  0.12500000000E+03  0.12500000000E+03 0.  0.
    3000001    1    3    3    0    0 -0.30290655915E+02  0.24761614437E+02 -0.51883346267E+01  0.39478857652E+02  0.10000000000E+01 0. -1.
    1000022    2    1    0    0    0 -0.50026069413E+02  0.36068623886E+02 -0.16421451071E+01  0.62499999465E+02  0.10000002126E+02 0.  0.
    3000022    2    3    3    0    0 -0.19735413499E+02  0.11307009449E+02  0.35461895196E+01  0.23021141813E+02  0.25000324057E+00 0.  0.
    1000022    2    1    0    0    0  0.50026069413E+02 -0.36068623886E+02  0.16421451071E+01  0.62500000535E+02  0.10000008819E+02 0.  0.
    3000022    2    5    5    0    0  0.14240699693E+01  0.60913054496E+00 -0.15653067224E+00  0.15767106158E+01  0.24999843273E+00 0.  0.
        -13    1    4    4    0    0 -0.47002721626E+01  0.26875726910E+01  0.86152407871E+00  0.54835074642E+01  0.10500000000E+00 0.  1.
         13    1    4    4    0    0 -0.15035141336E+02  0.86194367580E+01  0.26846654409E+01  0.17537634349E+02  0.10500000000E+00 0. -1.
    3000001    1    5    5    0    0  0.48601999444E+02 -0.36677754431E+02  0.17986757794E+01  0.60923289920E+02  0.10000000000E+01 0.  1.
        -13    1    6    6    0    0  0.48999969812E+00  0.20630024598E+00 -0.11025138182E+00  0.55302790422E+00  0.10500000000E+00 0. -1.
         13    1    6    6    0    0  0.93407027117E+00  0.40283029897E+00 -0.46279290418E-01  0.10236827116E+01  0.10500000000E+00 0.  1.
</event>
<event>
11    0  0.3482988E-009  0.9118800E+02  0.7816531E-02  0.1126479E+00
         25   -1    0    0    0    0  0.00000000000E+00  0.00000000000E+00  0.99999998245E-14  0.12500000000E+03  0.12500000000E+03 0.  0.
    3000001    1    3    3    0    0 -0.16733269896E+01 -0.74707291964E+01 -0.16756035396E+02  0.18449296467E+02  0.10000000000E+01 0. -1.
    1000022    2    1    0    0    0  0.62161791282E+01 -0.16184774432E+02 -0.59208633533E+02  0.62499999991E+02  0.99999953811E+01 0.  0.
    3000022    2    3    3    0    0  0.78895061178E+01 -0.87140452351E+01 -0.42452598137E+02  0.44050703524E+02  0.25000236767E+00 0.  0.
    1000022    2    1    0    0    0 -0.62161791282E+01  0.16184774432E+02  0.59208633533E+02  0.62500000009E+02  0.99999954986E+01 0.  0.
    3000022    2    5    5    0    0 -0.21157331790E+01  0.15434076142E+02  0.43060509724E+02  0.45792543367E+02  0.24999419775E+00 0.  0.
        -13    1    4    4    0    0  0.43743149107E+01 -0.47331415880E+01 -0.23310783688E+02  0.24185551914E+02  0.10500000000E+00 0. -1.
         13    1    4    4    0    0  0.35151912070E+01 -0.39809036471E+01 -0.19141814449E+02  0.19865151610E+02  0.10500000000E+00 0.  1.
    3000001    1    5    5    0    0 -0.41004459492E+01  0.75069828981E+00  0.16148123809E+02  0.16707456642E+02  0.10000000000E+01 0. -1.
        -13    1    6    6    0    0 -0.12945119717E+01  0.91053508859E+01  0.25289138901E+02  0.26909751901E+02  0.10500000000E+00 0. -1.
         13    1    6    6    0    0 -0.82122120733E+00  0.63287252558E+01  0.17771370823E+02  0.18882791466E+02  0.10500000000E+00 0.  1.
</event>
<event>
11    0  0.3482988E-009  0.9118800E+02  0.7816531E-02  0.1126479E+00
         25   -1    0    0    0    0  0.00000000000E+00  0.00000000000E+00  0.99999998245E-14  0.12500000000E+03  0.12500000000E+03 0.  0.
    3000001    1    3    3    0    0  0.18559663504E+01 -0.71742298575E+01 -0.15781597761E+02  0.17463476545E+02  0.10000000000E+01 0. -1.
    1000022    2    1    0    0    0 -0.89348832920E+01 -0.23270567735E+02 -0.56434905064E+02  0.62499999781E+02  0.10000000045E+02 0.  0.
    3000022    2    3    3    0    0 -0.10790849642E+02 -0.16096337878E+02 -0.40653307303E+02  0.45036523236E+02  0.25000292267E+00 0.  0.
    1000022    2    1    0    0    0  0.89348832920E+01  0.23270567735E+02  0.56434905064E+02  0.62500000219E+02  0.10000002778E+02 0.  0.
    3000022    2    5    5    0    0  0.80616224766E+01  0.15777960996E+02  0.28607136293E+02  0.33650624922E+02  0.25000128486E+00 0.  0.
        -13    1    4    4    0    0 -0.52222844670E+01 -0.79098176953E+01 -0.19910309111E+02  0.22051505729E+02  0.10500000000E+00 0.  1.
         13    1    4    4    0    0 -0.55685651755E+01 -0.81865201827E+01 -0.20742998192E+02  0.22985017507E+02  0.10500000000E+00 0. -1.
    3000001    1    5    5    0    0  0.87326081543E+00  0.74926067398E+01  0.27827768771E+02  0.28849375296E+02  0.10000000000E+01 0.  1.
        -13    1    6    6    0    0  0.53012208508E+01  0.10458236153E+02  0.19004513577E+02  0.22330701002E+02  0.10500000000E+00 0. -1.
         13    1    6    6    0    0  0.27604016258E+01  0.53197248430E+01  0.96026227157E+01  0.11319923920E+02  0.10500000000E+00 0.  1.
</event>
<event>
11    0  0.3482988E-009  0.9118800E+02  0.7816531E-02  0.1126479E+00
         25   -1    0    0    0    0  0.00000000000E+00  0.00000000000E+00  0.99999998245E-14  0.12500000000E+03  0.12500000000E+03 0.  0.
    3000001    1    3    3    0    0  0.25486954414E+02  0.22346785809E+02 -0.26069922660E+02  0.42773876944E+02  0.10000000000E+01 0.  1.
    1000022    2    1    0    0    0  0.33588291261E+02  0.37671653543E+02 -0.35481308160E+02  0.62499999380E+02  0.99999951576E+01 0.  0.
    3000022    2    3    3    0    0  0.81013368474E+01  0.15324867734E+02 -0.94113854996E+01  0.19726122436E+02  0.24999907143E+00 0.  0.
    1000022    2    1    0    0    0 -0.33588291261E+02 -0.37671653543E+02  0.35481308160E+02  0.62500000620E+02  0.10000002913E+02 0.  0.
    3000022    2    5    5    0    0 -0.32023033271E+01 -0.57006871688E+01  0.87108896186E+01  0.10894707650E+02  0.24995207427E+00 0.  0.
        -13    1    4    4    0    0  0.46759485638E+01  0.89407640884E+01 -0.55309768045E+01  0.11506714860E+02  0.10500000000E+00 0. -1.
         13    1    4    4    0    0  0.34253882836E+01  0.63841036458E+01 -0.38804086951E+01  0.82194075757E+01  0.10500000000E+00 0.  1.
    3000001    1    5    5    0    0 -0.30385987934E+02 -0.31970966375E+02  0.26770418541E+02  0.51605292970E+02  0.10000000000E+01 0.  1.
        -13    1    6    6    0    0 -0.79840830498E+00 -0.14835186638E+01  0.22456744307E+01  0.28093348138E+01  0.10500000000E+00 0. -1.
         13    1    6    6    0    0 -0.24038950221E+01 -0.42171685050E+01  0.64652151878E+01  0.80853728363E+01  0.10500000000E+00 0.  1.
</event>
<event>
11    0  0.3482988E-009  0.9118800E+02  0.7816531E-02  0.1126479E+00
         25   -1    0    0    0    0  0.00000000000E+00  0.00000000000E+00  0.99999998245E-14  0.12500000000E+03  0.12500000000E+03 0.  0.
    3000001    1    3    3    0    0 -0.28723395587E+02  0.24804059501E+02 -0.46153671318E+02  0.59761494274E+02  0.10000000000E+01 0. -1.
    1000022    2    1    0    0    0 -0.31333207058E+02  0.24933262497E+02 -0.46934128373E+02  0.62500001442E+02  0.10000016541E+02 0.  0.
    3000022    2    3    3    0    0 -0.26098114708E+01  0.12920299620E+00 -0.78045705549E+00  0.27385071679E+01  0.24999793206E+00 0.  0.
    1000022    2    1    0    0    0  0.31333207058E+02 -0.24933262497E+02  0.46934128373E+02  0.62499998558E+02  0.99999985157E+01 0.  0.
    3000022    2    5    5    0    0  0.14768494009E+01 -0.41774009306E+01  0.25657982619E+01  0.51261665544E+01  0.25000026908E+00 0.  0.
        -13    1    4    4    0    0 -0.15186113731E+01  0.11588357185E+00 -0.50656566106E+00  0.16084909927E+01  0.10500000000E+00 0. -1.
         13    1    4    4    0    0 -0.10912000976E+01  0.13319424346E-01 -0.27389139443E+00  0.11300161752E+01  0.10500000000E+00 0.  1.
    3000001    1    5    5    0    0  0.29856357657E+02 -0.20755861566E+02  0.44368330112E+02  0.57373832004E+02  0.10000000000E+01 0. -1.
        -13    1    6    6    0    0  0.49034710208E+00 -0.13477174778E+01  0.77423945343E+00  0.16331731114E+01  0.10500000000E+00 0.  1.
         13    1    6    6    0    0  0.98650229881E+00 -0.28296834528E+01  0.17915588084E+01  0.34929934430E+01  0.10500000000E+00 0. -1.
</event>
<event>
11    0  0.3482988E-009  0.9118800E+02  0.7816531E-02  0.1126479E+00
         25   -1    0    0    0    0  0.00000000000E+00  0.00000000000E+00  0.99999998245E-14  0.12500000000E+03  0.12500000000E+03 0.  0.
    3000001    1    3    3    0    0 -0.46377184452E+02  0.36144518913E+01  0.20666321914E+02  0.50911731081E+02  0.10000000000E+01 0. -1.
    1000022    2    1    0    0    0 -0.56269508375E+02  0.88201343011E+01  0.23710707896E+02  0.62500000426E+02  0.10000002122E+02 0.  0.
    3000022    2    3    3    0    0 -0.98923239224E+01  0.52056824098E+01  0.30443859814E+01  0.11588269344E+02  0.24999691341E+00 0.  0.
    1000022    2    1    0    0    0  0.56269508375E+02 -0.88201343011E+01 -0.23710707896E+02  0.62499999574E+02  0.99999968017E+01 0.  0.
    3000022    2    5    5    0    0  0.62567305099E+01 -0.43054376564E+01 -0.29160584860E+01  0.81393715460E+01  0.25000396544E+00 0.  0.
        -13    1    4    4    0    0 -0.55724344851E+01  0.28778027413E+01  0.17546287655E+01  0.65133341549E+01  0.10500000000E+00 0.  1.
         13    1    4    4    0    0 -0.43198894373E+01  0.23278796685E+01  0.12897572159E+01  0.50749351895E+01  0.10500000000E+00 0. -1.
    3000001    1    5    5    0    0  0.50012777865E+02 -0.45146966447E+01 -0.20794649410E+02  0.54360628028E+02  0.10000000000E+01 0.  1.
        -13    1    6    6    0    0  0.47711375940E+01 -0.32656271688E+01 -0.22067908231E+01  0.61894285264E+01  0.10500000000E+00 0. -1.
         13    1    6    6    0    0  0.14855929160E+01 -0.10398104876E+01 -0.70926766295E+00  0.19499430196E+01  0.10500000000E+00 0.  1.
</event>
<event>
11    0  0.3482988E-009  0.9118800E+02  0.7816531E-02  0.1126479E+00
         25   -1    0    0    0    0  0.00000000000E+00  0.00000000000E+00  0.99999998245E-14  0.12500000000E+03  0.12500000000E+03 0.  0.
    3000001    1    3    3    0    0  0.10024544655E+02  0.38714640578E+01 -0.14244624143E+01  0.10886175759E+02  0.10000000000E+01 0.  1.
    1000022    2    1    0    0    0  0.56638332736E+02  0.74830086209E+01 -0.23288492045E+02  0.62499999326E+02  0.99999950440E+01 0.  0.
    3000022    2    3    3    0    0  0.46613788081E+02  0.36115445631E+01 -0.21864029631E+02  0.51613823567E+02  0.24999618370E+00 0.  0.
    1000022    2    1    0    0    0 -0.56638332736E+02 -0.74830086209E+01  0.23288492045E+02  0.62500000674E+02  0.10000003466E+02 0.  0.
    3000022    2    5    5    0    0 -0.22984402338E+02  0.10755277759E+00  0.13359687945E+02  0.26586426576E+02  0.24999534874E+00 0.  0.
        -13    1    4    4    0    0  0.33721430117E+02  0.25823814356E+01 -0.15842022880E+02  0.37346810532E+02  0.10500000000E+00 0.  1.
         13    1    4    4    0    0  0.12892357964E+02  0.10291631275E+01 -0.60220067505E+01  0.14267013034E+02  0.10500000000E+00 0. -1.
    3000001    1    5    5    0    0 -0.33653930398E+02 -0.75905613985E+01  0.99288041003E+01  0.35913574098E+02  0.10000000000E+01 0. -1.
        -13    1    6    6    0    0 -0.13611704376E+02  0.12727374538E+00  0.79059774476E+01  0.15741988407E+02  0.10500000000E+00 0. -1.
         13    1    6    6    0    0 -0.93726979622E+01 -0.19720967780E-01  0.54537104971E+01  0.10844438169E+02  0.10500000000E+00 0.  1.
</event>
<event>
11    0  0.3482988E-009  0.9118800E+02  0.7816531E-02  0.1126479E+00
         25   -1    0    0    0    0  0.00000000000E+00  0.00000000000E+00  0.99999998245E-14  0.12500000000E+03  0.12500000000E+03 0.  0.
    3000001    1    3    3    0    0 -0.15418100080E+02 -0.23477998325E+02  0.76656441036E+01  0.29132392880E+02  0.10000000000E+01 0.  1.
    1000022    2    1    0    0    0 -0.40505444750E+02 -0.45233175283E+02  0.10932469804E+02  0.62500000419E+02  0.99999977874E+01 0.  0.
    3000022    2    3    3    0    0 -0.25087344670E+02 -0.21755176959E+02  0.32668256999E+01  0.33367607539E+02  0.24999118694E+00 0.  0.
    1000022    2    1    0    0    0  0.40505444750E+02  0.45233175283E+02 -0.10932469804E+02  0.62499999581E+02  0.99999925504E+01 0.  0.
    3000022    2    5    5    0    0  0.97000624069E+01  0.66590582435E+01  0.64238520643E+00  0.11785984208E+02  0.24999523886E+00 0.  0.
        -13    1    4    4    0    0 -0.11249157301E+02 -0.97208286979E+01  0.14010261598E+01  0.14933584628E+02  0.10500000000E+00 0.  1.
         13    1    4    4    0    0 -0.13838187370E+02 -0.12034348261E+02  0.18657995402E+01  0.18434022911E+02  0.10500000000E+00 0. -1.
    3000001    1    5    5    0    0  0.30805382343E+02  0.38574117040E+02 -0.11574855010E+02  0.50714015373E+02  0.10000000000E+01 0. -1.
        -13    1    6    6    0    0  0.56483877625E+01  0.39165391733E+01  0.31924795359E+00  0.68816064744E+01  0.10500000000E+00 0.  1.
         13    1    6    6    0    0  0.40516746443E+01  0.27425190702E+01  0.32313725284E+00  0.49043777340E+01  0.10500000000E+00 0. -1.
</event>
<event>
11    0  0.3482988E-009  0.9118800E+02  0.7816531E-02  0.1126479E+00
         25   -1    0    0    0    0  0.00000000000E+00  0.00000000000E+00  0.99999998245E-14  0.12500000000E+03  0.12500000000E+03 0.  0.
    3000001    1    3    3    0    0 -0.13033947986E+02  0.56568414886E+02 -0.41218863857E+01  0.58205320292E+02  0.10000000000E+01 0.  1.
    1000022    2    1    0    0    0 -0.11453492519E+02  0.60396133953E+02 -0.52320669986E+01  0.62499999789E+02  0.99999980607E+01 0.  0.
    3000022    2    3    3    0    0  0.15804554673E+01  0.38277190664E+01 -0.11101806129E+01  0.42946794974E+01  0.24999651316E+00 0.  0.
    1000022    2    1    0    0    0  0.11453492519E+02 -0.60396133953E+02  0.52320669986E+01  0.62500000211E+02  0.10000000699E+02 0.  0.
    3000022    2    5    5    0    0  0.78839296105E+00 -0.65933291366E+01 -0.24985279098E+01  0.70992037159E+01  0.24999823703E+00 0.  0.
        -13    1    4    4    0    0  0.91804557565E+00  0.20539884119E+01 -0.62072821889E+00  0.23362372732E+01  0.10500000000E+00 0.  1.
         13    1    4    4    0    0  0.66240989160E+00  0.17737306545E+01 -0.48945239403E+00  0.19584422241E+01  0.10500000000E+00 0. -1.
    3000001    1    5    5    0    0  0.10665099558E+02 -0.53802804816E+02  0.77305949085E+01  0.55400796495E+02  0.10000000000E+01 0.  1.
        -13    1    6    6    0    0  0.22102500694E+00 -0.21657351383E+01 -0.85857328293E+00  0.23425272304E+01  0.10500000000E+00 0.  1.
         13    1    6    6    0    0  0.56736795411E+00 -0.44275939983E+01 -0.16399546269E+01  0.47566764855E+01  0.10500000000E+00 0. -1.
</event>
<event>
11    0  0.3482988E-009  0.9118800E+02  0.7816531E-02  0.1126479E+00
         25   -1    0    0    0    0  0.00000000000E+00  0.00000000000E+00  0.99999998245E-14  0.12500000000E+03  0.12500000000E+03 0.  0.
    3000001    1    3    3    0    0  0.13860373357E+02 -0.24845316108E+02  0.20458647282E+02  0.35056467744E+02  0.10000000000E+01 0. -1.
    1000022    2    1    0    0    0  0.16668653382E+02 -0.43970174082E+02  0.39937825401E+02  0.62500000891E+02  0.99999999618E+01 0.  0.
    3000022    2    3    3    0    0  0.28082800250E+01 -0.19124857974E+02  0.19479178119E+02  0.27443533146E+02  0.25000429069E+00 0.  0.
    1000022    2    1    0    0    0 -0.16668653382E+02  0.43970174082E+02 -0.39937825401E+02  0.62499999109E+02  0.99999888260E+01 0.  0.
    3000022    2    5    5    0    0 -0.60534163234E+01  0.13552173943E+02 -0.18801449582E+02  0.23955422668E+02  0.25000209785E+00 0.  0.
        -13    1    4    4    0    0  0.13993855979E+01 -0.91115553677E+01  0.93313207147E+01  0.13117289833E+02  0.10500000000E+00 0.  1.
         13    1    4    4    0    0  0.14088944271E+01 -0.10013302606E+02  0.10147857405E+02  0.14326243314E+02  0.10500000000E+00 0. -1.
    3000001    1    5    5    0    0 -0.10615237059E+02  0.30418000139E+02 -0.21136375819E+02  0.38544576441E+02  0.10000000000E+01 0. -1.
        -13    1    6    6    0    0 -0.28895712282E+01  0.63671684263E+01 -0.87713780269E+01  0.11217778441E+02  0.10500000000E+00 0.  1.
         13    1    6    6    0    0 -0.31638450951E+01  0.71850055162E+01 -0.10030071555E+02  0.12737644227E+02  0.10500000000E+00 0. -1.
</event>
<event>
11    0  0.3482988E-009  0.9118800E+02  0.7816531E-02  0.1126479E+00
         25   -1    0    0    0    0  0.00000000000E+00  0.00000000000E+00  0.99999998245E-14  0.12500000000E+03  0.12500000000E+03 0.  0.
    3000001    1    3    3    0    0 -0.13526612210E+02 -0.10613495093E+02 -0.95642879259E+01  0.19700028414E+02  0.10000000000E+01 0. -1.
    1000022    2    1    0    0    0 -0.51264744201E+02 -0.27900700141E+02 -0.19993155312E+02  0.62500003112E+02  0.10000053168E+02 0.  0.
    3000022    2    3    3    0    0 -0.37738131991E+02 -0.17287205047E+02 -0.10428867386E+02  0.42799974698E+02  0.24998940107E+00 0.  0.
    1000022    2    1    0    0    0  0.51264744201E+02  0.27900700141E+02  0.19993155312E+02  0.62499996888E+02  0.10000014270E+02 0.  0.
    3000022    2    5    5    0    0  0.31562010874E+02  0.14497032988E+02  0.16290424343E+02  0.38363588491E+02  0.25000156913E+00 0.  0.
        -13    1    4    4    0    0 -0.16908334933E+02 -0.77048722775E+01 -0.46112541847E+01  0.19145013377E+02  0.10500000000E+00 0. -1.
         13    1    4    4    0    0 -0.20829797057E+02 -0.95823327698E+01 -0.58176132017E+01  0.23654961322E+02  0.10500000000E+00 0.  1.
    3000001    1    5    5    0    0  0.19702733327E+02  0.13403667152E+02  0.37027309694E+01  0.24136408397E+02  0.10000000000E+01 0. -1.
        -13    1    6    6    0    0  0.93309523421E+01  0.42605733718E+01  0.48534042988E+01  0.11348379415E+02  0.10500000000E+00 0. -1.
         13    1    6    6    0    0  0.22231058532E+02  0.10236459617E+02  0.11437020044E+02  0.27015209076E+02  0.10500000000E+00 0.  1.
</event>
<event>
11    0  0.3482988E-009  0.9118800E+02  0.7816531E-02  0.1126479E+00
         25   -1    0    0    0    0  0.00000000000E+00  0.00000000000E+00  0.99999998245E-14  0.12500000000E+03  0.12500000000E+03 0.  0.
    3000001    1    3    3    0    0 -0.77073277687E+01 -0.32084767414E+02 -0.18917656589E+02  0.38048823006E+02  0.10000000000E+01 0. -1.
    1000022    2    1    0    0    0 -0.47659637040E+01 -0.53400144829E+02 -0.30528022358E+02  0.62499999495E+02  0.99999955008E+01 0.  0.
    3000022    2    3    3    0    0  0.29413640647E+01 -0.21315377415E+02 -0.11610365769E+02  0.24451176489E+02  0.25000298950E+00 0.  0.
    1000022    2    1    0    0    0  0.47659637040E+01  0.53400144829E+02  0.30528022358E+02  0.62500000505E+02  0.10000001812E+02 0.  0.
    3000022    2    5    5    0    0  0.35614690081E+01  0.33156206944E+02  0.13411889298E+02  0.35943836635E+02  0.24999414111E+00 0.  0.
        -13    1    4    4    0    0  0.14453623520E+01 -0.10724662431E+02 -0.57725849944E+01  0.12265448182E+02  0.10500000000E+00 0. -1.
         13    1    4    4    0    0  0.14960017127E+01 -0.10590714984E+02 -0.58377807750E+01  0.12185728307E+02  0.10500000000E+00 0.  1.
    3000001    1    5    5    0    0  0.12044946959E+01  0.20243937885E+02  0.17116133060E+02  0.26556163870E+02  0.10000000000E+01 0. -1.
        -13    1    6    6    0    0  0.12392146973E+01  0.11871423046E+02  0.47517050250E+01  0.12847414675E+02  0.10500000000E+00 0.  1.
         13    1    6    6    0    0  0.23222543108E+01  0.21284783899E+02  0.86601842725E+01  0.23096421960E+02  0.10500000000E+00 0. -1.
</event>
<event>
11    0  0.3482988E-009  0.9118800E+02  0.7816531E-02  0.1126479E+00
         25   -1    0    0    0    0  0.00000000000E+00  0.00000000000E+00  0.99999998245E-14  0.12500000000E+03  0.12500000000E+03 0.  0.
    3000001    1    3    3    0    0  0.31344647324E+02  0.11639625724E+02 -0.27073891883E+02  0.43034444629E+02  0.10000000000E+01 0.  1.
    1000022    2    1    0    0    0  0.41804599002E+02  0.13178390228E+02 -0.43416075101E+02  0.62499999890E+02  0.99999971171E+01 0.  0.
    3000022    2    3    3    0    0  0.10459951678E+02  0.15387645034E+01 -0.16342183219E+02  0.19465555261E+02  0.25000791827E+00 0.  0.
    1000022    2    1    0    0    0 -0.41804599002E+02 -0.13178390228E+02  0.43416075101E+02  0.62500000110E+02  0.99999984918E+01 0.  0.
    3000022    2    5    5    0    0 -0.11396279659E+02 -0.12003200312E+01  0.16806783345E+02  0.20343215856E+02  0.25001339536E+00 0.  0.
        -13    1    4    4    0    0  0.67699967654E+01  0.93823580041E+00 -0.10565902874E+02  0.12584215158E+02  0.10500000000E+00 0. -1.
         13    1    4    4    0    0  0.36899549126E+01  0.60052870298E+00 -0.57762803451E+01  0.68813401024E+01  0.10500000000E+00 0.  1.
    3000001    1    5    5    0    0 -0.30408319343E+02 -0.11978070197E+02  0.26609291756E+02  0.42156784254E+02  0.10000000000E+01 0.  1.
        -13    1    6    6    0    0 -0.33778020991E+01 -0.39985422584E+00  0.49721197607E+01  0.60251498187E+01  0.10500000000E+00 0. -1.
         13    1    6    6    0    0 -0.80184775600E+01 -0.80046580539E+00  0.11834663585E+02  0.14318066037E+02  0.10500000000E+00 0.  1.
</event>
<event>
11    0  0.3482988E-009  0.9118800E+02  0.7816531E-02  0.1126479E+00
         25   -1    0    0    0    0  0.00000000000E+00  0.00000000000E+00  0.99999998245E-14  0.12500000000E+03  0.12500000000E+03 0.  0.
    3000001    1    3    3    0    0  0.14938206211E+02  0.34493510727E+02 -0.14777786870E+02  0.40402169148E+02  0.10000000000E+01 0.  1.
    1000022    2    1    0    0    0  0.19391266795E+02  0.51033908981E+02 -0.28736193917E+02  0.62500000513E+02  0.10000006477E+02 0.  0.
    3000022    2    3    3    0    0  0.44530605841E+01  0.16540398254E+02 -0.13958407047E+02  0.22097831365E+02  0.25000161494E+00 0.  0.
    1000022    2    1    0    0    0 -0.19391266795E+02 -0.51033908981E+02  0.28736193917E+02  0.62499999487E+02  0.10000000063E+02 0.  0.
    3000022    2    5    5    0    0 -0.54710718597E+01 -0.27968327671E+02  0.16002637513E+02  0.32684964238E+02  0.24999974151E+00 0.  0.
        -13    1    4    4    0    0  0.28678178779E+01  0.10606757450E+02 -0.88801028712E+01  0.14127807154E+02  0.10500000000E+00 0. -1.
         13    1    4    4    0    0  0.15852427062E+01  0.59336408042E+01 -0.50783041754E+01  0.79700242113E+01  0.10500000000E+00 0.  1.
    3000001    1    5    5    0    0 -0.13920194935E+02 -0.23065581310E+02  0.12733556404E+02  0.29815035249E+02  0.10000000000E+01 0. -1.
        -13    1    6    6    0    0 -0.37885833404E+01 -0.19229332205E+02  0.10957905866E+02  0.22454560934E+02  0.10500000000E+00 0.  1.
         13    1    6    6    0    0 -0.16824885193E+01 -0.87389954663E+01  0.50447316474E+01  0.10230403304E+02  0.10500000000E+00 0. -1.
</event>
<event>
11    0  0.3482988E-009  0.9118800E+02  0.7816531E-02  0.1126479E+00
         25   -1    0    0    0    0  0.00000000000E+00  0.00000000000E+00  0.99999998245E-14  0.12500000000E+03  0.12500000000E+03 0.  0.
    3000001    1    3    3    0    0 -0.73250358649E+00 -0.19278124509E+01  0.29911981683E+01  0.37683270601E+01  0.10000000000E+01 0. -1.
    1000022    2    1    0    0    0 -0.35112862236E+02 -0.44299782760E+02  0.24715728356E+02  0.62500010485E+02  0.10000011769E+02 0.  0.
    3000022    2    3    3    0    0 -0.34380358650E+02 -0.42371970310E+02  0.21724530187E+02  0.58731683425E+02  0.24999443050E+00 0.  0.
    1000022    2    1    0    0    0  0.35112862236E+02  0.44299782760E+02 -0.24715728356E+02  0.62499989515E+02  0.99998807088E+01 0.  0.
    3000022    2    5    5    0    0  0.65206805564E+01  0.44023698704E+01 -0.86755402712E+00  0.79192985398E+01  0.25000795696E+00 0.  0.
        -13    1    4    4    0    0 -0.78880218616E+01 -0.97183115002E+01  0.49788381231E+01  0.13470943596E+02  0.10500000000E+00 0. -1.
         13    1    4    4    0    0 -0.26492336788E+02 -0.32653658809E+02  0.16745692064E+02  0.45260739829E+02  0.10500000000E+00 0.  1.
    3000001    1    5    5    0    0  0.28592181680E+02  0.39897412890E+02 -0.23848174329E+02  0.54580690975E+02  0.10000000000E+01 0.  1.
        -13    1    6    6    0    0  0.48220671172E+01  0.32267568467E+01 -0.61685227051E+00  0.58357366933E+01  0.10500000000E+00 0.  1.
         13    1    6    6    0    0  0.16986134392E+01  0.11756130238E+01 -0.25070175661E+00  0.20835618465E+01  0.10500000000E+00 0. -1.
</event>
<event>
11    0  0.3482988E-009  0.9118800E+02  0.7816531E-02  0.1126479E+00
         25   -1    0    0    0    0  0.00000000000E+00  0.00000000000E+00  0.99999998245E-14  0.12500000000E+03  0.12500000000E+03 0.  0.
    3000001    1    3    3    0    0  0.64607049718E+01  0.15485337781E+01  0.10544777741E+01  0.68007785562E+01  0.10000000000E+01 0. -1.
    1000022    2    1    0    0    0  0.47131320706E+02  0.38588158668E+02  0.97898831699E+01  0.62499993954E+02  0.10000002539E+02 0.  0.
    3000022    2    3    3    0    0  0.40670615734E+02  0.37039624890E+02  0.87354053958E+01  0.55699215397E+02  0.24998445535E+00 0.  0.
    1000022    2    1    0    0    0 -0.47131320706E+02 -0.38588158668E+02 -0.97898831699E+01  0.62500006046E+02  0.10000078120E+02 0.  0.
    3000022    2    5    5    0    0 -0.37420133870E+02 -0.31050042119E+02 -0.37593272611E+01  0.48770550287E+02  0.24999882371E+00 0.  0.
        -13    1    4    4    0    0  0.13211515763E+02  0.12049039673E+02  0.27885772426E+01  0.18097256527E+02  0.10500000000E+00 0. -1.
         13    1    4    4    0    0  0.27459099972E+02  0.24990585218E+02  0.59468281533E+01  0.37601958870E+02  0.10500000000E+00 0.  1.
    3000001    1    5    5    0    0 -0.97111868364E+01 -0.75381165489E+01 -0.60305559088E+01  0.13729455759E+02  0.10000000000E+01 0. -1.
        -13    1    6    6    0    0 -0.17730506948E+02 -0.14624761920E+02 -0.17818456498E+01  0.23052994096E+02  0.10500000000E+00 0.  1.
         13    1    6    6    0    0 -0.19689626921E+02 -0.16425280200E+02 -0.19774816113E+01  0.25717556192E+02  0.10500000000E+00 0. -1.
</event>
<event>
11    0  0.3482988E-009  0.9118800E+02  0.7816531E-02  0.1126479E+00
         25   -1    0    0    0    0  0.00000000000E+00  0.00000000000E+00  0.99999998245E-14  0.12500000000E+03  0.12500000000E+03 0.  0.
    3000001    1    3    3    0    0 -0.65907679953E+01  0.17248863288E+00  0.71725037460E+01  0.97935072922E+01  0.10000000000E+01 0.  1.
    1000022    2    1    0    0    0 -0.22819114151E+02  0.18516663131E+01  0.57289696172E+02  0.62499999624E+02  0.10000001335E+02 0.  0.
    3000022    2    3    3    0    0 -0.16228346156E+02  0.16791776803E+01  0.50117192426E+02  0.52706492332E+02  0.25000115971E+00 0.  0.
    1000022    2    1    0    0    0  0.22819114151E+02 -0.18516663131E+01 -0.57289696172E+02  0.62500000376E+02  0.10000006037E+02 0.  0.
    3000022    2    5    5    0    0  0.16465886134E+02 -0.56654298961E+01 -0.37559365833E+02  0.41400373977E+02  0.25000309461E+00 0.  0.
        -13    1    4    4    0    0 -0.10411821628E+02  0.10566265878E+01  0.32320820871E+02  0.33973062508E+02  0.10500000000E+00 0.  1.
         13    1    4    4    0    0 -0.58165245274E+01  0.62255109249E+00  0.17796371555E+02  0.18733429824E+02  0.10500000000E+00 0. -1.
    3000001    1    5    5    0    0  0.63532280169E+01  0.38137635830E+01 -0.19730330339E+02  0.21099626399E+02  0.10000000000E+01 0.  1.
        -13    1    6    6    0    0  0.90828443731E+01 -0.30701536169E+01 -0.20778438649E+02  0.22884021561E+02  0.10500000000E+00 0.  1.
         13    1    6    6    0    0  0.73830417610E+01 -0.25952762793E+01 -0.16780927185E+02  0.18516352416E+02  0.10500000000E+00 0. -1.
</event>
<event>
11    0  0.3482988E-009  0.9118800E+02  0.7816531E-02  0.1126479E+00
         25   -1    0    0    0    0  0.00000000000E+00  0.00000000000E+00  0.99999998245E-14  0.12500000000E+03  0.12500000000E+03 0.  0.
    3000001    1    3    3    0    0  0.28462301736E+02  0.42776474863E+02  0.30356027507E+02  0.59685993565E+02  0.10000000000E+01 0.  1.
    1000022    2    1    0    0    0  0.28806390187E+02  0.45540362576E+02  0.30041925733E+02  0.62500000099E+02  0.99999985788E+01 0.  0.
    3000022    2    3    3    0    0  0.34408845051E+00  0.27638877127E+01 -0.31410177404E+00  0.28140065346E+01  0.25000140388E+00 0.  0.
    1000022    2    1    0    0    0 -0.28806390187E+02 -0.45540362576E+02 -0.30041925733E+02  0.62499999901E+02  0.99999973379E+01 0.  0.
    3000022    2    5    5    0    0 -0.23447051999E+02 -0.37258432695E+02 -0.28557373702E+02  0.52474195041E+02  0.24999616388E+00 0.  0.
        -13    1    4    4    0    0  0.28096599073E+00  0.20694590426E+01 -0.24896265696E+00  0.21058513769E+01  0.10500000000E+00 0.  1.
         13    1    4    4    0    0  0.63122459779E-01  0.69442867008E+00 -0.65139117086E-01  0.70815515767E+00  0.10500000000E+00 0. -1.
    3000001    1    5    5    0    0 -0.53593381872E+01 -0.82819298809E+01 -0.14845520303E+01  0.10025804860E+02  0.10000000000E+01 0. -1.
        -13    1    6    6    0    0 -0.93780594314E+01 -0.14830064658E+02 -0.11441915534E+02  0.20947727145E+02  0.10500000000E+00 0. -1.
         13    1    6    6    0    0 -0.14068992568E+02 -0.22428368037E+02 -0.17115458168E+02  0.31526467896E+02  0.10500000000E+00 0.  1.
</event>
<event>
11    0  0.3482988E-009  0.9118800E+02  0.7816531E-02  0.1126479E+00
         25   -1    0    0    0    0  0.00000000000E+00  0.00000000000E+00  0.99999998245E-14  0.12500000000E+03  0.12500000000E+03 0.  0.
    3000001    1    3    3    0    0  0.31121355300E+00  0.70708011744E+00 -0.19229094552E+01  0.23009556582E+01  0.10000000000E+01 0.  1.
    1000022    2    1    0    0    0 -0.32278495705E+02  0.31270483565E+02 -0.42267070119E+02  0.62499997203E+02  0.10000000329E+02 0.  0.
    3000022    2    3    3    0    0 -0.32589709258E+02  0.30563403447E+02 -0.40344160664E+02  0.60199041545E+02  0.25004689512E+00 0.  0.
    1000022    2    1    0    0    0  0.32278495705E+02 -0.31270483565E+02  0.42267070119E+02  0.62500002797E+02  0.10000035294E+02 0.  0.
    3000022    2    5    5    0    0  0.30548162461E+02 -0.27221691108E+02  0.34524347888E+02  0.53536938531E+02  0.24998731366E+00 0.  0.
        -13    1    4    4    0    0 -0.20340892933E+02  0.19076929277E+02 -0.25262458265E+02  0.37628233795E+02  0.10500000000E+00 0.  1.
         13    1    4    4    0    0 -0.12248816324E+02  0.11486474170E+02 -0.15081702399E+02  0.22570807750E+02  0.10500000000E+00 0. -1.
    3000001    1    5    5    0    0  0.17303332433E+01 -0.40487924569E+01  0.77427222310E+01  0.89630642661E+01  0.10000000000E+01 0. -1.
        -13    1    6    6    0    0  0.10476418052E+02 -0.93806565904E+01  0.11807891865E+02  0.18362717352E+02  0.10500000000E+00 0.  1.
         13    1    6    6    0    0  0.20071744409E+02 -0.17841034517E+02  0.22716456023E+02  0.35174221179E+02  0.10500000000E+00 0. -1.
</event>
<event>
11    0  0.3482988E-009  0.9118800E+02  0.7816531E-02  0.1126479E+00
         25   -1    0    0    0    0  0.00000000000E+00  0.00000000000E+00  0.99999998245E-14  0.12500000000E+03  0.12500000000E+03 0.  0.
    3000001    1    3    3    0    0 -0.17738147864E+02 -0.95055915132E+01 -0.63801225813E+01  0.21135376122E+02  0.10000000000E+01 0. -1.
    1000022    2    1    0    0    0 -0.56971904115E+02 -0.15112575231E+02 -0.18222589801E+02  0.62500003883E+02  0.99999958838E+01 0.  0.
    3000022    2    3    3    0    0 -0.39233756251E+02 -0.56069837176E+01 -0.11842467220E+02  0.41364627761E+02  0.25000792493E+00 0.  0.
    1000022    2    1    0    0    0  0.56971904115E+02  0.15112575231E+02  0.18222589801E+02  0.62499996117E+02  0.99999473467E+01 0.  0.
    3000022    2    5    5    0    0  0.42346342385E+02  0.11845997458E+02  0.90283856746E+01  0.44890028037E+02  0.25000016223E+00 0.  0.
        -13    1    4    4    0    0 -0.28997125510E+02 -0.41750455242E+01 -0.87633154688E+01  0.30578930917E+02  0.10500000000E+00 0.  1.
         13    1    4    4    0    0 -0.10236630741E+02 -0.14319381935E+01 -0.30791517507E+01  0.10785696844E+02  0.10500000000E+00 0. -1.
    3000001    1    5    5    0    0  0.14625561731E+02  0.32665777723E+01  0.91942041263E+01  0.17609968080E+02  0.10000000000E+01 0. -1.
        -13    1    6    6    0    0  0.14076017274E+02  0.38965900472E+01  0.29623565328E+01  0.14903162668E+02  0.10500000000E+00 0.  1.
         13    1    6    6    0    0  0.28270325111E+02  0.79494074113E+01  0.60660291417E+01  0.29986865368E+02  0.10500000000E+00 0. -1.
</event>
<event>
11    0  0.3482988E-009  0.9118800E+02  0.7816531E-02  0.1126479E+00
         25   -1    0    0    0    0  0.00000000000E+00  0.00000000000E+00  0.99999998245E-14  0.12500000000E+03  0.12500000000E+03 0.  0.
    3000001    1    3    3    0    0  0.87031369246E+00  0.18758140661E+02  0.15194756785E+02  0.24176557255E+02  0.10000000000E+01 0.  1.
    1000022    2    1    0    0    0  0.11532601002E+02  0.51675819392E+02  0.31667944238E+02  0.62500001070E+02  0.10000012292E+02 0.  0.
    3000022    2    3    3    0    0  0.10662287309E+02  0.32917678731E+02  0.16473187453E+02  0.38323443814E+02  0.24999451207E+00 0.  0.
    1000022    2    1    0    0    0 -0.11532601002E+02 -0.51675819392E+02 -0.31667944238E+02  0.62499998930E+02  0.99999989173E+01 0.  0.
    3000022    2    5    5    0    0 -0.36586053643E+01 -0.36327281324E+02 -0.23179472947E+02  0.43248204911E+02  0.25000057076E+00 0.  0.
        -13    1    4    4    0    0  0.62062521341E+01  0.19348506226E+02  0.97044055496E+01  0.22518187556E+02  0.10500000000E+00 0.  1.
         13    1    4    4    0    0  0.44560351750E+01  0.13569172505E+02  0.67687819032E+01  0.15805256259E+02  0.10500000000E+00 0. -1.
    3000001    1    5    5    0    0 -0.78739956373E+01 -0.15348538067E+02 -0.84884712907E+01  0.19251794019E+02  0.10000000000E+01 0.  1.
        -13    1    6    6    0    0 -0.15604523276E+01 -0.16150861679E+02 -0.10290925178E+02  0.19214565060E+02  0.10500000000E+00 0. -1.
         13    1    6    6    0    0 -0.20981530367E+01 -0.20176419646E+02 -0.12888547769E+02  0.24033639851E+02  0.10500000000E+00 0.  1.
</event>
<event>
11    0  0.3482988E-009  0.9118800E+02  0.7816531E-02  0.1126479E+00
         25   -1    0    0    0    0  0.00000000000E+00  0.00000000000E+00  0.99999998245E-14  0.12500000000E+03  0.12500000000E+03 0.  0.
    3000001    1    3    3    0    0  0.32315411594E+02 -0.30519707263E+02 -0.39449311417E+02  0.59438931090E+02  0.10000000000E+01 0. -1.
    1000022    2    1    0    0    0  0.31784445522E+02 -0.32480632083E+02 -0.41725381854E+02  0.62500000407E+02  0.10000006120E+02 0.  0.
    3000022    2    3    3    0    0 -0.53096607182E+00 -0.19609248200E+01 -0.22760704373E+01  0.30610693170E+01  0.24999521821E+00 0.  0.
    1000022    2    1    0    0    0 -0.31784445522E+02  0.32480632083E+02  0.41725381854E+02  0.62499999593E+02  0.10000001027E+02 0.  0.
    3000022    2    5    5    0    0 -0.25340356192E+02  0.22995034337E+02  0.25826995477E+02  0.42871919164E+02  0.25000278423E+00 0.  0.
        -13    1    4    4    0    0 -0.22215830084E+00 -0.82944314851E+00 -0.10618740861E+01  0.13696466048E+01  0.10500000000E+00 0. -1.
         13    1    4    4    0    0 -0.30880777098E+00 -0.11314816714E+01 -0.12141963512E+01  0.16914227122E+01  0.10500000000E+00 0.  1.
    3000001    1    5    5    0    0 -0.64440893306E+01  0.94855977459E+01  0.15898386378E+02  0.19628080429E+02  0.10000000000E+01 0. -1.
        -13    1    6    6    0    0 -0.15044058983E+02  0.13582887702E+02  0.15346005361E+02  0.25423010336E+02  0.10500000000E+00 0. -1.
         13    1    6    6    0    0 -0.10296297208E+02  0.94121466353E+01  0.10480990116E+02  0.17448908828E+02  0.10500000000E+00 0.  1.
</event>
<event>
11    0  0.3482988E-009  0.9118800E+02  0.7816531E-02  0.1126479E+00
         25   -1    0    0    0    0  0.00000000000E+00  0.00000000000E+00  0.99999998245E-14  0.12500000000E+03  0.12500000000E+03 0.  0.
    3000001    1    3    3    0    0 -0.15076486982E+02  0.17135882473E+02  0.20418310665E+02  0.30640599509E+02  0.10000000000E+01 0. -1.
    1000022    2    1    0    0    0 -0.30258327086E+02  0.41591394893E+02  0.34071095683E+02  0.62499999960E+02  0.99999973354E+01 0.  0.
    3000022    2    3    3    0    0 -0.15181840105E+02  0.24455512419E+02  0.13652785018E+02  0.31859400451E+02  0.25000334085E+00 0.  0.
    1000022    2    1    0    0    0  0.30258327086E+02 -0.41591394893E+02 -0.34071095683E+02  0.62500000040E+02  0.99999978413E+01 0.  0.
    3000022    2    5    5    0    0  0.96575607343E+01 -0.80859471504E+01 -0.11943815197E+02  0.17359960780E+02  0.24999234610E+00 0.  0.
        -13    1    4    4    0    0 -0.10027498673E+02  0.16255135978E+02  0.90551666474E+01  0.21137342390E+02  0.10500000000E+00 0.  1.
         13    1    4    4    0    0 -0.51543414316E+01  0.82003764411E+01  0.45976183706E+01  0.10722058060E+02  0.10500000000E+00 0. -1.
    3000001    1    5    5    0    0  0.20600766352E+02 -0.33505447743E+02 -0.22127280486E+02  0.45140039260E+02  0.10000000000E+01 0. -1.
        -13    1    6    6    0    0  0.52545797373E+01 -0.43160097894E+01 -0.64752002791E+01  0.93903031033E+01  0.10500000000E+00 0. -1.
         13    1    6    6    0    0  0.44029809970E+01 -0.37699373609E+01 -0.54686149182E+01  0.79696576770E+01  0.10500000000E+00 0.  1.
</event>
<event>
11    0  0.3482988E-009  0.9118800E+02  0.7816531E-02  0.1126479E+00
         25   -1    0    0    0    0  0.00000000000E+00  0.00000000000E+00  0.99999998245E-14  0.12500000000E+03  0.12500000000E+03 0.  0.
    3000001    1    3    3    0    0  0.15840342619E+01 -0.29977568399E+01  0.82225056172E+00  0.36292983620E+01  0.10000000000E+01 0.  1.
    1000022    2    1    0    0    0 -0.85036553341E+01 -0.58333920533E+02  0.18195922582E+02  0.62499999676E+02  0.99999961024E+01 0.  0.
    3000022    2    3    3    0    0 -0.10087689596E+02 -0.55336163693E+02  0.17373672021E+02  0.58870701314E+02  0.25000006012E+00 0.  0.
    1000022    2    1    0    0    0  0.85036553341E+01  0.58333920533E+02 -0.18195922582E+02  0.62500000324E+02  0.10000000156E+02 0.  0.
    3000022    2    5    5    0    0  0.22613627445E+01  0.20724010049E+01 -0.17677528262E+01  0.35490922912E+01  0.24999729935E+00 0.  0.
        -13    1    4    4    0    0 -0.57227451151E+01 -0.31313111494E+02  0.97647887521E+01  0.33295989059E+02  0.10500000000E+00 0.  1.
         13    1    4    4    0    0 -0.43649444810E+01 -0.24023052200E+02  0.76088832684E+01  0.25574712254E+02  0.10500000000E+00 0. -1.
    3000001    1    5    5    0    0  0.62422925897E+01  0.56261519528E+02 -0.16428169756E+02  0.58950908033E+02  0.10000000000E+01 0. -1.
        -13    1    6    6    0    0  0.60940793199E+00  0.54951559485E+00 -0.43565490341E+00  0.93496824086E+00  0.10500000000E+00 0.  1.
         13    1    6    6    0    0  0.16519548125E+01  0.15228854100E+01 -0.13320979228E+01  0.26141240503E+01  0.10500000000E+00 0. -1.
</event>
<event>
11    0  0.3482988E-009  0.9118800E+02  0.7816531E-02  0.1126479E+00
         25   -1    0    0    0    0  0.00000000000E+00  0.00000000000E+00  0.99999998245E-14  0.12500000000E+03  0.12500000000E+03 0.  0.
    3000001    1    3    3    0    0 -0.12331794153E+02  0.23819237117E+02  0.29818098130E+02  0.40119174717E+02  0.10000000000E+01 0.  1.
    1000022    2    1    0    0    0 -0.11896788954E+02  0.37481253248E+02  0.47538112131E+02  0.62499999284E+02  0.99999936520E+01 0.  0.
    3000022    2    3    3    0    0  0.43500519842E+00  0.13662016131E+02  0.17720014001E+02  0.22380824567E+02  0.24999564937E+00 0.  0.
    1000022    2    1    0    0    0  0.11896788954E+02 -0.37481253248E+02 -0.47538112131E+02  0.62500000716E+02  0.10000002604E+02 0.  0.
    3000022    2    5    5    0    0  0.74945613358E+01 -0.27938861256E+02 -0.27822010452E+02  0.40135709573E+02  0.24999882056E+00 0.  0.
        -13    1    4    4    0    0  0.31241332227E+00  0.81489882718E+01  0.10628165653E+02  0.13396736248E+02  0.10500000000E+00 0.  1.
         13    1    4    4    0    0  0.12259187615E+00  0.55130278593E+01  0.70918483476E+01  0.89840883194E+01  0.10500000000E+00 0. -1.
    3000001    1    5    5    0    0  0.44022276184E+01 -0.95423919915E+01 -0.19716101679E+02  0.22364291143E+02  0.10000000000E+01 0. -1.
        -13    1    6    6    0    0  0.20073695482E+01 -0.74167250190E+01 -0.74315589126E+01  0.10690015687E+02  0.10500000000E+00 0.  1.
         13    1    6    6    0    0  0.54871917875E+01 -0.20522136237E+02 -0.20390451540E+02  0.29445693887E+02  0.10500000000E+00 0. -1.
</event>
<event>
11    0  0.3482988E-009  0.9118800E+02  0.7816531E-02  0.1126479E+00
         25   -1    0    0    0    0  0.00000000000E+00  0.00000000000E+00  0.99999998245E-14  0.12500000000E+03  0.12500000000E+03 0.  0.
    3000001    1    3    3    0    0 -0.11131920971E+01 -0.16030454512E+01 -0.91379406938E+00  0.23757043093E+01  0.10000000000E+01 0. -1.
    1000022    2    1    0    0    0 -0.52219849188E+02 -0.65243033305E+01 -0.32198926297E+02  0.62500002013E+02  0.10000010687E+02 0.  0.
    3000022    2    3    3    0    0 -0.51106657091E+02 -0.49212578792E+01 -0.31285132228E+02  0.60124297703E+02  0.24999542932E+00 0.  0.
    1000022    2    1    0    0    0  0.52219849188E+02  0.65243033305E+01  0.32198926297E+02  0.62499997987E+02  0.99999855279E+01 0.  0.
    3000022    2    5    5    0    0  0.46813924466E+01 -0.10197470073E+01  0.60233605819E+01  0.77005654595E+01  0.25003299587E+00 0.  0.
        -13    1    4    4    0    0 -0.27262022242E+02 -0.26729168694E+01 -0.16635521294E+02  0.32048618302E+02  0.10500000000E+00 0.  1.
         13    1    4    4    0    0 -0.23844634849E+02 -0.22483410098E+01 -0.14649610934E+02  0.28075679402E+02  0.10500000000E+00 0. -1.
    3000001    1    5    5    0    0  0.47538456742E+02  0.75440503377E+01  0.26175565715E+02  0.54799432528E+02  0.10000000000E+01 0.  1.
        -13    1    6    6    0    0  0.29406685499E+01 -0.64111895742E+00  0.38777189594E+01  0.49098161234E+01  0.10500000000E+00 0.  1.
         13    1    6    6    0    0  0.17407238967E+01 -0.37862804984E+00  0.21456416225E+01  0.27907493361E+01  0.10500000000E+00 0. -1.
</event>
<event>
11    0  0.3482988E-009  0.9118800E+02  0.7816531E-02  0.1126479E+00
         25   -1    0    0    0    0  0.00000000000E+00  0.00000000000E+00  0.99999998245E-14  0.12500000000E+03  0.12500000000E+03 0.  0.
    3000001    1    3    3    0    0  0.21473291275E+02 -0.46507045985E+02 -0.16324100913E+02  0.53772519329E+02  0.10000000000E+01 0. -1.
    1000022    2    1    0    0    0  0.25371889320E+02 -0.54198467139E+02 -0.15001445485E+02  0.62500001382E+02  0.10000009912E+02 0.  0.
    3000022    2    3    3    0    0  0.38985980449E+01 -0.76914211539E+01  0.13226554278E+01  0.87274820524E+01  0.24999902563E+00 0.  0.
    1000022    2    1    0    0    0 -0.25371889320E+02  0.54198467139E+02  0.15001445485E+02  0.62499998618E+02  0.99999926381E+01 0.  0.
    3000022    2    5    5    0    0 -0.15685120515E+02  0.30164469526E+02  0.36592068828E+01  0.34196060595E+02  0.25007561601E+00 0.  0.
        -13    1    4    4    0    0  0.17818603834E+01 -0.36644852178E+01  0.62211052758E+00  0.41232905362E+01  0.10500000000E+00 0.  1.
         13    1    4    4    0    0  0.21167376615E+01 -0.40269359360E+01  0.70054490027E+00  0.46041915162E+01  0.10500000000E+00 0. -1.
    3000001    1    5    5    0    0 -0.96867688047E+01  0.24033997613E+02  0.11342238602E+02  0.28303938024E+02  0.10000000000E+01 0.  1.
        -13    1    6    6    0    0 -0.73815236881E+01  0.14309664997E+02  0.17755775694E+01  0.16199293349E+02  0.10500000000E+00 0.  1.
         13    1    6    6    0    0 -0.83035968270E+01  0.15854804529E+02  0.18836293134E+01  0.17996767246E+02  0.10500000000E+00 0. -1.
</event>
<event>
11    0  0.3482988E-009  0.9118800E+02  0.7816531E-02  0.1126479E+00
         25   -1    0    0    0    0  0.00000000000E+00  0.00000000000E+00  0.99999998245E-14  0.12500000000E+03  0.12500000000E+03 0.  0.
    3000001    1    3    3    0    0  0.24160886564E+01  0.28482864019E+02  0.21928906398E+02  0.36041475593E+02  0.10000000000E+01 0. -1.
    1000022    2    1    0    0    0 -0.14935498015E+01  0.52419970137E+02  0.32498703544E+02  0.62499998511E+02  0.10000006083E+02 0.  0.
    3000022    2    3    3    0    0 -0.39096384579E+01  0.23937106118E+02  0.10569797146E+02  0.26458522918E+02  0.25000222535E+00 0.  0.
    1000022    2    1    0    0    0  0.14935498015E+01 -0.52419970137E+02 -0.32498703544E+02  0.62500001489E+02  0.10000024698E+02 0.  0.
    3000022    2    5    5    0    0 -0.23048635463E+01 -0.44354772238E+02 -0.27004034577E+02  0.51980175057E+02  0.24999851970E+00 0.  0.
        -13    1    4    4    0    0 -0.21384067705E+01  0.12679451167E+02  0.55921417596E+01  0.14022280124E+02  0.10500000000E+00 0.  1.
         13    1    4    4    0    0 -0.17712316874E+01  0.11257654951E+02  0.49776553863E+01  0.12436242794E+02  0.10500000000E+00 0. -1.
    3000001    1    5    5    0    0  0.37984133479E+01 -0.80651978984E+01 -0.54946689671E+01  0.10519826432E+02  0.10000000000E+01 0. -1.
        -13    1    6    6    0    0 -0.11649974370E+01 -0.23144117127E+02 -0.14155111235E+02  0.27154844424E+02  0.10500000000E+00 0.  1.
         13    1    6    6    0    0 -0.11398661094E+01 -0.21210655111E+02 -0.12848923342E+02  0.24825330633E+02  0.10500000000E+00 0. -1.
</event>
<event>
11    0  0.3482988E-009  0.9118800E+02  0.7816531E-02  0.1126479E+00
         25   -1    0    0    0    0  0.00000000000E+00  0.00000000000E+00  0.99999998245E-14  0.12500000000E+03  0.12500000000E+03 0.  0.
    3000001    1    3    3    0    0 -0.53479238557E+02 -0.33500642661E+00  0.27978725982E+02  0.60365141377E+02  0.10000000000E+01 0.  1.
    1000022    2    1    0    0    0 -0.55283112091E+02  0.60447573739E+00  0.27379954589E+02  0.62499998359E+02  0.10000000409E+02 0.  0.
    3000022    2    3    3    0    0 -0.18038735348E+01  0.93948216400E+00 -0.59877139307E+00  0.21348569820E+01  0.25000137330E+00 0.  0.
    1000022    2    1    0    0    0  0.55283112091E+02 -0.60447573739E+00 -0.27379954589E+02  0.62500001641E+02  0.10000020917E+02 0.  0.
    3000022    2    5    5    0    0  0.12839917237E+02  0.40633569538E+01 -0.62959970956E+01  0.14868638915E+02  0.24999875604E+00 0.  0.
        -13    1    4    4    0    0 -0.96022990475E+00  0.46254035581E+00 -0.37465767420E+00  0.11346269975E+01  0.10500000000E+00 0.  1.
         13    1    4    4    0    0 -0.84364363003E+00  0.47694180819E+00 -0.22411371887E+00  0.10002299845E+01  0.10500000000E+00 0. -1.
    3000001    1    5    5    0    0  0.42443194855E+02 -0.46678326912E+01 -0.21083957494E+02  0.47631362726E+02  0.10000000000E+01 0.  1.
        -13    1    6    6    0    0  0.41307201934E+01  0.12718364946E+01 -0.20630290683E+01  0.47903581622E+01  0.10500000000E+00 0. -1.
         13    1    6    6    0    0  0.87091970431E+01  0.27915204592E+01 -0.42329680273E+01  0.10078280753E+02  0.10500000000E+00 0.  1.
</event>
<event>
11    0  0.3482988E-009  0.9118800E+02  0.7816531E-02  0.1126479E+00
         25   -1    0    0    0    0  0.00000000000E+00  0.00000000000E+00  0.99999998245E-14  0.12500000000E+03  0.12500000000E+03 0.  0.
    3000001    1    3    3    0    0 -0.11530121468E+02 -0.26703207927E+00  0.57137260193E+02  0.58298211890E+02  0.10000000000E+01 0. -1.
    1000022    2    1    0    0    0 -0.97352969183E+01 -0.52151033140E+00  0.60919635237E+02  0.62499998760E+02  0.99999954251E+01 0.  0.
    3000022    2    3    3    0    0  0.17948245498E+01 -0.25447825213E+00  0.37823750440E+01  0.42017868702E+01  0.24999516836E+00 0.  0.
    1000022    2    1    0    0    0  0.97352969183E+01  0.52151033140E+00 -0.60919635237E+02  0.62500001240E+02  0.10000010923E+02 0.  0.
    3000022    2    5    5    0    0  0.75576324543E+01  0.41222822177E+01 -0.27920691002E+02  0.29218803826E+02  0.24998396846E+00 0.  0.
        -13    1    4    4    0    0  0.13006446746E+01 -0.14911527359E+00  0.26715381203E+01  0.29769200296E+01  0.10500000000E+00 0. -1.
         13    1    4    4    0    0  0.49417987525E+00 -0.10536297854E+00  0.11108369237E+01  0.12248668407E+01  0.10500000000E+00 0.  1.
    3000001    1    5    5    0    0  0.21776644639E+01 -0.36007718863E+01 -0.32998944235E+02  0.33281197414E+02  0.10000000000E+01 0. -1.
        -13    1    6    6    0    0  0.28228742996E+01  0.14722077622E+01 -0.10344040840E+02  0.10823410779E+02  0.10500000000E+00 0.  1.
         13    1    6    6    0    0  0.47347581548E+01  0.26500744555E+01 -0.17576650163E+02  0.18395393047E+02  0.10500000000E+00 0. -1.
</event>
<event>
11    0  0.3482988E-009  0.9118800E+02  0.7816531E-02  0.1126479E+00
         25   -1    0    0    0    0  0.00000000000E+00  0.00000000000E+00  0.99999998245E-14  0.12500000000E+03  0.12500000000E+03 0.  0.
    3000001    1    3    3    0    0 -0.26376263684E+00 -0.54755719809E+02 -0.38845211133E+01  0.54903077572E+02  0.10000000000E+01 0.  1.
    1000022    2    1    0    0    0  0.12717864013E+01 -0.61215803860E+02 -0.75669481536E+01  0.62500007065E+02  0.10000004795E+02 0.  0.
    3000022    2    3    3    0    0  0.15355490382E+01 -0.64600840510E+01 -0.36824270403E+01  0.75969294937E+01  0.24994405606E+00 0.  0.
    1000022    2    1    0    0    0 -0.12717864013E+01  0.61215803860E+02  0.75669481536E+01  0.62499992935E+02  0.99999164779E+01 0.  0.
    3000022    2    5    5    0    0 -0.45347862980E+01  0.26504516713E+02  0.40636565184E+00  0.26893890010E+02  0.24998769513E+00 0.  0.
        -13    1    4    4    0    0  0.88208872619E+00 -0.36527067114E+01 -0.21571438824E+01  0.43341252370E+01  0.10500000000E+00 0. -1.
         13    1    4    4    0    0  0.65346031197E+00 -0.28073773395E+01 -0.15252831579E+01  0.32628042567E+01  0.10500000000E+00 0.  1.
    3000001    1    5    5    0    0  0.32629998966E+01  0.34711287147E+02  0.71605825018E+01  0.35606102925E+02  0.10000000000E+01 0. -1.
        -13    1    6    6    0    0 -0.22533787445E+01  0.12770848533E+02  0.20227371863E+00  0.12970128283E+02  0.10500000000E+00 0.  1.
         13    1    6    6    0    0 -0.22814075535E+01  0.13733668180E+02  0.20409193322E+00  0.13923761727E+02  0.10500000000E+00 0. -1.
</event>
<event>
11    0  0.3482988E-009  0.9118800E+02  0.7816531E-02  0.1126479E+00
         25   -1    0    0    0    0  0.00000000000E+00  0.00000000000E+00  0.99999998245E-14  0.12500000000E+03  0.12500000000E+03 0.  0.
    3000001    1    3    3    0    0  0.25953613807E+02  0.48922647839E+01  0.15785173859E+02  0.30784672129E+02  0.10000000000E+01 0.  1.
    1000022    2    1    0    0    0  0.54764334517E+02  0.15390896541E+02  0.23879654485E+02  0.62499999848E+02  0.10000002565E+02 0.  0.
    3000022    2    3    3    0    0  0.28810720710E+02  0.10498631757E+02  0.80944806257E+01  0.31715327719E+02  0.24999822144E+00 0.  0.
    1000022    2    1    0    0    0 -0.54764334517E+02 -0.15390896541E+02 -0.23879654485E+02  0.62500000152E+02  0.10000004465E+02 0.  0.
    3000022    2    5    5    0    0 -0.83902614355E+01 -0.33319375489E+01 -0.78432813882E+01  0.11961515725E+02  0.25000142312E+00 0.  0.
        -13    1    4    4    0    0  0.91981415863E+01  0.33163914928E+01  0.26204274667E+01  0.10123335729E+02  0.10500000000E+00 0. -1.
         13    1    4    4    0    0  0.19612579124E+02  0.71822402645E+01  0.54740531590E+01  0.21591991990E+02  0.10500000000E+00 0.  1.
    3000001    1    5    5    0    0 -0.46374073081E+02 -0.12058958992E+02 -0.16036373096E+02  0.50538484427E+02  0.10000000000E+01 0.  1.
        -13    1    6    6    0    0 -0.51456417902E+01 -0.20122402616E+01 -0.47272551739E+01  0.72721872077E+01  0.10500000000E+00 0. -1.
         13    1    6    6    0    0 -0.32446196453E+01 -0.13196972873E+01 -0.31160262143E+01  0.46893285170E+01  0.10500000000E+00 0.  1.
</event>
<event>
11    0  0.3482988E-009  0.9118800E+02  0.7816531E-02  0.1126479E+00
         25   -1    0    0    0    0  0.00000000000E+00  0.00000000000E+00  0.99999998245E-14  0.12500000000E+03  0.12500000000E+03 0.  0.
    3000001    1    3    3    0    0  0.15540709570E+02 -0.24823854168E+02 -0.47137232002E+02  0.55503657812E+02  0.10000000000E+01 0.  1.
    1000022    2    1    0    0    0  0.19518979873E+02 -0.25076130691E+02 -0.52881444328E+02  0.62499999987E+02  0.99999969223E+01 0.  0.
    3000022    2    3    3    0    0  0.39782703028E+01 -0.25227652289E+00 -0.57442123253E+01  0.69963421744E+01  0.25010105311E+00 0.  0.
    1000022    2    1    0    0    0 -0.19518979873E+02  0.25076130691E+02  0.52881444328E+02  0.62500000013E+02  0.99999970897E+01 0.  0.
    3000022    2    5    5    0    0 -0.10717460510E+02  0.11742574221E+02  0.35340855212E+02  0.38752942559E+02  0.25000146250E+00 0.  0.
        -13    1    4    4    0    0  0.28413734171E+01 -0.20968252764E+00 -0.40487192504E+01  0.49518200922E+01  0.10500000000E+00 0. -1.
         13    1    4    4    0    0  0.11368968857E+01 -0.42593995251E-01 -0.16954930750E+01  0.20445220822E+01  0.10500000000E+00 0.  1.
    3000001    1    5    5    0    0 -0.88015193626E+01  0.13333556470E+02  0.17540589115E+02  0.23747057454E+02  0.10000000000E+01 0.  1.
        -13    1    6    6    0    0 -0.60470599027E+01  0.65848369400E+01  0.19726571042E+02  0.21658154147E+02  0.10500000000E+00 0. -1.
         13    1    6    6    0    0 -0.46704006075E+01  0.51577372815E+01  0.15614284171E+02  0.17094788412E+02  0.10500000000E+00 0.  1.
</event>
<event>
11    0  0.3482988E-009  0.9118800E+02  0.7816531E-02  0.1126479E+00
         25   -1    0    0    0    0  0.00000000000E+00  0.00000000000E+00  0.99999998245E-14  0.12500000000E+03  0.12500000000E+03 0.  0.
    3000001    1    3    3    0    0 -0.38742486815E+01 -0.66007034234E+01 -0.11288350213E+01  0.78008561732E+01  0.10000000000E+01 0.  1.
    1000022    2    1    0    0    0 -0.49149846326E+02 -0.37286835564E+02 -0.48430658475E+00  0.62500000274E+02  0.99999990603E+01 0.  0.
    3000022    2    3    3    0    0 -0.45275597644E+02 -0.30686132140E+02  0.64452843651E+00  0.54699144101E+02  0.25000139880E+00 0.  0.
    1000022    2    1    0    0    0  0.49149846326E+02  0.37286835564E+02  0.48430658475E+00  0.62499999726E+02  0.99999956329E+01 0.  0.
    3000022    2    5    5    0    0  0.49017579541E+02  0.37041312185E+02  0.68015906894E+00  0.61443527091E+02  0.24998521167E+00 0.  0.
        -13    1    4    4    0    0 -0.15926287417E+02 -0.10862655991E+02  0.23295560554E+00  0.19279761912E+02  0.10500000000E+00 0. -1.
         13    1    4    4    0    0 -0.29349310227E+02 -0.19823476149E+02  0.41157283097E+00  0.35419382189E+02  0.10500000000E+00 0.  1.
    3000001    1    5    5    0    0  0.13226678429E+00  0.24552337929E+00 -0.19585248419E+00  0.10564726346E+01  0.10000000000E+01 0.  1.
        -13    1    6    6    0    0  0.14746522275E+02  0.11194066606E+02  0.18241142604E+00  0.18515165279E+02  0.10500000000E+00 0.  1.
         13    1    6    6    0    0  0.34271057267E+02  0.25847245579E+02  0.49774764290E+00  0.42928361813E+02  0.10500000000E+00 0. -1.
</event>
<event>
11    0  0.3482988E-009  0.9118800E+02  0.7816531E-02  0.1126479E+00
         25   -1    0    0    0    0  0.00000000000E+00  0.00000000000E+00  0.99999998245E-14  0.12500000000E+03  0.12500000000E+03 0.  0.
    3000001    1    3    3    0    0  0.37643766792E+02 -0.10887036717E+02  0.70625693648E+01  0.39830398351E+02  0.10000000000E+01 0. -1.
    1000022    2    1    0    0    0  0.57522644422E+02 -0.13722207556E+02  0.17581139496E+02  0.62499999216E+02  0.99999917257E+01 0.  0.
    3000022    2    3    3    0    0  0.19878877629E+02 -0.28351708390E+01  0.10518570131E+02  0.22669600864E+02  0.25003251101E+00 0.  0.
    1000022    2    1    0    0    0 -0.57522644422E+02  0.13722207556E+02 -0.17581139496E+02  0.62500000784E+02  0.10000001531E+02 0.  0.
    3000022    2    5    5    0    0 -0.39298811744E+02  0.54867155641E+01 -0.14468467122E+02  0.42236236694E+02  0.24999407633E+00 0.  0.
        -13    1    4    4    0    0  0.73045774964E+01 -0.98216740122E+00  0.38651742211E+01  0.83229863609E+01  0.10500000000E+00 0.  1.
         13    1    4    4    0    0  0.12574300133E+02 -0.18530034378E+01  0.66533959102E+01  0.14346614503E+02  0.10500000000E+00 0. -1.
    3000001    1    5    5    0    0 -0.18223832678E+02  0.82354919916E+01 -0.31126723743E+01  0.20263764091E+02  0.10000000000E+01 0.  1.
        -13    1    6    6    0    0 -0.20758245674E+02  0.28882087915E+01 -0.75709288557E+01  0.22283996550E+02  0.10500000000E+00 0.  1.
         13    1    6    6    0    0 -0.18540566070E+02  0.25985067727E+01 -0.68975382661E+01  0.19952240144E+02  0.10500000000E+00 0. -1.
</event>
<event>
11    0  0.3482988E-009  0.9118800E+02  0.7816531E-02  0.1126479E+00
         25   -1    0    0    0    0  0.00000000000E+00  0.00000000000E+00  0.99999998245E-14  0.12500000000E+03  0.12500000000E+03 0.  0.
    3000001    1    3    3    0    0  0.34632430402E+02  0.29591906578E+02 -0.20206306267E+02  0.49843565116E+02  0.10000000000E+01 0. -1.
    1000022    2    1    0    0    0  0.46215624439E+02  0.34202483658E+02 -0.22373113859E+02  0.62500000500E+02  0.10000000403E+02 0.  0.
    3000022    2    3    3    0    0  0.11583194037E+02  0.46105770802E+01 -0.21668075914E+01  0.12656435384E+02  0.24999276440E+00 0.  0.
    1000022    2    1    0    0    0 -0.46215624439E+02 -0.34202483658E+02  0.22373113859E+02  0.62499999500E+02  0.99999941512E+01 0.  0.
    3000022    2    5    5    0    0 -0.27892000250E+02 -0.16381999365E+02  0.16237582722E+02  0.36194684329E+02  0.24999983427E+00 0.  0.
        -13    1    4    4    0    0  0.30139423858E+01  0.12343343684E+01 -0.56671028574E+00  0.33075089699E+01  0.10500000000E+00 0. -1.
         13    1    4    4    0    0  0.85692516512E+01  0.33762427118E+01 -0.16000973056E+01  0.93489264142E+01  0.10500000000E+00 0.  1.
    3000001    1    5    5    0    0 -0.18323624189E+02 -0.17820484294E+02  0.61355311372E+01  0.26305315170E+02  0.10000000000E+01 0.  1.
        -13    1    6    6    0    0 -0.17272193329E+02 -0.10215088129E+02  0.10072893323E+02  0.22453304718E+02  0.10500000000E+00 0. -1.
         13    1    6    6    0    0 -0.10619806922E+02 -0.61669112361E+01  0.61646893986E+01  0.13741379611E+02  0.10500000000E+00 0.  1.
</event>
<event>
11    0  0.3482988E-009  0.9118800E+02  0.7816531E-02  0.1126479E+00
         25   -1    0    0    0    0  0.00000000000E+00  0.00000000000E+00  0.99999998245E-14  0.12500000000E+03  0.12500000000E+03 0.  0.
    3000001    1    3    3    0    0  0.32826664849E+02 -0.12662675790E+02 -0.62818159804E+01  0.35754642990E+02  0.10000000000E+01 0. -1.
    1000022    2    1    0    0    0  0.59230703280E+02 -0.13791538203E+02 -0.10381085847E+02  0.62499999452E+02  0.10000012558E+02 0.  0.
    3000022    2    3    3    0    0  0.26404038430E+02 -0.11288624126E+01 -0.40992698667E+01  0.26745356463E+02  0.25000620610E+00 0.  0.
    1000022    2    1    0    0    0 -0.59230703280E+02  0.13791538203E+02  0.10381085847E+02  0.62500000548E+02  0.10000019405E+02 0.  0.
    3000022    2    5    5    0    0 -0.65720160337E+01  0.37455287315E+01  0.38333758894E+01  0.84839644616E+01  0.25000409986E+00 0.  0.
        -13    1    4    4    0    0  0.15553024692E+02 -0.72901199131E+00 -0.24177030594E+01  0.15757041240E+02  0.10500000000E+00 0. -1.
         13    1    4    4    0    0  0.10851013738E+02 -0.39985042125E+00 -0.16815668073E+01  0.10988315222E+02  0.10500000000E+00 0.  1.
    3000001    1    5    5    0    0 -0.52658687246E+02  0.10046009471E+02  0.65477099577E+01  0.54016036086E+02  0.10000000000E+01 0.  1.
        -13    1    6    6    0    0 -0.47469988333E+01  0.26970227784E+01  0.28089152290E+01  0.61407621314E+01  0.10500000000E+00 0. -1.
         13    1    6    6    0    0 -0.18250172004E+01  0.10485059531E+01  0.10244606604E+01  0.23432023302E+01  0.10500000000E+00 0.  1.
</event>
<event>
11    0  0.3482988E-009  0.9118800E+02  0.7816531E-02  0.1126479E+00
         25   -1    0    0    0    0  0.00000000000E+00  0.00000000000E+00  0.99999998245E-14  0.12500000000E+03  0.12500000000E+03 0.  0.
    3000001    1    3    3    0    0 -0.87856026953E+01  0.34022415001E+01  0.10426945202E+02  0.14088408291E+02  0.10000000000E+01 0. -1.
    1000022    2    1    0    0    0 -0.30425987089E+02  0.30886413261E+02  0.43892352727E+02  0.62499997139E+02  0.99999899991E+01 0.  0.
    3000022    2    3    3    0    0 -0.21640384394E+02  0.27484171761E+02  0.33465407525E+02  0.48411588848E+02  0.24999963643E+00 0.  0.
    1000022    2    1    0    0    0  0.30425987089E+02 -0.30886413261E+02 -0.43892352727E+02  0.62500002861E+02  0.10000025761E+02 0.  0.
    3000022    2    5    5    0    0  0.13093999212E+02 -0.20289252212E+02 -0.23335340277E+02  0.33581351666E+02  0.25000636053E+00 0.  0.
        -13    1    4    4    0    0 -0.75195428277E+01  0.94919903229E+01  0.11525873206E+02  0.16718199149E+02  0.10500000000E+00 0.  1.
         13    1    4    4    0    0 -0.14120841566E+02  0.17992181438E+02  0.21939534319E+02  0.31693389698E+02  0.10500000000E+00 0. -1.
    3000001    1    5    5    0    0  0.17331987877E+02 -0.10597161049E+02 -0.20557012450E+02  0.28918651195E+02  0.10000000000E+01 0.  1.
        -13    1    6    6    0    0  0.59598130962E+01 -0.93584602490E+01 -0.10721973842E+02  0.15429578686E+02  0.10500000000E+00 0.  1.
         13    1    6    6    0    0  0.71341861158E+01 -0.10930791963E+02 -0.12613366436E+02  0.18151772980E+02  0.10500000000E+00 0. -1.
</event>
<event>
11    0  0.3482988E-009  0.9118800E+02  0.7816531E-02  0.1126479E+00
         25   -1    0    0    0    0  0.00000000000E+00  0.00000000000E+00  0.99999998245E-14  0.12500000000E+03  0.12500000000E+03 0.  0.
    3000001    1    3    3    0    0  0.28112185363E+02  0.19759130337E+02  0.70861924092E+01  0.35098893436E+02  0.10000000000E+01 0. -1.
    1000022    2    1    0    0    0  0.52917284894E+02  0.31265676093E+02  0.53355865741E+01  0.62500000679E+02  0.10000002932E+02 0.  0.
    3000022    2    3    3    0    0  0.24805099531E+02  0.11506545755E+02 -0.17506058351E+01  0.27401107243E+02  0.24999873242E+00 0.  0.
    1000022    2    1    0    0    0 -0.52917284894E+02 -0.31265676093E+02 -0.53355865741E+01  0.62499999321E+02  0.99999944478E+01 0.  0.
    3000022    2    5    5    0    0 -0.25867449919E+02 -0.11590174837E+02 -0.62357445249E+01  0.29024199014E+02  0.25000117803E+00 0.  0.
        -13    1    4    4    0    0  0.17204326333E+02  0.79605766778E+01 -0.12576572324E+01  0.18998746072E+02  0.10500000000E+00 0.  1.
         13    1    4    4    0    0  0.76007731988E+01  0.35459690777E+01 -0.49294860270E+00  0.84023611708E+01  0.10500000000E+00 0. -1.
    3000001    1    5    5    0    0 -0.27049834976E+02 -0.19675501255E+02  0.90015795086E+00  0.33475800307E+02  0.10000000000E+01 0. -1.
        -13    1    6    6    0    0 -0.15314025744E+02 -0.68962975208E+01 -0.37514225003E+01  0.17209372440E+02  0.10500000000E+00 0. -1.
         13    1    6    6    0    0 -0.10553424174E+02 -0.46938773167E+01 -0.24843220246E+01  0.11814826575E+02  0.10500000000E+00 0.  1.
</event>
<event>
11    0  0.3482988E-009  0.9118800E+02  0.7816531E-02  0.1126479E+00
         25   -1    0    0    0    0  0.00000000000E+00  0.00000000000E+00  0.99999998245E-14  0.12500000000E+03  0.12500000000E+03 0.  0.
    3000001    1    3    3    0    0  0.43976603295E+02  0.24812665770E+02  0.10231716661E+02  0.51529584180E+02  0.10000000000E+01 0. -1.
    1000022    2    1    0    0    0  0.52303153449E+02  0.28268646123E+02  0.16477688291E+02  0.62499994454E+02  0.99999440472E+01 0.  0.
    3000022    2    3    3    0    0  0.83265501542E+01  0.34559803536E+01  0.62459716303E+01  0.10970410274E+02  0.25000458091E+00 0.  0.
    1000022    2    1    0    0    0 -0.52303153449E+02 -0.28268646123E+02 -0.16477688291E+02  0.62500005546E+02  0.10000013378E+02 0.  0.
    3000022    2    5    5    0    0 -0.32902185855E+02 -0.23045074176E+02 -0.10789321600E+02  0.41594485628E+02  0.24999245011E+00 0.  0.
        -13    1    4    4    0    0  0.42628521056E+01  0.16959461603E+01  0.31760040925E+01  0.55808752404E+01  0.10500000000E+00 0. -1.
         13    1    4    4    0    0  0.40636980486E+01  0.17600341933E+01  0.30699675378E+01  0.53895350333E+01  0.10500000000E+00 0.  1.
    3000001    1    5    5    0    0 -0.19400967593E+02 -0.52235719468E+01 -0.56883666906E+01  0.20905519918E+02  0.10000000000E+01 0.  1.
        -13    1    6    6    0    0 -0.13746101680E+02 -0.96630541322E+01 -0.44531161266E+01  0.17383072076E+02  0.10500000000E+00 0. -1.
         13    1    6    6    0    0 -0.19156084175E+02 -0.13382020044E+02 -0.63362054737E+01  0.24211413552E+02  0.10500000000E+00 0.  1.
</event>
<event>
11    0  0.3482988E-009  0.9118800E+02  0.7816531E-02  0.1126479E+00
         25   -1    0    0    0    0  0.00000000000E+00  0.00000000000E+00  0.99999998245E-14  0.12500000000E+03  0.12500000000E+03 0.  0.
    3000001    1    3    3    0    0  0.20266626240E+02 -0.59276816430E+01 -0.15244765441E+02  0.26062931956E+02  0.10000000000E+01 0.  1.
    1000022    2    1    0    0    0  0.49730141675E+02 -0.22689159956E+02 -0.28607081576E+02  0.62499999486E+02  0.99999924495E+01 0.  0.
    3000022    2    3    3    0    0  0.29463515435E+02 -0.16761478313E+02 -0.13362316135E+02  0.36437067530E+02  0.25000135586E+00 0.  0.
    1000022    2    1    0    0    0 -0.49730141675E+02  0.22689159956E+02  0.28607081576E+02  0.62500000514E+02  0.99999988723E+01 0.  0.
    3000022    2    5    5    0    0 -0.43354559955E+02  0.18964555937E+02  0.28090256959E+02  0.55030875730E+02  0.24999347090E+00 0.  0.
        -13    1    4    4    0    0  0.17202974199E+02 -0.97249565671E+01 -0.78285913920E+01  0.21255939634E+02  0.10500000000E+00 0. -1.
         13    1    4    4    0    0  0.12260541236E+02 -0.70365217456E+01 -0.55337247430E+01  0.15181127896E+02  0.10500000000E+00 0.  1.
    3000001    1    5    5    0    0 -0.63755817193E+01  0.37246040187E+01  0.51682461688E+00  0.74691247841E+01  0.10000000000E+01 0.  1.
        -13    1    6    6    0    0 -0.17129020304E+02  0.75514997894E+01  0.11149412733E+02  0.21788733670E+02  0.10500000000E+00 0. -1.
         13    1    6    6    0    0 -0.26225539652E+02  0.11413056148E+02  0.16940844226E+02  0.33242142060E+02  0.10500000000E+00 0.  1.
</event>
<event>
11    0  0.3482988E-009  0.9118800E+02  0.7816531E-02  0.1126479E+00
         25   -1    0    0    0    0  0.00000000000E+00  0.00000000000E+00  0.99999998245E-14  0.12500000000E+03  0.12500000000E+03 0.  0.
    3000001    1    3    3    0    0 -0.47826314953E+01 -0.59956606440E+00 -0.10734843642E+02  0.11809737995E+02  0.10000000000E+01 0.  1.
    1000022    2    1    0    0    0 -0.32457302455E+02 -0.20073154564E+02 -0.48475168714E+02  0.62500000375E+02  0.10000002409E+02 0.  0.
    3000022    2    3    3    0    0 -0.27674670960E+02 -0.19473588500E+02 -0.37740325072E+02  0.50690262380E+02  0.25000365201E+00 0.  0.
    1000022    2    1    0    0    0  0.32457302455E+02  0.20073154564E+02  0.48475168714E+02  0.62499999625E+02  0.99999977238E+01 0.  0.
    3000022    2    5    5    0    0  0.21793188091E+01 -0.40799218874E-01  0.41477299856E+00  0.22328521335E+01  0.24999392367E+00 0.  0.
        -13    1    4    4    0    0 -0.13725388097E+02 -0.96785183234E+01 -0.18829098815E+02  0.25231051951E+02  0.10500000000E+00 0. -1.
         13    1    4    4    0    0 -0.13949282863E+02 -0.97950701765E+01 -0.18911226257E+02  0.25459210429E+02  0.10500000000E+00 0.  1.
    3000001    1    5    5    0    0  0.30277983646E+02  0.20113953783E+02  0.48060395716E+02  0.60267147492E+02  0.10000000000E+01 0.  1.
        -13    1    6    6    0    0  0.82187057146E+00  0.43368932437E-02  0.98758746802E-01  0.83442695003E+00  0.10500000000E+00 0. -1.
         13    1    6    6    0    0  0.13574482377E+01 -0.45136112118E-01  0.31601425176E+00  0.13984251835E+01  0.10500000000E+00 0.  1.
</event>
<event>
11    0  0.3482988E-009  0.9118800E+02  0.7816531E-02  0.1126479E+00
         25   -1    0    0    0    0  0.00000000000E+00  0.00000000000E+00  0.99999998245E-14  0.12500000000E+03  0.12500000000E+03 0.  0.
    3000001    1    3    3    0    0 -0.28328681649E+02 -0.36091999547E+02 -0.38175622026E+02  0.59695265745E+02  0.10000000000E+01 0.  1.
    1000022    2    1    0    0    0 -0.27992486348E+02 -0.38734687576E+02 -0.39016595452E+02  0.62499999843E+02  0.99999973101E+01 0.  0.
    3000022    2    3    3    0    0  0.33619530166E+00 -0.26426880286E+01 -0.84097342592E+00  0.28047340979E+01  0.24993951227E+00 0.  0.
    1000022    2    1    0    0    0  0.27992486348E+02  0.38734687576E+02  0.39016595452E+02  0.62500000157E+02  0.99999992707E+01 0.  0.
    3000022    2    5    5    0    0  0.43312351892E+01  0.12904318955E+02  0.13302496163E+02  0.19034178507E+02  0.25000260681E+00 0.  0.
        -13    1    4    4    0    0  0.21810269650E+00 -0.12260134558E+01 -0.42110220529E+00  0.13187228091E+01  0.10500000000E+00 0.  1.
         13    1    4    4    0    0  0.11809260516E+00 -0.14166745728E+01 -0.41987122063E+00  0.14860112888E+01  0.10500000000E+00 0. -1.
    3000001    1    5    5    0    0  0.23661251159E+02  0.25830368621E+02  0.25714099289E+02  0.43465821650E+02  0.10000000000E+01 0. -1.
        -13    1    6    6    0    0  0.30130444108E+01  0.89463913459E+01  0.91596987126E+01  0.13153990278E+02  0.10500000000E+00 0.  1.
         13    1    6    6    0    0  0.13181907784E+01  0.39579276090E+01  0.41427974503E+01  0.58801882283E+01  0.10500000000E+00 0. -1.
</event>
<event>
11    0  0.3482988E-009  0.9118800E+02  0.7816531E-02  0.1126479E+00
         25   -1    0    0    0    0  0.00000000000E+00  0.00000000000E+00  0.99999998245E-14  0.12500000000E+03  0.12500000000E+03 0.  0.
    3000001    1    3    3    0    0 -0.53378358678E+01 -0.47693687559E+00 -0.74024124170E+01  0.91932404584E+01  0.10000000000E+01 0.  1.
    1000022    2    1    0    0    0 -0.50150839357E+02 -0.12012780406E+02 -0.33864972764E+02  0.62499999473E+02  0.99999986251E+01 0.  0.
    3000022    2    3    3    0    0 -0.44813003489E+02 -0.11535843530E+02 -0.26462560347E+02  0.53306759014E+02  0.24997764108E+00 0.  0.
    1000022    2    1    0    0    0  0.50150839357E+02  0.12012780406E+02  0.33864972764E+02  0.62500000527E+02  0.10000005218E+02 0.  0.
    3000022    2    5    5    0    0  0.21443583336E+02  0.68767213170E+01  0.20305865525E+02  0.30323377952E+02  0.25002676266E+00 0.  0.
        -13    1    4    4    0    0 -0.28889600488E+02 -0.74635467437E+01 -0.17122244013E+02  0.34401973946E+02  0.10500000000E+00 0.  1.
         13    1    4    4    0    0 -0.15923403001E+02 -0.40722967863E+01 -0.93403163341E+01  0.18904785068E+02  0.10500000000E+00 0. -1.
    3000001    1    5    5    0    0  0.28707256021E+02  0.51360590886E+01  0.13559107239E+02  0.32176622575E+02  0.10000000000E+01 0.  1.
        -13    1    6    6    0    0  0.13781320560E+02  0.43838461520E+01  0.13102905628E+02  0.19515123990E+02  0.10500000000E+00 0. -1.
         13    1    6    6    0    0  0.76622627764E+01  0.24928751650E+01  0.72029598970E+01  0.10808253963E+02  0.10500000000E+00 0.  1.
</event>
<event>
11    0  0.3482988E-009  0.9118800E+02  0.7816531E-02  0.1126479E+00
         25   -1    0    0    0    0  0.00000000000E+00  0.00000000000E+00  0.99999998245E-14  0.12500000000E+03  0.12500000000E+03 0.  0.
    3000001    1    3    3    0    0 -0.49337277393E+01 -0.47032434125E+02  0.32836113720E+01  0.47414909393E+02  0.10000000000E+01 0.  1.
    1000022    2    1    0    0    0 -0.97964574975E+01 -0.60912029596E+02 -0.64242395049E-01  0.62499999359E+02  0.99999931926E+01 0.  0.
    3000022    2    3    3    0    0 -0.48627297582E+01 -0.13879595471E+02 -0.33478537670E+01  0.15085089966E+02  0.25000661025E+00 0.  0.
    1000022    2    1    0    0    0  0.97964574975E+01  0.60912029596E+02  0.64242395049E-01  0.62500000641E+02  0.10000001200E+02 0.  0.
    3000022    2    5    5    0    0 -0.13293303898E+01  0.51934108877E+01 -0.17468043713E+01  0.56438002993E+01  0.25004074132E+00 0.  0.
        -13    1    4    4    0    0 -0.31930778212E+01 -0.89435498317E+01 -0.21513353390E+01  0.97376639039E+01  0.10500000000E+00 0.  1.
         13    1    4    4    0    0 -0.16696519370E+01 -0.49360456392E+01 -0.11965184281E+01  0.53474260623E+01  0.10500000000E+00 0. -1.
    3000001    1    5    5    0    0  0.11125787887E+02  0.55718618708E+02  0.18110467664E+01  0.56856200341E+02  0.10000000000E+01 0.  1.
        -13    1    6    6    0    0 -0.89289110842E+00  0.34826560745E+01 -0.11153519435E+01  0.37657911284E+01  0.10500000000E+00 0. -1.
         13    1    6    6    0    0 -0.43643928138E+00  0.17107548133E+01 -0.63145242786E+00  0.18780091709E+01  0.10500000000E+00 0.  1.
</event>
<event>
11    0  0.3482988E-009  0.9118800E+02  0.7816531E-02  0.1126479E+00
         25   -1    0    0    0    0  0.00000000000E+00  0.00000000000E+00  0.99999998245E-14  0.12500000000E+03  0.12500000000E+03 0.  0.
    3000001    1    3    3    0    0  0.13132035718E+02  0.23859582736E+00  0.55611887253E+00  0.13183950784E+02  0.10000000000E+01 0. -1.
    1000022    2    1    0    0    0  0.58288208087E+02  0.19211740518E+02  0.62963388233E+01  0.62500000348E+02  0.99999992615E+01 0.  0.
    3000022    2    3    3    0    0  0.45156172369E+02  0.18973144691E+02  0.57402199508E+01  0.49316049564E+02  0.24999419046E+00 0.  0.
    1000022    2    1    0    0    0 -0.58288208087E+02 -0.19211740518E+02 -0.62963388233E+01  0.62499999652E+02  0.99999949108E+01 0.  0.
    3000022    2    5    5    0    0 -0.11160811825E+01 -0.24727222044E+00 -0.17232288840E+01  0.20829781507E+01  0.24999886539E+00 0.  0.
        -13    1    4    4    0    0  0.32648788037E+02  0.13713637382E+02  0.41113790677E+01  0.35649988406E+02  0.10500000000E+00 0. -1.
         13    1    4    4    0    0  0.12507384332E+02  0.52595073088E+01  0.16288408831E+01  0.13666061158E+02  0.10500000000E+00 0.  1.
    3000001    1    5    5    0    0 -0.57172126904E+02 -0.18964468298E+02 -0.45731099393E+01  0.60417021501E+02  0.10000000000E+01 0. -1.
        -13    1    6    6    0    0 -0.83248155998E+00 -0.21359793457E+00 -0.12672819000E+01  0.15348218266E+01  0.10500000000E+00 0.  1.
         13    1    6    6    0    0 -0.28359962254E+00 -0.33674285873E-01 -0.45594698401E+00  0.54815632411E+00  0.10500000000E+00 0. -1.
</event>
<event>
11    0  0.3482988E-009  0.9118800E+02  0.7816531E-02  0.1126479E+00
         25   -1    0    0    0    0  0.00000000000E+00  0.00000000000E+00  0.99999998245E-14  0.12500000000E+03  0.12500000000E+03 0.  0.
    3000001    1    3    3    0    0  0.23709780539E+01  0.50370629696E+01 -0.41638674147E-01  0.56564365170E+01  0.10000000000E+01 0.  1.
    1000022    2    1    0    0    0  0.46299497973E+02  0.38483643287E+02  0.13476484042E+02  0.62500000276E+02  0.10000004954E+02 0.  0.
    3000022    2    3    3    0    0  0.43928519919E+02  0.33446580318E+02  0.13518122716E+02  0.56843563759E+02  0.25000351070E+00 0.  0.
    1000022    2    1    0    0    0 -0.46299497973E+02 -0.38483643287E+02 -0.13476484042E+02  0.62499999724E+02  0.10000001509E+02 0.  0.
    3000022    2    5    5    0    0 -0.72169374620E+01 -0.11307108869E+02 -0.28765676209E+01  0.13721225783E+02  0.24999680523E+00 0.  0.
        -13    1    4    4    0    0  0.23462135026E+02  0.17785455622E+02  0.71821175710E+01  0.30304917909E+02  0.10500000000E+00 0.  1.
         13    1    4    4    0    0  0.20466384893E+02  0.15661124696E+02  0.63360051451E+01  0.26538645850E+02  0.10500000000E+00 0. -1.
    3000001    1    5    5    0    0 -0.39082560511E+02 -0.27176534418E+02 -0.10599916421E+02  0.48778773941E+02  0.10000000000E+01 0.  1.
        -13    1    6    6    0    0 -0.50252464612E+01 -0.79225377367E+01 -0.19732488447E+01  0.95877235144E+01  0.10500000000E+00 0.  1.
         13    1    6    6    0    0 -0.21916910008E+01 -0.33845711323E+01 -0.90331877621E+00  0.41335022686E+01  0.10500000000E+00 0. -1.
</event>
<event>
11    0  0.3482988E-009  0.9118800E+02  0.7816531E-02  0.1126479E+00
         25   -1    0    0    0    0  0.00000000000E+00  0.00000000000E+00  0.99999998245E-14  0.12500000000E+03  0.12500000000E+03 0.  0.
    3000001    1    3    3    0    0  0.21752405784E+02 -0.13249017896E+02  0.17104097680E+02  0.30696152691E+02  0.10000000000E+01 0. -1.
    1000022    2    1    0    0    0  0.41657151143E+02 -0.34902142823E+02  0.29202261642E+02  0.62500001184E+02  0.10000012402E+02 0.  0.
    3000022    2    3    3    0    0  0.19904745358E+02 -0.21653124927E+02  0.12098163962E+02  0.31803848493E+02  0.25000159511E+00 0.  0.
    1000022    2    1    0    0    0 -0.41657151143E+02  0.34902142823E+02 -0.29202261642E+02  0.62499998816E+02  0.99999976011E+01 0.  0.
    3000022    2    5    5    0    0 -0.18977679189E+02  0.11341733908E+02 -0.15641174885E+02  0.27083132913E+02  0.25000235334E+00 0.  0.
        -13    1    4    4    0    0  0.53294397359E+01 -0.58055602549E+01  0.32794179309E+01  0.85365721889E+01  0.10500000000E+00 0.  1.
         13    1    4    4    0    0  0.14575305622E+02 -0.15847564672E+02  0.88187460315E+01  0.23267276304E+02  0.10500000000E+00 0. -1.
    3000001    1    5    5    0    0 -0.22679471954E+02  0.23560408915E+02 -0.13561086757E+02  0.35416865903E+02  0.10000000000E+01 0. -1.
        -13    1    6    6    0    0 -0.91263999024E+01  0.55305815783E+01 -0.75704464522E+01  0.13084387347E+02  0.10500000000E+00 0. -1.
         13    1    6    6    0    0 -0.98512792863E+01  0.58111523298E+01 -0.80707284327E+01  0.13998745566E+02  0.10500000000E+00 0.  1.
</event>
<event>
11    0  0.3482988E-009  0.9118800E+02  0.7816531E-02  0.1126479E+00
         25   -1    0    0    0    0  0.00000000000E+00  0.00000000000E+00  0.99999998245E-14  0.12500000000E+03  0.12500000000E+03 0.  0.
    3000001    1    3    3    0    0  0.18074955534E+01  0.43983459061E+00  0.47636046073E+01  0.52107987389E+01  0.10000000000E+01 0.  1.
    1000022    2    1    0    0    0  0.47128515221E+02  0.63553736967E+01  0.39303463036E+02  0.62500001439E+02  0.10000012576E+02 0.  0.
    3000022    2    3    3    0    0  0.45321019668E+02  0.59155391061E+01  0.34539858429E+02  0.57289202700E+02  0.24999828436E+00 0.  0.
    1000022    2    1    0    0    0 -0.47128515221E+02 -0.63553736967E+01 -0.39303463036E+02  0.62499998561E+02  0.99999945840E+01 0.  0.
    3000022    2    5    5    0    0 -0.25694922584E+02  0.13518340233E+01 -0.22440766878E+02  0.34142451666E+02  0.24997170976E+00 0.  0.
        -13    1    4    4    0    0  0.31228405640E+02  0.41183106860E+01  0.23834576864E+02  0.39500276973E+02  0.10500000000E+00 0.  1.
         13    1    4    4    0    0  0.14092614028E+02  0.17972284201E+01  0.10705281565E+02  0.17788925727E+02  0.10500000000E+00 0. -1.
    3000001    1    5    5    0    0 -0.21433592637E+02 -0.77072077200E+01 -0.16862696158E+02  0.28357546895E+02  0.10000000000E+01 0.  1.
        -13    1    6    6    0    0 -0.95489534626E+01  0.56017443565E+00 -0.83220816517E+01  0.12679289241E+02  0.10500000000E+00 0.  1.
         13    1    6    6    0    0 -0.16145969121E+02  0.79165958765E+00 -0.14118685226E+02  0.21463162425E+02  0.10500000000E+00 0. -1.
</event>
<event>
11    0  0.3482988E-009  0.9118800E+02  0.7816531E-02  0.1126479E+00
         25   -1    0    0    0    0  0.00000000000E+00  0.00000000000E+00  0.99999998245E-14  0.12500000000E+03  0.12500000000E+03 0.  0.
    3000001    1    3    3    0    0  0.24047128069E+02 -0.48205776345E+02  0.96138585622E+00  0.53888639843E+02  0.10000000000E+01 0. -1.
    1000022    2    1    0    0    0  0.30041618643E+02 -0.53865176704E+02 -0.15145551665E+01  0.62499999347E+02  0.99999964499E+01 0.  0.
    3000022    2    3    3    0    0  0.59944905733E+01 -0.56594003590E+01 -0.24759410227E+01  0.86113595036E+01  0.24999779089E+00 0.  0.
    1000022    2    1    0    0    0 -0.30041618643E+02  0.53865176704E+02  0.15145551665E+01  0.62500000653E+02  0.10000004617E+02 0.  0.
    3000022    2    5    5    0    0 -0.10000601393E+02  0.22432334895E+02  0.49319438680E+01  0.25052110699E+02  0.25000610524E+00 0.  0.
        -13    1    4    4    0    0  0.34429383874E+01 -0.33230692930E+01 -0.14760480739E+01  0.50086282735E+01  0.10500000000E+00 0.  1.
         13    1    4    4    0    0  0.25515521859E+01 -0.23363310660E+01 -0.99989294874E+00  0.36027312301E+01  0.10500000000E+00 0. -1.
    3000001    1    5    5    0    0 -0.20041017249E+02  0.31432841808E+02 -0.34173887015E+01  0.37447889955E+02  0.10000000000E+01 0. -1.
        -13    1    6    6    0    0 -0.60550726458E+01  0.13451987495E+02  0.29969672374E+01  0.15053661015E+02  0.10500000000E+00 0. -1.
         13    1    6    6    0    0 -0.39455287476E+01  0.89803473999E+01  0.19349766306E+01  0.99984496840E+01  0.10500000000E+00 0.  1.
</event>
<event>
11    0  0.3482988E-009  0.9118800E+02  0.7816531E-02  0.1126479E+00
         25   -1    0    0    0    0  0.00000000000E+00  0.00000000000E+00  0.99999998245E-14  0.12500000000E+03  0.12500000000E+03 0.  0.
    3000001    1    3    3    0    0 -0.95188886606E+01 -0.52457831672E+01  0.19492521449E+02  0.22340229963E+02  0.10000000000E+01 0.  1.
    1000022    2    1    0    0    0 -0.36023514783E+02 -0.67874918397E+01  0.49623445756E+02  0.62500000469E+02  0.10000001355E+02 0.  0.
    3000022    2    3    3    0    0 -0.26504626123E+02 -0.15417086725E+01  0.30130924307E+02  0.40159770505E+02  0.24999187988E+00 0.  0.
    1000022    2    1    0    0    0  0.36023514783E+02  0.67874918397E+01 -0.49623445756E+02  0.62499999531E+02  0.99999954955E+01 0.  0.
    3000022    2    5    5    0    0  0.33484737115E+01 -0.21538411519E+01 -0.68552257004E+01  0.79314518923E+01  0.25000362593E+00 0.  0.
        -13    1    4    4    0    0 -0.16280740525E+02 -0.10007453644E+01  0.18556939507E+02  0.24706983471E+02  0.10500000000E+00 0.  1.
         13    1    4    4    0    0 -0.10223885597E+02 -0.54096330812E+00  0.11573984799E+02  0.15452787035E+02  0.10500000000E+00 0. -1.
    3000001    1    5    5    0    0  0.32675041072E+02  0.89413329916E+01 -0.42768220055E+02  0.54568547639E+02  0.10000000000E+01 0.  1.
        -13    1    6    6    0    0  0.24571089316E+01 -0.15494713459E+01 -0.49450511820E+01  0.57360964032E+01  0.10500000000E+00 0.  1.
         13    1    6    6    0    0  0.89136477990E+00 -0.60436980606E+00 -0.19101745183E+01  0.21953554892E+01  0.10500000000E+00 0.  1.
</event>
<event>
11    0  0.3482988E-009  0.9118800E+02  0.7816531E-02  0.1126479E+00
         25   -1    0    0    0    0  0.00000000000E+00  0.00000000000E+00  0.99999998245E-14  0.12500000000E+03  0.12500000000E+03 0.  0.
    3000001    1    3    3    0    0 -0.53064556761E+00 -0.35038832582E+02  0.19209331886E+02  0.39974989743E+02  0.10000000000E+01 0. -1.
    1000022    2    1    0    0    0 -0.31584036130E+01 -0.57025549358E+02  0.23331550006E+02  0.62499998360E+02  0.99999888158E+01 0.  0.
    3000022    2    3    3    0    0 -0.26277580454E+01 -0.21986716775E+02  0.41222181207E+01  0.22525008617E+02  0.25000808121E+00 0.  0.
    1000022    2    1    0    0    0  0.31584036130E+01  0.57025549358E+02 -0.23331550006E+02  0.62500001640E+02  0.10000009320E+02 0.  0.
    3000022    2    5    5    0    0 -0.25560051125E+01  0.56523046418E+01 -0.35009183570E+01  0.71274570776E+01  0.25001030358E+00 0.  0.
        -13    1    4    4    0    0 -0.10717122552E+01 -0.86533086168E+01  0.15723159664E+01  0.88606726422E+01  0.10500000000E+00 0.  1.
         13    1    4    4    0    0 -0.15560457902E+01 -0.13333408159E+02  0.25499021543E+01  0.13664335975E+02  0.10500000000E+00 0. -1.
    3000001    1    5    5    0    0  0.57144087255E+01  0.51373244716E+02 -0.19830631649E+02  0.55372544563E+02  0.10000000000E+01 0. -1.
        -13    1    6    6    0    0 -0.10849667231E+01  0.22518371270E+01 -0.14313769829E+01  0.28823234211E+01  0.10500000000E+00 0.  1.
         13    1    6    6    0    0 -0.14710383893E+01  0.34004675148E+01 -0.20695413741E+01  0.42451336565E+01  0.10500000000E+00 0. -1.
</event>
<event>
11    0  0.3482988E-009  0.9118800E+02  0.7816531E-02  0.1126479E+00
         25   -1    0    0    0    0  0.00000000000E+00  0.00000000000E+00  0.99999998245E-14  0.12500000000E+03  0.12500000000E+03 0.  0.
    3000001    1    3    3    0    0 -0.46737198433E+01 -0.12564380431E+02 -0.23235365206E+02  0.26843798335E+02  0.10000000000E+01 0.  1.
    1000022    2    1    0    0    0 -0.35140061507E+01 -0.21386920432E+02 -0.57762457276E+02  0.62500000170E+02  0.99999972935E+01 0.  0.
    3000022    2    3    3    0    0  0.11597136926E+01 -0.88225400009E+01 -0.34527092070E+02  0.35656201835E+02  0.24998911691E+00 0.  0.
    1000022    2    1    0    0    0  0.35140061507E+01  0.21386920432E+02  0.57762457276E+02  0.62499999830E+02  0.99999951650E+01 0.  0.
    3000022    2    5    5    0    0  0.47599386853E+01  0.19005500764E+02  0.40383406453E+02  0.44885945355E+02  0.24999618074E+00 0.  0.
        -13    1    4    4    0    0  0.35948319055E+00 -0.26574928203E+01 -0.10591285203E+02  0.10926016818E+02  0.10500000000E+00 0. -1.
         13    1    4    4    0    0  0.80023050210E+00 -0.61650471807E+01 -0.23935806867E+02  0.24730185017E+02  0.10500000000E+00 0.  1.
    3000001    1    5    5    0    0 -0.12459325347E+01  0.23814196686E+01  0.17379050823E+02  0.17614054474E+02  0.10000000000E+01 0.  1.
        -13    1    6    6    0    0  0.23125224267E+01  0.94507356687E+01  0.19956436922E+02  0.22202129724E+02  0.10500000000E+00 0.  1.
         13    1    6    6    0    0  0.24474162586E+01  0.95547650950E+01  0.20426969531E+02  0.22683815631E+02  0.10500000000E+00 0. -1.
</event>
<event>
11    0  0.3482988E-009  0.9118800E+02  0.7816531E-02  0.1126479E+00
         25   -1    0    0    0    0  0.00000000000E+00  0.00000000000E+00  0.99999998245E-14  0.12500000000E+03  0.12500000000E+03 0.  0.
    3000001    1    3    3    0    0  0.40850168951E+02  0.28335785318E+02 -0.10369131956E+01  0.49736588362E+02  0.10000000000E+01 0.  1.
    1000022    2    1    0    0    0  0.51675626108E+02  0.33544074962E+02  0.32671977162E+01  0.62500000019E+02  0.10000006136E+02 0.  0.
    3000022    2    3    3    0    0  0.10825457157E+02  0.52082896446E+01  0.43041109118E+01  0.12763411657E+02  0.25000541913E+00 0.  0.
    1000022    2    1    0    0    0 -0.51675626108E+02 -0.33544074962E+02 -0.32671977162E+01  0.62499999981E+02  0.10000005898E+02 0.  0.
    3000022    2    5    5    0    0 -0.45770661525E+00 -0.23293099437E+01 -0.55182470274E+00  0.24499368423E+01  0.24999973861E+00 0.  0.
        -13    1    4    4    0    0  0.48498272231E+01  0.22637542648E+01  0.18941581591E+01  0.56784036134E+01  0.10500000000E+00 0.  1.
         13    1    4    4    0    0  0.59756299337E+01  0.29445353798E+01  0.24099527527E+01  0.70850080436E+01  0.10500000000E+00 0. -1.
    3000001    1    5    5    0    0 -0.51217919493E+02 -0.31214765019E+02 -0.27153730135E+01  0.60050063139E+02  0.10000000000E+01 0.  1.
        -13    1    6    6    0    0 -0.23172566143E+00 -0.93671338894E+00 -0.18027270456E+00  0.98724465214E+00  0.10500000000E+00 0. -1.
         13    1    6    6    0    0 -0.22598095381E+00 -0.13925965548E+01 -0.37155199818E+00  0.14626921902E+01  0.10500000000E+00 0.  1.
</event>
<event>
11    0  0.3482988E-009  0.9118800E+02  0.7816531E-02  0.1126479E+00
         25   -1    0    0    0    0  0.00000000000E+00  0.00000000000E+00  0.99999998245E-14  0.12500000000E+03  0.12500000000E+03 0.  0.
    3000001    1    3    3    0    0 -0.99696726884E+01  0.75205246056E+00 -0.49487097014E+01  0.11200432319E+02  0.10000000000E+01 0.  1.
    1000022    2    1    0    0    0 -0.59476248999E+02 -0.10039377522E+02 -0.12962896309E+02  0.62500000975E+02  0.10000007254E+02 0.  0.
    3000022    2    3    3    0    0 -0.49506576311E+02 -0.10791429983E+02 -0.80141866072E+01  0.51299568656E+02  0.24999644443E+00 0.  0.
    1000022    2    1    0    0    0  0.59476248999E+02  0.10039377522E+02  0.12962896309E+02  0.62499999025E+02  0.99999950711E+01 0.  0.
    3000022    2    5    5    0    0  0.23988845862E+01  0.15342845298E+01 -0.11535784923E+01  0.30825184667E+01  0.25000096665E+00 0.  0.
        -13    1    4    4    0    0 -0.23080741288E+02 -0.50888832589E+01 -0.37011541045E+01  0.23923355073E+02  0.10500000000E+00 0. -1.
         13    1    4    4    0    0 -0.26425835022E+02 -0.57025467239E+01 -0.43130325027E+01  0.27376213583E+02  0.10500000000E+00 0.  1.
    3000001    1    5    5    0    0  0.57077364413E+02  0.85050929924E+01  0.14116474801E+02  0.59417480559E+02  0.10000000000E+01 0. -1.
        -13    1    6    6    0    0  0.64567074820E+00  0.45599660746E+00 -0.30623895352E+00  0.85418435818E+00  0.10500000000E+00 0.  1.
         13    1    6    6    0    0  0.17532138380E+01  0.10782879224E+01 -0.84733953874E+00  0.22283341085E+01  0.10500000000E+00 0. -1.
</event>
<event>
11    0  0.3482988E-009  0.9118800E+02  0.7816531E-02  0.1126479E+00
         25   -1    0    0    0    0  0.00000000000E+00  0.00000000000E+00  0.99999998245E-14  0.12500000000E+03  0.12500000000E+03 0.  0.
    3000001    1    3    3    0    0 -0.40037593892E+01 -0.28282764206E+01  0.42959817170E+02  0.43250145988E+02  0.10000000000E+01 0.  1.
    1000022    2    1    0    0    0  0.11539448564E+00 -0.69752311616E+01  0.61299119420E+02  0.62500007369E+02  0.10000085688E+02 0.  0.
    3000022    2    3    3    0    0  0.41191538748E+01 -0.41469547409E+01  0.18339302250E+02  0.19249861380E+02  0.24998772831E+00 0.  0.
    1000022    2    1    0    0    0 -0.11539448564E+00  0.69752311616E+01 -0.61299119420E+02  0.62499992631E+02  0.99999935773E+01 0.  0.
    3000022    2    5    5    0    0 -0.30556448212E+01 -0.11719234790E+01 -0.12257408506E+02  0.12689244693E+02  0.24999535685E+00 0.  0.
        -13    1    4    4    0    0  0.16039258066E+01 -0.16035657959E+01  0.69182468515E+01  0.72812887426E+01  0.10500000000E+00 0.  1.
         13    1    4    4    0    0  0.25152280682E+01 -0.25433889451E+01  0.11421055399E+02  0.11968572638E+02  0.10500000000E+00 0. -1.
    3000001    1    5    5    0    0  0.29402503355E+01  0.81471546405E+01 -0.49041710914E+02  0.49810747938E+02  0.10000000000E+01 0. -1.
        -13    1    6    6    0    0 -0.23062718984E+01 -0.89519224556E+00 -0.91672885699E+01  0.94958129694E+01  0.10500000000E+00 0. -1.
         13    1    6    6    0    0 -0.74937292279E+00 -0.27673123339E+00 -0.30901199361E+01  0.31934317235E+01  0.10500000000E+00 0.  1.
</event>
<event>
11    0  0.3482988E-009  0.9118800E+02  0.7816531E-02  0.1126479E+00
         25   -1    0    0    0    0  0.00000000000E+00  0.00000000000E+00  0.99999998245E-14  0.12500000000E+03  0.12500000000E+03 0.  0.
    3000001    1    3    3    0    0  0.21351599909E+02 -0.34501692529E+02 -0.10223343562E+02  0.41854203607E+02  0.10000000000E+01 0. -1.
    1000022    2    1    0    0    0  0.35101544051E+02 -0.46896668522E+02 -0.19360631339E+02  0.62500000305E+02  0.10000003954E+02 0.  0.
    3000022    2    3    3    0    0  0.13749944143E+02 -0.12394975993E+02 -0.91372877772E+01  0.20645796698E+02  0.24999915092E+00 0.  0.
    1000022    2    1    0    0    0 -0.35101544051E+02  0.46896668522E+02  0.19360631339E+02  0.62499999695E+02  0.10000000142E+02 0.  0.
    3000022    2    5    5    0    0 -0.20163557677E+02  0.24103054852E+02  0.54807562105E+01  0.31900274294E+02  0.25000000516E+00 0.  0.
        -13    1    4    4    0    0  0.83628100369E+01 -0.75212995390E+01 -0.56193477392E+01  0.12573568805E+02  0.10500000000E+00 0. -1.
         13    1    4    4    0    0  0.53871341056E+01 -0.48736764537E+01 -0.35179400380E+01  0.80722278931E+01  0.10500000000E+00 0.  1.
    3000001    1    5    5    0    0 -0.14937986374E+02  0.22793613670E+02  0.13879875129E+02  0.30599725401E+02  0.10000000000E+01 0.  1.
        -13    1    6    6    0    0 -0.81187527117E+01  0.97791161461E+01  0.22594096221E+01  0.12909733345E+02  0.10500000000E+00 0. -1.
         13    1    6    6    0    0 -0.12044804966E+02  0.14323938706E+02  0.32213465884E+01  0.18990540949E+02  0.10500000000E+00 0.  1.
</event>
<event>
11    0  0.3482988E-009  0.9118800E+02  0.7816531E-02  0.1126479E+00
         25   -1    0    0    0    0  0.00000000000E+00  0.00000000000E+00  0.99999998245E-14  0.12500000000E+03  0.12500000000E+03 0.  0.
    3000001    1    3    3    0    0 -0.26564562856E+01  0.17926840718E+02 -0.19553988956E+01  0.18255190028E+02  0.10000000000E+01 0.  1.
    1000022    2    1    0    0    0 -0.10711098674E+02  0.60165490193E+02  0.84638140779E+01  0.62500000562E+02  0.10000003826E+02 0.  0.
    3000022    2    3    3    0    0 -0.80546423882E+01  0.42238649475E+02  0.10419212974E+02  0.44244810534E+02  0.24997337985E+00 0.  0.
    1000022    2    1    0    0    0  0.10711098674E+02 -0.60165490193E+02 -0.84638140779E+01  0.62499999438E+02  0.99999968031E+01 0.  0.
    3000022    2    5    5    0    0  0.61855357520E+01 -0.40060651634E+02 -0.10185296205E+02  0.41796165157E+02  0.25000225933E+00 0.  0.
        -13    1    4    4    0    0 -0.61625033890E+01  0.32247122719E+02  0.79648377271E+01  0.33783176829E+02  0.10500000000E+00 0. -1.
         13    1    4    4    0    0 -0.18921389992E+01  0.99915267560E+01  0.24543752464E+01  0.10461633704E+02  0.10500000000E+00 0.  1.
    3000001    1    5    5    0    0  0.45255629218E+01 -0.20104838559E+02  0.17214821274E+01  0.20703834281E+02  0.10000000000E+01 0. -1.
        -13    1    6    6    0    0  0.27804182573E+01 -0.18238274380E+02 -0.45770464648E+01  0.19008570630E+02  0.10500000000E+00 0. -1.
         13    1    6    6    0    0  0.34051174947E+01 -0.21822377254E+02 -0.56082497405E+01  0.22787594527E+02  0.10500000000E+00 0.  1.
</event>
<event>
11    0  0.3482988E-009  0.9118800E+02  0.7816531E-02  0.1126479E+00
         25   -1    0    0    0    0  0.00000000000E+00  0.00000000000E+00  0.99999998245E-14  0.12500000000E+03  0.12500000000E+03 0.  0.
    3000001    1    3    3    0    0 -0.32657840232E+02 -0.35678988656E+02 -0.28743076499E+02  0.56273343660E+02  0.10000000000E+01 0.  1.
    1000022    2    1    0    0    0 -0.36354060240E+02 -0.40683322729E+02 -0.28801033612E+02  0.62500000984E+02  0.10000007082E+02 0.  0.
    3000022    2    3    3    0    0 -0.36962200076E+01 -0.50043340739E+01 -0.57957112752E-01  0.62266573232E+01  0.25000105108E+00 0.  0.
    1000022    2    1    0    0    0  0.36354060240E+02  0.40683322729E+02  0.28801033612E+02  0.62499999016E+02  0.99999947866E+01 0.  0.
    3000022    2    5    5    0    0  0.26439359916E+02  0.31490583117E+02  0.26020278921E+02  0.48660189020E+02  0.25000504965E+00 0.  0.
        -13    1    4    4    0    0 -0.24016283101E+01 -0.32904572059E+01  0.12779574986E-01  0.40750601813E+01  0.10500000000E+00 0.  1.
         13    1    4    4    0    0 -0.12945916975E+01 -0.17138768681E+01 -0.70736687738E-01  0.21515971419E+01  0.10500000000E+00 0. -1.
    3000001    1    5    5    0    0  0.99147003232E+01  0.91927396129E+01  0.27807546910E+01  0.13839809997E+02  0.10000000000E+01 0.  1.
        -13    1    6    6    0    0  0.13516780088E+02  0.16162052391E+02  0.13397334515E+02  0.24968277444E+02  0.10500000000E+00 0. -1.
         13    1    6    6    0    0  0.12922579829E+02  0.15328530726E+02  0.12622944406E+02  0.23691911576E+02  0.10500000000E+00 0.  1.
</event>
<event>
11    0  0.3482988E-009  0.9118800E+02  0.7816531E-02  0.1126479E+00
         25   -1    0    0    0    0  0.00000000000E+00  0.00000000000E+00  0.99999998245E-14  0.12500000000E+03  0.12500000000E+03 0.  0.
    3000001    1    3    3    0    0 -0.40240049675E+01 -0.33910024652E+01  0.61132072965E+01  0.81279036133E+01  0.10000000000E+01 0.  1.
    1000022    2    1    0    0    0 -0.42347961327E+02 -0.41318673976E+01  0.44674682463E+02  0.62499995542E+02  0.10000001644E+02 0.  0.
    3000022    2    3    3    0    0 -0.38323956359E+02 -0.74086493238E+00  0.38561475166E+02  0.54372091929E+02  0.25000364728E+00 0.  0.
    1000022    2    1    0    0    0  0.42347961327E+02  0.41318673976E+01 -0.44674682463E+02  0.62500004458E+02  0.10000057370E+02 0.  0.
    3000022    2    5    5    0    0  0.28312121823E+02  0.14667641101E+01 -0.35741829670E+02  0.45620921985E+02  0.24999110129E+00 0.  0.
        -13    1    4    4    0    0 -0.27736093519E+02 -0.53854467426E+00  0.27961991326E+02  0.39388639200E+02  0.10500000000E+00 0.  1.
         13    1    4    4    0    0 -0.10587862840E+02 -0.20232025811E+00  0.10599483840E+02  0.14983452729E+02  0.10500000000E+00 0. -1.
    3000001    1    5    5    0    0  0.14035839504E+02  0.26651032875E+01 -0.89328527925E+01  0.16879082473E+02  0.10000000000E+01 0. -1.
        -13    1    6    6    0    0  0.12129716767E+02  0.67782989239E+00 -0.15247153916E+02  0.19495543330E+02  0.10500000000E+00 0.  1.
         13    1    6    6    0    0  0.16182405056E+02  0.78893421770E+00 -0.20494675754E+02  0.26125378655E+02  0.10500000000E+00 0. -1.
</event>
<event>
11    0  0.3482988E-009  0.9118800E+02  0.7816531E-02  0.1126479E+00
         25   -1    0    0    0    0  0.00000000000E+00  0.00000000000E+00  0.99999998245E-14  0.12500000000E+03  0.12500000000E+03 0.  0.
    3000001    1    3    3    0    0 -0.29682695987E+01  0.13215043069E+02  0.36073652969E+00  0.13585952987E+02  0.10000000000E+01 0. -1.
    1000022    2    1    0    0    0 -0.28053085226E+02  0.53833542495E+02  0.11010190102E+02  0.62499998373E+02  0.99999811178E+01 0.  0.
    3000022    2    3    3    0    0 -0.25084815627E+02  0.40618499426E+02  0.10649453572E+02  0.48914045386E+02  0.25000800870E+00 0.  0.
    1000022    2    1    0    0    0  0.28053085226E+02 -0.53833542495E+02 -0.11010190102E+02  0.62500001627E+02  0.10000001455E+02 0.  0.
    3000022    2    5    5    0    0  0.71192305385E+01 -0.61816088647E+01 -0.24396779752E+01  0.97421896098E+01  0.24999630668E+00 0.  0.
        -13    1    4    4    0    0 -0.76666855213E+01  0.12341762806E+02  0.32692933461E+01  0.14892833177E+02  0.10500000000E+00 0. -1.
         13    1    4    4    0    0 -0.17418130106E+02  0.28276736620E+02  0.73801602263E+01  0.34021212210E+02  0.10500000000E+00 0.  1.
    3000001    1    5    5    0    0  0.20933854687E+02 -0.47651933630E+02 -0.85705121269E+01  0.52757812017E+02  0.10000000000E+01 0.  1.
        -13    1    6    6    0    0  0.17295942375E+01 -0.14878239790E+01 -0.57201554660E+00  0.23544305478E+01  0.10500000000E+00 0. -1.
         13    1    6    6    0    0  0.53896363011E+01 -0.46937848857E+01 -0.18676624286E+01  0.73877590620E+01  0.10500000000E+00 0.  1.
</event>
<event>
11    0  0.3482988E-009  0.9118800E+02  0.7816531E-02  0.1126479E+00
         25   -1    0    0    0    0  0.00000000000E+00  0.00000000000E+00  0.99999998245E-14  0.12500000000E+03  0.12500000000E+03 0.  0.
    3000001    1    3    3    0    0  0.14539957427E+02  0.27455165050E+02  0.21767820942E+02  0.37947786213E+02  0.10000000000E+01 0.  1.
    1000022    2    1    0    0    0  0.16244851510E+02  0.46024988176E+02  0.37736655090E+02  0.62499999244E+02  0.10000001547E+02 0.  0.
    3000022    2    3    3    0    0  0.17048940826E+01  0.18569823126E+02  0.15968834148E+02  0.24552213031E+02  0.25001180527E+00 0.  0.
    1000022    2    1    0    0    0 -0.16244851510E+02 -0.46024988176E+02 -0.37736655090E+02  0.62500000756E+02  0.10000010997E+02 0.  0.
    3000022    2    5    5    0    0 -0.38414584462E+01 -0.19434477456E+02 -0.20243964765E+02  0.28325541950E+02  0.25000080712E+00 0.  0.
        -13    1    4    4    0    0  0.47661449055E+00  0.49726122014E+01  0.43163881608E+01  0.66027467946E+01  0.10500000000E+00 0.  1.
         13    1    4    4    0    0  0.12282795921E+01  0.13597210925E+02  0.11652445987E+02  0.17949466237E+02  0.10500000000E+00 0. -1.
    3000001    1    5    5    0    0 -0.12403393064E+02 -0.26590510721E+02 -0.17492690325E+02  0.34174458806E+02  0.10000000000E+01 0. -1.
        -13    1    6    6    0    0 -0.11048744421E+01 -0.58249673381E+01 -0.60574773397E+01  0.84767357363E+01  0.10500000000E+00 0.  1.
         13    1    6    6    0    0 -0.27365840041E+01 -0.13609510118E+02 -0.14186487425E+02  0.19848806214E+02  0.10500000000E+00 0. -1.
</event>
<event>
11    0  0.3482988E-009  0.9118800E+02  0.7816531E-02  0.1126479E+00
         25   -1    0    0    0    0  0.00000000000E+00  0.00000000000E+00  0.99999998245E-14  0.12500000000E+03  0.12500000000E+03 0.  0.
    3000001    1    3    3    0    0  0.20181539999E+02  0.43107911938E+02 -0.32716521841E+02  0.57766403989E+02  0.10000000000E+01 0.  1.
    1000022    2    1    0    0    0  0.19014216652E+02  0.46899704694E+02 -0.35286364089E+02  0.62499999168E+02  0.99999835025E+01 0.  0.
    3000022    2    3    3    0    0 -0.11673233466E+01  0.37917927561E+01 -0.25698422481E+01  0.47335951793E+01  0.24999608190E+00 0.  0.
    1000022    2    1    0    0    0 -0.19014216652E+02 -0.46899704694E+02  0.35286364089E+02  0.62500000832E+02  0.99999939045E+01 0.  0.
    3000022    2    5    5    0    0 -0.71317613523E+00 -0.70499896529E+01  0.17977957816E+01  0.73147484529E+01  0.25000190169E+00 0.  0.
        -13    1    4    4    0    0 -0.60832012512E+00  0.18822995038E+01 -0.13550008744E+01  0.24000327427E+01  0.10500000000E+00 0.  1.
         13    1    4    4    0    0 -0.55900322152E+00  0.19094932523E+01 -0.12148413737E+01  0.23335624366E+01  0.10500000000E+00 0. -1.
    3000001    1    5    5    0    0 -0.18301040517E+02 -0.39849715041E+02  0.33488568308E+02  0.55185252379E+02  0.10000000000E+01 0.  1.
        -13    1    6    6    0    0 -0.16929991787E+00 -0.18398696114E+01  0.49747309348E+00  0.19163212486E+01  0.10500000000E+00 0. -1.
         13    1    6    6    0    0 -0.54387621737E+00 -0.52101200414E+01  0.13003226882E+01  0.53984272042E+01  0.10500000000E+00 0.  1.
</event>
<event>
11    0  0.3482988E-009  0.9118800E+02  0.7816531E-02  0.1126479E+00
         25   -1    0    0    0    0  0.00000000000E+00  0.00000000000E+00  0.99999998245E-14  0.12500000000E+03  0.12500000000E+03 0.  0.
    3000001    1    3    3    0    0  0.49341974113E+02 -0.20347961727E+00 -0.37570119499E+02  0.62025685748E+02  0.10000000000E+01 0. -1.
    1000022    2    1    0    0    0  0.49007855508E+02 -0.40752463307E+00 -0.37474180804E+02  0.62499999312E+02  0.99999854595E+01 0.  0.
    3000022    2    3    3    0    0 -0.33411860429E+00 -0.20404501580E+00  0.95938694735E-01  0.47431356438E+00  0.24999902800E+00 0.  0.
    1000022    2    1    0    0    0 -0.49007855508E+02  0.40752463307E+00  0.37474180804E+02  0.62500000688E+02  0.99999940596E+01 0.  0.
    3000022    2    5    5    0    0 -0.27347477114E+02 -0.46069765512E+01  0.19717837243E+02  0.34028875825E+02  0.25009379920E+00 0.  0.
        -13    1    4    4    0    0 -0.26723863754E+00 -0.10710250461E+00  0.71032253102E-01  0.31457593180E+00  0.10500000000E+00 0. -1.
         13    1    4    4    0    0 -0.66879966756E-01 -0.96942511189E-01  0.24906441634E-01  0.15973763258E+00  0.10500000000E+00 0.  1.
    3000001    1    5    5    0    0 -0.21660378394E+02  0.50145011842E+01  0.17756343561E+02  0.28471124863E+02  0.10000000000E+01 0. -1.
        -13    1    6    6    0    0 -0.10577602474E+02 -0.17941709263E+01  0.77024791957E+01  0.13207722520E+02  0.10500000000E+00 0. -1.
         13    1    6    6    0    0 -0.16769874640E+02 -0.28128056249E+01  0.12015358047E+02  0.20821153305E+02  0.10500000000E+00 0.  1.
</event>
<event>
11    0  0.3482988E-009  0.9118800E+02  0.7816531E-02  0.1126479E+00
         25   -1    0    0    0    0  0.00000000000E+00  0.00000000000E+00  0.99999998245E-14  0.12500000000E+03  0.12500000000E+03 0.  0.
    3000001    1    3    3    0    0  0.82571371403E+01 -0.16067178875E+01  0.10281422140E+02  0.13321767801E+02  0.10000000000E+01 0.  1.
    1000022    2    1    0    0    0  0.50700331519E+02 -0.14994747675E+01  0.35120903772E+02  0.62500000740E+02  0.10000008502E+02 0.  0.
    3000022    2    3    3    0    0  0.42443194379E+02  0.10724311995E+00  0.24839481632E+02  0.49178232939E+02  0.24999420922E+00 0.  0.
    1000022    2    1    0    0    0 -0.50700331519E+02  0.14994747675E+01 -0.35120903772E+02  0.62499999260E+02  0.99999992464E+01 0.  0.
    3000022    2    5    5    0    0 -0.10695003508E+02  0.43012257750E+01 -0.66837253625E+01  0.13327352454E+02  0.24999099764E+00 0.  0.
        -13    1    4    4    0    0  0.10266690510E+02  0.38590095344E-01  0.59894788569E+01  0.11886601920E+02  0.10500000000E+00 0.  1.
         13    1    4    4    0    0  0.32176503869E+02  0.68653024607E-01  0.18850002775E+02  0.37291631019E+02  0.10500000000E+00 0. -1.
    3000001    1    5    5    0    0 -0.40005328011E+02 -0.28017510074E+01 -0.28437178409E+02  0.49172646806E+02  0.10000000000E+01 0. -1.
        -13    1    6    6    0    0 -0.81794667228E+01  0.32742490472E+01 -0.51007965903E+01  0.10181037941E+02  0.10500000000E+00 0. -1.
         13    1    6    6    0    0 -0.25155367852E+01  0.10269767278E+01 -0.15829287723E+01  0.31463145131E+01  0.10500000000E+00 0.  1.
</event>
<event>
11    0  0.3482988E-009  0.9118800E+02  0.7816531E-02  0.1126479E+00
         25   -1    0    0    0    0  0.00000000000E+00  0.00000000000E+00  0.99999998245E-14  0.12500000000E+03  0.12500000000E+03 0.  0.
    3000001    1    3    3    0    0 -0.49426328431E+01 -0.22094513597E+02  0.55959118172E+01  0.23343336942E+02  0.10000000000E+01 0. -1.
    1000022    2    1    0    0    0 -0.24165695357E+02 -0.53632524575E+02  0.18596275153E+02  0.62499999397E+02  0.99999975304E+01 0.  0.
    3000022    2    3    3    0    0 -0.19223062514E+02 -0.31538010978E+02  0.13000363336E+02  0.39156662454E+02  0.24999772101E+00 0.  0.
    1000022    2    1    0    0    0  0.24165695357E+02  0.53632524575E+02 -0.18596275153E+02  0.62500000603E+02  0.10000005074E+02 0.  0.
    3000022    2    5    5    0    0 -0.43125565191E+00  0.49990109546E+01 -0.42398760071E+00  0.50416619493E+01  0.24999552827E+00 0.  0.
        -13    1    4    4    0    0 -0.63429841962E+01 -0.10489228158E+02  0.42814661650E+01  0.12984580601E+02  0.10500000000E+00 0.  1.
         13    1    4    4    0    0 -0.12880078318E+02 -0.21048782820E+02  0.87188971705E+01  0.26172081853E+02  0.10500000000E+00 0. -1.
    3000001    1    5    5    0    0  0.24596951009E+02  0.48633513621E+02 -0.18172287552E+02  0.57458338654E+02  0.10000000000E+01 0. -1.
        -13    1    6    6    0    0 -0.20021650749E+00  0.23585466634E+01 -0.26765751965E+00  0.23844275123E+01  0.10500000000E+00 0. -1.
         13    1    6    6    0    0 -0.23103914442E+00  0.26404642912E+01 -0.15633008106E+00  0.26572344371E+01  0.10500000000E+00 0.  1.
</event>
<event>
11    0  0.3482988E-009  0.9118800E+02  0.7816531E-02  0.1126479E+00
         25   -1    0    0    0    0  0.00000000000E+00  0.00000000000E+00  0.99999998245E-14  0.12500000000E+03  0.12500000000E+03 0.  0.
    3000001    1    3    3    0    0  0.14373717505E+00 -0.34854780324E+01 -0.24846220917E+01  0.43980182388E+01  0.10000000000E+01 0.  1.
    1000022    2    1    0    0    0  0.34309932517E+02 -0.41692545786E+02 -0.29846438541E+02  0.62500001333E+02  0.10000021480E+02 0.  0.
    3000022    2    3    3    0    0  0.34166195342E+02 -0.38207067754E+02 -0.27361816449E+02  0.58101983094E+02  0.25001919899E+00 0.  0.
    1000022    2    1    0    0    0 -0.34309932517E+02  0.41692545786E+02  0.29846438541E+02  0.62499998667E+02  0.10000004821E+02 0.  0.
    3000022    2    5    5    0    0 -0.22972540033E+02  0.34144853675E+02  0.24031109848E+02  0.47656745239E+02  0.24999636424E+00 0.  0.
        -13    1    4    4    0    0  0.15383525228E+02 -0.17221717078E+02 -0.12401586251E+02  0.26211653021E+02  0.10500000000E+00 0. -1.
         13    1    4    4    0    0  0.18782670114E+02 -0.20985350676E+02 -0.14960230198E+02  0.31890330073E+02  0.10500000000E+00 0.  1.
    3000001    1    5    5    0    0 -0.11337392484E+02  0.75476921111E+01  0.58153286929E+01  0.14843253428E+02  0.10000000000E+01 0.  1.
        -13    1    6    6    0    0 -0.12954902089E+02  0.19252566839E+02  0.13626785926E+02  0.26910799648E+02  0.10500000000E+00 0.  1.
         13    1    6    6    0    0 -0.10017637944E+02  0.14892286836E+02  0.10404323921E+02  0.20745945591E+02  0.10500000000E+00 0. -1.
</event>
<event>
11    0  0.3482988E-009  0.9118800E+02  0.7816531E-02  0.1126479E+00
         25   -1    0    0    0    0  0.00000000000E+00  0.00000000000E+00  0.99999998245E-14  0.12500000000E+03  0.12500000000E+03 0.  0.
    3000001    1    3    3    0    0  0.44204975666E+01  0.28423189470E+02  0.55745218450E+01  0.29317124555E+02  0.10000000000E+01 0.  1.
    1000022    2    1    0    0    0  0.13870618949E+02  0.56512577511E+02  0.20498399130E+02  0.62499999161E+02  0.10000002064E+02 0.  0.
    3000022    2    3    3    0    0  0.94501213829E+01  0.28089388041E+02  0.14923877285E+02  0.33182874606E+02  0.25007845822E+00 0.  0.
    1000022    2    1    0    0    0 -0.13870618949E+02 -0.56512577511E+02 -0.20498399130E+02  0.62500000839E+02  0.10000012549E+02 0.  0.
    3000022    2    5    5    0    0 -0.12034735048E+02 -0.34737119090E+02 -0.16346144533E+02  0.40233831941E+02  0.25000242835E+00 0.  0.
        -13    1    4    4    0    0  0.42609334598E+01  0.12871593979E+02  0.68418383104E+01  0.15187338871E+02  0.10500000000E+00 0.  1.
         13    1    4    4    0    0  0.51891879230E+01  0.15217794062E+02  0.80820389743E+01  0.17995535735E+02  0.10500000000E+00 0. -1.
    3000001    1    5    5    0    0 -0.18358839017E+01 -0.21775458421E+02 -0.41522545963E+01  0.22266168898E+02  0.10000000000E+01 0. -1.
        -13    1    6    6    0    0 -0.57226440432E+01 -0.16693248932E+02 -0.78073237858E+01  0.19297112334E+02  0.10500000000E+00 0.  1.
         13    1    6    6    0    0 -0.63120910045E+01 -0.18043870158E+02 -0.85388207477E+01  0.20936719607E+02  0.10500000000E+00 0. -1.
</event>
<event>
11    0  0.3482988E-009  0.9118800E+02  0.7816531E-02  0.1126479E+00
         25   -1    0    0    0    0  0.00000000000E+00  0.00000000000E+00  0.99999998245E-14  0.12500000000E+03  0.12500000000E+03 0.  0.
    3000001    1    3    3    0    0  0.87378406687E+01  0.44519251267E+01  0.17977475925E+02  0.20502661718E+02  0.10000000000E+01 0. -1.
    1000022    2    1    0    0    0  0.14656465608E+02  0.20849631455E+02  0.56184793197E+02  0.62500000766E+02  0.99999996574E+01 0.  0.
    3000022    2    3    3    0    0  0.59186249397E+01  0.16397706328E+02  0.38207317272E+02  0.41997339048E+02  0.24999988285E+00 0.  0.
    1000022    2    1    0    0    0 -0.14656465608E+02 -0.20849631455E+02 -0.56184793197E+02  0.62499999234E+02  0.99999900858E+01 0.  0.
    3000022    2    5    5    0    0 -0.11439421268E+02 -0.86478218041E+01 -0.24641816240E+02  0.28511870007E+02  0.24988552462E+00 0.  0.
        -13    1    4    4    0    0  0.18569094712E+01  0.52166093499E+01  0.12031344010E+02  0.13244825011E+02  0.10500000000E+00 0. -1.
         13    1    4    4    0    0  0.40617154685E+01  0.11181096978E+02  0.26175973262E+02  0.28752514037E+02  0.10500000000E+00 0.  1.
    3000001    1    5    5    0    0 -0.32170443400E+01 -0.12201809651E+02 -0.31542976957E+02  0.33988129227E+02  0.10000000000E+01 0. -1.
        -13    1    6    6    0    0 -0.75740339356E+01 -0.57141139179E+01 -0.16408589413E+02  0.18954416885E+02  0.10500000000E+00 0. -1.
         13    1    6    6    0    0 -0.38653873328E+01 -0.29337078862E+01 -0.82332268275E+01  0.95574531224E+01  0.10500000000E+00 0.  1.
</event>
<event>
11    0  0.3482988E-009  0.9118800E+02  0.7816531E-02  0.1126479E+00
         25   -1    0    0    0    0  0.00000000000E+00  0.00000000000E+00  0.99999998245E-14  0.12500000000E+03  0.12500000000E+03 0.  0.
    3000001    1    3    3    0    0  0.28403919933E+01  0.12486988645E+02  0.11343864575E+02  0.17136976851E+02  0.10000000000E+01 0.  1.
    1000022    2    1    0    0    0  0.14137788590E+02  0.32842474938E+02  0.50276681408E+02  0.62499998397E+02  0.99999940025E+01 0.  0.
    3000022    2    3    3    0    0  0.11297396597E+02  0.20355486293E+02  0.38932816833E+02  0.45363021546E+02  0.25001042600E+00 0.  0.
    1000022    2    1    0    0    0 -0.14137788590E+02 -0.32842474938E+02 -0.50276681408E+02  0.62500001603E+02  0.10000014035E+02 0.  0.
    3000022    2    5    5    0    0 -0.87170030277E+01 -0.22492747465E+02 -0.25581747481E+02  0.35162453495E+02  0.25000264221E+00 0.  0.
        -13    1    4    4    0    0  0.45758472705E+01  0.81326140423E+01  0.15668211332E+02  0.18236821563E+02  0.10500000000E+00 0.  1.
         13    1    4    4    0    0  0.67215493261E+01  0.12222872250E+02  0.23264605501E+02  0.27126199983E+02  0.10500000000E+00 0. -1.
    3000001    1    5    5    0    0 -0.54207855623E+01 -0.10349727473E+02 -0.24694933927E+02  0.27337548107E+02  0.10000000000E+01 0.  1.
        -13    1    6    6    0    0 -0.46785933714E+01 -0.11922672648E+02 -0.13523589562E+02  0.18626267974E+02  0.10500000000E+00 0.  1.
         13    1    6    6    0    0 -0.40384096562E+01 -0.10570074817E+02 -0.12058157920E+02  0.16536185522E+02  0.10500000000E+00 0. -1.
</event>
<event>
11    0  0.3482988E-009  0.9118800E+02  0.7816531E-02  0.1126479E+00
         25   -1    0    0    0    0  0.00000000000E+00  0.00000000000E+00  0.99999998245E-14  0.12500000000E+03  0.12500000000E+03 0.  0.
    3000001    1    3    3    0    0  0.23780925564E+01 -0.22117397182E+01 -0.54774690511E+01  0.64459121925E+01  0.10000000000E+01 0. -1.
    1000022    2    1    0    0    0  0.44219081082E+02 -0.24901263554E+02 -0.35083473750E+02  0.62500000548E+02  0.99999939900E+01 0.  0.
    3000022    2    3    3    0    0  0.41840988526E+02 -0.22689523836E+02 -0.29606004698E+02  0.56054088355E+02  0.24998885011E+00 0.  0.
    1000022    2    1    0    0    0 -0.44219081082E+02  0.24901263554E+02  0.35083473750E+02  0.62499999452E+02  0.99999871432E+01 0.  0.
    3000022    2    5    5    0    0 -0.17915864119E+01 -0.76542118380E+00  0.24046728199E+01  0.31049235652E+01  0.24989500887E+00 0.  0.
        -13    1    4    4    0    0  0.27857894375E+02 -0.15046768772E+02 -0.19681479442E+02  0.37280547039E+02  0.10500000000E+00 0.  1.
         13    1    4    4    0    0  0.13983094150E+02 -0.76427550637E+01 -0.99245252569E+01  0.18773541316E+02  0.10500000000E+00 0. -1.
    3000001    1    5    5    0    0 -0.42427494670E+02  0.25666684738E+02  0.32678800930E+02  0.59395075887E+02  0.10000000000E+01 0.  1.
        -13    1    6    6    0    0 -0.12114928977E+01 -0.51142903985E+00  0.15345319563E+01  0.20236323848E+01  0.10500000000E+00 0. -1.
         13    1    6    6    0    0 -0.58009351420E+00 -0.25399214394E+00  0.87014086360E+00  0.10812911804E+01  0.10500000000E+00 0.  1.
</event>
<event>
11    0  0.3482988E-009  0.9118800E+02  0.7816531E-02  0.1126479E+00
         25   -1    0    0    0    0  0.00000000000E+00  0.00000000000E+00  0.99999998245E-14  0.12500000000E+03  0.12500000000E+03 0.  0.
    3000001    1    3    3    0    0  0.10244728552E+02  0.51308565312E+02  0.11928911021E+01  0.52344496623E+02  0.10000000000E+01 0. -1.
    1000022    2    1    0    0    0  0.11411392058E+02  0.60369045558E+02  0.56221538123E+01  0.62500000492E+02  0.99999958851E+01 0.  0.
    3000022    2    3    3    0    0  0.11666635060E+01  0.90604802460E+01  0.44292627102E+01  0.10155503869E+02  0.24996931766E+00 0.  0.
    1000022    2    1    0    0    0 -0.11411392058E+02 -0.60369045558E+02 -0.56221538123E+01  0.62499999508E+02  0.99999897367E+01 0.  0.
    3000022    2    5    5    0    0 -0.70361383554E+01 -0.14647529874E+02 -0.33200353190E+00  0.16255156213E+02  0.25000559406E+00 0.  0.
        -13    1    4    4    0    0  0.55910892338E+00  0.40747798123E+01  0.20578755463E+01  0.46002510878E+01  0.10500000000E+00 0.  1.
         13    1    4    4    0    0  0.60755458262E+00  0.49857004337E+01  0.23713871639E+01  0.55552527815E+01  0.10500000000E+00 0. -1.
    3000001    1    5    5    0    0 -0.43752537029E+01 -0.45721515684E+02 -0.52901502804E+01  0.46244843295E+02  0.10000000000E+01 0. -1.
        -13    1    6    6    0    0 -0.45835999345E+01 -0.94925602577E+01 -0.16279397258E+00  0.10543036350E+02  0.10500000000E+00 0. -1.
         13    1    6    6    0    0 -0.24525384209E+01 -0.51549696166E+01 -0.16920955932E+00  0.57121198630E+01  0.10500000000E+00 0.  1.
</event>
<event>
11    0  0.3482988E-009  0.9118800E+02  0.7816531E-02  0.1126479E+00
         25   -1    0    0    0    0  0.00000000000E+00  0.00000000000E+00  0.99999998245E-14  0.12500000000E+03  0.12500000000E+03 0.  0.
    3000001    1    3    3    0    0  0.18673651692E+02  0.37102676236E+02  0.28993243283E+02  0.50664800478E+02  0.10000000000E+01 0.  1.
    1000022    2    1    0    0    0  0.19408698726E+02  0.44163128139E+02  0.38459984433E+02  0.62500000625E+02  0.10000010118E+02 0.  0.
    3000022    2    3    3    0    0  0.73504703415E+00  0.70604519025E+01  0.94667411494E+01  0.11835200147E+02  0.24999864564E+00 0.  0.
    1000022    2    1    0    0    0 -0.19408698726E+02 -0.44163128139E+02 -0.38459984433E+02  0.62499999375E+02  0.10000002305E+02 0.  0.
    3000022    2    5    5    0    0 -0.14575096408E+02 -0.37090582018E+02 -0.26917315839E+02  0.48091050133E+02  0.25000236441E+00 0.  0.
        -13    1    4    4    0    0  0.47173658335E+00  0.47497879355E+01  0.62846841443E+01  0.78924838061E+01  0.10500000000E+00 0. -1.
         13    1    4    4    0    0  0.26331045080E+00  0.23106639670E+01  0.31820570051E+01  0.39427163410E+01  0.10500000000E+00 0.  1.
    3000001    1    5    5    0    0 -0.48336023179E+01 -0.70725461204E+01 -0.11542668593E+02  0.14408949242E+02  0.10000000000E+01 0.  1.
        -13    1    6    6    0    0 -0.42839334965E+01 -0.10840182914E+02 -0.79183038345E+01  0.14091565294E+02  0.10500000000E+00 0.  1.
         13    1    6    6    0    0 -0.10291162911E+02 -0.26250399104E+02 -0.18999012005E+02  0.33999484840E+02  0.10500000000E+00 0. -1.
</event>
<event>
11    0  0.3482988E-009  0.9118800E+02  0.7816531E-02  0.1126479E+00
         25   -1    0    0    0    0  0.00000000000E+00  0.00000000000E+00  0.99999998245E-14  0.12500000000E+03  0.12500000000E+03 0.  0.
    3000001    1    3    3    0    0  0.25053452952E+02 -0.20749219545E+02  0.14396996144E+02  0.35587625862E+02  0.10000000000E+01 0. -1.
    1000022    2    1    0    0    0  0.45189521057E+02 -0.29357356429E+02  0.30038355920E+02  0.62500000253E+02  0.10000000770E+02 0.  0.
    3000022    2    3    3    0    0  0.20136068106E+02 -0.86081368843E+01  0.15641359776E+02  0.26912374392E+02  0.25000072384E+00 0.  0.
    1000022    2    1    0    0    0 -0.45189521057E+02  0.29357356429E+02 -0.30038355920E+02  0.62499999747E+02  0.99999976033E+01 0.  0.
    3000022    2    5    5    0    0 -0.55163847636E+01  0.90790600870E+00 -0.98930879248E+00  0.56829590668E+01  0.24999537499E+00 0.  0.
        -13    1    4    4    0    0  0.10766832290E+02 -0.45924119150E+01  0.82786760629E+01  0.14337448417E+02  0.10500000000E+00 0. -1.
         13    1    4    4    0    0  0.93692358155E+01 -0.40157249692E+01  0.73626837131E+01  0.12574925974E+02  0.10500000000E+00 0.  1.
    3000001    1    5    5    0    0 -0.39673136294E+02  0.28449450421E+02 -0.29049047127E+02  0.56817040680E+02  0.10000000000E+01 0. -1.
        -13    1    6    6    0    0 -0.41350598369E+01  0.65330167585E+00 -0.73640642929E+00  0.42519221963E+01  0.10500000000E+00 0.  1.
         13    1    6    6    0    0 -0.13813249267E+01  0.25460433285E+00 -0.25290236320E+00  0.14310368705E+01  0.10500000000E+00 0.  1.
</event>
<event>
11    0  0.3482988E-009  0.9118800E+02  0.7816531E-02  0.1126479E+00
         25   -1    0    0    0    0  0.00000000000E+00  0.00000000000E+00  0.99999998245E-14  0.12500000000E+03  0.12500000000E+03 0.  0.
    3000001    1    3    3    0    0 -0.28064906332E+02  0.33791445466E+02 -0.37315638945E+02  0.57645100954E+02  0.10000000000E+01 0. -1.
    1000022    2    1    0    0    0 -0.28083570873E+02  0.35648026229E+02 -0.41794512056E+02  0.62500000037E+02  0.10000001980E+02 0.  0.
    3000022    2    3    3    0    0 -0.18664541036E-01  0.18565807633E+01 -0.44788731105E+01  0.48548990828E+01  0.25000053736E+00 0.  0.
    1000022    2    1    0    0    0  0.28083570873E+02 -0.35648026229E+02  0.41794512056E+02  0.62499999963E+02  0.10000001522E+02 0.  0.
    3000022    2    5    5    0    0  0.47525260000E+01 -0.64429858366E+01  0.28299203830E+01  0.84952645838E+01  0.25000220814E+00 0.  0.
        -13    1    4    4    0    0 -0.44487428394E-01  0.10704610278E+01 -0.24327988093E+01  0.26603385103E+01  0.10500000000E+00 0. -1.
         13    1    4    4    0    0  0.25822887358E-01  0.78611973555E+00 -0.20460743013E+01  0.21945605725E+01  0.10500000000E+00 0.  1.
    3000001    1    5    5    0    0  0.23331044873E+02 -0.29205040393E+02  0.38964591673E+02  0.54004735380E+02  0.10000000000E+01 0. -1.
        -13    1    6    6    0    0  0.20908864154E+01 -0.27272638818E+01  0.11987260372E+01  0.36411184265E+01  0.10500000000E+00 0. -1.
         13    1    6    6    0    0  0.26616395846E+01 -0.37157219547E+01  0.16311943458E+01  0.48541461573E+01  0.10500000000E+00 0.  1.
</event>
<event>
11    0  0.3482988E-009  0.9118800E+02  0.7816531E-02  0.1126479E+00
         25   -1    0    0    0    0  0.00000000000E+00  0.00000000000E+00  0.99999998245E-14  0.12500000000E+03  0.12500000000E+03 0.  0.
    3000001    1    3    3    0    0  0.25789360509E+02 -0.16756068598E+02  0.13663283904E+02  0.33668119600E+02  0.10000000000E+01 0. -1.
    1000022    2    1    0    0    0  0.42510599952E+02 -0.30428223081E+02  0.32760069532E+02  0.62500000440E+02  0.10000001552E+02 0.  0.
    3000022    2    3    3    0    0  0.16721239443E+02 -0.13672154483E+02  0.19096785628E+02  0.28831880840E+02  0.24994945022E+00 0.  0.
    1000022    2    1    0    0    0 -0.42510599952E+02  0.30428223081E+02 -0.32760069532E+02  0.62499999560E+02  0.99999960570E+01 0.  0.
    3000022    2    5    5    0    0 -0.36355469808E+02  0.28875512003E+02 -0.26172183718E+02  0.53296914302E+02  0.24999019400E+00 0.  0.
        -13    1    4    4    0    0  0.88795816456E+01 -0.73187217147E+01  0.10240221560E+02  0.15404019616E+02  0.10500000000E+00 0.  1.
         13    1    4    4    0    0  0.78416577974E+01 -0.63534327681E+01  0.88565640685E+01  0.13427861224E+02  0.10500000000E+00 0. -1.
    3000001    1    5    5    0    0 -0.61551301440E+01  0.15527110780E+01 -0.65878858140E+01  0.92030852587E+01  0.10000000000E+01 0. -1.
        -13    1    6    6    0    0 -0.19775874871E+02  0.15641028041E+02 -0.14164595766E+02  0.28920127650E+02  0.10500000000E+00 0.  1.
         13    1    6    6    0    0 -0.16579594937E+02  0.13234483962E+02 -0.12007587952E+02  0.24376786652E+02  0.10500000000E+00 0. -1.
</event>
<event>
11    0  0.3482988E-009  0.9118800E+02  0.7816531E-02  0.1126479E+00
         25   -1    0    0    0    0  0.00000000000E+00  0.00000000000E+00  0.99999998245E-14  0.12500000000E+03  0.12500000000E+03 0.  0.
    3000001    1    3    3    0    0  0.26479237842E+01 -0.18939213650E+01  0.11744488322E+01  0.36024670107E+01  0.10000000000E+01 0.  1.
    1000022    2    1    0    0    0  0.23597766823E+02 -0.28701054005E+02  0.49250834219E+02  0.62500001958E+02  0.10000023671E+02 0.  0.
    3000022    2    3    3    0    0  0.20949843039E+02 -0.26807132640E+02  0.48076385387E+02  0.58897534948E+02  0.25001450563E+00 0.  0.
    1000022    2    1    0    0    0 -0.23597766823E+02  0.28701054005E+02 -0.49250834219E+02  0.62499998042E+02  0.99999991909E+01 0.  0.
    3000022    2    5    5    0    0 -0.15739861949E+02  0.15761231828E+02 -0.21989144585E+02  0.31300873234E+02  0.25000551045E+00 0.  0.
        -13    1    4    4    0    0  0.15593283066E+02 -0.19917723217E+02  0.35779819406E+02  0.43818633898E+02  0.10500000000E+00 0.  1.
         13    1    4    4    0    0  0.53565599734E+01 -0.68894094229E+01  0.12296565981E+02  0.15078901050E+02  0.10500000000E+00 0. -1.
    3000001    1    5    5    0    0 -0.78579048746E+01  0.12939822177E+02 -0.27261689635E+02  0.31199124807E+02  0.10000000000E+01 0. -1.
        -13    1    6    6    0    0 -0.57504667986E+01  0.58411727608E+01 -0.80793111205E+01  0.11509711587E+02  0.10500000000E+00 0.  1.
         13    1    6    6    0    0 -0.99893951502E+01  0.99200590677E+01 -0.13909833464E+02  0.19791161648E+02  0.10500000000E+00 0. -1.
</event>
<event>
11    0  0.3482988E-009  0.9118800E+02  0.7816531E-02  0.1126479E+00
         25   -1    0    0    0    0  0.00000000000E+00  0.00000000000E+00  0.99999998245E-14  0.12500000000E+03  0.12500000000E+03 0.  0.
    3000001    1    3    3    0    0 -0.10276566194E+02 -0.42995733889E+02  0.34872016302E+02  0.56314282969E+02  0.10000000000E+01 0.  1.
    1000022    2    1    0    0    0 -0.82735195067E+01 -0.46883879968E+02  0.39239018943E+02  0.62500001521E+02  0.10000012834E+02 0.  0.
    3000022    2    3    3    0    0  0.20030466870E+01 -0.38881460792E+01  0.43670026418E+01  0.61857185526E+01  0.25005194442E+00 0.  0.
    1000022    2    1    0    0    0  0.82735195067E+01  0.46883879968E+02 -0.39239018943E+02  0.62499998479E+02  0.99999938154E+01 0.  0.
    3000022    2    5    5    0    0  0.55178279056E+00  0.27288908880E+02 -0.18871838671E+02  0.33184300600E+02  0.24999877919E+00 0.  0.
        -13    1    4    4    0    0  0.10023667074E+01 -0.17999290151E+01  0.20701969568E+01  0.29225372393E+01  0.10500000000E+00 0. -1.
         13    1    4    4    0    0  0.10006799796E+01 -0.20882170642E+01  0.22968056850E+01  0.32631813133E+01  0.10500000000E+00 0.  1.
    3000001    1    5    5    0    0  0.77217367162E+01  0.19594971088E+02 -0.20367180272E+02  0.29315697878E+02  0.10000000000E+01 0.  1.
        -13    1    6    6    0    0  0.32890387365E+00  0.18703230906E+02 -0.12939559581E+02  0.22745598503E+02  0.10500000000E+00 0.  1.
         13    1    6    6    0    0  0.22287891691E+00  0.85856779736E+01 -0.59322790896E+01  0.10438702097E+02  0.10500000000E+00 0. -1.
</event>
<event>
11    0  0.3482988E-009  0.9118800E+02  0.7816531E-02  0.1126479E+00
         25   -1    0    0    0    0  0.00000000000E+00  0.00000000000E+00  0.99999998245E-14  0.12500000000E+03  0.12500000000E+03 0.  0.
    3000001    1    3    3    0    0 -0.85583069495E-01 -0.49103609137E+01  0.55338276703E+01  0.74660710853E+01  0.10000000000E+01 0. -1.
    1000022    2    1    0    0    0  0.16508241758E+02 -0.23506711233E+02  0.54600023000E+02  0.62499999579E+02  0.99999958435E+01 0.  0.
    3000022    2    3    3    0    0  0.16593824828E+02 -0.18596350319E+02  0.49066195329E+02  0.55033928494E+02  0.24998749326E+00 0.  0.
    1000022    2    1    0    0    0 -0.16508241758E+02  0.23506711233E+02 -0.54600023000E+02  0.62500000421E+02  0.10000001107E+02 0.  0.
    3000022    2    5    5    0    0 -0.10963390763E+02  0.94773927922E+01 -0.19623933647E+02  0.24396273899E+02  0.24999442827E+00 0.  0.
        -13    1    4    4    0    0  0.62475628252E+01 -0.70481291585E+01  0.18427659970E+02  0.20695358003E+02  0.10500000000E+00 0. -1.
         13    1    4    4    0    0  0.10346262003E+02 -0.11548221160E+02  0.30638535359E+02  0.34338570491E+02  0.10500000000E+00 0.  1.
    3000001    1    5    5    0    0 -0.55448509955E+01  0.14029318440E+02 -0.34976089352E+02  0.38103726522E+02  0.10000000000E+01 0. -1.
        -13    1    6    6    0    0 -0.41006931182E+01  0.36162336427E+01 -0.74498565215E+01  0.92414402016E+01  0.10500000000E+00 0.  1.
         13    1    6    6    0    0 -0.68626976447E+01  0.58611591495E+01 -0.12174077126E+02  0.15154833698E+02  0.10500000000E+00 0. -1.
</event>
<event>
11    0  0.3482988E-009  0.9118800E+02  0.7816531E-02  0.1126479E+00
         25   -1    0    0    0    0  0.00000000000E+00  0.00000000000E+00  0.99999998245E-14  0.12500000000E+03  0.12500000000E+03 0.  0.
    3000001    1    3    3    0    0 -0.21344328018E+02  0.13831926492E+02 -0.42272773561E+01  0.25802565819E+02  0.10000000000E+01 0. -1.
    1000022    2    1    0    0    0 -0.56666227649E+02  0.23540640885E+02 -0.64052192583E+01  0.62499999761E+02  0.10000000354E+02 0.  0.
    3000022    2    3    3    0    0 -0.35321899631E+02  0.97087143935E+01 -0.21779419022E+01  0.36697433942E+02  0.24999646099E+00 0.  0.
    1000022    2    1    0    0    0  0.56666227649E+02 -0.23540640885E+02  0.64052192583E+01  0.62500000239E+02  0.10000003343E+02 0.  0.
    3000022    2    5    5    0    0  0.33801535118E+02 -0.18775149865E+02  0.20549564010E+01  0.38721252246E+02  0.25000175200E+00 0.  0.
        -13    1    4    4    0    0 -0.22257636331E+02  0.60568945327E+01 -0.13615568315E+01  0.23107427559E+02  0.10500000000E+00 0. -1.
         13    1    4    4    0    0 -0.13064263301E+02  0.36518198608E+01 -0.81638507069E+00  0.13590006382E+02  0.10500000000E+00 0.  1.
    3000001    1    5    5    0    0  0.22864692531E+02 -0.47654910203E+01  0.43502628573E+01  0.23778747993E+02  0.10000000000E+01 0. -1.
        -13    1    6    6    0    0  0.21026547505E+02 -0.11639284023E+02  0.12276335516E+01  0.24064636745E+02  0.10500000000E+00 0. -1.
         13    1    6    6    0    0  0.12774987613E+02 -0.71358658422E+01  0.82732284941E+00  0.14656615501E+02  0.10500000000E+00 0.  1.
</event>
<event>
11    0  0.3482988E-009  0.9118800E+02  0.7816531E-02  0.1126479E+00
         25   -1    0    0    0    0  0.00000000000E+00  0.00000000000E+00  0.99999998245E-14  0.12500000000E+03  0.12500000000E+03 0.  0.
    3000001    1    3    3    0    0  0.47579608749E+01 -0.22295619057E+02 -0.46987596836E+02  0.52235687774E+02  0.10000000000E+01 0. -1.
    1000022    2    1    0    0    0  0.41670150248E+01 -0.22676263958E+02 -0.57224759283E+02  0.62499999967E+02  0.99999979810E+01 0.  0.
    3000022    2    3    3    0    0 -0.59094585002E+00 -0.38064490194E+00 -0.10237162447E+02  0.10264312194E+02  0.25000460393E+00 0.  0.
    1000022    2    1    0    0    0 -0.41670150248E+01  0.22676263958E+02  0.57224759283E+02  0.62500000033E+02  0.99999983878E+01 0.  0.
    3000022    2    5    5    0    0 -0.51671548927E+01  0.12488081962E+02  0.42038184466E+02  0.44157933987E+02  0.25000006977E+00 0.  0.
        -13    1    4    4    0    0 -0.46094478252E+00 -0.26575669669E+00 -0.76745969631E+01  0.76937351307E+01  0.10500000000E+00 0. -1.
         13    1    4    4    0    0 -0.13000106750E+00 -0.11488820525E+00 -0.25625654840E+01  0.25705770630E+01  0.10500000000E+00 0.  1.
    3000001    1    5    5    0    0  0.10001398679E+01  0.10188181997E+02  0.15186574817E+02  0.18342066046E+02  0.10000000000E+01 0.  1.
        -13    1    6    6    0    0 -0.12749471165E+01  0.31144780809E+01  0.10544736467E+02  0.11069234663E+02  0.10500000000E+00 0. -1.
         13    1    6    6    0    0 -0.38922077762E+01  0.93736038810E+01  0.31493447998E+02  0.33088699323E+02  0.10500000000E+00 0.  1.
</event>
<event>
11    0  0.3482988E-009  0.9118800E+02  0.7816531E-02  0.1126479E+00
         25   -1    0    0    0    0  0.00000000000E+00  0.00000000000E+00  0.99999998245E-14  0.12500000000E+03  0.12500000000E+03 0.  0.
    3000001    1    3    3    0    0 -0.82239212123E+01  0.37721191721E+01 -0.74708691829E+01  0.11776062564E+02  0.10000000000E+01 0.  1.
    1000022    2    1    0    0    0 -0.35771092331E+02  0.37536663052E+02 -0.33431690393E+02  0.62499999698E+02  0.99999960049E+01 0.  0.
    3000022    2    3    3    0    0 -0.27547171118E+02  0.33764543879E+02 -0.25960821210E+02  0.50723937134E+02  0.25000092380E+00 0.  0.
    1000022    2    1    0    0    0  0.35771092331E+02 -0.37536663052E+02  0.33431690393E+02  0.62500000302E+02  0.99999997853E+01 0.  0.
    3000022    2    5    5    0    0  0.88966950848E+01 -0.13676339726E+02  0.14692526884E+02  0.21957374518E+02  0.24999545398E+00 0.  0.
        -13    1    4    4    0    0 -0.20956485380E+02  0.25656137424E+02 -0.19737727584E+02  0.38561646518E+02  0.10500000000E+00 0.  1.
         13    1    4    4    0    0 -0.65906857379E+01  0.81084064556E+01 -0.62230936260E+01  0.12162290616E+02  0.10500000000E+00 0. -1.
    3000001    1    5    5    0    0  0.26874397246E+02 -0.23860323326E+02  0.18739163508E+02  0.40542625785E+02  0.10000000000E+01 0. -1.
        -13    1    6    6    0    0  0.40825820957E+01 -0.61534428587E+01  0.66501627776E+01  0.99382103797E+01  0.10500000000E+00 0.  1.
         13    1    6    6    0    0  0.48141129891E+01 -0.75228968671E+01  0.80423641068E+01  0.12019164138E+02  0.10500000000E+00 0. -1.
</event>
<event>
11    0  0.3482988E-009  0.9118800E+02  0.7816531E-02  0.1126479E+00
         25   -1    0    0    0    0  0.00000000000E+00  0.00000000000E+00  0.99999998245E-14  0.12500000000E+03  0.12500000000E+03 0.  0.
    3000001    1    3    3    0    0 -0.99862739956E+01 -0.15537335790E+02  0.59570851046E+01  0.19432481435E+02  0.10000000000E+01 0.  1.
    1000022    2    1    0    0    0 -0.40302406597E+02 -0.39391051354E+02  0.25106000049E+02  0.62499999188E+02  0.99999877852E+01 0.  0.
    3000022    2    3    3    0    0 -0.30316132601E+02 -0.23853715565E+02  0.19148914944E+02  0.43067517753E+02  0.24999947837E+00 0.  0.
    1000022    2    1    0    0    0  0.40302406597E+02  0.39391051354E+02 -0.25106000049E+02  0.62500000812E+02  0.99999979377E+01 0.  0.
    3000022    2    5    5    0    0  0.15201971510E+02  0.16842950698E+02 -0.15235670993E+02  0.27330808606E+02  0.25000487958E+00 0.  0.
        -13    1    4    4    0    0 -0.18917185885E+02 -0.14808554205E+02  0.11915367291E+02  0.26816789557E+02  0.10500000000E+00 0.  1.
         13    1    4    4    0    0 -0.11398946716E+02 -0.90451613596E+01  0.72335476535E+01  0.16250728196E+02  0.10500000000E+00 0. -1.
    3000001    1    5    5    0    0  0.25100435088E+02  0.22548100656E+02 -0.98703290561E+01  0.35169192206E+02  0.10000000000E+01 0.  1.
        -13    1    6    6    0    0  0.55777857978E+01  0.61061520911E+01 -0.55919827875E+01  0.99838912385E+01  0.10500000000E+00 0.  1.
         13    1    6    6    0    0  0.96241857117E+01  0.10736798607E+02 -0.96436882055E+01  0.17346917367E+02  0.10500000000E+00 0. -1.
</event>
<event>
11    0  0.3482988E-009  0.9118800E+02  0.7816531E-02  0.1126479E+00
         25   -1    0    0    0    0  0.00000000000E+00  0.00000000000E+00  0.99999998245E-14  0.12500000000E+03  0.12500000000E+03 0.  0.
    3000001    1    3    3    0    0  0.25121073969E+02 -0.13869036052E+02  0.39933908226E+02  0.49184708442E+02  0.10000000000E+01 0. -1.
    1000022    2    1    0    0    0  0.27212970106E+02 -0.16891261629E+02  0.52729399076E+02  0.62499999131E+02  0.99999951546E+01 0.  0.
    3000022    2    3    3    0    0  0.20918961364E+01 -0.30222255776E+01  0.12795490850E+02  0.13315290689E+02  0.25000628985E+00 0.  0.
    1000022    2    1    0    0    0 -0.27212970106E+02  0.16891261629E+02 -0.52729399076E+02  0.62500000869E+02  0.10000006013E+02 0.  0.
    3000022    2    5    5    0    0 -0.93347052923E+01  0.60648652764E+01 -0.10193820527E+02  0.15096217758E+02  0.24999987248E+00 0.  0.
        -13    1    4    4    0    0  0.13216942687E+01 -0.18392468376E+01  0.77083634729E+01  0.80348986988E+01  0.10500000000E+00 0.  1.
         13    1    4    4    0    0  0.77020186772E+00 -0.11829787400E+01  0.50871273775E+01  0.52803919903E+01  0.10500000000E+00 0. -1.
    3000001    1    5    5    0    0 -0.17878264813E+02  0.10826396353E+02 -0.42535578549E+02  0.47403783111E+02  0.10000000000E+01 0. -1.
        -13    1    6    6    0    0 -0.24042594608E+01  0.15910026009E+01 -0.26677259972E+01  0.39293179850E+01  0.10500000000E+00 0. -1.
         13    1    6    6    0    0 -0.69304458315E+01  0.44738626755E+01 -0.75260945299E+01  0.11166899773E+02  0.10500000000E+00 0.  1.
</event>
<event>
11    0  0.3482988E-009  0.9118800E+02  0.7816531E-02  0.1126479E+00
         25   -1    0    0    0    0  0.00000000000E+00  0.00000000000E+00  0.99999998245E-14  0.12500000000E+03  0.12500000000E+03 0.  0.
    3000001    1    3    3    0    0 -0.21426569623E+02 -0.29086090376E+00  0.33016265450E+01  0.21704451702E+02  0.10000000000E+01 0.  1.
    1000022    2    1    0    0    0 -0.60905232101E+02  0.97672948657E+01  0.11843292381E+01  0.62499999715E+02  0.99999991228E+01 0.  0.
    3000022    2    3    3    0    0 -0.39478662478E+02  0.10058155769E+02 -0.21172973069E+01  0.40795548013E+02  0.25000252272E+00 0.  0.
    1000022    2    1    0    0    0  0.60905232101E+02 -0.97672948657E+01 -0.11843292381E+01  0.62500000285E+02  0.10000002681E+02 0.  0.
    3000022    2    5    5    0    0  0.22201082452E+02 -0.35576580761E+01  0.43405293966E+01  0.22900822869E+02  0.24999919595E+00 0.  0.
        -13    1    4    4    0    0 -0.19865378653E+02  0.50969186381E+01 -0.10074703920E+01  0.20533822591E+02  0.10500000000E+00 0. -1.
         13    1    4    4    0    0 -0.19613283825E+02  0.49612371314E+01 -0.11098269149E+01  0.20261725422E+02  0.10500000000E+00 0.  1.
    3000001    1    5    5    0    0  0.38704149649E+02 -0.62096367896E+01 -0.55248586348E+01  0.39599177416E+02  0.10000000000E+01 0. -1.
        -13    1    6    6    0    0  0.90409304948E+01 -0.13853619375E+01  0.17538517549E+01  0.93136820264E+01  0.10500000000E+00 0.  1.
         13    1    6    6    0    0  0.13160151957E+02 -0.21722961386E+01  0.25866776417E+01  0.13587140842E+02  0.10500000000E+00 0. -1.
</event>
<event>
11    0  0.3482988E-009  0.9118800E+02  0.7816531E-02  0.1126479E+00
         25   -1    0    0    0    0  0.00000000000E+00  0.00000000000E+00  0.99999998245E-14  0.12500000000E+03  0.12500000000E+03 0.  0.
    3000001    1    3    3    0    0 -0.12933935141E+02  0.80189537592E+01  0.50748763903E+02  0.52990823123E+02  0.10000000000E+01 0.  1.
    1000022    2    1    0    0    0 -0.11479794769E+02  0.76331258159E+01  0.60134847423E+02  0.62500000372E+02  0.99999937111E+01 0.  0.
    3000022    2    3    3    0    0  0.14541403719E+01 -0.38582794331E+00  0.93860835205E+01  0.95091772488E+01  0.25000134177E+00 0.  0.
    1000022    2    1    0    0    0  0.11479794769E+02 -0.76331258159E+01 -0.60134847423E+02  0.62499999628E+02  0.99999890619E+01 0.  0.
    3000022    2    5    5    0    0  0.88803193915E+01 -0.45384383181E+01 -0.54960773491E+02  0.55858809674E+02  0.25000123070E+00 0.  0.
        -13    1    4    4    0    0  0.66323802041E+00 -0.24559868969E+00  0.43813382351E+01  0.44392964666E+01  0.10500000000E+00 0.  1.
         13    1    4    4    0    0  0.79090235153E+00 -0.14022925362E+00  0.50047452855E+01  0.50698807822E+01  0.10500000000E+00 0. -1.
    3000001    1    5    5    0    0  0.25994753778E+01 -0.30946874978E+01 -0.51740739318E+01  0.66411899537E+01  0.10000000000E+01 0. -1.
        -13    1    6    6    0    0  0.43618075276E+01 -0.21828145504E+01 -0.27180497153E+02  0.27614860035E+02  0.10500000000E+00 0. -1.
         13    1    6    6    0    0  0.45185118639E+01 -0.23556237677E+01 -0.27780276339E+02  0.28243949640E+02  0.10500000000E+00 0.  1.
</event>
<event>
11    0  0.3482988E-009  0.9118800E+02  0.7816531E-02  0.1126479E+00
         25   -1    0    0    0    0  0.00000000000E+00  0.00000000000E+00  0.99999998245E-14  0.12500000000E+03  0.12500000000E+03 0.  0.
    3000001    1    3    3    0    0  0.32003538291E+02  0.44350462005E+02 -0.11032633273E+02  0.55802409805E+02  0.10000000000E+01 0.  1.
    1000022    2    1    0    0    0  0.32755226037E+02  0.50474446090E+02 -0.13626281981E+02  0.62500000712E+02  0.99999993725E+01 0.  0.
    3000022    2    3    3    0    0  0.75168774648E+00  0.61239840858E+01 -0.25936487086E+01  0.66975909065E+01  0.24998954997E+00 0.  0.
    1000022    2    1    0    0    0 -0.32755226037E+02 -0.50474446090E+02  0.13626281981E+02  0.62499999288E+02  0.99999904759E+01 0.  0.
    3000022    2    5    5    0    0 -0.38823113753E+01 -0.54775573261E+01 -0.15900672182E+01  0.69041138065E+01  0.24999563850E+00 0.  0.
        -13    1    4    4    0    0  0.24584346856E+00  0.18003677519E+01 -0.80456277321E+00  0.19900023390E+01  0.10500000000E+00 0. -1.
         13    1    4    4    0    0  0.50584427791E+00  0.43236163340E+01 -0.17890859353E+01  0.47075885675E+01  0.10500000000E+00 0.  1.
    3000001    1    5    5    0    0 -0.28872914662E+02 -0.44996888764E+02  0.15216349200E+02  0.55595885482E+02  0.10000000000E+01 0.  1.
        -13    1    6    6    0    0 -0.20785641877E+01 -0.30381136112E+01 -0.84372071178E+00  0.37780223711E+01  0.10500000000E+00 0.  1.
         13    1    6    6    0    0 -0.18037471876E+01 -0.24394437149E+01 -0.74634650640E+00  0.31260914354E+01  0.10500000000E+00 0. -1.
</event>
<event>
11    0  0.3482988E-009  0.9118800E+02  0.7816531E-02  0.1126479E+00
         25   -1    0    0    0    0  0.00000000000E+00  0.00000000000E+00  0.99999998245E-14  0.12500000000E+03  0.12500000000E+03 0.  0.
    3000001    1    3    3    0    0 -0.46339905632E+02  0.16270467891E+02  0.58839307172E+01  0.49474595704E+02  0.10000000000E+01 0.  1.
    1000022    2    1    0    0    0 -0.55862155384E+02  0.24589102448E+02  0.90025441226E+01  0.62500000721E+02  0.99999963055E+01 0.  0.
    3000022    2    3    3    0    0 -0.95222497521E+01  0.83186345569E+01  0.31186134054E+01  0.13025405017E+02  0.25001011726E+00 0.  0.
    1000022    2    1    0    0    0  0.55862155384E+02 -0.24589102448E+02 -0.90025441226E+01  0.62499999279E+02  0.99999872945E+01 0.  0.
    3000022    2    5    5    0    0  0.43612116534E+02 -0.22474754909E+02 -0.96853516182E+01  0.50009997541E+02  0.25000259748E+00 0.  0.
        -13    1    4    4    0    0 -0.51374360119E+01  0.44728596994E+01  0.16119008151E+01  0.70006408210E+01  0.10500000000E+00 0.  1.
         13    1    4    4    0    0 -0.43848137401E+01  0.38457748575E+01  0.15067125903E+01  0.60247641962E+01  0.10500000000E+00 0. -1.
    3000001    1    5    5    0    0  0.12250038850E+02 -0.21143475388E+01  0.68280749564E+00  0.12490001738E+02  0.10000000000E+01 0. -1.
        -13    1    6    6    0    0  0.30186643744E+02 -0.15502427328E+02 -0.66940940315E+01  0.34588735645E+02  0.10500000000E+00 0. -1.
         13    1    6    6    0    0  0.13425472790E+02 -0.69723275807E+01 -0.29912575868E+01  0.15421261896E+02  0.10500000000E+00 0.  1.
</event>
<event>
11    0  0.3482988E-009  0.9118800E+02  0.7816531E-02  0.1126479E+00
         25   -1    0    0    0    0  0.00000000000E+00  0.00000000000E+00  0.99999998245E-14  0.12500000000E+03  0.12500000000E+03 0.  0.
    3000001    1    3    3    0    0 -0.13753821973E+02 -0.13874473648E+02  0.22971696006E+02  0.30172296155E+02  0.10000000000E+01 0.  1.
    1000022    2    1    0    0    0 -0.18890801513E+02 -0.28884707337E+02  0.51137669783E+02  0.62499997150E+02  0.99999836598E+01 0.  0.
    3000022    2    3    3    0    0 -0.51369795403E+01 -0.15010233689E+02  0.28165973777E+02  0.32327700995E+02  0.24999727440E+00 0.  0.
    1000022    2    1    0    0    0  0.18890801513E+02  0.28884707337E+02 -0.51137669783E+02  0.62500002850E+02  0.10000019281E+02 0.  0.
    3000022    2    5    5    0    0  0.99185134015E+01  0.14782732111E+02 -0.17703923877E+02  0.25107717221E+02  0.24993327147E+00 0.  0.
        -13    1    4    4    0    0 -0.20301721654E+01 -0.57492648501E+01  0.10792383628E+02  0.12396056418E+02  0.10500000000E+00 0.  1.
         13    1    4    4    0    0 -0.31068073749E+01 -0.92609688391E+01  0.17373590149E+02  0.19931644578E+02  0.10500000000E+00 0. -1.
    3000001    1    5    5    0    0  0.89722881119E+01  0.14101975226E+02 -0.33433745906E+02  0.37392285629E+02  0.10000000000E+01 0.  1.
        -13    1    6    6    0    0  0.57706856307E+01  0.86149082727E+01 -0.10402079595E+02  0.14687809302E+02  0.10500000000E+00 0.  1.
         13    1    6    6    0    0  0.41478277707E+01  0.61678238383E+01 -0.73018442815E+01  0.10419907918E+02  0.10500000000E+00 0. -1.
</event>
<event>
11    0  0.3482988E-009  0.9118800E+02  0.7816531E-02  0.1126479E+00
         25   -1    0    0    0    0  0.00000000000E+00  0.00000000000E+00  0.99999998245E-14  0.12500000000E+03  0.12500000000E+03 0.  0.
    3000001    1    3    3    0    0  0.45217658093E+01 -0.52713338297E+01 -0.23011618398E+02  0.24057595634E+02  0.10000000000E+01 0.  1.
    1000022    2    1    0    0    0  0.15840596832E+02 -0.19179320387E+01 -0.59595695902E+02  0.62500000144E+02  0.10000003832E+02 0.  0.
    3000022    2    3    3    0    0  0.11318831023E+02  0.33534017909E+01 -0.36584077503E+02  0.38442404510E+02  0.24999682944E+00 0.  0.
    1000022    2    1    0    0    0 -0.15840596832E+02  0.19179320387E+01  0.59595695902E+02  0.62499999856E+02  0.10000002035E+02 0.  0.
    3000022    2    5    5    0    0 -0.15354178726E+02  0.39444136007E+01  0.56189745945E+02  0.58383724209E+02  0.25000032152E+00 0.  0.
        -13    1    4    4    0    0  0.30088231170E+01  0.92597901087E+00 -0.97266482113E+01  0.10223950514E+02  0.10500000000E+00 0.  1.
         13    1    4    4    0    0  0.83100079057E+01  0.24274227801E+01 -0.26857429292E+02  0.28218453996E+02  0.10500000000E+00 0. -1.
    3000001    1    5    5    0    0 -0.48641810618E+00 -0.20264815620E+01  0.34059499573E+01  0.41162756476E+01  0.10000000000E+01 0.  1.
        -13    1    6    6    0    0 -0.42957760167E+01  0.10630522592E+01  0.15674998376E+02  0.16288043798E+02  0.10500000000E+00 0. -1.
         13    1    6    6    0    0 -0.11058402709E+02  0.28813613415E+01  0.40514747568E+02  0.42095680410E+02  0.10500000000E+00 0.  1.
</event>
<event>
11    0  0.3482988E-009  0.9118800E+02  0.7816531E-02  0.1126479E+00
         25   -1    0    0    0    0  0.00000000000E+00  0.00000000000E+00  0.99999998245E-14  0.12500000000E+03  0.12500000000E+03 0.  0.
    3000001    1    3    3    0    0  0.20100997905E+02  0.67003644203E+00  0.27146571425E+01  0.20319164083E+02  0.10000000000E+01 0.  1.
    1000022    2    1    0    0    0  0.58973561084E+02  0.15945996765E+02  0.86078177667E+01  0.62500000547E+02  0.99999910970E+01 0.  0.
    3000022    2    3    3    0    0  0.38872563179E+02  0.15275960323E+02  0.58931606242E+01  0.42180836465E+02  0.24998165025E+00 0.  0.
    1000022    2    1    0    0    0 -0.58973561084E+02 -0.15945996765E+02 -0.86078177667E+01  0.62499999453E+02  0.99999842545E+01 0.  0.
    3000022    2    5    5    0    0 -0.17707916443E+02 -0.95186624205E+01 -0.19900179751E+01  0.20203908280E+02  0.24999840695E+00 0.  0.
        -13    1    4    4    0    0  0.19647454948E+02  0.76675307191E+01  0.30223660769E+01  0.21306319132E+02  0.10500000000E+00 0. -1.
         13    1    4    4    0    0  0.19225108231E+02  0.76084296038E+01  0.28707945474E+01  0.20874517332E+02  0.10500000000E+00 0.  1.
    3000001    1    5    5    0    0 -0.41265644641E+02 -0.64273343445E+01 -0.66177997916E+01  0.42296091173E+02  0.10000000000E+01 0. -1.
        -13    1    6    6    0    0 -0.73320568298E+01 -0.38684317359E+01 -0.81823819083E+00  0.83309279308E+01  0.10500000000E+00 0.  1.
         13    1    6    6    0    0 -0.10375859613E+02 -0.56502306846E+01 -0.11717797843E+01  0.11872980349E+02  0.10500000000E+00 0. -1.
</event>
<event>
11    0  0.3482988E-009  0.9118800E+02  0.7816531E-02  0.1126479E+00
         25   -1    0    0    0    0  0.00000000000E+00  0.00000000000E+00  0.99999998245E-14  0.12500000000E+03  0.12500000000E+03 0.  0.
    3000001    1    3    3    0    0 -0.29813496888E+02 -0.24688507574E+02 -0.43467517559E+01  0.38964872048E+02  0.10000000000E+01 0. -1.
    1000022    2    1    0    0    0 -0.49825035506E+02 -0.36381920719E+02 -0.26728369030E+00  0.62499997812E+02  0.99999983770E+01 0.  0.
    3000022    2    3    3    0    0 -0.20011538618E+02 -0.11693413145E+02  0.40794680656E+01  0.23535125763E+02  0.24999233515E+00 0.  0.
    1000022    2    1    0    0    0  0.49825035506E+02  0.36381920719E+02  0.26728369030E+00  0.62500002188E+02  0.10000025728E+02 0.  0.
    3000022    2    5    5    0    0  0.45874588569E+02  0.35691936883E+02 -0.11349574181E+01  0.58135556195E+02  0.25006196378E+00 0.  0.
        -13    1    4    4    0    0 -0.96602174354E+01 -0.55666211319E+01  0.19670786348E+01  0.11321991657E+02  0.10500000000E+00 0. -1.
         13    1    4    4    0    0 -0.10351321182E+02 -0.61267920133E+01  0.21123894308E+01  0.12213134107E+02  0.10500000000E+00 0.  1.
    3000001    1    5    5    0    0  0.39504469372E+01  0.68998383606E+00  0.14022411084E+01  0.43644459927E+01  0.10000000000E+01 0.  1.
        -13    1    6    6    0    0  0.15988373564E+02  0.12368348287E+02 -0.39734041141E+00  0.20218136239E+02  0.10500000000E+00 0. -1.
         13    1    6    6    0    0  0.29886215004E+02  0.23323588596E+02 -0.73761700672E+00  0.37917419956E+02  0.10500000000E+00 0.  1.
</event>
<event>
11    0  0.3482988E-009  0.9118800E+02  0.7816531E-02  0.1126479E+00
         25   -1    0    0    0    0  0.00000000000E+00  0.00000000000E+00  0.99999998245E-14  0.12500000000E+03  0.12500000000E+03 0.  0.
    3000001    1    3    3    0    0  0.13005451829E+02 -0.21002509773E+01 -0.10478261986E+02  0.16862585973E+02  0.10000000000E+01 0.  1.
    1000022    2    1    0    0    0  0.50043319012E+02  0.78337203167E+01 -0.35221434463E+02  0.62500010017E+02  0.10000042735E+02 0.  0.
    3000022    2    3    3    0    0  0.37037867183E+02  0.99339712941E+01 -0.24743172477E+02  0.45637424043E+02  0.24999597532E+00 0.  0.
    1000022    2    1    0    0    0 -0.50043319012E+02 -0.78337203167E+01  0.35221434463E+02  0.62499989983E+02  0.99999175261E+01 0.  0.
    3000022    2    5    5    0    0 -0.48765470390E+02 -0.70094723685E+01  0.35406977597E+02  0.60670588979E+02  0.24999844791E+00 0.  0.
        -13    1    4    4    0    0  0.28404209933E+02  0.76180647580E+01 -0.18960663031E+02  0.34990739062E+02  0.10500000000E+00 0. -1.
         13    1    4    4    0    0  0.86336572500E+01  0.23159065361E+01 -0.57825094465E+01  0.10646684981E+02  0.10500000000E+00 0.  1.
    3000001    1    5    5    0    0 -0.12778486219E+01 -0.82424794826E+00 -0.18554313387E+00  0.18294010045E+01  0.10000000000E+01 0. -1.
        -13    1    6    6    0    0 -0.35164459086E+02 -0.50644273116E+01  0.25579399098E+02  0.43777897277E+02  0.10500000000E+00 0.  1.
         13    1    6    6    0    0 -0.13601011304E+02 -0.19450450569E+01  0.98275784997E+01  0.16892691701E+02  0.10500000000E+00 0. -1.
</event>
<event>
11    0  0.3482988E-009  0.9118800E+02  0.7816531E-02  0.1126479E+00
         25   -1    0    0    0    0  0.00000000000E+00  0.00000000000E+00  0.99999998245E-14  0.12500000000E+03  0.12500000000E+03 0.  0.
    3000001    1    3    3    0    0  0.10307289267E+02 -0.25006804132E+02 -0.44436314745E+01  0.27428567692E+02  0.10000000000E+01 0. -1.
    1000022    2    1    0    0    0  0.31991694401E+02 -0.52569919656E+02 -0.43800882811E+01  0.62499998899E+02  0.99999862924E+01 0.  0.
    3000022    2    3    3    0    0  0.21684405134E+02 -0.27563115523E+02  0.63543193349E-01  0.35071431208E+02  0.24997171181E+00 0.  0.
    1000022    2    1    0    0    0 -0.31991694401E+02  0.52569919656E+02  0.43800882811E+01  0.62500001101E+02  0.10000000050E+02 0.  0.
    3000022    2    5    5    0    0 -0.24879082812E+02  0.38494708697E+02  0.73515910468E+01  0.46421113209E+02  0.25000283216E+00 0.  0.
        -13    1    4    4    0    0  0.13920797230E+02 -0.17714868527E+02  0.97164808339E-01  0.22530548782E+02  0.10500000000E+00 0.  1.
         13    1    4    4    0    0  0.77636079040E+01 -0.98482469966E+01 -0.33621614990E-01  0.12540882425E+02  0.10500000000E+00 0. -1.
    3000001    1    5    5    0    0 -0.71126115889E+01  0.14075210959E+02 -0.29715027657E+01  0.16078887892E+02  0.10000000000E+01 0. -1.
        -13    1    6    6    0    0 -0.14449776655E+02  0.22240846832E+02  0.42679338180E+01  0.26864057721E+02  0.10500000000E+00 0. -1.
         13    1    6    6    0    0 -0.10429306157E+02  0.16253861865E+02  0.30836572288E+01  0.19557055488E+02  0.10500000000E+00 0.  1.
</event>
<event>
11    0  0.3482988E-009  0.9118800E+02  0.7816531E-02  0.1126479E+00
         25   -1    0    0    0    0  0.00000000000E+00  0.00000000000E+00  0.99999998245E-14  0.12500000000E+03  0.12500000000E+03 0.  0.
    3000001    1    3    3    0    0  0.26340380211E+01  0.24673939661E+01 -0.57437624020E+00  0.37889440938E+01  0.10000000000E+01 0.  1.
    1000022    2    1    0    0    0  0.53197118102E+02  0.12016811953E+02 -0.28842896804E+02  0.62500001000E+02  0.10000014258E+02 0.  0.
    3000022    2    3    3    0    0  0.50563080081E+02  0.95494179866E+01 -0.28268520564E+02  0.58711056907E+02  0.24999417884E+00 0.  0.
    1000022    2    1    0    0    0 -0.53197118102E+02 -0.12016811953E+02  0.28842896804E+02  0.62499999000E+02  0.10000001752E+02 0.  0.
    3000022    2    5    5    0    0 -0.46174169329E+02 -0.11883969958E+02  0.28154471378E+02  0.55371648136E+02  0.25000710085E+00 0.  0.
        -13    1    4    4    0    0  0.31828367027E+02  0.59528329906E+01 -0.17807171712E+02  0.36953857141E+02  0.10500000000E+00 0. -1.
         13    1    4    4    0    0  0.18734713054E+02  0.35965849960E+01 -0.10461348851E+02  0.21757199765E+02  0.10500000000E+00 0.  1.
    3000001    1    5    5    0    0 -0.70229487729E+01 -0.13284199427E+00  0.68842542581E+00  0.71283508632E+01  0.10000000000E+01 0.  1.
        -13    1    6    6    0    0 -0.20459524331E+02 -0.52306103132E+01  0.12536083116E+02  0.24558416581E+02  0.10500000000E+00 0.  1.
         13    1    6    6    0    0 -0.25714644998E+02 -0.66533596453E+01  0.15618388262E+02  0.30813231555E+02  0.10500000000E+00 0. -1.
</event>
<event>
11    0  0.3482988E-009  0.9118800E+02  0.7816531E-02  0.1126479E+00
         25   -1    0    0    0    0  0.00000000000E+00  0.00000000000E+00  0.99999998245E-14  0.12500000000E+03  0.12500000000E+03 0.  0.
    3000001    1    3    3    0    0 -0.19818531446E+01  0.87274797946E+00  0.87116715341E+01  0.90323115447E+01  0.10000000000E+01 0. -1.
    1000022    2    1    0    0    0  0.57951709619E+01 -0.69771152192E+01  0.61024468528E+02  0.62499999741E+02  0.10000003264E+02 0.  0.
    3000022    2    3    3    0    0  0.77770241065E+01 -0.78498631987E+01  0.52312796994E+02  0.53467688197E+02  0.24999116765E+00 0.  0.
    1000022    2    1    0    0    0 -0.57951709619E+01  0.69771152192E+01 -0.61024468528E+02  0.62500000259E+02  0.10000006497E+02 0.  0.
    3000022    2    5    5    0    0  0.25866895013E+01  0.24575035498E+01 -0.10983455855E+02  0.11551149204E+02  0.24991826235E+00 0.  0.
        -13    1    4    4    0    0  0.50675463367E+01 -0.50350290271E+01  0.33768371061E+02  0.34515872469E+02  0.10500000000E+00 0. -1.
         13    1    4    4    0    0  0.27094777698E+01 -0.28148341716E+01  0.18544425933E+02  0.18951815728E+02  0.10500000000E+00 0.  1.
    3000001    1    5    5    0    0 -0.83818604632E+01  0.45196116694E+01 -0.50041012673E+02  0.50948851054E+02  0.10000000000E+01 0.  1.
        -13    1    6    6    0    0  0.94957800387E+00  0.91138441425E+00 -0.38682278124E+01  0.40873623946E+01  0.10500000000E+00 0. -1.
         13    1    6    6    0    0  0.16371114974E+01  0.15461191355E+01 -0.71152280430E+01  0.74637868097E+01  0.10500000000E+00 0.  1.
</event>
<event>
11    0  0.3482988E-009  0.9118800E+02  0.7816531E-02  0.1126479E+00
         25   -1    0    0    0    0  0.00000000000E+00  0.00000000000E+00  0.99999998245E-14  0.12500000000E+03  0.12500000000E+03 0.  0.
    3000001    1    3    3    0    0 -0.25304169468E+02 -0.39585468395E+02 -0.16216455244E+02  0.49712007817E+02  0.10000000000E+01 0. -1.
    1000022    2    1    0    0    0 -0.30731108573E+02 -0.47443539729E+02 -0.24717594129E+02  0.62500002679E+02  0.10000018961E+02 0.  0.
    3000022    2    3    3    0    0 -0.54269391055E+01 -0.78580713335E+01 -0.85011388845E+01  0.12787994862E+02  0.24999423244E+00 0.  0.
    1000022    2    1    0    0    0  0.30731108573E+02  0.47443539729E+02  0.24717594129E+02  0.62499997321E+02  0.99999854766E+01 0.  0.
    3000022    2    5    5    0    0  0.10145144647E+02  0.11354231707E+02  0.26924457283E+01  0.15464614615E+02  0.25000726768E+00 0.  0.
        -13    1    4    4    0    0 -0.30217566450E+01 -0.44538529229E+01 -0.47255270360E+01  0.71630614857E+01  0.10500000000E+00 0. -1.
         13    1    4    4    0    0 -0.24051824604E+01 -0.34042184107E+01 -0.37756118484E+01  0.56249333761E+01  0.10500000000E+00 0.  1.
    3000001    1    5    5    0    0  0.20585963926E+02  0.36089308022E+02  0.22025148400E+02  0.47035382707E+02  0.10000000000E+01 0. -1.
        -13    1    6    6    0    0  0.55124720747E+01  0.62021812002E+01  0.15314696828E+01  0.84386506270E+01  0.10500000000E+00 0. -1.
         13    1    6    6    0    0  0.46326725719E+01  0.51520505064E+01  0.11609760455E+01  0.70259639878E+01  0.10500000000E+00 0.  1.
</event>
<event>
11    0  0.3482988E-009  0.9118800E+02  0.7816531E-02  0.1126479E+00
         25   -1    0    0    0    0  0.00000000000E+00  0.00000000000E+00  0.99999998245E-14  0.12500000000E+03  0.12500000000E+03 0.  0.
    3000001    1    3    3    0    0 -0.77160485174E+01  0.19989623790E+02 -0.23417728578E+02  0.31757085441E+02  0.10000000000E+01 0.  1.
    1000022    2    1    0    0    0 -0.19263080126E+02  0.31227563954E+02 -0.49598616629E+02  0.62499997395E+02  0.99999948187E+01 0.  0.
    3000022    2    3    3    0    0 -0.11547031609E+02  0.11237940164E+02 -0.26180888051E+02  0.30742911953E+02  0.24999622643E+00 0.  0.
    1000022    2    1    0    0    0  0.19263080126E+02 -0.31227563954E+02  0.49598616629E+02  0.62500002605E+02  0.10000027382E+02 0.  0.
    3000022    2    5    5    0    0 -0.49381705984E+00 -0.27677431387E+01  0.72251429308E+01  0.77568965502E+01  0.24999269770E+00 0.  0.
        -13    1    4    4    0    0 -0.82057847352E+01  0.79253982942E+01 -0.18532603489E+02  0.21762703378E+02  0.10500000000E+00 0. -1.
         13    1    4    4    0    0 -0.33412468738E+01  0.33125418699E+01 -0.76482845626E+01  0.89802085756E+01  0.10500000000E+00 0.  1.
    3000001    1    5    5    0    0  0.19756897186E+02 -0.28459820815E+02  0.42373473698E+02  0.54743106055E+02  0.10000000000E+01 0.  1.
        -13    1    6    6    0    0 -0.35033407826E+00 -0.16526226410E+01  0.44199261950E+01  0.47329344100E+01  0.10500000000E+00 0. -1.
         13    1    6    6    0    0 -0.14348298159E+00 -0.11151204977E+01  0.28052167358E+01  0.30239621401E+01  0.10500000000E+00 0.  1.
</event>
<event>
11    0  0.3482988E-009  0.9118800E+02  0.7816531E-02  0.1126479E+00
         25   -1    0    0    0    0  0.00000000000E+00  0.00000000000E+00  0.99999998245E-14  0.12500000000E+03  0.12500000000E+03 0.  0.
    3000001    1    3    3    0    0  0.66274622920E+00  0.17320321697E+01  0.15552125785E+01  0.26187504970E+01  0.10000000000E+01 0. -1.
    1000022    2    1    0    0    0 -0.22137616239E+02  0.52416311019E+02  0.23847562626E+02  0.62499999682E+02  0.10000000171E+02 0.  0.
    3000022    2    3    3    0    0 -0.22800362468E+02  0.50684278850E+02  0.22292350048E+02  0.59881249185E+02  0.24996424946E+00 0.  0.
    1000022    2    1    0    0    0  0.22137616239E+02 -0.52416311019E+02 -0.23847562626E+02  0.62500000318E+02  0.10000004147E+02 0.  0.
    3000022    2    5    5    0    0  0.41827177680E+01 -0.12181786120E+02 -0.11647672443E+01  0.12934845427E+02  0.25000500901E+00 0.  0.
        -13    1    4    4    0    0 -0.99342767263E+01  0.21963162170E+02  0.97157130992E+01  0.25989929831E+02  0.10500000000E+00 0. -1.
         13    1    4    4    0    0 -0.12866085741E+02  0.28721116679E+02  0.12576636949E+02  0.33891319354E+02  0.10500000000E+00 0.  1.
    3000001    1    5    5    0    0  0.17954898471E+02 -0.40234524900E+02 -0.22682795382E+02  0.49565154891E+02  0.10000000000E+01 0.  1.
        -13    1    6    6    0    0  0.21426570285E+01 -0.63735096286E+01 -0.66021409693E+00  0.67571822368E+01  0.10500000000E+00 0.  1.
         13    1    6    6    0    0  0.20400607395E+01 -0.58082764912E+01 -0.50455314736E+00  0.61776631907E+01  0.10500000000E+00 0. -1.
</event>
<event>
11    0  0.3482988E-009  0.9118800E+02  0.7816531E-02  0.1126479E+00
         25   -1    0    0    0    0  0.00000000000E+00  0.00000000000E+00  0.99999998245E-14  0.12500000000E+03  0.12500000000E+03 0.  0.
    3000001    1    3    3    0    0  0.26667547374E+01 -0.49322747344E+01 -0.10480939701E+01  0.57911497870E+01  0.10000000000E+01 0. -1.
    1000022    2    1    0    0    0  0.50109957089E+02 -0.33011998697E+02 -0.14333534634E+02  0.62500000979E+02  0.10000002489E+02 0.  0.
    3000022    2    3    3    0    0  0.47443202352E+02 -0.28079723963E+02 -0.13285440664E+02  0.56708851192E+02  0.25004529644E+00 0.  0.
    1000022    2    1    0    0    0 -0.50109957089E+02  0.33011998697E+02  0.14333534634E+02  0.62499999021E+02  0.99999902563E+01 0.  0.
    3000022    2    5    5    0    0 -0.36475287948E+02  0.18742603930E+02  0.10999006008E+02  0.42459068135E+02  0.25000167607E+00 0.  0.
        -13    1    4    4    0    0  0.34998365643E+02 -0.20735183781E+02 -0.97750864010E+01  0.41837743525E+02  0.10500000000E+00 0. -1.
         13    1    4    4    0    0  0.12444836709E+02 -0.73445401811E+01 -0.35103542631E+01  0.14871107666E+02  0.10500000000E+00 0.  1.
    3000001    1    5    5    0    0 -0.13634669141E+02  0.14269394767E+02  0.33345286265E+01  0.20040930886E+02  0.10000000000E+01 0.  1.
        -13    1    6    6    0    0 -0.98544937494E+01  0.51015954312E+01  0.29899599445E+01  0.11492963433E+02  0.10500000000E+00 0.  1.
         13    1    6    6    0    0 -0.26620794198E+02  0.13641008499E+02  0.80090460632E+01  0.30966104703E+02  0.10500000000E+00 0. -1.
</event>
<event>
11    0  0.3482988E-009  0.9118800E+02  0.7816531E-02  0.1126479E+00
         25   -1    0    0    0    0  0.00000000000E+00  0.00000000000E+00  0.99999998245E-14  0.12500000000E+03  0.12500000000E+03 0.  0.
    3000001    1    3    3    0    0  0.89019453920E+01 -0.10961318747E+02  0.21093096178E+02  0.25403028300E+02  0.10000000000E+01 0. -1.
    1000022    2    1    0    0    0  0.22869537511E+02 -0.36205878643E+02  0.44411357360E+02  0.62499998965E+02  0.99999906918E+01 0.  0.
    3000022    2    3    3    0    0  0.13967592120E+02 -0.25244559896E+02  0.23318261182E+02  0.37096970665E+02  0.24998809081E+00 0.  0.
    1000022    2    1    0    0    0 -0.22869537511E+02  0.36205878643E+02 -0.44411357360E+02  0.62500001035E+02  0.10000003625E+02 0.  0.
    3000022    2    5    5    0    0 -0.50840914161E+01  0.35860075787E+01 -0.31868688328E+01  0.69947171838E+01  0.24999928246E+00 0.  0.
        -13    1    4    4    0    0  0.93399192179E+01 -0.16929978281E+02  0.15687714511E+02  0.24899270415E+02  0.10500000000E+00 0. -1.
         13    1    4    4    0    0  0.46276729016E+01 -0.83145816148E+01  0.76305466702E+01  0.12197700250E+02  0.10500000000E+00 0.  1.
    3000001    1    5    5    0    0 -0.17785446095E+02  0.32619871064E+02 -0.41224488527E+02  0.55505283851E+02  0.10000000000E+01 0. -1.
        -13    1    6    6    0    0 -0.37451954645E+01  0.26046374729E+01 -0.23162919420E+01  0.51173097222E+01  0.10500000000E+00 0. -1.
         13    1    6    6    0    0 -0.13388959516E+01  0.98137010577E+00 -0.87057689085E+00  0.18774074616E+01  0.10500000000E+00 0.  1.
</event>
<event>
11    0  0.3482988E-009  0.9118800E+02  0.7816531E-02  0.1126479E+00
         25   -1    0    0    0    0  0.00000000000E+00  0.00000000000E+00  0.99999998245E-14  0.12500000000E+03  0.12500000000E+03 0.  0.
    3000001    1    3    3    0    0 -0.53586842864E+02 -0.10275355657E+02 -0.15991921696E+02  0.56867162946E+02  0.10000000000E+01 0. -1.
    1000022    2    1    0    0    0 -0.57572751528E+02 -0.97254770719E+01 -0.19925939550E+02  0.62499997511E+02  0.99999999551E+01 0.  0.
    3000022    2    3    3    0    0 -0.39859086641E+01  0.54987858551E+00 -0.39340178532E+01  0.56328345643E+01  0.24998884453E+00 0.  0.
    1000022    2    1    0    0    0  0.57572751528E+02  0.97254770719E+01  0.19925939550E+02  0.62500002489E+02  0.10000031071E+02 0.  0.
    3000022    2    5    5    0    0  0.40886062947E+00  0.10861747607E+01 -0.33124762672E+00  0.12325429418E+01  0.24998897602E+00 0.  0.
        -13    1    4    4    0    0 -0.22155617431E+01  0.37191352629E+00 -0.22071528914E+01  0.31511239891E+01  0.10500000000E+00 0. -1.
         13    1    4    4    0    0 -0.17703469210E+01  0.17796505922E+00 -0.17268649618E+01  0.24817105752E+01  0.10500000000E+00 0.  1.
    3000001    1    5    5    0    0  0.57163890899E+02  0.86393023112E+01  0.20257187176E+02  0.61267459547E+02  0.10000000000E+01 0. -1.
        -13    1    6    6    0    0  0.26785276710E+00  0.79060126478E+00 -0.20268204007E+00  0.86539035937E+00  0.10500000000E+00 0.  1.
         13    1    6    6    0    0  0.14100786237E+00  0.29557349595E+00 -0.12856558664E+00  0.36715258248E+00  0.10500000000E+00 0. -1.
</event>
<event>
11    0  0.3482988E-009  0.9118800E+02  0.7816531E-02  0.1126479E+00
         25   -1    0    0    0    0  0.00000000000E+00  0.00000000000E+00  0.99999998245E-14  0.12500000000E+03  0.12500000000E+03 0.  0.
    3000001    1    3    3    0    0  0.30683136335E+00 -0.17757363920E-01 -0.16103342591E-01  0.10462887399E+01  0.10000000000E+01 0. -1.
    1000022    2    1    0    0    0  0.45380962052E+02 -0.29114717391E+02 -0.29985853892E+02  0.62500001291E+02  0.10000012110E+02 0.  0.
    3000022    2    3    3    0    0  0.45074130688E+02 -0.29096960027E+02 -0.29969750549E+02  0.61453712551E+02  0.24999629746E+00 0.  0.
    1000022    2    1    0    0    0 -0.45380962052E+02  0.29114717391E+02  0.29985853892E+02  0.62499998709E+02  0.99999959781E+01 0.  0.
    3000022    2    5    5    0    0 -0.43278201371E+02  0.25110862826E+02  0.28743893005E+02  0.57704696769E+02  0.24999664007E+00 0.  0.
        -13    1    4    4    0    0  0.18661516177E+02 -0.12112704366E+02 -0.12390667195E+02  0.25465848732E+02  0.10500000000E+00 0.  1.
         13    1    4    4    0    0  0.26412614511E+02 -0.16984255662E+02 -0.17579083354E+02  0.35987863819E+02  0.10500000000E+00 0. -1.
    3000001    1    5    5    0    0 -0.21027606804E+01  0.40038545649E+01  0.12419608873E+01  0.47953019406E+01  0.10000000000E+01 0. -1.
        -13    1    6    6    0    0 -0.23618556549E+02  0.13741472734E+02  0.15630039605E+02  0.31479730771E+02  0.10500000000E+00 0. -1.
         13    1    6    6    0    0 -0.19659644822E+02  0.11369390092E+02  0.13113853400E+02  0.26224965998E+02  0.10500000000E+00 0.  1.
</event>
<event>
11    0  0.3482988E-009  0.9118800E+02  0.7816531E-02  0.1126479E+00
         25   -1    0    0    0    0  0.00000000000E+00  0.00000000000E+00  0.99999998245E-14  0.12500000000E+03  0.12500000000E+03 0.  0.
    3000001    1    3    3    0    0 -0.10433087727E+02  0.30671465518E+01 -0.92586164851E+00  0.10959649961E+02  0.10000000000E+01 0.  1.
    1000022    2    1    0    0    0 -0.61175030922E+02 -0.34009021695E+01 -0.72318048008E+01  0.62500001818E+02  0.10000034136E+02 0.  0.
    3000022    2    3    3    0    0 -0.50741943195E+02 -0.64680487213E+01 -0.63059431523E+01  0.51540351857E+02  0.24999398451E+00 0.  0.
    1000022    2    1    0    0    0  0.61175030922E+02  0.34009021695E+01  0.72318048008E+01  0.62499998182E+02  0.10000011408E+02 0.  0.
    3000022    2    5    5    0    0  0.38806353645E+01 -0.28228863232E+00  0.30063319887E+01  0.49233685716E+01  0.25001672109E+00 0.  0.
        -13    1    4    4    0    0 -0.22152663404E+02 -0.27730664885E+01 -0.27093073625E+01  0.22489592372E+02  0.10500000000E+00 0.  1.
         13    1    4    4    0    0 -0.28589279791E+02 -0.36949822328E+01 -0.35966357898E+01  0.29050759485E+02  0.10500000000E+00 0. -1.
    3000001    1    5    5    0    0  0.57294395558E+02  0.36831908018E+01  0.42254728121E+01  0.57576629610E+02  0.10000000000E+01 0.  1.
        -13    1    6    6    0    0  0.18952916633E+01 -0.76471494909E-01  0.14283549043E+01  0.23768048113E+01  0.10500000000E+00 0. -1.
         13    1    6    6    0    0  0.19853437012E+01 -0.20581713741E+00  0.15779770845E+01  0.25465637603E+01  0.10500000000E+00 0.  1.
</event>
<event>
11    0  0.3482988E-009  0.9118800E+02  0.7816531E-02  0.1126479E+00
         25   -1    0    0    0    0  0.00000000000E+00  0.00000000000E+00  0.99999998245E-14  0.12500000000E+03  0.12500000000E+03 0.  0.
    3000001    1    3    3    0    0 -0.42029556222E+02 -0.31478126738E+02  0.20166096948E+02  0.56258577349E+02  0.10000000000E+01 0.  1.
    1000022    2    1    0    0    0 -0.47699041499E+02 -0.33967615862E+02  0.19422984669E+02  0.62499998158E+02  0.99999974510E+01 0.  0.
    3000022    2    3    3    0    0 -0.56694852767E+01 -0.24894891236E+01 -0.74311227989E+00  0.62414208088E+01  0.24999690534E+00 0.  0.
    1000022    2    1    0    0    0  0.47699041499E+02  0.33967615862E+02 -0.19422984669E+02  0.62500001842E+02  0.10000020477E+02 0.  0.
    3000022    2    5    5    0    0  0.23085816973E+02  0.21732925289E+02 -0.12912092413E+02  0.34235356206E+02  0.24999423394E+00 0.  0.
        -13    1    4    4    0    0 -0.42608196140E+01 -0.18794201492E+01 -0.58271300628E+00  0.46943991445E+01  0.10500000000E+00 0. -1.
         13    1    4    4    0    0 -0.14086656627E+01 -0.61006897436E+00 -0.16039927361E+00  0.15470216643E+01  0.10500000000E+00 0.  1.
    3000001    1    5    5    0    0  0.24613224526E+02  0.12234690573E+02 -0.65108922560E+01  0.28264645637E+02  0.10000000000E+01 0.  1.
        -13    1    6    6    0    0  0.13143339720E+02  0.12322024924E+02 -0.73952653776E+01  0.19475129068E+02  0.10500000000E+00 0. -1.
         13    1    6    6    0    0  0.99424772529E+01  0.94109003650E+01 -0.55168270350E+01  0.14760227137E+02  0.10500000000E+00 0.  1.
</event>
<event>
11    0  0.3482988E-009  0.9118800E+02  0.7816531E-02  0.1126479E+00
         25   -1    0    0    0    0  0.00000000000E+00  0.00000000000E+00  0.99999998245E-14  0.12500000000E+03  0.12500000000E+03 0.  0.
    3000001    1    3    3    0    0  0.63024561462E+01  0.78254648522E+01  0.88515023777E+01  0.13427879504E+02  0.10000000000E+01 0.  1.
    1000022    2    1    0    0    0  0.43752260334E+02  0.26858306737E+02  0.34214341537E+02  0.62500000067E+02  0.99999958193E+01 0.  0.
    3000022    2    3    3    0    0  0.37449804188E+02  0.19032841885E+02  0.25362839159E+02  0.49072120563E+02  0.25000473796E+00 0.  0.
    1000022    2    1    0    0    0 -0.43752260334E+02 -0.26858306737E+02 -0.34214341537E+02  0.62499999933E+02  0.99999949875E+01 0.  0.
    3000022    2    5    5    0    0 -0.35869034419E+02 -0.20033641098E+02 -0.31233334853E+02  0.51609283118E+02  0.24998413604E+00 0.  0.
        -13    1    4    4    0    0  0.22360736553E+02  0.11430772229E+02  0.15187603640E+02  0.29348584672E+02  0.10500000000E+00 0.  1.
         13    1    4    4    0    0  0.15089067635E+02  0.76020696559E+01  0.10175235519E+02  0.19723535891E+02  0.10500000000E+00 0. -1.
    3000001    1    5    5    0    0 -0.78832259150E+01 -0.68246656391E+01 -0.29810066836E+01  0.10890716816E+02  0.10000000000E+01 0.  1.
        -13    1    6    6    0    0 -0.18343363286E+02 -0.10210110393E+02 -0.15883737323E+02  0.26325452840E+02  0.10500000000E+00 0.  1.
         13    1    6    6    0    0 -0.17525671134E+02 -0.98235307048E+01 -0.15349597530E+02  0.25283830278E+02  0.10500000000E+00 0. -1.
</event>
<event>
11    0  0.3482988E-009  0.9118800E+02  0.7816531E-02  0.1126479E+00
         25   -1    0    0    0    0  0.00000000000E+00  0.00000000000E+00  0.99999998245E-14  0.12500000000E+03  0.12500000000E+03 0.  0.
    3000001    1    3    3    0    0  0.76416392149E+01  0.19908754022E+02 -0.79882949332E+01  0.22793990272E+02  0.10000000000E+01 0. -1.
    1000022    2    1    0    0    0  0.14543277160E+02  0.58858783336E+02 -0.11418675801E+02  0.62500002438E+02  0.10000043068E+02 0.  0.
    3000022    2    3    3    0    0  0.69016379451E+01  0.38950029314E+02 -0.34303808680E+01  0.39706012165E+02  0.24999863387E+00 0.  0.
    1000022    2    1    0    0    0 -0.14543277160E+02 -0.58858783336E+02  0.11418675801E+02  0.62499997562E+02  0.10000012594E+02 0.  0.
    3000022    2    5    5    0    0 -0.13127416203E+02 -0.56035200907E+02  0.86847648660E+01  0.58204470937E+02  0.24999894230E+00 0.  0.
        -13    1    4    4    0    0  0.29693640565E+01  0.16410135392E+02 -0.14230017667E+01  0.16737551359E+02  0.10500000000E+00 0.  1.
         13    1    4    4    0    0  0.39322738886E+01  0.22539893922E+02 -0.20073791012E+01  0.22968460806E+02  0.10500000000E+00 0. -1.
    3000001    1    5    5    0    0 -0.14158609570E+01 -0.28235824289E+01  0.27339109351E+01  0.42955266247E+01  0.10000000000E+01 0.  1.
        -13    1    6    6    0    0 -0.80760981794E+01 -0.34208904527E+02  0.53182172963E+01  0.35549500291E+02  0.10500000000E+00 0. -1.
         13    1    6    6    0    0 -0.50513180236E+01 -0.21826296380E+02  0.33665475697E+01  0.22654970646E+02  0.10500000000E+00 0.  1.
</event>
<event>
11    0  0.3482988E-009  0.9118800E+02  0.7816531E-02  0.1126479E+00
         25   -1    0    0    0    0  0.00000000000E+00  0.00000000000E+00  0.99999998245E-14  0.12500000000E+03  0.12500000000E+03 0.  0.
    3000001    1    3    3    0    0 -0.30703651875E+01 -0.39532905552E+01  0.21986280386E+01  0.55578425536E+01  0.10000000000E+01 0. -1.
    1000022    2    1    0    0    0 -0.13781666924E+02 -0.38885804193E+02  0.45871665701E+02  0.62499999311E+02  0.10000004440E+02 0.  0.
    3000022    2    3    3    0    0 -0.10711301737E+02 -0.34932513637E+02  0.43673037662E+02  0.56942156758E+02  0.25000725907E+00 0.  0.
    1000022    2    1    0    0    0  0.13781666924E+02  0.38885804193E+02 -0.45871665701E+02  0.62500000689E+02  0.10000013051E+02 0.  0.
    3000022    2    5    5    0    0  0.69972725472E+01  0.30080955245E+02 -0.37304715921E+02  0.48430672326E+02  0.25000090815E+00 0.  0.
        -13    1    4    4    0    0 -0.49556326095E+01 -0.16391254879E+02  0.20462931333E+02  0.26682843080E+02  0.10500000000E+00 0.  1.
         13    1    4    4    0    0 -0.57556691272E+01 -0.18541258758E+02  0.23210106329E+02  0.30259313678E+02  0.10500000000E+00 0. -1.
    3000001    1    5    5    0    0  0.67843943770E+01  0.88048489473E+01 -0.85669497800E+01  0.14069328363E+02  0.10000000000E+01 0.  1.
        -13    1    6    6    0    0  0.18086914024E+01  0.76614276553E+01 -0.94882356076E+01  0.12329090731E+02  0.10500000000E+00 0. -1.
         13    1    6    6    0    0  0.51885811448E+01  0.22419527590E+02 -0.27816480313E+02  0.36101581595E+02  0.10500000000E+00 0.  1.
</event>
<event>
11    0  0.3482988E-009  0.9118800E+02  0.7816531E-02  0.1126479E+00
         25   -1    0    0    0    0  0.00000000000E+00  0.00000000000E+00  0.99999998245E-14  0.12500000000E+03  0.12500000000E+03 0.  0.
    3000001    1    3    3    0    0  0.74237563560E+01 -0.10385777750E+02 -0.39160250550E+01  0.13390735235E+02  0.10000000000E+01 0.  1.
    1000022    2    1    0    0    0  0.45270827955E+02 -0.34259492991E+02 -0.24147243498E+02  0.62499999197E+02  0.99999903646E+01 0.  0.
    3000022    2    3    3    0    0  0.37847071599E+02 -0.23873715242E+02 -0.20231218443E+02  0.49109263962E+02  0.24999827724E+00 0.  0.
    1000022    2    1    0    0    0 -0.45270827955E+02  0.34259492991E+02  0.24147243498E+02  0.62500000803E+02  0.10000000408E+02 0.  0.
    3000022    2    5    5    0    0 -0.35816182007E+02  0.21734445841E+02  0.18395875049E+02  0.45756483397E+02  0.25004888585E+00 0.  0.
        -13    1    4    4    0    0  0.20120405889E+02 -0.12633480375E+02 -0.10690964085E+02  0.26052702308E+02  0.10500000000E+00 0.  1.
         13    1    4    4    0    0  0.17726665710E+02 -0.11240234867E+02 -0.95402543579E+01  0.23056561653E+02  0.10500000000E+00 0. -1.
    3000001    1    5    5    0    0 -0.94546459473E+01  0.12525047150E+02  0.57513684484E+01  0.16743517406E+02  0.10000000000E+01 0. -1.
        -13    1    6    6    0    0 -0.23299226596E+02  0.14136051244E+02  0.11904580653E+02  0.29739064717E+02  0.10500000000E+00 0.  1.
         13    1    6    6    0    0 -0.12516955412E+02  0.75983945972E+01  0.64912943967E+01  0.16017418680E+02  0.10500000000E+00 0. -1.
</event>
<event>
11    0  0.3482988E-009  0.9118800E+02  0.7816531E-02  0.1126479E+00
         25   -1    0    0    0    0  0.00000000000E+00  0.00000000000E+00  0.99999998245E-14  0.12500000000E+03  0.12500000000E+03 0.  0.
    3000001    1    3    3    0    0 -0.94326268552E+01  0.54647468442E+02 -0.46781664477E+01  0.55661526190E+02  0.10000000000E+01 0. -1.
    1000022    2    1    0    0    0 -0.12734299692E+02  0.60304552926E+02 -0.27291698081E+01  0.62500000694E+02  0.10000011330E+02 0.  0.
    3000022    2    3    3    0    0 -0.33016728367E+01  0.56570844846E+01  0.19489966396E+01  0.68384745039E+01  0.24999450633E+00 0.  0.
    1000022    2    1    0    0    0  0.12734299692E+02 -0.60304552926E+02  0.27291698081E+01  0.62499999306E+02  0.10000002657E+02 0.  0.
    3000022    2    5    5    0    0  0.11753836288E+02 -0.41796504338E+02  0.53807247586E+01  0.43750601590E+02  0.24999653291E+00 0.  0.
        -13    1    4    4    0    0 -0.17615586059E+01  0.29771406542E+01  0.10961818387E+01  0.36303023042E+01  0.10500000000E+00 0. -1.
         13    1    4    4    0    0 -0.15401142308E+01  0.26799438304E+01  0.85281480095E+00  0.32081721997E+01  0.10500000000E+00 0.  1.
    3000001    1    5    5    0    0  0.98046340388E+00 -0.18508048589E+02 -0.26515549505E+01  0.18749397716E+02  0.10000000000E+01 0.  1.
        -13    1    6    6    0    0  0.42897729020E+01 -0.15472455934E+02  0.19973010439E+01  0.16180212626E+02  0.10500000000E+00 0.  1.
         13    1    6    6    0    0  0.74640633860E+01 -0.26324048404E+02  0.33834237147E+01  0.27570388964E+02  0.10500000000E+00 0. -1.
</event>
<event>
11    0  0.3482988E-009  0.9118800E+02  0.7816531E-02  0.1126479E+00
         25   -1    0    0    0    0  0.00000000000E+00  0.00000000000E+00  0.99999998245E-14  0.12500000000E+03  0.12500000000E+03 0.  0.
    3000001    1    3    3    0    0 -0.67020587631E+00 -0.11836637004E+01  0.32902732347E+01  0.36981256917E+01  0.10000000000E+01 0.  1.
    1000022    2    1    0    0    0  0.16207260791E+02  0.33946291430E+01  0.59431062902E+02  0.62500000010E+02  0.99999977137E+01 0.  0.
    3000022    2    3    3    0    0  0.16877466667E+02  0.45782928434E+01  0.56140789667E+02  0.58801874318E+02  0.25002492839E+00 0.  0.
    1000022    2    1    0    0    0 -0.16207260791E+02 -0.33946291430E+01 -0.59431062902E+02  0.62499999990E+02  0.99999975880E+01 0.  0.
    3000022    2    5    5    0    0 -0.74751565176E+01 -0.11607664775E+01 -0.11839362151E+02  0.14051989011E+02  0.25011047909E+00 0.  0.
        -13    1    4    4    0    0  0.53772561381E+01  0.14096367754E+01  0.17790345755E+02  0.18638921281E+02  0.10500000000E+00 0. -1.
         13    1    4    4    0    0  0.11500210529E+02  0.31686560680E+01  0.38350443912E+02  0.40162953038E+02  0.10500000000E+00 0.  1.
    3000001    1    5    5    0    0 -0.87321042732E+01 -0.22338626655E+01 -0.47591700751E+02  0.48448010979E+02  0.10000000000E+01 0. -1.
        -13    1    6    6    0    0 -0.35573883642E+01 -0.62084927348E+00 -0.56461282007E+01  0.67030033905E+01  0.10500000000E+00 0.  1.
         13    1    6    6    0    0 -0.39177681534E+01 -0.53991720400E+00 -0.61932339499E+01  0.73489856205E+01  0.10500000000E+00 0. -1.
</event>
<event>
11    0  0.3482988E-009  0.9118800E+02  0.7816531E-02  0.1126479E+00
         25   -1    0    0    0    0  0.00000000000E+00  0.00000000000E+00  0.99999998245E-14  0.12500000000E+03  0.12500000000E+03 0.  0.
    3000001    1    3    3    0    0 -0.49629824580E+02  0.49076874234E+01  0.82341490565E+01  0.50556958912E+02  0.10000000000E+01 0. -1.
    1000022    2    1    0    0    0 -0.60777149071E+02  0.86406383904E+01  0.61422679258E+01  0.62500000079E+02  0.10000003682E+02 0.  0.
    3000022    2    3    3    0    0 -0.11147324490E+02  0.37329509671E+01 -0.20918811307E+01  0.11943041167E+02  0.24999887878E+00 0.  0.
    1000022    2    1    0    0    0  0.60777149071E+02 -0.86406383904E+01 -0.61422679258E+01  0.62499999921E+02  0.10000002693E+02 0.  0.
    3000022    2    5    5    0    0  0.23989721396E+02 -0.60937764058E+00 -0.63790072510E+01  0.24832082144E+02  0.24999262864E+00 0.  0.
        -13    1    4    4    0    0 -0.65385179353E+01  0.22571533934E+01 -0.12282006262E+01  0.70261269565E+01  0.10500000000E+00 0. -1.
         13    1    4    4    0    0 -0.46088065552E+01  0.14757975737E+01 -0.86368050450E+00  0.49169142107E+01  0.10500000000E+00 0.  1.
    3000001    1    5    5    0    0  0.36787427675E+02 -0.80312607498E+01  0.23673932523E+00  0.37667917777E+02  0.10000000000E+01 0. -1.
        -13    1    6    6    0    0  0.11965909862E+02 -0.24454478186E+00 -0.32152815014E+01  0.12393218351E+02  0.10500000000E+00 0.  1.
         13    1    6    6    0    0  0.12023811535E+02 -0.36483285872E+00 -0.31637257496E+01  0.12438863793E+02  0.10500000000E+00 0. -1.
</event>
<event>
11    0  0.3482988E-009  0.9118800E+02  0.7816531E-02  0.1126479E+00
         25   -1    0    0    0    0  0.00000000000E+00  0.00000000000E+00  0.99999998245E-14  0.12500000000E+03  0.12500000000E+03 0.  0.
    3000001    1    3    3    0    0  0.30794528616E+01 -0.55176363589E+00 -0.35792579516E+01  0.48578349623E+01  0.10000000000E+01 0.  1.
    1000022    2    1    0    0    0  0.11465199441E+02 -0.17258550704E+01 -0.60595549216E+02  0.62500000335E+02  0.10000004157E+02 0.  0.
    3000022    2    3    3    0    0  0.83857465797E+01 -0.11740914345E+01 -0.57016291264E+02  0.57642165372E+02  0.25004585661E+00 0.  0.
    1000022    2    1    0    0    0 -0.11465199441E+02  0.17258550704E+01  0.60595549216E+02  0.62499999665E+02  0.99999999743E+01 0.  0.
    3000022    2    5    5    0    0 -0.19145167484E+01  0.31269959291E+01  0.33837393348E+02  0.34036380060E+02  0.25000216602E+00 0.  0.
        -13    1    4    4    0    0  0.46225663738E+01 -0.58026218073E+00 -0.31414339826E+02  0.31758094965E+02  0.10500000000E+00 0.  1.
         13    1    4    4    0    0  0.37631802060E+01 -0.59382925375E+00 -0.25601951437E+02  0.25884070407E+02  0.10500000000E+00 0. -1.
    3000001    1    5    5    0    0 -0.95506826929E+01 -0.14011408587E+01  0.26758155868E+02  0.28463619605E+02  0.10000000000E+01 0. -1.
        -13    1    6    6    0    0 -0.70096875590E+00  0.12577659498E+01  0.13480926363E+02  0.13558013607E+02  0.10500000000E+00 0. -1.
         13    1    6    6    0    0 -0.12135479925E+01  0.18692299793E+01  0.20356466985E+02  0.20478366453E+02  0.10500000000E+00 0.  1.
</event>
<event>
11    0  0.3482988E-009  0.9118800E+02  0.7816531E-02  0.1126479E+00
         25   -1    0    0    0    0  0.00000000000E+00  0.00000000000E+00  0.99999998245E-14  0.12500000000E+03  0.12500000000E+03 0.  0.
    3000001    1    3    3    0    0 -0.44446078976E+01 -0.30597867381E+02  0.22234179792E+02  0.38096492997E+02  0.10000000000E+01 0. -1.
    1000022    2    1    0    0    0  0.11736860824E+00 -0.51503157831E+02  0.33965584116E+02  0.62499999992E+02  0.10000002637E+02 0.  0.
    3000022    2    3    3    0    0  0.45619765059E+01 -0.20905290450E+02  0.11731404323E+02  0.24403506995E+02  0.25001565451E+00 0.  0.
    1000022    2    1    0    0    0 -0.11736860824E+00  0.51503157831E+02 -0.33965584116E+02  0.62500000008E+02  0.10000002737E+02 0.  0.
    3000022    2    5    5    0    0  0.36171650135E+01  0.37010638710E+02 -0.27038243385E+02  0.45978259741E+02  0.25000608651E+00 0.  0.
        -13    1    4    4    0    0  0.30009754412E+01 -0.13854628649E+02  0.78286188635E+01  0.16194285625E+02  0.10500000000E+00 0.  1.
         13    1    4    4    0    0  0.15610010646E+01 -0.70506618017E+01  0.39027854596E+01  0.82092213705E+01  0.10500000000E+00 0. -1.
    3000001    1    5    5    0    0 -0.37345336217E+01  0.14492519121E+02 -0.69273407310E+01  0.16521740267E+02  0.10000000000E+01 0. -1.
        -13    1    6    6    0    0  0.11895982905E+01  0.12003930929E+02 -0.87102391776E+01  0.14879139537E+02  0.10500000000E+00 0. -1.
         13    1    6    6    0    0  0.24275667230E+01  0.25006707781E+02 -0.18328004207E+02  0.31099120204E+02  0.10500000000E+00 0.  1.
</event>
<event>
11    0  0.3482988E-009  0.9118800E+02  0.7816531E-02  0.1126479E+00
         25   -1    0    0    0    0  0.00000000000E+00  0.00000000000E+00  0.99999998245E-14  0.12500000000E+03  0.12500000000E+03 0.  0.
    3000001    1    3    3    0    0 -0.17283635042E+02  0.13995475319E+02 -0.21524773684E+02  0.30966324480E+02  0.10000000000E+01 0. -1.
    1000022    2    1    0    0    0 -0.28046282186E+02  0.35384153029E+02 -0.42043062432E+02  0.62500001433E+02  0.99999425226E+01 0.  0.
    3000022    2    3    3    0    0 -0.10762647145E+02  0.21388677710E+02 -0.20518288747E+02  0.31533676953E+02  0.25000259880E+00 0.  0.
    1000022    2    1    0    0    0  0.28046282186E+02 -0.35384153029E+02  0.42043062432E+02  0.62499998567E+02  0.99999246095E+01 0.  0.
    3000022    2    5    5    0    0  0.25175206435E+01 -0.23467380657E+01  0.76692689284E+01  0.84098318713E+01  0.24999293589E+00 0.  0.
        -13    1    4    4    0    0 -0.34697941052E+01  0.69811353630E+01 -0.66348662349E+01  0.10237587462E+02  0.10500000000E+00 0.  1.
         13    1    4    4    0    0 -0.72928530393E+01  0.14407542347E+02 -0.13883422512E+02  0.21296089491E+02  0.10500000000E+00 0. -1.
    3000001    1    5    5    0    0  0.25528761543E+02 -0.33037414963E+02  0.34373793503E+02  0.54090166696E+02  0.10000000000E+01 0. -1.
        -13    1    6    6    0    0  0.10658300301E+01 -0.10216783773E+01  0.31410964991E+01  0.34723669991E+01  0.10500000000E+00 0.  1.
         13    1    6    6    0    0  0.14516906134E+01 -0.13250596884E+01  0.45281724293E+01  0.49374648722E+01  0.10500000000E+00 0. -1.
</event>
<event>
11    0  0.3482988E-009  0.9118800E+02  0.7816531E-02  0.1126479E+00
         25   -1    0    0    0    0  0.00000000000E+00  0.00000000000E+00  0.99999998245E-14  0.12500000000E+03  0.12500000000E+03 0.  0.
    3000001    1    3    3    0    0 -0.50260436564E+01  0.52356174060E+00 -0.58767313935E+01  0.78148066901E+01  0.10000000000E+01 0. -1.
    1000022    2    1    0    0    0 -0.27663702695E+02 -0.17192832781E+02 -0.52396336227E+02  0.62500000080E+02  0.10000000709E+02 0.  0.
    3000022    2    3    3    0    0 -0.22637659039E+02 -0.17716394521E+02 -0.46519604834E+02  0.54685193390E+02  0.25000130942E+00 0.  0.
    1000022    2    1    0    0    0  0.27663702695E+02  0.17192832781E+02  0.52396336227E+02  0.62499999920E+02  0.99999997043E+01 0.  0.
    3000022    2    5    5    0    0  0.14638349623E+02  0.94384896201E+01  0.36869866567E+02  0.40777639996E+02  0.24999410236E+00 0.  0.
        -13    1    4    4    0    0 -0.13586338605E+02 -0.10659867463E+02 -0.28058837337E+02  0.32947393656E+02  0.10500000000E+00 0.  1.
         13    1    4    4    0    0 -0.90513204339E+01 -0.70565270583E+01 -0.18460767497E+02  0.21737799734E+02  0.10500000000E+00 0. -1.
    3000001    1    5    5    0    0  0.13025353072E+02  0.77543431606E+01  0.15526469661E+02  0.21722359923E+02  0.10000000000E+01 0.  1.
        -13    1    6    6    0    0  0.72327576188E+01  0.47429710791E+01  0.18280705318E+02  0.20223841607E+02  0.10500000000E+00 0.  1.
         13    1    6    6    0    0  0.74055920040E+01  0.46955185409E+01  0.18589161248E+02  0.20553798389E+02  0.10500000000E+00 0. -1.
</event>
<event>
11    0  0.3482988E-009  0.9118800E+02  0.7816531E-02  0.1126479E+00
         25   -1    0    0    0    0  0.00000000000E+00  0.00000000000E+00  0.99999998245E-14  0.12500000000E+03  0.12500000000E+03 0.  0.
    3000001    1    3    3    0    0  0.35508861057E+02  0.40531416230E+02 -0.20006278319E+02  0.57488486563E+02  0.10000000000E+01 0. -1.
    1000022    2    1    0    0    0  0.38312799673E+02  0.42060272219E+02 -0.23860275514E+02  0.62499999905E+02  0.10000006132E+02 0.  0.
    3000022    2    3    3    0    0  0.28039386159E+01  0.15288559889E+01 -0.38539971955E+01  0.50115133420E+01  0.24999839488E+00 0.  0.
    1000022    2    1    0    0    0 -0.38312799673E+02 -0.42060272219E+02  0.23860275514E+02  0.62500000095E+02  0.10000007317E+02 0.  0.
    3000022    2    5    5    0    0 -0.54222867983E+01 -0.27530613609E+01  0.50046711451E+01  0.78797064421E+01  0.24999872735E+00 0.  0.
        -13    1    4    4    0    0  0.97764610485E+00  0.47076299991E+00 -0.13083202465E+01  0.17029787361E+01  0.10500000000E+00 0. -1.
         13    1    4    4    0    0  0.18262925111E+01  0.10580929890E+01 -0.25456769490E+01  0.33085346058E+01  0.10500000000E+00 0.  1.
    3000001    1    5    5    0    0 -0.32890512875E+02 -0.39307210858E+02  0.18855604369E+02  0.54620293653E+02  0.10000000000E+01 0. -1.
        -13    1    6    6    0    0 -0.39254136566E+01 -0.20087801798E+01  0.35814286077E+01  0.56817009829E+01  0.10500000000E+00 0. -1.
         13    1    6    6    0    0 -0.14968731417E+01 -0.74428118109E+00  0.14232425373E+01  0.21980054592E+01  0.10500000000E+00 0.  1.
</event>
<event>
11    0  0.3482988E-009  0.9118800E+02  0.7816531E-02  0.1126479E+00
         25   -1    0    0    0    0  0.00000000000E+00  0.00000000000E+00  0.99999998245E-14  0.12500000000E+03  0.12500000000E+03 0.  0.
    3000001    1    3    3    0    0 -0.24728992328E+01  0.50807036356E+01 -0.25318819344E+01  0.62720974305E+01  0.10000000000E+01 0. -1.
    1000022    2    1    0    0    0 -0.65953482891E+01  0.41503110143E+02 -0.45169051366E+02  0.62499999790E+02  0.10000000097E+02 0.  0.
    3000022    2    3    3    0    0 -0.41224490563E+01  0.36422406507E+02 -0.42637169431E+02  0.56227902360E+02  0.25000937205E+00 0.  0.
    1000022    2    1    0    0    0  0.65953482891E+01 -0.41503110143E+02  0.45169051366E+02  0.62500000210E+02  0.10000002716E+02 0.  0.
    3000022    2    5    5    0    0  0.21274027361E+01 -0.93464714681E+01  0.49129599256E+01  0.10774137758E+02  0.24999578178E+00 0.  0.
        -13    1    4    4    0    0 -0.22668671458E+01  0.19515526691E+02 -0.22799907426E+02  0.30097197084E+02  0.10500000000E+00 0.  1.
         13    1    4    4    0    0 -0.18555819105E+01  0.16906879816E+02 -0.19837262005E+02  0.26130705276E+02  0.10500000000E+00 0. -1.
    3000001    1    5    5    0    0  0.44679455531E+01 -0.32156638675E+02  0.40256091440E+02  0.51725862452E+02  0.10000000000E+01 0.  1.
        -13    1    6    6    0    0  0.16131237372E+01 -0.70773538834E+01  0.36954695377E+01  0.81460804247E+01  0.10500000000E+00 0.  1.
         13    1    6    6    0    0  0.51427899884E+00 -0.22691175847E+01  0.12174903880E+01  0.26280573332E+01  0.10500000000E+00 0.  1.
</event>
<event>
11    0  0.3482988E-009  0.9118800E+02  0.7816531E-02  0.1126479E+00
         25   -1    0    0    0    0  0.00000000000E+00  0.00000000000E+00  0.99999998245E-14  0.12500000000E+03  0.12500000000E+03 0.  0.
    3000001    1    3    3    0    0  0.22405500133E+02 -0.25161978680E+01  0.69203195721E+01  0.23605688105E+02  0.10000000000E+01 0. -1.
    1000022    2    1    0    0    0  0.53554790017E+02 -0.12491251641E+02  0.27966104071E+02  0.62500000101E+02  0.10000006718E+02 0.  0.
    3000022    2    3    3    0    0  0.31149289884E+02 -0.99750537731E+01  0.21045784499E+02  0.38894311996E+02  0.25000483801E+00 0.  0.
    1000022    2    1    0    0    0 -0.53554790017E+02  0.12491251641E+02 -0.27966104071E+02  0.62499999899E+02  0.10000005457E+02 0.  0.
    3000022    2    5    5    0    0 -0.52770451804E+01  0.45191502223E+01 -0.34282856181E+01  0.77514877551E+01  0.24999114074E+00 0.  0.
        -13    1    4    4    0    0  0.12385028588E+02 -0.39307218870E+01  0.82980495173E+01  0.15417787081E+02  0.10500000000E+00 0.  1.
         13    1    4    4    0    0  0.18764261296E+02 -0.60443318861E+01  0.12747734982E+02  0.23476524915E+02  0.10500000000E+00 0. -1.
    3000001    1    5    5    0    0 -0.48277744837E+02  0.79721014189E+01 -0.24537818453E+02  0.54748512144E+02  0.10000000000E+01 0.  1.
        -13    1    6    6    0    0 -0.37312115014E+01  0.31382348637E+01 -0.24196962891E+01  0.54439335466E+01  0.10500000000E+00 0. -1.
         13    1    6    6    0    0 -0.15458336791E+01  0.13809153586E+01 -0.10085893290E+01  0.23075542086E+01  0.10500000000E+00 0.  1.
</event>
<event>
11    0  0.3482988E-009  0.9118800E+02  0.7816531E-02  0.1126479E+00
         25   -1    0    0    0    0  0.00000000000E+00  0.00000000000E+00  0.99999998245E-14  0.12500000000E+03  0.12500000000E+03 0.  0.
    3000001    1    3    3    0    0 -0.90087996513E+01  0.38424019088E+02 -0.70179549088E+01  0.40097573556E+02  0.10000000000E+01 0.  1.
    1000022    2    1    0    0    0 -0.13275111024E+02  0.57523647417E+02 -0.17917908772E+02  0.62500000040E+02  0.99999982702E+01 0.  0.
    3000022    2    3    3    0    0 -0.42663113727E+01  0.19099628329E+02 -0.10899953864E+02  0.22402426484E+02  0.25000618038E+00 0.  0.
    1000022    2    1    0    0    0  0.13275111024E+02 -0.57523647417E+02  0.17917908772E+02  0.62499999960E+02  0.99999977705E+01 0.  0.
    3000022    2    5    5    0    0 -0.14739152510E+00 -0.11630345888E+02  0.65116236444E+01  0.13332306906E+02  0.24999040011E+00 0.  0.
        -13    1    4    4    0    0 -0.20295939579E+01  0.93733902528E+01 -0.53712487542E+01  0.10992771927E+02  0.10500000000E+00 0.  1.
         13    1    4    4    0    0 -0.22367174148E+01  0.97262380762E+01 -0.55287051094E+01  0.11409654556E+02  0.10500000000E+00 0. -1.
    3000001    1    5    5    0    0  0.13422502549E+02 -0.45893301528E+02  0.11406285128E+02  0.49167693054E+02  0.10000000000E+01 0. -1.
        -13    1    6    6    0    0 -0.23733806971E-01 -0.58644741773E+01  0.32312948921E+01  0.66966344047E+01  0.10500000000E+00 0.  1.
         13    1    6    6    0    0 -0.12365771813E+00 -0.57658717111E+01  0.32803287523E+01  0.66356725012E+01  0.10500000000E+00 0. -1.
</event>
<event>
11    0  0.3482988E-009  0.9118800E+02  0.7816531E-02  0.1126479E+00
         25   -1    0    0    0    0  0.00000000000E+00  0.00000000000E+00  0.99999998245E-14  0.12500000000E+03  0.12500000000E+03 0.  0.
    3000001    1    3    3    0    0  0.65902053514E+01  0.55232721672E+02 -0.20240247933E+02  0.59200945823E+02  0.10000000000E+01 0. -1.
    1000022    2    1    0    0    0  0.89254664674E+01  0.57084067613E+02 -0.21633196691E+02  0.62500000109E+02  0.10000004383E+02 0.  0.
    3000022    2    3    3    0    0  0.23352611160E+01  0.18513459405E+01 -0.13929487575E+01  0.32990542860E+01  0.25005333455E+00 0.  0.
    1000022    2    1    0    0    0 -0.89254664674E+01 -0.57084067613E+02  0.21633196691E+02  0.62499999891E+02  0.10000003025E+02 0.  0.
    3000022    2    5    5    0    0  0.14882453785E+01 -0.19661775541E+02  0.86252198266E+01  0.21523411449E+02  0.25006319237E+00 0.  0.
        -13    1    4    4    0    0  0.95851693993E+00  0.71171995519E+00 -0.61460303064E+00  0.13468711535E+01  0.10500000000E+00 0.  1.
         13    1    4    4    0    0  0.13767441760E+01  0.11396259853E+01 -0.77834572686E+00  0.19521831326E+01  0.10500000000E+00 0. -1.
    3000001    1    5    5    0    0 -0.10413711846E+02 -0.37422292071E+02  0.13007976864E+02  0.40976588442E+02  0.10000000000E+01 0. -1.
        -13    1    6    6    0    0  0.52513420028E+00 -0.76952839590E+01  0.33473265997E+01  0.84088513784E+01  0.10500000000E+00 0.  1.
         13    1    6    6    0    0  0.96311117821E+00 -0.11966491582E+02  0.52778932269E+01  0.13114560071E+02  0.10500000000E+00 0. -1.
</event>
<event>
11    0  0.3482988E-009  0.9118800E+02  0.7816531E-02  0.1126479E+00
         25   -1    0    0    0    0  0.00000000000E+00  0.00000000000E+00  0.99999998245E-14  0.12500000000E+03  0.12500000000E+03 0.  0.
    3000001    1    3    3    0    0  0.40476767272E+02  0.16943723202E+02  0.35926074723E+02  0.56719849169E+02  0.10000000000E+01 0.  1.
    1000022    2    1    0    0    0  0.42449985366E+02  0.17161600968E+02  0.41348856955E+02  0.62499998704E+02  0.10000003057E+02 0.  0.
    3000022    2    3    3    0    0  0.19732180942E+01  0.21787776586E+00  0.54227822317E+01  0.57801495349E+01  0.25000228998E+00 0.  0.
    1000022    2    1    0    0    0 -0.42449985366E+02 -0.17161600968E+02 -0.41348856955E+02  0.62500001296E+02  0.10000019260E+02 0.  0.
    3000022    2    5    5    0    0 -0.30405848731E+02 -0.76282441210E+01 -0.25550795664E+02  0.40442692743E+02  0.24998368788E+00 0.  0.
        -13    1    4    4    0    0  0.50759682628E+00  0.26345118583E-01  0.13855873185E+01  0.14796032645E+01  0.10500000000E+00 0. -1.
         13    1    4    4    0    0  0.14656212679E+01  0.19153264728E+00  0.40371949132E+01  0.43005462703E+01  0.10500000000E+00 0.  1.
    3000001    1    5    5    0    0 -0.12044136635E+02 -0.95333568466E+01 -0.15798061291E+02  0.22057308554E+02  0.10000000000E+01 0.  1.
        -13    1    6    6    0    0 -0.17481354046E+02 -0.43192423463E+01 -0.14664318554E+02  0.23222981233E+02  0.10500000000E+00 0. -1.
         13    1    6    6    0    0 -0.12924494685E+02 -0.33090017747E+01 -0.10886477110E+02  0.17219711509E+02  0.10500000000E+00 0.  1.
</event>
<event>
11    0  0.3482988E-009  0.9118800E+02  0.7816531E-02  0.1126479E+00
         25   -1    0    0    0    0  0.00000000000E+00  0.00000000000E+00  0.99999998245E-14  0.12500000000E+03  0.12500000000E+03 0.  0.
    3000001    1    3    3    0    0  0.73076873504E+01  0.23355648386E+02 -0.54393132197E+02  0.59653176246E+02  0.10000000000E+01 0. -1.
    1000022    2    1    0    0    0  0.69243189238E+01  0.22441184398E+02 -0.57049952466E+02  0.62500000229E+02  0.10000000123E+02 0.  0.
    3000022    2    3    3    0    0 -0.38336842660E+00 -0.91446398808E+00 -0.26568202686E+01  0.28468239830E+01  0.24999422910E+00 0.  0.
    1000022    2    1    0    0    0 -0.69243189238E+01 -0.22441184398E+02  0.57049952466E+02  0.62499999771E+02  0.99999972659E+01 0.  0.
    3000022    2    5    5    0    0 -0.33182208573E+01 -0.21362721788E+02  0.48976767878E+02  0.53536555442E+02  0.25000980026E+00 0.  0.
        -13    1    4    4    0    0 -0.91655285786E-01 -0.20671949952E+00 -0.69123403364E+00  0.73482183702E+00  0.10500000000E+00 0. -1.
         13    1    4    4    0    0 -0.29171314081E+00 -0.70774448856E+00 -0.19655862349E+01  0.21120021460E+01  0.10500000000E+00 0.  1.
    3000001    1    5    5    0    0 -0.36060980665E+01 -0.10784626098E+01  0.80731845877E+01  0.89634443297E+01  0.10000000000E+01 0.  1.
        -13    1    6    6    0    0 -0.10549508302E+01 -0.68792391744E+01  0.15645681111E+02  0.17124112102E+02  0.10500000000E+00 0. -1.
         13    1    6    6    0    0 -0.22632700271E+01 -0.14483482614E+02  0.33331086768E+02  0.36412443339E+02  0.10500000000E+00 0.  1.
</event>
<event>
11    0  0.3482988E-009  0.9118800E+02  0.7816531E-02  0.1126479E+00
         25   -1    0    0    0    0  0.00000000000E+00  0.00000000000E+00  0.99999998245E-14  0.12500000000E+03  0.12500000000E+03 0.  0.
    3000001    1    3    3    0    0  0.35022358835E+02 -0.39780730635E+02  0.11548554026E+01  0.53022691739E+02  0.10000000000E+01 0.  1.
    1000022    2    1    0    0    0  0.37816767453E+02 -0.48745580910E+02 -0.10197209458E+00  0.62499999848E+02  0.10000001193E+02 0.  0.
    3000022    2    3    3    0    0  0.27944086170E+01 -0.89648502751E+01 -0.12568274971E+01  0.94773081088E+01  0.24998731631E+00 0.  0.
    1000022    2    1    0    0    0 -0.37816767453E+02  0.48745580910E+02  0.10197209458E+00  0.62500000152E+02  0.10000003093E+02 0.  0.
    3000022    2    5    5    0    0 -0.26302818343E+01  0.86477927215E+01 -0.12371411783E+01  0.91266490099E+01  0.25000474629E+00 0.  0.
        -13    1    4    4    0    0  0.12025571123E+01 -0.36435086590E+01 -0.51528411087E+00  0.38727046972E+01  0.10500000000E+00 0. -1.
         13    1    4    4    0    0  0.15918515048E+01 -0.53213416161E+01 -0.74154338627E+00  0.56046034116E+01  0.10500000000E+00 0.  1.
    3000001    1    5    5    0    0 -0.35186485618E+02  0.40097788189E+02  0.13391132728E+01  0.53373351142E+02  0.10000000000E+01 0.  1.
        -13    1    6    6    0    0 -0.14809749148E+01  0.50588748259E+01 -0.68755907642E+00  0.53168847727E+01  0.10500000000E+00 0. -1.
         13    1    6    6    0    0 -0.11493069195E+01  0.35889178956E+01 -0.54958210185E+00  0.38097642372E+01  0.10500000000E+00 0.  1.
</event>
<event>
11    0  0.3482988E-009  0.9118800E+02  0.7816531E-02  0.1126479E+00
         25   -1    0    0    0    0  0.00000000000E+00  0.00000000000E+00  0.99999998245E-14  0.12500000000E+03  0.12500000000E+03 0.  0.
    3000001    1    3    3    0    0  0.94746061526E+01  0.26307773397E+02 -0.45140860887E+01  0.28341560933E+02  0.10000000000E+01 0. -1.
    1000022    2    1    0    0    0  0.10318279894E+02  0.59687528233E+02 -0.11712470109E+02  0.62500001357E+02  0.10000014351E+02 0.  0.
    3000022    2    3    3    0    0  0.84367374162E+00  0.33379754835E+02 -0.71983840200E+01  0.34158440424E+02  0.25000291904E+00 0.  0.
    1000022    2    1    0    0    0 -0.10318279894E+02 -0.59687528233E+02  0.11712470109E+02  0.62499998643E+02  0.99999973910E+01 0.  0.
    3000022    2    5    5    0    0 -0.11320507423E+02 -0.48304215610E+02  0.70263593590E+01  0.50108715407E+02  0.24999970358E+00 0.  0.
        -13    1    4    4    0    0  0.45268097980E+00  0.18006156610E+02 -0.39516226792E+01  0.18440524470E+02  0.10500000000E+00 0.  1.
         13    1    4    4    0    0  0.39099276183E+00  0.15373598225E+02 -0.32467613408E+01  0.15717915954E+02  0.10500000000E+00 0. -1.
    3000001    1    5    5    0    0  0.10022275285E+01 -0.11383312623E+02  0.46861107497E+01  0.12391283236E+02  0.10000000000E+01 0. -1.
        -13    1    6    6    0    0 -0.81084978460E+01 -0.34694195314E+02  0.50116109539E+01  0.35980024947E+02  0.10500000000E+00 0. -1.
         13    1    6    6    0    0 -0.32120095768E+01 -0.13610020296E+02  0.20147484051E+01  0.14128690460E+02  0.10500000000E+00 0.  1.
</event>
<event>
11    0  0.3482988E-009  0.9118800E+02  0.7816531E-02  0.1126479E+00
         25   -1    0    0    0    0  0.00000000000E+00  0.00000000000E+00  0.99999998245E-14  0.12500000000E+03  0.12500000000E+03 0.  0.
    3000001    1    3    3    0    0 -0.16443564704E+02  0.12255409642E+02  0.15043177767E+02  0.25453547552E+02  0.10000000000E+01 0. -1.
    1000022    2    1    0    0    0 -0.30387774247E+02  0.31952113462E+02  0.43149688773E+02  0.62499999252E+02  0.99999943395E+01 0.  0.
    3000022    2    3    3    0    0 -0.13944209544E+02  0.19696703820E+02  0.28106511006E+02  0.37046451699E+02  0.25000278724E+00 0.  0.
    1000022    2    1    0    0    0  0.30387774247E+02 -0.31952113462E+02 -0.43149688773E+02  0.62500000748E+02  0.10000003695E+02 0.  0.
    3000022    2    5    5    0    0  0.92019506941E+01 -0.14404467466E+02 -0.11755660919E+02  0.20746629812E+02  0.25001069933E+00 0.  0.
        -13    1    4    4    0    0 -0.43648114820E+01  0.62498747147E+01  0.88942191036E+01  0.11714549572E+02  0.10500000000E+00 0. -1.
         13    1    4    4    0    0 -0.95793980619E+01  0.13446829105E+02  0.19212291902E+02  0.25331902127E+02  0.10500000000E+00 0.  1.
    3000001    1    5    5    0    0  0.21185823553E+02 -0.17547645996E+02 -0.31394027854E+02  0.41753370937E+02  0.10000000000E+01 0. -1.
        -13    1    6    6    0    0  0.25497588138E+01 -0.40647563165E+01 -0.33074679379E+01  0.58287119574E+01  0.10500000000E+00 0.  1.
         13    1    6    6    0    0  0.66521918803E+01 -0.10339711150E+02 -0.84481929809E+01  0.14917917854E+02  0.10500000000E+00 0. -1.
</event>
<event>
11    0  0.3482988E-009  0.9118800E+02  0.7816531E-02  0.1126479E+00
         25   -1    0    0    0    0  0.00000000000E+00  0.00000000000E+00  0.99999998245E-14  0.12500000000E+03  0.12500000000E+03 0.  0.
    3000001    1    3    3    0    0  0.65753873070E+00  0.21401492206E+02 -0.57700422706E+01  0.22197964177E+02  0.10000000000E+01 0.  1.
    1000022    2    1    0    0    0  0.52001539668E+01  0.54793112614E+02 -0.27873343990E+02  0.62500000350E+02  0.99999973650E+01 0.  0.
    3000022    2    3    3    0    0  0.45426152361E+01  0.33391620409E+02 -0.22103301719E+02  0.40302036172E+02  0.25001211051E+00 0.  0.
    1000022    2    1    0    0    0 -0.52001539668E+01 -0.54793112614E+02  0.27873343990E+02  0.62499999650E+02  0.99999929933E+01 0.  0.
    3000022    2    5    5    0    0 -0.57277570575E+01 -0.51258529269E+02  0.23262785956E+02  0.56581478735E+02  0.25000325652E+00 0.  0.
        -13    1    4    4    0    0  0.29268660737E+01  0.21745848647E+02 -0.14447648451E+02  0.26271544476E+02  0.10500000000E+00 0.  1.
         13    1    4    4    0    0  0.16157491624E+01  0.11645771762E+02 -0.76556532681E+01  0.14030491697E+02  0.10500000000E+00 0. -1.
    3000001    1    5    5    0    0  0.52760309074E+00 -0.35345833452E+01  0.46105580336E+01  0.59185209155E+01  0.10000000000E+01 0.  1.
        -13    1    6    6    0    0 -0.35013682855E+01 -0.31871616919E+02  0.14473031636E+02  0.35178675566E+02  0.10500000000E+00 0.  1.
         13    1    6    6    0    0 -0.22263887720E+01 -0.19386912350E+02  0.87897543207E+01  0.21402803168E+02  0.10500000000E+00 0. -1.
</event>
<event>
11    0  0.3482988E-009  0.9118800E+02  0.7816531E-02  0.1126479E+00
         25   -1    0    0    0    0  0.00000000000E+00  0.00000000000E+00  0.99999998245E-14  0.12500000000E+03  0.12500000000E+03 0.  0.
    3000001    1    3    3    0    0  0.26157336722E+02 -0.26541957802E+02  0.23237475375E+02  0.43927918800E+02  0.10000000000E+01 0. -1.
    1000022    2    1    0    0    0  0.31784054629E+02 -0.41238827807E+02  0.33096571260E+02  0.62500000312E+02  0.99999981138E+01 0.  0.
    3000022    2    3    3    0    0  0.56267179078E+01 -0.14696870005E+02  0.98590958847E+01  0.18572081512E+02  0.24999530600E+00 0.  0.
    1000022    2    1    0    0    0 -0.31784054629E+02  0.41238827807E+02 -0.33096571260E+02  0.62499999688E+02  0.99999942133E+01 0.  0.
    3000022    2    5    5    0    0 -0.12153771283E+02  0.87116164747E+01 -0.80547064459E+01  0.16986677521E+02  0.24999855049E+00 0.  0.
        -13    1    4    4    0    0  0.23919362850E+01 -0.63287581904E+01  0.43080725284E+01  0.80215368437E+01  0.10500000000E+00 0. -1.
         13    1    4    4    0    0  0.32347816228E+01 -0.83681118146E+01  0.55510233563E+01  0.10550544668E+02  0.10500000000E+00 0.  1.
    3000001    1    5    5    0    0 -0.19630283347E+02  0.32527211332E+02 -0.25041864814E+02  0.45513322167E+02  0.10000000000E+01 0. -1.
        -13    1    6    6    0    0 -0.60367292379E+01  0.44070808782E+01 -0.40475938745E+01  0.85005001577E+01  0.10500000000E+00 0. -1.
         13    1    6    6    0    0 -0.61170420449E+01  0.43045355964E+01 -0.40071125714E+01  0.84861773632E+01  0.10500000000E+00 0.  1.
</event>
<event>
11    0  0.3482988E-009  0.9118800E+02  0.7816531E-02  0.1126479E+00
         25   -1    0    0    0    0  0.00000000000E+00  0.00000000000E+00  0.99999998245E-14  0.12500000000E+03  0.12500000000E+03 0.  0.
    3000001    1    3    3    0    0 -0.14634559784E+02 -0.27203600790E+02  0.11432467751E+02  0.32953111460E+02  0.10000000000E+01 0.  1.
    1000022    2    1    0    0    0 -0.34044212509E+02 -0.49163482584E+02  0.15172128677E+02  0.62499999498E+02  0.10000001173E+02 0.  0.
    3000022    2    3    3    0    0 -0.19409652725E+02 -0.21959881794E+02  0.37396609260E+01  0.29546888038E+02  0.25000312466E+00 0.  0.
    1000022    2    1    0    0    0  0.34044212509E+02  0.49163482584E+02 -0.15172128677E+02  0.62500000502E+02  0.10000007450E+02 0.  0.
    3000022    2    5    5    0    0  0.11648053226E+02  0.13430913774E+02 -0.33322595139E+00  0.17783141729E+02  0.25000293985E+00 0.  0.
        -13    1    4    4    0    0 -0.63013900069E+01 -0.71335234931E+01  0.11624141474E+01  0.95894163063E+01  0.10500000000E+00 0.  1.
         13    1    4    4    0    0 -0.13108262718E+02 -0.14826358301E+02  0.25772467786E+01  0.19957471732E+02  0.10500000000E+00 0. -1.
    3000001    1    5    5    0    0  0.22396159283E+02  0.35732568811E+02 -0.14838902726E+02  0.44716858773E+02  0.10000000000E+01 0. -1.
        -13    1    6    6    0    0  0.28546819422E+01  0.33017954015E+01 -0.10438844269E+00  0.43672627368E+01  0.10500000000E+00 0.  1.
         13    1    6    6    0    0  0.87933712837E+01  0.10129118372E+02 -0.22883750871E+00  0.13415878992E+02  0.10500000000E+00 0. -1.
</event>
<event>
11    0  0.3482988E-009  0.9118800E+02  0.7816531E-02  0.1126479E+00
         25   -1    0    0    0    0  0.00000000000E+00  0.00000000000E+00  0.99999998245E-14  0.12500000000E+03  0.12500000000E+03 0.  0.
    3000001    1    3    3    0    0  0.45118716740E+02  0.77045218577E+01  0.41808363157E+02  0.61999979735E+02  0.10000000000E+01 0. -1.
    1000022    2    1    0    0    0  0.45033184664E+02  0.73971260272E+01  0.41515597949E+02  0.62499999830E+02  0.99999955653E+01 0.  0.
    3000022    2    3    3    0    0 -0.85532076511E-01 -0.30739583051E+00 -0.29276520761E+00  0.50002009501E+00  0.25000139179E+00 0.  0.
    1000022    2    1    0    0    0 -0.45033184664E+02 -0.73971260272E+01 -0.41515597949E+02  0.62500000170E+02  0.99999976847E+01 0.  0.
    3000022    2    5    5    0    0 -0.45702741363E+01  0.20521764108E+00 -0.87339693316E+01  0.98627706411E+01  0.25000894707E+00 0.  0.
        -13    1    4    4    0    0 -0.58506520672E-01 -0.59010799464E-01 -0.86105129674E-01  0.15919918584E+00  0.10500000000E+00 0.  1.
         13    1    4    4    0    0 -0.27025555839E-01 -0.24838503105E+00 -0.20666007794E+00  0.34082090917E+00  0.10500000000E+00 0. -1.
    3000001    1    5    5    0    0 -0.40462910527E+02 -0.76023436682E+01 -0.32781628618E+02  0.52637229528E+02  0.10000000000E+01 0. -1.
        -13    1    6    6    0    0 -0.34897312357E+01  0.16647352503E+00 -0.66913331344E+01  0.75492318581E+01  0.10500000000E+00 0.  1.
         13    1    6    6    0    0 -0.10805429005E+01  0.38744116053E-01 -0.20426361972E+01  0.23135387830E+01  0.10500000000E+00 0. -1.
</event>
<event>
11    0  0.3482988E-009  0.9118800E+02  0.7816531E-02  0.1126479E+00
         25   -1    0    0    0    0  0.00000000000E+00  0.00000000000E+00  0.99999998245E-14  0.12500000000E+03  0.12500000000E+03 0.  0.
    3000001    1    3    3    0    0 -0.53021812382E+01  0.13509189675E+01 -0.32140854760E+00  0.55714819746E+01  0.10000000000E+01 0.  1.
    1000022    2    1    0    0    0 -0.52813304568E+02  0.19180869325E+02  0.25477421686E+02  0.62499999571E+02  0.10000002158E+02 0.  0.
    3000022    2    3    3    0    0 -0.47511123330E+02  0.17829950357E+02  0.25798830234E+02  0.56928517597E+02  0.25000897412E+00 0.  0.
    1000022    2    1    0    0    0  0.52813304568E+02 -0.19180869325E+02 -0.25477421686E+02  0.62500000429E+02  0.10000007517E+02 0.  0.
    3000022    2    5    5    0    0  0.51676192405E+02 -0.19474424997E+02 -0.25751386582E+02  0.60933393979E+02  0.25000090769E+00 0.  0.
        -13    1    4    4    0    0 -0.30085183641E+02  0.11231524195E+02  0.16350037991E+02  0.36036095484E+02  0.10500000000E+00 0.  1.
         13    1    4    4    0    0 -0.17425939689E+02  0.65984261620E+01  0.94487922426E+01  0.20892422112E+02  0.10500000000E+00 0. -1.
    3000001    1    5    5    0    0  0.11371121634E+01  0.29355567271E+00  0.27396489538E+00  0.15666064500E+01  0.10000000000E+01 0. -1.
        -13    1    6    6    0    0  0.28790141065E+02 -0.10787688870E+02 -0.14301101497E+02  0.33908391037E+02  0.10500000000E+00 0. -1.
         13    1    6    6    0    0  0.22886051340E+02 -0.86867361279E+01 -0.11450285085E+02  0.27025002942E+02  0.10500000000E+00 0.  1.
</event>
<event>
11    0  0.3482988E-009  0.9118800E+02  0.7816531E-02  0.1126479E+00
         25   -1    0    0    0    0  0.00000000000E+00  0.00000000000E+00  0.99999998245E-14  0.12500000000E+03  0.12500000000E+03 0.  0.
    3000001    1    3    3    0    0 -0.65513649705E+01 -0.61553761043E+01 -0.64394465405E+01  0.11102950496E+02  0.10000000000E+01 0.  1.
    1000022    2    1    0    0    0 -0.17973765444E+02 -0.41259528984E+02 -0.42200059899E+02  0.62500000495E+02  0.10000001509E+02 0.  0.
    3000022    2    3    3    0    0 -0.11422400474E+02 -0.35104152880E+02 -0.35760613358E+02  0.51397049999E+02  0.24999775851E+00 0.  0.
    1000022    2    1    0    0    0  0.17973765444E+02  0.41259528984E+02  0.42200059899E+02  0.62499999505E+02  0.99999953210E+01 0.  0.
    3000022    2    5    5    0    0  0.16958435384E+02  0.27864619639E+02  0.29234548265E+02  0.43803502950E+02  0.25000030101E+00 0.  0.
        -13    1    4    4    0    0 -0.52405960666E+01 -0.16322790936E+02 -0.16602144796E+02  0.23865028555E+02  0.10500000000E+00 0.  1.
         13    1    4    4    0    0 -0.61818044070E+01 -0.18781361944E+02 -0.19158468562E+02  0.27532021445E+02  0.10500000000E+00 0. -1.
    3000001    1    5    5    0    0  0.10153300602E+01  0.13394909345E+02  0.12965511633E+02  0.18696496555E+02  0.10000000000E+01 0.  1.
        -13    1    6    6    0    0  0.10825814689E+02  0.17870969859E+02  0.18673695325E+02  0.28022986091E+02  0.10500000000E+00 0. -1.
         13    1    6    6    0    0  0.61326206950E+01  0.99936497800E+01  0.10560852941E+02  0.15780516859E+02  0.10500000000E+00 0.  1.
</event>
<event>
11    0  0.3482988E-009  0.9118800E+02  0.7816531E-02  0.1126479E+00
         25   -1    0    0    0    0  0.00000000000E+00  0.00000000000E+00  0.99999998245E-14  0.12500000000E+03  0.12500000000E+03 0.  0.
    3000001    1    3    3    0    0  0.22531274766E+00  0.12531639020E-01  0.79087515032E-01  0.10281914760E+01  0.10000000000E+01 0.  1.
    1000022    2    1    0    0    0  0.47568148997E+02 -0.21441087243E+01  0.39229123914E+02  0.62499998754E+02  0.99999840003E+01 0.  0.
    3000022    2    3    3    0    0  0.47342836250E+02 -0.21566403633E+01  0.39150036398E+02  0.61471807278E+02  0.24999647283E+00 0.  0.
    1000022    2    1    0    0    0 -0.47568148997E+02  0.21441087243E+01 -0.39229123914E+02  0.62500001246E+02  0.99999995719E+01 0.  0.
    3000022    2    5    5    0    0 -0.45677898078E+01 -0.20630556258E+01 -0.18115392492E+01  0.53352676733E+01  0.25000890122E+00 0.  0.
        -13    1    4    4    0    0  0.11701257593E+02 -0.52120517802E+00  0.96482078648E+01  0.15175309687E+02  0.10500000000E+00 0.  1.
         13    1    4    4    0    0  0.35641578656E+02 -0.16354351853E+01  0.29501828534E+02  0.46296497591E+02  0.10500000000E+00 0. -1.
    3000001    1    5    5    0    0 -0.43000359190E+02  0.42071643501E+01 -0.37417584664E+02  0.57164733572E+02  0.10000000000E+01 0.  1.
        -13    1    6    6    0    0 -0.24934473369E+01 -0.11922829079E+01 -0.96827980855E+00  0.29304281158E+01  0.10500000000E+00 0.  1.
         13    1    6    6    0    0 -0.20743424710E+01 -0.87077271787E+00 -0.84325944066E+00  0.24048395575E+01  0.10500000000E+00 0. -1.
</event>
<event>
11    0  0.3482988E-009  0.9118800E+02  0.7816531E-02  0.1126479E+00
         25   -1    0    0    0    0  0.00000000000E+00  0.00000000000E+00  0.99999998245E-14  0.12500000000E+03  0.12500000000E+03 0.  0.
    3000001    1    3    3    0    0 -0.38247847659E+02  0.33029837564E+02 -0.96531551406E+01  0.51459220983E+02  0.10000000000E+01 0. -1.
    1000022    2    1    0    0    0 -0.46544825959E+02  0.39860956424E+02 -0.71367587865E+01  0.62499999256E+02  0.99999955222E+01 0.  0.
    3000022    2    3    3    0    0 -0.82969783002E+01  0.68311188607E+01  0.25163963541E+01  0.11040778273E+02  0.25000093192E+00 0.  0.
    1000022    2    1    0    0    0  0.46544825959E+02 -0.39860956424E+02  0.71367587865E+01  0.62500000744E+02  0.10000004820E+02 0.  0.
    3000022    2    5    5    0    0  0.35054447292E+02 -0.30460590979E+02  0.11310742213E+01  0.46454318474E+02  0.24999645961E+00 0.  0.
        -13    1    4    4    0    0 -0.26878913433E+01  0.21747369707E+01  0.76690467277E+00  0.35430789636E+01  0.10500000000E+00 0. -1.
         13    1    4    4    0    0 -0.56090869569E+01  0.46563818900E+01  0.17494916813E+01  0.74976993097E+01  0.10500000000E+00 0.  1.
    3000001    1    5    5    0    0  0.11490378667E+02 -0.94003654447E+01  0.60056845652E+01  0.16045682270E+02  0.10000000000E+01 0.  1.
        -13    1    6    6    0    0  0.15305745642E+02 -0.13230886380E+02  0.53306618860E+00  0.20239006612E+02  0.10500000000E+00 0.  1.
         13    1    6    6    0    0  0.19748701650E+02 -0.17229704599E+02  0.59800803271E+00  0.26215311862E+02  0.10500000000E+00 0. -1.
</event>
<event>
11    0  0.3482988E-009  0.9118800E+02  0.7816531E-02  0.1126479E+00
         25   -1    0    0    0    0  0.00000000000E+00  0.00000000000E+00  0.99999998245E-14  0.12500000000E+03  0.12500000000E+03 0.  0.
    3000001    1    3    3    0    0  0.34041858752E+02  0.32294898994E+01 -0.57050487931E+01  0.34681772360E+02  0.10000000000E+01 0.  1.
    1000022    2    1    0    0    0  0.58392728346E+02  0.12064438383E+02 -0.15842595410E+02  0.62499994987E+02  0.10000007344E+02 0.  0.
    3000022    2    3    3    0    0  0.24350869593E+02  0.88349484839E+01 -0.10137546617E+02  0.27818222627E+02  0.24998805129E+00 0.  0.
    1000022    2    1    0    0    0 -0.58392728346E+02 -0.12064438383E+02  0.15842595410E+02  0.62500005013E+02  0.10000070005E+02 0.  0.
    3000022    2    5    5    0    0 -0.22756148218E+02 -0.23572676979E+00  0.39381317090E+01  0.23096952876E+02  0.25000400011E+00 0.  0.
        -13    1    4    4    0    0  0.11853145526E+02  0.42503333705E+01 -0.49800660504E+01  0.13541583197E+02  0.10500000000E+00 0.  1.
         13    1    4    4    0    0  0.12497724068E+02  0.45846151134E+01 -0.51574805663E+01  0.14276639430E+02  0.10500000000E+00 0. -1.
    3000001    1    5    5    0    0 -0.35636580128E+02 -0.11828711613E+02  0.11904463701E+02  0.39403052137E+02  0.10000000000E+01 0.  1.
        -13    1    6    6    0    0 -0.15240451031E+02 -0.18165810289E+00  0.25894722800E+01  0.15460295565E+02  0.10500000000E+00 0.  1.
         13    1    6    6    0    0 -0.75156971871E+01 -0.54068666900E-01  0.13486594290E+01  0.76366573110E+01  0.10500000000E+00 0. -1.
</event>
<event>
11    0  0.3482988E-009  0.9118800E+02  0.7816531E-02  0.1126479E+00
         25   -1    0    0    0    0  0.00000000000E+00  0.00000000000E+00  0.99999998245E-14  0.12500000000E+03  0.12500000000E+03 0.  0.
    3000001    1    3    3    0    0 -0.12522570533E+02  0.25953899660E+02  0.13322866258E+02  0.31763476599E+02  0.10000000000E+01 0.  1.
    1000022    2    1    0    0    0 -0.24713125012E+02  0.53938911022E+02  0.16914645743E+02  0.62499999856E+02  0.10000003564E+02 0.  0.
    3000022    2    3    3    0    0 -0.12190554479E+02  0.27985011362E+02  0.35917794848E+01  0.30736523257E+02  0.25000525854E+00 0.  0.
    1000022    2    1    0    0    0  0.24713125012E+02 -0.53938911022E+02 -0.16914645743E+02  0.62500000144E+02  0.10000005366E+02 0.  0.
    3000022    2    5    5    0    0 -0.32503142651E+00  0.53939942809E-01  0.32889873928E+00  0.52841746743E+00  0.24999138691E+00 0.  0.
        -13    1    4    4    0    0 -0.69190445592E+01  0.15724381325E+02  0.20392125946E+01  0.17300253139E+02  0.10500000000E+00 0.  1.
         13    1    4    4    0    0 -0.52715099199E+01  0.12260630036E+02  0.15525668902E+01  0.13436270117E+02  0.10500000000E+00 0. -1.
    3000001    1    5    5    0    0  0.25038156438E+02 -0.53992850965E+02 -0.17243544482E+02  0.61971582677E+02  0.10000000000E+01 0. -1.
        -13    1    6    6    0    0 -0.96862876692E-01 -0.67864195009E-02  0.18099079747E+00  0.23067540212E+00  0.10500000000E+00 0. -1.
         13    1    6    6    0    0 -0.22816854982E+00  0.60726362310E-01  0.14790794181E+00  0.29774206531E+00  0.10500000000E+00 0.  1.
</event>
<event>
11    0  0.3482988E-009  0.9118800E+02  0.7816531E-02  0.1126479E+00
         25   -1    0    0    0    0  0.00000000000E+00  0.00000000000E+00  0.99999998245E-14  0.12500000000E+03  0.12500000000E+03 0.  0.
    3000001    1    3    3    0    0 -0.21526611146E+01  0.43363434632E+01 -0.51297707457E+01  0.71240699329E+01  0.10000000000E+01 0. -1.
    1000022    2    1    0    0    0 -0.18498351687E+02  0.14327212141E+02 -0.57085829521E+02  0.62499999538E+02  0.99999993635E+01 0.  0.
    3000022    2    3    3    0    0 -0.16345690573E+02  0.99908686779E+01 -0.51956058776E+02  0.55375929605E+02  0.24995786700E+00 0.  0.
    1000022    2    1    0    0    0  0.18498351687E+02 -0.14327212141E+02  0.57085829521E+02  0.62500000462E+02  0.10000005134E+02 0.  0.
    3000022    2    5    5    0    0  0.12732665926E+02 -0.56807260529E+01  0.23469261292E+02  0.27299453400E+02  0.25000046667E+00 0.  0.
        -13    1    4    4    0    0 -0.56265281037E+01  0.34056416362E+01 -0.17701438586E+02  0.18884071766E+02  0.10500000000E+00 0. -1.
         13    1    4    4    0    0 -0.10719162469E+02  0.65852270417E+01 -0.34254620189E+02  0.36491857839E+02  0.10500000000E+00 0.  1.
    3000001    1    5    5    0    0  0.57656857610E+01 -0.86464860882E+01  0.33616568229E+02  0.35200547062E+02  0.10000000000E+01 0. -1.
        -13    1    6    6    0    0  0.82767618317E+01 -0.36465546025E+01  0.15297563757E+02  0.17771567989E+02  0.10500000000E+00 0.  1.
         13    1    6    6    0    0  0.44559040945E+01 -0.20341714503E+01  0.81716975354E+01  0.95278854107E+01  0.10500000000E+00 0. -1.
</event>
<event>
11    0  0.3482988E-009  0.9118800E+02  0.7816531E-02  0.1126479E+00
         25   -1    0    0    0    0  0.00000000000E+00  0.00000000000E+00  0.99999998245E-14  0.12500000000E+03  0.12500000000E+03 0.  0.
    3000001    1    3    3    0    0  0.10358109674E+01  0.15020437084E+01  0.70561639973E+00  0.21970284854E+01  0.10000000000E+01 0. -1.
    1000022    2    1    0    0    0 -0.54642275187E+01  0.61451688461E+02  0.28669962937E+00  0.62500000232E+02  0.10000001760E+02 0.  0.
    3000022    2    3    3    0    0 -0.65000384861E+01  0.59949644753E+02 -0.41891677036E+00  0.60302971746E+02  0.25000779304E+00 0.  0.
    1000022    2    1    0    0    0  0.54642275187E+01 -0.61451688461E+02 -0.28669962937E+00  0.62499999768E+02  0.99999988627E+01 0.  0.
    3000022    2    5    5    0    0  0.75956308656E+01 -0.46577223355E+02  0.21616770576E+01  0.47242636273E+02  0.24998125142E+00 0.  0.
        -13    1    4    4    0    0 -0.34138079659E+01  0.30907805341E+02 -0.18940320573E+00  0.31096517722E+02  0.10500000000E+00 0. -1.
         13    1    4    4    0    0 -0.30862305202E+01  0.29041839411E+02 -0.22951356463E+00  0.29206454025E+02  0.10500000000E+00 0.  1.
    3000001    1    5    5    0    0 -0.21314033469E+01 -0.14874465106E+02 -0.24483766870E+01  0.15257363495E+02  0.10000000000E+01 0.  1.
        -13    1    6    6    0    0  0.54546674264E+01 -0.33588528296E+02  0.15909161239E+01  0.34065887173E+02  0.10500000000E+00 0.  1.
         13    1    6    6    0    0  0.21409634392E+01 -0.12988695059E+02  0.57076093374E+00  0.13176749099E+02  0.10500000000E+00 0. -1.
</event>
<event>
11    0  0.3482988E-009  0.9118800E+02  0.7816531E-02  0.1126479E+00
         25   -1    0    0    0    0  0.00000000000E+00  0.00000000000E+00  0.99999998245E-14  0.12500000000E+03  0.12500000000E+03 0.  0.
    3000001    1    3    3    0    0  0.19285277064E+02 -0.24607229118E+02  0.19773906251E+02  0.37006013088E+02  0.10000000000E+01 0. -1.
    1000022    2    1    0    0    0  0.38795468654E+02 -0.37723492490E+02  0.29632753842E+02  0.62499998907E+02  0.99999744711E+01 0.  0.
    3000022    2    3    3    0    0  0.19510191590E+02 -0.13116263372E+02  0.98588475910E+01  0.25493985819E+02  0.24999273888E+00 0.  0.
    1000022    2    1    0    0    0 -0.38795468654E+02  0.37723492490E+02 -0.29632753842E+02  0.62500001093E+02  0.99999881291E+01 0.  0.
    3000022    2    5    5    0    0 -0.20840837927E+02  0.20253576208E+02 -0.21472518923E+02  0.36134186609E+02  0.24999657322E+00 0.  0.
        -13    1    4    4    0    0  0.98682073419E+01 -0.67066690419E+01  0.50374099643E+01  0.12951735402E+02  0.10500000000E+00 0.  1.
         13    1    4    4    0    0  0.96419842484E+01 -0.64095943305E+01  0.48214376267E+01  0.12542250417E+02  0.10500000000E+00 0. -1.
    3000001    1    5    5    0    0 -0.17954630727E+02  0.17469916282E+02 -0.81602349190E+01  0.26365814484E+02  0.10000000000E+01 0.  1.
        -13    1    6    6    0    0 -0.14723782821E+02  0.14266351887E+02 -0.15187742867E+02  0.25514645503E+02  0.10500000000E+00 0. -1.
         13    1    6    6    0    0 -0.61170551051E+01  0.59872243217E+01 -0.62847760557E+01  0.10619541106E+02  0.10500000000E+00 0.  1.
</event>
<event>
11    0  0.3482988E-009  0.9118800E+02  0.7816531E-02  0.1126479E+00
         25   -1    0    0    0    0  0.00000000000E+00  0.00000000000E+00  0.99999998245E-14  0.12500000000E+03  0.12500000000E+03 0.  0.
    3000001    1    3    3    0    0  0.17651157980E+02 -0.21704785470E+02 -0.49534562126E+02  0.56897574072E+02  0.10000000000E+01 0. -1.
    1000022    2    1    0    0    0  0.16688328203E+02 -0.22418077394E+02 -0.55001631021E+02  0.62499999449E+02  0.10000001192E+02 0.  0.
    3000022    2    3    3    0    0 -0.96282977683E+00 -0.71329192434E+00 -0.54670688951E+01  0.56024253762E+01  0.25000248701E+00 0.  0.
    1000022    2    1    0    0    0 -0.16688328203E+02  0.22418077394E+02  0.55001631021E+02  0.62500000551E+02  0.10000008085E+02 0.  0.
    3000022    2    5    5    0    0 -0.17089875812E+01  0.14279672371E+01  0.65059554528E+00  0.23335611757E+01  0.25000842874E+00 0.  0.
        -13    1    4    4    0    0 -0.42638747601E+00 -0.23785684119E+00 -0.21811495030E+01  0.22375925257E+01  0.10500000000E+00 0. -1.
         13    1    4    4    0    0 -0.53644230082E+00 -0.47543508314E+00 -0.32859193921E+01  0.33648328505E+01  0.10500000000E+00 0.  1.
    3000001    1    5    5    0    0 -0.14979340622E+02  0.20990110157E+02  0.54351035476E+02  0.60166439376E+02  0.10000000000E+01 0. -1.
        -13    1    6    6    0    0 -0.10445789724E+01  0.80624388298E+00  0.34454430854E+00  0.13678121980E+01  0.10500000000E+00 0.  1.
         13    1    6    6    0    0 -0.66440860877E+00  0.62172335411E+00  0.30605123674E+00  0.96574897772E+00  0.10500000000E+00 0. -1.
</event>
<event>
11    0  0.3482988E-009  0.9118800E+02  0.7816531E-02  0.1126479E+00
         25   -1    0    0    0    0  0.00000000000E+00  0.00000000000E+00  0.99999998245E-14  0.12500000000E+03  0.12500000000E+03 0.  0.
    3000001    1    3    3    0    0  0.22688371695E+02 -0.29632737548E+02 -0.20114037565E+02  0.42407969203E+02  0.10000000000E+01 0. -1.
    1000022    2    1    0    0    0  0.29486783975E+02 -0.47671299485E+02 -0.25772589042E+02  0.62500003147E+02  0.10000041177E+02 0.  0.
    3000022    2    3    3    0    0  0.67984122801E+01 -0.18038561937E+02 -0.56585514773E+01  0.20092033943E+02  0.24999371796E+00 0.  0.
    1000022    2    1    0    0    0 -0.29486783975E+02  0.47671299485E+02  0.25772589042E+02  0.62499996853E+02  0.10000001845E+02 0.  0.
    3000022    2    5    5    0    0 -0.20114394819E+02  0.34283807248E+02  0.22909135185E+02  0.45878745549E+02  0.24999991101E+00 0.  0.
        -13    1    4    4    0    0  0.27702788240E+01 -0.72604410015E+01 -0.23382649945E+01  0.81158460116E+01  0.10500000000E+00 0.  1.
         13    1    4    4    0    0  0.40281334561E+01 -0.10778120936E+02 -0.33202864828E+01  0.11976187932E+02  0.10500000000E+00 0. -1.
    3000001    1    5    5    0    0 -0.93723891569E+01  0.13387492237E+02  0.28634538576E+01  0.16621251304E+02  0.10000000000E+01 0.  1.
        -13    1    6    6    0    0 -0.13461116779E+02  0.22905843066E+02  0.15369726996E+02  0.30693954525E+02  0.10500000000E+00 0.  1.
         13    1    6    6    0    0 -0.66532780399E+01  0.11377964182E+02  0.75394081888E+01  0.15184791024E+02  0.10500000000E+00 0. -1.
</event>
<event>
11    0  0.3482988E-009  0.9118800E+02  0.7816531E-02  0.1126479E+00
         25   -1    0    0    0    0  0.00000000000E+00  0.00000000000E+00  0.99999998245E-14  0.12500000000E+03  0.12500000000E+03 0.  0.
    3000001    1    3    3    0    0  0.90540436685E+01 -0.33150572448E+02 -0.23090667926E+01  0.34456754778E+02  0.10000000000E+01 0. -1.
    1000022    2    1    0    0    0  0.24287819114E+02 -0.56686706373E+02 -0.17230172947E+01  0.62499997369E+02  0.10000002294E+02 0.  0.
    3000022    2    3    3    0    0  0.15233775446E+02 -0.23536133925E+02  0.58604949787E+00  0.28043242592E+02  0.24997315849E+00 0.  0.
    1000022    2    1    0    0    0 -0.24287819114E+02  0.56686706373E+02  0.17230172947E+01  0.62500002631E+02  0.10000035176E+02 0.  0.
    3000022    2    5    5    0    0 -0.10038805381E+02  0.21050867242E+02 -0.40624299755E+01  0.23674510708E+02  0.24998968294E+00 0.  0.
        -13    1    4    4    0    0  0.61195296661E+01 -0.95714797176E+01  0.23511139370E+00  0.11363457647E+02  0.10500000000E+00 0.  1.
         13    1    4    4    0    0  0.91142457797E+01 -0.13964654207E+02  0.35093810417E+00  0.16679784945E+02  0.10500000000E+00 0. -1.
    3000001    1    5    5    0    0 -0.14249013733E+02  0.35635839131E+02  0.57854472702E+01  0.38825491923E+02  0.10000000000E+01 0.  1.
        -13    1    6    6    0    0 -0.72386712779E+01  0.15084909811E+02 -0.29145082247E+01  0.16984058674E+02  0.10500000000E+00 0.  1.
         13    1    6    6    0    0 -0.28001341031E+01  0.59659574312E+01 -0.11479217508E+01  0.66904520335E+01  0.10500000000E+00 0. -1.
</event>
<event>
11    0  0.3482988E-009  0.9118800E+02  0.7816531E-02  0.1126479E+00
         25   -1    0    0    0    0  0.00000000000E+00  0.00000000000E+00  0.99999998245E-14  0.12500000000E+03  0.12500000000E+03 0.  0.
    3000001    1    3    3    0    0  0.85180119606E+01 -0.15962024902E+02 -0.23230394483E+02  0.29461737806E+02  0.10000000000E+01 0. -1.
    1000022    2    1    0    0    0  0.88677378549E+01 -0.30443684449E+02 -0.52922539512E+02  0.62499999581E+02  0.10000003086E+02 0.  0.
    3000022    2    3    3    0    0  0.34972589429E+00 -0.14481659546E+02 -0.29692145029E+02  0.33038261775E+02  0.24998644917E+00 0.  0.
    1000022    2    1    0    0    0 -0.88677378549E+01  0.30443684449E+02  0.52922539512E+02  0.62500000419E+02  0.10000008327E+02 0.  0.
    3000022    2    5    5    0    0 -0.75914117498E+01  0.26207183516E+02  0.37186187219E+02  0.46122890419E+02  0.25000099224E+00 0.  0.
        -13    1    4    4    0    0  0.97315309517E-01 -0.40340757640E+01 -0.83624699822E+01  0.92857507366E+01  0.10500000000E+00 0.  1.
         13    1    4    4    0    0  0.25241058477E+00 -0.10447583782E+02 -0.21329675047E+02  0.23752511038E+02  0.10500000000E+00 0. -1.
    3000001    1    5    5    0    0 -0.12763261051E+01  0.42365009327E+01  0.15736352293E+02  0.16377110001E+02  0.10000000000E+01 0. -1.
        -13    1    6    6    0    0 -0.38854773717E+01  0.13185822022E+02  0.18693840687E+02  0.23204170776E+02  0.10500000000E+00 0.  1.
         13    1    6    6    0    0 -0.37059343781E+01  0.13021361494E+02  0.18492346532E+02  0.22918719642E+02  0.10500000000E+00 0. -1.
</event>
<event>
11    0  0.3482988E-009  0.9118800E+02  0.7816531E-02  0.1126479E+00
         25   -1    0    0    0    0  0.00000000000E+00  0.00000000000E+00  0.99999998245E-14  0.12500000000E+03  0.12500000000E+03 0.  0.
    3000001    1    3    3    0    0 -0.21747566096E+02  0.52934377350E+01 -0.29836660011E+02  0.37312241889E+02  0.10000000000E+01 0. -1.
    1000022    2    1    0    0    0 -0.29972032473E+02  0.55252870951E+01 -0.53641387682E+02  0.62500000219E+02  0.10000001339E+02 0.  0.
    3000022    2    3    3    0    0 -0.82244663767E+01  0.23184936011E+00 -0.23804727671E+02  0.25187758330E+02  0.25001770736E+00 0.  0.
    1000022    2    1    0    0    0  0.29972032473E+02 -0.55252870951E+01  0.53641387682E+02  0.62499999781E+02  0.99999986074E+01 0.  0.
    3000022    2    5    5    0    0  0.23015174594E+02 -0.83015342463E+01  0.42436094146E+02  0.48984674294E+02  0.24999378743E+00 0.  0.
        -13    1    4    4    0    0 -0.62515602556E+01  0.17765722254E+00 -0.18148008578E+02  0.19195697644E+02  0.10500000000E+00 0.  1.
         13    1    4    4    0    0 -0.19729061211E+01  0.54192137571E-01 -0.56567190936E+01  0.59920606851E+01  0.10500000000E+00 0. -1.
    3000001    1    5    5    0    0  0.69568578792E+01  0.27762471512E+01  0.11205293536E+02  0.13515325487E+02  0.10000000000E+01 0. -1.
        -13    1    6    6    0    0  0.10259906524E+02 -0.36302871529E+01  0.18867858830E+02  0.21781914253E+02  0.10500000000E+00 0.  1.
         13    1    6    6    0    0  0.12755268070E+02 -0.46712470934E+01  0.23568235316E+02  0.27202760041E+02  0.10500000000E+00 0. -1.
</event>
<event>
11    0  0.3482988E-009  0.9118800E+02  0.7816531E-02  0.1126479E+00
         25   -1    0    0    0    0  0.00000000000E+00  0.00000000000E+00  0.99999998245E-14  0.12500000000E+03  0.12500000000E+03 0.  0.
    3000001    1    3    3    0    0 -0.31992934569E+02  0.26925535222E+02 -0.34088471842E+02  0.53958838218E+02  0.10000000000E+01 0. -1.
    1000022    2    1    0    0    0 -0.39583564615E+02  0.29694671809E+02 -0.36845879005E+02  0.62500007587E+02  0.10000001362E+02 0.  0.
    3000022    2    3    3    0    0 -0.75906300465E+01  0.27691365870E+01 -0.27574071627E+01  0.85411693689E+01  0.24999597261E+00 0.  0.
    1000022    2    1    0    0    0  0.39583564615E+02 -0.29694671809E+02  0.36845879005E+02  0.62499992413E+02  0.99999065231E+01 0.  0.
    3000022    2    5    5    0    0  0.17696466898E+02 -0.18831268775E+02  0.16248025893E+02  0.30526094860E+02  0.24999515206E+00 0.  0.
        -13    1    4    4    0    0 -0.42283558069E+01  0.14718004872E+01 -0.15278149045E+01  0.47318530076E+01  0.10500000000E+00 0.  1.
         13    1    4    4    0    0 -0.33622742397E+01  0.12973360998E+01 -0.12295922581E+01  0.38093163612E+01  0.10500000000E+00 0. -1.
    3000001    1    5    5    0    0  0.21887097717E+02 -0.10863403034E+02  0.20597853111E+02  0.31973897553E+02  0.10000000000E+01 0.  1.
        -13    1    6    6    0    0  0.11608259700E+02 -0.12271512921E+02  0.10627838405E+02  0.19957547365E+02  0.10500000000E+00 0.  1.
         13    1    6    6    0    0  0.60882071979E+01 -0.65597558547E+01  0.56201874879E+01  0.10568547495E+02  0.10500000000E+00 0. -1.
</event>
<event>
11    0  0.3482988E-009  0.9118800E+02  0.7816531E-02  0.1126479E+00
         25   -1    0    0    0    0  0.00000000000E+00  0.00000000000E+00  0.99999998245E-14  0.12500000000E+03  0.12500000000E+03 0.  0.
    3000001    1    3    3    0    0 -0.51093720768E+01 -0.52235957855E+01  0.49865618665E+01  0.89026644999E+01  0.10000000000E+01 0. -1.
    1000022    2    1    0    0    0 -0.37199807800E+02 -0.16058081850E+02  0.46524855361E+02  0.62500001027E+02  0.10000013452E+02 0.  0.
    3000022    2    3    3    0    0 -0.32090435723E+02 -0.10834486064E+02  0.41538293494E+02  0.53597336527E+02  0.25000649379E+00 0.  0.
    1000022    2    1    0    0    0  0.37199807800E+02  0.16058081850E+02 -0.46524855361E+02  0.62499998973E+02  0.10000000612E+02 0.  0.
    3000022    2    5    5    0    0  0.18433279785E+02  0.74506804402E+01 -0.30211452602E+02  0.36167565695E+02  0.24999466421E+00 0.  0.
        -13    1    4    4    0    0 -0.23729660267E+02 -0.80005452896E+01  0.30758775581E+02  0.39663822327E+02  0.10500000000E+00 0.  1.
         13    1    4    4    0    0 -0.83607754556E+01 -0.28339407744E+01  0.10779517913E+02  0.13933514200E+02  0.10500000000E+00 0. -1.
    3000001    1    5    5    0    0  0.18766528015E+02  0.86074014093E+01 -0.16313402758E+02  0.26332433278E+02  0.10000000000E+01 0.  1.
        -13    1    6    6    0    0  0.81953586287E+01  0.33004731941E+01 -0.13306268685E+02  0.15972627763E+02  0.10500000000E+00 0.  1.
         13    1    6    6    0    0  0.10237921156E+02  0.41502072462E+01 -0.16905183918E+02  0.20194937932E+02  0.10500000000E+00 0. -1.
</event>
<event>
11    0  0.3482988E-009  0.9118800E+02  0.7816531E-02  0.1126479E+00
         25   -1    0    0    0    0  0.00000000000E+00  0.00000000000E+00  0.99999998245E-14  0.12500000000E+03  0.12500000000E+03 0.  0.
    3000001    1    3    3    0    0  0.33644553714E+02 -0.21496837605E+01 -0.21760515541E+01  0.33798111415E+02  0.10000000000E+01 0. -1.
    1000022    2    1    0    0    0  0.60248569895E+02 -0.31698548159E+01 -0.12896190272E+02  0.62499998032E+02  0.99999938266E+01 0.  0.
    3000022    2    3    3    0    0  0.26604016181E+02 -0.10201710554E+01 -0.10720138718E+02  0.28701886617E+02  0.24999055690E+00 0.  0.
    1000022    2    1    0    0    0 -0.60248569895E+02  0.31698548159E+01  0.12896190272E+02  0.62500001968E+02  0.10000018423E+02 0.  0.
    3000022    2    5    5    0    0 -0.14463141674E+02  0.49436215776E+01  0.41789623051E+01  0.15847652087E+02  0.24997870102E+00 0.  0.
        -13    1    4    4    0    0  0.17409624403E+02 -0.62606433829E+00 -0.69742955741E+01  0.18765361765E+02  0.10500000000E+00 0.  1.
         13    1    4    4    0    0  0.91943917785E+01 -0.39410671710E+00 -0.37458431442E+01  0.99365248523E+01  0.10500000000E+00 0. -1.
    3000001    1    5    5    0    0 -0.45785428221E+02 -0.17737667617E+01  0.87172279674E+01  0.46652349881E+02  0.10000000000E+01 0.  1.
        -13    1    6    6    0    0 -0.75797094989E+01  0.25453167033E+01  0.21320450562E+01  0.82757038570E+01  0.10500000000E+00 0.  1.
         13    1    6    6    0    0 -0.68834321749E+01  0.23983048743E+01  0.20469172488E+01  0.75719482301E+01  0.10500000000E+00 0. -1.
</event>
<event>
11    0  0.3482988E-009  0.9118800E+02  0.7816531E-02  0.1126479E+00
         25   -1    0    0    0    0  0.00000000000E+00  0.00000000000E+00  0.99999998245E-14  0.12500000000E+03  0.12500000000E+03 0.  0.
    3000001    1    3    3    0    0 -0.22873832147E+02  0.15089660837E+02  0.62104783513E+01  0.28115477990E+02  0.10000000000E+01 0. -1.
    1000022    2    1    0    0    0 -0.44041802548E+02  0.37556010346E+02  0.21356864987E+02  0.62500000071E+02  0.10000002100E+02 0.  0.
    3000022    2    3    3    0    0 -0.21167970401E+02  0.22466349510E+02  0.15146386635E+02  0.34384522081E+02  0.24999886865E+00 0.  0.
    1000022    2    1    0    0    0  0.44041802548E+02 -0.37556010346E+02 -0.21356864987E+02  0.62499999929E+02  0.10000001211E+02 0.  0.
    3000022    2    5    5    0    0  0.64258860094E+01 -0.10710434992E+02 -0.52373640711E+01  0.13546139990E+02  0.24999497342E+00 0.  0.
        -13    1    4    4    0    0 -0.70244431142E+01  0.74261492203E+01  0.50707592138E+01  0.11411140053E+02  0.10500000000E+00 0. -1.
         13    1    4    4    0    0 -0.14143527287E+02  0.15040200289E+02  0.10075627422E+02  0.22973382028E+02  0.10500000000E+00 0.  1.
    3000001    1    5    5    0    0  0.37615916539E+02 -0.26845575354E+02 -0.16119500916E+02  0.48953859939E+02  0.10000000000E+01 0.  1.
        -13    1    6    6    0    0  0.30645444184E+01 -0.50236254981E+01 -0.25235147049E+01  0.64037018281E+01  0.10500000000E+00 0. -1.
         13    1    6    6    0    0  0.33613415910E+01 -0.56868094944E+01 -0.27138493663E+01  0.71424381621E+01  0.10500000000E+00 0.  1.
</event>
<event>
11    0  0.3482988E-009  0.9118800E+02  0.7816531E-02  0.1126479E+00
         25   -1    0    0    0    0  0.00000000000E+00  0.00000000000E+00  0.99999998245E-14  0.12500000000E+03  0.12500000000E+03 0.  0.
    3000001    1    3    3    0    0  0.28274304129E+02  0.12296799455E+02  0.78343916479E+01  0.31828057486E+02  0.10000000000E+01 0.  1.
    1000022    2    1    0    0    0  0.51128247779E+02  0.32252442636E+02  0.12326067336E+02  0.62500000394E+02  0.10000016818E+02 0.  0.
    3000022    2    3    3    0    0  0.22853943650E+02  0.19955643181E+02  0.44916756880E+01  0.30671942908E+02  0.24999233282E+00 0.  0.
    1000022    2    1    0    0    0 -0.51128247779E+02 -0.32252442636E+02 -0.12326067336E+02  0.62499999606E+02  0.10000011891E+02 0.  0.
    3000022    2    5    5    0    0 -0.39194269195E+02 -0.28866365943E+02 -0.80393318051E+01  0.49337117637E+02  0.25000074650E+00 0.  0.
        -13    1    4    4    0    0  0.16366579176E+02  0.14343819655E+02  0.32299153231E+01  0.22001214835E+02  0.10500000000E+00 0. -1.
         13    1    4    4    0    0  0.64873644744E+01  0.56118235256E+01  0.12617603649E+01  0.86707280735E+01  0.10500000000E+00 0.  1.
    3000001    1    5    5    0    0 -0.11933978584E+02 -0.33860766929E+01 -0.42867355308E+01  0.13162881969E+02  0.10000000000E+01 0. -1.
        -13    1    6    6    0    0 -0.21543998527E+02 -0.15864274422E+02 -0.43511710224E+01  0.27106508254E+02  0.10500000000E+00 0.  1.
         13    1    6    6    0    0 -0.17650270669E+02 -0.13002091520E+02 -0.36881607827E+01  0.22230609383E+02  0.10500000000E+00 0. -1.
</event>
<event>
11    0  0.3482988E-009  0.9118800E+02  0.7816531E-02  0.1126479E+00
         25   -1    0    0    0    0  0.00000000000E+00  0.00000000000E+00  0.99999998245E-14  0.12500000000E+03  0.12500000000E+03 0.  0.
    3000001    1    3    3    0    0  0.99307835827E+01 -0.58785730307E+01 -0.17343066937E+02  0.20855695966E+02  0.10000000000E+01 0. -1.
    1000022    2    1    0    0    0  0.16941244412E+02 -0.22036685068E+02 -0.55078387397E+02  0.62499999953E+02  0.99999992462E+01 0.  0.
    3000022    2    3    3    0    0  0.70104608297E+01 -0.16158112037E+02 -0.37735320459E+02  0.41644303987E+02  0.24999749414E+00 0.  0.
    1000022    2    1    0    0    0 -0.16941244412E+02  0.22036685068E+02  0.55078387397E+02  0.62500000047E+02  0.99999998324E+01 0.  0.
    3000022    2    5    5    0    0 -0.16696708352E+02  0.19688427618E+02  0.43017063999E+02  0.50169159320E+02  0.24999983189E+00 0.  0.
        -13    1    4    4    0    0  0.32700791094E+01 -0.76995362873E+01 -0.17875416490E+02  0.19736205717E+02  0.10500000000E+00 0.  1.
         13    1    4    4    0    0  0.37403817203E+01 -0.84585757495E+01 -0.19859903969E+02  0.21908098269E+02  0.10500000000E+00 0. -1.
    3000001    1    5    5    0    0 -0.24453606033E+00  0.23482574500E+01  0.12061323398E+02  0.12330840727E+02  0.10000000000E+01 0. -1.
        -13    1    6    6    0    0 -0.10591073389E+02  0.12500207896E+02  0.27414121090E+02  0.31936986287E+02  0.10500000000E+00 0.  1.
         13    1    6    6    0    0 -0.61056349636E+01  0.71882197216E+01  0.15602942909E+02  0.18232173033E+02  0.10500000000E+00 0. -1.
</event>
<event>
11    0  0.3482988E-009  0.9118800E+02  0.7816531E-02  0.1126479E+00
         25   -1    0    0    0    0  0.00000000000E+00  0.00000000000E+00  0.99999998245E-14  0.12500000000E+03  0.12500000000E+03 0.  0.
    3000001    1    3    3    0    0  0.36108374228E+01 -0.35042385542E+01 -0.34342876300E+01  0.61735051846E+01  0.10000000000E+01 0. -1.
    1000022    2    1    0    0    0  0.21315230608E+02 -0.20784368423E+02 -0.54036292209E+02  0.62499998006E+02  0.99999924208E+01 0.  0.
    3000022    2    3    3    0    0  0.17704393185E+02 -0.17280129869E+02 -0.50602004579E+02  0.56326492821E+02  0.24999957428E+00 0.  0.
    1000022    2    1    0    0    0 -0.21315230608E+02  0.20784368423E+02  0.54036292209E+02  0.62500001994E+02  0.10000017348E+02 0.  0.
    3000022    2    5    5    0    0 -0.19441412973E+02  0.21653945737E+02  0.49687004910E+02  0.57582313793E+02  0.25000083790E+00 0.  0.
        -13    1    4    4    0    0  0.12261993830E+02 -0.11967552008E+02 -0.35153659736E+02  0.39107155504E+02  0.10500000000E+00 0.  1.
         13    1    4    4    0    0  0.54423993552E+01 -0.53125778603E+01 -0.15448344843E+02  0.17219337317E+02  0.10500000000E+00 0. -1.
    3000001    1    5    5    0    0 -0.18738176354E+01 -0.86957731472E+00  0.43492872992E+01  0.49176882016E+01  0.10000000000E+01 0. -1.
        -13    1    6    6    0    0 -0.10949091757E+02  0.12260082096E+02  0.28163229275E+02  0.32609365702E+02  0.10500000000E+00 0. -1.
         13    1    6    6    0    0 -0.84923212153E+01  0.93938636418E+01  0.21523775635E+02  0.24972948090E+02  0.10500000000E+00 0.  1.
</event>
<event>
11    0  0.3482988E-009  0.9118800E+02  0.7816531E-02  0.1126479E+00
         25   -1    0    0    0    0  0.00000000000E+00  0.00000000000E+00  0.99999998245E-14  0.12500000000E+03  0.12500000000E+03 0.  0.
    3000001    1    3    3    0    0  0.33366639499E+02 -0.11910410567E+02  0.66967991890E+01  0.36069899233E+02  0.10000000000E+01 0. -1.
    1000022    2    1    0    0    0  0.57969244529E+02 -0.20881160114E+02  0.31295657015E+01  0.62499999098E+02  0.99999773364E+01 0.  0.
    3000022    2    3    3    0    0  0.24602605031E+02 -0.89707495472E+01 -0.35672334876E+01  0.26430099865E+02  0.25000473703E+00 0.  0.
    1000022    2    1    0    0    0 -0.57969244529E+02  0.20881160114E+02 -0.31295657015E+01  0.62500000902E+02  0.99999886149E+01 0.  0.
    3000022    2    5    5    0    0 -0.18721383936E+02  0.94073595272E+01  0.29065447000E+01  0.21154175359E+02  0.25000656407E+00 0.  0.
        -13    1    4    4    0    0  0.60372094774E+01 -0.22213477713E+01 -0.86197812527E+00  0.64912491467E+01  0.10500000000E+00 0.  1.
         13    1    4    4    0    0  0.18565395553E+02 -0.67494017759E+01 -0.27052553623E+01  0.19938850718E+02  0.10500000000E+00 0. -1.
    3000001    1    5    5    0    0 -0.39247860593E+02  0.11473800587E+02 -0.60361104014E+01  0.41345825543E+02  0.10000000000E+01 0.  1.
        -13    1    6    6    0    0 -0.76628764956E+01  0.37843755560E+01  0.11613804578E+01  0.86256016662E+01  0.10500000000E+00 0.  1.
         13    1    6    6    0    0 -0.11058507440E+02  0.56229839712E+01  0.17451642422E+01  0.12528573693E+02  0.10500000000E+00 0. -1.
</event>
<event>
11    0  0.3482988E-009  0.9118800E+02  0.7816531E-02  0.1126479E+00
         25   -1    0    0    0    0  0.00000000000E+00  0.00000000000E+00  0.99999998245E-14  0.12500000000E+03  0.12500000000E+03 0.  0.
    3000001    1    3    3    0    0  0.15774479509E+02  0.41539623624E+02 -0.15202326526E+02  0.46973239897E+02  0.10000000000E+01 0.  1.
    1000022    2    1    0    0    0  0.15499336914E+02  0.55619682054E+02 -0.21736401906E+02  0.62500003292E+02  0.10000038360E+02 0.  0.
    3000022    2    3    3    0    0 -0.27514259455E+00  0.14080058429E+02 -0.65340753794E+01  0.15526763395E+02  0.24998328979E+00 0.  0.
    1000022    2    1    0    0    0 -0.15499336914E+02 -0.55619682054E+02  0.21736401906E+02  0.62499996708E+02  0.99999972070E+01 0.  0.
    3000022    2    5    5    0    0 -0.52477863396E+01 -0.15126991173E+02  0.10784474475E+02  0.19306281674E+02  0.24999795169E+00 0.  0.
        -13    1    4    4    0    0 -0.85715852441E-01  0.49796989368E+01 -0.23727344490E+01  0.55177570147E+01  0.10500000000E+00 0.  1.
         13    1    4    4    0    0 -0.18942674211E+00  0.91003594924E+01 -0.41613409303E+01  0.10009006380E+02  0.10500000000E+00 0. -1.
    3000001    1    5    5    0    0 -0.10251550574E+02 -0.40492690881E+02  0.10951927431E+02  0.43193715034E+02  0.10000000000E+01 0.  1.
        -13    1    6    6    0    0 -0.15578406247E+01 -0.46329594718E+01  0.33012319218E+01  0.58991811364E+01  0.10500000000E+00 0. -1.
         13    1    6    6    0    0 -0.36899457149E+01 -0.10494031701E+02  0.74832425529E+01  0.13407100538E+02  0.10500000000E+00 0.  1.
</event>
<event>
11    0  0.3482988E-009  0.9118800E+02  0.7816531E-02  0.1126479E+00
         25   -1    0    0    0    0  0.00000000000E+00  0.00000000000E+00  0.99999998245E-14  0.12500000000E+03  0.12500000000E+03 0.  0.
    3000001    1    3    3    0    0 -0.97809224465E+01 -0.91872497948E+01  0.63005305951E+01  0.14858286862E+02  0.10000000000E+01 0.  1.
    1000022    2    1    0    0    0 -0.44302664240E+02 -0.41855407771E+02  0.95733299874E+01  0.62500000897E+02  0.10000012333E+02 0.  0.
    3000022    2    3    3    0    0 -0.34521741794E+02 -0.32668157976E+02  0.32727993923E+01  0.47641714035E+02  0.24999663166E+00 0.  0.
    1000022    2    1    0    0    0  0.44302664240E+02  0.41855407771E+02 -0.95733299874E+01  0.62499999103E+02  0.10000001115E+02 0.  0.
    3000022    2    5    5    0    0  0.96777778504E+01  0.14921112060E+02 -0.11790587412E+01  0.17825589955E+02  0.25001697347E+00 0.  0.
        -13    1    4    4    0    0 -0.96266541240E+01 -0.90771410151E+01  0.94231710334E+00  0.13265215609E+02  0.10500000000E+00 0. -1.
         13    1    4    4    0    0 -0.24895087670E+02 -0.23591016961E+02  0.23304822890E+01  0.34376498426E+02  0.10500000000E+00 0.  1.
    3000001    1    5    5    0    0  0.34624886390E+02  0.26934295711E+02 -0.83942712462E+01  0.44674409148E+02  0.10000000000E+01 0.  1.
        -13    1    6    6    0    0  0.39033513515E+01  0.59059982214E+01 -0.45421142472E+00  0.70946669959E+01  0.10500000000E+00 0. -1.
         13    1    6    6    0    0  0.57744264989E+01  0.90151138387E+01 -0.72484731648E+00  0.10730922959E+02  0.10500000000E+00 0.  1.
</event>
<event>
11    0  0.3482988E-009  0.9118800E+02  0.7816531E-02  0.1126479E+00
         25   -1    0    0    0    0  0.00000000000E+00  0.00000000000E+00  0.99999998245E-14  0.12500000000E+03  0.12500000000E+03 0.  0.
    3000001    1    3    3    0    0  0.16076583962E+02 -0.10945802251E+02 -0.23677230058E+01  0.19618186742E+02  0.10000000000E+01 0. -1.
    1000022    2    1    0    0    0  0.44919840025E+02 -0.42157173290E+02  0.33511037088E+01  0.62500008049E+02  0.10000091119E+02 0.  0.
    3000022    2    3    3    0    0  0.28843256064E+02 -0.31211371039E+02  0.57188267146E+01  0.42881821308E+02  0.25003439189E+00 0.  0.
    1000022    2    1    0    0    0 -0.44919840025E+02  0.42157173290E+02 -0.33511037088E+01  0.62499991951E+02  0.99999905039E+01 0.  0.
    3000022    2    5    5    0    0 -0.13597381448E+02  0.19312049192E+02 -0.17733785297E+01  0.23686523629E+02  0.25000801356E+00 0.  0.
        -13    1    4    4    0    0  0.14896359790E+02 -0.16120078254E+02  0.28852652382E+01  0.22138072147E+02  0.10500000000E+00 0. -1.
         13    1    4    4    0    0  0.13946896274E+02 -0.15091292785E+02  0.28335614764E+01  0.20743749161E+02  0.10500000000E+00 0.  1.
    3000001    1    5    5    0    0 -0.31322458577E+02  0.22845124098E+02 -0.15777251791E+01  0.38813468321E+02  0.10000000000E+01 0.  1.
        -13    1    6    6    0    0 -0.57948385642E+01  0.81710103335E+01 -0.80776985032E+00  0.10050327407E+02  0.10500000000E+00 0.  1.
         13    1    6    6    0    0 -0.78025428836E+01  0.11141038859E+02 -0.96560867941E+00  0.13636196223E+02  0.10500000000E+00 0. -1.
</event>
<event>
11    0  0.3482988E-009  0.9118800E+02  0.7816531E-02  0.1126479E+00
         25   -1    0    0    0    0  0.00000000000E+00  0.00000000000E+00  0.99999998245E-14  0.12500000000E+03  0.12500000000E+03 0.  0.
    3000001    1    3    3    0    0  0.97140438835E+01  0.61138263785E+01  0.16244462022E+02  0.19915422866E+02  0.10000000000E+01 0. -1.
    1000022    2    1    0    0    0  0.41461225904E+02  0.13452484686E+02  0.43660594167E+02  0.62500000841E+02  0.10000001221E+02 0.  0.
    3000022    2    3    3    0    0  0.31747182020E+02  0.73386583076E+01  0.27416132145E+02  0.42584577975E+02  0.25001500995E+00 0.  0.
    1000022    2    1    0    0    0 -0.41461225904E+02 -0.13452484686E+02 -0.43660594167E+02  0.62499999159E+02  0.99999907134E+01 0.  0.
    3000022    2    5    5    0    0 -0.18060943884E+02 -0.44298399364E+01 -0.12150929832E+02  0.22215507560E+02  0.25000910927E+00 0.  0.
        -13    1    4    4    0    0  0.13818075681E+02  0.32584253399E+01  0.11972192016E+02  0.18571509305E+02  0.10500000000E+00 0. -1.
         13    1    4    4    0    0  0.17929106340E+02  0.40802329677E+01  0.15443940129E+02  0.24013068669E+02  0.10500000000E+00 0.  1.
    3000001    1    5    5    0    0 -0.23400282020E+02 -0.90226447496E+01 -0.31509664335E+02  0.40284491599E+02  0.10000000000E+01 0.  1.
        -13    1    6    6    0    0 -0.12923240341E+02 -0.31659347074E+01 -0.87424033118E+01  0.15920864428E+02  0.10500000000E+00 0.  1.
         13    1    6    6    0    0 -0.51377035431E+01 -0.12639052290E+01 -0.34085265199E+01  0.62946431322E+01  0.10500000000E+00 0. -1.
</event>
<event>
11    0  0.3482988E-009  0.9118800E+02  0.7816531E-02  0.1126479E+00
         25   -1    0    0    0    0  0.00000000000E+00  0.00000000000E+00  0.99999998245E-14  0.12500000000E+03  0.12500000000E+03 0.  0.
    3000001    1    3    3    0    0 -0.26015124284E+02 -0.90920944170E+01  0.17317176221E+02  0.32562823352E+02  0.10000000000E+01 0.  1.
    1000022    2    1    0    0    0 -0.43331862760E+02 -0.22691743017E+02  0.37598993842E+02  0.62499999130E+02  0.10000001097E+02 0.  0.
    3000022    2    3    3    0    0 -0.17316738476E+02 -0.13599648600E+02  0.20281817621E+02  0.29937175778E+02  0.24998812210E+00 0.  0.
    1000022    2    1    0    0    0  0.43331862760E+02  0.22691743017E+02 -0.37598993842E+02  0.62500000870E+02  0.10000011966E+02 0.  0.
    3000022    2    5    5    0    0  0.20552033538E+02  0.12959474532E+02 -0.24309993625E+02  0.34371097655E+02  0.25000260963E+00 0.  0.
        -13    1    4    4    0    0 -0.87161549438E+01 -0.67601656351E+01  0.10144979661E+02  0.14986755277E+02  0.10500000000E+00 0.  1.
         13    1    4    4    0    0 -0.86005835323E+01 -0.68394829645E+01  0.10136837960E+02  0.14950420501E+02  0.10500000000E+00 0. -1.
    3000001    1    5    5    0    0  0.22779829222E+02  0.97322684842E+01 -0.13289000218E+02  0.28128903214E+02  0.10000000000E+01 0. -1.
        -13    1    6    6    0    0  0.12919768644E+02  0.81025470541E+01 -0.15192163316E+02  0.21526368523E+02  0.10500000000E+00 0.  1.
         13    1    6    6    0    0  0.76322648938E+01  0.48569274783E+01 -0.91178303086E+01  0.12844729132E+02  0.10500000000E+00 0. -1.
</event>
<event>
11    0  0.3482988E-009  0.9118800E+02  0.7816531E-02  0.1126479E+00
         25   -1    0    0    0    0  0.00000000000E+00  0.00000000000E+00  0.99999998245E-14  0.12500000000E+03  0.12500000000E+03 0.  0.
    3000001    1    3    3    0    0 -0.47460292380E+01  0.21264909047E+02  0.25901317419E+02  0.33861473600E+02  0.10000000000E+01 0. -1.
    1000022    2    1    0    0    0  0.24645384503E+00  0.38115521203E+02  0.48511815779E+02  0.62499999733E+02  0.10000000015E+02 0.  0.
    3000022    2    3    3    0    0  0.49924830831E+01  0.16850612157E+02  0.22610498360E+02  0.28638526133E+02  0.25005119681E+00 0.  0.
    1000022    2    1    0    0    0 -0.24645384503E+00 -0.38115521203E+02 -0.48511815779E+02  0.62500000267E+02  0.10000003356E+02 0.  0.
    3000022    2    5    5    0    0 -0.25450613670E+01 -0.67951082284E+01 -0.49434141082E+01  0.87835457155E+01  0.24999818758E+00 0.  0.
        -13    1    4    4    0    0  0.18704981862E+01  0.64295711691E+01  0.85317209678E+01  0.10846171516E+02  0.10500000000E+00 0. -1.
         13    1    4    4    0    0  0.31219848969E+01  0.10421040988E+02  0.14078777392E+02  0.17792354617E+02  0.10500000000E+00 0.  1.
    3000001    1    5    5    0    0  0.22986075220E+01 -0.31320412975E+02 -0.43568401671E+02  0.53716454552E+02  0.10000000000E+01 0.  1.
        -13    1    6    6    0    0 -0.16022715856E+01 -0.41552104324E+01 -0.30864953893E+01  0.54194581611E+01  0.10500000000E+00 0.  1.
         13    1    6    6    0    0 -0.94278978135E+00 -0.26398977960E+01 -0.18569187189E+01  0.33640875544E+01  0.10500000000E+00 0. -1.
</event>
<event>
11    0  0.3482988E-009  0.9118800E+02  0.7816531E-02  0.1126479E+00
         25   -1    0    0    0    0  0.00000000000E+00  0.00000000000E+00  0.99999998245E-14  0.12500000000E+03  0.12500000000E+03 0.  0.
    3000001    1    3    3    0    0  0.41071778913E+01  0.22234280733E+01 -0.24661298376E+01  0.53753454776E+01  0.10000000000E+01 0. -1.
    1000022    2    1    0    0    0  0.29817802377E+02  0.16158161117E+02 -0.51537011196E+02  0.62500006466E+02  0.99999887996E+01 0.  0.
    3000022    2    3    3    0    0  0.25710624486E+02  0.13934733043E+02 -0.49070881358E+02  0.57124660989E+02  0.24999867617E+00 0.  0.
    1000022    2    1    0    0    0 -0.29817802377E+02 -0.16158161117E+02  0.51537011196E+02  0.62499993534E+02  0.99999079704E+01 0.  0.
    3000022    2    5    5    0    0 -0.26360319366E+02 -0.10781994989E+02  0.37925547392E+02  0.47429184070E+02  0.25000707818E+00 0.  0.
        -13    1    4    4    0    0  0.10574356117E+02  0.56987026978E+01 -0.20044410133E+02  0.23368389382E+02  0.10500000000E+00 0. -1.
         13    1    4    4    0    0  0.15136268369E+02  0.82360303455E+01 -0.29026471225E+02  0.33756271606E+02  0.10500000000E+00 0.  1.
    3000001    1    5    5    0    0 -0.34574830114E+01 -0.53761661281E+01  0.13611463804E+02  0.15070809464E+02  0.10000000000E+01 0. -1.
        -13    1    6    6    0    0 -0.15225521075E+02 -0.62942265811E+01  0.21972709647E+02  0.27463517154E+02  0.10500000000E+00 0.  1.
         13    1    6    6    0    0 -0.11134798291E+02 -0.44877684074E+01  0.15952837745E+02  0.19965666916E+02  0.10500000000E+00 0. -1.
</event>
<event>
11    0  0.3482988E-009  0.9118800E+02  0.7816531E-02  0.1126479E+00
         25   -1    0    0    0    0  0.00000000000E+00  0.00000000000E+00  0.99999998245E-14  0.12500000000E+03  0.12500000000E+03 0.  0.
    3000001    1    3    3    0    0 -0.57215081393E+00 -0.30756277810E+02  0.93158455964E+01  0.32156818257E+02  0.10000000000E+01 0. -1.
    1000022    2    1    0    0    0 -0.76582807066E+01 -0.56235846842E+02  0.24189461606E+02  0.62499999165E+02  0.10000005473E+02 0.  0.
    3000022    2    3    3    0    0 -0.70861298927E+01 -0.25479569032E+02  0.14873616010E+02  0.30343180908E+02  0.24999896697E+00 0.  0.
    1000022    2    1    0    0    0  0.76582807066E+01  0.56235846842E+02 -0.24189461606E+02  0.62500000835E+02  0.10000015908E+02 0.  0.
    3000022    2    5    5    0    0  0.40277482315E+01  0.28833924301E+02 -0.17756175284E+02  0.34102231593E+02  0.24998504335E+00 0.  0.
        -13    1    4    4    0    0 -0.50993156001E+01 -0.18310419623E+02  0.10644021803E+02  0.21784873456E+02  0.10500000000E+00 0. -1.
         13    1    4    4    0    0 -0.19868142926E+01 -0.71691494093E+01  0.42295942073E+01  0.85583074521E+01  0.10500000000E+00 0.  1.
    3000001    1    5    5    0    0  0.36305324751E+01  0.27401922541E+02 -0.64332863225E+01  0.28397769241E+02  0.10000000000E+01 0. -1.
        -13    1    6    6    0    0  0.16933783811E+01  0.12474490949E+02 -0.77294616317E+01  0.14772814793E+02  0.10500000000E+00 0.  1.
         13    1    6    6    0    0  0.23343698503E+01  0.16359433352E+02 -0.10026713652E+02  0.19329416801E+02  0.10500000000E+00 0. -1.
</event>
<event>
11    0  0.3482988E-009  0.9118800E+02  0.7816531E-02  0.1126479E+00
         25   -1    0    0    0    0  0.00000000000E+00  0.00000000000E+00  0.99999998245E-14  0.12500000000E+03  0.12500000000E+03 0.  0.
    3000001    1    3    3    0    0 -0.18973967447E+02 -0.88513565647E+01 -0.33841941380E+02  0.39807473546E+02  0.10000000000E+01 0. -1.
    1000022    2    1    0    0    0 -0.34009371590E+02 -0.17764813471E+02 -0.48311741022E+02  0.62499998615E+02  0.99999776397E+01 0.  0.
    3000022    2    3    3    0    0 -0.15035404142E+02 -0.89134569061E+01 -0.14469799642E+02  0.22692525070E+02  0.25000124559E+00 0.  0.
    1000022    2    1    0    0    0  0.34009371590E+02  0.17764813471E+02  0.48311741022E+02  0.62500001385E+02  0.99999949476E+01 0.  0.
    3000022    2    5    5    0    0  0.33132066399E+02  0.16498597418E+02  0.48037258117E+02  0.60643039254E+02  0.25000379215E+00 0.  0.
        -13    1    4    4    0    0 -0.52779719943E+01 -0.31290745411E+01 -0.51535092490E+01  0.80135995929E+01  0.10500000000E+00 0.  1.
         13    1    4    4    0    0 -0.97574321482E+01 -0.57843823650E+01 -0.93162903927E+01  0.14678925477E+02  0.10500000000E+00 0. -1.
    3000001    1    5    5    0    0  0.87730519107E+00  0.12662160529E+01  0.27448290438E+00  0.18569621309E+01  0.10000000000E+01 0. -1.
        -13    1    6    6    0    0  0.10146897820E+02  0.50273600236E+01  0.14629294674E+02  0.18500301939E+02  0.10500000000E+00 0.  1.
         13    1    6    6    0    0  0.22985168579E+02  0.11471237394E+02  0.33407963444E+02  0.42142737315E+02  0.10500000000E+00 0. -1.
</event>
<event>
11    0  0.3482988E-009  0.9118800E+02  0.7816531E-02  0.1126479E+00
         25   -1    0    0    0    0  0.00000000000E+00  0.00000000000E+00  0.99999998245E-14  0.12500000000E+03  0.12500000000E+03 0.  0.
    3000001    1    3    3    0    0 -0.23661970520E+01 -0.15779072450E+01  0.18525957170E+01  0.35384729268E+01  0.10000000000E+01 0.  1.
    1000022    2    1    0    0    0 -0.47180551017E+02 -0.39704706874E+02 -0.19447689050E+01  0.62499999800E+02  0.99999853339E+01 0.  0.
    3000022    2    3    3    0    0 -0.44814353965E+02 -0.38126799629E+02 -0.37973646220E+01  0.58961526873E+02  0.25000378158E+00 0.  0.
    1000022    2    1    0    0    0  0.47180551017E+02  0.39704706874E+02  0.19447689050E+01  0.62500000200E+02  0.99999878333E+01 0.  0.
    3000022    2    5    5    0    0  0.31818672499E+02  0.24325938391E+02  0.55757557471E+01  0.40439222854E+02  0.24998936271E+00 0.  0.
        -13    1    4    4    0    0 -0.22990310000E+02 -0.19497468006E+02 -0.18968406733E+01  0.30204546712E+02  0.10500000000E+00 0.  1.
         13    1    4    4    0    0 -0.21824043965E+02 -0.18629331623E+02 -0.19005239487E+01  0.28756980161E+02  0.10500000000E+00 0. -1.
    3000001    1    5    5    0    0  0.15361878518E+02  0.15378768483E+02 -0.36309868421E+01  0.22060777346E+02  0.10000000000E+01 0. -1.
        -13    1    6    6    0    0  0.16479590757E+02  0.12611656883E+02  0.29564266876E+01  0.20961447579E+02  0.10500000000E+00 0. -1.
         13    1    6    6    0    0  0.15339081742E+02  0.11714281508E+02  0.26193290595E+01  0.19477775275E+02  0.10500000000E+00 0.  1.
</event>
<event>
11    0  0.3482988E-009  0.9118800E+02  0.7816531E-02  0.1126479E+00
         25   -1    0    0    0    0  0.00000000000E+00  0.00000000000E+00  0.99999998245E-14  0.12500000000E+03  0.12500000000E+03 0.  0.
    3000001    1    3    3    0    0 -0.41228210696E+02 -0.18599165374E+02 -0.24285420124E+02  0.51346625404E+02  0.10000000000E+01 0.  1.
    1000022    2    1    0    0    0 -0.48710633754E+02 -0.19400393012E+02 -0.32513826194E+02  0.62500000937E+02  0.10000006677E+02 0.  0.
    3000022    2    3    3    0    0 -0.74824230580E+01 -0.80122763798E+00 -0.82284060704E+01  0.11153375532E+02  0.24999752063E+00 0.  0.
    1000022    2    1    0    0    0  0.48710633754E+02  0.19400393012E+02  0.32513826194E+02  0.62499999063E+02  0.99999949689E+01 0.  0.
    3000022    2    5    5    0    0  0.55107060636E+01  0.53039765509E+01  0.25794392096E+01  0.80756457492E+01  0.24999811866E+00 0.  0.
        -13    1    4    4    0    0 -0.38458779359E+01 -0.47614569298E+00 -0.42036956703E+01  0.57183541432E+01  0.10500000000E+00 0.  1.
         13    1    4    4    0    0 -0.36365451221E+01 -0.32508194500E+00 -0.40247104001E+01  0.54350213892E+01  0.10500000000E+00 0. -1.
    3000001    1    5    5    0    0  0.43199927691E+02  0.14096416461E+02  0.29934386984E+02  0.54424353314E+02  0.10000000000E+01 0.  1.
        -13    1    6    6    0    0  0.17439450618E+01  0.17433715597E+01  0.85424937605E+00  0.26117916782E+01  0.10500000000E+00 0.  1.
         13    1    6    6    0    0  0.37667610018E+01  0.35606049912E+01  0.17251898335E+01  0.54638540710E+01  0.10500000000E+00 0. -1.
</event>
<event>
11    0  0.3482988E-009  0.9118800E+02  0.7816531E-02  0.1126479E+00
         25   -1    0    0    0    0  0.00000000000E+00  0.00000000000E+00  0.99999998245E-14  0.12500000000E+03  0.12500000000E+03 0.  0.
    3000001    1    3    3    0    0  0.14778937034E+02 -0.26932233162E+02  0.15014433919E+02  0.34208118756E+02  0.10000000000E+01 0.  1.
    1000022    2    1    0    0    0  0.31192604114E+02 -0.42608639383E+02  0.31902592823E+02  0.62500000868E+02  0.99999989120E+01 0.  0.
    3000022    2    3    3    0    0  0.16413667080E+02 -0.15676406222E+02  0.16888158904E+02  0.28291882112E+02  0.25000652201E+00 0.  0.
    1000022    2    1    0    0    0 -0.31192604114E+02  0.42608639383E+02 -0.31902592823E+02  0.62499999132E+02  0.99999880579E+01 0.  0.
    3000022    2    5    5    0    0 -0.18793008048E+02  0.29421173475E+02 -0.25655281768E+02  0.43324803302E+02  0.24999692367E+00 0.  0.
        -13    1    4    4    0    0  0.10158599053E+02 -0.97670581701E+01  0.10437114112E+02  0.17536731053E+02  0.10500000000E+00 0.  1.
         13    1    4    4    0    0  0.62550680265E+01 -0.59093480514E+01  0.64510447915E+01  0.10755151059E+02  0.10500000000E+00 0. -1.
    3000001    1    5    5    0    0 -0.12399596066E+02  0.13187465908E+02 -0.62473110549E+01  0.19175195829E+02  0.10000000000E+01 0. -1.
        -13    1    6    6    0    0 -0.48398118171E+01  0.76283836037E+01 -0.66219238037E+01  0.11201647856E+02  0.10500000000E+00 0.  1.
         13    1    6    6    0    0 -0.13953196231E+02  0.21792789871E+02 -0.19033357964E+02  0.32123155446E+02  0.10500000000E+00 0. -1.
</event>
<event>
11    0  0.3482988E-009  0.9118800E+02  0.7816531E-02  0.1126479E+00
         25   -1    0    0    0    0  0.00000000000E+00  0.00000000000E+00  0.99999998245E-14  0.12500000000E+03  0.12500000000E+03 0.  0.
    3000001    1    3    3    0    0 -0.81697326855E+01 -0.22976239977E+02 -0.11971430904E+02  0.27183952868E+02  0.10000000000E+01 0. -1.
    1000022    2    1    0    0    0 -0.18248730861E+02 -0.46188537824E+02 -0.36604001538E+02  0.62499997848E+02  0.99999798999E+01 0.  0.
    3000022    2    3    3    0    0 -0.10078998176E+02 -0.23212297847E+02 -0.24632570635E+02  0.35316044980E+02  0.25004279306E+00 0.  0.
    1000022    2    1    0    0    0  0.18248730861E+02  0.46188537824E+02  0.36604001538E+02  0.62500002152E+02  0.10000006797E+02 0.  0.
    3000022    2    5    5    0    0  0.12093888985E+02  0.18029812421E+02  0.17741950963E+02  0.28038823316E+02  0.25000447690E+00 0.  0.
        -13    1    4    4    0    0 -0.64852612438E+01 -0.15036018414E+02 -0.15881941227E+02  0.22812004412E+02  0.10500000000E+00 0. -1.
         13    1    4    4    0    0 -0.35937369320E+01 -0.81762794327E+01 -0.87506294075E+01  0.12504040568E+02  0.10500000000E+00 0.  1.
    3000001    1    5    5    0    0  0.61548418765E+01  0.28158725403E+02  0.18862050575E+02  0.34461178836E+02  0.10000000000E+01 0.  1.
        -13    1    6    6    0    0  0.60812893177E+01  0.89522651375E+01  0.88751669930E+01  0.13996597623E+02  0.10500000000E+00 0.  1.
         13    1    6    6    0    0  0.60125996672E+01  0.90775472838E+01  0.88667839705E+01  0.14042225693E+02  0.10500000000E+00 0. -1.
</event>
<event>
11    0  0.3482988E-009  0.9118800E+02  0.7816531E-02  0.1126479E+00
         25   -1    0    0    0    0  0.00000000000E+00  0.00000000000E+00  0.99999998245E-14  0.12500000000E+03  0.12500000000E+03 0.  0.
    3000001    1    3    3    0    0 -0.16543340650E+02  0.17125625363E+02 -0.29713759914E+02  0.38090375322E+02  0.10000000000E+01 0.  1.
    1000022    2    1    0    0    0 -0.21326252484E+02  0.24275651064E+02 -0.52556006051E+02  0.62500000945E+02  0.10000003329E+02 0.  0.
    3000022    2    3    3    0    0 -0.47829118334E+01  0.71500257011E+01 -0.22842246136E+02  0.24409625623E+02  0.25000274357E+00 0.  0.
    1000022    2    1    0    0    0  0.21326252484E+02 -0.24275651064E+02  0.52556006051E+02  0.62499999055E+02  0.99999915126E+01 0.  0.
    3000022    2    5    5    0    0  0.57668031684E+01 -0.41261304380E+01  0.19596944451E+02  0.20841873965E+02  0.25001475794E+00 0.  0.
        -13    1    4    4    0    0 -0.13024097769E+01  0.20176509075E+01 -0.63893538392E+01  0.68265697018E+01  0.10500000000E+00 0. -1.
         13    1    4    4    0    0 -0.34805020564E+01  0.51323747936E+01 -0.16452892297E+02  0.17583055921E+02  0.10500000000E+00 0.  1.
    3000001    1    5    5    0    0  0.15559449315E+02 -0.20149520626E+02  0.32959061599E+02  0.41658125089E+02  0.10000000000E+01 0. -1.
        -13    1    6    6    0    0  0.28518209938E+01 -0.20499061881E+01  0.99043998670E+01  0.10509194074E+02  0.10500000000E+00 0. -1.
         13    1    6    6    0    0  0.29149821746E+01 -0.20762242499E+01  0.96925445843E+01  0.10332679891E+02  0.10500000000E+00 0.  1.
</event>
<event>
11    0  0.3482988E-009  0.9118800E+02  0.7816531E-02  0.1126479E+00
         25   -1    0    0    0    0  0.00000000000E+00  0.00000000000E+00  0.99999998245E-14  0.12500000000E+03  0.12500000000E+03 0.  0.
    3000001    1    3    3    0    0  0.85365543794E+01  0.23899061391E+01  0.24385752688E+02  0.25966311756E+02  0.10000000000E+01 0. -1.
    1000022    2    1    0    0    0  0.25099856849E+02 -0.47355435511E+01  0.56158898812E+02  0.62499999472E+02  0.99999915839E+01 0.  0.
    3000022    2    3    3    0    0  0.16563302470E+02 -0.71254496902E+01  0.31773146124E+02  0.36533687717E+02  0.25000314149E+00 0.  0.
    1000022    2    1    0    0    0 -0.25099856849E+02  0.47355435511E+01 -0.56158898812E+02  0.62500000528E+02  0.99999981794E+01 0.  0.
    3000022    2    5    5    0    0 -0.17873921181E+02  0.70235596750E+01 -0.45456880577E+02  0.49347724741E+02  0.24999286639E+00 0.  0.
        -13    1    4    4    0    0  0.42348183674E+01 -0.18168932177E+01  0.81806142918E+01  0.93897956719E+01  0.10500000000E+00 0. -1.
         13    1    4    4    0    0  0.12328484102E+02 -0.53085564725E+01  0.23592531832E+02  0.27143892045E+02  0.10500000000E+00 0.  1.
    3000001    1    5    5    0    0 -0.72259356676E+01 -0.22880161238E+01 -0.10702018235E+02  0.13152275786E+02  0.10000000000E+01 0.  1.
        -13    1    6    6    0    0 -0.11108019022E+02  0.44078673113E+01 -0.28402890937E+02  0.30814811688E+02  0.10500000000E+00 0.  1.
         13    1    6    6    0    0 -0.67659021599E+01  0.26156923637E+01 -0.17053989641E+02  0.18532913053E+02  0.10500000000E+00 0. -1.
</event>
<event>
11    0  0.3482988E-009  0.9118800E+02  0.7816531E-02  0.1126479E+00
         25   -1    0    0    0    0  0.00000000000E+00  0.00000000000E+00  0.99999998245E-14  0.12500000000E+03  0.12500000000E+03 0.  0.
    3000001    1    3    3    0    0  0.11566373354E+01  0.32545698442E+01  0.24724892177E+02  0.24985002061E+02  0.10000000000E+01 0. -1.
    1000022    2    1    0    0    0 -0.56821443319E+00 -0.34427425743E+01  0.61596063473E+02  0.62499997424E+02  0.99999649315E+01 0.  0.
    3000022    2    3    3    0    0 -0.17248517686E+01 -0.66973124185E+01  0.36871171296E+02  0.37514995364E+02  0.24999435650E+00 0.  0.
    1000022    2    1    0    0    0  0.56821443319E+00  0.34427425743E+01 -0.61596063473E+02  0.62500002576E+02  0.99999971255E+01 0.  0.
    3000022    2    5    5    0    0  0.51569769923E+01  0.14931509492E+01 -0.26719834718E+02  0.27255017379E+02  0.24998704972E+00 0.  0.
        -13    1    4    4    0    0 -0.11437723369E+01 -0.46325673107E+01  0.25384920119E+02  0.25829713307E+02  0.10500000000E+00 0.  1.
         13    1    4    4    0    0 -0.58107943172E+00 -0.20647451078E+01  0.11486251176E+02  0.11685282057E+02  0.10500000000E+00 0. -1.
    3000001    1    5    5    0    0 -0.45887625591E+01  0.19495916251E+01 -0.34876228755E+02  0.35244985196E+02  0.10000000000E+01 0.  1.
        -13    1    6    6    0    0  0.14585967530E+01  0.46375912894E+00 -0.76853104230E+01  0.78369380702E+01  0.10500000000E+00 0. -1.
         13    1    6    6    0    0  0.36983802393E+01  0.10293918203E+01 -0.19034524295E+02  0.19418079309E+02  0.10500000000E+00 0.  1.
</event>
<event>
11    0  0.3482988E-009  0.9118800E+02  0.7816531E-02  0.1126479E+00
         25   -1    0    0    0    0  0.00000000000E+00  0.00000000000E+00  0.99999998245E-14  0.12500000000E+03  0.12500000000E+03 0.  0.
    3000001    1    3    3    0    0 -0.18597047621E+00 -0.50141272998E+01 -0.17340894320E+02  0.18079896941E+02  0.10000000000E+01 0.  1.
    1000022    2    1    0    0    0 -0.12245078424E+02 -0.25937265706E+02 -0.54622030526E+02  0.62499998448E+02  0.99999944662E+01 0.  0.
    3000022    2    3    3    0    0 -0.12059107948E+02 -0.20923138407E+02 -0.37281136206E+02  0.44420101507E+02  0.24999157771E+00 0.  0.
    1000022    2    1    0    0    0  0.12245078424E+02  0.25937265706E+02  0.54622030526E+02  0.62500001552E+02  0.10000013866E+02 0.  0.
    3000022    2    5    5    0    0  0.13012088691E+02  0.17392206382E+02  0.39977630937E+02  0.45498096279E+02  0.24998946423E+00 0.  0.
        -13    1    4    4    0    0 -0.42345507784E+01 -0.72898970760E+01 -0.13104604169E+02  0.15582544564E+02  0.10500000000E+00 0.  1.
         13    1    4    4    0    0 -0.78245571699E+01 -0.13633241330E+02 -0.24176532037E+02  0.28837556942E+02  0.10500000000E+00 0. -1.
    3000001    1    5    5    0    0 -0.76701026665E+00  0.85450593242E+01  0.14644399589E+02  0.17001905273E+02  0.10000000000E+01 0.  1.
        -13    1    6    6    0    0  0.31624327667E+01  0.42566613444E+01  0.97901770957E+01  0.11134574054E+02  0.10500000000E+00 0. -1.
         13    1    6    6    0    0  0.98496559244E+01  0.13135545038E+02  0.30187453841E+02  0.34363522224E+02  0.10500000000E+00 0.  1.
</event>
<event>
11    0  0.3482988E-009  0.9118800E+02  0.7816531E-02  0.1126479E+00
         25   -1    0    0    0    0  0.00000000000E+00  0.00000000000E+00  0.99999998245E-14  0.12500000000E+03  0.12500000000E+03 0.  0.
    3000001    1    3    3    0    0  0.28481873922E+02  0.70296559857E+01  0.10076365486E+02  0.31034921408E+02  0.10000000000E+01 0.  1.
    1000022    2    1    0    0    0  0.52150264573E+02  0.16800115727E+02  0.28361169110E+02  0.62499999541E+02  0.10000002290E+02 0.  0.
    3000022    2    3    3    0    0  0.23668390651E+02  0.97704597411E+01  0.18284803624E+02  0.31465078133E+02  0.24999754288E+00 0.  0.
    1000022    2    1    0    0    0 -0.52150264573E+02 -0.16800115727E+02 -0.28361169110E+02  0.62500000459E+02  0.10000008031E+02 0.  0.
    3000022    2    5    5    0    0 -0.40094680231E+02 -0.10763854873E+02 -0.17077118449E+02  0.44890248665E+02  0.24999226928E+00 0.  0.
        -13    1    4    4    0    0  0.17734798893E+02  0.73346977905E+01  0.13732960538E+02  0.23599282057E+02  0.10500000000E+00 0. -1.
         13    1    4    4    0    0  0.59335917585E+01  0.24357619506E+01  0.45518430853E+01  0.78657960761E+01  0.10500000000E+00 0.  1.
    3000001    1    5    5    0    0 -0.12055584342E+02 -0.60362608539E+01 -0.11284050661E+02  0.17609751794E+02  0.10000000000E+01 0.  1.
        -13    1    6    6    0    0 -0.21251859738E+02 -0.57603705554E+01 -0.90127056302E+01  0.23792084798E+02  0.10500000000E+00 0. -1.
         13    1    6    6    0    0 -0.18842820493E+02 -0.50034843176E+01 -0.80644128190E+01  0.21098163867E+02  0.10500000000E+00 0.  1.
</event>
<event>
11    0  0.3482988E-009  0.9118800E+02  0.7816531E-02  0.1126479E+00
         25   -1    0    0    0    0  0.00000000000E+00  0.00000000000E+00  0.99999998245E-14  0.12500000000E+03  0.12500000000E+03 0.  0.
    3000001    1    3    3    0    0  0.26889304851E+01  0.28861136098E+01  0.15587618267E+02  0.16110054071E+02  0.10000000000E+01 0. -1.
    1000022    2    1    0    0    0  0.82193038222E+01 -0.52788938264E+01  0.60916552534E+02  0.62500000784E+02  0.10000002501E+02 0.  0.
    3000022    2    3    3    0    0  0.55303733371E+01 -0.81650074362E+01  0.45328934267E+02  0.46389946714E+02  0.24999719529E+00 0.  0.
    1000022    2    1    0    0    0 -0.82193038222E+01  0.52788938264E+01 -0.60916552534E+02  0.62499999216E+02  0.99999926979E+01 0.  0.
    3000022    2    5    5    0    0 -0.62780584030E+01 -0.11369413889E+00 -0.46971217731E+02  0.47389711279E+02  0.24999271114E+00 0.  0.
        -13    1    4    4    0    0  0.24268008331E+01 -0.35031426434E+01  0.19363283893E+02  0.19826980576E+02  0.10500000000E+00 0.  1.
         13    1    4    4    0    0  0.31035725041E+01 -0.46618647927E+01  0.25965650375E+02  0.26562966137E+02  0.10500000000E+00 0. -1.
    3000001    1    5    5    0    0 -0.19412454192E+01  0.53925879653E+01 -0.13945334803E+02  0.15110287936E+02  0.10000000000E+01 0. -1.
        -13    1    6    6    0    0 -0.33075759963E+01  0.69911802629E-02 -0.24667364820E+02  0.24888351090E+02  0.10500000000E+00 0.  1.
         13    1    6    6    0    0 -0.29704824067E+01 -0.12068531915E+00 -0.22303852911E+02  0.22501360189E+02  0.10500000000E+00 0. -1.
</event>
<event>
11    0  0.3482988E-009  0.9118800E+02  0.7816531E-02  0.1126479E+00
         25   -1    0    0    0    0  0.00000000000E+00  0.00000000000E+00  0.99999998245E-14  0.12500000000E+03  0.12500000000E+03 0.  0.
    3000001    1    3    3    0    0 -0.38029980087E+02  0.30303958002E+02 -0.85116627623E+01  0.49376691455E+02  0.10000000000E+01 0.  1.
    1000022    2    1    0    0    0 -0.46800659008E+02  0.37073293856E+02 -0.15540887255E+02  0.62499999596E+02  0.99999985967E+01 0.  0.
    3000022    2    3    3    0    0 -0.87706789206E+01  0.67693358539E+01 -0.70292244924E+01  0.13123308141E+02  0.25000595322E+00 0.  0.
    1000022    2    1    0    0    0  0.46800659008E+02 -0.37073293856E+02  0.15540887255E+02  0.62500000404E+02  0.10000003646E+02 0.  0.
    3000022    2    5    5    0    0  0.10826884369E+02 -0.54291678914E+01 -0.23132075990E-01  0.12114468080E+02  0.25002526702E+00 0.  0.
        -13    1    4    4    0    0 -0.26816452616E+01  0.21245968424E+01 -0.21957019891E+01  0.40666036537E+01  0.10500000000E+00 0. -1.
         13    1    4    4    0    0 -0.60890336590E+01  0.46447390115E+01 -0.48335225033E+01  0.90567044876E+01  0.10500000000E+00 0.  1.
    3000001    1    5    5    0    0  0.35973774638E+02 -0.31644125965E+02  0.15564019331E+02  0.50385532324E+02  0.10000000000E+01 0.  1.
        -13    1    6    6    0    0  0.32668196964E+01 -0.15925002836E+01 -0.27900959336E-01  0.36359278796E+01  0.10500000000E+00 0.  1.
         13    1    6    6    0    0  0.75600646729E+01 -0.38366676078E+01  0.47688833456E-02  0.84785402006E+01  0.10500000000E+00 0. -1.
</event>
<event>
11    0  0.3482988E-009  0.9118800E+02  0.7816531E-02  0.1126479E+00
         25   -1    0    0    0    0  0.00000000000E+00  0.00000000000E+00  0.99999998245E-14  0.12500000000E+03  0.12500000000E+03 0.  0.
    3000001    1    3    3    0    0  0.89310981156E+01 -0.39018699764E+01  0.19502090134E+02  0.21824770845E+02  0.10000000000E+01 0.  1.
    1000022    2    1    0    0    0  0.18605127242E+02 -0.64601281963E-01  0.58822570750E+02  0.62499998782E+02  0.10000004254E+02 0.  0.
    3000022    2    3    3    0    0  0.96740291262E+01  0.38372686944E+01  0.39320480616E+02  0.40675227936E+02  0.25000246670E+00 0.  0.
    1000022    2    1    0    0    0 -0.18605127242E+02  0.64601281963E-01 -0.58822570750E+02  0.62500001218E+02  0.10000019481E+02 0.  0.
    3000022    2    5    5    0    0 -0.34630871809E+00  0.26178483841E+01 -0.68939884025E+01  0.73866526601E+01  0.25000307487E+00 0.  0.
        -13    1    4    4    0    0  0.30904032441E+01  0.12257607456E+01  0.12367218808E+02  0.12806725095E+02  0.10500000000E+00 0.  1.
         13    1    4    4    0    0  0.65836258821E+01  0.26115079488E+01  0.26953261808E+02  0.27868502841E+02  0.10500000000E+00 0. -1.
    3000001    1    5    5    0    0 -0.18258818524E+02 -0.25532471021E+01 -0.51928582348E+02  0.55113348558E+02  0.10000000000E+01 0.  1.
        -13    1    6    6    0    0 -0.23008912978E+00  0.17789343976E+01 -0.45304551045E+01  0.48737662082E+01  0.10500000000E+00 0.  1.
         13    1    6    6    0    0 -0.11621958832E+00  0.83891398652E+00 -0.23635332980E+01  0.25128864520E+01  0.10500000000E+00 0. -1.
</event>
<event>
11    0  0.3482988E-009  0.9118800E+02  0.7816531E-02  0.1126479E+00
         25   -1    0    0    0    0  0.00000000000E+00  0.00000000000E+00  0.99999998245E-14  0.12500000000E+03  0.12500000000E+03 0.  0.
    3000001    1    3    3    0    0  0.29080873969E+02 -0.26718889458E+02 -0.59136589438E+00  0.39508809123E+02  0.10000000000E+01 0.  1.
    1000022    2    1    0    0    0  0.43501646580E+02 -0.43317129977E+02  0.61222460151E+01  0.62500010812E+02  0.10000122532E+02 0.  0.
    3000022    2    3    3    0    0  0.14420772610E+02 -0.16598240519E+02  0.67136119095E+01  0.22991201689E+02  0.24999847121E+00 0.  0.
    1000022    2    1    0    0    0 -0.43501646580E+02  0.43317129977E+02 -0.61222460151E+01  0.62499989188E+02  0.99999873836E+01 0.  0.
    3000022    2    5    5    0    0 -0.16404816878E+02  0.23167474076E+02 -0.37376445708E+01  0.28633587890E+02  0.24999336500E+00 0.  0.
        -13    1    4    4    0    0  0.10887642499E+02 -0.12530696662E+02  0.50440923007E+01  0.17349726515E+02  0.10500000000E+00 0.  1.
         13    1    4    4    0    0  0.35331301116E+01 -0.40675438566E+01  0.16695196088E+01  0.56414751737E+01  0.10500000000E+00 0. -1.
    3000001    1    5    5    0    0 -0.27096829702E+02  0.20149655901E+02 -0.23846014443E+01  0.33866401298E+02  0.10000000000E+01 0. -1.
        -13    1    6    6    0    0 -0.10993633870E+02  0.15592475694E+02 -0.24761649176E+01  0.19238703222E+02  0.10500000000E+00 0.  1.
         13    1    6    6    0    0 -0.54111830075E+01  0.75749983813E+01 -0.12614796531E+01  0.93948846684E+01  0.10500000000E+00 0. -1.
</event>
<event>
11    0  0.3482988E-009  0.9118800E+02  0.7816531E-02  0.1126479E+00
         25   -1    0    0    0    0  0.00000000000E+00  0.00000000000E+00  0.99999998245E-14  0.12500000000E+03  0.12500000000E+03 0.  0.
    3000001    1    3    3    0    0 -0.11571295420E+02 -0.13728090376E+02  0.33965837915E+02  0.38432193384E+02  0.10000000000E+01 0.  1.
    1000022    2    1    0    0    0 -0.13058297175E+02 -0.27421705249E+02  0.53700848167E+02  0.62500001356E+02  0.10000001589E+02 0.  0.
    3000022    2    3    3    0    0 -0.14870017546E+01 -0.13693614874E+02  0.19735010252E+02  0.24067807972E+02  0.24997678917E+00 0.  0.
    1000022    2    1    0    0    0  0.13058297175E+02  0.27421705249E+02 -0.53700848167E+02  0.62499998644E+02  0.99999846356E+01 0.  0.
    3000022    2    5    5    0    0  0.76021932031E+01  0.17277904835E+02 -0.23382090342E+02  0.30051688465E+02  0.24998770186E+00 0.  0.
        -13    1    4    4    0    0 -0.39029233750E+00 -0.38779068616E+01  0.56321602994E+01  0.68500178375E+01  0.10500000000E+00 0.  1.
         13    1    4    4    0    0 -0.10967094171E+01 -0.98157080120E+01  0.14102849953E+02  0.17217790135E+02  0.10500000000E+00 0. -1.
    3000001    1    5    5    0    0  0.54561039716E+01  0.10143800414E+02 -0.30318757825E+02  0.32448310178E+02  0.10000000000E+01 0. -1.
        -13    1    6    6    0    0  0.23702871918E+01  0.52994671444E+01 -0.72430741497E+01  0.92830900849E+01  0.10500000000E+00 0. -1.
         13    1    6    6    0    0  0.52319060113E+01  0.11978437691E+02 -0.16139016193E+02  0.20768598381E+02  0.10500000000E+00 0.  1.
</event>
<event>
11    0  0.3482988E-009  0.9118800E+02  0.7816531E-02  0.1126479E+00
         25   -1    0    0    0    0  0.00000000000E+00  0.00000000000E+00  0.99999998245E-14  0.12500000000E+03  0.12500000000E+03 0.  0.
    3000001    1    3    3    0    0  0.49000015651E+02 -0.17026767686E+02  0.12294635604E+01  0.51898207409E+02  0.10000000000E+01 0.  1.
    1000022    2    1    0    0    0  0.59553579590E+02 -0.16083656579E+02  0.96808556754E+00  0.62499999285E+02  0.99999934991E+01 0.  0.
    3000022    2    3    3    0    0  0.10553563939E+02  0.94311110699E+00 -0.26137799286E+00  0.10601791876E+02  0.25000428489E+00 0.  0.
    1000022    2    1    0    0    0 -0.59553579590E+02  0.16083656579E+02 -0.96808556754E+00  0.62500000715E+02  0.10000002437E+02 0.  0.
    3000022    2    5    5    0    0 -0.40775609256E+02  0.15588613217E+02 -0.15173687748E+01  0.43680889423E+02  0.25004098891E+00 0.  0.
        -13    1    4    4    0    0  0.52496476216E+01  0.42540436289E+00 -0.77913740682E-01  0.52684783927E+01  0.10500000000E+00 0.  1.
         13    1    4    4    0    0  0.53039163178E+01  0.51770674410E+00 -0.18346425218E+00  0.53333134832E+01  0.10500000000E+00 0. -1.
    3000001    1    5    5    0    0 -0.18777970334E+02  0.49504336183E+00  0.54928320731E+00  0.18819111292E+02  0.10000000000E+01 0. -1.
        -13    1    6    6    0    0 -0.13231734363E+02  0.50945817395E+01 -0.53225910011E+00  0.14189005677E+02  0.10500000000E+00 0.  1.
         13    1    6    6    0    0 -0.27543874893E+02  0.10494031478E+02 -0.98510967474E+00  0.29491883745E+02  0.10500000000E+00 0. -1.
</event>
<event>
11    0  0.3482988E-009  0.9118800E+02  0.7816531E-02  0.1126479E+00
         25   -1    0    0    0    0  0.00000000000E+00  0.00000000000E+00  0.99999998245E-14  0.12500000000E+03  0.12500000000E+03 0.  0.
    3000001    1    3    3    0    0 -0.18377967289E+02  0.14718332181E+02 -0.10316547153E+02  0.25725670623E+02  0.10000000000E+01 0. -1.
    1000022    2    1    0    0    0 -0.35447123357E+02  0.43022051192E+02 -0.26435858418E+02  0.62499999988E+02  0.99999972546E+01 0.  0.
    3000022    2    3    3    0    0 -0.17069156069E+02  0.28303719011E+02 -0.16119311265E+02  0.36774329365E+02  0.25001161309E+00 0.  0.
    1000022    2    1    0    0    0  0.35447123357E+02 -0.43022051192E+02  0.26435858418E+02  0.62500000012E+02  0.99999974055E+01 0.  0.
    3000022    2    5    5    0    0  0.17228360355E+02 -0.13407991403E+02  0.10955318290E+02  0.24426873200E+02  0.25000308513E+00 0.  0.
        -13    1    4    4    0    0 -0.62784365614E+01  0.10359813304E+02 -0.58490831114E+01  0.13452408543E+02  0.10500000000E+00 0.  1.
         13    1    4    4    0    0 -0.10790719508E+02  0.17943905707E+02 -0.10270228154E+02  0.23321920822E+02  0.10500000000E+00 0. -1.
    3000001    1    5    5    0    0  0.18218763003E+02 -0.29614059789E+02  0.15480540128E+02  0.38073126812E+02  0.10000000000E+01 0. -1.
        -13    1    6    6    0    0  0.49829876535E+01 -0.39075700706E+01  0.31376625830E+01  0.70679007701E+01  0.10500000000E+00 0.  1.
         13    1    6    6    0    0  0.12245372701E+02 -0.95004213320E+01  0.78176557071E+01  0.17358972430E+02  0.10500000000E+00 0. -1.
</event>
<event>
11    0  0.3482988E-009  0.9118800E+02  0.7816531E-02  0.1126479E+00
         25   -1    0    0    0    0  0.00000000000E+00  0.00000000000E+00  0.99999998245E-14  0.12500000000E+03  0.12500000000E+03 0.  0.
    3000001    1    3    3    0    0  0.23769924539E+01  0.97071065821E+01 -0.56453633411E-01  0.10043963278E+02  0.10000000000E+01 0. -1.
    1000022    2    1    0    0    0  0.24899942634E+02  0.53477513446E+02  0.18066500334E+02  0.62499999754E+02  0.99999973644E+01 0.  0.
    3000022    2    3    3    0    0  0.22522950180E+02  0.43770406864E+02  0.18122953968E+02  0.52456036475E+02  0.25000061626E+00 0.  0.
    1000022    2    1    0    0    0 -0.24899942634E+02 -0.53477513446E+02 -0.18066500334E+02  0.62500000246E+02  0.10000000443E+02 0.  0.
    3000022    2    5    5    0    0 -0.17195972831E+02 -0.27419461511E+02 -0.68352597056E+01  0.33080381155E+02  0.24998194615E+00 0.  0.
        -13    1    4    4    0    0  0.15889675741E+02  0.30825281245E+02  0.12807134171E+02  0.36969088029E+02  0.10500000000E+00 0. -1.
         13    1    4    4    0    0  0.66332744388E+01  0.12945125620E+02  0.53158197966E+01  0.15486948447E+02  0.10500000000E+00 0.  1.
    3000001    1    5    5    0    0 -0.77039698028E+01 -0.26058051936E+02 -0.11231240629E+02  0.29419619091E+02  0.10000000000E+01 0.  1.
        -13    1    6    6    0    0 -0.97650028236E+01 -0.15552120102E+02 -0.38118027784E+01  0.18755388165E+02  0.10500000000E+00 0. -1.
         13    1    6    6    0    0 -0.74309700077E+01 -0.11867341409E+02 -0.30234569272E+01  0.14324992990E+02  0.10500000000E+00 0.  1.
</event>
<event>
11    0  0.3482988E-009  0.9118800E+02  0.7816531E-02  0.1126479E+00
         25   -1    0    0    0    0  0.00000000000E+00  0.00000000000E+00  0.99999998245E-14  0.12500000000E+03  0.12500000000E+03 0.  0.
    3000001    1    3    3    0    0 -0.18996081320E+01  0.19041070959E+00 -0.61823809668E+00  0.22420940296E+01  0.10000000000E+01 0. -1.
    1000022    2    1    0    0    0 -0.48166969108E+02 -0.37578839742E+02 -0.86037081453E+01  0.62499999790E+02  0.10000003522E+02 0.  0.
    3000022    2    3    3    0    0 -0.46267360976E+02 -0.37769250451E+02 -0.79854700486E+01  0.60257905760E+02  0.25000665596E+00 0.  0.
    1000022    2    1    0    0    0  0.48166969108E+02  0.37578839742E+02  0.86037081453E+01  0.62500000210E+02  0.10000006153E+02 0.  0.
    3000022    2    5    5    0    0  0.29983766935E+02  0.17187472863E+02  0.51643125828E+01  0.34945216119E+02  0.25000434335E+00 0.  0.
        -13    1    4    4    0    0 -0.11463966909E+02 -0.93901834929E+01 -0.19865391570E+01  0.14951770669E+02  0.10500000000E+00 0.  1.
         13    1    4    4    0    0 -0.34803394067E+02 -0.28379066958E+02 -0.59989308916E+01  0.45306135091E+02  0.10500000000E+00 0. -1.
    3000001    1    5    5    0    0  0.18183202174E+02  0.20391366879E+02  0.34393955625E+01  0.27554784091E+02  0.10000000000E+01 0. -1.
        -13    1    6    6    0    0  0.11129969727E+02  0.63204987769E+01  0.19427067467E+01  0.12946430605E+02  0.10500000000E+00 0. -1.
         13    1    6    6    0    0  0.18853797207E+02  0.10866974086E+02  0.32216058361E+01  0.21998785514E+02  0.10500000000E+00 0.  1.
</event>
<event>
11    0  0.3482988E-009  0.9118800E+02  0.7816531E-02  0.1126479E+00
         25   -1    0    0    0    0  0.00000000000E+00  0.00000000000E+00  0.99999998245E-14  0.12500000000E+03  0.12500000000E+03 0.  0.
    3000001    1    3    3    0    0  0.32183758601E+01 -0.36800236635E+00  0.14551624586E+01  0.36892908125E+01  0.10000000000E+01 0.  1.
    1000022    2    1    0    0    0  0.55070756880E+02  0.26428978245E+02  0.86585672269E+01  0.62499996869E+02  0.99999833882E+01 0.  0.
    3000022    2    3    3    0    0  0.51852381020E+02  0.26796980612E+02  0.72034047683E+01  0.58810706056E+02  0.25003851358E+00 0.  0.
    1000022    2    1    0    0    0 -0.55070756880E+02 -0.26428978245E+02 -0.86585672269E+01  0.62500003131E+02  0.10000022525E+02 0.  0.
    3000022    2    5    5    0    0 -0.15753305392E+02 -0.12093822587E+02 -0.60386819857E+00  0.19870941967E+02  0.25000464287E+00 0.  0.
        -13    1    4    4    0    0  0.17312944698E+02  0.89069134794E+01  0.24430666793E+01  0.19622710354E+02  0.10500000000E+00 0. -1.
         13    1    4    4    0    0  0.34539436322E+02  0.17890067132E+02  0.47603380890E+01  0.39187995703E+02  0.10500000000E+00 0.  1.
    3000001    1    5    5    0    0 -0.39317451488E+02 -0.14335155658E+02 -0.80546990283E+01  0.42629061164E+02  0.10000000000E+01 0. -1.
        -13    1    6    6    0    0 -0.61275940601E+01 -0.46372897970E+01 -0.20221000708E+00  0.76878982507E+01  0.10500000000E+00 0.  1.
         13    1    6    6    0    0 -0.96257113320E+01 -0.74565327901E+01 -0.40165819149E+00  0.12183043717E+02  0.10500000000E+00 0. -1.
</event>
<event>
11    0  0.3482988E-009  0.9118800E+02  0.7816531E-02  0.1126479E+00
         25   -1    0    0    0    0  0.00000000000E+00  0.00000000000E+00  0.99999998245E-14  0.12500000000E+03  0.12500000000E+03 0.  0.
    3000001    1    3    3    0    0  0.20871155199E+02  0.20915530937E+02  0.17190987225E+02  0.34199336185E+02  0.10000000000E+01 0. -1.
    1000022    2    1    0    0    0  0.37637491774E+02  0.31496572354E+02  0.37384958506E+02  0.62499997779E+02  0.99999871423E+01 0.  0.
    3000022    2    3    3    0    0  0.16766336576E+02  0.10581041417E+02  0.20193971281E+02  0.28300661595E+02  0.24998195085E+00 0.  0.
    1000022    2    1    0    0    0 -0.37637491774E+02 -0.31496572354E+02 -0.37384958506E+02  0.62500002221E+02  0.10000014900E+02 0.  0.
    3000022    2    5    5    0    0 -0.25904840660E+02 -0.26899815911E+02 -0.29606693886E+02  0.47657944666E+02  0.25000245547E+00 0.  0.
        -13    1    4    4    0    0  0.90450210385E+01  0.56294206353E+01  0.10839155389E+02  0.15198720236E+02  0.10500000000E+00 0. -1.
         13    1    4    4    0    0  0.77213155371E+01  0.49516207814E+01  0.93548158916E+01  0.13101941358E+02  0.10500000000E+00 0.  1.
    3000001    1    5    5    0    0 -0.11732651115E+02 -0.45967564426E+01 -0.77782646197E+01  0.14842057555E+02  0.10000000000E+01 0. -1.
        -13    1    6    6    0    0 -0.19220087887E+02 -0.19943984836E+02 -0.21995409191E+02  0.35369243136E+02  0.10500000000E+00 0. -1.
         13    1    6    6    0    0 -0.66847527726E+01 -0.69558310754E+01 -0.76112846953E+01  0.12288701530E+02  0.10500000000E+00 0.  1.
</event>
<event>
11    0  0.3482988E-009  0.9118800E+02  0.7816531E-02  0.1126479E+00
         25   -1    0    0    0    0  0.00000000000E+00  0.00000000000E+00  0.99999998245E-14  0.12500000000E+03  0.12500000000E+03 0.  0.
    3000001    1    3    3    0    0  0.24139113909E+02 -0.13819266415E+01 -0.13748654518E+02  0.27832212319E+02  0.10000000000E+01 0.  1.
    1000022    2    1    0    0    0  0.50765468807E+02 -0.13474043328E+02 -0.32366139417E+02  0.62499997116E+02  0.99999995941E+01 0.  0.
    3000022    2    3    3    0    0  0.26626354899E+02 -0.12092116686E+02 -0.18617484899E+02  0.34667784797E+02  0.24999515659E+00 0.  0.
    1000022    2    1    0    0    0 -0.50765468807E+02  0.13474043328E+02  0.32366139417E+02  0.62500002884E+02  0.10000035646E+02 0.  0.
    3000022    2    5    5    0    0 -0.47323852440E+02  0.12500119316E+02  0.26787400383E+02  0.55798094170E+02  0.25000208328E+00 0.  0.
        -13    1    4    4    0    0  0.18308800508E+02 -0.83085639190E+01 -0.12742148939E+02  0.23803734896E+02  0.10500000000E+00 0. -1.
         13    1    4    4    0    0  0.83175543911E+01 -0.37835527672E+01 -0.58753359606E+01  0.10864049900E+02  0.10500000000E+00 0.  1.
    3000001    1    5    5    0    0 -0.34416163673E+01  0.97392401129E+00  0.55787390343E+01  0.67019087141E+01  0.10000000000E+01 0.  1.
        -13    1    6    6    0    0 -0.20350399237E+02  0.53167419997E+01  0.11473617942E+02  0.23959579050E+02  0.10500000000E+00 0.  1.
         13    1    6    6    0    0 -0.26973453203E+02  0.71833773167E+01  0.15313782441E+02  0.31838515120E+02  0.10500000000E+00 0. -1.
</event>
<event>
11    0  0.3482988E-009  0.9118800E+02  0.7816531E-02  0.1126479E+00
         25   -1    0    0    0    0  0.00000000000E+00  0.00000000000E+00  0.99999998245E-14  0.12500000000E+03  0.12500000000E+03 0.  0.
    3000001    1    3    3    0    0 -0.42827564518E+02  0.27805759579E+01  0.44650832118E+01  0.43160964462E+02  0.10000000000E+01 0. -1.
    1000022    2    1    0    0    0 -0.61542088432E+02  0.43358307319E+01 -0.14832279147E+00  0.62499998570E+02  0.99999872454E+01 0.  0.
    3000022    2    3    3    0    0 -0.18714523914E+02  0.15552547740E+01 -0.46134060032E+01  0.19339034108E+02  0.25000509104E+00 0.  0.
    1000022    2    1    0    0    0  0.61542088432E+02 -0.43358307319E+01  0.14832279147E+00  0.62500001430E+02  0.10000005119E+02 0.  0.
    3000022    2    5    5    0    0  0.25790300312E+02 -0.60496515325E+01 -0.24161988343E+01  0.26601473511E+02  0.25000469918E+00 0.  0.
        -13    1    4    4    0    0 -0.88390825113E+01  0.80032578559E+00 -0.21968913898E+01  0.91437004426E+01  0.10500000000E+00 0.  1.
         13    1    4    4    0    0 -0.98754414027E+01  0.75492898842E+00 -0.24165146135E+01  0.10195333666E+02  0.10500000000E+00 0. -1.
    3000001    1    5    5    0    0  0.35751788120E+02  0.17138208006E+01  0.25645216257E+01  0.35898527918E+02  0.10000000000E+01 0. -1.
        -13    1    6    6    0    0  0.87025349292E+01 -0.19995045235E+01 -0.77853159059E+00  0.89637753749E+01  0.10500000000E+00 0. -1.
         13    1    6    6    0    0  0.17087765382E+02 -0.40501470090E+01 -0.16376672437E+01  0.17637698137E+02  0.10500000000E+00 0.  1.
</event>
<event>
11    0  0.3482988E-009  0.9118800E+02  0.7816531E-02  0.1126479E+00
         25   -1    0    0    0    0  0.00000000000E+00  0.00000000000E+00  0.99999998245E-14  0.12500000000E+03  0.12500000000E+03 0.  0.
    3000001    1    3    3    0    0 -0.32722241123E+02 -0.42512583332E+01  0.37563419459E+02  0.50008286743E+02  0.10000000000E+01 0. -1.
    1000022    2    1    0    0    0 -0.43231406243E+02 -0.77656111485E+01  0.43324252250E+02  0.62500000909E+02  0.10000003917E+02 0.  0.
    3000022    2    3    3    0    0 -0.10509165119E+02 -0.35143528153E+01  0.57608327909E+01  0.12491714165E+02  0.25000225757E+00 0.  0.
    1000022    2    1    0    0    0  0.43231406243E+02  0.77656111485E+01 -0.43324252250E+02  0.62499999091E+02  0.99999925574E+01 0.  0.
    3000022    2    5    5    0    0  0.21566446250E+02  0.88734959384E+01 -0.23060052754E+02  0.32797546644E+02  0.24999758760E+00 0.  0.
        -13    1    4    4    0    0 -0.69363865647E+01 -0.23305365925E+01  0.37431230221E+01  0.82199059814E+01  0.10500000000E+00 0.  1.
         13    1    4    4    0    0 -0.35727785548E+01 -0.11838162227E+01  0.20177097688E+01  0.42718081841E+01  0.10500000000E+00 0. -1.
    3000001    1    5    5    0    0  0.21664959993E+02 -0.11078847899E+01 -0.20264199496E+02  0.29702452447E+02  0.10000000000E+01 0. -1.
        -13    1    6    6    0    0  0.80236179583E+01  0.32416976926E+01 -0.85250939751E+01  0.12148057514E+02  0.10500000000E+00 0. -1.
         13    1    6    6    0    0  0.13542828292E+02  0.56317982458E+01 -0.14534958779E+02  0.20649489130E+02  0.10500000000E+00 0.  1.
</event>
<event>
11    0  0.3482988E-009  0.9118800E+02  0.7816531E-02  0.1126479E+00
         25   -1    0    0    0    0  0.00000000000E+00  0.00000000000E+00  0.99999998245E-14  0.12500000000E+03  0.12500000000E+03 0.  0.
    3000001    1    3    3    0    0 -0.26201240020E+02 -0.11172340257E+02 -0.15033677704E+02  0.32223246744E+02  0.10000000000E+01 0. -1.
    1000022    2    1    0    0    0 -0.44401734088E+02 -0.28021590264E+02 -0.32396411781E+02  0.62500007548E+02  0.99999968170E+01 0.  0.
    3000022    2    3    3    0    0 -0.18200494068E+02 -0.16849250006E+02 -0.17362734077E+02  0.30276760804E+02  0.25000017879E+00 0.  0.
    1000022    2    1    0    0    0  0.44401734088E+02  0.28021590264E+02  0.32396411781E+02  0.62499992452E+02  0.99999024642E+01 0.  0.
    3000022    2    5    5    0    0  0.25977050673E+01  0.17002266639E+01 -0.47997714619E+00  0.31514627903E+01  0.24999466517E+00 0.  0.
        -13    1    4    4    0    0 -0.12819635103E+02 -0.11875151233E+02 -0.12286645899E+02  0.21361997880E+02  0.10500000000E+00 0. -1.
         13    1    4    4    0    0 -0.53808589647E+01 -0.49740987740E+01 -0.50760881783E+01  0.89147629248E+01  0.10500000000E+00 0.  1.
    3000001    1    5    5    0    0  0.41804029020E+02  0.26321363600E+02  0.32876388927E+02  0.59348529662E+02  0.10000000000E+01 0. -1.
        -13    1    6    6    0    0  0.91772016756E+00  0.67009762178E+00 -0.18601901107E+00  0.11562306003E+01  0.10500000000E+00 0.  1.
         13    1    6    6    0    0  0.16799848997E+01  0.10301290421E+01 -0.29395813512E+00  0.19952321900E+01  0.10500000000E+00 0. -1.
</event>
<event>
11    0  0.3482988E-009  0.9118800E+02  0.7816531E-02  0.1126479E+00
         25   -1    0    0    0    0  0.00000000000E+00  0.00000000000E+00  0.99999998245E-14  0.12500000000E+03  0.12500000000E+03 0.  0.
    3000001    1    3    3    0    0 -0.84805049663E+01  0.22350474711E+02  0.19756419649E+02  0.31028677085E+02  0.10000000000E+01 0. -1.
    1000022    2    1    0    0    0 -0.22850893868E+02  0.47499968392E+02  0.32059938562E+02  0.62500000326E+02  0.10000001617E+02 0.  0.
    3000022    2    3    3    0    0 -0.14370388902E+02  0.25149493681E+02  0.12303518913E+02  0.31471323241E+02  0.24999862053E+00 0.  0.
    1000022    2    1    0    0    0  0.22850893868E+02 -0.47499968392E+02 -0.32059938562E+02  0.62499999674E+02  0.99999975398E+01 0.  0.
    3000022    2    5    5    0    0 -0.80538025591E+00 -0.42210901696E+01 -0.21922042614E+01  0.48305783322E+01  0.24997584354E+00 0.  0.
        -13    1    4    4    0    0 -0.83737460390E+01  0.14700867919E+02  0.72517823834E+01  0.18407458082E+02  0.10500000000E+00 0.  1.
         13    1    4    4    0    0 -0.59966428626E+01  0.10448625762E+02  0.50517365299E+01  0.13063865160E+02  0.10500000000E+00 0. -1.
    3000001    1    5    5    0    0  0.23656274124E+02 -0.43278878222E+02 -0.29867734301E+02  0.57669421342E+02  0.10000000000E+01 0.  1.
        -13    1    6    6    0    0 -0.18682294606E+00 -0.11568441490E+01 -0.61758472726E+00  0.13287690144E+01  0.10500000000E+00 0. -1.
         13    1    6    6    0    0 -0.61855730985E+00 -0.30642460206E+01 -0.15746195342E+01  0.35018093178E+01  0.10500000000E+00 0.  1.
</event>
<event>
11    0  0.3482988E-009  0.9118800E+02  0.7816531E-02  0.1126479E+00
         25   -1    0    0    0    0  0.00000000000E+00  0.00000000000E+00  0.99999998245E-14  0.12500000000E+03  0.12500000000E+03 0.  0.
    3000001    1    3    3    0    0 -0.35367781296E+02  0.10850499731E+02 -0.33419185682E+02  0.49864368740E+02  0.10000000000E+01 0. -1.
    1000022    2    1    0    0    0 -0.45546943607E+02  0.89176373108E+01 -0.40647282800E+02  0.62500000375E+02  0.10000006033E+02 0.  0.
    3000022    2    3    3    0    0 -0.10179162311E+02 -0.19328624199E+01 -0.72280971184E+01  0.12635631635E+02  0.24999273186E+00 0.  0.
    1000022    2    1    0    0    0  0.45546943607E+02 -0.89176373108E+01  0.40647282800E+02  0.62499999625E+02  0.10000001345E+02 0.  0.
    3000022    2    5    5    0    0  0.19510699607E+02 -0.18546207444E+01  0.11298133310E+02  0.22623380154E+02  0.24999204461E+00 0.  0.
        -13    1    4    4    0    0 -0.45906997676E+01 -0.82232926619E+00 -0.31978364813E+01  0.56557875614E+01  0.10500000000E+00 0. -1.
         13    1    4    4    0    0 -0.55884625435E+01 -0.11105331537E+01 -0.40302606372E+01  0.69798440734E+01  0.10500000000E+00 0.  1.
    3000001    1    5    5    0    0  0.26036244000E+02 -0.70630165664E+01  0.29349149490E+02  0.39876619471E+02  0.10000000000E+01 0. -1.
        -13    1    6    6    0    0  0.99830464528E+01 -0.89136396014E+00  0.57360775859E+01  0.11548565160E+02  0.10500000000E+00 0.  1.
         13    1    6    6    0    0  0.95276531544E+01 -0.96325678422E+00  0.55620557244E+01  0.11074814994E+02  0.10500000000E+00 0. -1.
</event>
<event>
11    0  0.3482988E-009  0.9118800E+02  0.7816531E-02  0.1126479E+00
         25   -1    0    0    0    0  0.00000000000E+00  0.00000000000E+00  0.99999998245E-14  0.12500000000E+03  0.12500000000E+03 0.  0.
    3000001    1    3    3    0    0 -0.42555406163E+01  0.19168900464E+02 -0.48627606519E+01  0.20253464199E+02  0.10000000000E+01 0.  1.
    1000022    2    1    0    0    0 -0.17104319933E+02  0.52743698537E+02 -0.27051700179E+02  0.62499999360E+02  0.99999970840E+01 0.  0.
    3000022    2    3    3    0    0 -0.12848779317E+02  0.33574798073E+02 -0.22188939527E+02  0.42246535160E+02  0.25000024889E+00 0.  0.
    1000022    2    1    0    0    0  0.17104319933E+02 -0.52743698537E+02  0.27051700179E+02  0.62500000640E+02  0.10000005087E+02 0.  0.
    3000022    2    5    5    0    0  0.18045840585E+01 -0.11871075054E+02  0.20203152007E+01  0.12178797334E+02  0.24996888811E+00 0.  0.
        -13    1    4    4    0    0 -0.89175765184E+01  0.23285094292E+02 -0.15445283636E+02  0.29330642659E+02  0.10500000000E+00 0. -1.
         13    1    4    4    0    0 -0.39312027985E+01  0.10289703781E+02 -0.67436558908E+01  0.12915892502E+02  0.10500000000E+00 0.  1.
    3000001    1    5    5    0    0  0.15299735875E+02 -0.40872623483E+02  0.25031384978E+02  0.50321203306E+02  0.10000000000E+01 0. -1.
        -13    1    6    6    0    0  0.55034895877E+00 -0.39766309143E+01  0.67939890389E+00  0.40729700804E+01  0.10500000000E+00 0. -1.
         13    1    6    6    0    0  0.12542350998E+01 -0.78944441392E+01  0.13409162968E+01  0.81058272538E+01  0.10500000000E+00 0.  1.
</event>
<event>
11    0  0.3482988E-009  0.9118800E+02  0.7816531E-02  0.1126479E+00
         25   -1    0    0    0    0  0.00000000000E+00  0.00000000000E+00  0.99999998245E-14  0.12500000000E+03  0.12500000000E+03 0.  0.
    3000001    1    3    3    0    0  0.15939127953E+02  0.94194892008E+00  0.13351847224E+02  0.20837823590E+02  0.10000000000E+01 0. -1.
    1000022    2    1    0    0    0  0.40516940839E+02  0.13848355690E+02  0.44416781519E+02  0.62499999034E+02  0.99999974258E+01 0.  0.
    3000022    2    3    3    0    0  0.24577812885E+02  0.12906406770E+02  0.31064934295E+02  0.41662175444E+02  0.24999607725E+00 0.  0.
    1000022    2    1    0    0    0 -0.40516940839E+02 -0.13848355690E+02 -0.44416781519E+02  0.62500000966E+02  0.10000009503E+02 0.  0.
    3000022    2    5    5    0    0 -0.63895523302E+01 -0.40721405885E+01 -0.35893031812E+01  0.83877471274E+01  0.24999318642E+00 0.  0.
        -13    1    4    4    0    0  0.17054334029E+02  0.89743277964E+01  0.21498331408E+02  0.28871753444E+02  0.10500000000E+00 0. -1.
         13    1    4    4    0    0  0.75234788561E+01  0.39320789733E+01  0.95666028864E+01  0.12790422000E+02  0.10500000000E+00 0.  1.
    3000001    1    5    5    0    0 -0.34127388508E+02 -0.97762151012E+01 -0.40827478338E+02  0.54112253839E+02  0.10000000000E+01 0. -1.
        -13    1    6    6    0    0 -0.29092707210E+01 -0.18152430591E+01 -0.15601947902E+01  0.37688454830E+01  0.10500000000E+00 0. -1.
         13    1    6    6    0    0 -0.34802816092E+01 -0.22568975294E+01 -0.20291083910E+01  0.46189016444E+01  0.10500000000E+00 0.  1.
</event>
<event>
11    0  0.3482988E-009  0.9118800E+02  0.7816531E-02  0.1126479E+00
         25   -1    0    0    0    0  0.00000000000E+00  0.00000000000E+00  0.99999998245E-14  0.12500000000E+03  0.12500000000E+03 0.  0.
    3000001    1    3    3    0    0  0.19605880344E+02 -0.38090676569E+02  0.13427296441E+02  0.44906374551E+02  0.10000000000E+01 0.  1.
    1000022    2    1    0    0    0  0.29381755227E+02 -0.52704845105E+02  0.12851525601E+02  0.62500000176E+02  0.10000003701E+02 0.  0.
    3000022    2    3    3    0    0  0.97758748831E+01 -0.14614168536E+02 -0.57577083988E+00  0.17593625626E+02  0.24999775804E+00 0.  0.
    1000022    2    1    0    0    0 -0.29381755227E+02  0.52704845105E+02 -0.12851525601E+02  0.62499999824E+02  0.10000001497E+02 0.  0.
    3000022    2    5    5    0    0 -0.19988600839E+02  0.43893269154E+02 -0.10708257893E+02  0.49405389613E+02  0.24999038152E+00 0.  0.
        -13    1    4    4    0    0  0.24801809189E+01 -0.37609493623E+01 -0.14455399953E+00  0.45086537186E+01  0.10500000000E+00 0.  1.
         13    1    4    4    0    0  0.72956939642E+01 -0.10853219173E+02 -0.43121684035E+00  0.13084971907E+02  0.10500000000E+00 0. -1.
    3000001    1    5    5    0    0 -0.93931543887E+01  0.88115759507E+01 -0.21432677089E+01  0.13094610211E+02  0.10000000000E+01 0. -1.
        -13    1    6    6    0    0 -0.61341553030E+01  0.13357855244E+02 -0.32710420126E+01  0.15058914265E+02  0.10500000000E+00 0. -1.
         13    1    6    6    0    0 -0.13854445536E+02  0.30535413910E+02 -0.74372158800E+01  0.34346475348E+02  0.10500000000E+00 0.  1.
</event>
<event>
11    0  0.3482988E-009  0.9118800E+02  0.7816531E-02  0.1126479E+00
         25   -1    0    0    0    0  0.00000000000E+00  0.00000000000E+00  0.99999998245E-14  0.12500000000E+03  0.12500000000E+03 0.  0.
    3000001    1    3    3    0    0  0.22169320561E+01 -0.17187314122E+00 -0.12601708065E+02  0.12835395369E+02  0.10000000000E+01 0. -1.
    1000022    2    1    0    0    0  0.27592517524E+02 -0.72604227230E+01 -0.54700913604E+02  0.62500005359E+02  0.99999979679E+01 0.  0.
    3000022    2    3    3    0    0  0.25375585468E+02 -0.70885495818E+01 -0.42099205539E+02  0.49664609991E+02  0.25001093565E+00 0.  0.
    1000022    2    1    0    0    0 -0.27592517524E+02  0.72604227230E+01  0.54700913604E+02  0.62499994641E+02  0.99999309744E+01 0.  0.
    3000022    2    5    5    0    0 -0.19051979005E+02  0.93925977715E+01  0.35851442112E+02  0.41672379698E+02  0.25006264413E+00 0.  0.
        -13    1    4    4    0    0  0.14159359115E+02 -0.39217294549E+01 -0.23585342968E+02  0.27787530304E+02  0.10500000000E+00 0.  1.
         13    1    4    4    0    0  0.11216226353E+02 -0.31668201269E+01 -0.18513862571E+02  0.21877079687E+02  0.10500000000E+00 0. -1.
    3000001    1    5    5    0    0 -0.85405385189E+01 -0.21321750485E+01  0.18849471492E+02  0.20827614942E+02  0.10000000000E+01 0.  1.
        -13    1    6    6    0    0 -0.76104329814E+01  0.38130827061E+01  0.14305695571E+02  0.16646988937E+02  0.10500000000E+00 0.  1.
         13    1    6    6    0    0 -0.11441546024E+02  0.55795150654E+01  0.21545746540E+02  0.25025390761E+02  0.10500000000E+00 0. -1.
</event>
<event>
11    0  0.3482988E-009  0.9118800E+02  0.7816531E-02  0.1126479E+00
         25   -1    0    0    0    0  0.00000000000E+00  0.00000000000E+00  0.99999998245E-14  0.12500000000E+03  0.12500000000E+03 0.  0.
    3000001    1    3    3    0    0 -0.46152108017E+01  0.57578474192E+02  0.21530708235E+02  0.61653485369E+02  0.10000000000E+01 0. -1.
    1000022    2    1    0    0    0 -0.39016481223E+01  0.57798972509E+02  0.21220418283E+02  0.62500001387E+02  0.99999970024E+01 0.  0.
    3000022    2    3    3    0    0  0.71356267935E+00  0.22049831735E+00 -0.31028995153E+00  0.84651601823E+00  0.25003661690E+00 0.  0.
    1000022    2    1    0    0    0  0.39016481223E+01 -0.57798972509E+02 -0.21220418283E+02  0.62499998613E+02  0.99999796628E+01 0.  0.
    3000022    2    5    5    0    0  0.59126008773E+01 -0.42695919741E+02 -0.18859723570E+02  0.47049464207E+02  0.24999463359E+00 0.  0.
        -13    1    4    4    0    0  0.19159424776E+00  0.60086323810E-01 -0.47655572282E-01  0.23154864641E+00  0.10500000000E+00 0. -1.
         13    1    4    4    0    0  0.52196843158E+00  0.16041199354E+00 -0.26263437925E+00  0.61496737182E+00  0.10500000000E+00 0.  1.
    3000001    1    5    5    0    0 -0.20109527550E+01 -0.15103052768E+02 -0.23606947133E+01  0.15450534406E+02  0.10000000000E+01 0.  1.
        -13    1    6    6    0    0  0.23385582190E+01 -0.16720986867E+02 -0.74506240853E+01  0.18454893135E+02  0.10500000000E+00 0. -1.
         13    1    6    6    0    0  0.35740426583E+01 -0.25974932874E+02 -0.11409099485E+02  0.28594571072E+02  0.10500000000E+00 0.  1.
</event>
<event>
11    0  0.3482988E-009  0.9118800E+02  0.7816531E-02  0.1126479E+00
         25   -1    0    0    0    0  0.00000000000E+00  0.00000000000E+00  0.99999998245E-14  0.12500000000E+03  0.12500000000E+03 0.  0.
    3000001    1    3    3    0    0 -0.51327203337E+01 -0.28864925093E+02 -0.20322949046E+02  0.35686845988E+02  0.10000000000E+01 0.  1.
    1000022    2    1    0    0    0 -0.16800780160E+02 -0.49947038683E+02 -0.32082352271E+02  0.62499999423E+02  0.99999856765E+01 0.  0.
    3000022    2    3    3    0    0 -0.11668059826E+02 -0.21082113590E+02 -0.11759403225E+02  0.26813153435E+02  0.24999884126E+00 0.  0.
    1000022    2    1    0    0    0  0.16800780160E+02  0.49947038683E+02  0.32082352271E+02  0.62500000577E+02  0.99999928842E+01 0.  0.
    3000022    2    5    5    0    0  0.84915686542E+01  0.38623852868E+02  0.24185669609E+02  0.46356421980E+02  0.24999154394E+00 0.  0.
        -13    1    4    4    0    0 -0.48512199117E+01 -0.87850761462E+01 -0.49687577998E+01  0.11198726562E+02  0.10500000000E+00 0. -1.
         13    1    4    4    0    0 -0.68168399144E+01 -0.12297037444E+02 -0.67906454250E+01  0.15614426874E+02  0.10500000000E+00 0.  1.
    3000001    1    5    5    0    0  0.83092115056E+01  0.11323185814E+02  0.78966826622E+01  0.16143578596E+02  0.10000000000E+01 0.  1.
        -13    1    6    6    0    0  0.51283140998E+01  0.23400556205E+02  0.14580058759E+02  0.28044157585E+02  0.10500000000E+00 0. -1.
         13    1    6    6    0    0  0.33632545544E+01  0.15223296663E+02  0.96056108501E+01  0.18312264396E+02  0.10500000000E+00 0.  1.
</event>
<event>
11    0  0.3482988E-009  0.9118800E+02  0.7816531E-02  0.1126479E+00
         25   -1    0    0    0    0  0.00000000000E+00  0.00000000000E+00  0.99999998245E-14  0.12500000000E+03  0.12500000000E+03 0.  0.
    3000001    1    3    3    0    0 -0.27713785560E+02  0.95952904034E+01 -0.13442046410E+02  0.32277114488E+02  0.10000000000E+01 0. -1.
    1000022    2    1    0    0    0 -0.57017038796E+02  0.15770223567E+02 -0.17510210550E+02  0.62500001671E+02  0.10000003548E+02 0.  0.
    3000022    2    3    3    0    0 -0.29303253236E+02  0.61749331636E+01 -0.40681641405E+01  0.30222887183E+02  0.25000084250E+00 0.  0.
    1000022    2    1    0    0    0  0.57017038796E+02 -0.15770223567E+02  0.17510210550E+02  0.62499998329E+02  0.99999826590E+01 0.  0.
    3000022    2    5    5    0    0  0.20198022608E+02 -0.10110428920E+02  0.45238047261E+01  0.23037104812E+02  0.24999739229E+00 0.  0.
        -13    1    4    4    0    0 -0.12031590574E+02  0.25631901587E+01 -0.17296544215E+01  0.12423036865E+02  0.10500000000E+00 0. -1.
         13    1    4    4    0    0 -0.17271662662E+02  0.36117430049E+01 -0.23385097190E+01  0.17799850318E+02  0.10500000000E+00 0.  1.
    3000001    1    5    5    0    0  0.36819016188E+02 -0.56597946468E+01  0.12986405824E+02  0.39462893517E+02  0.10000000000E+01 0. -1.
        -13    1    6    6    0    0  0.86759776256E+01 -0.44134608044E+01  0.19313126854E+01  0.99243245473E+01  0.10500000000E+00 0. -1.
         13    1    6    6    0    0  0.11522044983E+02 -0.56969681158E+01  0.25924920406E+01  0.13112780265E+02  0.10500000000E+00 0.  1.
</event>
<event>
11    0  0.3482988E-009  0.9118800E+02  0.7816531E-02  0.1126479E+00
         25   -1    0    0    0    0  0.00000000000E+00  0.00000000000E+00  0.99999998245E-14  0.12500000000E+03  0.12500000000E+03 0.  0.
    3000001    1    3    3    0    0  0.10199172956E+01 -0.19864927628E+00  0.12995433199E+02  0.13075204659E+02  0.10000000000E+01 0.  1.
    1000022    2    1    0    0    0  0.16092762382E+02  0.13761120994E+02  0.57947430289E+02  0.62499999366E+02  0.99999895734E+01 0.  0.
    3000022    2    3    3    0    0  0.15072845086E+02  0.13959770271E+02  0.44951997090E+02  0.49424794707E+02  0.24988888409E+00 0.  0.
    1000022    2    1    0    0    0 -0.16092762382E+02 -0.13761120994E+02 -0.57947430289E+02  0.62500000634E+02  0.99999975007E+01 0.  0.
    3000022    2    5    5    0    0 -0.43336102278E+01 -0.64640452982E+01 -0.10542419300E+02  0.13106073477E+02  0.24999612744E+00 0.  0.
        -13    1    4    4    0    0  0.40595762917E+01  0.37493092084E+01  0.12009738702E+02  0.13220526763E+02  0.10500000000E+00 0.  1.
         13    1    4    4    0    0  0.11013268795E+02  0.10210461062E+02  0.32942258388E+02  0.36204267944E+02  0.10500000000E+00 0. -1.
    3000001    1    5    5    0    0 -0.11759152154E+02 -0.72970756962E+01 -0.47405010989E+02  0.49393927157E+02  0.10000000000E+01 0. -1.
        -13    1    6    6    0    0 -0.29389154358E+01 -0.43464913650E+01 -0.70254673983E+01  0.87691178740E+01  0.10500000000E+00 0. -1.
         13    1    6    6    0    0 -0.13946947920E+01 -0.21175539332E+01 -0.35169519020E+01  0.43369556031E+01  0.10500000000E+00 0.  1.
</event>
<event>
11    0  0.3482988E-009  0.9118800E+02  0.7816531E-02  0.1126479E+00
         25   -1    0    0    0    0  0.00000000000E+00  0.00000000000E+00  0.99999998245E-14  0.12500000000E+03  0.12500000000E+03 0.  0.
    3000001    1    3    3    0    0 -0.29234276480E+02 -0.27810980597E+02 -0.92174347058E+00  0.40372554713E+02  0.10000000000E+01 0. -1.
    1000022    2    1    0    0    0 -0.40121247692E+02 -0.46814325157E+02  0.22259503569E+01  0.62499997444E+02  0.99999634601E+01 0.  0.
    3000022    2    3    3    0    0 -0.10886971212E+02 -0.19003344561E+02  0.31476938275E+01  0.22127442730E+02  0.24999739872E+00 0.  0.
    1000022    2    1    0    0    0  0.40121247692E+02  0.46814325157E+02 -0.22259503569E+01  0.62500002556E+02  0.99999954122E+01 0.  0.
    3000022    2    5    5    0    0  0.11714391561E+02  0.77498471127E+01 -0.19881431125E+01  0.14188104721E+02  0.25000525742E+00 0.  0.
        -13    1    4    4    0    0 -0.66321427665E+01 -0.11487724233E+02  0.19510738106E+01  0.13407864846E+02  0.10500000000E+00 0. -1.
         13    1    4    4    0    0 -0.42548284453E+01 -0.75156203280E+01  0.11966200169E+01  0.87195778841E+01  0.10500000000E+00 0.  1.
    3000001    1    5    5    0    0  0.28406856131E+02  0.39064478044E+02 -0.23780724447E+00  0.48311897835E+02  0.10000000000E+01 0. -1.
        -13    1    6    6    0    0  0.60412352197E+01  0.40719445236E+01 -0.10056538394E+01  0.73552443758E+01  0.10500000000E+00 0.  1.
         13    1    6    6    0    0  0.56731563413E+01  0.36779025892E+01 -0.98248927305E+00  0.68328603454E+01  0.10500000000E+00 0. -1.
</event>
<event>
11    0  0.3482988E-009  0.9118800E+02  0.7816531E-02  0.1126479E+00
         25   -1    0    0    0    0  0.00000000000E+00  0.00000000000E+00  0.99999998245E-14  0.12500000000E+03  0.12500000000E+03 0.  0.
    3000001    1    3    3    0    0  0.23246810127E+01  0.76705894423E+01 -0.58975762965E+01  0.10001174450E+02  0.10000000000E+01 0. -1.
    1000022    2    1    0    0    0  0.24131987777E+02  0.53921781525E+02 -0.17785914300E+02  0.62499998018E+02  0.99999823907E+01 0.  0.
    3000022    2    3    3    0    0  0.21807306764E+02  0.46251192083E+02 -0.11888338004E+02  0.52498823568E+02  0.24999626335E+00 0.  0.
    1000022    2    1    0    0    0 -0.24131987777E+02 -0.53921781525E+02  0.17785914300E+02  0.62500001982E+02  0.10000007171E+02 0.  0.
    3000022    2    5    5    0    0 -0.12403195793E+02 -0.17284458271E+02  0.41715289102E+01  0.21680772370E+02  0.24994699666E+00 0.  0.
        -13    1    4    4    0    0  0.14109262843E+02  0.29978972470E+02 -0.76499149425E+01  0.34005033627E+02  0.10500000000E+00 0.  1.
         13    1    4    4    0    0  0.76980439206E+01  0.16272219613E+02 -0.42384230610E+01  0.18493789941E+02  0.10500000000E+00 0. -1.
    3000001    1    5    5    0    0 -0.11728791983E+02 -0.36637323254E+02  0.13614385390E+02  0.40819229612E+02  0.10000000000E+01 0.  1.
        -13    1    6    6    0    0 -0.95463433753E+01 -0.13310322325E+02  0.32167563671E+01  0.16692989509E+02  0.10500000000E+00 0. -1.
         13    1    6    6    0    0 -0.28568524180E+01 -0.39741359461E+01  0.95477254312E+00  0.49877828607E+01  0.10500000000E+00 0.  1.
</event>
<event>
11    0  0.3482988E-009  0.9118800E+02  0.7816531E-02  0.1126479E+00
         25   -1    0    0    0    0  0.00000000000E+00  0.00000000000E+00  0.99999998245E-14  0.12500000000E+03  0.12500000000E+03 0.  0.
    3000001    1    3    3    0    0  0.10379177106E+02 -0.44735113429E+02 -0.23171388356E+02  0.51447749506E+02  0.10000000000E+01 0.  1.
    1000022    2    1    0    0    0  0.13574779757E+02 -0.55296231230E+02 -0.23755044460E+02  0.62499999966E+02  0.10000001241E+02 0.  0.
    3000022    2    3    3    0    0  0.31956026506E+01 -0.10561117801E+02 -0.58365610370E+00  0.11052250460E+02  0.25000056030E+00 0.  0.
    1000022    2    1    0    0    0 -0.13574779757E+02  0.55296231230E+02  0.23755044460E+02  0.62500000034E+02  0.10000001662E+02 0.  0.
    3000022    2    5    5    0    0 -0.62381711846E+01  0.25258755994E+02  0.55496442905E+01  0.26604145967E+02  0.24999351185E+00 0.  0.
        -13    1    4    4    0    0  0.10148401655E+01 -0.34002984843E+01 -0.13837521308E+00  0.35527599192E+01  0.10500000000E+00 0. -1.
         13    1    4    4    0    0  0.21807624851E+01 -0.71608193169E+01 -0.44528089062E+00  0.74994905412E+01  0.10500000000E+00 0.  1.
    3000001    1    5    5    0    0 -0.73366085723E+01  0.30037475235E+02  0.18205400169E+02  0.35895854067E+02  0.10000000000E+01 0. -1.
        -13    1    6    6    0    0 -0.35206744966E+01  0.14288128028E+02  0.30720161942E+01  0.15033098814E+02  0.10500000000E+00 0.  1.
         13    1    6    6    0    0 -0.27174966880E+01  0.10970627967E+02  0.24776280963E+01  0.11571047153E+02  0.10500000000E+00 0. -1.
</event>
<event>
11    0  0.3482988E-009  0.9118800E+02  0.7816531E-02  0.1126479E+00
         25   -1    0    0    0    0  0.00000000000E+00  0.00000000000E+00  0.99999998245E-14  0.12500000000E+03  0.12500000000E+03 0.  0.
    3000001    1    3    3    0    0  0.18383710361E+02 -0.25929392834E+02 -0.50869239392E+02  0.59991447188E+02  0.10000000000E+01 0. -1.
    1000022    2    1    0    0    0  0.20110058342E+02 -0.25292665669E+02 -0.52555843667E+02  0.62499999871E+02  0.99999948551E+01 0.  0.
    3000022    2    3    3    0    0  0.17263479812E+01  0.63672716499E+00 -0.16866042745E+01  0.25085526823E+01  0.25000749210E+00 0.  0.
    1000022    2    1    0    0    0 -0.20110058342E+02  0.25292665669E+02  0.52555843667E+02  0.62500000129E+02  0.99999964726E+01 0.  0.
    3000022    2    5    5    0    0 -0.41216299835E+01  0.38584357185E+01  0.35778509872E+01  0.66887125444E+01  0.24999580038E+00 0.  0.
        -13    1    4    4    0    0  0.66009689238E+00  0.18948611634E+00 -0.67513001200E+00  0.96874064058E+00  0.10500000000E+00 0.  1.
         13    1    4    4    0    0  0.10662510888E+01  0.44724104865E+00 -0.10114742625E+01  0.15398120417E+01  0.10500000000E+00 0. -1.
    3000001    1    5    5    0    0 -0.15988428359E+02  0.21434229951E+02  0.48977992680E+02  0.55811287585E+02  0.10000000000E+01 0. -1.
        -13    1    6    6    0    0 -0.10605663158E+01  0.10305005413E+01  0.95934927528E+00  0.17658166122E+01  0.10500000000E+00 0.  1.
         13    1    6    6    0    0 -0.30610636678E+01  0.28279351771E+01  0.26185017119E+01  0.49228959322E+01  0.10500000000E+00 0. -1.
</event>
<event>
11    0  0.3482988E-009  0.9118800E+02  0.7816531E-02  0.1126479E+00
         25   -1    0    0    0    0  0.00000000000E+00  0.00000000000E+00  0.99999998245E-14  0.12500000000E+03  0.12500000000E+03 0.  0.
    3000001    1    3    3    0    0  0.58698306984E+01 -0.11060580036E+02 -0.27611932902E+01  0.12861396952E+02  0.10000000000E+01 0. -1.
    1000022    2    1    0    0    0  0.18720461429E+02 -0.58742499569E+02  0.22611928632E+01  0.62500001095E+02  0.10000010600E+02 0.  0.
    3000022    2    3    3    0    0  0.12850630731E+02 -0.47681919533E+02  0.50223861534E+01  0.49638604144E+02  0.24999625529E+00 0.  0.
    1000022    2    1    0    0    0 -0.18720461429E+02  0.58742499569E+02 -0.22611928632E+01  0.62499998905E+02  0.99999969099E+01 0.  0.
    3000022    2    5    5    0    0 -0.17619101861E+02  0.54117690041E+02 -0.46163482748E+01  0.57101053352E+02  0.24999352816E+00 0.  0.
        -13    1    4    4    0    0  0.66243358193E+01 -0.24760340481E+02  0.25579047604E+01  0.25758691495E+02  0.10500000000E+00 0. -1.
         13    1    4    4    0    0  0.62262949114E+01 -0.22921579052E+02  0.24644813930E+01  0.23879912649E+02  0.10500000000E+00 0.  1.
    3000001    1    5    5    0    0 -0.11013595685E+01  0.46248095279E+01  0.23551554115E+01  0.53989455527E+01  0.10000000000E+01 0.  1.
        -13    1    6    6    0    0 -0.59037767295E+01  0.18157110055E+02 -0.16022661041E+01  0.19160206338E+02  0.10500000000E+00 0. -1.
         13    1    6    6    0    0 -0.11715325131E+02  0.35960579986E+02 -0.30140821707E+01  0.37940847014E+02  0.10500000000E+00 0.  1.
</event>
<event>
11    0  0.3482988E-009  0.9118800E+02  0.7816531E-02  0.1126479E+00
         25   -1    0    0    0    0  0.00000000000E+00  0.00000000000E+00  0.99999998245E-14  0.12500000000E+03  0.12500000000E+03 0.  0.
    3000001    1    3    3    0    0 -0.13556501541E+02  0.47221367553E+02 -0.35133674629E+02  0.60407047441E+02  0.10000000000E+01 0. -1.
    1000022    2    1    0    0    0 -0.12373141328E+02  0.48101869967E+02 -0.36597342879E+02  0.62500000136E+02  0.99999995261E+01 0.  0.
    3000022    2    3    3    0    0  0.11833602126E+01  0.88050241374E+00 -0.14636682505E+01  0.20929526949E+01  0.25000068412E+00 0.  0.
    1000022    2    1    0    0    0  0.12373141328E+02 -0.48101869967E+02  0.36597342879E+02  0.62499999864E+02  0.99999978270E+01 0.  0.
    3000022    2    5    5    0    0  0.70338789976E+01 -0.18366990914E+02  0.19845113648E+02  0.27941239198E+02  0.25000650833E+00 0.  0.
        -13    1    4    4    0    0  0.60299003231E+00  0.52222537040E+00 -0.83254397249E+00  0.11577870196E+01  0.10500000000E+00 0. -1.
         13    1    4    4    0    0  0.58037018033E+00  0.35827704333E+00 -0.63112427798E+00  0.93516567530E+00  0.10500000000E+00 0.  1.
    3000001    1    5    5    0    0  0.53392623306E+01 -0.29734879053E+02  0.16752229231E+02  0.34558760666E+02  0.10000000000E+01 0. -1.
        -13    1    6    6    0    0  0.22500704612E+01 -0.60161076679E+01  0.65009480666E+01  0.91394594652E+01  0.10500000000E+00 0.  1.
         13    1    6    6    0    0  0.47838085363E+01 -0.12350883246E+02  0.13344165581E+02  0.18801779733E+02  0.10500000000E+00 0. -1.
</event>
<event>
11    0  0.3482988E-009  0.9118800E+02  0.7816531E-02  0.1126479E+00
         25   -1    0    0    0    0  0.00000000000E+00  0.00000000000E+00  0.99999998245E-14  0.12500000000E+03  0.12500000000E+03 0.  0.
    3000001    1    3    3    0    0  0.68351016421E+01 -0.41549764596E+02  0.52590007989E+01  0.42447127604E+02  0.10000000000E+01 0. -1.
    1000022    2    1    0    0    0  0.86399364952E+01 -0.59420034586E+02  0.14172541107E+02  0.62499999702E+02  0.10000001424E+02 0.  0.
    3000022    2    3    3    0    0  0.18048348531E+01 -0.17870269990E+02  0.89135403085E+01  0.20052872098E+02  0.25000036190E+00 0.  0.
    1000022    2    1    0    0    0 -0.86399364952E+01  0.59420034586E+02 -0.14172541107E+02  0.62500000298E+02  0.10000005149E+02 0.  0.
    3000022    2    5    5    0    0 -0.26220953595E+01  0.98160624073E+01 -0.61592136682E+01  0.11883976309E+02  0.25002927396E+00 0.  0.
        -13    1    4    4    0    0  0.96238491258E+00 -0.88835066055E+01  0.44121175590E+01  0.99659761532E+01  0.10500000000E+00 0.  1.
         13    1    4    4    0    0  0.84244994056E+00 -0.89867633846E+01  0.45014227495E+01  0.10086895945E+02  0.10500000000E+00 0. -1.
    3000001    1    5    5    0    0 -0.60178411358E+01  0.49603972179E+02 -0.80133274392E+01  0.50616023989E+02  0.10000000000E+01 0. -1.
        -13    1    6    6    0    0 -0.15521356718E+01  0.55650908716E+01 -0.34817635804E+01  0.67463370938E+01  0.10500000000E+00 0. -1.
         13    1    6    6    0    0 -0.10699596876E+01  0.42509715358E+01 -0.26774500878E+01  0.51376392150E+01  0.10500000000E+00 0.  1.
</event>
<event>
11    0  0.3482988E-009  0.9118800E+02  0.7816531E-02  0.1126479E+00
         25   -1    0    0    0    0  0.00000000000E+00  0.00000000000E+00  0.99999998245E-14  0.12500000000E+03  0.12500000000E+03 0.  0.
    3000001    1    3    3    0    0  0.61550859883E+01  0.45010406898E+00 -0.12874002133E+02  0.14311799612E+02  0.10000000000E+01 0. -1.
    1000022    2    1    0    0    0  0.96171079394E+01  0.35196483268E+01 -0.60838911970E+02  0.62500000826E+02  0.10000010207E+02 0.  0.
    3000022    2    3    3    0    0  0.34620219510E+01  0.30695442578E+01 -0.47964909836E+02  0.48188201214E+02  0.24992545209E+00 0.  0.
    1000022    2    1    0    0    0 -0.96171079394E+01 -0.35196483268E+01  0.60838911970E+02  0.62499999174E+02  0.99999998797E+01 0.  0.
    3000022    2    5    5    0    0 -0.78410899665E+01 -0.17366751938E+01  0.19749435244E+02  0.21321384207E+02  0.24999885775E+00 0.  0.
        -13    1    4    4    0    0  0.12283161911E+01  0.10157394591E+01 -0.16622377143E+02  0.16698950092E+02  0.10500000000E+00 0.  1.
         13    1    4    4    0    0  0.22337057599E+01  0.20538047987E+01 -0.31342532694E+02  0.31489251122E+02  0.10500000000E+00 0. -1.
    3000001    1    5    5    0    0 -0.17760179728E+01 -0.17829731329E+01  0.41089476725E+02  0.41178614967E+02  0.10000000000E+01 0. -1.
        -13    1    6    6    0    0 -0.36534069454E+01 -0.86013503216E+00  0.93499567929E+01  0.10075709981E+02  0.10500000000E+00 0.  1.
         13    1    6    6    0    0 -0.41876830212E+01 -0.87654016166E+00  0.10399478451E+02  0.11245674226E+02  0.10500000000E+00 0. -1.
</event>
<event>
11    0  0.3482988E-009  0.9118800E+02  0.7816531E-02  0.1126479E+00
         25   -1    0    0    0    0  0.00000000000E+00  0.00000000000E+00  0.99999998245E-14  0.12500000000E+03  0.12500000000E+03 0.  0.
    3000001    1    3    3    0    0  0.35699730149E+01 -0.26879806668E+02 -0.20496984855E+00  0.27135046093E+02  0.10000000000E+01 0.  1.
    1000022    2    1    0    0    0  0.19241422763E+01 -0.60885851464E+02 -0.97704078552E+01  0.62499999699E+02  0.99999930358E+01 0.  0.
    3000022    2    3    3    0    0 -0.16458307386E+01 -0.34006044796E+02 -0.95654380066E+01  0.35364953606E+02  0.24999559404E+00 0.  0.
    1000022    2    1    0    0    0 -0.19241422763E+01  0.60885851464E+02  0.97704078552E+01  0.62500000301E+02  0.99999967957E+01 0.  0.
    3000022    2    5    5    0    0 -0.42669759083E+01  0.54076308037E+02  0.10285064663E+02  0.55211404912E+02  0.25000576312E+00 0.  0.
        -13    1    4    4    0    0 -0.93396229301E+00 -0.18217892295E+02 -0.50811197986E+01  0.18936543735E+02  0.10500000000E+00 0. -1.
         13    1    4    4    0    0 -0.71186844561E+00 -0.15788152501E+02 -0.44843182081E+01  0.16428409871E+02  0.10500000000E+00 0.  1.
    3000001    1    5    5    0    0  0.23428336320E+01  0.68095434269E+01 -0.51465680822E+00  0.72885953887E+01  0.10000000000E+01 0.  1.
        -13    1    6    6    0    0 -0.17116625794E+01  0.21321165766E+02  0.41118631099E+01  0.21781651490E+02  0.10500000000E+00 0.  1.
         13    1    6    6    0    0 -0.25553133289E+01  0.32755142271E+02  0.61732015535E+01  0.33429753422E+02  0.10500000000E+00 0. -1.
</event>
<event>
11    0  0.3482988E-009  0.9118800E+02  0.7816531E-02  0.1126479E+00
         25   -1    0    0    0    0  0.00000000000E+00  0.00000000000E+00  0.99999998245E-14  0.12500000000E+03  0.12500000000E+03 0.  0.
    3000001    1    3    3    0    0 -0.24052080369E+02 -0.75650226284E+01 -0.26694317643E+02  0.36733074086E+02  0.10000000000E+01 0. -1.
    1000022    2    1    0    0    0 -0.46218889347E+02 -0.10452395034E+02 -0.39507109830E+02  0.62500000235E+02  0.10000000396E+02 0.  0.
    3000022    2    3    3    0    0 -0.22166808978E+02 -0.28873724052E+01 -0.12812792187E+02  0.25766926149E+02  0.24999971314E+00 0.  0.
    1000022    2    1    0    0    0  0.46218889347E+02  0.10452395034E+02  0.39507109830E+02  0.62499999765E+02  0.99999974565E+01 0.  0.
    3000022    2    5    5    0    0  0.34306813613E+02  0.11041399791E+02  0.25921173781E+02  0.44394140680E+02  0.25001373040E+00 0.  0.
        -13    1    4    4    0    0 -0.15539057354E+02 -0.19854751892E+01 -0.89500441935E+01  0.18042137657E+02  0.10500000000E+00 0. -1.
         13    1    4    4    0    0 -0.66277516245E+01 -0.90189721600E+00 -0.38627479937E+01  0.77247884921E+01  0.10500000000E+00 0.  1.
    3000001    1    5    5    0    0  0.11912075733E+02 -0.58900475781E+00  0.13585936049E+02  0.18105859085E+02  0.10000000000E+01 0.  1.
        -13    1    6    6    0    0  0.18455877242E+02  0.59975337021E+01  0.14005028758E+02  0.23932021870E+02  0.10500000000E+00 0.  1.
         13    1    6    6    0    0  0.15850936371E+02  0.50438660894E+01  0.11916145022E+02  0.20462118809E+02  0.10500000000E+00 0. -1.
</event>
<event>
11    0  0.3482988E-009  0.9118800E+02  0.7816531E-02  0.1126479E+00
         25   -1    0    0    0    0  0.00000000000E+00  0.00000000000E+00  0.99999998245E-14  0.12500000000E+03  0.12500000000E+03 0.  0.
    3000001    1    3    3    0    0  0.17536130997E+02  0.38361592711E+02 -0.25086186947E+02  0.49086092340E+02  0.10000000000E+01 0. -1.
    1000022    2    1    0    0    0  0.17232883574E+02  0.49353018439E+02 -0.32765184190E+02  0.62499999453E+02  0.99999965676E+01 0.  0.
    3000022    2    3    3    0    0 -0.30324742290E+00  0.10991425728E+02 -0.76789972430E+01  0.13413907113E+02  0.25001371103E+00 0.  0.
    1000022    2    1    0    0    0 -0.17232883574E+02 -0.49353018439E+02  0.32765184190E+02  0.62500000547E+02  0.10000003399E+02 0.  0.
    3000022    2    5    5    0    0 -0.10747433750E+02 -0.16641542446E+02  0.10932170285E+02  0.22627927397E+02  0.24996789112E+00 0.  0.
        -13    1    4    4    0    0 -0.14430019505E+00  0.35762556419E+01 -0.24697466748E+01  0.43498391465E+01  0.10500000000E+00 0. -1.
         13    1    4    4    0    0 -0.15894722785E+00  0.74151700860E+01 -0.52092505683E+01  0.90640679669E+01  0.10500000000E+00 0.  1.
    3000001    1    5    5    0    0 -0.64854498240E+01 -0.32711475993E+02  0.21833013905E+02  0.39872073149E+02  0.10000000000E+01 0. -1.
        -13    1    6    6    0    0 -0.55396093819E+01 -0.86617363722E+01  0.56167638336E+01  0.11716313842E+02  0.10500000000E+00 0.  1.
         13    1    6    6    0    0 -0.52078243684E+01 -0.79798060738E+01  0.53154064518E+01  0.10911613555E+02  0.10500000000E+00 0. -1.
</event>
<event>
11    0  0.3482988E-009  0.9118800E+02  0.7816531E-02  0.1126479E+00
         25   -1    0    0    0    0  0.00000000000E+00  0.00000000000E+00  0.99999998245E-14  0.12500000000E+03  0.12500000000E+03 0.  0.
    3000001    1    3    3    0    0  0.66024003667E+01  0.26024226237E+02 -0.11984078882E+02  0.29418874698E+02  0.10000000000E+01 0. -1.
    1000022    2    1    0    0    0  0.57421653914E+01  0.52803297830E+02 -0.31386129900E+02  0.62499998672E+02  0.99999979363E+01 0.  0.
    3000022    2    3    3    0    0 -0.86023497526E+00  0.26779071593E+02 -0.19402051018E+02  0.33081123974E+02  0.25000011777E+00 0.  0.
    1000022    2    1    0    0    0 -0.57421653914E+01 -0.52803297830E+02  0.31386129900E+02  0.62500001328E+02  0.10000014541E+02 0.  0.
    3000022    2    5    5    0    0 -0.58010579184E+01 -0.47872324419E+02  0.31256016218E+02  0.57466623071E+02  0.24999830102E+00 0.  0.
        -13    1    4    4    0    0 -0.20060246328E+00  0.62542377604E+01 -0.45475467803E+01  0.77360802756E+01  0.10500000000E+00 0. -1.
         13    1    4    4    0    0 -0.65963251198E+00  0.20524833833E+02 -0.14854504238E+02  0.25345043698E+02  0.10500000000E+00 0.  1.
    3000001    1    5    5    0    0  0.58892526989E-01 -0.49309734114E+01  0.13011368264E+00  0.50333782576E+01  0.10000000000E+01 0.  1.
        -13    1    6    6    0    0 -0.25338982189E+01 -0.21460488532E+02  0.13997586176E+02  0.25747167843E+02  0.10500000000E+00 0. -1.
         13    1    6    6    0    0 -0.32671596995E+01 -0.26411835887E+02  0.17258430042E+02  0.31719455227E+02  0.10500000000E+00 0.  1.
</event>
<event>
11    0  0.3482988E-009  0.9118800E+02  0.7816531E-02  0.1126479E+00
         25   -1    0    0    0    0  0.00000000000E+00  0.00000000000E+00  0.99999998245E-14  0.12500000000E+03  0.12500000000E+03 0.  0.
    3000001    1    3    3    0    0  0.29576560827E+02 -0.31654874955E+02 -0.73746069415E+01  0.43956670555E+02  0.10000000000E+01 0. -1.
    1000022    2    1    0    0    0  0.44119621066E+02 -0.42859136909E+02 -0.47752769235E+01  0.62500000828E+02  0.10000012713E+02 0.  0.
    3000022    2    3    3    0    0  0.14543060239E+02 -0.11204261953E+02  0.25993300180E+01  0.18543330273E+02  0.24998804551E+00 0.  0.
    1000022    2    1    0    0    0 -0.44119621066E+02  0.42859136909E+02  0.47752769235E+01  0.62499999172E+02  0.10000002363E+02 0.  0.
    3000022    2    5    5    0    0 -0.28833504987E+01  0.15342550007E+01  0.24049918550E+01  0.40637593349E+01  0.25001120790E+00 0.  0.
        -13    1    4    4    0    0  0.35585338451E+01 -0.27484818871E+01  0.61409814543E+00  0.45393234455E+01  0.10500000000E+00 0.  1.
         13    1    4    4    0    0  0.10984526394E+02 -0.84557800663E+01  0.19852318726E+01  0.14004006827E+02  0.10500000000E+00 0. -1.
    3000001    1    5    5    0    0 -0.41236270567E+02  0.41324881908E+02  0.23702850685E+01  0.58436239837E+02  0.10000000000E+01 0. -1.
        -13    1    6    6    0    0 -0.12089436897E+01  0.71597396919E+00  0.10179818155E+01  0.17382392085E+01  0.10500000000E+00 0.  1.
         13    1    6    6    0    0 -0.16744068090E+01  0.81828103150E+00  0.13870100395E+01  0.23255201264E+01  0.10500000000E+00 0. -1.
</event>
<event>
11    0  0.3482988E-009  0.9118800E+02  0.7816531E-02  0.1126479E+00
         25   -1    0    0    0    0  0.00000000000E+00  0.00000000000E+00  0.99999998245E-14  0.12500000000E+03  0.12500000000E+03 0.  0.
    3000001    1    3    3    0    0  0.20651569423E+02  0.99961576657E+01 -0.31983286727E+02  0.39374371329E+02  0.10000000000E+01 0. -1.
    1000022    2    1    0    0    0  0.38292083619E+02  0.16267648566E+02 -0.45555789575E+02  0.62499999393E+02  0.99999951267E+01 0.  0.
    3000022    2    3    3    0    0  0.17640514195E+02  0.62714909003E+01 -0.13572502848E+02  0.23125628063E+02  0.25000113216E+00 0.  0.
    1000022    2    1    0    0    0 -0.38292083619E+02 -0.16267648566E+02  0.45555789575E+02  0.62500000607E+02  0.10000002717E+02 0.  0.
    3000022    2    5    5    0    0 -0.34693106016E+02 -0.16313804586E+02  0.37542111199E+02  0.53658405090E+02  0.24999695722E+00 0.  0.
        -13    1    4    4    0    0  0.11646108985E+02  0.41972742218E+01 -0.89613591508E+01  0.15282864529E+02  0.10500000000E+00 0.  1.
         13    1    4    4    0    0  0.59944052108E+01  0.20742166785E+01 -0.46111436975E+01  0.78427635346E+01  0.10500000000E+00 0. -1.
    3000001    1    5    5    0    0 -0.35989776032E+01  0.46156019725E-01  0.80136783768E+01  0.88415955174E+01  0.10000000000E+01 0.  1.
        -13    1    6    6    0    0 -0.25525890661E+02 -0.12039890828E+02  0.27640041231E+02  0.39503328587E+02  0.10500000000E+00 0.  1.
         13    1    6    6    0    0 -0.91672153544E+01 -0.42739137574E+01  0.99020699671E+01  0.14155076502E+02  0.10500000000E+00 0. -1.
</event>
<event>
11    0  0.3482988E-009  0.9118800E+02  0.7816531E-02  0.1126479E+00
         25   -1    0    0    0    0  0.00000000000E+00  0.00000000000E+00  0.99999998245E-14  0.12500000000E+03  0.12500000000E+03 0.  0.
    3000001    1    3    3    0    0  0.42923097022E+02  0.35951553625E+02  0.20665986989E+02  0.59690782239E+02  0.10000000000E+01 0. -1.
    1000022    2    1    0    0    0  0.44825622138E+02  0.35792437877E+02  0.22711547224E+02  0.62500005695E+02  0.10000066267E+02 0.  0.
    3000022    2    3    3    0    0  0.19025251153E+01 -0.15911574833E+00  0.20455602349E+01  0.28092234560E+01  0.25000023083E+00 0.  0.
    1000022    2    1    0    0    0 -0.44825622138E+02 -0.35792437877E+02 -0.22711547224E+02  0.62499994305E+02  0.99999950820E+01 0.  0.
    3000022    2    5    5    0    0 -0.10562778705E+02 -0.92918263677E+01 -0.10277654757E+02  0.17424207764E+02  0.24999534507E+00 0.  0.
        -13    1    4    4    0    0  0.64848268210E+00 -0.10757069672E+00  0.73111406996E+00  0.98876388843E+00  0.10500000000E+00 0.  1.
         13    1    4    4    0    0  0.12540424332E+01 -0.51545051603E-01  0.13144461649E+01  0.18204595675E+01  0.10500000000E+00 0. -1.
    3000001    1    5    5    0    0 -0.34262843432E+02 -0.26500611509E+02 -0.12433892467E+02  0.45075786541E+02  0.10000000000E+01 0. -1.
        -13    1    6    6    0    0 -0.42651450387E+01 -0.37919502154E+01 -0.41002162338E+01  0.70280258111E+01  0.10500000000E+00 0. -1.
         13    1    6    6    0    0 -0.62976336666E+01 -0.54998761523E+01 -0.61774385232E+01  0.10396181953E+02  0.10500000000E+00 0.  1.
</event>
<event>
11    0  0.3482988E-009  0.9118800E+02  0.7816531E-02  0.1126479E+00
         25   -1    0    0    0    0  0.00000000000E+00  0.00000000000E+00  0.99999998245E-14  0.12500000000E+03  0.12500000000E+03 0.  0.
    3000001    1    3    3    0    0 -0.15530215095E+02  0.15954453799E+02  0.27307772660E+02  0.35248356339E+02  0.10000000000E+01 0. -1.
    1000022    2    1    0    0    0 -0.20168353656E+02  0.25755906362E+02  0.52307945219E+02  0.62499997111E+02  0.99999652009E+01 0.  0.
    3000022    2    3    3    0    0 -0.46381385609E+01  0.98014525630E+01  0.25000172559E+02  0.27251640772E+02  0.24999021381E+00 0.  0.
    1000022    2    1    0    0    0  0.20168353656E+02 -0.25755906362E+02 -0.52307945219E+02  0.62500002889E+02  0.10000001318E+02 0.  0.
    3000022    2    5    5    0    0  0.14087258020E+02 -0.22963148715E+02 -0.37054409215E+02  0.45813194326E+02  0.24998921586E+00 0.  0.
        -13    1    4    4    0    0 -0.33894473088E+01  0.71754353607E+01  0.18205605935E+02  0.19860270344E+02  0.10500000000E+00 0.  1.
         13    1    4    4    0    0 -0.12486912521E+01  0.26260172023E+01  0.67945666247E+01  0.73913704282E+01  0.10500000000E+00 0. -1.
    3000001    1    5    5    0    0  0.60810956355E+01 -0.27927576475E+01 -0.15253536005E+02  0.16686808564E+02  0.10000000000E+01 0. -1.
        -13    1    6    6    0    0  0.81981478029E+01 -0.13454697095E+02 -0.21596981649E+02  0.26733483549E+02  0.10500000000E+00 0.  1.
         13    1    6    6    0    0  0.58891102173E+01 -0.95084516195E+01 -0.15457427566E+02  0.19079710776E+02  0.10500000000E+00 0. -1.
</event>
<event>
11    0  0.3482988E-009  0.9118800E+02  0.7816531E-02  0.1126479E+00
         25   -1    0    0    0    0  0.00000000000E+00  0.00000000000E+00  0.99999998245E-14  0.12500000000E+03  0.12500000000E+03 0.  0.
    3000001    1    3    3    0    0  0.32301316840E+01 -0.14192992397E+02 -0.38601722634E+02  0.41267030111E+02  0.10000000000E+01 0.  1.
    1000022    2    1    0    0    0  0.11003374049E+02 -0.17886406904E+02 -0.58010794279E+02  0.62500002475E+02  0.10000013206E+02 0.  0.
    3000022    2    3    3    0    0  0.77732423646E+01 -0.36934145062E+01 -0.19409071646E+02  0.21232972364E+02  0.24989138796E+00 0.  0.
    1000022    2    1    0    0    0 -0.11003374049E+02  0.17886406904E+02  0.58010794279E+02  0.62499997525E+02  0.99999822659E+01 0.  0.
    3000022    2    5    5    0    0 -0.84948883755E+01  0.15390820386E+02  0.34687475865E+02  0.38888609715E+02  0.25000609413E+00 0.  0.
        -13    1    4    4    0    0  0.49867047984E+01 -0.23155782744E+01 -0.12475736124E+02  0.13633933560E+02  0.10500000000E+00 0.  1.
         13    1    4    4    0    0  0.27865375661E+01 -0.13778362318E+01 -0.69333355215E+01  0.75990388039E+01  0.10500000000E+00 0. -1.
    3000001    1    5    5    0    0 -0.25084856730E+01  0.24955865180E+01  0.23323318414E+02  0.23611387810E+02  0.10000000000E+01 0. -1.
        -13    1    6    6    0    0 -0.32511399914E+01  0.60182016192E+01  0.13505444890E+02  0.15139244652E+02  0.10500000000E+00 0. -1.
         13    1    6    6    0    0 -0.52437483841E+01  0.93726187664E+01  0.21182030975E+02  0.23749365063E+02  0.10500000000E+00 0.  1.
</event>
<event>
11    0  0.3482988E-009  0.9118800E+02  0.7816531E-02  0.1126479E+00
         25   -1    0    0    0    0  0.00000000000E+00  0.00000000000E+00  0.99999998245E-14  0.12500000000E+03  0.12500000000E+03 0.  0.
    3000001    1    3    3    0    0 -0.21334247727E+01 -0.63591803416E+00  0.21162953263E+01  0.32302629793E+01  0.10000000000E+01 0. -1.
    1000022    2    1    0    0    0 -0.50212337510E+02  0.22691039340E+02  0.27750459132E+02  0.62499999295E+02  0.99999912629E+01 0.  0.
    3000022    2    3    3    0    0 -0.48078912738E+02  0.23326957375E+02  0.25634163806E+02  0.59269736316E+02  0.24999710388E+00 0.  0.
    1000022    2    1    0    0    0  0.50212337510E+02 -0.22691039340E+02 -0.27750459132E+02  0.62500000705E+02  0.10000000072E+02 0.  0.
    3000022    2    5    5    0    0  0.31478289595E+02 -0.17508444041E+02 -0.21988113857E+02  0.42201516318E+02  0.24999991517E+00 0.  0.
        -13    1    4    4    0    0 -0.29488633881E+02  0.14338900581E+02  0.15668360661E+02  0.36341328386E+02  0.10500000000E+00 0. -1.
         13    1    4    4    0    0 -0.18590278857E+02  0.89880567936E+01  0.99658031446E+01  0.22928407930E+02  0.10500000000E+00 0.  1.
    3000001    1    5    5    0    0  0.18734047916E+02 -0.51825952993E+01 -0.57623452749E+01  0.20298484387E+02  0.10000000000E+01 0.  1.
        -13    1    6    6    0    0  0.10418855284E+02 -0.57644092350E+01 -0.72152825642E+01  0.13923084670E+02  0.10500000000E+00 0. -1.
         13    1    6    6    0    0  0.21059434311E+02 -0.11744034806E+02 -0.14772831293E+02  0.28278431647E+02  0.10500000000E+00 0.  1.
</event>
<event>
11    0  0.3482988E-009  0.9118800E+02  0.7816531E-02  0.1126479E+00
         25   -1    0    0    0    0  0.00000000000E+00  0.00000000000E+00  0.99999998245E-14  0.12500000000E+03  0.12500000000E+03 0.  0.
    3000001    1    3    3    0    0  0.33007205419E+02 -0.39235066469E+02  0.11420669754E+02  0.52538535838E+02  0.10000000000E+01 0. -1.
    1000022    2    1    0    0    0  0.35842143946E+02 -0.47577706462E+02  0.16060901580E+02  0.62499999938E+02  0.99999998938E+01 0.  0.
    3000022    2    3    3    0    0  0.28349385275E+01 -0.83426399926E+01  0.46402318255E+01  0.99614640997E+01  0.24999423139E+00 0.  0.
    1000022    2    1    0    0    0 -0.35842143946E+02  0.47577706462E+02 -0.16060901580E+02  0.62500000062E+02  0.10000000668E+02 0.  0.
    3000022    2    5    5    0    0 -0.35638347426E+02  0.44684864135E+02 -0.14137194851E+02  0.58879127607E+02  0.24999915508E+00 0.  0.
        -13    1    4    4    0    0  0.67098238759E+00 -0.20437087719E+01  0.11381400013E+01  0.24358469926E+01  0.10500000000E+00 0. -1.
         13    1    4    4    0    0  0.21639561399E+01 -0.62989312207E+01  0.35020918241E+01  0.75256171071E+01  0.10500000000E+00 0.  1.
    3000001    1    5    5    0    0 -0.20379651992E+00  0.28928423274E+01 -0.19237067288E+01  0.36208724544E+01  0.10000000000E+01 0.  1.
        -13    1    6    6    0    0 -0.25830095807E+02  0.32426647362E+02 -0.10283384152E+02  0.42713467702E+02  0.10500000000E+00 0. -1.
         13    1    6    6    0    0 -0.98082516195E+01  0.12258216773E+02 -0.38538106991E+01  0.16165659906E+02  0.10500000000E+00 0.  1.
</event>
<event>
11    0  0.3482988E-009  0.9118800E+02  0.7816531E-02  0.1126479E+00
         25   -1    0    0    0    0  0.00000000000E+00  0.00000000000E+00  0.99999998245E-14  0.12500000000E+03  0.12500000000E+03 0.  0.
    3000001    1    3    3    0    0 -0.58827822037E+02 -0.11515081965E+00  0.44307818728E+00  0.58838101802E+02  0.10000000000E+01 0.  1.
    1000022    2    1    0    0    0 -0.61666636076E+02 -0.18155985072E+00 -0.18555578213E+01  0.62500001031E+02  0.10000003255E+02 0.  0.
    3000022    2    3    3    0    0 -0.28388140387E+01 -0.66409031068E-01 -0.22986360086E+01  0.36618992289E+01  0.25000631281E+00 0.  0.
    1000022    2    1    0    0    0  0.61666636076E+02  0.18155985072E+00  0.18555578213E+01  0.62499998969E+02  0.99999903727E+01 0.  0.
    3000022    2    5    5    0    0  0.48109435422E+02  0.30123655605E+01  0.43194813865E+01  0.48397443532E+02  0.24999614524E+00 0.  0.
        -13    1    4    4    0    0 -0.16347991641E+01 -0.61270297659E-01 -0.14010825129E+01  0.21564738728E+01  0.10500000000E+00 0. -1.
         13    1    4    4    0    0 -0.12040148747E+01 -0.51387334094E-02 -0.89755349578E+00  0.15054253561E+01  0.10500000000E+00 0.  1.
    3000001    1    5    5    0    0  0.13557200654E+02 -0.28308057098E+01 -0.24639235651E+01  0.14102555437E+02  0.10000000000E+01 0. -1.
        -13    1    6    6    0    0  0.33824763070E+02  0.21095928765E+01  0.30812396804E+01  0.34030428175E+02  0.10500000000E+00 0.  1.
         13    1    6    6    0    0  0.14284672352E+02  0.90277268398E+00  0.12382417060E+01  0.14367015357E+02  0.10500000000E+00 0. -1.
</event>
<event>
11    0  0.3482988E-009  0.9118800E+02  0.7816531E-02  0.1126479E+00
         25   -1    0    0    0    0  0.00000000000E+00  0.00000000000E+00  0.99999998245E-14  0.12500000000E+03  0.12500000000E+03 0.  0.
    3000001    1    3    3    0    0  0.10126921838E+01 -0.24334059796E+02  0.21070592111E+02  0.32220208930E+02  0.10000000000E+01 0.  1.
    1000022    2    1    0    0    0  0.81493616043E+01 -0.41246453708E+02  0.45150504130E+02  0.62500000487E+02  0.99999999818E+01 0.  0.
    3000022    2    3    3    0    0  0.71366694205E+01 -0.16912393912E+02  0.24079912020E+02  0.30279791557E+02  0.24999121826E+00 0.  0.
    1000022    2    1    0    0    0 -0.81493616043E+01  0.41246453708E+02 -0.45150504130E+02  0.62499999513E+02  0.99999938899E+01 0.  0.
    3000022    2    5    5    0    0 -0.62081573498E+01  0.11781999541E+02 -0.10481664110E+02  0.16949469311E+02  0.24999306954E+00 0.  0.
        -13    1    4    4    0    0  0.27923421683E+01 -0.67258558550E+01  0.96298572892E+01  0.12073917681E+02  0.10500000000E+00 0.  1.
         13    1    4    4    0    0  0.43443272523E+01 -0.10186538057E+02  0.14450054730E+02  0.18205873876E+02  0.10500000000E+00 0. -1.
    3000001    1    5    5    0    0 -0.19412042545E+01  0.29464454167E+02 -0.34668840020E+02  0.45550530202E+02  0.10000000000E+01 0. -1.
        -13    1    6    6    0    0 -0.24778610892E+01  0.46339579132E+01 -0.40678571754E+01  0.66461905268E+01  0.10500000000E+00 0.  1.
         13    1    6    6    0    0 -0.37302962606E+01  0.71480416279E+01 -0.64138069349E+01  0.10303278784E+02  0.10500000000E+00 0. -1.
</event>
<event>
11    0  0.3482988E-009  0.9118800E+02  0.7816531E-02  0.1126479E+00
         25   -1    0    0    0    0  0.00000000000E+00  0.00000000000E+00  0.99999998245E-14  0.12500000000E+03  0.12500000000E+03 0.  0.
    3000001    1    3    3    0    0 -0.55986335805E+01 -0.29106015416E+02 -0.20920437174E+02  0.36292830186E+02  0.10000000000E+01 0.  1.
    1000022    2    1    0    0    0 -0.46203708770E+01 -0.45727116520E+02 -0.41157414491E+02  0.62500000008E+02  0.10000011059E+02 0.  0.
    3000022    2    3    3    0    0  0.97826270349E+00 -0.16621101103E+02 -0.20236977317E+02  0.26207169822E+02  0.24999866097E+00 0.  0.
    1000022    2    1    0    0    0  0.46203708770E+01  0.45727116520E+02  0.41157414491E+02  0.62499999992E+02  0.10000010957E+02 0.  0.
    3000022    2    5    5    0    0 -0.34616728805E+00  0.22706101157E+02  0.14638259994E+02  0.27019030376E+02  0.24997048541E+00 0.  0.
        -13    1    4    4    0    0  0.33182828768E+00 -0.59692233829E+01 -0.73529740828E+01  0.94772881495E+01  0.10500000000E+00 0.  1.
         13    1    4    4    0    0  0.64643441581E+00 -0.10651877721E+02 -0.12884003235E+02  0.16729881673E+02  0.10500000000E+00 0. -1.
    3000001    1    5    5    0    0  0.49665381650E+01  0.23021015363E+02  0.26519154497E+02  0.35480969616E+02  0.10000000000E+01 0. -1.
        -13    1    6    6    0    0 -0.74954551284E-01  0.53164183032E+01  0.34420488646E+01  0.63347176058E+01  0.10500000000E+00 0. -1.
         13    1    6    6    0    0 -0.27121273676E+00  0.17389682854E+02  0.11196211130E+02  0.20684312770E+02  0.10500000000E+00 0.  1.
</event>
<event>
11    0  0.3482988E-009  0.9118800E+02  0.7816531E-02  0.1126479E+00
         25   -1    0    0    0    0  0.00000000000E+00  0.00000000000E+00  0.99999998245E-14  0.12500000000E+03  0.12500000000E+03 0.  0.
    3000001    1    3    3    0    0  0.38438881168E+01 -0.28285767767E+01  0.35337083942E+01  0.60219114450E+01  0.10000000000E+01 0. -1.
    1000022    2    1    0    0    0  0.21175360567E+02 -0.50130806786E+02  0.29064691765E+02  0.62500000183E+02  0.10000001570E+02 0.  0.
    3000022    2    3    3    0    0  0.17331472450E+02 -0.47302230009E+02  0.25530983371E+02  0.56478088738E+02  0.24998908942E+00 0.  0.
    1000022    2    1    0    0    0 -0.21175360567E+02  0.50130806786E+02 -0.29064691765E+02  0.62499999817E+02  0.99999992786E+01 0.  0.
    3000022    2    5    5    0    0 -0.19458204654E+02  0.36222305622E+02 -0.19534139833E+02  0.45522766556E+02  0.25000596124E+00 0.  0.
        -13    1    4    4    0    0  0.48540690837E+01 -0.13310902500E+02  0.72184328757E+01  0.15901537982E+02  0.10500000000E+00 0. -1.
         13    1    4    4    0    0  0.12477403366E+02 -0.33991327510E+02  0.18312550495E+02  0.40576550756E+02  0.10500000000E+00 0.  1.
    3000001    1    5    5    0    0 -0.17171559123E+01  0.13908501164E+02 -0.95305519319E+01  0.16977233260E+02  0.10000000000E+01 0. -1.
        -13    1    6    6    0    0 -0.10022579358E+02  0.18583959873E+02 -0.10095272247E+02  0.23403871652E+02  0.10500000000E+00 0. -1.
         13    1    6    6    0    0 -0.94356252960E+01  0.17638345749E+02 -0.94388675854E+01  0.22118894904E+02  0.10500000000E+00 0.  1.
</event>
<event>
11    0  0.3482988E-009  0.9118800E+02  0.7816531E-02  0.1126479E+00
         25   -1    0    0    0    0  0.00000000000E+00  0.00000000000E+00  0.99999998245E-14  0.12500000000E+03  0.12500000000E+03 0.  0.
    3000001    1    3    3    0    0  0.22684625371E+02 -0.29458844883E+02  0.19190050159E+01  0.37243769282E+02  0.10000000000E+01 0. -1.
    1000022    2    1    0    0    0  0.41234960367E+02 -0.45768397606E+02 -0.33439034662E+01  0.62499999012E+02  0.10000000511E+02 0.  0.
    3000022    2    3    3    0    0  0.18550334996E+02 -0.16309552723E+02 -0.52629084821E+01  0.25256229730E+02  0.24999202010E+00 0.  0.
    1000022    2    1    0    0    0 -0.41234960367E+02  0.45768397606E+02  0.33439034662E+01  0.62500000988E+02  0.10000012863E+02 0.  0.
    3000022    2    5    5    0    0 -0.11951115733E+02  0.10165838248E+02  0.46679709823E+01  0.16371496306E+02  0.25000735662E+00 0.  0.
        -13    1    4    4    0    0  0.10862103891E+02 -0.95481824859E+01 -0.30155894724E+01  0.14773553891E+02  0.10500000000E+00 0. -1.
         13    1    4    4    0    0  0.76882311051E+01 -0.67613702371E+01 -0.22473190097E+01  0.10482675839E+02  0.10500000000E+00 0.  1.
    3000001    1    5    5    0    0 -0.29283844634E+02  0.35602559358E+02 -0.13240675161E+01  0.46128504682E+02  0.10000000000E+01 0.  1.
        -13    1    6    6    0    0 -0.61776658900E+01  0.52724341864E+01  0.24855173949E+01  0.84941709318E+01  0.10500000000E+00 0. -1.
         13    1    6    6    0    0 -0.57734498426E+01  0.48934040613E+01  0.21824535874E+01  0.78773253743E+01  0.10500000000E+00 0.  1.
</event>
<event>
11    0  0.3482988E-009  0.9118800E+02  0.7816531E-02  0.1126479E+00
         25   -1    0    0    0    0  0.00000000000E+00  0.00000000000E+00  0.99999998245E-14  0.12500000000E+03  0.12500000000E+03 0.  0.
    3000001    1    3    3    0    0 -0.66282959590E+01  0.40920847226E+02  0.29919925252E+02  0.51133667696E+02  0.10000000000E+01 0. -1.
    1000022    2    1    0    0    0 -0.37092611176E+01  0.50616403484E+02  0.35078080782E+02  0.62500005928E+02  0.10000003496E+02 0.  0.
    3000022    2    3    3    0    0  0.29190348414E+01  0.96955562586E+01  0.51581555301E+01  0.11366338232E+02  0.25000151210E+00 0.  0.
    1000022    2    1    0    0    0  0.37092611176E+01 -0.50616403484E+02 -0.35078080782E+02  0.62499994072E+02  0.99999294000E+01 0.  0.
    3000022    2    5    5    0    0 -0.89290079642E+00 -0.32686251127E+02 -0.26422937996E+02  0.42040723448E+02  0.24998227392E+00 0.  0.
        -13    1    4    4    0    0  0.10208680372E+01  0.32071001201E+01  0.17219543757E+01  0.37820384188E+01  0.10500000000E+00 0.  1.
         13    1    4    4    0    0  0.18981668042E+01  0.64884561386E+01  0.34362011544E+01  0.75842998129E+01  0.10500000000E+00 0. -1.
    3000001    1    5    5    0    0  0.46021619140E+01 -0.17930152357E+02 -0.86551427860E+01  0.20459270624E+02  0.10000000000E+01 0.  1.
        -13    1    6    6    0    0 -0.61526641027E+00 -0.23115006293E+02 -0.18737347649E+02  0.29762078063E+02  0.10500000000E+00 0.  1.
         13    1    6    6    0    0 -0.27763438615E+00 -0.95712448340E+01 -0.76855903468E+01  0.12278645386E+02  0.10500000000E+00 0. -1.
</event>
<event>
11    0  0.3482988E-009  0.9118800E+02  0.7816531E-02  0.1126479E+00
         25   -1    0    0    0    0  0.00000000000E+00  0.00000000000E+00  0.99999998245E-14  0.12500000000E+03  0.12500000000E+03 0.  0.
    3000001    1    3    3    0    0  0.45660193472E+02 -0.33470852407E+02 -0.41561568771E+01  0.56775213507E+02  0.10000000000E+01 0. -1.
    1000022    2    1    0    0    0  0.48594613787E+02 -0.37950022774E+02 -0.21469564090E+01  0.62499999653E+02  0.99999908575E+01 0.  0.
    3000022    2    3    3    0    0  0.29344203151E+01 -0.44791703669E+01  0.20092004681E+01  0.57247861462E+01  0.25000027637E+00 0.  0.
    1000022    2    1    0    0    0 -0.48594613787E+02  0.37950022774E+02  0.21469564090E+01  0.62500000347E+02  0.99999951982E+01 0.  0.
    3000022    2    5    5    0    0 -0.35418515335E+02  0.22611883988E+02 -0.87263782315E+00  0.42030852315E+02  0.25004710712E+00 0.  0.
        -13    1    4    4    0    0  0.15599590545E+01 -0.22865728276E+01  0.10848421071E+01  0.29748604917E+01  0.10500000000E+00 0.  1.
         13    1    4    4    0    0  0.13744612605E+01 -0.21925975393E+01  0.92435836100E+00  0.27499256546E+01  0.10500000000E+00 0.  1.
    3000001    1    5    5    0    0 -0.13176098452E+02  0.15338138787E+02  0.30195942321E+01  0.20469148032E+02  0.10000000000E+01 0.  1.
        -13    1    6    6    0    0 -0.21433283534E+02  0.13704682938E+02 -0.46837281897E+00  0.25444731784E+02  0.10500000000E+00 0.  1.
         13    1    6    6    0    0 -0.13985231801E+02  0.89072010499E+01 -0.40426500417E+00  0.16586120531E+02  0.10500000000E+00 0. -1.
</event>
<event>
11    0  0.3482988E-009  0.9118800E+02  0.7816531E-02  0.1126479E+00
         25   -1    0    0    0    0  0.00000000000E+00  0.00000000000E+00  0.99999998245E-14  0.12500000000E+03  0.12500000000E+03 0.  0.
    3000001    1    3    3    0    0 -0.22555960585E+02  0.47142693505E+02 -0.31067281894E+01  0.52362741227E+02  0.10000000000E+01 0. -1.
    1000022    2    1    0    0    0 -0.30291609969E+02  0.53569719577E+02 -0.43535506773E+01  0.62499999370E+02  0.10000001386E+02 0.  0.
    3000022    2    3    3    0    0 -0.77356493842E+01  0.64270260719E+01 -0.12468224878E+01  0.10137258143E+02  0.25000162996E+00 0.  0.
    1000022    2    1    0    0    0  0.30291609969E+02 -0.53569719577E+02  0.43535506773E+01  0.62500000630E+02  0.10000009261E+02 0.  0.
    3000022    2    5    5    0    0  0.17039205526E+02 -0.27582011199E+02 -0.24982246111E+01  0.32517771980E+02  0.25000314401E+00 0.  0.
        -13    1    4    4    0    0 -0.55365936265E+01  0.45660003997E+01 -0.92245840000E+00  0.72363100497E+01  0.10500000000E+00 0.  1.
         13    1    4    4    0    0 -0.21990557576E+01  0.18610256722E+01 -0.32436408783E+00  0.29009480932E+01  0.10500000000E+00 0. -1.
    3000001    1    5    5    0    0  0.13252404443E+02 -0.25987708378E+02  0.68517752884E+01  0.29982228650E+02  0.10000000000E+01 0.  1.
        -13    1    6    6    0    0  0.10691102635E+02 -0.17354389243E+02 -0.15164314593E+01  0.20439791851E+02  0.10500000000E+00 0. -1.
         13    1    6    6    0    0  0.63481028909E+01 -0.10227621956E+02 -0.98179315184E+00  0.12077980128E+02  0.10500000000E+00 0.  1.
</event>
<event>
11    0  0.3482988E-009  0.9118800E+02  0.7816531E-02  0.1126479E+00
         25   -1    0    0    0    0  0.00000000000E+00  0.00000000000E+00  0.99999998245E-14  0.12500000000E+03  0.12500000000E+03 0.  0.
    3000001    1    3    3    0    0 -0.43614576581E+02 -0.26501123357E+02 -0.72066423415E+01  0.51550717971E+02  0.10000000000E+01 0.  1.
    1000022    2    1    0    0    0 -0.54284883999E+02 -0.27811840324E+02 -0.92683923424E+01  0.62499999786E+02  0.99999891808E+01 0.  0.
    3000022    2    3    3    0    0 -0.10670307418E+02 -0.13107169672E+01 -0.20617500009E+01  0.10949281815E+02  0.25003964552E+00 0.  0.
    1000022    2    1    0    0    0  0.54284883999E+02  0.27811840324E+02  0.92683923424E+01  0.62500000214E+02  0.99999918549E+01 0.  0.
    3000022    2    5    5    0    0  0.53358292116E+02  0.28078025423E+02  0.84416685894E+01  0.60883553744E+02  0.24999764283E+00 0.  0.
        -13    1    4    4    0    0 -0.35754126514E+01 -0.44229959416E+00 -0.63630770335E+00  0.36599340229E+01  0.10500000000E+00 0. -1.
         13    1    4    4    0    0 -0.70948947667E+01 -0.86841737301E+00 -0.14254422975E+01  0.72893477917E+01  0.10500000000E+00 0.  1.
    3000001    1    5    5    0    0  0.92659188357E+00 -0.26618509855E+00  0.82672375298E+00  0.16164464696E+01  0.10000000000E+01 0. -1.
        -13    1    6    6    0    0  0.27764654616E+02  0.14686251123E+02  0.43906875539E+01  0.31715156948E+02  0.10500000000E+00 0. -1.
         13    1    6    6    0    0  0.25593637500E+02  0.13391774299E+02  0.40509810355E+01  0.29168396797E+02  0.10500000000E+00 0.  1.
</event>
<event>
11    0  0.3482988E-009  0.9118800E+02  0.7816531E-02  0.1126479E+00
         25   -1    0    0    0    0  0.00000000000E+00  0.00000000000E+00  0.99999998245E-14  0.12500000000E+03  0.12500000000E+03 0.  0.
    3000001    1    3    3    0    0  0.91320320567E+01  0.41326907451E+01 -0.57530432773E+02  0.58405683262E+02  0.10000000000E+01 0. -1.
    1000022    2    1    0    0    0  0.74266812881E+01  0.33266759364E+01 -0.61155765871E+02  0.62499999341E+02  0.99999925284E+01 0.  0.
    3000022    2    3    3    0    0 -0.17053507686E+01 -0.80601480875E+00 -0.36253330986E+01  0.40943160790E+01  0.25000592543E+00 0.  0.
    1000022    2    1    0    0    0 -0.74266812881E+01 -0.33266759364E+01  0.61155765871E+02  0.62500000659E+02  0.10000000767E+02 0.  0.
    3000022    2    5    5    0    0  0.67482048047E+00 -0.11055368219E+01  0.34689127862E+02  0.34714200016E+02  0.24999313779E+00 0.  0.
        -13    1    4    4    0    0 -0.59350220091E+00 -0.29678855816E+00 -0.11658344181E+01  0.13455568368E+01  0.10500000000E+00 0.  1.
         13    1    4    4    0    0 -0.11118485677E+01 -0.50922625059E+00 -0.24594986805E+01  0.27487592422E+01  0.10500000000E+00 0. -1.
    3000001    1    5    5    0    0 -0.81015017685E+01 -0.22211391145E+01  0.26466638009E+02  0.27785800643E+02  0.10000000000E+01 0.  1.
        -13    1    6    6    0    0  0.21954964253E+00 -0.37872067465E+00  0.10501751396E+02  0.10511395663E+02  0.10500000000E+00 0.  1.
         13    1    6    6    0    0  0.45527083794E+00 -0.72681614722E+00  0.24187376466E+02  0.24202804353E+02  0.10500000000E+00 0. -1.
</event>
<event>
11    0  0.3482988E-009  0.9118800E+02  0.7816531E-02  0.1126479E+00
         25   -1    0    0    0    0  0.00000000000E+00  0.00000000000E+00  0.99999998245E-14  0.12500000000E+03  0.12500000000E+03 0.  0.
    3000001    1    3    3    0    0 -0.24399513313E+00 -0.14395436154E+01  0.82270165957E+00  0.19515781989E+01  0.10000000000E+01 0.  1.
    1000022    2    1    0    0    0 -0.50292726295E+02 -0.31404602760E+02  0.17048248210E+02  0.62499997824E+02  0.99999784154E+01 0.  0.
    3000022    2    3    3    0    0 -0.50048731161E+02 -0.29965059144E+02  0.16225546550E+02  0.60548419625E+02  0.24999564457E+00 0.  0.
    1000022    2    1    0    0    0  0.50292726295E+02  0.31404602760E+02 -0.17048248210E+02  0.62500002176E+02  0.10000005619E+02 0.  0.
    3000022    2    5    5    0    0  0.31915607969E+02  0.14336465082E+02 -0.87907074358E+01  0.36076020997E+02  0.24998133394E+00 0.  0.
        -13    1    4    4    0    0 -0.20732737452E+02 -0.12397307361E+02  0.66539410759E+01  0.25056448051E+02  0.10500000000E+00 0. -1.
         13    1    4    4    0    0 -0.29315993709E+02 -0.17567751783E+02  0.95716054745E+01  0.35491971574E+02  0.10500000000E+00 0.  1.
    3000001    1    5    5    0    0  0.18377118326E+02  0.17068137677E+02 -0.82575407743E+01  0.26423981179E+02  0.10000000000E+01 0. -1.
        -13    1    6    6    0    0  0.13373063806E+02  0.59374587697E+01 -0.36642642552E+01  0.15084101224E+02  0.10500000000E+00 0. -1.
         13    1    6    6    0    0  0.18542544163E+02  0.83990063126E+01 -0.51264431806E+01  0.20991919773E+02  0.10500000000E+00 0.  1.
</event>
<event>
11    0  0.3482988E-009  0.9118800E+02  0.7816531E-02  0.1126479E+00
         25   -1    0    0    0    0  0.00000000000E+00  0.00000000000E+00  0.99999998245E-14  0.12500000000E+03  0.12500000000E+03 0.  0.
    3000001    1    3    3    0    0 -0.30981322448E+02  0.13989400244E+02 -0.31409722080E+02  0.46293804131E+02  0.10000000000E+01 0. -1.
    1000022    2    1    0    0    0 -0.36916139646E+02  0.21169209159E+02 -0.44668926658E+02  0.62499998045E+02  0.99999982077E+01 0.  0.
    3000022    2    3    3    0    0 -0.59348171976E+01  0.71798089145E+01 -0.13259204578E+02  0.16206193914E+02  0.25000782800E+00 0.  0.
    1000022    2    1    0    0    0  0.36916139646E+02 -0.21169209159E+02  0.44668926658E+02  0.62500001955E+02  0.10000022640E+02 0.  0.
    3000022    2    5    5    0    0  0.31588599687E+02 -0.19147335532E+02  0.42529082736E+02  0.56331567227E+02  0.24999952276E+00 0.  0.
        -13    1    4    4    0    0 -0.19705738765E+01  0.24111496847E+01 -0.45223850632E+01  0.54917935016E+01  0.10500000000E+00 0.  1.
         13    1    4    4    0    0 -0.39642433211E+01  0.47686592298E+01 -0.87368195150E+01  0.10714400412E+02  0.10500000000E+00 0. -1.
    3000001    1    5    5    0    0  0.53275399586E+01 -0.20218736269E+01  0.21398439219E+01  0.61684347272E+01  0.10000000000E+01 0.  1.
        -13    1    6    6    0    0  0.77527868439E+01 -0.46723464426E+01  0.10418793480E+02  0.13802130550E+02  0.10500000000E+00 0.  1.
         13    1    6    6    0    0  0.23835812843E+02 -0.14474989089E+02  0.32110289256E+02  0.42529436678E+02  0.10500000000E+00 0. -1.
</event>
<event>
11    0  0.3482988E-009  0.9118800E+02  0.7816531E-02  0.1126479E+00
         25   -1    0    0    0    0  0.00000000000E+00  0.00000000000E+00  0.99999998245E-14  0.12500000000E+03  0.12500000000E+03 0.  0.
    3000001    1    3    3    0    0  0.13278283764E+02 -0.83847069178E+01 -0.95071075564E+01  0.18384809596E+02  0.10000000000E+01 0. -1.
    1000022    2    1    0    0    0  0.53492086504E+02 -0.22178619560E+02 -0.21282750424E+02  0.62500001741E+02  0.10000013392E+02 0.  0.
    3000022    2    3    3    0    0  0.40213802741E+02 -0.13793912643E+02 -0.11775642867E+02  0.44115192145E+02  0.24991232837E+00 0.  0.
    1000022    2    1    0    0    0 -0.53492086504E+02  0.22178619560E+02  0.21282750424E+02  0.62499998259E+02  0.99999916285E+01 0.  0.
    3000022    2    5    5    0    0 -0.36130346432E+01 -0.89973336732E+00  0.65648734751E+00  0.37890715339E+01  0.25009595372E+00 0.  0.
        -13    1    4    4    0    0  0.10506950074E+02 -0.35773831147E+01 -0.30539627683E+01  0.11512227560E+02  0.10500000000E+00 0. -1.
         13    1    4    4    0    0  0.29706852667E+02 -0.10216529528E+02 -0.87216800991E+01  0.32602964585E+02  0.10500000000E+00 0.  1.
    3000001    1    5    5    0    0 -0.49879051861E+02  0.23078352928E+02  0.20626263076E+02  0.58710926725E+02  0.10000000000E+01 0.  1.
        -13    1    6    6    0    0 -0.14581689489E+01 -0.37515964246E+00  0.32920172070E+00  0.15447977906E+01  0.10500000000E+00 0.  1.
         13    1    6    6    0    0 -0.21548656943E+01 -0.52457372486E+00  0.32728562682E+00  0.22442737433E+01  0.10500000000E+00 0. -1.
</event>
<event>
11    0  0.3482988E-009  0.9118800E+02  0.7816531E-02  0.1126479E+00
         25   -1    0    0    0    0  0.00000000000E+00  0.00000000000E+00  0.99999998245E-14  0.12500000000E+03  0.12500000000E+03 0.  0.
    3000001    1    3    3    0    0  0.23397253245E+01 -0.12635564814E+02 -0.13783314773E+02  0.18870918867E+02  0.10000000000E+01 0. -1.
    1000022    2    1    0    0    0  0.19398346916E+02 -0.32913753711E+02 -0.48442118910E+02  0.62500000018E+02  0.10000003567E+02 0.  0.
    3000022    2    3    3    0    0  0.17058621591E+02 -0.20278188897E+02 -0.34658804137E+02  0.43629081150E+02  0.25000461670E+00 0.  0.
    1000022    2    1    0    0    0 -0.19398346916E+02  0.32913753711E+02  0.48442118910E+02  0.62499999982E+02  0.10000003347E+02 0.  0.
    3000022    2    5    5    0    0  0.47469131920E+00  0.39672418534E+01  0.79087526569E+01  0.88642658383E+01  0.25000098576E+00 0.  0.
        -13    1    4    4    0    0  0.46299613378E+01 -0.54764324133E+01 -0.94323430094E+01  0.11849387056E+02  0.10500000000E+00 0. -1.
         13    1    4    4    0    0  0.12428660253E+02 -0.14801756484E+02 -0.25226461127E+02  0.31779694094E+02  0.10500000000E+00 0.  1.
    3000001    1    5    5    0    0 -0.19873038235E+02  0.28946511857E+02  0.40533366253E+02  0.53635734144E+02  0.10000000000E+01 0. -1.
        -13    1    6    6    0    0  0.12072739019E+00  0.15197941785E+01  0.30050974908E+01  0.33713477093E+01  0.10500000000E+00 0.  1.
         13    1    6    6    0    0  0.35396392901E+00  0.24474476749E+01  0.49036551660E+01  0.54929181290E+01  0.10500000000E+00 0. -1.
</event>
<event>
11    0  0.3482988E-009  0.9118800E+02  0.7816531E-02  0.1126479E+00
         25   -1    0    0    0    0  0.00000000000E+00  0.00000000000E+00  0.99999998245E-14  0.12500000000E+03  0.12500000000E+03 0.  0.
    3000001    1    3    3    0    0 -0.98356528644E+01  0.12595428030E+02  0.14676295585E+02  0.21720463315E+02  0.10000000000E+01 0. -1.
    1000022    2    1    0    0    0 -0.38480328023E+02  0.34682897563E+02  0.33505385741E+02  0.62500003068E+02  0.10000024084E+02 0.  0.
    3000022    2    3    3    0    0 -0.28644675159E+02  0.22087469533E+02  0.18829090156E+02  0.40779539753E+02  0.25000202079E+00 0.  0.
    1000022    2    1    0    0    0  0.38480328023E+02 -0.34682897563E+02 -0.33505385741E+02  0.62499996932E+02  0.99999857356E+01 0.  0.
    3000022    2    5    5    0    0  0.29683149154E+02 -0.23222438391E+02 -0.19855726371E+02  0.42599100434E+02  0.24999915501E+00 0.  0.
        -13    1    4    4    0    0 -0.18563354967E+02  0.14263195203E+02  0.12231601693E+02  0.26413254059E+02  0.10500000000E+00 0.  1.
         13    1    4    4    0    0 -0.10081320192E+02  0.78242743307E+01  0.65974884629E+01  0.14366285693E+02  0.10500000000E+00 0. -1.
    3000001    1    5    5    0    0  0.87971788692E+01 -0.11460459172E+02 -0.13649659370E+02  0.19900896498E+02  0.10000000000E+01 0.  1.
        -13    1    6    6    0    0  0.17199017258E+02 -0.13459300459E+02 -0.11579176921E+02  0.24719371486E+02  0.10500000000E+00 0. -1.
         13    1    6    6    0    0  0.12484131896E+02 -0.97631379318E+01 -0.82765494496E+01  0.17879728948E+02  0.10500000000E+00 0.  1.
</event>
<event>
11    0  0.3482988E-009  0.9118800E+02  0.7816531E-02  0.1126479E+00
         25   -1    0    0    0    0  0.00000000000E+00  0.00000000000E+00  0.99999998245E-14  0.12500000000E+03  0.12500000000E+03 0.  0.
    3000001    1    3    3    0    0 -0.11432786650E-01 -0.24028274566E+01 -0.87438112430E+01  0.91229351389E+01  0.10000000000E+01 0.  1.
    1000022    2    1    0    0    0  0.22652249797E+02 -0.13031168735E+02 -0.55886618920E+02  0.62499999255E+02  0.99999976560E+01 0.  0.
    3000022    2    3    3    0    0  0.22663682584E+02 -0.10628341278E+02 -0.47142807677E+02  0.53377064116E+02  0.25002284074E+00 0.  0.
    1000022    2    1    0    0    0 -0.22652249797E+02  0.13031168735E+02  0.55886618920E+02  0.62500000745E+02  0.10000006969E+02 0.  0.
    3000022    2    5    5    0    0 -0.17804838907E+02  0.10839030016E+02  0.51409645471E+02  0.55475318848E+02  0.24998714977E+00 0.  0.
        -13    1    4    4    0    0  0.10502295784E+02 -0.48609614042E+01 -0.21722820721E+02  0.24613393256E+02  0.10500000000E+00 0.  1.
         13    1    4    4    0    0  0.12161386800E+02 -0.57673798743E+01 -0.25419986956E+02  0.28763670860E+02  0.10500000000E+00 0. -1.
    3000001    1    5    5    0    0 -0.48474108904E+01  0.21921387187E+01  0.44769734485E+01  0.70246818975E+01  0.10000000000E+01 0.  1.
        -13    1    6    6    0    0 -0.85511501052E+01  0.52508241796E+01  0.24896525660E+02  0.26842901066E+02  0.10500000000E+00 0. -1.
         13    1    6    6    0    0 -0.92536888014E+01  0.55882058368E+01  0.26513119811E+02  0.28632417782E+02  0.10500000000E+00 0.  1.
</event>
<event>
11    0  0.3482988E-009  0.9118800E+02  0.7816531E-02  0.1126479E+00
         25   -1    0    0    0    0  0.00000000000E+00  0.00000000000E+00  0.99999998245E-14  0.12500000000E+03  0.12500000000E+03 0.  0.
    3000001    1    3    3    0    0 -0.22477640943E+01 -0.58833830946E+01 -0.42914919326E+01  0.76865820147E+01  0.10000000000E+01 0.  1.
    1000022    2    1    0    0    0 -0.10537059784E+02 -0.30842216829E+02 -0.52382992936E+02  0.62499999859E+02  0.10000003279E+02 0.  0.
    3000022    2    3    3    0    0 -0.82892956901E+01 -0.24958833735E+02 -0.48091501003E+02  0.54813417844E+02  0.25000514222E+00 0.  0.
    1000022    2    1    0    0    0  0.10537059784E+02  0.30842216829E+02  0.52382992936E+02  0.62500000141E+02  0.10000005044E+02 0.  0.
    3000022    2    5    5    0    0  0.86586376952E+00 -0.64019353098E+00  0.12333528916E+01  0.16562669298E+01  0.24998592540E+00 0.  0.
        -13    1    4    4    0    0 -0.46496487770E+01 -0.13788981674E+02 -0.26607130999E+02  0.30326649903E+02  0.10500000000E+00 0. -1.
         13    1    4    4    0    0 -0.36396469131E+01 -0.11169852060E+02 -0.21484370004E+02  0.24486767941E+02  0.10500000000E+00 0.  1.
    3000001    1    5    5    0    0  0.96711960149E+01  0.31482410360E+02  0.51149640044E+02  0.60843733211E+02  0.10000000000E+01 0. -1.
        -13    1    6    6    0    0  0.61063717457E+00 -0.44546580145E+00  0.92255892571E+00  0.11972708593E+01  0.10500000000E+00 0.  1.
         13    1    6    6    0    0  0.25522659495E+00 -0.19472772952E+00  0.31079396590E+00  0.45899607041E+00  0.10500000000E+00 0. -1.
</event>
<event>
11    0  0.3482988E-009  0.9118800E+02  0.7816531E-02  0.1126479E+00
         25   -1    0    0    0    0  0.00000000000E+00  0.00000000000E+00  0.99999998245E-14  0.12500000000E+03  0.12500000000E+03 0.  0.
    3000001    1    3    3    0    0  0.74219059734E+01 -0.11290654575E+02  0.24761667844E+01  0.13772979741E+02  0.10000000000E+01 0. -1.
    1000022    2    1    0    0    0  0.16689217849E+02 -0.57834890208E+02  0.13522031715E+02  0.62500000708E+02  0.10000011451E+02 0.  0.
    3000022    2    3    3    0    0  0.92673118760E+01 -0.46544235633E+02  0.11045864930E+02  0.48727020967E+02  0.25000033740E+00 0.  0.
    1000022    2    1    0    0    0 -0.16689217849E+02  0.57834890208E+02 -0.13522031715E+02  0.62499999292E+02  0.10000002600E+02 0.  0.
    3000022    2    5    5    0    0 -0.17616726012E+02  0.50434303261E+02 -0.12836171566E+02  0.54943587266E+02  0.25000087237E+00 0.  0.
        -13    1    4    4    0    0  0.57986253542E+01 -0.28827101051E+02  0.68635203816E+01  0.30195111327E+02  0.10500000000E+00 0.  1.
         13    1    4    4    0    0  0.34686865218E+01 -0.17717134581E+02  0.41823445488E+01  0.18531909640E+02  0.10500000000E+00 0. -1.
    3000001    1    5    5    0    0  0.92750816288E+00  0.74005869472E+01 -0.68586014843E+00  0.75564120255E+01  0.10000000000E+01 0. -1.
        -13    1    6    6    0    0 -0.10431608725E+02  0.29818134857E+02 -0.76541374696E+01  0.32504406968E+02  0.10500000000E+00 0. -1.
         13    1    6    6    0    0 -0.71851172869E+01  0.20616168404E+02 -0.51820340968E+01  0.22439180298E+02  0.10500000000E+00 0.  1.
</event>
<event>
11    0  0.3482988E-009  0.9118800E+02  0.7816531E-02  0.1126479E+00
         25   -1    0    0    0    0  0.00000000000E+00  0.00000000000E+00  0.99999998245E-14  0.12500000000E+03  0.12500000000E+03 0.  0.
    3000001    1    3    3    0    0 -0.29847393461E+02 -0.38506799557E+02  0.35421293762E+02  0.60243742914E+02  0.10000000000E+01 0. -1.
    1000022    2    1    0    0    0 -0.32052661595E+02 -0.38731304549E+02  0.35759795831E+02  0.62499999173E+02  0.99999915686E+01 0.  0.
    3000022    2    3    3    0    0 -0.22052681346E+01 -0.22450499155E+00  0.33850206839E+00  0.22562562586E+01  0.24999723451E+00 0.  0.
    1000022    2    1    0    0    0  0.32052661595E+02  0.38731304549E+02 -0.35759795831E+02  0.62500000827E+02  0.10000001908E+02 0.  0.
    3000022    2    5    5    0    0  0.17418901364E+02  0.25737488640E+02 -0.17253463935E+02  0.35546883928E+02  0.24998593502E+00 0.  0.
        -13    1    4    4    0    0 -0.77977071592E+00 -0.31827911799E-01  0.87620879442E-01  0.79231168355E+00  0.10500000000E+00 0.  1.
         13    1    4    4    0    0 -0.14254974187E+01 -0.19267707975E+00  0.25088118895E+00  0.14639445750E+01  0.10500000000E+00 0. -1.
    3000001    1    5    5    0    0  0.14633760231E+02  0.12993815908E+02 -0.18506331895E+02  0.26953116899E+02  0.10000000000E+01 0. -1.
        -13    1    6    6    0    0  0.10294567891E+02  0.15101409428E+02 -0.10124960631E+02  0.20893935665E+02  0.10500000000E+00 0.  1.
         13    1    6    6    0    0  0.71243334727E+01  0.10636079213E+02 -0.71285033041E+01  0.14652948263E+02  0.10500000000E+00 0. -1.
</event>
<event>
11    0  0.3482988E-009  0.9118800E+02  0.7816531E-02  0.1126479E+00
         25   -1    0    0    0    0  0.00000000000E+00  0.00000000000E+00  0.99999998245E-14  0.12500000000E+03  0.12500000000E+03 0.  0.
    3000001    1    3    3    0    0 -0.33885155235E+01  0.15776774010E+00 -0.48001887614E+00  0.35689418928E+01  0.10000000000E+01 0.  1.
    1000022    2    1    0    0    0 -0.55054371972E+02 -0.11874621511E+02  0.25184509665E+02  0.62500000206E+02  0.99999994723E+01 0.  0.
    3000022    2    3    3    0    0 -0.51665856448E+02 -0.12032389252E+02  0.25664528542E+02  0.58931058314E+02  0.24999009124E+00 0.  0.
    1000022    2    1    0    0    0  0.55054371972E+02  0.11874621511E+02 -0.25184509665E+02  0.62499999794E+02  0.99999968921E+01 0.  0.
    3000022    2    5    5    0    0  0.75089246439E+00 -0.12509546195E+00 -0.21538762696E+01  0.22980798185E+01  0.24999899966E+00 0.  0.
        -13    1    4    4    0    0 -0.38712099294E+02 -0.90415287516E+01  0.19242168500E+02  0.44166140283E+02  0.10500000000E+00 0.  1.
         13    1    4    4    0    0 -0.12953757155E+02 -0.29908604999E+01  0.64223600411E+01  0.14764918031E+02  0.10500000000E+00 0. -1.
    3000001    1    5    5    0    0  0.54303479508E+02  0.11999716973E+02 -0.23030633396E+02  0.60201919975E+02  0.10000000000E+01 0. -1.
        -13    1    6    6    0    0  0.42342772396E+00 -0.71934274419E-01 -0.13912584902E+01  0.14598255936E+01  0.10500000000E+00 0.  1.
         13    1    6    6    0    0  0.32746474043E+00 -0.53161187536E-01 -0.76261777943E+00  0.83825422491E+00  0.10500000000E+00 0. -1.
</event>
<event>
11    0  0.3482988E-009  0.9118800E+02  0.7816531E-02  0.1126479E+00
         25   -1    0    0    0    0  0.00000000000E+00  0.00000000000E+00  0.99999998245E-14  0.12500000000E+03  0.12500000000E+03 0.  0.
    3000001    1    3    3    0    0 -0.34380307945E+02  0.17715543241E+02  0.36933203331E+02  0.53487452313E+02  0.10000000000E+01 0.  1.
    1000022    2    1    0    0    0 -0.37188813680E+02  0.23468095510E+02  0.43272285378E+02  0.62500000393E+02  0.99999998772E+01 0.  0.
    3000022    2    3    3    0    0 -0.28085057352E+01  0.57525522689E+01  0.63390820472E+01  0.90125480800E+01  0.24999924217E+00 0.  0.
    1000022    2    1    0    0    0  0.37188813680E+02 -0.23468095510E+02 -0.43272285378E+02  0.62499999607E+02  0.99999949607E+01 0.  0.
    3000022    2    5    5    0    0  0.32988053183E+01 -0.49049868914E+01 -0.93893895931E+01  0.11097934521E+02  0.25000152173E+00 0.  0.
        -13    1    4    4    0    0 -0.14130654032E+01  0.30447480290E+01  0.33433425633E+01  0.47387982537E+01  0.10500000000E+00 0. -1.
         13    1    4    4    0    0 -0.13954403321E+01  0.27078042399E+01  0.29957394839E+01  0.42737498263E+01  0.10500000000E+00 0.  1.
    3000001    1    5    5    0    0  0.33890008362E+02 -0.18563108618E+02 -0.33882895785E+02  0.51402065086E+02  0.10000000000E+01 0. -1.
        -13    1    6    6    0    0  0.10098839454E+01 -0.14251423108E+01 -0.27527618489E+01  0.32618428819E+01  0.10500000000E+00 0.  1.
         13    1    6    6    0    0  0.22889213730E+01 -0.34798445806E+01 -0.66366277443E+01  0.78360916388E+01  0.10500000000E+00 0. -1.
</event>
<event>
11    0  0.3482988E-009  0.9118800E+02  0.7816531E-02  0.1126479E+00
         25   -1    0    0    0    0  0.00000000000E+00  0.00000000000E+00  0.99999998245E-14  0.12500000000E+03  0.12500000000E+03 0.  0.
    3000001    1    3    3    0    0 -0.14490962394E+01 -0.14631803863E+01 -0.57116042170E+02  0.57161902085E+02  0.10000000000E+01 0. -1.
    1000022    2    1    0    0    0  0.32414894074E+00  0.62488760549E+00 -0.61690795941E+02  0.62499999263E+02  0.10000002352E+02 0.  0.
    3000022    2    3    3    0    0  0.17732451801E+01  0.20880679918E+01 -0.45747537708E+01  0.53380971788E+01  0.24996603632E+00 0.  0.
    1000022    2    1    0    0    0 -0.32414894074E+00 -0.62488760549E+00  0.61690795941E+02  0.62500000737E+02  0.10000011560E+02 0.  0.
    3000022    2    5    5    0    0  0.17699941477E+01 -0.46709907940E+01  0.40128837453E+02  0.40439301742E+02  0.24999158349E+00 0.  0.
        -13    1    4    4    0    0  0.88459582003E+00  0.10191695072E+01 -0.23822543753E+01  0.27399593351E+01  0.10500000000E+00 0. -1.
         13    1    4    4    0    0  0.88864936007E+00  0.10688984846E+01 -0.21924993955E+01  0.25981378437E+01  0.10500000000E+00 0.  1.
    3000001    1    5    5    0    0 -0.20941430884E+01  0.40461031885E+01  0.21561958488E+02  0.22060698995E+02  0.10000000000E+01 0.  1.
        -13    1    6    6    0    0  0.12877736128E+01 -0.34151803588E+01  0.29013459530E+02  0.29242326800E+02  0.10500000000E+00 0.  1.
         13    1    6    6    0    0  0.48222053484E+00 -0.12558104352E+01  0.11115377922E+02  0.11196974942E+02  0.10500000000E+00 0. -1.
</event>
<event>
11    0  0.3482988E-009  0.9118800E+02  0.7816531E-02  0.1126479E+00
         25   -1    0    0    0    0  0.00000000000E+00  0.00000000000E+00  0.99999998245E-14  0.12500000000E+03  0.12500000000E+03 0.  0.
    3000001    1    3    3    0    0  0.38267043470E+02  0.67253605621E+01 -0.45557842579E+02  0.59884172459E+02  0.10000000000E+01 0.  1.
    1000022    2    1    0    0    0  0.39506915924E+02  0.87814586631E+01 -0.46565438740E+02  0.62500003655E+02  0.99999974853E+01 0.  0.
    3000022    2    3    3    0    0  0.12398724540E+01  0.20560981010E+01 -0.10075961607E+01  0.26158311956E+01  0.24999943552E+00 0.  0.
    1000022    2    1    0    0    0 -0.39506915924E+02 -0.87814586631E+01  0.46565438740E+02  0.62499996345E+02  0.99999517973E+01 0.  0.
    3000022    2    5    5    0    0 -0.20661429502E+02 -0.49637289837E+01  0.31749922272E+02  0.38205409569E+02  0.24996310756E+00 0.  0.
        -13    1    4    4    0    0  0.36895543420E+00  0.70403844340E+00 -0.36035259239E+00  0.87902061014E+00  0.10500000000E+00 0. -1.
         13    1    4    4    0    0  0.87091701982E+00  0.13520596576E+01 -0.64724356835E+00  0.17368105855E+01  0.10500000000E+00 0.  1.
    3000001    1    5    5    0    0 -0.18845486423E+02 -0.38177296794E+01  0.14815516468E+02  0.24294586776E+02  0.10000000000E+01 0. -1.
        -13    1    6    6    0    0 -0.65083378572E+01 -0.16142291995E+01  0.10007781249E+02  0.12047029015E+02  0.10500000000E+00 0. -1.
         13    1    6    6    0    0 -0.14153091645E+02 -0.33494997843E+01  0.21742141023E+02  0.26158380554E+02  0.10500000000E+00 0.  1.
</event>
<event>
11    0  0.3482988E-009  0.9118800E+02  0.7816531E-02  0.1126479E+00
         25   -1    0    0    0    0  0.00000000000E+00  0.00000000000E+00  0.99999998245E-14  0.12500000000E+03  0.12500000000E+03 0.  0.
    3000001    1    3    3    0    0 -0.28360296147E+01  0.37189751834E+01 -0.20457258970E+01  0.52018107266E+01  0.10000000000E+01 0.  1.
    1000022    2    1    0    0    0 -0.95423727015E+01  0.59632212776E+02 -0.12617142430E+02  0.62500000271E+02  0.10000003669E+02 0.  0.
    3000022    2    3    3    0    0 -0.67063430868E+01  0.55913237593E+02 -0.10571416533E+02  0.57298189544E+02  0.25000360004E+00 0.  0.
    1000022    2    1    0    0    0  0.95423727015E+01 -0.59632212776E+02  0.12617142430E+02  0.62499999729E+02  0.10000000285E+02 0.  0.
    3000022    2    5    5    0    0 -0.14874801216E+01 -0.63010593954E+01  0.31879168009E+01  0.72208909251E+01  0.25001121137E+00 0.  0.
        -13    1    4    4    0    0 -0.32948952452E+01  0.27170932168E+02 -0.50793989236E+01  0.27837514400E+02  0.10500000000E+00 0. -1.
         13    1    4    4    0    0 -0.34114478417E+01  0.28742305425E+02 -0.54920176095E+01  0.29460675144E+02  0.10500000000E+00 0.  1.
    3000001    1    5    5    0    0  0.11029852823E+02 -0.53331153381E+02  0.94292256292E+01  0.55279108804E+02  0.10000000000E+01 0. -1.
        -13    1    6    6    0    0 -0.82308755957E+00 -0.36891569729E+01  0.18108383911E+01  0.41925544695E+01  0.10500000000E+00 0. -1.
         13    1    6    6    0    0 -0.66439256205E+00 -0.26119024225E+01  0.13770784098E+01  0.30283364556E+01  0.10500000000E+00 0.  1.
</event>
<event>
11    0  0.3482988E-009  0.9118800E+02  0.7816531E-02  0.1126479E+00
         25   -1    0    0    0    0  0.00000000000E+00  0.00000000000E+00  0.99999998245E-14  0.12500000000E+03  0.12500000000E+03 0.  0.
    3000001    1    3    3    0    0 -0.37743318639E+01 -0.23558109372E+02 -0.57297234389E+01  0.24557276496E+02  0.10000000000E+01 0. -1.
    1000022    2    1    0    0    0 -0.35285471040E+01 -0.61461413585E+02 -0.40365664468E+01  0.62499998761E+02  0.99999985924E+01 0.  0.
    3000022    2    3    3    0    0  0.24578475998E+00 -0.37903304213E+02  0.16931569920E+01  0.37942722265E+02  0.25002369488E+00 0.  0.
    1000022    2    1    0    0    0  0.35285471040E+01  0.61461413585E+02  0.40365664468E+01  0.62500001239E+02  0.10000014084E+02 0.  0.
    3000022    2    5    5    0    0  0.31155654942E+01  0.48103371308E+02  0.71744121838E+01  0.48735775029E+02  0.24999598861E+00 0.  0.
        -13    1    4    4    0    0  0.57885923193E-01 -0.17403516673E+02  0.81588406880E+00  0.17423043224E+02  0.10500000000E+00 0. -1.
         13    1    4    4    0    0  0.18789883679E+00 -0.20499787540E+02  0.87727292322E+00  0.20519679041E+02  0.10500000000E+00 0.  1.
    3000001    1    5    5    0    0  0.41298160975E+00  0.13358042277E+02 -0.31378457370E+01  0.13764226210E+02  0.10000000000E+01 0. -1.
        -13    1    6    6    0    0  0.13088521755E+01  0.20908010267E+02  0.31662632624E+01  0.21187124283E+02  0.10500000000E+00 0. -1.
         13    1    6    6    0    0  0.18067133187E+01  0.27195361041E+02  0.40081489215E+01  0.27548650746E+02  0.10500000000E+00 0.  1.
</event>
<event>
11    0  0.3482988E-009  0.9118800E+02  0.7816531E-02  0.1126479E+00
         25   -1    0    0    0    0  0.00000000000E+00  0.00000000000E+00  0.99999998245E-14  0.12500000000E+03  0.12500000000E+03 0.  0.
    3000001    1    3    3    0    0 -0.65579466061E+01  0.46025221607E+01  0.94623919228E+01  0.12438920163E+02  0.10000000000E+01 0.  1.
    1000022    2    1    0    0    0 -0.16425238814E+02  0.33428051128E+02  0.49183603159E+02  0.62499999860E+02  0.10000004524E+02 0.  0.
    3000022    2    3    3    0    0 -0.98672922077E+01  0.28825528967E+02  0.39721211236E+02  0.50061079697E+02  0.25000513201E+00 0.  0.
    1000022    2    1    0    0    0  0.16425238814E+02 -0.33428051128E+02 -0.49183603159E+02  0.62500000140E+02  0.10000006274E+02 0.  0.
    3000022    2    5    5    0    0 -0.83474787178E+00  0.50306657456E-01 -0.13683211117E+01  0.16230030257E+01  0.25000277459E+00 0.  0.
        -13    1    4    4    0    0 -0.71259242079E+01  0.20733446330E+02  0.28629919374E+02  0.36060198292E+02  0.10500000000E+00 0. -1.
         13    1    4    4    0    0 -0.27413679998E+01  0.80920826371E+01  0.11091291863E+02  0.14000881404E+02  0.10500000000E+00 0.  1.
    3000001    1    5    5    0    0  0.17259986686E+02 -0.33478357785E+02 -0.47815282048E+02  0.60876997114E+02  0.10000000000E+01 0. -1.
        -13    1    6    6    0    0 -0.58097679851E+00  0.80615928134E-01 -0.96385787405E+00  0.11331725242E+01  0.10500000000E+00 0.  1.
         13    1    6    6    0    0 -0.25377107327E+00 -0.30309270678E-01 -0.40446323767E+00  0.48983050144E+00  0.10500000000E+00 0. -1.
</event>
<event>
11    0  0.3482988E-009  0.9118800E+02  0.7816531E-02  0.1126479E+00
         25   -1    0    0    0    0  0.00000000000E+00  0.00000000000E+00  0.99999998245E-14  0.12500000000E+03  0.12500000000E+03 0.  0.
    3000001    1    3    3    0    0  0.11966423275E+02  0.26045949676E+01  0.75161220588E+01  0.14403863778E+02  0.10000000000E+01 0. -1.
    1000022    2    1    0    0    0  0.53072357301E+02 -0.64330690943E+01  0.30792700624E+02  0.62500004929E+02  0.10000035851E+02 0.  0.
    3000022    2    3    3    0    0  0.41105934026E+02 -0.90376640619E+01  0.23276578565E+02  0.48096141151E+02  0.25000018187E+00 0.  0.
    1000022    2    1    0    0    0 -0.53072357301E+02  0.64330690943E+01 -0.30792700624E+02  0.62499995071E+02  0.99999742326E+01 0.  0.
    3000022    2    5    5    0    0 -0.93976897334E+01  0.49969239906E+01 -0.68906896616E+01  0.12681873589E+02  0.24998404999E+00 0.  0.
        -13    1    4    4    0    0  0.21139394733E+02 -0.46329615643E+01  0.12044203403E+02  0.24767159772E+02  0.10500000000E+00 0.  1.
         13    1    4    4    0    0  0.19966539293E+02 -0.44047024976E+01  0.11232375161E+02  0.23328981379E+02  0.10500000000E+00 0. -1.
    3000001    1    5    5    0    0 -0.43674667568E+02  0.14361451037E+01 -0.23902010962E+02  0.49818121481E+02  0.10000000000E+01 0.  1.
        -13    1    6    6    0    0 -0.25657337726E+01  0.13240083844E+01 -0.18601463388E+01  0.34361544488E+01  0.10500000000E+00 0. -1.
         13    1    6    6    0    0 -0.68319559608E+01  0.36729156061E+01 -0.50305433228E+01  0.92457191404E+01  0.10500000000E+00 0.  1.
</event>
<event>
11    0  0.3482988E-009  0.9118800E+02  0.7816531E-02  0.1126479E+00
         25   -1    0    0    0    0  0.00000000000E+00  0.00000000000E+00  0.99999998245E-14  0.12500000000E+03  0.12500000000E+03 0.  0.
    3000001    1    3    3    0    0  0.44569458047E+02  0.30877269881E+02  0.18427767185E+02  0.57274994451E+02  0.10000000000E+01 0.  1.
    1000022    2    1    0    0    0  0.46692299672E+02  0.33544382281E+02  0.22379758873E+02  0.62499999537E+02  0.99999951828E+01 0.  0.
    3000022    2    3    3    0    0  0.21228416252E+01  0.26671123996E+01  0.39519916881E+01  0.52250050864E+01  0.24998946442E+00 0.  0.
    1000022    2    1    0    0    0 -0.46692299672E+02 -0.33544382281E+02 -0.22379758873E+02  0.62500000463E+02  0.10000000969E+02 0.  0.
    3000022    2    5    5    0    0 -0.35960855086E+02 -0.30498828151E+02 -0.18316389341E+02  0.50585711780E+02  0.25000135404E+00 0.  0.
        -13    1    4    4    0    0  0.14501499417E+01  0.18907452118E+01  0.27312219562E+01  0.36260792440E+01  0.10500000000E+00 0. -1.
         13    1    4    4    0    0  0.67269168354E+00  0.77636718781E+00  0.12207697318E+01  0.15989258424E+01  0.10500000000E+00 0.  1.
    3000001    1    5    5    0    0 -0.10731444587E+02 -0.30455541291E+01 -0.40633695321E+01  0.11914288683E+02  0.10000000000E+01 0. -1.
        -13    1    6    6    0    0 -0.15646009010E+02 -0.13337128419E+02 -0.80302774418E+01  0.22071995225E+02  0.10500000000E+00 0.  1.
         13    1    6    6    0    0 -0.20314846075E+02 -0.17161699732E+02 -0.10286111899E+02  0.28513716555E+02  0.10500000000E+00 0. -1.
</event>
<event>
11    0  0.3482988E-009  0.9118800E+02  0.7816531E-02  0.1126479E+00
         25   -1    0    0    0    0  0.00000000000E+00  0.00000000000E+00  0.99999998245E-14  0.12500000000E+03  0.12500000000E+03 0.  0.
    3000001    1    3    3    0    0  0.18321621650E+02  0.96910913913E+01  0.10822721211E+02  0.23403640030E+02  0.10000000000E+01 0.  1.
    1000022    2    1    0    0    0  0.54990020615E+02  0.16744735990E+02  0.22404495022E+02  0.62500000093E+02  0.10000003195E+02 0.  0.
    3000022    2    3    3    0    0  0.36668398964E+02  0.70536445988E+01  0.11581773810E+02  0.39096360063E+02  0.25000168780E+00 0.  0.
    1000022    2    1    0    0    0 -0.54990020615E+02 -0.16744735990E+02 -0.22404495022E+02  0.62499999907E+02  0.10000002030E+02 0.  0.
    3000022    2    5    5    0    0 -0.18803032026E+02 -0.18804074278E+01 -0.10375351580E+02  0.21559229291E+02  0.25000345393E+00 0.  0.
        -13    1    4    4    0    0  0.26415634866E+02  0.50411333970E+01  0.83437600829E+01  0.28157204205E+02  0.10500000000E+00 0. -1.
         13    1    4    4    0    0  0.10252764098E+02  0.20125112018E+01  0.32380137276E+01  0.10939155858E+02  0.10500000000E+00 0.  1.
    3000001    1    5    5    0    0 -0.36186988588E+02 -0.14864328562E+02 -0.12029143442E+02  0.40940770616E+02  0.10000000000E+01 0. -1.
        -13    1    6    6    0    0 -0.46967570436E+01 -0.47392744126E+00 -0.26218687246E+01  0.54008660931E+01  0.10500000000E+00 0. -1.
         13    1    6    6    0    0 -0.14106274983E+02 -0.14064799866E+01 -0.77534828553E+01  0.16158363198E+02  0.10500000000E+00 0.  1.
</event>
<event>
11    0  0.3482988E-009  0.9118800E+02  0.7816531E-02  0.1126479E+00
         25   -1    0    0    0    0  0.00000000000E+00  0.00000000000E+00  0.99999998245E-14  0.12500000000E+03  0.12500000000E+03 0.  0.
    3000001    1    3    3    0    0  0.14527597390E+02  0.28376479656E+01 -0.29065779022E+02  0.32633155564E+02  0.10000000000E+01 0. -1.
    1000022    2    1    0    0    0  0.23510459171E+02 -0.28935532542E+01 -0.56966092482E+02  0.62500001048E+02  0.10000004870E+02 0.  0.
    3000022    2    3    3    0    0  0.89828617812E+01 -0.57312012199E+01 -0.27900313461E+02  0.29866845484E+02  0.24998954262E+00 0.  0.
    1000022    2    1    0    0    0 -0.23510459171E+02  0.28935532542E+01  0.56966092482E+02  0.62499998952E+02  0.99999917719E+01 0.  0.
    3000022    2    5    5    0    0 -0.14221980023E+02  0.13712492038E+01  0.45165801900E+02  0.47372536761E+02  0.25007552174E+00 0.  0.
        -13    1    4    4    0    0  0.35769515222E+01 -0.23501995470E+01 -0.11132873559E+02  0.11927695452E+02  0.10500000000E+00 0.  1.
         13    1    4    4    0    0  0.54059102590E+01 -0.33810016728E+01 -0.16767439902E+02  0.17939150033E+02  0.10500000000E+00 0. -1.
    3000001    1    5    5    0    0 -0.92884791484E+01  0.15223040504E+01  0.11800290582E+02  0.15127462191E+02  0.10000000000E+01 0.  1.
        -13    1    6    6    0    0 -0.10755546084E+02  0.10457015765E+01  0.34224806710E+02  0.35890439990E+02  0.10500000000E+00 0. -1.
         13    1    6    6    0    0 -0.34664339391E+01  0.32554762725E+00  0.10940995190E+02  0.11482096771E+02  0.10500000000E+00 0.  1.
</event>
<event>
11    0  0.3482988E-009  0.9118800E+02  0.7816531E-02  0.1126479E+00
         25   -1    0    0    0    0  0.00000000000E+00  0.00000000000E+00  0.99999998245E-14  0.12500000000E+03  0.12500000000E+03 0.  0.
    3000001    1    3    3    0    0  0.50104833540E+01  0.17072895906E+02 -0.59190213488E+01  0.18778272865E+02  0.10000000000E+01 0. -1.
    1000022    2    1    0    0    0  0.25875783798E+02  0.55440687307E+02 -0.79387313183E+01  0.62500005624E+02  0.10000062592E+02 0.  0.
    3000022    2    3    3    0    0  0.20865300444E+02  0.38367791401E+02 -0.20197099696E+01  0.43721732760E+02  0.25001501179E+00 0.  0.
    1000022    2    1    0    0    0 -0.25875783798E+02 -0.55440687307E+02  0.79387313183E+01  0.62499994376E+02  0.99999922896E+01 0.  0.
    3000022    2    5    5    0    0 -0.55973367316E+01 -0.14744085900E+02  0.63180884450E+01  0.16991146172E+02  0.25011822746E+00 0.  0.
        -13    1    4    4    0    0  0.68484344271E+01  0.12675265558E+02 -0.70169208540E+00  0.14424521061E+02  0.10500000000E+00 0.  1.
         13    1    4    4    0    0  0.14016866017E+02  0.25692525843E+02 -0.13180178842E+01  0.29297211698E+02  0.10500000000E+00 0. -1.
    3000001    1    5    5    0    0 -0.20278447066E+02 -0.40696601407E+02  0.16206428734E+01  0.45508848204E+02  0.10000000000E+01 0. -1.
        -13    1    6    6    0    0 -0.24641985293E+01 -0.66786336071E+01  0.28457253935E+01  0.76671767467E+01  0.10500000000E+00 0.  1.
         13    1    6    6    0    0 -0.31331382023E+01 -0.80654522928E+01  0.34723630515E+01  0.93239694253E+01  0.10500000000E+00 0. -1.
</event>
<event>
11    0  0.3482988E-009  0.9118800E+02  0.7816531E-02  0.1126479E+00
         25   -1    0    0    0    0  0.00000000000E+00  0.00000000000E+00  0.99999998245E-14  0.12500000000E+03  0.12500000000E+03 0.  0.
    3000001    1    3    3    0    0  0.13518017048E+02 -0.79909067744E+01 -0.44588439321E+02  0.47283404035E+02  0.10000000000E+01 0.  1.
    1000022    2    1    0    0    0  0.12545264097E+02 -0.89224824261E+01 -0.59743248398E+02  0.62499999496E+02  0.99999932022E+01 0.  0.
    3000022    2    3    3    0    0 -0.97275295189E+00 -0.93157565168E+00 -0.15154809076E+02  0.15216595462E+02  0.24991559109E+00 0.  0.
    1000022    2    1    0    0    0 -0.12545264097E+02  0.89224824261E+01  0.59743248398E+02  0.62500000504E+02  0.99999994990E+01 0.  0.
    3000022    2    5    5    0    0 -0.85376482540E+01  0.70911558326E+01  0.54312664384E+02  0.55435583715E+02  0.25000121187E+00 0.  0.
        -13    1    4    4    0    0 -0.69134511428E+00 -0.60256785874E+00 -0.10527394953E+02  0.10567786693E+02  0.10500000000E+00 0.  1.
         13    1    4    4    0    0 -0.28140783761E+00 -0.32900779294E+00 -0.46274141237E+01  0.46488087691E+01  0.10500000000E+00 0. -1.
    3000001    1    5    5    0    0 -0.40076158426E+01  0.18313265935E+01  0.54305840135E+01  0.70644167885E+01  0.10000000000E+01 0. -1.
        -13    1    6    6    0    0 -0.64311306159E+01  0.53180035323E+01  0.40743768296E+02  0.41589737706E+02  0.10500000000E+00 0. -1.
         13    1    6    6    0    0 -0.21065176381E+01  0.17731523004E+01  0.13568896089E+02  0.13845846009E+02  0.10500000000E+00 0.  1.
</event>
<event>
11    0  0.3482988E-009  0.9118800E+02  0.7816531E-02  0.1126479E+00
         25   -1    0    0    0    0  0.00000000000E+00  0.00000000000E+00  0.99999998245E-14  0.12500000000E+03  0.12500000000E+03 0.  0.
    3000001    1    3    3    0    0  0.19526775747E+02 -0.66510997292E+01  0.27648763840E+02  0.34510668504E+02  0.10000000000E+01 0.  1.
    1000022    2    1    0    0    0  0.28205942209E+02 -0.16922410443E+02  0.52194891262E+02  0.62499999052E+02  0.10000002830E+02 0.  0.
    3000022    2    3    3    0    0  0.86791664617E+01 -0.10271310714E+02  0.24546127422E+02  0.27989330548E+02  0.24999778421E+00 0.  0.
    1000022    2    1    0    0    0 -0.28205942209E+02  0.16922410443E+02 -0.52194891262E+02  0.62500000948E+02  0.10000014675E+02 0.  0.
    3000022    2    5    5    0    0 -0.16687568366E+01 -0.70783370184E+00 -0.67298351743E+01  0.69741597460E+01  0.24988949515E+00 0.  0.
        -13    1    4    4    0    0  0.53288301446E+01 -0.62168150805E+01  0.14897678779E+02  0.16999914072E+02  0.10500000000E+00 0. -1.
         13    1    4    4    0    0  0.33503363170E+01 -0.40544956338E+01  0.96484486423E+01  0.10989416476E+02  0.10500000000E+00 0.  1.
    3000001    1    5    5    0    0 -0.26537185373E+02  0.17630244145E+02 -0.45465056087E+02  0.55525841202E+02  0.10000000000E+01 0.  1.
        -13    1    6    6    0    0 -0.10755501281E+01 -0.49902010354E+00 -0.42285581996E+01  0.43928986546E+01  0.10500000000E+00 0. -1.
         13    1    6    6    0    0 -0.59320670853E+00 -0.20881359830E+00 -0.25012769747E+01  0.25812610914E+01  0.10500000000E+00 0.  1.
</event>
<event>
11    0  0.3482988E-009  0.9118800E+02  0.7816531E-02  0.1126479E+00
         25   -1    0    0    0    0  0.00000000000E+00  0.00000000000E+00  0.99999998245E-14  0.12500000000E+03  0.12500000000E+03 0.  0.
    3000001    1    3    3    0    0 -0.40260576354E+02 -0.35724944166E+02 -0.99678454725E+01  0.54749827282E+02  0.10000000000E+01 0. -1.
    1000022    2    1    0    0    0 -0.47000585389E+02 -0.37712477968E+02 -0.13227383099E+02  0.62499994670E+02  0.99999824361E+01 0.  0.
    3000022    2    3    3    0    0 -0.67400090354E+01 -0.19875338020E+01 -0.32595376266E+01  0.77501673886E+01  0.24999320291E+00 0.  0.
    1000022    2    1    0    0    0  0.47000585389E+02  0.37712477968E+02  0.13227383099E+02  0.62500005330E+02  0.10000049057E+02 0.  0.
    3000022    2    5    5    0    0  0.10200845188E+02  0.11192173353E+02 -0.32189940750E+00  0.15148864982E+02  0.25000821901E+00 0.  0.
        -13    1    4    4    0    0 -0.49198338296E+01 -0.14839459632E+01 -0.23652851930E+01  0.56579554237E+01  0.10500000000E+00 0. -1.
         13    1    4    4    0    0 -0.18201752058E+01 -0.50358783877E+00 -0.89425243357E+00  0.20922119649E+01  0.10500000000E+00 0.  1.
    3000001    1    5    5    0    0  0.36799740201E+02  0.26520304615E+02  0.13549282507E+02  0.47351140348E+02  0.10000000000E+01 0. -1.
        -13    1    6    6    0    0  0.54473856885E+01  0.58767991584E+01 -0.17396116670E+00  0.80157386856E+01  0.10500000000E+00 0.  1.
         13    1    6    6    0    0  0.47534594992E+01  0.53153741944E+01 -0.14793824080E+00  0.71331262963E+01  0.10500000000E+00 0. -1.
</event>
<event>
11    0  0.3482988E-009  0.9118800E+02  0.7816531E-02  0.1126479E+00
         25   -1    0    0    0    0  0.00000000000E+00  0.00000000000E+00  0.99999998245E-14  0.12500000000E+03  0.12500000000E+03 0.  0.
    3000001    1    3    3    0    0 -0.42278668939E+02  0.22128051296E+02  0.63656506195E+01  0.48152445517E+02  0.10000000000E+01 0.  1.
    1000022    2    1    0    0    0 -0.52835706309E+02  0.28956104314E+02  0.13273361707E+02  0.62500000086E+02  0.10000002073E+02 0.  0.
    3000022    2    3    3    0    0 -0.10557037370E+02  0.68280530175E+01  0.69077110875E+01  0.14347554569E+02  0.25000718678E+00 0.  0.
    1000022    2    1    0    0    0  0.52835706309E+02 -0.28956104314E+02 -0.13273361707E+02  0.62499999914E+02  0.10000001003E+02 0.  0.
    3000022    2    5    5    0    0  0.25403632811E+02 -0.14149977443E+02 -0.13539800113E+01  0.29111203750E+02  0.25000048963E+00 0.  0.
        -13    1    4    4    0    0 -0.29723012744E+01  0.19157733179E+01  0.19888157858E+01  0.40584696008E+01  0.10500000000E+00 0.  1.
         13    1    4    4    0    0 -0.75847360960E+01  0.49122796996E+01  0.49188953017E+01  0.10289084968E+02  0.10500000000E+00 0. -1.
    3000001    1    5    5    0    0  0.27432073498E+02 -0.14806126870E+02 -0.11919381696E+02  0.33388796164E+02  0.10000000000E+01 0.  1.
        -13    1    6    6    0    0  0.14420501451E+02 -0.79667440903E+01 -0.73477742391E+00  0.16491537114E+02  0.10500000000E+00 0. -1.
         13    1    6    6    0    0  0.10983131360E+02 -0.61832333530E+01 -0.61920258744E+00  0.12619666636E+02  0.10500000000E+00 0.  1.
</event>
<event>
11    0  0.3482988E-009  0.9118800E+02  0.7816531E-02  0.1126479E+00
         25   -1    0    0    0    0  0.00000000000E+00  0.00000000000E+00  0.99999998245E-14  0.12500000000E+03  0.12500000000E+03 0.  0.
    3000001    1    3    3    0    0 -0.18583861037E+02  0.33244781847E+02  0.10926037308E+01  0.38115209484E+02  0.10000000000E+01 0.  1.
    1000022    2    1    0    0    0 -0.23080275627E+02  0.57140470657E+02  0.29184856358E+01  0.62500000492E+02  0.99999996571E+01 0.  0.
    3000022    2    3    3    0    0 -0.44964145901E+01  0.23895688810E+02  0.18258819050E+01  0.24384791007E+02  0.24999979331E+00 0.  0.
    1000022    2    1    0    0    0  0.23080275627E+02 -0.57140470657E+02 -0.29184856358E+01  0.62499999508E+02  0.99999935116E+01 0.  0.
    3000022    2    5    5    0    0  0.43881808627E+01 -0.22210817570E+02 -0.32218622727E+01  0.22869618374E+02  0.24999934464E+00 0.  0.
        -13    1    4    4    0    0 -0.14959855318E+01  0.78095892770E+01  0.64257892930E+00  0.79781946621E+01  0.10500000000E+00 0. -1.
         13    1    4    4    0    0 -0.30004290584E+01  0.16086099533E+02  0.11833029757E+01  0.16406596345E+02  0.10500000000E+00 0.  1.
    3000001    1    5    5    0    0  0.18692094764E+02 -0.34929653087E+02  0.30337663696E+00  0.39630381134E+02  0.10000000000E+01 0. -1.
        -13    1    6    6    0    0  0.13111540234E+01 -0.68853329369E+01 -0.10000289223E+01  0.70808203883E+01  0.10500000000E+00 0. -1.
         13    1    6    6    0    0  0.30770268393E+01 -0.15325484633E+02 -0.22218333504E+01  0.15788797986E+02  0.10500000000E+00 0.  1.
</event>
<event>
11    0  0.3482988E-009  0.9118800E+02  0.7816531E-02  0.1126479E+00
         25   -1    0    0    0    0  0.00000000000E+00  0.00000000000E+00  0.99999998245E-14  0.12500000000E+03  0.12500000000E+03 0.  0.
    3000001    1    3    3    0    0  0.13836280113E+01 -0.14672866140E+02  0.55683591719E+01  0.15786514850E+02  0.10000000000E+01 0.  1.
    1000022    2    1    0    0    0 -0.11302263355E+02 -0.56557413054E+02  0.21903600836E+02  0.62500000395E+02  0.10000009573E+02 0.  0.
    3000022    2    3    3    0    0 -0.12685891366E+02 -0.41884546913E+02  0.16335241664E+02  0.46713485544E+02  0.25000317559E+00 0.  0.
    1000022    2    1    0    0    0  0.11302263355E+02  0.56557413054E+02 -0.21903600836E+02  0.62499999605E+02  0.10000004640E+02 0.  0.
    3000022    2    5    5    0    0  0.92286594449E+01  0.33415758768E+02 -0.86415875202E+01  0.35728428986E+02  0.25002743199E+00 0.  0.
        -13    1    4    4    0    0 -0.74132804077E+01 -0.24663685712E+02  0.95765073846E+01  0.27476801815E+02  0.10500000000E+00 0. -1.
         13    1    4    4    0    0 -0.52726109587E+01 -0.17220861201E+02  0.67587342795E+01  0.19236683729E+02  0.10500000000E+00 0.  1.
    3000001    1    5    5    0    0  0.20736039101E+01  0.23141654285E+02 -0.13262013316E+02  0.26771570619E+02  0.10000000000E+01 0. -1.
        -13    1    6    6    0    0  0.29490112848E+01  0.10757769492E+02 -0.27326945641E+01  0.11484986573E+02  0.10500000000E+00 0. -1.
         13    1    6    6    0    0  0.62796481602E+01  0.22657989276E+02 -0.59088929562E+01  0.24243442413E+02  0.10500000000E+00 0.  1.
</event>
<event>
11    0  0.3482988E-009  0.9118800E+02  0.7816531E-02  0.1126479E+00
         25   -1    0    0    0    0  0.00000000000E+00  0.00000000000E+00  0.99999998245E-14  0.12500000000E+03  0.12500000000E+03 0.  0.
    3000001    1    3    3    0    0 -0.46715075309E+02 -0.50078779822E+01 -0.38882159106E+02  0.60993437350E+02  0.10000000000E+01 0. -1.
    1000022    2    1    0    0    0 -0.46404072047E+02 -0.52077486657E+01 -0.40321105147E+02  0.62499999804E+02  0.99999953233E+01 0.  0.
    3000022    2    3    3    0    0  0.31100326161E+00 -0.19987068352E+00 -0.14389460411E+01  0.15065624541E+01  0.24998679951E+00 0.  0.
    1000022    2    1    0    0    0  0.46404072047E+02  0.52077486657E+01  0.40321105147E+02  0.62500000196E+02  0.99999977736E+01 0.  0.
    3000022    2    5    5    0    0  0.11703762554E+02  0.56731600643E+01  0.11947843906E+02  0.17662849972E+02  0.24998422795E+00 0.  0.
        -13    1    4    4    0    0  0.14503738404E+00 -0.13454240577E+00 -0.55029469410E+00  0.59412688213E+00  0.10500000000E+00 0. -1.
         13    1    4    4    0    0  0.16596587757E+00 -0.65328277747E-01 -0.88865134703E+00  0.91243557195E+00  0.10500000000E+00 0.  1.
    3000001    1    5    5    0    0  0.34700309493E+02 -0.46541139864E+00  0.28373261242E+02  0.44837150224E+02  0.10000000000E+01 0.  1.
        -13    1    6    6    0    0  0.39102208427E+01  0.18477046797E+01  0.39303875100E+01  0.58448961155E+01  0.10500000000E+00 0. -1.
         13    1    6    6    0    0  0.77935417112E+01  0.38254553847E+01  0.80174563955E+01  0.11817953857E+02  0.10500000000E+00 0.  1.
</event>
<event>
11    0  0.3482988E-009  0.9118800E+02  0.7816531E-02  0.1126479E+00
         25   -1    0    0    0    0  0.00000000000E+00  0.00000000000E+00  0.99999998245E-14  0.12500000000E+03  0.12500000000E+03 0.  0.
    3000001    1    3    3    0    0 -0.30429754478E+02 -0.53471011241E+01 -0.40930360259E+02  0.51291869131E+02  0.10000000000E+01 0.  1.
    1000022    2    1    0    0    0 -0.39004795458E+02 -0.94620450592E+01 -0.46854515723E+02  0.62500000466E+02  0.10000002460E+02 0.  0.
    3000022    2    3    3    0    0 -0.85750409798E+01 -0.41149439351E+01 -0.59241554637E+01  0.11208131335E+02  0.24999733000E+00 0.  0.
    1000022    2    1    0    0    0  0.39004795458E+02  0.94620450592E+01  0.46854515723E+02  0.62499999534E+02  0.99999966364E+01 0.  0.
    3000022    2    5    5    0    0  0.16268157784E+01 -0.10955644756E+01  0.54595540166E+00  0.20511844669E+01  0.24999863917E+00 0.  0.
        -13    1    4    4    0    0 -0.29329650747E+01 -0.14530987524E+01 -0.19953104275E+01  0.38348492559E+01  0.10500000000E+00 0.  1.
         13    1    4    4    0    0 -0.56420759051E+01 -0.26618451828E+01 -0.39288450363E+01  0.73732820789E+01  0.10500000000E+00 0. -1.
    3000001    1    5    5    0    0  0.37377979680E+02  0.10557609535E+02  0.46308560321E+02  0.60448815067E+02  0.10000000000E+01 0.  1.
        -13    1    6    6    0    0  0.59334278014E+00 -0.40080151526E+00  0.13929973468E+00  0.73697145498E+00  0.10500000000E+00 0. -1.
         13    1    6    6    0    0  0.10334729983E+01 -0.69476296033E+00  0.40665566698E+00  0.13142130119E+01  0.10500000000E+00 0.  1.
</event>
<event>
11    0  0.3482988E-009  0.9118800E+02  0.7816531E-02  0.1126479E+00
         25   -1    0    0    0    0  0.00000000000E+00  0.00000000000E+00  0.99999998245E-14  0.12500000000E+03  0.12500000000E+03 0.  0.
    3000001    1    3    3    0    0  0.94850923260E+00  0.76687415643E+01 -0.39845700827E+02  0.40600358882E+02  0.10000000000E+01 0.  1.
    1000022    2    1    0    0    0 -0.35036040452E+01  0.64791376811E+01 -0.61253534046E+02  0.62500000343E+02  0.10000007170E+02 0.  0.
    3000022    2    3    3    0    0 -0.44521132778E+01 -0.11896038832E+01 -0.21407833219E+02  0.21899641461E+02  0.25000594226E+00 0.  0.
    1000022    2    1    0    0    0  0.35036040452E+01 -0.64791376811E+01  0.61253534046E+02  0.62499999657E+02  0.10000002883E+02 0.  0.
    3000022    2    5    5    0    0 -0.28965961370E+01 -0.48473238079E+01  0.31796578688E+02  0.32295072942E+02  0.25000564415E+00 0.  0.
        -13    1    4    4    0    0 -0.27437936383E+01 -0.77932640131E+00 -0.13438674215E+02  0.13738440335E+02  0.10500000000E+00 0. -1.
         13    1    4    4    0    0 -0.17083196395E+01 -0.41027748187E+00 -0.79691590034E+01  0.81612011264E+01  0.10500000000E+00 0.  1.
    3000001    1    5    5    0    0  0.64002001821E+01 -0.16318138733E+01  0.29456955358E+02  0.30204926715E+02  0.10000000000E+01 0.  1.
        -13    1    6    6    0    0 -0.11185252604E+01 -0.19240474132E+01  0.12215084686E+02  0.12416616934E+02  0.10500000000E+00 0. -1.
         13    1    6    6    0    0 -0.17780708766E+01 -0.29232763947E+01  0.19581494002E+02  0.19878456008E+02  0.10500000000E+00 0.  1.
</event>
<event>
11    0  0.3482988E-009  0.9118800E+02  0.7816531E-02  0.1126479E+00
         25   -1    0    0    0    0  0.00000000000E+00  0.00000000000E+00  0.99999998245E-14  0.12500000000E+03  0.12500000000E+03 0.  0.
    3000001    1    3    3    0    0 -0.52210671189E+01  0.47901345958E+01  0.46467677713E+01  0.85321381861E+01  0.10000000000E+01 0. -1.
    1000022    2    1    0    0    0 -0.53240634142E+02  0.18228163350E+02  0.25286727973E+02  0.62499997986E+02  0.10000003686E+02 0.  0.
    3000022    2    3    3    0    0 -0.48019567023E+02  0.13438028755E+02  0.20639960201E+02  0.53967859800E+02  0.25000076303E+00 0.  0.
    1000022    2    1    0    0    0  0.53240634142E+02 -0.18228163350E+02 -0.25286727973E+02  0.62500002014E+02  0.10000028860E+02 0.  0.
    3000022    2    5    5    0    0  0.22318647923E+02 -0.33167732965E+01 -0.12888490385E+02  0.25986510256E+02  0.25000134539E+00 0.  0.
        -13    1    4    4    0    0 -0.23261972828E+02  0.65719377480E+01  0.10039695567E+02  0.26174725551E+02  0.10500000000E+00 0. -1.
         13    1    4    4    0    0 -0.24757594195E+02  0.68660910066E+01  0.10600264635E+02  0.27793134249E+02  0.10500000000E+00 0.  1.
    3000001    1    5    5    0    0  0.30921986219E+02 -0.14911390054E+02 -0.12398237588E+02  0.36513491758E+02  0.10000000000E+01 0.  1.
        -13    1    6    6    0    0  0.82313971227E+01 -0.11650917590E+01 -0.47653346497E+01  0.95829419659E+01  0.10500000000E+00 0.  1.
         13    1    6    6    0    0  0.14087250801E+02 -0.21516815375E+01 -0.81231557351E+01  0.16403568290E+02  0.10500000000E+00 0. -1.
</event>
<event>
11    0  0.3482988E-009  0.9118800E+02  0.7816531E-02  0.1126479E+00
         25   -1    0    0    0    0  0.00000000000E+00  0.00000000000E+00  0.99999998245E-14  0.12500000000E+03  0.12500000000E+03 0.  0.
    3000001    1    3    3    0    0 -0.13670176188E+02 -0.18336516743E+02 -0.78663198830E+01  0.24207035171E+02  0.10000000000E+01 0.  1.
    1000022    2    1    0    0    0 -0.43122071219E+02 -0.37964195327E+02 -0.22482366867E+02  0.62500000751E+02  0.10000006044E+02 0.  0.
    3000022    2    3    3    0    0 -0.29451895031E+02 -0.19627678584E+02 -0.14616046984E+02  0.38292965580E+02  0.24999185017E+00 0.  0.
    1000022    2    1    0    0    0  0.43122071219E+02  0.37964195327E+02  0.22482366867E+02  0.62499999249E+02  0.99999966571E+01 0.  0.
    3000022    2    5    5    0    0  0.34290669930E+02  0.30897907178E+02  0.13709807258E+02  0.48151344991E+02  0.24999430978E+00 0.  0.
        -13    1    4    4    0    0 -0.11859847201E+02 -0.79345487861E+01 -0.58300963005E+01  0.15414736065E+02  0.10500000000E+00 0.  1.
         13    1    4    4    0    0 -0.17592047830E+02 -0.11693129798E+02 -0.87859506835E+01  0.22878229515E+02  0.10500000000E+00 0. -1.
    3000001    1    5    5    0    0  0.88314012892E+01  0.70662881495E+01  0.87725596086E+01  0.14348654258E+02  0.10000000000E+01 0. -1.
        -13    1    6    6    0    0  0.22639170216E+02  0.20335978109E+02  0.90091488838E+01  0.31737356890E+02  0.10500000000E+00 0. -1.
         13    1    6    6    0    0  0.11651499714E+02  0.10561929068E+02  0.47006583746E+01  0.16413988101E+02  0.10500000000E+00 0.  1.
</event>
<event>
11    0  0.3482988E-009  0.9118800E+02  0.7816531E-02  0.1126479E+00
         25   -1    0    0    0    0  0.00000000000E+00  0.00000000000E+00  0.99999998245E-14  0.12500000000E+03  0.12500000000E+03 0.  0.
    3000001    1    3    3    0    0 -0.14702127053E+02  0.56954898730E+02 -0.89220098297E+01  0.59503069573E+02  0.10000000000E+01 0.  1.
    1000022    2    1    0    0    0 -0.14873890830E+02  0.58806996511E+02 -0.11258530307E+02  0.62500000663E+02  0.10000005553E+02 0.  0.
    3000022    2    3    3    0    0 -0.17176377777E+00  0.18520977811E+01 -0.23365204775E+01  0.29969310896E+01  0.24999805602E+00 0.  0.
    1000022    2    1    0    0    0  0.14873890830E+02 -0.58806996511E+02  0.11258530307E+02  0.62499999337E+02  0.99999972674E+01 0.  0.
    3000022    2    5    5    0    0  0.16014402174E+02 -0.51089277481E+02  0.88000636940E+01  0.54259367611E+02  0.25000402625E+00 0.  0.
        -13    1    4    4    0    0 -0.56779547374E-01  0.80812992058E+00 -0.91886553034E+00  0.12294863758E+01  0.10500000000E+00 0. -1.
         13    1    4    4    0    0 -0.11498423039E+00  0.10439678605E+01 -0.14176549471E+01  0.17674447137E+01  0.10500000000E+00 0. -1.
    3000001    1    5    5    0    0 -0.11405113437E+01 -0.77177190303E+01  0.24584666132E+01  0.82406317261E+01  0.10000000000E+01 0.  1.
        -13    1    6    6    0    0  0.10751409884E+02 -0.34254810935E+02  0.59527298280E+01  0.36392731473E+02  0.10500000000E+00 0.  1.
         13    1    6    6    0    0  0.52629922904E+01 -0.16834466546E+02  0.28473338660E+01  0.17866636138E+02  0.10500000000E+00 0. -1.
</event>
<event>
11    0  0.3482988E-009  0.9118800E+02  0.7816531E-02  0.1126479E+00
         25   -1    0    0    0    0  0.00000000000E+00  0.00000000000E+00  0.99999998245E-14  0.12500000000E+03  0.12500000000E+03 0.  0.
    3000001    1    3    3    0    0  0.33570196068E+01 -0.44132155157E+01 -0.72908398691E+01  0.92142497158E+01  0.10000000000E+01 0. -1.
    1000022    2    1    0    0    0  0.35490994416E+02 -0.38848736484E+02 -0.32208930202E+02  0.62499999852E+02  0.99999892855E+01 0.  0.
    3000022    2    3    3    0    0  0.32133974809E+02 -0.34435520968E+02 -0.24918090333E+02  0.53285750136E+02  0.25000069589E+00 0.  0.
    1000022    2    1    0    0    0 -0.35490994416E+02  0.38848736484E+02  0.32208930202E+02  0.62500000148E+02  0.99999911389E+01 0.  0.
    3000022    2    5    5    0    0 -0.25799105628E+02  0.21363986649E+02  0.18875808220E+02  0.38449608741E+02  0.24999926561E+00 0.  0.
        -13    1    4    4    0    0  0.20254112963E+02 -0.21636290662E+02 -0.15721256711E+02  0.33548876331E+02  0.10500000000E+00 0. -1.
         13    1    4    4    0    0  0.11879861846E+02 -0.12799230306E+02 -0.91968336220E+01  0.19736873805E+02  0.10500000000E+00 0.  1.
    3000001    1    5    5    0    0 -0.96918887879E+01  0.17484749835E+02  0.13333121982E+02  0.24050391407E+02  0.10000000000E+01 0.  1.
        -13    1    6    6    0    0 -0.65102081336E+01  0.53750235834E+01  0.47294347465E+01  0.96774101125E+01  0.10500000000E+00 0.  1.
         13    1    6    6    0    0 -0.19288897495E+02  0.15988963065E+02  0.14146373474E+02  0.28772198628E+02  0.10500000000E+00 0. -1.
</event>
<event>
11    0  0.3482988E-009  0.9118800E+02  0.7816531E-02  0.1126479E+00
         25   -1    0    0    0    0  0.00000000000E+00  0.00000000000E+00  0.99999998245E-14  0.12500000000E+03  0.12500000000E+03 0.  0.
    3000001    1    3    3    0    0 -0.25863096531E+01 -0.87778176887E+00  0.49362415669E+00  0.29501124154E+01  0.10000000000E+01 0.  1.
    1000022    2    1    0    0    0 -0.43183050993E+02 -0.37931812492E+02 -0.22419901762E+02  0.62499997151E+02  0.99999678392E+01 0.  0.
    3000022    2    3    3    0    0 -0.40596741340E+02 -0.37054030724E+02 -0.22913525919E+02  0.59549884735E+02  0.25000334263E+00 0.  0.
    1000022    2    1    0    0    0  0.43183050993E+02  0.37931812492E+02  0.22419901762E+02  0.62500002849E+02  0.10000003457E+02 0.  0.
    3000022    2    5    5    0    0  0.11681642174E+02  0.68789418472E+01  0.17717915973E+01  0.13674149183E+02  0.25001119134E+00 0.  0.
        -13    1    4    4    0    0 -0.14442468441E+02 -0.13151889861E+02 -0.82004265589E+01  0.21185257193E+02  0.10500000000E+00 0. -1.
         13    1    4    4    0    0 -0.26154272899E+02 -0.23902140863E+02 -0.14713099360E+02  0.38364627542E+02  0.10500000000E+00 0.  1.
    3000001    1    5    5    0    0  0.31501408819E+02  0.31052870645E+02  0.20648110165E+02  0.48825853667E+02  0.10000000000E+01 0.  1.
        -13    1    6    6    0    0  0.85936066573E+01  0.50982949038E+01  0.13112125625E+01  0.10078342606E+02  0.10500000000E+00 0. -1.
         13    1    6    6    0    0  0.30880355165E+01  0.17806469434E+01  0.46057903481E+00  0.35958065764E+01  0.10500000000E+00 0.  1.
</event>
<event>
11    0  0.3482988E-009  0.9118800E+02  0.7816531E-02  0.1126479E+00
         25   -1    0    0    0    0  0.00000000000E+00  0.00000000000E+00  0.99999998245E-14  0.12500000000E+03  0.12500000000E+03 0.  0.
    3000001    1    3    3    0    0  0.14240234325E+02 -0.11912240567E+02 -0.69476164451E+01  0.19848302780E+02  0.10000000000E+01 0.  1.
    1000022    2    1    0    0    0  0.50619953231E+02 -0.24714062129E+02 -0.25161188162E+02  0.62500000063E+02  0.10000004308E+02 0.  0.
    3000022    2    3    3    0    0  0.36379718906E+02 -0.12801821562E+02 -0.18213571717E+02  0.42651697284E+02  0.25000702294E+00 0.  0.
    1000022    2    1    0    0    0 -0.50619953231E+02  0.24714062129E+02  0.25161188162E+02  0.62499999937E+02  0.10000003518E+02 0.  0.
    3000022    2    5    5    0    0 -0.30880979806E+02  0.20277666128E+02  0.16841024275E+02  0.40601739539E+02  0.24999516807E+00 0.  0.
        -13    1    4    4    0    0  0.21643607247E+02 -0.76830166435E+01 -0.10837319832E+02  0.25395531213E+02  0.10500000000E+00 0.  1.
         13    1    4    4    0    0  0.14736111658E+02 -0.51188049181E+01 -0.73762518848E+01  0.17256166071E+02  0.10500000000E+00 0. -1.
    3000001    1    5    5    0    0 -0.19738973425E+02  0.44363960013E+01  0.83201638877E+01  0.21898260398E+02  0.10000000000E+01 0.  1.
        -13    1    6    6    0    0 -0.15266416161E+02  0.10059382086E+02  0.84015958958E+01  0.20120946026E+02  0.10500000000E+00 0.  1.
         13    1    6    6    0    0 -0.15614563645E+02  0.10218284041E+02  0.84394283788E+01  0.20480793513E+02  0.10500000000E+00 0. -1.
</event>
<event>
11    0  0.3482988E-009  0.9118800E+02  0.7816531E-02  0.1126479E+00
         25   -1    0    0    0    0  0.00000000000E+00  0.00000000000E+00  0.99999998245E-14  0.12500000000E+03  0.12500000000E+03 0.  0.
    3000001    1    3    3    0    0  0.16289780845E+02 -0.56582208224E+02 -0.12712258004E+02  0.60245371200E+02  0.10000000000E+01 0. -1.
    1000022    2    1    0    0    0  0.16643146051E+02 -0.57560942613E+02 -0.14696715673E+02  0.62500000975E+02  0.10000012263E+02 0.  0.
    3000022    2    3    3    0    0  0.35336520630E+00 -0.97873438932E+00 -0.19844576695E+01  0.22546297749E+01  0.24999041121E+00 0.  0.
    1000022    2    1    0    0    0 -0.16643146051E+02  0.57560942613E+02  0.14696715673E+02  0.62499999025E+02  0.10000000081E+02 0.  0.
    3000022    2    5    5    0    0 -0.14233225357E+02  0.32246039385E+02  0.72816510359E+01  0.35992731592E+02  0.25005119691E+00 0.  0.
        -13    1    4    4    0    0  0.79782615651E-01 -0.36613643951E+00 -0.65862218665E+00  0.76500283846E+00  0.10500000000E+00 0. -1.
         13    1    4    4    0    0  0.27358259065E+00 -0.61259794981E+00 -0.13258354829E+01  0.14896269364E+01  0.10500000000E+00 0.  1.
    3000001    1    5    5    0    0 -0.24099206949E+01  0.25314903228E+02  0.74150646372E+01  0.26507267433E+02  0.10000000000E+01 0.  1.
        -13    1    6    6    0    0 -0.51781721969E+01  0.11637608999E+02  0.25861243716E+01  0.12997941174E+02  0.10500000000E+00 0.  1.
         13    1    6    6    0    0 -0.90550531597E+01  0.20608430386E+02  0.46955266643E+01  0.22994790418E+02  0.10500000000E+00 0. -1.
</event>
<event>
11    0  0.3482988E-009  0.9118800E+02  0.7816531E-02  0.1126479E+00
         25   -1    0    0    0    0  0.00000000000E+00  0.00000000000E+00  0.99999998245E-14  0.12500000000E+03  0.12500000000E+03 0.  0.
    3000001    1    3    3    0    0 -0.46798229037E-01  0.37090762778E+01  0.51703598515E+00  0.38764369102E+01  0.10000000000E+01 0.  1.
    1000022    2    1    0    0    0 -0.23100439280E+02  0.54038767840E+02 -0.18773156681E+02  0.62500000851E+02  0.99999984989E+01 0.  0.
    3000022    2    3    3    0    0 -0.23053641051E+02  0.50329691562E+02 -0.19290192666E+02  0.58623563940E+02  0.24999507399E+00 0.  0.
    1000022    2    1    0    0    0  0.23100439280E+02 -0.54038767840E+02  0.18773156681E+02  0.62499999149E+02  0.99999878667E+01 0.  0.
    3000022    2    5    5    0    0  0.23113973332E+02 -0.46896749125E+02  0.17756473872E+02  0.55216987518E+02  0.25000901146E+00 0.  0.
        -13    1    4    4    0    0 -0.73890086526E+01  0.16015331785E+02 -0.61613736079E+01  0.18683197018E+02  0.10500000000E+00 0. -1.
         13    1    4    4    0    0 -0.15664632399E+02  0.34314359776E+02 -0.13128819059E+02  0.39940366923E+02  0.10500000000E+00 0.  1.
    3000001    1    5    5    0    0 -0.13534051852E-01 -0.71420187142E+01  0.10166828097E+01  0.72830116312E+01  0.10000000000E+01 0.  1.
        -13    1    6    6    0    0  0.12447855090E+02 -0.25401703705E+02  0.95875346445E+01  0.29868503361E+02  0.10500000000E+00 0. -1.
         13    1    6    6    0    0  0.10666118242E+02 -0.21495045421E+02  0.81689392272E+01  0.25348484157E+02  0.10500000000E+00 0.  1.
</event>
<event>
11    0  0.3482988E-009  0.9118800E+02  0.7816531E-02  0.1126479E+00
         25   -1    0    0    0    0  0.00000000000E+00  0.00000000000E+00  0.99999998245E-14  0.12500000000E+03  0.12500000000E+03 0.  0.
    3000001    1    3    3    0    0 -0.24660121725E+02  0.15031316685E+02  0.26377450202E+02  0.39125847773E+02  0.10000000000E+01 0. -1.
    1000022    2    1    0    0    0 -0.34302878182E+02  0.29726146259E+02  0.41784193485E+02  0.62500000337E+02  0.99999996951E+01 0.  0.
    3000022    2    3    3    0    0 -0.96427564575E+01  0.14694829574E+02  0.15406743283E+02  0.23374152564E+02  0.25000239875E+00 0.  0.
    1000022    2    1    0    0    0  0.34302878182E+02 -0.29726146259E+02 -0.41784193485E+02  0.62499999663E+02  0.99999954881E+01 0.  0.
    3000022    2    5    5    0    0  0.12592780936E+01  0.12534818202E+00 -0.36244047041E+01  0.38471164694E+01  0.25000437364E+00 0.  0.
        -13    1    4    4    0    0 -0.73295348594E+01  0.11201327655E+02  0.11739350677E+02  0.17804920719E+02  0.10500000000E+00 0. -1.
         13    1    4    4    0    0 -0.23132215980E+01  0.34935019183E+01  0.36673926055E+01  0.55692318444E+01  0.10500000000E+00 0.  1.
    3000001    1    5    5    0    0  0.33043600089E+02 -0.29851494441E+02 -0.38159788781E+02  0.58652883194E+02  0.10000000000E+01 0. -1.
        -13    1    6    6    0    0  0.90517059098E+00  0.84508418237E-01 -0.26969235924E+01  0.28479637173E+01  0.10500000000E+00 0.  1.
         13    1    6    6    0    0  0.35410750259E+00  0.40839763786E-01 -0.92748111167E+00  0.99915275218E+00  0.10500000000E+00 0. -1.
</event>
<event>
11    0  0.3482988E-009  0.9118800E+02  0.7816531E-02  0.1126479E+00
         25   -1    0    0    0    0  0.00000000000E+00  0.00000000000E+00  0.99999998245E-14  0.12500000000E+03  0.12500000000E+03 0.  0.
    3000001    1    3    3    0    0  0.54946755787E+00 -0.50332982742E+00 -0.57260473445E+00  0.13722724563E+01  0.10000000000E+01 0. -1.
    1000022    2    1    0    0    0 -0.14123099771E+02 -0.21953120342E+02 -0.55900346124E+02  0.62500001381E+02  0.10000001801E+02 0.  0.
    3000022    2    3    3    0    0 -0.14672567329E+02 -0.21449790515E+02 -0.55327741389E+02  0.61127728925E+02  0.25006230456E+00 0.  0.
    1000022    2    1    0    0    0  0.14123099771E+02  0.21953120342E+02  0.55900346124E+02  0.62499998619E+02  0.99999845347E+01 0.  0.
    3000022    2    5    5    0    0  0.14064631369E+02  0.14764267777E+02  0.44988716700E+02  0.49394782999E+02  0.24999735185E+00 0.  0.
        -13    1    4    4    0    0 -0.59349794611E+01 -0.86024966952E+01 -0.22138455309E+02  0.24481608588E+02  0.10500000000E+00 0.  1.
         13    1    4    4    0    0 -0.87375878681E+01 -0.12847293820E+02 -0.33189286080E+02  0.36646120337E+02  0.10500000000E+00 0. -1.
    3000001    1    5    5    0    0  0.58468402131E-01  0.71888525653E+01  0.10911629424E+02  0.13105215620E+02  0.10000000000E+01 0.  1.
        -13    1    6    6    0    0  0.41234732122E+01  0.43079015712E+01  0.13058168785E+02  0.14355759969E+02  0.10500000000E+00 0.  1.
         13    1    6    6    0    0  0.99411581571E+01  0.10456366206E+02  0.31930547914E+02  0.35039023029E+02  0.10500000000E+00 0. -1.
</event>
<event>
11    0  0.3482988E-009  0.9118800E+02  0.7816531E-02  0.1126479E+00
         25   -1    0    0    0    0  0.00000000000E+00  0.00000000000E+00  0.99999998245E-14  0.12500000000E+03  0.12500000000E+03 0.  0.
    3000001    1    3    3    0    0 -0.21129000626E+01  0.27878702535E+01 -0.21960550610E+02  0.22259882082E+02  0.10000000000E+01 0.  1.
    1000022    2    1    0    0    0 -0.10205698256E+02  0.19683550710E+02 -0.57573009610E+02  0.62500000506E+02  0.10000009114E+02 0.  0.
    3000022    2    3    3    0    0 -0.80927981930E+01  0.16895680456E+02 -0.35612459000E+02  0.40240118423E+02  0.24998811355E+00 0.  0.
    1000022    2    1    0    0    0  0.10205698256E+02 -0.19683550710E+02  0.57573009610E+02  0.62499999494E+02  0.10000002791E+02 0.  0.
    3000022    2    5    5    0    0  0.47281100745E+01 -0.43451034022E+01  0.27957158556E+02  0.28686236442E+02  0.24999648601E+00 0.  0.
        -13    1    4    4    0    0 -0.28440479099E+01  0.58534898449E+01 -0.12280295897E+02  0.13898512301E+02  0.10500000000E+00 0. -1.
         13    1    4    4    0    0 -0.52487502832E+01  0.11042190611E+02 -0.23332163103E+02  0.26341606122E+02  0.10500000000E+00 0.  1.
    3000001    1    5    5    0    0  0.54775881811E+01 -0.15338447308E+02  0.29615851054E+02  0.33813763052E+02  0.10000000000E+01 0.  1.
        -13    1    6    6    0    0  0.33870058783E+01 -0.31330015411E+01  0.20244751056E+02  0.20764115146E+02  0.10500000000E+00 0.  1.
         13    1    6    6    0    0  0.13411041962E+01 -0.12121018611E+01  0.77124074998E+01  0.79221212961E+01  0.10500000000E+00 0. -1.
</event>
<event>
11    0  0.3482988E-009  0.9118800E+02  0.7816531E-02  0.1126479E+00
         25   -1    0    0    0    0  0.00000000000E+00  0.00000000000E+00  0.99999998245E-14  0.12500000000E+03  0.12500000000E+03 0.  0.
    3000001    1    3    3    0    0 -0.96876411968E+01  0.25303574843E+02  0.48380451361E+00  0.27117436431E+02  0.10000000000E+01 0.  1.
    1000022    2    1    0    0    0 -0.31246756099E+02  0.52918876051E+02  0.54298102613E+01  0.62499999545E+02  0.99999947219E+01 0.  0.
    3000022    2    3    3    0    0 -0.21559114902E+02  0.27615301208E+02  0.49460057477E+01  0.35382563114E+02  0.25000694834E+00 0.  0.
    1000022    2    1    0    0    0  0.31246756099E+02 -0.52918876051E+02 -0.54298102613E+01  0.62500000455E+02  0.10000000410E+02 0.  0.
    3000022    2    5    5    0    0  0.31010075129E+02 -0.47552292012E+02 -0.44112046089E+01  0.56941781351E+02  0.25000448295E+00 0.  0.
        -13    1    4    4    0    0 -0.66156724443E+01  0.84709707588E+01  0.15654974370E+01  0.10862148715E+02  0.10500000000E+00 0. -1.
         13    1    4    4    0    0 -0.14943442457E+02  0.19144330449E+02  0.33805083107E+01  0.24520414398E+02  0.10500000000E+00 0.  1.
    3000001    1    5    5    0    0  0.23668096946E+00 -0.53665840391E+01 -0.10186056524E+01  0.55582191037E+01  0.10000000000E+01 0. -1.
        -13    1    6    6    0    0  0.14332218027E+02 -0.21926463043E+02 -0.19742240105E+01  0.26269580138E+02  0.10500000000E+00 0. -1.
         13    1    6    6    0    0  0.16677857102E+02 -0.25625828969E+02 -0.24369805984E+01  0.30672201214E+02  0.10500000000E+00 0.  1.
</event>
<event>
11    0  0.3482988E-009  0.9118800E+02  0.7816531E-02  0.1126479E+00
         25   -1    0    0    0    0  0.00000000000E+00  0.00000000000E+00  0.99999998245E-14  0.12500000000E+03  0.12500000000E+03 0.  0.
    3000001    1    3    3    0    0  0.13414580886E+02  0.63832453305E+01 -0.78240578888E+01  0.16820008417E+02  0.10000000000E+01 0. -1.
    1000022    2    1    0    0    0  0.44070275848E+02  0.14185438306E+02 -0.40777863778E+02  0.62500000448E+02  0.10000000421E+02 0.  0.
    3000022    2    3    3    0    0  0.30655694962E+02  0.78021929755E+01 -0.32953805889E+02  0.45679992031E+02  0.25000103615E+00 0.  0.
    1000022    2    1    0    0    0 -0.44070275848E+02 -0.14185438306E+02  0.40777863778E+02  0.62499999552E+02  0.99999948240E+01 0.  0.
    3000022    2    5    5    0    0 -0.31312510774E+02 -0.81633790967E+01  0.33565016210E+02  0.46623887407E+02  0.24994905175E+00 0.  0.
        -13    1    4    4    0    0  0.16125962331E+02  0.41546930627E+01 -0.17414942014E+02  0.24095629602E+02  0.10500000000E+00 0.  1.
         13    1    4    4    0    0  0.14529732631E+02  0.36474999128E+01 -0.15538863875E+02  0.21584362429E+02  0.10500000000E+00 0. -1.
    3000001    1    5    5    0    0 -0.12757765074E+02 -0.60220592092E+01  0.72128475681E+01  0.15876112145E+02  0.10000000000E+01 0.  1.
        -13    1    6    6    0    0 -0.13381044758E+02 -0.34242574259E+01  0.14298446852E+02  0.19880505656E+02  0.10500000000E+00 0.  1.
         13    1    6    6    0    0 -0.17931466015E+02 -0.47391216708E+01  0.19266569358E+02  0.26743381751E+02  0.10500000000E+00 0. -1.
</event>
<event>
11    0  0.3482988E-009  0.9118800E+02  0.7816531E-02  0.1126479E+00
         25   -1    0    0    0    0  0.00000000000E+00  0.00000000000E+00  0.99999998245E-14  0.12500000000E+03  0.12500000000E+03 0.  0.
    3000001    1    3    3    0    0 -0.74913533822E+01  0.18722756809E+02 -0.31918302542E+01  0.20441374180E+02  0.10000000000E+01 0.  1.
    1000022    2    1    0    0    0 -0.32028421803E+02  0.52729780195E+02  0.20653103215E-01  0.62499998933E+02  0.99999958687E+01 0.  0.
    3000022    2    3    3    0    0 -0.24537068421E+02  0.34007023387E+02  0.32124833574E+01  0.42058624752E+02  0.25000081065E+00 0.  0.
    1000022    2    1    0    0    0  0.32028421803E+02 -0.52729780195E+02 -0.20653103215E-01  0.62500001067E+02  0.10000009211E+02 0.  0.
    3000022    2    5    5    0    0  0.97653778938E+01 -0.89894092047E+01 -0.16824426232E+01  0.13381524677E+02  0.25001247958E+00 0.  0.
        -13    1    4    4    0    0 -0.10003259857E+02  0.13757105544E+02  0.12914372964E+01  0.17058780613E+02  0.10500000000E+00 0. -1.
         13    1    4    4    0    0 -0.14533808564E+02  0.20249917843E+02  0.19210460610E+01  0.24999844139E+02  0.10500000000E+00 0.  1.
    3000001    1    5    5    0    0  0.22263043909E+02 -0.43740370991E+02  0.16617895200E+01  0.49118476390E+02  0.10000000000E+01 0. -1.
        -13    1    6    6    0    0  0.57146210377E+01 -0.53190188200E+01 -0.94155845709E+00  0.78642489877E+01  0.10500000000E+00 0.  1.
         13    1    6    6    0    0  0.40507568562E+01 -0.36703903847E+01 -0.74088416615E+00  0.55172756893E+01  0.10500000000E+00 0. -1.
</event>
<event>
11    0  0.3482988E-009  0.9118800E+02  0.7816531E-02  0.1126479E+00
         25   -1    0    0    0    0  0.00000000000E+00  0.00000000000E+00  0.99999998245E-14  0.12500000000E+03  0.12500000000E+03 0.  0.
    3000001    1    3    3    0    0  0.12533583081E+01 -0.38821616535E+02 -0.27606524563E+02  0.47663497730E+02  0.10000000000E+01 0. -1.
    1000022    2    1    0    0    0 -0.83383872586E+00 -0.47304722098E+02 -0.39595679294E+02  0.62500000076E+02  0.10000008549E+02 0.  0.
    3000022    2    3    3    0    0 -0.20871970340E+01 -0.84831055630E+01 -0.11989154731E+02  0.14836502346E+02  0.24999848483E+00 0.  0.
    1000022    2    1    0    0    0  0.83383872586E+00  0.47304722098E+02  0.39595679294E+02  0.62499999924E+02  0.10000007597E+02 0.  0.
    3000022    2    5    5    0    0  0.28510010522E+01  0.32927885248E+02  0.22177604080E+02  0.39803045815E+02  0.24999901025E+00 0.  0.
        -13    1    4    4    0    0 -0.10313866674E+01 -0.39179611541E+01 -0.55337678092E+01  0.68591391026E+01  0.10500000000E+00 0. -1.
         13    1    4    4    0    0 -0.10558103666E+01 -0.45651444089E+01 -0.64553869221E+01  0.79773632435E+01  0.10500000000E+00 0.  1.
    3000001    1    5    5    0    0 -0.20171623263E+01  0.14376836850E+02  0.17418075214E+02  0.22696954109E+02  0.10000000000E+01 0.  1.
        -13    1    6    6    0    0  0.21250814649E+01  0.24788963635E+02  0.16679108805E+02  0.29953503716E+02  0.10500000000E+00 0. -1.
         13    1    6    6    0    0  0.72591958732E+00  0.81389216134E+01  0.54984952743E+01  0.98495420988E+01  0.10500000000E+00 0.  1.
</event>
<event>
11    0  0.3482988E-009  0.9118800E+02  0.7816531E-02  0.1126479E+00
         25   -1    0    0    0    0  0.00000000000E+00  0.00000000000E+00  0.99999998245E-14  0.12500000000E+03  0.12500000000E+03 0.  0.
    3000001    1    3    3    0    0 -0.23979705945E+02  0.14542233955E+02  0.77898143125E+01  0.29123599926E+02  0.10000000000E+01 0.  1.
    1000022    2    1    0    0    0 -0.48007034873E+02  0.37671035380E+02  0.90811681136E+01  0.62499999892E+02  0.10000003417E+02 0.  0.
    3000022    2    3    3    0    0 -0.24027328928E+02  0.23128801424E+02  0.12913538011E+01  0.33376399966E+02  0.24997865080E+00 0.  0.
    1000022    2    1    0    0    0  0.48007034873E+02 -0.37671035380E+02 -0.90811681136E+01  0.62500000108E+02  0.10000004764E+02 0.  0.
    3000022    2    5    5    0    0  0.14999753093E+02 -0.88682183165E+01  0.12766609538E+01  0.17473701745E+02  0.25000103107E+00 0.  0.
        -13    1    4    4    0    0 -0.13292057011E+02  0.12815525301E+02  0.65008659594E+00  0.18475662530E+02  0.10500000000E+00 0. -1.
         13    1    4    4    0    0 -0.10735271917E+02  0.10313276123E+02  0.64126720517E+00  0.14900737436E+02  0.10500000000E+00 0.  1.
    3000001    1    5    5    0    0  0.33007281780E+02 -0.28802817063E+02 -0.10357829067E+02  0.45026298363E+02  0.10000000000E+01 0.  1.
        -13    1    6    6    0    0  0.45520408750E+01 -0.27244583926E+01  0.42616728299E+00  0.53231938922E+01  0.10500000000E+00 0. -1.
         13    1    6    6    0    0  0.10447712218E+02 -0.61437599239E+01  0.85049367084E+00  0.12150507853E+02  0.10500000000E+00 0.  1.
</event>
<event>
11    0  0.3482988E-009  0.9118800E+02  0.7816531E-02  0.1126479E+00
         25   -1    0    0    0    0  0.00000000000E+00  0.00000000000E+00  0.99999998245E-14  0.12500000000E+03  0.12500000000E+03 0.  0.
    3000001    1    3    3    0    0  0.16324926444E+02  0.27536036355E+02  0.11063959036E+02  0.33884328399E+02  0.10000000000E+01 0.  1.
    1000022    2    1    0    0    0  0.35444851043E+02  0.48703240652E+02  0.13338163692E+02  0.62499998278E+02  0.10000002930E+02 0.  0.
    3000022    2    3    3    0    0  0.19119924599E+02  0.21167204298E+02  0.22742046556E+01  0.28615669879E+02  0.25000268118E+00 0.  0.
    1000022    2    1    0    0    0 -0.35444851043E+02 -0.48703240652E+02 -0.13338163692E+02  0.62500001722E+02  0.10000024454E+02 0.  0.
    3000022    2    5    5    0    0 -0.22264846885E+02 -0.23483682770E+02 -0.97678978496E+01  0.33803566272E+02  0.25000201501E+00 0.  0.
        -13    1    4    4    0    0  0.12143801065E+02  0.13521237865E+02  0.14764810543E+01  0.18234220548E+02  0.10500000000E+00 0. -1.
         13    1    4    4    0    0  0.69761235342E+01  0.76459664327E+01  0.79772360132E+00  0.10381449330E+02  0.10500000000E+00 0.  1.
    3000001    1    5    5    0    0 -0.13180004158E+02 -0.25219557882E+02 -0.35702658419E+01  0.28696435450E+02  0.10000000000E+01 0. -1.
        -13    1    6    6    0    0 -0.90003237235E+01 -0.94793946740E+01 -0.40111667222E+01  0.13673523101E+02  0.10500000000E+00 0. -1.
         13    1    6    6    0    0 -0.13264523162E+02 -0.14004288096E+02 -0.57567311274E+01  0.20130043171E+02  0.10500000000E+00 0.  1.
</event>
<event>
11    0  0.3482988E-009  0.9118800E+02  0.7816531E-02  0.1126479E+00
         25   -1    0    0    0    0  0.00000000000E+00  0.00000000000E+00  0.99999998245E-14  0.12500000000E+03  0.12500000000E+03 0.  0.
    3000001    1    3    3    0    0 -0.92322396593E+01  0.34994613308E+02 -0.89490207706E+01  0.37295337275E+02  0.10000000000E+01 0. -1.
    1000022    2    1    0    0    0 -0.22455409926E+02  0.56295379672E+02 -0.11525417187E+02  0.62500003470E+02  0.99999992501E+01 0.  0.
    3000022    2    3    3    0    0 -0.13223170267E+02  0.21300766365E+02 -0.25763964164E+01  0.25204666195E+02  0.24999978327E+00 0.  0.
    1000022    2    1    0    0    0  0.22455409926E+02 -0.56295379672E+02  0.11525417187E+02  0.62499996530E+02  0.99999558759E+01 0.  0.
    3000022    2    5    5    0    0  0.12007772083E+02 -0.18190715223E+02  0.23414695993E+01  0.21923359378E+02  0.24999159089E+00 0.  0.
        -13    1    4    4    0    0 -0.34771595739E+01  0.55464113331E+01 -0.65865144855E+00  0.65801340494E+01  0.10500000000E+00 0. -1.
         13    1    4    4    0    0 -0.97460106929E+01  0.15754355032E+02 -0.19177449679E+01  0.18624532146E+02  0.10500000000E+00 0.  1.
    3000001    1    5    5    0    0  0.10447637843E+02 -0.38104664449E+02  0.91839475877E+01  0.40576637152E+02  0.10000000000E+01 0.  1.
        -13    1    6    6    0    0  0.63118261120E+01 -0.96719264566E+01  0.12110348903E+01  0.11613050450E+02  0.10500000000E+00 0.  1.
         13    1    6    6    0    0  0.56959459714E+01 -0.85187887668E+01  0.11304347089E+01  0.10310308928E+02  0.10500000000E+00 0. -1.
</event>
<event>
11    0  0.3482988E-009  0.9118800E+02  0.7816531E-02  0.1126479E+00
         25   -1    0    0    0    0  0.00000000000E+00  0.00000000000E+00  0.99999998245E-14  0.12500000000E+03  0.12500000000E+03 0.  0.
    3000001    1    3    3    0    0 -0.22954386826E+02 -0.13855746234E+02 -0.18781082503E+02  0.32750795994E+02  0.10000000000E+01 0.  1.
    1000022    2    1    0    0    0 -0.37916532961E+02 -0.23521055332E+02 -0.42606883904E+02  0.62500003176E+02  0.10000016263E+02 0.  0.
    3000022    2    3    3    0    0 -0.14962146135E+02 -0.96653090979E+01 -0.23825801401E+02  0.29749207182E+02  0.24999725063E+00 0.  0.
    1000022    2    1    0    0    0  0.37916532961E+02  0.23521055332E+02  0.42606883904E+02  0.62499996824E+02  0.99999765669E+01 0.  0.
    3000022    2    5    5    0    0  0.29482667164E+02  0.15616036959E+02  0.26283484855E+02  0.42473195676E+02  0.25000268658E+00 0.  0.
        -13    1    4    4    0    0 -0.10199967921E+02 -0.66481342962E+01 -0.16275482841E+02  0.20325830904E+02  0.10500000000E+00 0.  1.
         13    1    4    4    0    0 -0.47621782137E+01 -0.30171748017E+01 -0.75503185597E+01  0.94233762779E+01  0.10500000000E+00 0. -1.
    3000001    1    5    5    0    0  0.84338657970E+01  0.79050183722E+01  0.16323399049E+02  0.20026801149E+02  0.10000000000E+01 0.  1.
        -13    1    6    6    0    0  0.19888385478E+02  0.10575889338E+02  0.17791784857E+02  0.28704632825E+02  0.10500000000E+00 0. -1.
         13    1    6    6    0    0  0.95942816857E+01  0.50401476217E+01  0.84916999985E+01  0.13768562851E+02  0.10500000000E+00 0.  1.
</event>
<event>
11    0  0.3482988E-009  0.9118800E+02  0.7816531E-02  0.1126479E+00
         25   -1    0    0    0    0  0.00000000000E+00  0.00000000000E+00  0.99999998245E-14  0.12500000000E+03  0.12500000000E+03 0.  0.
    3000001    1    3    3    0    0  0.27977019752E+00 -0.17407772342E+02  0.15136257908E+02  0.23091451075E+02  0.10000000000E+01 0. -1.
    1000022    2    1    0    0    0 -0.22080822099E+01 -0.53695716187E+02  0.30300899122E+02  0.62499992246E+02  0.99999489606E+01 0.  0.
    3000022    2    3    3    0    0 -0.24878524074E+01 -0.36287943845E+02  0.15164641214E+02  0.39408541171E+02  0.24999194956E+00 0.  0.
    1000022    2    1    0    0    0  0.22080822099E+01  0.53695716187E+02 -0.30300899122E+02  0.62500007754E+02  0.10000045889E+02 0.  0.
    3000022    2    5    5    0    0 -0.15447089729E+01  0.60338637230E+01 -0.73092016450E+00  0.62761758186E+01  0.25000276040E+00 0.  0.
        -13    1    4    4    0    0 -0.96752985293E+00 -0.13472745739E+02  0.56755835823E+01  0.14651766643E+02  0.10500000000E+00 0. -1.
         13    1    4    4    0    0 -0.15203225545E+01 -0.22815198106E+02  0.94890576317E+01  0.24756774528E+02  0.10500000000E+00 0.  1.
    3000001    1    5    5    0    0  0.37527911828E+01  0.47661852464E+02 -0.29569978957E+02  0.56223831936E+02  0.10000000000E+01 0.  1.
        -13    1    6    6    0    0 -0.89978734709E+00  0.37111537893E+01 -0.40989710906E+00  0.38420463763E+01  0.10500000000E+00 0. -1.
         13    1    6    6    0    0 -0.64492162581E+00  0.23227099337E+01 -0.32102305544E+00  0.24341294423E+01  0.10500000000E+00 0.  1.
</event>
<event>
11    0  0.3482988E-009  0.9118800E+02  0.7816531E-02  0.1126479E+00
         25   -1    0    0    0    0  0.00000000000E+00  0.00000000000E+00  0.99999998245E-14  0.12500000000E+03  0.12500000000E+03 0.  0.
    3000001    1    3    3    0    0  0.27102185497E+02  0.16956645049E+02 -0.28899862551E+02  0.43107520521E+02  0.10000000000E+01 0. -1.
    1000022    2    1    0    0    0  0.35663523280E+02  0.20695047934E+02 -0.45892023841E+02  0.62499998602E+02  0.10000003565E+02 0.  0.
    3000022    2    3    3    0    0  0.85613377834E+01  0.37384028851E+01 -0.16992161290E+02  0.19392478081E+02  0.25000008295E+00 0.  0.
    1000022    2    1    0    0    0 -0.35663523280E+02 -0.20695047934E+02  0.45892023841E+02  0.62500001398E+02  0.10000021036E+02 0.  0.
    3000022    2    5    5    0    0 -0.17008514914E+02 -0.49729664998E+01  0.15754495647E+02  0.23712583496E+02  0.25001520592E+00 0.  0.
        -13    1    4    4    0    0  0.35276545084E+01  0.14949286868E+01 -0.70703321478E+01  0.80423740145E+01  0.10500000000E+00 0.  1.
         13    1    4    4    0    0  0.50336832750E+01  0.22434741983E+01 -0.99218291424E+01  0.11350104067E+02  0.10500000000E+00 0. -1.
    3000001    1    5    5    0    0 -0.18655008366E+02 -0.15722081434E+02  0.30137528195E+02  0.38787417901E+02  0.10000000000E+01 0. -1.
        -13    1    6    6    0    0 -0.63904857891E+01 -0.19062683691E+01  0.59937130081E+01  0.89670389951E+01  0.10500000000E+00 0. -1.
         13    1    6    6    0    0 -0.10618029125E+02 -0.30666981307E+01  0.97607826384E+01  0.14745544501E+02  0.10500000000E+00 0.  1.
</event>
<event>
11    0  0.3482988E-009  0.9118800E+02  0.7816531E-02  0.1126479E+00
         25   -1    0    0    0    0  0.00000000000E+00  0.00000000000E+00  0.99999998245E-14  0.12500000000E+03  0.12500000000E+03 0.  0.
    3000001    1    3    3    0    0 -0.31205378695E+01 -0.47145486088E+02 -0.97674325808E+01  0.48258028911E+02  0.10000000000E+01 0. -1.
    1000022    2    1    0    0    0 -0.26703503092E+01 -0.61186419316E+02 -0.74392248930E+01  0.62499992384E+02  0.99999150745E+01 0.  0.
    3000022    2    3    3    0    0  0.45018756032E+00 -0.14040933228E+02  0.23282076878E+01  0.14241963473E+02  0.24999559878E+00 0.  0.
    1000022    2    1    0    0    0  0.26703503092E+01  0.61186419316E+02  0.74392248930E+01  0.62500007616E+02  0.10000010274E+02 0.  0.
    3000022    2    5    5    0    0  0.32639878037E+01  0.59159343983E+02  0.55768639731E+01  0.59511725823E+02  0.25000342067E+00 0.  0.
        -13    1    4    4    0    0  0.29803693940E+00 -0.72325246000E+01  0.12144474927E+01  0.73405821172E+01  0.10500000000E+00 0.  1.
         13    1    4    4    0    0  0.15215062092E+00 -0.68084086276E+01  0.11137601952E+01  0.69013813563E+01  0.10500000000E+00 0. -1.
    3000001    1    5    5    0    0 -0.59363749453E+00  0.20270753327E+01  0.18623609198E+01  0.29882817931E+01  0.10000000000E+01 0.  1.
        -13    1    6    6    0    0  0.24492842395E+01  0.43951800268E+02  0.41613514635E+01  0.44216372659E+02  0.10500000000E+00 0.  1.
         13    1    6    6    0    0  0.81470356425E+00  0.15207543715E+02  0.14155125097E+01  0.15295353164E+02  0.10500000000E+00 0. -1.
</event>
<event>
11    0  0.3482988E-009  0.9118800E+02  0.7816531E-02  0.1126479E+00
         25   -1    0    0    0    0  0.00000000000E+00  0.00000000000E+00  0.99999998245E-14  0.12500000000E+03  0.12500000000E+03 0.  0.
    3000001    1    3    3    0    0  0.42627317100E+01  0.45083381245E+00 -0.23963831653E+02  0.24364715477E+02  0.10000000000E+01 0.  1.
    1000022    2    1    0    0    0  0.58684377879E+01  0.12335259022E+02 -0.60163549803E+02  0.62500000258E+02  0.10000006503E+02 0.  0.
    3000022    2    3    3    0    0  0.16057060779E+01  0.11884425209E+02 -0.36199718150E+02  0.38135284781E+02  0.24999320237E+00 0.  0.
    1000022    2    1    0    0    0 -0.58684377879E+01 -0.12335259022E+02  0.60163549803E+02  0.62499999742E+02  0.10000003282E+02 0.  0.
    3000022    2    5    5    0    0 -0.78653471539E+01 -0.58635882760E+01  0.40737130676E+02  0.41902525883E+02  0.25001273240E+00 0.  0.
        -13    1    4    4    0    0  0.78693267241E+00  0.57140322342E+01 -0.17621036096E+02  0.18541342063E+02  0.10500000000E+00 0. -1.
         13    1    4    4    0    0  0.81877340548E+00  0.61703929753E+01 -0.18578682054E+02  0.19593942718E+02  0.10500000000E+00 0.  1.
    3000001    1    5    5    0    0  0.19969093660E+01 -0.64716707459E+01  0.19426419128E+02  0.20597473859E+02  0.10000000000E+01 0.  1.
        -13    1    6    6    0    0 -0.36328712992E+01 -0.26860575933E+01  0.18485383643E+02  0.19029794868E+02  0.10500000000E+00 0. -1.
         13    1    6    6    0    0 -0.42324758547E+01 -0.31775306827E+01  0.22251747032E+02  0.22872731015E+02  0.10500000000E+00 0.  1.
</event>
<event>
11    0  0.3482988E-009  0.9118800E+02  0.7816531E-02  0.1126479E+00
         25   -1    0    0    0    0  0.00000000000E+00  0.00000000000E+00  0.99999998245E-14  0.12500000000E+03  0.12500000000E+03 0.  0.
    3000001    1    3    3    0    0 -0.19843748361E+02 -0.43572338866E+02  0.37940066192E+02  0.61096413037E+02  0.10000000000E+01 0.  1.
    1000022    2    1    0    0    0 -0.21213424248E+02 -0.43744961097E+02  0.37981823905E+02  0.62499998960E+02  0.99999966557E+01 0.  0.
    3000022    2    3    3    0    0 -0.13696758872E+01 -0.17262223064E+00  0.41757712352E-01  0.14035859227E+01  0.24999853085E+00 0.  0.
    1000022    2    1    0    0    0  0.21213424248E+02  0.43744961097E+02 -0.37981823905E+02  0.62500001040E+02  0.10000009661E+02 0.  0.
    3000022    2    5    5    0    0  0.69806341012E+01  0.61115069473E+01 -0.87661768898E+01  0.12766680046E+02  0.24998504684E+00 0.  0.
        -13    1    4    4    0    0 -0.82774514256E+00 -0.43156959806E-01  0.42950456193E-01  0.83659684789E+00  0.10500000000E+00 0. -1.
         13    1    4    4    0    0 -0.54193074463E+00 -0.12946527084E+00 -0.11927438418E-02  0.56698907482E+00  0.10500000000E+00 0.  1.
    3000001    1    5    5    0    0  0.14232790147E+02  0.37633454149E+02 -0.29215647015E+02  0.49733320994E+02  0.10000000000E+01 0.  1.
        -13    1    6    6    0    0  0.22719955255E+01  0.20575725905E+01 -0.28800970180E+01  0.42073212934E+01  0.10500000000E+00 0.  1.
         13    1    6    6    0    0  0.47086385757E+01  0.40539343568E+01 -0.58860798718E+01  0.85593587530E+01  0.10500000000E+00 0. -1.
</event>
<event>
11    0  0.3482988E-009  0.9118800E+02  0.7816531E-02  0.1126479E+00
         25   -1    0    0    0    0  0.00000000000E+00  0.00000000000E+00  0.99999998245E-14  0.12500000000E+03  0.12500000000E+03 0.  0.
    3000001    1    3    3    0    0 -0.55538618129E+01  0.93035728912E+01 -0.10069627688E+02  0.14825628194E+02  0.10000000000E+01 0.  1.
    1000022    2    1    0    0    0 -0.20359095335E+02  0.50361779859E+02 -0.29248049226E+02  0.62499999231E+02  0.99999943438E+01 0.  0.
    3000022    2    3    3    0    0 -0.14805233522E+02  0.41058206968E+02 -0.19178421538E+02  0.47674371037E+02  0.25000395231E+00 0.  0.
    1000022    2    1    0    0    0  0.20359095335E+02 -0.50361779859E+02  0.29248049226E+02  0.62500000769E+02  0.10000003959E+02 0.  0.
    3000022    2    5    5    0    0  0.18682599044E+02 -0.46831453909E+02  0.29571338718E+02  0.58452982456E+02  0.25000440549E+00 0.  0.
        -13    1    4    4    0    0 -0.78128474147E+01  0.21563137334E+02 -0.10140742245E+02  0.25076984561E+02  0.10500000000E+00 0.  1.
         13    1    4    4    0    0 -0.69923861077E+01  0.19495069634E+02 -0.90376792929E+01  0.22597386475E+02  0.10500000000E+00 0. -1.
    3000001    1    5    5    0    0  0.16764962913E+01 -0.35303259503E+01 -0.32328949190E+00  0.40470183130E+01  0.10000000000E+01 0.  1.
        -13    1    6    6    0    0  0.11419842195E+02 -0.28524417899E+02  0.17963013947E+02  0.35591236384E+02  0.10500000000E+00 0. -1.
         13    1    6    6    0    0  0.72627568487E+01 -0.18307036010E+02  0.11608324770E+02  0.22861746072E+02  0.10500000000E+00 0.  1.
</event>
<event>
11    0  0.3482988E-009  0.9118800E+02  0.7816531E-02  0.1126479E+00
         25   -1    0    0    0    0  0.00000000000E+00  0.00000000000E+00  0.99999998245E-14  0.12500000000E+03  0.12500000000E+03 0.  0.
    3000001    1    3    3    0    0  0.22168764900E+02 -0.61005369297E+01  0.17789535494E+02  0.29088455806E+02  0.10000000000E+01 0.  1.
    1000022    2    1    0    0    0  0.50118143670E+02 -0.30863925901E+01  0.35845446672E+02  0.62499999749E+02  0.99999888697E+01 0.  0.
    3000022    2    3    3    0    0  0.27949378769E+02  0.30141443396E+01  0.18055911177E+02  0.33411543943E+02  0.25000109658E+00 0.  0.
    1000022    2    1    0    0    0 -0.50118143670E+02  0.30863925901E+01 -0.35845446672E+02  0.62500000251E+02  0.99999920093E+01 0.  0.
    3000022    2    5    5    0    0 -0.10267609314E+02  0.34733067028E+01 -0.42997312501E+01  0.11663527592E+02  0.25005317550E+00 0.  0.
        -13    1    4    4    0    0  0.20596261832E+02  0.22449164041E+01  0.13334345204E+02  0.24638616806E+02  0.10500000000E+00 0.  1.
         13    1    4    4    0    0  0.73531169374E+01  0.76922793544E+00  0.47215659729E+01  0.87729271368E+01  0.10500000000E+00 0. -1.
    3000001    1    5    5    0    0 -0.39850534356E+02 -0.38691411268E+00 -0.31545715422E+02  0.50836472660E+02  0.10000000000E+01 0.  1.
        -13    1    6    6    0    0 -0.77610428608E+01  0.26454217442E+01 -0.32645713868E+01  0.88261256411E+01  0.10500000000E+00 0.  1.
         13    1    6    6    0    0 -0.25065664527E+01  0.82788495857E+00 -0.10351598633E+01  0.28374019506E+01  0.10500000000E+00 0. -1.
</event>
<event>
11    0  0.3482988E-009  0.9118800E+02  0.7816531E-02  0.1126479E+00
         25   -1    0    0    0    0  0.00000000000E+00  0.00000000000E+00  0.99999998245E-14  0.12500000000E+03  0.12500000000E+03 0.  0.
    3000001    1    3    3    0    0  0.35155000583E+02  0.35544104800E+02 -0.11871153743E+02  0.51392428851E+02  0.10000000000E+01 0. -1.
    1000022    2    1    0    0    0  0.45279902529E+02  0.40094358862E+02 -0.12182876679E+02  0.62499999626E+02  0.10000014176E+02 0.  0.
    3000022    2    3    3    0    0  0.10124901946E+02  0.45502540622E+01 -0.31172293602E+00  0.11107570775E+02  0.25001178613E+00 0.  0.
    1000022    2    1    0    0    0 -0.45279902529E+02 -0.40094358862E+02  0.12182876679E+02  0.62500000374E+02  0.10000018849E+02 0.  0.
    3000022    2    5    5    0    0 -0.34707879137E+02 -0.28658681879E+02  0.13065395723E+02  0.46869222194E+02  0.25000483527E+00 0.  0.
        -13    1    4    4    0    0  0.58373484721E+01  0.26170727419E+01 -0.24450348363E+00  0.64026958287E+01  0.10500000000E+00 0. -1.
         13    1    4    4    0    0  0.42875534738E+01  0.19331813203E+01 -0.67219452392E-01  0.47048749465E+01  0.10500000000E+00 0.  1.
    3000001    1    5    5    0    0 -0.10572023392E+02 -0.11435676983E+02 -0.88251904336E+00  0.15630778180E+02  0.10000000000E+01 0. -1.
        -13    1    6    6    0    0 -0.16058036428E+02 -0.13340544101E+02  0.60345225255E+01  0.21731478043E+02  0.10500000000E+00 0. -1.
         13    1    6    6    0    0 -0.18649842709E+02 -0.15318137778E+02  0.70308731972E+01  0.25137744150E+02  0.10500000000E+00 0.  1.
</event>
<event>
11    0  0.3482988E-009  0.9118800E+02  0.7816531E-02  0.1126479E+00
         25   -1    0    0    0    0  0.00000000000E+00  0.00000000000E+00  0.99999998245E-14  0.12500000000E+03  0.12500000000E+03 0.  0.
    3000001    1    3    3    0    0 -0.27514393451E+02 -0.25765379325E+02  0.97781735954E+01  0.38955221698E+02  0.10000000000E+01 0. -1.
    1000022    2    1    0    0    0 -0.42276209489E+02 -0.44076280868E+02  0.87323323781E+01  0.62500000254E+02  0.99999989527E+01 0.  0.
    3000022    2    3    3    0    0 -0.14761816038E+02 -0.18310901543E+02 -0.10458412173E+01  0.23544778556E+02  0.24997059335E+00 0.  0.
    1000022    2    1    0    0    0  0.42276209489E+02  0.44076280868E+02 -0.87323323781E+01  0.62499999746E+02  0.99999957791E+01 0.  0.
    3000022    2    5    5    0    0  0.12780546896E+02  0.15387957341E+02 -0.73693404935E+01  0.21319036117E+02  0.25002307142E+00 0.  0.
        -13    1    4    4    0    0 -0.96870153108E+01 -0.11955425281E+02 -0.64334259864E+00  0.15401148463E+02  0.10500000000E+00 0. -1.
         13    1    4    4    0    0 -0.50748007277E+01 -0.63554762621E+01 -0.40249861865E+00  0.81436300924E+01  0.10500000000E+00 0.  1.
    3000001    1    5    5    0    0  0.29495662593E+02  0.28688323527E+02 -0.13629918846E+01  0.41180963630E+02  0.10000000000E+01 0. -1.
        -13    1    6    6    0    0  0.80324855413E+01  0.96381817920E+01 -0.46818381477E+01  0.13392012756E+02  0.10500000000E+00 0. -1.
         13    1    6    6    0    0  0.47480613551E+01  0.57497755487E+01 -0.26875023458E+01  0.79270233601E+01  0.10500000000E+00 0.  1.
</event>
<event>
11    0  0.3482988E-009  0.9118800E+02  0.7816531E-02  0.1126479E+00
         25   -1    0    0    0    0  0.00000000000E+00  0.00000000000E+00  0.99999998245E-14  0.12500000000E+03  0.12500000000E+03 0.  0.
    3000001    1    3    3    0    0  0.14176897388E+02  0.97787672332E+00  0.97021610836E+01  0.17235793922E+02  0.10000000000E+01 0. -1.
    1000022    2    1    0    0    0  0.47875270351E+02 -0.11843480159E+02  0.37066704190E+02  0.62499999079E+02  0.99999895990E+01 0.  0.
    3000022    2    3    3    0    0  0.33698372963E+02 -0.12821356882E+02  0.27364543106E+02  0.45264205157E+02  0.25003290421E+00 0.  0.
    1000022    2    1    0    0    0 -0.47875270351E+02  0.11843480159E+02 -0.37066704190E+02  0.62500000921E+02  0.10000001109E+02 0.  0.
    3000022    2    5    5    0    0 -0.31101635765E+02  0.12461734458E+02 -0.24493141713E+02  0.41504012519E+02  0.24998252319E+00 0.  0.
        -13    1    4    4    0    0  0.22228983174E+02 -0.84502845402E+01  0.17980357496E+02  0.29813407763E+02  0.10500000000E+00 0.  1.
         13    1    4    4    0    0  0.11469389789E+02 -0.43710723418E+01  0.93841856104E+01  0.15450797394E+02  0.10500000000E+00 0. -1.
    3000001    1    5    5    0    0 -0.16773634586E+02 -0.61825429954E+00 -0.12573562477E+02  0.20995988402E+02  0.10000000000E+01 0.  1.
        -13    1    6    6    0    0 -0.17190598822E+02  0.69584774036E+01 -0.13570937771E+02  0.22980828371E+02  0.10500000000E+00 0.  1.
         13    1    6    6    0    0 -0.13911036943E+02  0.55032570546E+01 -0.10922203942E+02  0.18523184148E+02  0.10500000000E+00 0. -1.
</event>
<event>
11    0  0.3482988E-009  0.9118800E+02  0.7816531E-02  0.1126479E+00
         25   -1    0    0    0    0  0.00000000000E+00  0.00000000000E+00  0.99999998245E-14  0.12500000000E+03  0.12500000000E+03 0.  0.
    3000001    1    3    3    0    0  0.28399038125E+02 -0.10878171065E+02  0.36434295215E+02  0.47468914459E+02  0.10000000000E+01 0.  1.
    1000022    2    1    0    0    0  0.36034408829E+02 -0.19424854817E+02  0.46156749318E+02  0.62499992338E+02  0.99999965193E+01 0.  0.
    3000022    2    3    3    0    0  0.76353707035E+01 -0.85466837517E+01  0.97224541034E+01  0.15031077879E+02  0.24999895567E+00 0.  0.
    1000022    2    1    0    0    0 -0.36034408829E+02  0.19424854817E+02 -0.46156749318E+02  0.62500007662E+02  0.10000092291E+02 0.  0.
    3000022    2    5    5    0    0 -0.64117782522E+01  0.43182678828E+01 -0.37328449964E+01  0.85880714235E+01  0.25000229111E+00 0.  0.
        -13    1    4    4    0    0  0.49181391567E+01 -0.55140181445E+01  0.61926011057E+01  0.96411525409E+01  0.10500000000E+00 0. -1.
         13    1    4    4    0    0  0.27172315468E+01 -0.30326656072E+01  0.35298529978E+01  0.53899253381E+01  0.10500000000E+00 0.  1.
    3000001    1    5    5    0    0 -0.29622630577E+02  0.15106586934E+02 -0.42423904322E+02  0.53911936238E+02  0.10000000000E+01 0.  1.
        -13    1    6    6    0    0 -0.32283968345E+01  0.22396129851E+01 -0.19423639478E+01  0.43843146728E+01  0.10500000000E+00 0.  1.
         13    1    6    6    0    0 -0.31833814177E+01  0.20786548976E+01 -0.17904810486E+01  0.42037567507E+01  0.10500000000E+00 0. -1.
</event>
<event>
11    0  0.3482988E-009  0.9118800E+02  0.7816531E-02  0.1126479E+00
         25   -1    0    0    0    0  0.00000000000E+00  0.00000000000E+00  0.99999998245E-14  0.12500000000E+03  0.12500000000E+03 0.  0.
    3000001    1    3    3    0    0 -0.47708033738E+02 -0.17853153740E+02 -0.20314987244E+02  0.54849706365E+02  0.10000000000E+01 0. -1.
    1000022    2    1    0    0    0 -0.51858953100E+02 -0.21410983219E+02 -0.25660650032E+02  0.62499993461E+02  0.99999501806E+01 0.  0.
    3000022    2    3    3    0    0 -0.41509193614E+01 -0.35578294792E+01 -0.53456627875E+01  0.76502870960E+01  0.24999973056E+00 0.  0.
    1000022    2    1    0    0    0  0.51858953100E+02  0.21410983219E+02  0.25660650032E+02  0.62500006539E+02  0.10000031914E+02 0.  0.
    3000022    2    5    5    0    0  0.13348257428E+02  0.19231758216E+01  0.90464904895E+01  0.16241184509E+02  0.25000494289E+00 0.  0.
        -13    1    4    4    0    0 -0.22347900919E+01 -0.19531926718E+01 -0.28169089918E+01  0.40933176809E+01  0.10500000000E+00 0.  1.
         13    1    4    4    0    0 -0.19161292695E+01 -0.16046368074E+01 -0.25287537957E+01  0.35569694151E+01  0.10500000000E+00 0. -1.
    3000001    1    5    5    0    0  0.38510695671E+02  0.19487807398E+02  0.16614159542E+02  0.46258822029E+02  0.10000000000E+01 0. -1.
        -13    1    6    6    0    0  0.38770289650E+01  0.56210345208E+00  0.25768262813E+01  0.46902422720E+01  0.10500000000E+00 0.  1.
         13    1    6    6    0    0  0.94712284634E+01  0.13610723696E+01  0.64696642082E+01  0.11550942237E+02  0.10500000000E+00 0. -1.
</event>
<event>
11    0  0.3482988E-009  0.9118800E+02  0.7816531E-02  0.1126479E+00
         25   -1    0    0    0    0  0.00000000000E+00  0.00000000000E+00  0.99999998245E-14  0.12500000000E+03  0.12500000000E+03 0.  0.
    3000001    1    3    3    0    0 -0.47998825752E+01  0.13251512819E+02 -0.44800560374E+01  0.14822697690E+02  0.10000000000E+01 0.  1.
    1000022    2    1    0    0    0 -0.13658117358E+02  0.49683802443E+02 -0.33929717947E+02  0.62499999387E+02  0.99999884215E+01 0.  0.
    3000022    2    3    3    0    0 -0.88582347828E+01  0.36432289625E+02 -0.29449661909E+02  0.47677301697E+02  0.24991945838E+00 0.  0.
    1000022    2    1    0    0    0  0.13658117358E+02 -0.49683802443E+02  0.33929717947E+02  0.62500000613E+02  0.99999960833E+01 0.  0.
    3000022    2    5    5    0    0  0.97369417605E+01 -0.23503534566E+02  0.12096456468E+02  0.28171100965E+02  0.24999715961E+00 0.  0.
        -13    1    4    4    0    0 -0.32353455150E+01  0.13558571342E+02 -0.10953291817E+02  0.17728168097E+02  0.10500000000E+00 0. -1.
         13    1    4    4    0    0 -0.56228892679E+01  0.22873718282E+02 -0.18496370092E+02  0.29949133599E+02  0.10500000000E+00 0.  1.
    3000001    1    5    5    0    0  0.39211755975E+01 -0.26180267877E+02  0.21833261479E+02  0.34328899647E+02  0.10000000000E+01 0.  1.
        -13    1    6    6    0    0  0.44443270230E+01 -0.10903199851E+02  0.55941689423E+01  0.13036010158E+02  0.10500000000E+00 0. -1.
         13    1    6    6    0    0  0.52926147375E+01 -0.12600334715E+02  0.65022875253E+01  0.15135090808E+02  0.10500000000E+00 0.  1.
</event>
<event>
11    0  0.3482988E-009  0.9118800E+02  0.7816531E-02  0.1126479E+00
         25   -1    0    0    0    0  0.00000000000E+00  0.00000000000E+00  0.99999998245E-14  0.12500000000E+03  0.12500000000E+03 0.  0.
    3000001    1    3    3    0    0  0.34649204849E+02 -0.78995079456E+01 -0.59530869835E+00  0.35557334193E+02  0.10000000000E+01 0. -1.
    1000022    2    1    0    0    0  0.60752654913E+02 -0.79131391055E+01 -0.72627296238E+01  0.62500000601E+02  0.99999992027E+01 0.  0.
    3000022    2    3    3    0    0  0.26103450064E+02 -0.13631159858E-01 -0.66674209254E+01  0.26942666409E+02  0.24996066669E+00 0.  0.
    1000022    2    1    0    0    0 -0.60752654913E+02  0.79131391055E+01  0.72627296238E+01  0.62499999399E+02  0.99999916879E+01 0.  0.
    3000022    2    5    5    0    0 -0.27116940282E+02 -0.74470500932E+00  0.68867398703E+00  0.27137055927E+02  0.24999344637E+00 0.  0.
        -13    1    4    4    0    0  0.12140632319E+02 -0.70867877401E-01 -0.31204757134E+01  0.12535883257E+02  0.10500000000E+00 0. -1.
         13    1    4    4    0    0  0.13962817746E+02  0.57236717543E-01 -0.35469452120E+01  0.14406783152E+02  0.10500000000E+00 0.  1.
    3000001    1    5    5    0    0 -0.33635714632E+02  0.86578441148E+01  0.65740556367E+01  0.35362943472E+02  0.10000000000E+01 0.  1.
        -13    1    6    6    0    0 -0.17996042790E+02 -0.52355435769E+00  0.50250579192E+00  0.18010974497E+02  0.10500000000E+00 0. -1.
         13    1    6    6    0    0 -0.91208974919E+01 -0.22115065164E+00  0.18616819510E+00  0.91260814299E+01  0.10500000000E+00 0.  1.
</event>
<event>
11    0  0.3482988E-009  0.9118800E+02  0.7816531E-02  0.1126479E+00
         25   -1    0    0    0    0  0.00000000000E+00  0.00000000000E+00  0.99999998245E-14  0.12500000000E+03  0.12500000000E+03 0.  0.
    3000001    1    3    3    0    0 -0.12788222700E+02 -0.15285280580E+02 -0.20784508360E+02  0.28812744229E+02  0.10000000000E+01 0. -1.
    1000022    2    1    0    0    0 -0.31943152427E+02 -0.23565614492E+02 -0.47228665361E+02  0.62499999996E+02  0.99999997163E+01 0.  0.
    3000022    2    3    3    0    0 -0.19154929726E+02 -0.82803339121E+01 -0.26444157002E+02  0.33687255767E+02  0.24999812741E+00 0.  0.
    1000022    2    1    0    0    0  0.31943152427E+02  0.23565614492E+02  0.47228665361E+02  0.62500000004E+02  0.99999997677E+01 0.  0.
    3000022    2    5    5    0    0  0.14688681657E+02  0.51617346921E+01  0.15754929528E+02  0.22151324678E+02  0.25001343996E+00 0.  0.
        -13    1    4    4    0    0 -0.12872110128E+02 -0.55271564841E+01 -0.17686562176E+02  0.22562495087E+02  0.10500000000E+00 0. -1.
         13    1    4    4    0    0 -0.62828195989E+01 -0.27531774280E+01 -0.87575948257E+01  0.11124760680E+02  0.10500000000E+00 0.  1.
    3000001    1    5    5    0    0  0.17254470769E+02  0.18403879800E+02  0.31473735833E+02  0.40348675326E+02  0.10000000000E+01 0. -1.
        -13    1    6    6    0    0  0.99195733054E+01  0.34837527862E+01  0.10564607013E+02  0.14904912425E+02  0.10500000000E+00 0. -1.
         13    1    6    6    0    0  0.47691083516E+01  0.16779819059E+01  0.51903225148E+01  0.72464122539E+01  0.10500000000E+00 0.  1.
</event>
<event>
11    0  0.3482988E-009  0.9118800E+02  0.7816531E-02  0.1126479E+00
         25   -1    0    0    0    0  0.00000000000E+00  0.00000000000E+00  0.99999998245E-14  0.12500000000E+03  0.12500000000E+03 0.  0.
    3000001    1    3    3    0    0 -0.62816977670E+01 -0.23113155256E+02 -0.17386588238E+02  0.29613698237E+02  0.10000000000E+01 0. -1.
    1000022    2    1    0    0    0 -0.35256809600E+01 -0.51356131063E+02 -0.34005402392E+02  0.62499999274E+02  0.99999946704E+01 0.  0.
    3000022    2    3    3    0    0  0.27560168069E+01 -0.28242975807E+02 -0.16618814154E+02  0.32886301036E+02  0.25000184786E+00 0.  0.
    1000022    2    1    0    0    0  0.35256809600E+01  0.51356131063E+02  0.34005402392E+02  0.62500000726E+02  0.10000003751E+02 0.  0.
    3000022    2    5    5    0    0 -0.31568203976E+01  0.91412280386E+01  0.68178739933E+01  0.11835263856E+02  0.24999935416E+00 0.  0.
        -13    1    4    4    0    0  0.91998434038E+00 -0.96689730388E+01 -0.57462136631E+01  0.11285628351E+02  0.10500000000E+00 0. -1.
         13    1    4    4    0    0  0.18360324665E+01 -0.18574002768E+02 -0.10872600491E+02  0.21600672686E+02  0.10500000000E+00 0.  1.
    3000001    1    5    5    0    0  0.66825013577E+01  0.42214903024E+02  0.27187528398E+02  0.50664736870E+02  0.10000000000E+01 0.  1.
        -13    1    6    6    0    0 -0.17466179999E+01  0.48650566581E+01  0.36729471280E+01  0.63420041256E+01  0.10500000000E+00 0. -1.
         13    1    6    6    0    0 -0.14102023977E+01  0.42761713805E+01  0.31449268653E+01  0.54932597304E+01  0.10500000000E+00 0.  1.
</event>
<event>
11    0  0.3482988E-009  0.9118800E+02  0.7816531E-02  0.1126479E+00
         25   -1    0    0    0    0  0.00000000000E+00  0.00000000000E+00  0.99999998245E-14  0.12500000000E+03  0.12500000000E+03 0.  0.
    3000001    1    3    3    0    0 -0.12216568382E+02  0.18111731897E+02 -0.96564244803E+01  0.23906608063E+02  0.10000000000E+01 0. -1.
    1000022    2    1    0    0    0 -0.22047717149E+02  0.47276379757E+02 -0.32940736325E+02  0.62499999362E+02  0.99999948083E+01 0.  0.
    3000022    2    3    3    0    0 -0.98311487668E+01  0.29164647860E+02 -0.23284311845E+02  0.38593391298E+02  0.25000592434E+00 0.  0.
    1000022    2    1    0    0    0  0.22047717149E+02 -0.47276379757E+02  0.32940736325E+02  0.62500000638E+02  0.10000002784E+02 0.  0.
    3000022    2    5    5    0    0 -0.82572453724E-01 -0.21384132826E+00  0.18923162171E+01  0.19224748345E+01  0.25000500032E+00 0.  0.
        -13    1    4    4    0    0 -0.27435383172E+01  0.82655508407E+01 -0.65944912461E+01  0.10924498752E+02  0.10500000000E+00 0.  1.
         13    1    4    4    0    0 -0.70876104496E+01  0.20899097019E+02 -0.16689820599E+02  0.27668892546E+02  0.10500000000E+00 0. -1.
    3000001    1    5    5    0    0  0.22130289602E+02 -0.47062538429E+02  0.31048420108E+02  0.60577525804E+02  0.10000000000E+01 0. -1.
        -13    1    6    6    0    0  0.28940142658E-02 -0.16373455730E+00  0.11256860030E+01  0.11423709371E+01  0.10500000000E+00 0. -1.
         13    1    6    6    0    0 -0.85466467990E-01 -0.50106770951E-01  0.76663021409E+00  0.78010389744E+00  0.10500000000E+00 0.  1.
</event>
<event>
11    0  0.3482988E-009  0.9118800E+02  0.7816531E-02  0.1126479E+00
         25   -1    0    0    0    0  0.00000000000E+00  0.00000000000E+00  0.99999998245E-14  0.12500000000E+03  0.12500000000E+03 0.  0.
    3000001    1    3    3    0    0  0.11196818574E+02 -0.34477059651E+02 -0.27575244196E+02  0.45556892791E+02  0.10000000000E+01 0.  1.
    1000022    2    1    0    0    0  0.94501288666E+01 -0.46835070412E+02 -0.39031030428E+02  0.62500000357E+02  0.99999976099E+01 0.  0.
    3000022    2    3    3    0    0 -0.17466897069E+01 -0.12358010761E+02 -0.11455786232E+02  0.16943107565E+02  0.25000172842E+00 0.  0.
    1000022    2    1    0    0    0 -0.94501288666E+01  0.46835070412E+02  0.39031030428E+02  0.62499999643E+02  0.99999931523E+01 0.  0.
    3000022    2    5    5    0    0 -0.82328110540E+00  0.27649844750E+02  0.20254106598E+02  0.34285318101E+02  0.24999350652E+00 0.  0.
        -13    1    4    4    0    0 -0.53254979148E+00 -0.36382137392E+01 -0.34307835934E+01  0.50300605918E+01  0.10500000000E+00 0. -1.
         13    1    4    4    0    0 -0.12141399155E+01 -0.87197970221E+01 -0.80250026387E+01  0.11913046973E+02  0.10500000000E+00 0.  1.
    3000001    1    5    5    0    0 -0.86268477612E+01  0.19185225663E+02  0.18776923830E+02  0.28214681542E+02  0.10000000000E+01 0. -1.
        -13    1    6    6    0    0 -0.52242805083E+00  0.15342442003E+02  0.11253037798E+02  0.19034320118E+02  0.10500000000E+00 0.  1.
         13    1    6    6    0    0 -0.30085305457E+00  0.12307402747E+02  0.90010687997E+01  0.15250997983E+02  0.10500000000E+00 0. -1.
</event>
<event>
11    0  0.3482988E-009  0.9118800E+02  0.7816531E-02  0.1126479E+00
         25   -1    0    0    0    0  0.00000000000E+00  0.00000000000E+00  0.99999998245E-14  0.12500000000E+03  0.12500000000E+03 0.  0.
    3000001    1    3    3    0    0 -0.33362800753E+00 -0.15774749972E+01 -0.11061731514E+01  0.21962135723E+01  0.10000000000E+01 0.  1.
    1000022    2    1    0    0    0  0.19297173562E+02 -0.20646177875E+02 -0.54841632205E+02  0.62499993383E+02  0.99999490793E+01 0.  0.
    3000022    2    3    3    0    0  0.19630801569E+02 -0.19068702878E+02 -0.53735459054E+02  0.60303779810E+02  0.25000000746E+00 0.  0.
    1000022    2    1    0    0    0 -0.19297173562E+02  0.20646177875E+02  0.54841632205E+02  0.62500006617E+02  0.10000031796E+02 0.  0.
    3000022    2    5    5    0    0 -0.18082957133E+02  0.14332855169E+02  0.46593089913E+02  0.51994255094E+02  0.24991835398E+00 0.  0.
        -13    1    4    4    0    0  0.78088960468E+01 -0.75901434784E+01 -0.21520646881E+02  0.24119253775E+02  0.10500000000E+00 0.  1.
         13    1    4    4    0    0  0.11821905523E+02 -0.11478559399E+02 -0.32214812173E+02  0.36184526035E+02  0.10500000000E+00 0. -1.
    3000001    1    5    5    0    0 -0.12142164290E+01  0.63133227058E+01  0.82485422923E+01  0.10505751523E+02  0.10000000000E+01 0. -1.
        -13    1    6    6    0    0 -0.60662997518E+01  0.48191314173E+01  0.15765073956E+02  0.17566234717E+02  0.10500000000E+00 0.  1.
         13    1    6    6    0    0 -0.12016657381E+02  0.95137237518E+01  0.30828015957E+02  0.34428020377E+02  0.10500000000E+00 0. -1.
</event>
<event>
11    0  0.3482988E-009  0.9118800E+02  0.7816531E-02  0.1126479E+00
         25   -1    0    0    0    0  0.00000000000E+00  0.00000000000E+00  0.99999998245E-14  0.12500000000E+03  0.12500000000E+03 0.  0.
    3000001    1    3    3    0    0  0.29764695569E+02  0.10460306704E+02 -0.23983538588E+02  0.39642972163E+02  0.10000000000E+01 0. -1.
    1000022    2    1    0    0    0  0.45348521589E+02  0.23207263415E+02 -0.34802075874E+02  0.62500001450E+02  0.10000010530E+02 0.  0.
    3000022    2    3    3    0    0  0.15583826020E+02  0.12746956711E+02 -0.10818537286E+02  0.22857029287E+02  0.25000009123E+00 0.  0.
    1000022    2    1    0    0    0 -0.45348521589E+02 -0.23207263415E+02  0.34802075874E+02  0.62499998550E+02  0.99999924050E+01 0.  0.
    3000022    2    5    5    0    0 -0.84259408056E+01 -0.76831112938E+01  0.44816870147E+01  0.12254578347E+02  0.24998871542E+00 0.  0.
        -13    1    4    4    0    0  0.79230527864E+01  0.64250673457E+01 -0.55407753426E+01  0.11608939325E+02  0.10500000000E+00 0.  1.
         13    1    4    4    0    0  0.76607732333E+01  0.63218893652E+01 -0.52777619431E+01  0.11248089963E+02  0.10500000000E+00 0. -1.
    3000001    1    5    5    0    0 -0.36922580783E+02 -0.15524152122E+02  0.30320388859E+02  0.50245420203E+02  0.10000000000E+01 0.  1.
        -13    1    6    6    0    0 -0.52999002810E+01 -0.48588063729E+01  0.28860211260E+01  0.77483601683E+01  0.10500000000E+00 0.  1.
         13    1    6    6    0    0 -0.31260405246E+01 -0.28243049210E+01  0.15956658887E+01  0.45062181790E+01  0.10500000000E+00 0. -1.
</event>
<event>
11    0  0.3482988E-009  0.9118800E+02  0.7816531E-02  0.1126479E+00
         25   -1    0    0    0    0  0.00000000000E+00  0.00000000000E+00  0.99999998245E-14  0.12500000000E+03  0.12500000000E+03 0.  0.
    3000001    1    3    3    0    0 -0.23621367682E+02  0.23724049598E+02  0.62303142821E+01  0.34067819956E+02  0.10000000000E+01 0.  1.
    1000022    2    1    0    0    0 -0.36968893403E+02  0.48781903307E+02  0.77380897789E+01  0.62499991182E+02  0.99998847314E+01 0.  0.
    3000022    2    3    3    0    0 -0.13347525721E+02  0.25057853708E+02  0.15077754969E+01  0.28432171226E+02  0.24999663563E+00 0.  0.
    1000022    2    1    0    0    0  0.36968893403E+02 -0.48781903307E+02 -0.77380897789E+01  0.62500008818E+02  0.99999949576E+01 0.  0.
    3000022    2    5    5    0    0  0.14866569312E+02 -0.27798320474E+02 -0.41239679331E+01  0.31793570480E+02  0.25001606480E+00 0.  0.
        -13    1    4    4    0    0 -0.32043055303E+01  0.60321573315E+01  0.34449713020E+00  0.68398976071E+01  0.10500000000E+00 0.  1.
         13    1    4    4    0    0 -0.10143220191E+02  0.19025696377E+02  0.11632783667E+01  0.21592273619E+02  0.10500000000E+00 0. -1.
    3000001    1    5    5    0    0  0.22102324091E+02 -0.20983582832E+02 -0.36141218458E+01  0.30706438338E+02  0.10000000000E+01 0. -1.
        -13    1    6    6    0    0  0.10140812505E+02 -0.19032093041E+02 -0.28586553675E+01  0.21754070407E+02  0.10500000000E+00 0. -1.
         13    1    6    6    0    0  0.47257568076E+01 -0.87662274334E+01 -0.12653125656E+01  0.10039500073E+02  0.10500000000E+00 0.  1.
</event>
<event>
11    0  0.3482988E-009  0.9118800E+02  0.7816531E-02  0.1126479E+00
         25   -1    0    0    0    0  0.00000000000E+00  0.00000000000E+00  0.99999998245E-14  0.12500000000E+03  0.12500000000E+03 0.  0.
    3000001    1    3    3    0    0 -0.26197940901E+02  0.11771186665E+02 -0.28789412699E+01  0.28882196000E+02  0.10000000000E+01 0.  1.
    1000022    2    1    0    0    0 -0.52129057671E+02  0.32996514903E+02 -0.20370570585E+00  0.62500000202E+02  0.99999939865E+01 0.  0.
    3000022    2    3    3    0    0 -0.25931116770E+02  0.21225328239E+02  0.26752355640E+01  0.33617804202E+02  0.24999644979E+00 0.  0.
    1000022    2    1    0    0    0  0.52129057671E+02 -0.32996514903E+02  0.20370570585E+00  0.62499999798E+02  0.99999914660E+01 0.  0.
    3000022    2    5    5    0    0  0.96282884822E+01 -0.23585568852E+01 -0.17114892891E+01  0.10062724649E+02  0.25000421016E+00 0.  0.
        -13    1    4    4    0    0 -0.81733425314E+01  0.67178296380E+01  0.79959521522E+00  0.10610520284E+02  0.10500000000E+00 0. -1.
         13    1    4    4    0    0 -0.17757774239E+02  0.14507498601E+02  0.18756403488E+01  0.23007283918E+02  0.10500000000E+00 0.  1.
    3000001    1    5    5    0    0  0.42500769189E+02 -0.30637958018E+02  0.19151949949E+01  0.52437275149E+02  0.10000000000E+01 0. -1.
        -13    1    6    6    0    0  0.36169782448E+01 -0.93049109497E+00 -0.68778261647E+00  0.37990018727E+01  0.10500000000E+00 0. -1.
         13    1    6    6    0    0  0.60113102374E+01 -0.14280657902E+01 -0.10237066726E+01  0.62637227767E+01  0.10500000000E+00 0.  1.
</event>
<event>
11    0  0.3482988E-009  0.9118800E+02  0.7816531E-02  0.1126479E+00
         25   -1    0    0    0    0  0.00000000000E+00  0.00000000000E+00  0.99999998245E-14  0.12500000000E+03  0.12500000000E+03 0.  0.
    3000001    1    3    3    0    0  0.24925816662E+02  0.25821592984E+02  0.30943311312E+02  0.47397674156E+02  0.10000000000E+01 0. -1.
    1000022    2    1    0    0    0  0.34709660832E+02  0.36172229145E+02  0.35959134486E+02  0.62500000438E+02  0.99999992720E+01 0.  0.
    3000022    2    3    3    0    0  0.97838441696E+01  0.10350636161E+02  0.50158231740E+01  0.15102326282E+02  0.25000267233E+00 0.  0.
    1000022    2    1    0    0    0 -0.34709660832E+02 -0.36172229145E+02 -0.35959134486E+02  0.62499999562E+02  0.99999937939E+01 0.  0.
    3000022    2    5    5    0    0 -0.26984251461E+02 -0.23478391212E+02 -0.29060260362E+02  0.46086287745E+02  0.25000999460E+00 0.  0.
        -13    1    4    4    0    0  0.45726984110E+01  0.48857649645E+01  0.22943690762E+01  0.70749858307E+01  0.10500000000E+00 0.  1.
         13    1    4    4    0    0  0.52111457586E+01  0.54648711965E+01  0.27214540978E+01  0.80273404511E+01  0.10500000000E+00 0. -1.
    3000001    1    5    5    0    0 -0.77254093702E+01 -0.12693837934E+02 -0.68988741231E+01  0.16413711816E+02  0.10000000000E+01 0. -1.
        -13    1    6    6    0    0 -0.97492936508E+01 -0.85180205558E+01 -0.10585329520E+02  0.16723206239E+02  0.10500000000E+00 0.  1.
         13    1    6    6    0    0 -0.17234957811E+02 -0.14960370656E+02 -0.18474930842E+02  0.29363081506E+02  0.10500000000E+00 0. -1.
</event>
<event>
11    0  0.3482988E-009  0.9118800E+02  0.7816531E-02  0.1126479E+00
         25   -1    0    0    0    0  0.00000000000E+00  0.00000000000E+00  0.99999998245E-14  0.12500000000E+03  0.12500000000E+03 0.  0.
    3000001    1    3    3    0    0  0.19207997207E+02 -0.36948894882E+02 -0.23267879728E+02  0.47713333742E+02  0.10000000000E+01 0. -1.
    1000022    2    1    0    0    0  0.22643951861E+02 -0.45764052878E+02 -0.34628782807E+02  0.62499997088E+02  0.99999972806E+01 0.  0.
    3000022    2    3    3    0    0  0.34359546542E+01 -0.88151579954E+01 -0.11360903080E+02  0.14786663346E+02  0.24999852747E+00 0.  0.
    1000022    2    1    0    0    0 -0.22643951861E+02  0.45764052878E+02  0.34628782807E+02  0.62500002912E+02  0.10000033678E+02 0.  0.
    3000022    2    5    5    0    0 -0.21479949778E+02  0.40574800856E+02  0.27382821782E+02  0.53456375952E+02  0.24998851597E+00 0.  0.
        -13    1    4    4    0    0  0.11169298703E+01 -0.28071406721E+01 -0.35574001798E+01  0.46683714642E+01  0.10500000000E+00 0. -1.
         13    1    4    4    0    0  0.23190247839E+01 -0.60080173233E+01 -0.78035029000E+01  0.10118291882E+02  0.10500000000E+00 0. -1.
    3000001    1    5    5    0    0 -0.11640020835E+01  0.51892520215E+01  0.72459610259E+01  0.90436269595E+01  0.10000000000E+01 0.  1.
        -13    1    6    6    0    0 -0.60389967476E+01  0.11357989637E+02  0.77103027855E+01  0.14997773313E+02  0.10500000000E+00 0.  1.
         13    1    6    6    0    0 -0.15440953030E+02  0.29216811219E+02  0.19672518996E+02  0.38458602639E+02  0.10500000000E+00 0. -1.
</event>
<event>
11    0  0.3482988E-009  0.9118800E+02  0.7816531E-02  0.1126479E+00
         25   -1    0    0    0    0  0.00000000000E+00  0.00000000000E+00  0.99999998245E-14  0.12500000000E+03  0.12500000000E+03 0.  0.
    3000001    1    3    3    0    0 -0.45217066981E+02 -0.69536571281E+01  0.37364167372E+02  0.59076370041E+02  0.10000000000E+01 0.  1.
    1000022    2    1    0    0    0 -0.47089692101E+02 -0.50964213970E+01  0.39532738190E+02  0.62500000940E+02  0.10000005773E+02 0.  0.
    3000022    2    3    3    0    0 -0.18726251206E+01  0.18572357311E+01  0.21685708178E+01  0.34236308991E+01  0.24999947705E+00 0.  0.
    1000022    2    1    0    0    0  0.47089692101E+02  0.50964213970E+01 -0.39532738190E+02  0.62499999060E+02  0.99999940244E+01 0.  0.
    3000022    2    5    5    0    0  0.26019199581E+02 -0.21390246595E+01 -0.21292374098E+02  0.33689788771E+02  0.24999880013E+00 0.  0.
        -13    1    4    4    0    0 -0.74566563763E+00  0.65499157362E+00  0.82493791465E+00  0.12948276981E+01  0.10500000000E+00 0. -1.
         13    1    4    4    0    0 -0.11269594829E+01  0.12022441574E+01  0.13436329031E+01  0.21288032010E+01  0.10500000000E+00 0.  1.
    3000001    1    5    5    0    0  0.21070492521E+02  0.72354460566E+01 -0.18240364091E+02  0.28810210289E+02  0.10000000000E+01 0. -1.
        -13    1    6    6    0    0  0.13713326635E+02 -0.10952598552E+01 -0.11143198083E+02  0.17704146691E+02  0.10500000000E+00 0. -1.
         13    1    6    6    0    0  0.12305872946E+02 -0.10437648044E+01 -0.10149176015E+02  0.15985642080E+02  0.10500000000E+00 0.  1.
</event>
<event>
11    0  0.3482988E-009  0.9118800E+02  0.7816531E-02  0.1126479E+00
         25   -1    0    0    0    0  0.00000000000E+00  0.00000000000E+00  0.99999998245E-14  0.12500000000E+03  0.12500000000E+03 0.  0.
    3000001    1    3    3    0    0 -0.22826810909E+02 -0.21180084608E+02 -0.69380854479E+01  0.31918588784E+02  0.10000000000E+01 0. -1.
    1000022    2    1    0    0    0 -0.49833167548E+02 -0.35489922320E+02 -0.79605757646E+01  0.62500000488E+02  0.10000006020E+02 0.  0.
    3000022    2    3    3    0    0 -0.27006356640E+02 -0.14309837712E+02 -0.10224903167E+01  0.30581411705E+02  0.25000224169E+00 0.  0.
    1000022    2    1    0    0    0  0.49833167548E+02  0.35489922320E+02  0.79605757646E+01  0.62499999512E+02  0.99999999167E+01 0.  0.
    3000022    2    5    5    0    0  0.47524743026E+02  0.34680170956E+02  0.92553860681E+01  0.59557032511E+02  0.24998608789E+00 0.  0.
        -13    1    4    4    0    0 -0.94920907539E+01 -0.49663504272E+01 -0.34926742108E+00  0.10719022165E+02  0.10500000000E+00 0.  1.
         13    1    4    4    0    0 -0.17514265886E+02 -0.93434872844E+01 -0.67322289560E+00  0.19862389539E+02  0.10500000000E+00 0. -1.
    3000001    1    5    5    0    0  0.23084245219E+01  0.80975136415E+00 -0.12948103035E+01  0.29429670007E+01  0.10000000000E+01 0. -1.
        -13    1    6    6    0    0  0.27431917875E+02  0.19944117967E+02  0.53619668637E+01  0.34337147136E+02  0.10500000000E+00 0. -1.
         13    1    6    6    0    0  0.20092825151E+02  0.14736052989E+02  0.38934192044E+01  0.25219885375E+02  0.10500000000E+00 0.  1.
</event>
<event>
11    0  0.3482988E-009  0.9118800E+02  0.7816531E-02  0.1126479E+00
         25   -1    0    0    0    0  0.00000000000E+00  0.00000000000E+00  0.99999998245E-14  0.12500000000E+03  0.12500000000E+03 0.  0.
    3000001    1    3    3    0    0 -0.32241874795E+02  0.14094899946E-01  0.21157161395E+02  0.38576730904E+02  0.10000000000E+01 0. -1.
    1000022    2    1    0    0    0 -0.50331814722E+02  0.75682628755E+01  0.34866604624E+02  0.62499998093E+02  0.99999733721E+01 0.  0.
    3000022    2    3    3    0    0 -0.18089939927E+02  0.75541679756E+01  0.13709443229E+02  0.23923267189E+02  0.24999793131E+00 0.  0.
    1000022    2    1    0    0    0  0.50331814722E+02 -0.75682628755E+01 -0.34866604624E+02  0.62500001907E+02  0.99999972112E+01 0.  0.
    3000022    2    5    5    0    0  0.51001416842E+01 -0.23932946430E+01 -0.94820486077E+00  0.57184698346E+01  0.25000068789E+00 0.  0.
        -13    1    4    4    0    0 -0.10166035757E+02  0.42552882599E+01  0.77866481173E+01  0.13494394210E+02  0.10500000000E+00 0.  1.
         13    1    4    4    0    0 -0.79239041694E+01  0.32988797157E+01  0.59227951118E+01  0.10428872978E+02  0.10500000000E+00 0. -1.
    3000001    1    5    5    0    0  0.45231673038E+02 -0.51749682325E+01 -0.33918399764E+02  0.56781532073E+02  0.10000000000E+01 0.  1.
        -13    1    6    6    0    0  0.27944900739E+01 -0.12385853402E+01 -0.50187150877E+00  0.30993819431E+01  0.10500000000E+00 0. -1.
         13    1    6    6    0    0  0.23056516103E+01 -0.11547093028E+01 -0.44633335199E+00  0.26190878914E+01  0.10500000000E+00 0.  1.
</event>
<event>
11    0  0.3482988E-009  0.9118800E+02  0.7816531E-02  0.1126479E+00
         25   -1    0    0    0    0  0.00000000000E+00  0.00000000000E+00  0.99999998245E-14  0.12500000000E+03  0.12500000000E+03 0.  0.
    3000001    1    3    3    0    0 -0.12871206711E+02 -0.37640522738E+01 -0.42327581470E+02  0.44412387966E+02  0.10000000000E+01 0.  1.
    1000022    2    1    0    0    0 -0.22667349960E+02 -0.86506986766E+01 -0.56723950855E+02  0.62499999376E+02  0.99999989823E+01 0.  0.
    3000022    2    3    3    0    0 -0.97961432484E+01 -0.48866464028E+01 -0.14396369384E+02  0.18087611410E+02  0.24999890878E+00 0.  0.
    1000022    2    1    0    0    0  0.22667349960E+02  0.86506986766E+01  0.56723950855E+02  0.62500000624E+02  0.10000006784E+02 0.  0.
    3000022    2    5    5    0    0 -0.87365160597E+00  0.11972953842E+01  0.26536996520E+01  0.30498194599E+01  0.24998705841E+00 0.  0.
        -13    1    4    4    0    0 -0.54080624790E+01 -0.27269194405E+01 -0.78633837725E+01  0.99260797279E+01  0.10500000000E+00 0.  1.
         13    1    4    4    0    0 -0.43880807694E+01 -0.21597269623E+01 -0.65329856116E+01  0.81615316817E+01  0.10500000000E+00 0. -1.
    3000001    1    5    5    0    0  0.23541001566E+02  0.74534032925E+01  0.54070251203E+02  0.59450181164E+02  0.10000000000E+01 0.  1.
        -13    1    6    6    0    0 -0.28248743177E+00  0.39769231473E+00  0.77879004715E+00  0.92493095085E+00  0.10500000000E+00 0.  1.
         13    1    6    6    0    0 -0.59116417420E+00  0.79960306944E+00  0.18749096048E+01  0.21248885090E+01  0.10500000000E+00 0. -1.
</event>
<event>
11    0  0.3482988E-009  0.9118800E+02  0.7816531E-02  0.1126479E+00
         25   -1    0    0    0    0  0.00000000000E+00  0.00000000000E+00  0.99999998245E-14  0.12500000000E+03  0.12500000000E+03 0.  0.
    3000001    1    3    3    0    0 -0.10460194758E+01 -0.55684175014E+02  0.20234879122E+02  0.59264423028E+02  0.10000000000E+01 0. -1.
    1000022    2    1    0    0    0 -0.49416633064E+00 -0.57243313947E+02  0.23004537584E+02  0.62500001177E+02  0.10000010286E+02 0.  0.
    3000022    2    3    3    0    0  0.55185314521E+00 -0.15591389335E+01  0.27696584611E+01  0.32355781496E+01  0.25000372697E+00 0.  0.
    1000022    2    1    0    0    0  0.49416633064E+00  0.57243313947E+02 -0.23004537584E+02  0.62499998823E+02  0.99999955673E+01 0.  0.
    3000022    2    5    5    0    0  0.19954513995E+01  0.10715866823E+02 -0.85102687861E+00  0.10936104194E+02  0.25000024930E+00 0.  0.
        -13    1    4    4    0    0  0.21330102505E+00 -0.62987096254E+00  0.12408648356E+01  0.14117383953E+01  0.10500000000E+00 0.  1.
         13    1    4    4    0    0  0.33855212016E+00 -0.92926797093E+00  0.15287936255E+01  0.18238397543E+01  0.10500000000E+00 0. -1.
    3000001    1    5    5    0    0 -0.15012850689E+01  0.46527447124E+02 -0.22153510705E+02  0.51563894629E+02  0.10000000000E+01 0. -1.
        -13    1    6    6    0    0  0.92753882335E+00  0.52489136287E+01 -0.46305774314E+00  0.53513428243E+01  0.10500000000E+00 0.  1.
         13    1    6    6    0    0  0.10679125762E+01  0.54669531945E+01 -0.38796913547E+00  0.55847613693E+01  0.10500000000E+00 0. -1.
</event>
<event>
11    0  0.3482988E-009  0.9118800E+02  0.7816531E-02  0.1126479E+00
         25   -1    0    0    0    0  0.00000000000E+00  0.00000000000E+00  0.99999998245E-14  0.12500000000E+03  0.12500000000E+03 0.  0.
    3000001    1    3    3    0    0 -0.10835714397E+02 -0.91010282909E+01  0.20702478942E+01  0.14336225054E+02  0.10000000000E+01 0.  1.
    1000022    2    1    0    0    0 -0.52993321611E+02 -0.31088479173E+02 -0.56092764457E+01  0.62500002256E+02  0.10000031353E+02 0.  0.
    3000022    2    3    3    0    0 -0.42157607214E+02 -0.21987450882E+02 -0.76795243400E+01  0.48163777202E+02  0.24999597279E+00 0.  0.
    1000022    2    1    0    0    0  0.52993321611E+02  0.31088479173E+02  0.56092764457E+01  0.62499997744E+02  0.10000003158E+02 0.  0.
    3000022    2    5    5    0    0  0.46144833971E+02  0.25799700141E+02  0.79938090037E+01  0.53468997682E+02  0.25000236692E+00 0.  0.
        -13    1    4    4    0    0 -0.10083100301E+02 -0.52584964353E+01 -0.18178986620E+01  0.11516791089E+02  0.10500000000E+00 0.  1.
         13    1    4    4    0    0 -0.32074506912E+02 -0.16728954447E+02 -0.58616256780E+01  0.36646986113E+02  0.10500000000E+00 0. -1.
    3000001    1    5    5    0    0  0.68484876403E+01  0.52887790319E+01 -0.23845325579E+01  0.90310000624E+01  0.10000000000E+01 0. -1.
        -13    1    6    6    0    0  0.12978176548E+02  0.72972268368E+01  0.22697865230E+01  0.15061392428E+02  0.10500000000E+00 0.  1.
         13    1    6    6    0    0  0.33166657423E+02  0.18502473304E+02  0.57240224807E+01  0.38407605254E+02  0.10500000000E+00 0. -1.
</event>
<event>
11    0  0.3482988E-009  0.9118800E+02  0.7816531E-02  0.1126479E+00
         25   -1    0    0    0    0  0.00000000000E+00  0.00000000000E+00  0.99999998245E-14  0.12500000000E+03  0.12500000000E+03 0.  0.
    3000001    1    3    3    0    0 -0.12386297901E+02 -0.31939557614E+02  0.23238365861E+02  0.41407455418E+02  0.10000000000E+01 0. -1.
    1000022    2    1    0    0    0 -0.22782407298E+02 -0.49228842945E+02  0.29389327087E+02  0.62499996807E+02  0.99999997114E+01 0.  0.
    3000022    2    3    3    0    0 -0.10396109396E+02 -0.17289285330E+02  0.61509612264E+01  0.21092541389E+02  0.25000082112E+00 0.  0.
    1000022    2    1    0    0    0  0.22782407298E+02  0.49228842945E+02 -0.29389327087E+02  0.62500003193E+02  0.10000039629E+02 0.  0.
    3000022    2    5    5    0    0  0.11561010543E+02  0.20040760269E+02 -0.75253930407E+01  0.24330702343E+02  0.24999830613E+00 0.  0.
        -13    1    4    4    0    0 -0.33137457207E+01 -0.54459331593E+01  0.19823826464E+01  0.66768229446E+01  0.10500000000E+00 0.  1.
         13    1    4    4    0    0 -0.70823636756E+01 -0.11843352171E+02  0.41685785800E+01  0.14415718444E+02  0.10500000000E+00 0. -1.
    3000001    1    5    5    0    0  0.11221396754E+02  0.29188082675E+02 -0.21863934047E+02  0.38169300850E+02  0.10000000000E+01 0.  1.
        -13    1    6    6    0    0  0.49765044131E+01  0.85582896998E+01 -0.32787697600E+01  0.10429346811E+02  0.10500000000E+00 0.  1.
         13    1    6    6    0    0  0.65845061302E+01  0.11482470570E+02 -0.42466232807E+01  0.13901355533E+02  0.10500000000E+00 0. -1.
</event>
<event>
11    0  0.3482988E-009  0.9118800E+02  0.7816531E-02  0.1126479E+00
         25   -1    0    0    0    0  0.00000000000E+00  0.00000000000E+00  0.99999998245E-14  0.12500000000E+03  0.12500000000E+03 0.  0.
    3000001    1    3    3    0    0  0.98198212096E+01 -0.84167547198E+01 -0.81868191710E+01  0.15339317349E+02  0.10000000000E+01 0. -1.
    1000022    2    1    0    0    0  0.26875846884E+02 -0.45279708181E+02 -0.32151001739E+02  0.62499999148E+02  0.99999931047E+01 0.  0.
    3000022    2    3    3    0    0  0.17056025674E+02 -0.36862953461E+02 -0.23964182568E+02  0.47160681799E+02  0.25002392635E+00 0.  0.
    1000022    2    1    0    0    0 -0.26875846884E+02  0.45279708181E+02  0.32151001739E+02  0.62500000852E+02  0.10000003749E+02 0.  0.
    3000022    2    5    5    0    0 -0.34250364689E+01  0.24174352920E+01  0.52285005458E+01  0.67063093013E+01  0.24999656827E+00 0.  0.
        -13    1    4    4    0    0  0.88308539883E+01 -0.19076300387E+02 -0.12480846010E+02  0.24447326249E+02  0.10500000000E+00 0.  1.
         13    1    4    4    0    0  0.82251716858E+01 -0.17786653074E+02 -0.11483336559E+02  0.22713355550E+02  0.10500000000E+00 0. -1.
    3000001    1    5    5    0    0 -0.23450810415E+02  0.42862272889E+02  0.26922501193E+02  0.55793691550E+02  0.10000000000E+01 0.  1.
        -13    1    6    6    0    0 -0.17815344981E+01  0.11967117125E+01  0.26020214228E+01  0.33745406466E+01  0.10500000000E+00 0.  1.
         13    1    6    6    0    0 -0.16435019708E+01  0.12207235794E+01  0.26264791230E+01  0.33317686548E+01  0.10500000000E+00 0. -1.
</event>
<event>
11    0  0.3482988E-009  0.9118800E+02  0.7816531E-02  0.1126479E+00
         25   -1    0    0    0    0  0.00000000000E+00  0.00000000000E+00  0.99999998245E-14  0.12500000000E+03  0.12500000000E+03 0.  0.
    3000001    1    3    3    0    0  0.79685252006E+00 -0.17814416681E+02 -0.11662014897E+02  0.21330518209E+02  0.10000000000E+01 0.  1.
    1000022    2    1    0    0    0  0.21505186739E+01 -0.42942578841E+02 -0.44244327458E+02  0.62500003642E+02  0.10000006745E+02 0.  0.
    3000022    2    3    3    0    0  0.13536661539E+01 -0.25128162160E+02 -0.32582312562E+02  0.41169485433E+02  0.24998663990E+00 0.  0.
    1000022    2    1    0    0    0 -0.21505186739E+01  0.42942578841E+02  0.44244327458E+02  0.62499996358E+02  0.99999612185E+01 0.  0.
    3000022    2    5    5    0    0  0.26551421154E+01  0.11414144412E+02  0.16352919551E+02  0.20119963462E+02  0.24995911975E+00 0.  0.
        -13    1    4    4    0    0  0.66554231084E+00 -0.11181467282E+02 -0.14469110471E+02  0.18298479171E+02  0.10500000000E+00 0.  1.
         13    1    4    4    0    0  0.68812384301E+00 -0.13946694878E+02 -0.18113202091E+02  0.22871006262E+02  0.10500000000E+00 0. -1.
    3000001    1    5    5    0    0 -0.48056607893E+01  0.31528434430E+02  0.27891407907E+02  0.42380032896E+02  0.10000000000E+01 0. -1.
        -13    1    6    6    0    0  0.18542297795E+01  0.81520532860E+01  0.11650049018E+02  0.14339763177E+02  0.10500000000E+00 0.  1.
         13    1    6    6    0    0  0.80091233582E+00  0.32620911257E+01  0.47028705329E+01  0.57802002847E+01  0.10500000000E+00 0. -1.
</event>
<event>
11    0  0.3482988E-009  0.9118800E+02  0.7816531E-02  0.1126479E+00
         25   -1    0    0    0    0  0.00000000000E+00  0.00000000000E+00  0.99999998245E-14  0.12500000000E+03  0.12500000000E+03 0.  0.
    3000001    1    3    3    0    0  0.56423914759E+01 -0.17958225340E+02 -0.24954527241E+02  0.31273996687E+02  0.10000000000E+01 0.  1.
    1000022    2    1    0    0    0  0.31664972080E+01 -0.40425459729E+02 -0.46497371456E+02  0.62500000452E+02  0.10000000267E+02 0.  0.
    3000022    2    3    3    0    0 -0.24758942679E+01 -0.22467234388E+02 -0.21542844214E+02  0.31226003765E+02  0.25000156678E+00 0.  0.
    1000022    2    1    0    0    0 -0.31664972080E+01  0.40425459729E+02  0.46497371456E+02  0.62499999548E+02  0.99999946190E+01 0.  0.
    3000022    2    5    5    0    0  0.18201706290E+01  0.21919644088E+02  0.19629355387E+02  0.29481484195E+02  0.24999875133E+00 0.  0.
        -13    1    4    4    0    0 -0.18002189790E+01 -0.16288493622E+02 -0.15566418034E+02  0.22602659318E+02  0.10500000000E+00 0.  1.
         13    1    4    4    0    0 -0.67567528894E+00 -0.61787407668E+01 -0.59764261800E+01  0.86233444466E+01  0.10500000000E+00 0. -1.
    3000001    1    5    5    0    0 -0.49866678370E+01  0.18505815641E+02  0.26868016069E+02  0.33018515353E+02  0.10000000000E+01 0. -1.
        -13    1    6    6    0    0  0.88089231805E+00  0.98622503942E+01  0.88702193923E+01  0.13294050217E+02  0.10500000000E+00 0. -1.
         13    1    6    6    0    0  0.93927831092E+00  0.12057393694E+02  0.10759135995E+02  0.16187433978E+02  0.10500000000E+00 0.  1.
</event>
<event>
11    0  0.3482988E-009  0.9118800E+02  0.7816531E-02  0.1126479E+00
         25   -1    0    0    0    0  0.00000000000E+00  0.00000000000E+00  0.99999998245E-14  0.12500000000E+03  0.12500000000E+03 0.  0.
    3000001    1    3    3    0    0 -0.34374539640E+01  0.10797752060E+02  0.98743439628E+01  0.15063539026E+02  0.10000000000E+01 0.  1.
    1000022    2    1    0    0    0 -0.29919973114E+02  0.37661449762E+02  0.38634964537E+02  0.62500000831E+02  0.10000001485E+02 0.  0.
    3000022    2    3    3    0    0 -0.26482519150E+02  0.26863697702E+02  0.28760620574E+02  0.47436461805E+02  0.25007582252E+00 0.  0.
    1000022    2    1    0    0    0  0.29919973114E+02 -0.37661449762E+02 -0.38634964537E+02  0.62499999169E+02  0.99999910990E+01 0.  0.
    3000022    2    5    5    0    0  0.41791290485E+01 -0.58095322367E+01 -0.10853953210E+02  0.13003329648E+02  0.24999449688E+00 0.  0.
        -13    1    4    4    0    0 -0.10666785614E+02  0.10807085177E+02  0.11498487921E+02  0.19047300460E+02  0.10500000000E+00 0.  1.
         13    1    4    4    0    0 -0.15815733537E+02  0.16056612525E+02  0.17262132653E+02  0.28389161344E+02  0.10500000000E+00 0. -1.
    3000001    1    5    5    0    0  0.25740844066E+02 -0.31851917526E+02 -0.27781011328E+02  0.49496669521E+02  0.10000000000E+01 0. -1.
        -13    1    6    6    0    0  0.23639237024E+01 -0.33349256909E+01 -0.60916336287E+01  0.73368174232E+01  0.10500000000E+00 0.  1.
         13    1    6    6    0    0  0.18152053461E+01 -0.24746065458E+01 -0.47623195808E+01  0.56665122249E+01  0.10500000000E+00 0. -1.
</event>
<event>
11    0  0.3482988E-009  0.9118800E+02  0.7816531E-02  0.1126479E+00
         25   -1    0    0    0    0  0.00000000000E+00  0.00000000000E+00  0.99999998245E-14  0.12500000000E+03  0.12500000000E+03 0.  0.
    3000001    1    3    3    0    0 -0.13390188313E+01 -0.56659574188E+00 -0.84073934856E+00  0.19546981397E+01  0.10000000000E+01 0. -1.
    1000022    2    1    0    0    0 -0.39049374194E+02  0.25586616047E+02 -0.40332633825E+02  0.62500000309E+02  0.10000007084E+02 0.  0.
    3000022    2    3    3    0    0 -0.37710355362E+02  0.26153211789E+02 -0.39491894476E+02  0.60545302169E+02  0.24999395739E+00 0.  0.
    1000022    2    1    0    0    0  0.39049374194E+02 -0.25586616047E+02  0.40332633825E+02  0.62499999691E+02  0.10000003224E+02 0.  0.
    3000022    2    5    5    0    0  0.10047209731E+02 -0.12053715787E+02  0.12222608449E+02  0.19892037295E+02  0.25000553662E+00 0.  0.
        -13    1    4    4    0    0 -0.15151314270E+02  0.10568356758E+02 -0.15948571924E+02  0.24405336713E+02  0.10500000000E+00 0.  1.
         13    1    4    4    0    0 -0.22559041092E+02  0.15584855031E+02 -0.23543322553E+02  0.36139965456E+02  0.10500000000E+00 0. -1.
    3000001    1    5    5    0    0  0.29002164463E+02 -0.13532900260E+02  0.28110025375E+02  0.42607962397E+02  0.10000000000E+01 0.  1.
        -13    1    6    6    0    0  0.48776615427E+01 -0.57470485181E+01  0.58597675274E+01  0.95481961264E+01  0.10500000000E+00 0.  1.
         13    1    6    6    0    0  0.51695481880E+01 -0.63066672690E+01  0.63628409221E+01  0.10343841168E+02  0.10500000000E+00 0. -1.
</event>
<event>
11    0  0.3482988E-009  0.9118800E+02  0.7816531E-02  0.1126479E+00
         25   -1    0    0    0    0  0.00000000000E+00  0.00000000000E+00  0.99999998245E-14  0.12500000000E+03  0.12500000000E+03 0.  0.
    3000001    1    3    3    0    0  0.39520119306E+01  0.39561790300E+02 -0.64603106445E+01  0.40292546007E+02  0.10000000000E+01 0. -1.
    1000022    2    1    0    0    0  0.10738082593E+01  0.61508041532E+02 -0.46752322344E+01  0.62499999839E+02  0.99999973028E+01 0.  0.
    3000022    2    3    3    0    0 -0.28782036713E+01  0.21946251232E+02  0.17850784101E+01  0.22207453832E+02  0.25000252064E+00 0.  0.
    1000022    2    1    0    0    0 -0.10738082593E+01 -0.61508041532E+02  0.46752322344E+01  0.62500000161E+02  0.99999993186E+01 0.  0.
    3000022    2    5    5    0    0  0.23335349263E+00 -0.37494427600E+02 -0.19128176992E+01  0.37544745647E+02  0.24999848712E+00 0.  0.
        -13    1    4    4    0    0 -0.13104182413E+01  0.98147121210E+01  0.73594941797E+00  0.99296735360E+01  0.10500000000E+00 0.  1.
         13    1    4    4    0    0 -0.15677854299E+01  0.12131539111E+02  0.10491289921E+01  0.12277780296E+02  0.10500000000E+00 0. -1.
    3000001    1    5    5    0    0 -0.13071617519E+01 -0.24013613932E+02  0.65880499335E+01  0.24955254514E+02  0.10000000000E+01 0.  1.
        -13    1    6    6    0    0  0.10012330585E+00 -0.14343514896E+02 -0.67151878895E+00  0.14359958451E+02  0.10500000000E+00 0.  1.
         13    1    6    6    0    0  0.13323018678E+00 -0.23150912705E+02 -0.12412989102E+01  0.23184787196E+02  0.10500000000E+00 0. -1.
</event>
<event>
11    0  0.3482988E-009  0.9118800E+02  0.7816531E-02  0.1126479E+00
         25   -1    0    0    0    0  0.00000000000E+00  0.00000000000E+00  0.99999998245E-14  0.12500000000E+03  0.12500000000E+03 0.  0.
    3000001    1    3    3    0    0  0.38017508337E+02 -0.21621200484E+02  0.50350219009E+00  0.43749980172E+02  0.10000000000E+01 0. -1.
    1000022    2    1    0    0    0  0.50207428604E+02 -0.35853244775E+02 -0.92785665239E-01  0.62500001487E+02  0.10000026436E+02 0.  0.
    3000022    2    3    3    0    0  0.12189920267E+02 -0.14232044291E+02 -0.59628785533E+00  0.18750021315E+02  0.24999861168E+00 0.  0.
    1000022    2    1    0    0    0 -0.50207428604E+02  0.35853244775E+02  0.92785665239E-01  0.62499998513E+02  0.10000007849E+02 0.  0.
    3000022    2    5    5    0    0 -0.46237731920E+02  0.29351707342E+02 -0.73326879887E+00  0.54772719125E+02  0.25000052228E+00 0.  0.
        -13    1    4    4    0    0  0.31836799875E+01 -0.36721872730E+01 -0.16609664562E+00  0.48640919734E+01  0.10500000000E+00 0. -1.
         13    1    4    4    0    0  0.90062402795E+01 -0.10559857018E+02 -0.43019120971E+00  0.13885929342E+02  0.10500000000E+00 0.  1.
    3000001    1    5    5    0    0 -0.39696966848E+01  0.65015374329E+01  0.82605446411E+00  0.77272793879E+01  0.10000000000E+01 0.  1.
        -13    1    6    6    0    0 -0.22496858816E+02  0.14278295913E+02 -0.28904346614E+00  0.26647194260E+02  0.10500000000E+00 0. -1.
         13    1    6    6    0    0 -0.23740873103E+02  0.15073411429E+02 -0.44422533273E+00  0.28125524866E+02  0.10500000000E+00 0.  1.
</event>
<event>
11    0  0.3482988E-009  0.9118800E+02  0.7816531E-02  0.1126479E+00
         25   -1    0    0    0    0  0.00000000000E+00  0.00000000000E+00  0.99999998245E-14  0.12500000000E+03  0.12500000000E+03 0.  0.
    3000001    1    3    3    0    0  0.52292231864E+01  0.40155091764E+02 -0.14891600435E+02  0.43157107564E+02  0.10000000000E+01 0. -1.
    1000022    2    1    0    0    0  0.70027334511E+01  0.54875132583E+02 -0.27311746769E+02  0.62499999721E+02  0.10000000086E+02 0.  0.
    3000022    2    3    3    0    0  0.17735102647E+01  0.14720040819E+02 -0.12420146334E+02  0.19342892158E+02  0.25000336994E+00 0.  0.
    1000022    2    1    0    0    0 -0.70027334511E+01 -0.54875132583E+02  0.27311746769E+02  0.62500000279E+02  0.10000003571E+02 0.  0.
    3000022    2    5    5    0    0 -0.54285103793E+01 -0.12332423281E+02  0.46115455773E+01  0.14243814900E+02  0.25004279287E+00 0.  0.
        -13    1    4    4    0    0  0.67045052578E+00  0.52322473317E+01 -0.43651851354E+01  0.68477574661E+01  0.10500000000E+00 0. -1.
         13    1    4    4    0    0  0.11030597389E+01  0.94877934873E+01 -0.80549611988E+01  0.12495134692E+02  0.10500000000E+00 0.  1.
    3000001    1    5    5    0    0 -0.15742230718E+01 -0.42542709303E+02  0.22700201192E+02  0.48256185378E+02  0.10000000000E+01 0. -1.
        -13    1    6    6    0    0 -0.15984972544E+01 -0.35272372140E+01  0.13300352504E+01  0.40959265867E+01  0.10500000000E+00 0.  1.
         13    1    6    6    0    0 -0.38300131249E+01 -0.88051860665E+01  0.32815103270E+01  0.10147888314E+02  0.10500000000E+00 0. -1.
</event>
<event>
11    0  0.3482988E-009  0.9118800E+02  0.7816531E-02  0.1126479E+00
         25   -1    0    0    0    0  0.00000000000E+00  0.00000000000E+00  0.99999998245E-14  0.12500000000E+03  0.12500000000E+03 0.  0.
    3000001    1    3    3    0    0  0.29276509764E+01 -0.12797966951E+01 -0.16004273991E+01  0.37108472995E+01  0.10000000000E+01 0. -1.
    1000022    2    1    0    0    0  0.41940722834E+02  0.94813722570E+01 -0.44241713857E+02  0.62499998876E+02  0.99999981392E+01 0.  0.
    3000022    2    3    3    0    0  0.39013071858E+02  0.10761168952E+02 -0.42641286458E+02  0.58789151577E+02  0.24999864558E+00 0.  0.
    1000022    2    1    0    0    0 -0.41940722834E+02 -0.94813722570E+01  0.44241713857E+02  0.62500001124E+02  0.10000012188E+02 0.  0.
    3000022    2    5    5    0    0 -0.85892794735E+01 -0.52458436942E+01  0.14172700889E+02  0.17384549033E+02  0.24999334683E+00 0.  0.
        -13    1    4    4    0    0  0.16843079729E+02  0.45830267256E+01 -0.18355510815E+02  0.25330402109E+02  0.10500000000E+00 0. -1.
         13    1    4    4    0    0  0.22169992129E+02  0.61781422265E+01 -0.24285775643E+02  0.33458749468E+02  0.10500000000E+00 0.  1.
    3000001    1    5    5    0    0 -0.33351443361E+02 -0.42355285628E+01  0.30069012968E+02  0.45115452090E+02  0.10000000000E+01 0.  1.
        -13    1    6    6    0    0 -0.42502416768E+01 -0.25240578924E+01  0.70107019604E+01  0.85788338096E+01  0.10500000000E+00 0. -1.
         13    1    6    6    0    0 -0.43390377967E+01 -0.27217858017E+01  0.71619989285E+01  0.88057152239E+01  0.10500000000E+00 0.  1.
</event>
<event>
11    0  0.3482988E-009  0.9118800E+02  0.7816531E-02  0.1126479E+00
         25   -1    0    0    0    0  0.00000000000E+00  0.00000000000E+00  0.99999998245E-14  0.12500000000E+03  0.12500000000E+03 0.  0.
    3000001    1    3    3    0    0  0.41331472630E+02 -0.78802818891E+01 -0.82628010693E+01  0.42891296949E+02  0.10000000000E+01 0. -1.
    1000022    2    1    0    0    0  0.57775484207E+02 -0.17711629800E+02 -0.12431475356E+02  0.62500000658E+02  0.10000004858E+02 0.  0.
    3000022    2    3    3    0    0  0.16444011577E+02 -0.98313479112E+01 -0.41686742865E+01  0.19608703709E+02  0.24999470296E+00 0.  0.
    1000022    2    1    0    0    0 -0.57775484207E+02  0.17711629800E+02  0.12431475356E+02  0.62499999342E+02  0.99999966375E+01 0.  0.
    3000022    2    5    5    0    0 -0.29046798123E+02  0.14052943350E+02  0.69313971843E+01  0.33004673432E+02  0.25000688051E+00 0.  0.
        -13    1    4    4    0    0  0.96887126685E+01 -0.57745317031E+01 -0.25177277698E+01  0.11557090797E+02  0.10500000000E+00 0. -1.
         13    1    4    4    0    0  0.67552989083E+01 -0.40568162081E+01 -0.16509465167E+01  0.80516129122E+01  0.10500000000E+00 0.  1.
    3000001    1    5    5    0    0 -0.28728686084E+02  0.36586864499E+01  0.55000781715E+01  0.29495325910E+02  0.10000000000E+01 0.  1.
        -13    1    6    6    0    0 -0.13761968086E+02  0.65931106963E+01  0.33123697997E+01  0.15615495283E+02  0.10500000000E+00 0.  1.
         13    1    6    6    0    0 -0.15284830037E+02  0.74598326540E+01  0.36190273846E+01  0.17389178149E+02  0.10500000000E+00 0. -1.
</event>
<event>
11    0  0.3482988E-009  0.9118800E+02  0.7816531E-02  0.1126479E+00
         25   -1    0    0    0    0  0.00000000000E+00  0.00000000000E+00  0.99999998245E-14  0.12500000000E+03  0.12500000000E+03 0.  0.
    3000001    1    3    3    0    0 -0.98684188385E+01  0.37358782544E+02 -0.20480861947E+02  0.43743914201E+02  0.10000000000E+01 0. -1.
    1000022    2    1    0    0    0 -0.10771509076E+02  0.55718314077E+02 -0.24201116449E+02  0.62500000247E+02  0.10000003105E+02 0.  0.
    3000022    2    3    3    0    0 -0.90309023730E+00  0.18359531533E+02 -0.37202545018E+01  0.18756086046E+02  0.25000019725E+00 0.  0.
    1000022    2    1    0    0    0  0.10771509076E+02 -0.55718314077E+02  0.24201116449E+02  0.62499999753E+02  0.10000000018E+02 0.  0.
    3000022    2    5    5    0    0  0.11353399043E+02 -0.48076909175E+02  0.23601284698E+02  0.54748260403E+02  0.25002430787E+00 0.  0.
        -13    1    4    4    0    0 -0.34219373112E+00  0.59379269019E+01 -0.12163173340E+01  0.60717810648E+01  0.10500000000E+00 0. -1.
         13    1    4    4    0    0 -0.56089650618E+00  0.12421604631E+02 -0.25039371678E+01  0.12684304981E+02  0.10500000000E+00 0.  1.
    3000001    1    5    5    0    0 -0.58188996718E+00 -0.76414049027E+01  0.59983175103E+00  0.77517393500E+01  0.10000000000E+01 0. -1.
        -13    1    6    6    0    0  0.43489539376E+01 -0.18455683460E+02  0.89918657270E+01  0.20985478945E+02  0.10500000000E+00 0.  1.
         13    1    6    6    0    0  0.70044451054E+01 -0.29621225715E+02  0.14609418971E+02  0.33762781458E+02  0.10500000000E+00 0. -1.
</event>
<event>
11    0  0.3482988E-009  0.9118800E+02  0.7816531E-02  0.1126479E+00
         25   -1    0    0    0    0  0.00000000000E+00  0.00000000000E+00  0.99999998245E-14  0.12500000000E+03  0.12500000000E+03 0.  0.
    3000001    1    3    3    0    0 -0.74410532151E+01  0.66262634282E+01  0.42084380280E+02  0.43259353942E+02  0.10000000000E+01 0. -1.
    1000022    2    1    0    0    0 -0.15971386862E+02  0.57974893332E+01  0.59308970090E+02  0.62499999854E+02  0.99999983891E+01 0.  0.
    3000022    2    3    3    0    0 -0.85303336466E+01 -0.82877409495E+00  0.17224589810E+02  0.19240645912E+02  0.25000470938E+00 0.  0.
    1000022    2    1    0    0    0  0.15971386862E+02 -0.57974893332E+01 -0.59308970090E+02  0.62500000146E+02  0.10000000210E+02 0.  0.
    3000022    2    5    5    0    0  0.42873149782E+01 -0.63723203474E+01 -0.18415901200E+02  0.19954835323E+02  0.24999891126E+00 0.  0.
        -13    1    4    4    0    0 -0.47126618551E+01 -0.48730473843E+00  0.96548728557E+01  0.10755196071E+02  0.10500000000E+00 0.  1.
         13    1    4    4    0    0 -0.38176717916E+01 -0.34146935652E+00  0.75697169544E+01  0.84854498407E+01  0.10500000000E+00 0. -1.
    3000001    1    5    5    0    0  0.11684071884E+02  0.57483101417E+00 -0.40893068890E+02  0.42545164822E+02  0.10000000000E+01 0. -1.
        -13    1    6    6    0    0  0.17080416237E+01 -0.24294866124E+01 -0.71450333197E+01  0.77383678852E+01  0.10500000000E+00 0. -1.
         13    1    6    6    0    0  0.25792733545E+01 -0.39428337350E+01 -0.11270867880E+02  0.12216467438E+02  0.10500000000E+00 0.  1.
</event>
<event>
11    0  0.3482988E-009  0.9118800E+02  0.7816531E-02  0.1126479E+00
         25   -1    0    0    0    0  0.00000000000E+00  0.00000000000E+00  0.99999998245E-14  0.12500000000E+03  0.12500000000E+03 0.  0.
    3000001    1    3    3    0    0  0.11388396811E+02  0.49535986082E+01  0.14682870472E+02  0.19256697702E+02  0.10000000000E+01 0. -1.
    1000022    2    1    0    0    0  0.24905816734E+02  0.23770222034E+02  0.51194987238E+02  0.62499999230E+02  0.10000001135E+02 0.  0.
    3000022    2    3    3    0    0  0.13517419923E+02  0.18816623426E+02  0.36512116766E+02  0.43243301527E+02  0.24999549479E+00 0.  0.
    1000022    2    1    0    0    0 -0.24905816734E+02 -0.23770222034E+02 -0.51194987238E+02  0.62500000770E+02  0.10000010764E+02 0.  0.
    3000022    2    5    5    0    0 -0.14308954214E+02 -0.19884738338E+02 -0.35994283743E+02  0.43540784923E+02  0.25000012125E+00 0.  0.
        -13    1    4    4    0    0  0.82672997295E+01  0.11464968363E+02  0.22380613461E+02  0.26470674874E+02  0.10500000000E+00 0.  1.
         13    1    4    4    0    0  0.52501201931E+01  0.73516550633E+01  0.14131503304E+02  0.16772626653E+02  0.10500000000E+00 0. -1.
    3000001    1    5    5    0    0 -0.10596862519E+02 -0.38854836964E+01 -0.15200703495E+02  0.18959215847E+02  0.10000000000E+01 0.  1.
        -13    1    6    6    0    0 -0.37750586386E+01 -0.52602601555E+01 -0.94561222469E+01  0.11460832325E+02  0.10500000000E+00 0.  1.
         13    1    6    6    0    0 -0.10533895576E+02 -0.14624478182E+02 -0.26538161496E+02  0.32079952598E+02  0.10500000000E+00 0. -1.
</event>
<event>
11    0  0.3482988E-009  0.9118800E+02  0.7816531E-02  0.1126479E+00
         25   -1    0    0    0    0  0.00000000000E+00  0.00000000000E+00  0.99999998245E-14  0.12500000000E+03  0.12500000000E+03 0.  0.
    3000001    1    3    3    0    0  0.26882054589E+00  0.23062211778E+00 -0.11086333119E+00  0.10666497669E+01  0.10000000000E+01 0.  1.
    1000022    2    1    0    0    0  0.15913388603E+01  0.56586893629E+02 -0.24528381684E+02  0.62499996561E+02  0.99999586082E+01 0.  0.
    3000022    2    3    3    0    0  0.13225183144E+01  0.56356271511E+02 -0.24417518353E+02  0.61433346794E+02  0.25000499452E+00 0.  0.
    1000022    2    1    0    0    0 -0.15913388603E+01 -0.56586893629E+02  0.24528381684E+02  0.62500003439E+02  0.10000001593E+02 0.  0.
    3000022    2    5    5    0    0 -0.27904240969E+01 -0.31710593640E+02  0.18635695553E+02  0.36887665467E+02  0.24999844831E+00 0.  0.
        -13    1    4    4    0    0  0.89907656549E+00  0.40091007041E+02 -0.17360826118E+02  0.43697900325E+02  0.10500000000E+00 0.  1.
         13    1    4    4    0    0  0.42344174896E+00  0.16265264470E+02 -0.70566922343E+01  0.17735446470E+02  0.10500000000E+00 0. -1.
    3000001    1    5    5    0    0  0.11990852365E+01 -0.24876299989E+02  0.58926861314E+01  0.25612337972E+02  0.10000000000E+01 0.  1.
        -13    1    6    6    0    0 -0.18211259020E+01 -0.20256298527E+02  0.11956728939E+02  0.23592552247E+02  0.10500000000E+00 0. -1.
         13    1    6    6    0    0 -0.96929819482E+00 -0.11454295113E+02  0.66789666131E+01  0.13295113220E+02  0.10500000000E+00 0.  1.
</event>
<event>
11    0  0.3482988E-009  0.9118800E+02  0.7816531E-02  0.1126479E+00
         25   -1    0    0    0    0  0.00000000000E+00  0.00000000000E+00  0.99999998245E-14  0.12500000000E+03  0.12500000000E+03 0.  0.
    3000001    1    3    3    0    0  0.52474706424E+02 -0.53977962552E+01 -0.27988596352E+02  0.59725141645E+02  0.10000000000E+01 0. -1.
    1000022    2    1    0    0    0  0.54437989829E+02 -0.73402656792E+01 -0.28086931193E+02  0.62499999381E+02  0.99999990931E+01 0.  0.
    3000022    2    3    3    0    0  0.19632834052E+01 -0.19424694240E+01 -0.98334840450E-01  0.27748577359E+01  0.24999304339E+00 0.  0.
    1000022    2    1    0    0    0 -0.54437989829E+02  0.73402656792E+01  0.28086931193E+02  0.62500000619E+02  0.10000006837E+02 0.  0.
    3000022    2    5    5    0    0 -0.40614314346E+02  0.22083585527E+01  0.17292375708E+02  0.44198282047E+02  0.25000187056E+00 0.  0.
        -13    1    4    4    0    0  0.89128665070E+00 -0.96556412690E+00 -0.14818186530E-01  0.13183135270E+01  0.10500000000E+00 0.  1.
         13    1    4    4    0    0  0.10719967545E+01 -0.97690529710E+00 -0.83516653920E-01  0.14565442089E+01  0.10500000000E+00 0. -1.
    3000001    1    5    5    0    0 -0.13823675483E+02  0.51319071266E+01  0.10794555484E+02  0.18301718573E+02  0.10000000000E+01 0.  1.
        -13    1    6    6    0    0 -0.19596636071E+02  0.10927185996E+01  0.84116865284E+01  0.21353914735E+02  0.10500000000E+00 0.  1.
         13    1    6    6    0    0 -0.21017678275E+02  0.11156399530E+01  0.88806891800E+01  0.22844367312E+02  0.10500000000E+00 0. -1.
</event>
<event>
11    0  0.3482988E-009  0.9118800E+02  0.7816531E-02  0.1126479E+00
         25   -1    0    0    0    0  0.00000000000E+00  0.00000000000E+00  0.99999998245E-14  0.12500000000E+03  0.12500000000E+03 0.  0.
    3000001    1    3    3    0    0  0.24852489608E+02  0.52882728724E+02  0.54006532329E+00  0.58442458089E+02  0.10000000000E+01 0. -1.
    1000022    2    1    0    0    0  0.24448840241E+02  0.56605351677E+02  0.20828861761E+01  0.62500000465E+02  0.10000000781E+02 0.  0.
    3000022    2    3    3    0    0 -0.40364936715E+00  0.37226229538E+01  0.15428208528E+01  0.40575423753E+01  0.24999895185E+00 0.  0.
    1000022    2    1    0    0    0 -0.24448840241E+02 -0.56605351677E+02 -0.20828861761E+01  0.62499999535E+02  0.99999949720E+01 0.  0.
    3000022    2    5    5    0    0 -0.15364662556E+02 -0.38610014486E+02 -0.58594934937E+01  0.41966680084E+02  0.24999845931E+00 0.  0.
        -13    1    4    4    0    0 -0.24866775911E+00  0.23545378828E+01  0.10382892819E+01  0.25874222556E+01  0.10500000000E+00 0. -1.
         13    1    4    4    0    0 -0.15498160804E+00  0.13680850710E+01  0.50453157096E+00  0.14701201197E+01  0.10500000000E+00 0. -1.
    3000001    1    5    5    0    0 -0.90841776851E+01 -0.17995337192E+02  0.37766073176E+01  0.20533319451E+02  0.10000000000E+01 0. -1.
        -13    1    6    6    0    0 -0.58182326879E+01 -0.14541065677E+02 -0.21551415123E+01  0.15809809694E+02  0.10500000000E+00 0.  1.
         13    1    6    6    0    0 -0.95464298682E+01 -0.24068948809E+02 -0.37043519815E+01  0.26156870390E+02  0.10500000000E+00 0. -1.
</event>
<event>
11    0  0.3482988E-009  0.9118800E+02  0.7816531E-02  0.1126479E+00
         25   -1    0    0    0    0  0.00000000000E+00  0.00000000000E+00  0.99999998245E-14  0.12500000000E+03  0.12500000000E+03 0.  0.
    3000001    1    3    3    0    0  0.31074131689E+01 -0.31456224897E+01  0.12231401820E+02  0.13044468097E+02  0.10000000000E+01 0.  1.
    1000022    2    1    0    0    0  0.31403339248E+02 -0.18369069925E+02  0.49826273044E+02  0.62499999939E+02  0.10000003060E+02 0.  0.
    3000022    2    3    3    0    0  0.28295926079E+02 -0.15223447435E+02  0.37594871224E+02  0.49455531842E+02  0.25000605147E+00 0.  0.
    1000022    2    1    0    0    0 -0.31403339248E+02  0.18369069925E+02 -0.49826273044E+02  0.62500000061E+02  0.10000003817E+02 0.  0.
    3000022    2    5    5    0    0 -0.74399860690E+01  0.97000804703E+01 -0.16279498731E+02  0.20359998394E+02  0.25000362096E+00 0.  0.
        -13    1    4    4    0    0  0.15687548652E+02 -0.83845366420E+01  0.20742698839E+02  0.27325267017E+02  0.10500000000E+00 0.  1.
         13    1    4    4    0    0  0.12608377427E+02 -0.68389107933E+01  0.16852172384E+02  0.22130264826E+02  0.10500000000E+00 0. -1.
    3000001    1    5    5    0    0 -0.23963353179E+02  0.86689894547E+01 -0.33546774312E+02  0.42140001667E+02  0.10000000000E+01 0. -1.
        -13    1    6    6    0    0 -0.24888599028E+01  0.31671102462E+01 -0.53260976822E+01  0.66785741328E+01  0.10500000000E+00 0.  1.
         13    1    6    6    0    0 -0.49511261662E+01  0.65329702241E+01 -0.10953401049E+02  0.13681424261E+02  0.10500000000E+00 0. -1.
</event>
<event>
11    0  0.3482988E-009  0.9118800E+02  0.7816531E-02  0.1126479E+00
         25   -1    0    0    0    0  0.00000000000E+00  0.00000000000E+00  0.99999998245E-14  0.12500000000E+03  0.12500000000E+03 0.  0.
    3000001    1    3    3    0    0 -0.54938689527E+02  0.23946478377E+02  0.12261525696E+02  0.61180376315E+02  0.10000000000E+01 0.  1.
    1000022    2    1    0    0    0 -0.55921367571E+02  0.23193416575E+02  0.11879229685E+02  0.62500000683E+02  0.10000003204E+02 0.  0.
    3000022    2    3    3    0    0 -0.98267804436E+00 -0.75306180243E+00 -0.38229601161E+00  0.13196243688E+01  0.25000003412E+00 0.  0.
    1000022    2    1    0    0    0  0.55921367571E+02 -0.23193416575E+02 -0.11879229685E+02  0.62499999317E+02  0.99999946614E+01 0.  0.
    3000022    2    5    5    0    0  0.70597704003E+01 -0.26680004263E+01  0.17865342936E+01  0.77596897517E+01  0.24999175910E+00 0.  0.
        -13    1    4    4    0    0 -0.41674884688E+00 -0.29877687769E+00 -0.22470179966E+00  0.56961664546E+00  0.10500000000E+00 0.  1.
         13    1    4    4    0    0 -0.56592919748E+00 -0.45428492474E+00 -0.15759421195E+00  0.75000772333E+00  0.10500000000E+00 0. -1.
    3000001    1    5    5    0    0  0.48861597171E+02 -0.20525416148E+02 -0.13665763978E+02  0.54740309565E+02  0.10000000000E+01 0.  1.
        -13    1    6    6    0    0  0.46511900953E+01 -0.17088977472E+01  0.11404568384E+01  0.50858202498E+01  0.10500000000E+00 0.  1.
         13    1    6    6    0    0  0.24085803050E+01 -0.95910267918E+00  0.64607745520E+00  0.26738695019E+01  0.10500000000E+00 0. -1.
</event>
<event>
11    0  0.3482988E-009  0.9118800E+02  0.7816531E-02  0.1126479E+00
         25   -1    0    0    0    0  0.00000000000E+00  0.00000000000E+00  0.99999998245E-14  0.12500000000E+03  0.12500000000E+03 0.  0.
    3000001    1    3    3    0    0 -0.31591197520E+02 -0.64963242853E+00 -0.17787388014E+02  0.36274191313E+02  0.10000000000E+01 0.  1.
    1000022    2    1    0    0    0 -0.51142729264E+02 -0.83363009524E+01 -0.33483986257E+02  0.62499998645E+02  0.99999912447E+01 0.  0.
    3000022    2    3    3    0    0 -0.19551531744E+02 -0.76866685239E+01 -0.15696598243E+02  0.26225807332E+02  0.25001463329E+00 0.  0.
    1000022    2    1    0    0    0  0.51142729264E+02  0.83363009524E+01  0.33483986257E+02  0.62500001355E+02  0.10000008177E+02 0.  0.
    3000022    2    5    5    0    0  0.45020109480E+02  0.54873404474E+01  0.25634099241E+02  0.52096935694E+02  0.25000408275E+00 0.  0.
        -13    1    4    4    0    0 -0.14995310063E+02 -0.58846442164E+01 -0.12026033010E+02  0.20102856922E+02  0.10500000000E+00 0. -1.
         13    1    4    4    0    0 -0.45562216805E+01 -0.18020243075E+01 -0.36705652323E+01  0.61229504106E+01  0.10500000000E+00 0.  1.
    3000001    1    5    5    0    0  0.61226197840E+01  0.28489605050E+01  0.78498870155E+01  0.10403065660E+02  0.10000000000E+01 0. -1.
        -13    1    6    6    0    0  0.24472693421E+02  0.29608796287E+01  0.14005713074E+02  0.28352258378E+02  0.10500000000E+00 0. -1.
         13    1    6    6    0    0  0.20547416059E+02  0.25264608188E+01  0.11628386167E+02  0.23744677316E+02  0.10500000000E+00 0.  1.
</event>
<event>
11    0  0.3482988E-009  0.9118800E+02  0.7816531E-02  0.1126479E+00
         25   -1    0    0    0    0  0.00000000000E+00  0.00000000000E+00  0.99999998245E-14  0.12500000000E+03  0.12500000000E+03 0.  0.
    3000001    1    3    3    0    0 -0.16538304237E+00 -0.19530116543E+01  0.19732051272E+01  0.29555277949E+01  0.10000000000E+01 0.  1.
    1000022    2    1    0    0    0  0.54855907658E+01 -0.60897856799E+02  0.82224774729E+01  0.62500000050E+02  0.10000010085E+02 0.  0.
    3000022    2    3    3    0    0  0.56509738081E+01 -0.58944845145E+02  0.62492723457E+01  0.59544472255E+02  0.24999434386E+00 0.  0.
    1000022    2    1    0    0    0 -0.54855907658E+01  0.60897856799E+02 -0.82224774729E+01  0.62499999950E+02  0.10000009460E+02 0.  0.
    3000022    2    5    5    0    0 -0.35832265895E+01  0.47143953369E+02 -0.21984215939E+01  0.47331674458E+02  0.24999474196E+00 0.  0.
        -13    1    4    4    0    0  0.17972940485E+01 -0.18711327382E+02  0.19334868710E+01  0.18896916012E+02  0.10500000000E+00 0.  1.
         13    1    4    4    0    0  0.38536797596E+01 -0.40233517763E+02  0.43157854746E+01  0.40647556243E+02  0.10500000000E+00 0. -1.
    3000001    1    5    5    0    0 -0.19023641763E+01  0.13753903430E+02 -0.60240558790E+01  0.15168325492E+02  0.10000000000E+01 0. -1.
        -13    1    6    6    0    0 -0.86899569645E+00  0.11559673935E+02 -0.51780664639E+00  0.11604325216E+02  0.10500000000E+00 0.  1.
         13    1    6    6    0    0 -0.27142308930E+01  0.35584279435E+02 -0.16806149475E+01  0.35727349242E+02  0.10500000000E+00 0. -1.
</event>
<event>
11    0  0.3482988E-009  0.9118800E+02  0.7816531E-02  0.1126479E+00
         25   -1    0    0    0    0  0.00000000000E+00  0.00000000000E+00  0.99999998245E-14  0.12500000000E+03  0.12500000000E+03 0.  0.
    3000001    1    3    3    0    0 -0.34420326082E+02  0.19304223056E+02 -0.65162194403E+01  0.40010910902E+02  0.10000000000E+01 0.  1.
    1000022    2    1    0    0    0 -0.56367155494E+02  0.23230529530E+02 -0.94517891397E+01  0.62500003239E+02  0.10000018309E+02 0.  0.
    3000022    2    3    3    0    0 -0.21946829412E+02  0.39263064738E+01 -0.29355696994E+01  0.22489092337E+02  0.25000183651E+00 0.  0.
    1000022    2    1    0    0    0  0.56367155494E+02 -0.23230529530E+02  0.94517891397E+01  0.62499996761E+02  0.99999778263E+01 0.  0.
    3000022    2    5    5    0    0  0.18378271103E+02 -0.11348409359E+02  0.65760543484E+01  0.22579952077E+02  0.25000257041E+00 0.  0.
        -13    1    4    4    0    0 -0.11264418048E+02  0.20287029040E+01 -0.14400149334E+01  0.11536351999E+02  0.10500000000E+00 0.  1.
         13    1    4    4    0    0 -0.10682411364E+02  0.18976035697E+01 -0.14955547660E+01  0.10952740338E+02  0.10500000000E+00 0. -1.
    3000001    1    5    5    0    0  0.37988884391E+02 -0.11882120171E+02  0.28757347913E+01  0.39920044685E+02  0.10000000000E+01 0.  1.
        -13    1    6    6    0    0  0.10980041735E+02 -0.68528735456E+01  0.39276782477E+01  0.13526303033E+02  0.10500000000E+00 0.  1.
         13    1    6    6    0    0  0.73982293676E+01 -0.44955358137E+01  0.26483761008E+01  0.90536490433E+01  0.10500000000E+00 0. -1.
</event>
<event>
11    0  0.3482988E-009  0.9118800E+02  0.7816531E-02  0.1126479E+00
         25   -1    0    0    0    0  0.00000000000E+00  0.00000000000E+00  0.99999998245E-14  0.12500000000E+03  0.12500000000E+03 0.  0.
    3000001    1    3    3    0    0  0.12974843217E+01 -0.38208114387E+01 -0.14124077060E+01  0.43905536260E+01  0.10000000000E+01 0. -1.
    1000022    2    1    0    0    0  0.36837013747E+02 -0.32212813390E+02 -0.37571518384E+02  0.62499999623E+02  0.10000001547E+02 0.  0.
    3000022    2    3    3    0    0  0.35539529426E+02 -0.28392001952E+02 -0.36159110678E+02  0.58109445997E+02  0.25000502454E+00 0.  0.
    1000022    2    1    0    0    0 -0.36837013747E+02  0.32212813390E+02  0.37571518384E+02  0.62500000377E+02  0.10000006254E+02 0.  0.
    3000022    2    5    5    0    0 -0.22247026436E+02  0.18519030214E+02  0.28086219156E+02  0.40333396467E+02  0.24999762671E+00 0.  0.
        -13    1    4    4    0    0  0.12523193070E+02 -0.99348442150E+01 -0.12686827128E+02  0.20408285127E+02  0.10500000000E+00 0. -1.
         13    1    4    4    0    0  0.23016336355E+02 -0.18457157737E+02 -0.23472283549E+02  0.37701160870E+02  0.10500000000E+00 0.  1.
    3000001    1    5    5    0    0 -0.14589987312E+02  0.13693783176E+02  0.94852992279E+01  0.22166603909E+02  0.10000000000E+01 0.  1.
        -13    1    6    6    0    0 -0.11018379229E+02  0.92240614868E+01  0.14018995768E+02  0.20075638433E+02  0.10500000000E+00 0. -1.
         13    1    6    6    0    0 -0.11228647207E+02  0.92949687270E+01  0.14067223388E+02  0.20257758035E+02  0.10500000000E+00 0.  1.
</event>
<event>
11    0  0.3482988E-009  0.9118800E+02  0.7816531E-02  0.1126479E+00
         25   -1    0    0    0    0  0.00000000000E+00  0.00000000000E+00  0.99999998245E-14  0.12500000000E+03  0.12500000000E+03 0.  0.
    3000001    1    3    3    0    0  0.20141854166E+02  0.21332215375E+00 -0.53919352936E+01  0.20876128994E+02  0.10000000000E+01 0. -1.
    1000022    2    1    0    0    0  0.55856847825E+02  0.11556351624E+02 -0.23509855559E+02  0.62499999851E+02  0.99999980585E+01 0.  0.
    3000022    2    3    3    0    0  0.35714993659E+02  0.11343029471E+02 -0.18117920265E+02  0.41623870857E+02  0.25000142350E+00 0.  0.
    1000022    2    1    0    0    0 -0.55856847825E+02 -0.11556351624E+02  0.23509855559E+02  0.62500000149E+02  0.99999999229E+01 0.  0.
    3000022    2    5    5    0    0 -0.59223586774E+01 -0.20218340650E+01  0.61343477944E+01  0.87666910981E+01  0.25000931323E+00 0.  0.
        -13    1    4    4    0    0  0.10881684076E+02  0.34957989634E+01 -0.55572982267E+01  0.12709297671E+02  0.10500000000E+00 0. -1.
         13    1    4    4    0    0  0.24833309584E+02  0.78472305073E+01 -0.12560622038E+02  0.28914573186E+02  0.10500000000E+00 0.  1.
    3000001    1    5    5    0    0 -0.49934489148E+02 -0.95345175595E+01  0.17375507764E+02  0.53733309051E+02  0.10000000000E+01 0.  1.
        -13    1    6    6    0    0 -0.40317083430E+01 -0.13848082735E+01  0.42467493743E+01  0.60181617929E+01  0.10500000000E+00 0. -1.
         13    1    6    6    0    0 -0.18906503344E+01 -0.63702579156E+00  0.18875984201E+01  0.27485293052E+01  0.10500000000E+00 0.  1.
</event>
<event>
11    0  0.3482988E-009  0.9118800E+02  0.7816531E-02  0.1126479E+00
         25   -1    0    0    0    0  0.00000000000E+00  0.00000000000E+00  0.99999998245E-14  0.12500000000E+03  0.12500000000E+03 0.  0.
    3000001    1    3    3    0    0  0.31832445853E+02 -0.40430334597E+01  0.12572696682E+01  0.32128359055E+02  0.10000000000E+01 0.  1.
    1000022    2    1    0    0    0  0.59295984136E+02 -0.17006914263E+02  0.10005379642E+01  0.62499999573E+02  0.10000000152E+02 0.  0.
    3000022    2    3    3    0    0  0.27463538283E+02 -0.12963880804E+02 -0.25673170405E+00  0.30371640518E+02  0.24999220147E+00 0.  0.
    1000022    2    1    0    0    0 -0.59295984136E+02  0.17006914263E+02 -0.10005379642E+01  0.62500000427E+02  0.10000005488E+02 0.  0.
    3000022    2    5    5    0    0 -0.67330727810E+01  0.14004165217E+01 -0.32571853876E+01  0.76136188789E+01  0.25000054935E+00 0.  0.
        -13    1    4    4    0    0  0.85266316638E+01 -0.39802456817E+01 -0.10615985807E+00  0.94110625400E+01  0.10500000000E+00 0.  1.
         13    1    4    4    0    0  0.18936906619E+02 -0.89836351220E+01 -0.15057184598E+00  0.20960577978E+02  0.10500000000E+00 0. -1.
    3000001    1    5    5    0    0 -0.52562911355E+02  0.15606497742E+02  0.22566474235E+01  0.54886381548E+02  0.10000000000E+01 0.  1.
        -13    1    6    6    0    0 -0.32712479772E+01  0.63788729119E+00 -0.15193612163E+01  0.36643481044E+01  0.10500000000E+00 0.  1.
         13    1    6    6    0    0 -0.34618248038E+01  0.76252923051E+00 -0.17378241713E+01  0.39492707745E+01  0.10500000000E+00 0. -1.
</event>
<event>
11    0  0.3482988E-009  0.9118800E+02  0.7816531E-02  0.1126479E+00
         25   -1    0    0    0    0  0.00000000000E+00  0.00000000000E+00  0.99999998245E-14  0.12500000000E+03  0.12500000000E+03 0.  0.
    3000001    1    3    3    0    0  0.42122134032E+02 -0.91703134706E+01 -0.37006864358E+02  0.56823206828E+02  0.10000000000E+01 0. -1.
    1000022    2    1    0    0    0  0.43705697402E+02 -0.11045139856E+02 -0.42119674611E+02  0.62499999572E+02  0.99999928662E+01 0.  0.
    3000022    2    3    3    0    0  0.15835633699E+01 -0.18748263852E+01 -0.51128102535E+01  0.56767927446E+01  0.25000051062E+00 0.  0.
    1000022    2    1    0    0    0 -0.43705697402E+02  0.11045139856E+02  0.42119674611E+02  0.62500000428E+02  0.99999982128E+01 0.  0.
    3000022    2    5    5    0    0 -0.40204100069E+02  0.12430811667E+02  0.36782656850E+02  0.55892048488E+02  0.24999635376E+00 0.  0.
        -13    1    4    4    0    0  0.40667562186E+00 -0.50196968010E+00 -0.12869158622E+01  0.14437922488E+01  0.10500000000E+00 0. -1.
         13    1    4    4    0    0  0.11768877480E+01 -0.13728567051E+01 -0.38258943913E+01  0.42330004958E+01  0.10500000000E+00 0.  1.
    3000001    1    5    5    0    0 -0.35015973329E+01 -0.13856718114E+01  0.53370177612E+01  0.66079519394E+01  0.10000000000E+01 0.  1.
        -13    1    6    6    0    0 -0.17287360933E+02  0.53442316023E+01  0.15729019028E+02  0.23975544291E+02  0.10500000000E+00 0.  1.
         13    1    6    6    0    0 -0.22916739137E+02  0.70865800649E+01  0.21053637822E+02  0.31916504198E+02  0.10500000000E+00 0. -1.
</event>
<event>
11    0  0.3482988E-009  0.9118800E+02  0.7816531E-02  0.1126479E+00
         25   -1    0    0    0    0  0.00000000000E+00  0.00000000000E+00  0.99999998245E-14  0.12500000000E+03  0.12500000000E+03 0.  0.
    3000001    1    3    3    0    0  0.21072679575E+02  0.10099553653E+01  0.31209046378E+02  0.37683980816E+02  0.10000000000E+01 0. -1.
    1000022    2    1    0    0    0  0.31194672563E+02 -0.53336395322E+01  0.52959366505E+02  0.62500001115E+02  0.10000016591E+02 0.  0.
    3000022    2    3    3    0    0  0.10121992988E+02 -0.63435948975E+01  0.21750320128E+02  0.24816020300E+02  0.24999919822E+00 0.  0.
    1000022    2    1    0    0    0 -0.31194672563E+02  0.53336395322E+01 -0.52959366505E+02  0.62499998885E+02  0.10000002648E+02 0.  0.
    3000022    2    5    5    0    0  0.49249899960E+00  0.38385667160E+00 -0.12314203209E+00  0.68378896693E+00  0.25000436453E+00 0.  0.
        -13    1    4    4    0    0  0.50589266663E+01 -0.32134290912E+01  0.10793316550E+02  0.12346075194E+02  0.10500000000E+00 0.  1.
         13    1    4    4    0    0  0.50630663218E+01 -0.31301658063E+01  0.10957003578E+02  0.12469945106E+02  0.10500000000E+00 0. -1.
    3000001    1    5    5    0    0 -0.31687171562E+02  0.49497828606E+01 -0.52836224473E+02  0.61816209918E+02  0.10000000000E+01 0.  1.
        -13    1    6    6    0    0  0.38071547063E+00  0.30546201568E+00 -0.10849680898E+00  0.51092843937E+00  0.10500000000E+00 0.  1.
         13    1    6    6    0    0  0.11178352897E+00  0.78394655925E-01 -0.14645223103E-01  0.17286052756E+00  0.10500000000E+00 0. -1.
</event>
<event>
11    0  0.3482988E-009  0.9118800E+02  0.7816531E-02  0.1126479E+00
         25   -1    0    0    0    0  0.00000000000E+00  0.00000000000E+00  0.99999998245E-14  0.12500000000E+03  0.12500000000E+03 0.  0.
    3000001    1    3    3    0    0  0.41194187182E+02  0.24375469851E+02 -0.28165424628E+01  0.47958914703E+02  0.10000000000E+01 0. -1.
    1000022    2    1    0    0    0  0.54065926483E+02  0.29685996337E+02  0.13664314955E+01  0.62499999740E+02  0.10000002372E+02 0.  0.
    3000022    2    3    3    0    0  0.12871739301E+02  0.53105264862E+01  0.41829739584E+01  0.14541085037E+02  0.25003742809E+00 0.  0.
    1000022    2    1    0    0    0 -0.54065926483E+02 -0.29685996337E+02 -0.13664314955E+01  0.62500000260E+02  0.10000005625E+02 0.  0.
    3000022    2    5    5    0    0 -0.30231305485E+02 -0.20444262039E+02 -0.43029564205E+01  0.36748845149E+02  0.25000828193E+00 0.  0.
        -13    1    4    4    0    0  0.37799922120E+01  0.15149236358E+01  0.12083410828E+01  0.42490525906E+01  0.10500000000E+00 0.  1.
         13    1    4    4    0    0  0.90917470894E+01  0.37956028504E+01  0.29746328755E+01  0.10292032447E+02  0.10500000000E+00 0. -1.
    3000001    1    5    5    0    0 -0.23834620998E+02 -0.92417342983E+01  0.29365249250E+01  0.25751155112E+02  0.10000000000E+01 0.  1.
        -13    1    6    6    0    0 -0.22800565142E+02 -0.15427204748E+02 -0.32686086035E+01  0.27722901080E+02  0.10500000000E+00 0. -1.
         13    1    6    6    0    0 -0.74307403437E+01 -0.50170572909E+01 -0.10343478170E+01  0.90259440682E+01  0.10500000000E+00 0.  1.
</event>
<event>
11    0  0.3482988E-009  0.9118800E+02  0.7816531E-02  0.1126479E+00
         25   -1    0    0    0    0  0.00000000000E+00  0.00000000000E+00  0.99999998245E-14  0.12500000000E+03  0.12500000000E+03 0.  0.
    3000001    1    3    3    0    0 -0.61226759608E+01 -0.39809139736E+01 -0.10450739206E+01  0.74449322687E+01  0.10000000000E+01 0.  1.
    1000022    2    1    0    0    0 -0.36578126268E+02 -0.40334748623E+02 -0.29006874943E+02  0.62500000724E+02  0.10000001436E+02 0.  0.
    3000022    2    3    3    0    0 -0.30455450307E+02 -0.36353834650E+02 -0.27961801022E+02  0.55055068455E+02  0.24999803789E+00 0.  0.
    1000022    2    1    0    0    0  0.36578126268E+02  0.40334748623E+02  0.29006874943E+02  0.62499999276E+02  0.99999923908E+01 0.  0.
    3000022    2    5    5    0    0  0.30182259618E+02  0.28399244589E+02  0.18771823181E+02  0.45496480484E+02  0.25000401638E+00 0.  0.
        -13    1    4    4    0    0 -0.15198048322E+02 -0.18244582306E+02 -0.13983143898E+02  0.27556937323E+02  0.10500000000E+00 0.  1.
         13    1    4    4    0    0 -0.15257401985E+02 -0.18109252344E+02 -0.13978657124E+02  0.27498131132E+02  0.10500000000E+00 0. -1.
    3000001    1    5    5    0    0  0.63958666498E+01  0.11935504034E+02  0.10235051762E+02  0.17003518793E+02  0.10000000000E+01 0.  1.
        -13    1    6    6    0    0  0.21161262276E+02  0.19967041278E+02  0.13200195433E+02  0.31948989702E+02  0.10500000000E+00 0. -1.
         13    1    6    6    0    0  0.90209973415E+01  0.84322033114E+01  0.55716277478E+01  0.13547490782E+02  0.10500000000E+00 0.  1.
</event>
<event>
11    0  0.3482988E-009  0.9118800E+02  0.7816531E-02  0.1126479E+00
         25   -1    0    0    0    0  0.00000000000E+00  0.00000000000E+00  0.99999998245E-14  0.12500000000E+03  0.12500000000E+03 0.  0.
    3000001    1    3    3    0    0 -0.44809394298E+02 -0.26218900351E+02  0.15892729358E+02  0.54303696001E+02  0.10000000000E+01 0. -1.
    1000022    2    1    0    0    0 -0.48824326923E+02 -0.31601841815E+02  0.20585399362E+02  0.62499999640E+02  0.99999991254E+01 0.  0.
    3000022    2    3    3    0    0 -0.40149326253E+01 -0.53829414640E+01  0.46926700040E+01  0.81963036387E+01  0.24999756172E+00 0.  0.
    1000022    2    1    0    0    0  0.48824326923E+02  0.31601841815E+02 -0.20585399362E+02  0.62500000360E+02  0.10000003627E+02 0.  0.
    3000022    2    5    5    0    0  0.39827410719E+02  0.29894024958E+02 -0.17541217604E+02  0.52798032406E+02  0.25007633627E+00 0.  0.
        -13    1    4    4    0    0 -0.29212513974E+01 -0.38969498793E+01  0.34457853145E+01  0.59669413876E+01  0.10500000000E+00 0.  1.
         13    1    4    4    0    0 -0.10936812279E+01 -0.14859915846E+01  0.12468846895E+01  0.22293622511E+01  0.10500000000E+00 0. -1.
    3000001    1    5    5    0    0  0.89969162042E+01  0.17078168565E+01 -0.30441817577E+01  0.97019679537E+01  0.10000000000E+01 0.  1.
        -13    1    6    6    0    0  0.23224944836E+02  0.17459923756E+02 -0.10170370052E+02  0.30784646371E+02  0.10500000000E+00 0.  1.
         13    1    6    6    0    0  0.16602465883E+02  0.12434101202E+02 -0.73708475524E+01  0.22013386035E+02  0.10500000000E+00 0. -1.
</event>
<event>
11    0  0.3482988E-009  0.9118800E+02  0.7816531E-02  0.1126479E+00
         25   -1    0    0    0    0  0.00000000000E+00  0.00000000000E+00  0.99999998245E-14  0.12500000000E+03  0.12500000000E+03 0.  0.
    3000001    1    3    3    0    0 -0.23925222930E+01 -0.14559854666E+02  0.26144688047E+01  0.15018288116E+02  0.10000000000E+01 0. -1.
    1000022    2    1    0    0    0 -0.21464088761E+02 -0.53547983822E+02  0.21866784815E+02  0.62500000766E+02  0.10000006997E+02 0.  0.
    3000022    2    3    3    0    0 -0.19071566468E+02 -0.38988129156E+02  0.19252316011E+02  0.47481712650E+02  0.25000360773E+00 0.  0.
    1000022    2    1    0    0    0  0.21464088761E+02  0.53547983822E+02 -0.21866784815E+02  0.62499999234E+02  0.99999974185E+01 0.  0.
    3000022    2    5    5    0    0  0.13371910366E+02  0.43687188565E+02 -0.15840310241E+02  0.48356554461E+02  0.24999837314E+00 0.  0.
        -13    1    4    4    0    0 -0.63713203442E+01 -0.12934254269E+02  0.63569562827E+01  0.15757873416E+02  0.10500000000E+00 0.  1.
         13    1    4    4    0    0 -0.12700246124E+02 -0.26053874887E+02  0.12895359728E+02  0.31723839234E+02  0.10500000000E+00 0. -1.
    3000001    1    5    5    0    0  0.80921783944E+01  0.98607952562E+01 -0.60264745747E+01  0.14143444773E+02  0.10000000000E+01 0. -1.
        -13    1    6    6    0    0  0.10010594191E+02  0.32613483153E+02 -0.11836818022E+02  0.36110560301E+02  0.10500000000E+00 0.  1.
         13    1    6    6    0    0  0.33613161753E+01  0.11073705413E+02 -0.40034922190E+01  0.12245994159E+02  0.10500000000E+00 0. -1.
</event>
<event>
11    0  0.3482988E-009  0.9118800E+02  0.7816531E-02  0.1126479E+00
         25   -1    0    0    0    0  0.00000000000E+00  0.00000000000E+00  0.99999998245E-14  0.12500000000E+03  0.12500000000E+03 0.  0.
    3000001    1    3    3    0    0  0.83105866073E+01  0.63625993311E+01 -0.56759588511E+01  0.11948432068E+02  0.10000000000E+01 0. -1.
    1000022    2    1    0    0    0  0.35162189457E+02  0.47344266741E+02 -0.18121553154E+02  0.62499999429E+02  0.10000003964E+02 0.  0.
    3000022    2    3    3    0    0  0.26851602850E+02  0.40981667410E+02 -0.12445594303E+02  0.50551567361E+02  0.25001163428E+00 0.  0.
    1000022    2    1    0    0    0 -0.35162189457E+02 -0.47344266741E+02  0.18121553154E+02  0.62500000571E+02  0.10000011097E+02 0.  0.
    3000022    2    5    5    0    0 -0.56677358441E+01 -0.43298554507E+01  0.49886782647E+01  0.87074845907E+01  0.24999849371E+00 0.  0.
        -13    1    4    4    0    0  0.17845368393E+02  0.27159432915E+02 -0.82196190134E+01  0.33521114706E+02  0.10500000000E+00 0. -1.
         13    1    4    4    0    0  0.90062344569E+01  0.13822234495E+02 -0.42259752891E+01  0.17030452656E+02  0.10500000000E+00 0.  1.
    3000001    1    5    5    0    0 -0.29494453613E+02 -0.43014411290E+02  0.13132874889E+02  0.53792515980E+02  0.10000000000E+01 0.  1.
        -13    1    6    6    0    0 -0.42189792142E+01 -0.32516577318E+01  0.37036544957E+01  0.64885395304E+01  0.10500000000E+00 0. -1.
         13    1    6    6    0    0 -0.14487566298E+01 -0.10781977189E+01  0.12850237690E+01  0.22189450603E+01  0.10500000000E+00 0.  1.
</event>
<event>
11    0  0.3482988E-009  0.9118800E+02  0.7816531E-02  0.1126479E+00
         25   -1    0    0    0    0  0.00000000000E+00  0.00000000000E+00  0.99999998245E-14  0.12500000000E+03  0.12500000000E+03 0.  0.
    3000001    1    3    3    0    0 -0.10941002085E+02  0.23743789976E+02  0.24522433775E+02  0.35858372067E+02  0.10000000000E+01 0.  1.
    1000022    2    1    0    0    0 -0.25462527447E+02  0.35758314515E+02  0.43350350021E+02  0.62500001641E+02  0.99999998595E+01 0.  0.
    3000022    2    3    3    0    0 -0.14521525362E+02  0.12014524539E+02  0.18827916246E+02  0.26641629574E+02  0.24999486505E+00 0.  0.
    1000022    2    1    0    0    0  0.25462527447E+02 -0.35758314515E+02 -0.43350350021E+02  0.62499998359E+02  0.99999793519E+01 0.  0.
    3000022    2    5    5    0    0  0.33567590101E+01 -0.97581964361E+00 -0.16911865321E+01  0.38913569295E+01  0.24998367469E+00 0.  0.
        -13    1    4    4    0    0 -0.62642054431E+01  0.52196213092E+01  0.80618493752E+01  0.11466872145E+02  0.10500000000E+00 0. -1.
         13    1    4    4    0    0 -0.82573199191E+01  0.67949032297E+01  0.10766066871E+02  0.15174757429E+02  0.10500000000E+00 0.  1.
    3000001    1    5    5    0    0  0.22105768437E+02 -0.34782494871E+02 -0.41659163489E+02  0.58608641430E+02  0.10000000000E+01 0. -1.
        -13    1    6    6    0    0  0.10957357520E+01 -0.26797620663E+00 -0.52817672658E+00  0.12499774958E+01  0.10500000000E+00 0.  1.
         13    1    6    6    0    0  0.22610232581E+01 -0.70784343699E+00 -0.11630098055E+01  0.26413794337E+01  0.10500000000E+00 0. -1.
</event>
<event>
11    0  0.3482988E-009  0.9118800E+02  0.7816531E-02  0.1126479E+00
         25   -1    0    0    0    0  0.00000000000E+00  0.00000000000E+00  0.99999998245E-14  0.12500000000E+03  0.12500000000E+03 0.  0.
    3000001    1    3    3    0    0  0.58595804244E+01  0.77532669805E+01  0.23159940422E+02  0.25136242201E+02  0.10000000000E+01 0.  1.
    1000022    2    1    0    0    0  0.21038724798E+02  0.91368523167E+01  0.57272505639E+02  0.62499999151E+02  0.99999990145E+01 0.  0.
    3000022    2    3    3    0    0  0.15179144374E+02  0.13835853362E+01  0.34112565217E+02  0.37363756950E+02  0.24999088183E+00 0.  0.
    1000022    2    1    0    0    0 -0.21038724798E+02 -0.91368523167E+01 -0.57272505639E+02  0.62500000849E+02  0.10000009627E+02 0.  0.
    3000022    2    5    5    0    0  0.10231547931E+01 -0.90672187810E+00 -0.43552484372E+01  0.45716167188E+01  0.25000035850E+00 0.  0.
        -13    1    4    4    0    0  0.45232728303E+01  0.43655378081E+00  0.10266028279E+02  0.11227329955E+02  0.10500000000E+00 0.  1.
         13    1    4    4    0    0  0.10655871544E+02  0.94703155544E+00  0.23846536938E+02  0.26136426995E+02  0.10500000000E+00 0. -1.
    3000001    1    5    5    0    0 -0.22061879591E+02 -0.82301304386E+01 -0.52917257202E+02  0.57928384130E+02  0.10000000000E+01 0.  1.
        -13    1    6    6    0    0  0.70237204941E+00 -0.67730252670E+00 -0.31183218563E+01  0.32691010091E+01  0.10500000000E+00 0. -1.
         13    1    6    6    0    0  0.32078274373E+00 -0.22941935139E+00 -0.12369265809E+01  0.13025157097E+01  0.10500000000E+00 0.  1.
</event>
<event>
11    0  0.3482988E-009  0.9118800E+02  0.7816531E-02  0.1126479E+00
         25   -1    0    0    0    0  0.00000000000E+00  0.00000000000E+00  0.99999998245E-14  0.12500000000E+03  0.12500000000E+03 0.  0.
    3000001    1    3    3    0    0 -0.20951399666E+02 -0.42724468237E+02 -0.68058646609E+01  0.48079737186E+02  0.10000000000E+01 0.  1.
    1000022    2    1    0    0    0 -0.31231832372E+02 -0.52185854151E+02 -0.10366251674E+02  0.62499999863E+02  0.10000004117E+02 0.  0.
    3000022    2    3    3    0    0 -0.10280432707E+02 -0.94613859139E+01 -0.35603870130E+01  0.14420262677E+02  0.24999990124E+00 0.  0.
    1000022    2    1    0    0    0  0.31231832372E+02  0.52185854151E+02  0.10366251674E+02  0.62500000137E+02  0.10000005830E+02 0.  0.
    3000022    2    5    5    0    0  0.23181695827E+02  0.34096893503E+02  0.10970484124E+02  0.42666183244E+02  0.25000537503E+00 0.  0.
        -13    1    4    4    0    0 -0.60924914282E+01 -0.56831497919E+01 -0.20922363036E+01  0.85909906944E+01  0.10500000000E+00 0.  1.
         13    1    4    4    0    0 -0.41879412783E+01 -0.37782361220E+01 -0.14681507094E+01  0.58292719828E+01  0.10500000000E+00 0. -1.
    3000001    1    5    5    0    0  0.80501365450E+01  0.18088960648E+02 -0.60423244981E+00  0.19833816893E+02  0.10000000000E+01 0.  1.
        -13    1    6    6    0    0  0.12323325577E+02  0.18157846604E+02  0.57717615566E+01  0.22691319993E+02  0.10500000000E+00 0.  1.
         13    1    6    6    0    0  0.10858370250E+02  0.15939046899E+02  0.51987225671E+01  0.19974863250E+02  0.10500000000E+00 0. -1.
</event>
<event>
11    0  0.3482988E-009  0.9118800E+02  0.7816531E-02  0.1126479E+00
         25   -1    0    0    0    0  0.00000000000E+00  0.00000000000E+00  0.99999998245E-14  0.12500000000E+03  0.12500000000E+03 0.  0.
    3000001    1    3    3    0    0  0.50937445028E+02  0.25653382878E+02  0.18135055347E+01  0.57070203797E+02  0.10000000000E+01 0.  1.
    1000022    2    1    0    0    0  0.55094756711E+02  0.27334005884E+02  0.48651405054E+01  0.62500002446E+02  0.10000030947E+02 0.  0.
    3000022    2    3    3    0    0  0.41573116822E+01  0.16806230056E+01  0.30516349706E+01  0.54297986488E+01  0.25000652366E+00 0.  0.
    1000022    2    1    0    0    0 -0.55094756711E+02 -0.27334005884E+02 -0.48651405054E+01  0.62499997554E+02  0.10000000374E+02 0.  0.
    3000022    2    5    5    0    0 -0.15458775417E+02 -0.12681592100E+02 -0.26659034827E+01  0.20173399696E+02  0.24999662473E+00 0.  0.
        -13    1    4    4    0    0  0.10486989067E+01  0.40241989553E+00  0.78836629013E+00  0.13763203031E+01  0.10500000000E+00 0.  1.
         13    1    4    4    0    0  0.31086127755E+01  0.12782031101E+01  0.22632686805E+01  0.40534783457E+01  0.10500000000E+00 0. -1.
    3000001    1    5    5    0    0 -0.39635981294E+02 -0.14652413783E+02 -0.21992370226E+01  0.42326597859E+02  0.10000000000E+01 0.  1.
        -13    1    6    6    0    0 -0.78516195945E+01 -0.64695700223E+01 -0.14211074042E+01  0.10272966358E+02  0.10500000000E+00 0. -1.
         13    1    6    6    0    0 -0.76071558224E+01 -0.62120220779E+01 -0.12447960785E+01  0.99004333380E+01  0.10500000000E+00 0.  1.
</event>
<event>
11    0  0.3482988E-009  0.9118800E+02  0.7816531E-02  0.1126479E+00
         25   -1    0    0    0    0  0.00000000000E+00  0.00000000000E+00  0.99999998245E-14  0.12500000000E+03  0.12500000000E+03 0.  0.
    3000001    1    3    3    0    0 -0.12119026913E+02  0.24545737619E+02 -0.10502610040E+02  0.29337158455E+02  0.10000000000E+01 0.  1.
    1000022    2    1    0    0    0 -0.17467408160E+02  0.56500498880E+02 -0.17573655104E+02  0.62500001010E+02  0.10000002554E+02 0.  0.
    3000022    2    3    3    0    0 -0.53483812470E+01  0.31954761261E+02 -0.70710450646E+01  0.33162842555E+02  0.24999767362E+00 0.  0.
    1000022    2    1    0    0    0  0.17467408160E+02 -0.56500498880E+02  0.17573655104E+02  0.62499998990E+02  0.99999899247E+01 0.  0.
    3000022    2    5    5    0    0  0.89444372876E+01 -0.35633502274E+02  0.62942233505E+01  0.37275047840E+02  0.25000231479E+00 0.  0.
        -13    1    4    4    0    0 -0.18079050823E+01  0.10889688509E+02 -0.23550528851E+01  0.11287654128E+02  0.10500000000E+00 0.  1.
         13    1    4    4    0    0 -0.35404761648E+01  0.21065072752E+02 -0.47159921795E+01  0.21875188428E+02  0.10500000000E+00 0. -1.
    3000001    1    5    5    0    0  0.85229708720E+01 -0.20866996606E+02  0.11279431754E+02  0.25224951150E+02  0.10000000000E+01 0. -1.
        -13    1    6    6    0    0  0.56836408674E+01 -0.22879000122E+02  0.40322115665E+01  0.23916985078E+02  0.10500000000E+00 0.  1.
         13    1    6    6    0    0  0.32607964202E+01 -0.12754502152E+02  0.22620117840E+01  0.13358062762E+02  0.10500000000E+00 0. -1.
</event>
<event>
11    0  0.3482988E-009  0.9118800E+02  0.7816531E-02  0.1126479E+00
         25   -1    0    0    0    0  0.00000000000E+00  0.00000000000E+00  0.99999998245E-14  0.12500000000E+03  0.12500000000E+03 0.  0.
    3000001    1    3    3    0    0 -0.90464749290E+01 -0.25819759251E+02  0.95152658084E+01  0.28983425606E+02  0.10000000000E+01 0. -1.
    1000022    2    1    0    0    0 -0.27696657792E+02 -0.53273456203E+02  0.14180407631E+02  0.62500001318E+02  0.10000010776E+02 0.  0.
    3000022    2    3    3    0    0 -0.18650182863E+02 -0.27453696951E+02  0.46651418229E+01  0.33516575712E+02  0.25000423800E+00 0.  0.
    1000022    2    1    0    0    0  0.27696657792E+02  0.53273456203E+02 -0.14180407631E+02  0.62499998682E+02  0.99999943023E+01 0.  0.
    3000022    2    5    5    0    0  0.18705554843E+02  0.43435249585E+02 -0.88631909602E+01  0.48115874280E+02  0.25003044713E+00 0.  0.
        -13    1    4    4    0    0 -0.77547713096E+01 -0.11515846801E+02  0.19832621113E+01  0.14024819400E+02  0.10500000000E+00 0. -1.
         13    1    4    4    0    0 -0.10895411553E+02 -0.15937850150E+02  0.26818797116E+01  0.19491756312E+02  0.10500000000E+00 0.  1.
    3000001    1    5    5    0    0  0.89911029491E+01  0.98382066179E+01 -0.53172166711E+01  0.14384124402E+02  0.10000000000E+01 0.  1.
        -13    1    6    6    0    0  0.13173644725E+02  0.30555590896E+02 -0.62795797812E+01  0.33861972736E+02  0.10500000000E+00 0. -1.
         13    1    6    6    0    0  0.55319101180E+01  0.12879658689E+02 -0.25836111791E+01  0.14253901544E+02  0.10500000000E+00 0.  1.
</event>
<event>
11    0  0.3482988E-009  0.9118800E+02  0.7816531E-02  0.1126479E+00
         25   -1    0    0    0    0  0.00000000000E+00  0.00000000000E+00  0.99999998245E-14  0.12500000000E+03  0.12500000000E+03 0.  0.
    3000001    1    3    3    0    0 -0.90937824238E+01 -0.21909847946E+02  0.11935541663E+02  0.26574338573E+02  0.10000000000E+01 0. -1.
    1000022    2    1    0    0    0 -0.11129055635E+02 -0.55430992174E+02  0.24694115189E+02  0.62499999969E+02  0.99999949189E+01 0.  0.
    3000022    2    3    3    0    0 -0.20352732116E+01 -0.33521144228E+02  0.12758573526E+02  0.35925661396E+02  0.25000182937E+00 0.  0.
    1000022    2    1    0    0    0  0.11129055635E+02  0.55430992174E+02 -0.24694115189E+02  0.62500000031E+02  0.99999953074E+01 0.  0.
    3000022    2    5    5    0    0  0.32614280430E+01  0.19108986433E+02 -0.34840624009E+01  0.19697500054E+02  0.25008436900E+00 0.  0.
        -13    1    4    4    0    0 -0.94842124371E+00 -0.16616125796E+02  0.62897961465E+01  0.17792349477E+02  0.10500000000E+00 0. -1.
         13    1    4    4    0    0 -0.10868519679E+01 -0.16905018432E+02  0.64687773799E+01  0.18133311920E+02  0.10500000000E+00 0.  1.
    3000001    1    5    5    0    0  0.78676275925E+01  0.36322005742E+02 -0.21210052788E+02  0.42802499977E+02  0.10000000000E+01 0.  1.
        -13    1    6    6    0    0  0.16591213208E+01  0.93658528429E+01 -0.16767684175E+01  0.96589057537E+01  0.10500000000E+00 0.  1.
         13    1    6    6    0    0  0.16023067221E+01  0.97431335898E+01 -0.18072939834E+01  0.10038594300E+02  0.10500000000E+00 0. -1.
</event>
<event>
11    0  0.3482988E-009  0.9118800E+02  0.7816531E-02  0.1126479E+00
         25   -1    0    0    0    0  0.00000000000E+00  0.00000000000E+00  0.99999998245E-14  0.12500000000E+03  0.12500000000E+03 0.  0.
    3000001    1    3    3    0    0 -0.49895663937E+02 -0.93762373741E+01  0.87289142685E+00  0.50786347048E+02  0.10000000000E+01 0.  1.
    1000022    2    1    0    0    0 -0.61058288240E+02 -0.84638666764E+01 -0.25491782184E+01  0.62499999748E+02  0.10000002851E+02 0.  0.
    3000022    2    3    3    0    0 -0.11162624303E+02  0.91237069776E+00 -0.34220696452E+01  0.11713652700E+02  0.24999461909E+00 0.  0.
    1000022    2    1    0    0    0  0.61058288240E+02  0.84638666764E+01  0.25491782184E+01  0.62500000252E+02  0.10000005997E+02 0.  0.
    3000022    2    5    5    0    0  0.32693574968E+02  0.94493443136E+01  0.68758152969E+00  0.34039612563E+02  0.25000581042E+00 0.  0.
        -13    1    4    4    0    0 -0.48522421203E+01  0.43790429244E+00 -0.14349398809E+01  0.50799696086E+01  0.10500000000E+00 0.  1.
         13    1    4    4    0    0 -0.63103821826E+01  0.47446640531E+00 -0.19871297643E+01  0.66336830916E+01  0.10500000000E+00 0. -1.
    3000001    1    5    5    0    0  0.28364713272E+02 -0.98547763723E+00  0.18615966887E+01  0.28460387689E+02  0.10000000000E+01 0.  1.
        -13    1    6    6    0    0  0.83799531560E+01  0.24436786254E+01  0.15485767337E+00  0.87309899794E+01  0.10500000000E+00 0.  1.
         13    1    6    6    0    0  0.24313621812E+02  0.70056656882E+01  0.53272385632E+00  0.25308622584E+02  0.10500000000E+00 0. -1.
</event>
<event>
11    0  0.3482988E-009  0.9118800E+02  0.7816531E-02  0.1126479E+00
         25   -1    0    0    0    0  0.00000000000E+00  0.00000000000E+00  0.99999998245E-14  0.12500000000E+03  0.12500000000E+03 0.  0.
    3000001    1    3    3    0    0  0.25386587995E+02  0.41095457825E+02  0.32374073557E+02  0.58158371216E+02  0.10000000000E+01 0.  1.
    1000022    2    1    0    0    0  0.28716780077E+02  0.41883134360E+02  0.35034265417E+02  0.62499999753E+02  0.99999907022E+01 0.  0.
    3000022    2    3    3    0    0  0.33301920818E+01  0.78767653562E+00  0.26601918598E+01  0.43416285370E+01  0.25000799346E+00 0.  0.
    1000022    2    1    0    0    0 -0.28716780077E+02 -0.41883134360E+02 -0.35034265417E+02  0.62500000247E+02  0.99999937893E+01 0.  0.
    3000022    2    5    5    0    0 -0.92356786314E+01 -0.13898562794E+02 -0.60994966215E+01  0.17768910337E+02  0.25001604968E+00 0.  0.
        -13    1    4    4    0    0  0.22286161115E+01  0.58049629324E+00  0.17960150550E+01  0.29223964134E+01  0.10500000000E+00 0. -1.
         13    1    4    4    0    0  0.11015759702E+01  0.20718024238E+00  0.86417680473E+00  0.14192321237E+01  0.10500000000E+00 0.  1.
    3000001    1    5    5    0    0 -0.19481101445E+02 -0.27984571566E+02 -0.28934768795E+02  0.44731089910E+02  0.10000000000E+01 0.  1.
        -13    1    6    6    0    0 -0.40924944927E+01 -0.61465057121E+01 -0.27693823614E+01  0.78872395237E+01  0.10500000000E+00 0.  1.
         13    1    6    6    0    0 -0.51431841387E+01 -0.77520570818E+01 -0.33301142601E+01  0.98816708136E+01  0.10500000000E+00 0. -1.
</event>
<event>
11    0  0.3482988E-009  0.9118800E+02  0.7816531E-02  0.1126479E+00
         25   -1    0    0    0    0  0.00000000000E+00  0.00000000000E+00  0.99999998245E-14  0.12500000000E+03  0.12500000000E+03 0.  0.
    3000001    1    3    3    0    0  0.13643760347E+01  0.31995937985E+01  0.15453506954E+02  0.15871666567E+02  0.10000000000E+01 0. -1.
    1000022    2    1    0    0    0  0.14285063329E+02 -0.16063111165E+01  0.59996723038E+02  0.62500000003E+02  0.99999977701E+01 0.  0.
    3000022    2    3    3    0    0  0.12920687294E+02 -0.48059049150E+01  0.44543216084E+02  0.46628333437E+02  0.24999545287E+00 0.  0.
    1000022    2    1    0    0    0 -0.14285063329E+02  0.16063111165E+01 -0.59996723038E+02  0.62499999997E+02  0.99999977295E+01 0.  0.
    3000022    2    5    5    0    0 -0.97395249629E+01  0.14959807622E+01 -0.54081647244E+02  0.54972569261E+02  0.24999531152E+00 0.  0.
        -13    1    4    4    0    0  0.75521643825E+01 -0.28200302689E+01  0.25831626174E+02  0.27060519089E+02  0.10500000000E+00 0. -1.
         13    1    4    4    0    0  0.53685229120E+01 -0.19858746460E+01  0.18711589911E+02  0.19567814348E+02  0.10500000000E+00 0.  1.
    3000001    1    5    5    0    0 -0.45455383663E+01  0.11033035424E+00 -0.59150757943E+01  0.75274307355E+01  0.10000000000E+01 0. -1.
        -13    1    6    6    0    0 -0.34882837186E+01  0.56861412700E+00 -0.19134565638E+02  0.19458521847E+02  0.10500000000E+00 0. -1.
         13    1    6    6    0    0 -0.62512412443E+01  0.92736663524E+00 -0.34947081606E+02  0.35514047414E+02  0.10500000000E+00 0.  1.
</event>
<event>
11    0  0.3482988E-009  0.9118800E+02  0.7816531E-02  0.1126479E+00
         25   -1    0    0    0    0  0.00000000000E+00  0.00000000000E+00  0.99999998245E-14  0.12500000000E+03  0.12500000000E+03 0.  0.
    3000001    1    3    3    0    0 -0.13062270282E+02 -0.11514504796E+02 -0.14414514544E+02  0.22627084548E+02  0.10000000000E+01 0. -1.
    1000022    2    1    0    0    0 -0.27924752644E+02 -0.26199848862E+02 -0.48373816303E+02  0.62500000149E+02  0.10000001216E+02 0.  0.
    3000022    2    3    3    0    0 -0.14862482362E+02 -0.14685344066E+02 -0.33959301760E+02  0.39872915601E+02  0.25002049955E+00 0.  0.
    1000022    2    1    0    0    0  0.27924752644E+02  0.26199848862E+02  0.48373816303E+02  0.62499999851E+02  0.99999993507E+01 0.  0.
    3000022    2    5    5    0    0  0.44084871835E+01  0.53899849466E+01  0.15674707191E+02  0.17153589694E+02  0.24999380165E+00 0.  0.
        -13    1    4    4    0    0 -0.10965160129E+02 -0.10859667956E+02 -0.25133220132E+02  0.29493336603E+02  0.10500000000E+00 0. -1.
         13    1    4    4    0    0 -0.38973222325E+01 -0.38256761095E+01 -0.88260816280E+01  0.10379578998E+02  0.10500000000E+00 0.  1.
    3000001    1    5    5    0    0  0.23516265460E+02  0.20809863915E+02  0.32699109113E+02  0.45346410157E+02  0.10000000000E+01 0.  1.
        -13    1    6    6    0    0  0.17459481363E+01  0.21717091424E+01  0.64185341499E+01  0.69980898199E+01  0.10500000000E+00 0.  1.
         13    1    6    6    0    0  0.26625390472E+01  0.32182758042E+01  0.92561730408E+01  0.10155499874E+02  0.10500000000E+00 0. -1.
</event>
<event>
11    0  0.3482988E-009  0.9118800E+02  0.7816531E-02  0.1126479E+00
         25   -1    0    0    0    0  0.00000000000E+00  0.00000000000E+00  0.99999998245E-14  0.12500000000E+03  0.12500000000E+03 0.  0.
    3000001    1    3    3    0    0 -0.15004504123E+02 -0.32474462916E+02 -0.17134255826E+02  0.39677557994E+02  0.10000000000E+01 0. -1.
    1000022    2    1    0    0    0 -0.25463142103E+02 -0.52576886517E+02 -0.19838093481E+02  0.62499998252E+02  0.99999613484E+01 0.  0.
    3000022    2    3    3    0    0 -0.10458637980E+02 -0.20102423601E+02 -0.27038376549E+01  0.22822440259E+02  0.24999647085E+00 0.  0.
    1000022    2    1    0    0    0  0.25463142103E+02  0.52576886517E+02  0.19838093481E+02  0.62500001748E+02  0.99999831973E+01 0.  0.
    3000022    2    5    5    0    0  0.10720093866E+02  0.25223906760E+02  0.42990983547E+01  0.27743659270E+02  0.24999659771E+00 0.  0.
        -13    1    4    4    0    0 -0.34462265368E+01 -0.66458224631E+01 -0.84098789542E+00  0.75340373768E+01  0.10500000000E+00 0. -1.
         13    1    4    4    0    0 -0.70124114436E+01 -0.13456601138E+02 -0.18628497595E+01  0.15288402882E+02  0.10500000000E+00 0.  1.
    3000001    1    5    5    0    0  0.14743048237E+02  0.27352979758E+02  0.15538995126E+02  0.34756342478E+02  0.10000000000E+01 0.  1.
        -13    1    6    6    0    0  0.78999949121E+01  0.18616543543E+02  0.32031957813E+01  0.20475768638E+02  0.10500000000E+00 0.  1.
         13    1    6    6    0    0  0.28200989536E+01  0.66073632163E+01  0.10959025734E+01  0.72678906314E+01  0.10500000000E+00 0. -1.
</event>
<event>
11    0  0.3482988E-009  0.9118800E+02  0.7816531E-02  0.1126479E+00
         25   -1    0    0    0    0  0.00000000000E+00  0.00000000000E+00  0.99999998245E-14  0.12500000000E+03  0.12500000000E+03 0.  0.
    3000001    1    3    3    0    0  0.16562732192E+02  0.17067238815E+02 -0.18572516539E+02  0.30191937815E+02  0.10000000000E+01 0. -1.
    1000022    2    1    0    0    0  0.29850990239E+02  0.29254376611E+02 -0.45380059636E+02  0.62500001744E+02  0.10000011815E+02 0.  0.
    3000022    2    3    3    0    0  0.13288258047E+02  0.12187137796E+02 -0.26807543096E+02  0.32308063929E+02  0.24999675266E+00 0.  0.
    1000022    2    1    0    0    0 -0.29850990239E+02 -0.29254376611E+02  0.45380059636E+02  0.62499998256E+02  0.99999900169E+01 0.  0.
    3000022    2    5    5    0    0 -0.26767976295E+00 -0.38968508920E+01  0.53499400168E+01  0.66288353364E+01  0.25000080634E+00 0.  0.
        -13    1    4    4    0    0  0.69729106107E+01  0.63962969703E+01 -0.14189112911E+02  0.17055088610E+02  0.10500000000E+00 0.  1.
         13    1    4    4    0    0  0.63153474364E+01  0.57908408256E+01 -0.12618430186E+02  0.15252975318E+02  0.10500000000E+00 0. -1.
    3000001    1    5    5    0    0 -0.29583310476E+02 -0.25357525719E+02  0.40030119619E+02  0.55871162920E+02  0.10000000000E+01 0.  1.
        -13    1    6    6    0    0 -0.16852218041E+00 -0.18151389527E+01  0.25834793830E+01  0.31636244823E+01  0.10500000000E+00 0.  1.
         13    1    6    6    0    0 -0.99157582537E-01 -0.20817119393E+01  0.27664606339E+01  0.34652108541E+01  0.10500000000E+00 0. -1.
</event>
<event>
11    0  0.3482988E-009  0.9118800E+02  0.7816531E-02  0.1126479E+00
         25   -1    0    0    0    0  0.00000000000E+00  0.00000000000E+00  0.99999998245E-14  0.12500000000E+03  0.12500000000E+03 0.  0.
    3000001    1    3    3    0    0  0.73704368019E+01 -0.86594371846E+00 -0.64769987782E+00  0.75161634033E+01  0.10000000000E+01 0.  1.
    1000022    2    1    0    0    0  0.57578016948E+02 -0.92056917741E+01  0.20156320506E+02  0.62499999814E+02  0.99999961850E+01 0.  0.
    3000022    2    3    3    0    0  0.50207580146E+02 -0.83397480557E+01  0.20804020384E+02  0.54983836410E+02  0.25000107733E+00 0.  0.
    1000022    2    1    0    0    0 -0.57578016948E+02  0.92056917741E+01 -0.20156320506E+02  0.62500000186E+02  0.99999985153E+01 0.  0.
    3000022    2    5    5    0    0 -0.37096200036E+02  0.78771045070E+01 -0.84637175759E+01  0.38857095724E+02  0.25008078497E+00 0.  0.
        -13    1    4    4    0    0  0.18802252351E+02 -0.30708860289E+01  0.77540935731E+01  0.20569200923E+02  0.10500000000E+00 0.  1.
         13    1    4    4    0    0  0.31405327795E+02 -0.52688620267E+01  0.13049926811E+02  0.34414635487E+02  0.10500000000E+00 0. -1.
    3000001    1    5    5    0    0 -0.20481816912E+02  0.13285872672E+01 -0.11692602930E+02  0.23642904463E+02  0.10000000000E+01 0.  1.
        -13    1    6    6    0    0 -0.13463706989E+02  0.28953725603E+01 -0.31212630224E+01  0.14121186069E+02  0.10500000000E+00 0. -1.
         13    1    6    6    0    0 -0.23632493047E+02  0.49817319466E+01 -0.53424545535E+01  0.24735909655E+02  0.10500000000E+00 0.  1.
</event>
<event>
11    0  0.3482988E-009  0.9118800E+02  0.7816531E-02  0.1126479E+00
         25   -1    0    0    0    0  0.00000000000E+00  0.00000000000E+00  0.99999998245E-14  0.12500000000E+03  0.12500000000E+03 0.  0.
    3000001    1    3    3    0    0 -0.12522070087E+00  0.57817775101E+00 -0.15480770578E+02  0.15524310852E+02  0.10000000000E+01 0. -1.
    1000022    2    1    0    0    0 -0.15723153740E+02  0.91921360811E+01 -0.58945204513E+02  0.62499999358E+02  0.99999927709E+01 0.  0.
    3000022    2    3    3    0    0 -0.15597933039E+02  0.86139583301E+01 -0.43464433935E+02  0.46975688507E+02  0.25000028261E+00 0.  0.
    1000022    2    1    0    0    0  0.15723153740E+02 -0.91921360811E+01  0.58945204513E+02  0.62500000642E+02  0.10000000793E+02 0.  0.
    3000022    2    5    5    0    0  0.15377616461E+02 -0.47574796505E+01  0.42958732806E+02  0.45876136732E+02  0.24999294341E+00 0.  0.
        -13    1    4    4    0    0 -0.87385172031E+01  0.47685509303E+01 -0.24396230019E+02  0.26349342023E+02  0.10500000000E+00 0.  1.
         13    1    4    4    0    0 -0.68594158364E+01  0.38454073998E+01 -0.19068203916E+02  0.20626346484E+02  0.10500000000E+00 0. -1.
    3000001    1    5    5    0    0  0.34553727961E+00 -0.44346564306E+01  0.15986471707E+02  0.16623863910E+02  0.10000000000E+01 0.  1.
        -13    1    6    6    0    0  0.68215246310E+01 -0.20558504844E+01  0.18897443438E+02  0.20196141042E+02  0.10500000000E+00 0.  1.
         13    1    6    6    0    0  0.85560918297E+01 -0.27016291662E+01  0.24061289368E+02  0.25679995689E+02  0.10500000000E+00 0. -1.
</event>
<event>
11    0  0.3482988E-009  0.9118800E+02  0.7816531E-02  0.1126479E+00
         25   -1    0    0    0    0  0.00000000000E+00  0.00000000000E+00  0.99999998245E-14  0.12500000000E+03  0.12500000000E+03 0.  0.
    3000001    1    3    3    0    0  0.15031202920E+02 -0.41682755892E+02 -0.23331321563E+02  0.50087321408E+02  0.10000000000E+01 0. -1.
    1000022    2    1    0    0    0  0.14643808465E+02 -0.50912815905E+02 -0.31617938375E+02  0.62500000361E+02  0.10000003415E+02 0.  0.
    3000022    2    3    3    0    0 -0.38739445509E+00 -0.92300600136E+01 -0.82866168122E+01  0.12412678953E+02  0.24999657145E+00 0.  0.
    1000022    2    1    0    0    0 -0.14643808465E+02  0.50912815905E+02  0.31617938375E+02  0.62499999639E+02  0.99999989010E+01 0.  0.
    3000022    2    5    5    0    0 -0.74222471810E+01  0.22769235747E+02  0.19961439301E+02  0.31177706904E+02  0.24999822873E+00 0.  0.
        -13    1    4    4    0    0 -0.11973738588E+00 -0.24340858284E+01 -0.22255297881E+01  0.33019870835E+01  0.10500000000E+00 0.  1.
         13    1    4    4    0    0 -0.26765706921E+00 -0.67959741852E+01 -0.60610870241E+01  0.91106918698E+01  0.10500000000E+00 0. -1.
    3000001    1    5    5    0    0 -0.72215612837E+01  0.28143580159E+02  0.11656499074E+02  0.31322292735E+02  0.10000000000E+01 0.  1.
        -13    1    6    6    0    0 -0.25491582293E+01  0.80024869605E+01  0.69965400699E+01  0.10931633143E+02  0.10500000000E+00 0.  1.
         13    1    6    6    0    0 -0.48730889516E+01  0.14766748786E+02  0.12964899231E+02  0.20246073760E+02  0.10500000000E+00 0. -1.
</event>
<event>
11    0  0.3482988E-009  0.9118800E+02  0.7816531E-02  0.1126479E+00
         25   -1    0    0    0    0  0.00000000000E+00  0.00000000000E+00  0.99999998245E-14  0.12500000000E+03  0.12500000000E+03 0.  0.
    3000001    1    3    3    0    0  0.33537562267E+02 -0.10948406130E+02 -0.94348759363E+01  0.36532897005E+02  0.10000000000E+01 0. -1.
    1000022    2    1    0    0    0  0.54810467156E+02 -0.15775901626E+02 -0.23519858669E+02  0.62499999883E+02  0.99999925820E+01 0.  0.
    3000022    2    3    3    0    0  0.21272904889E+02 -0.48274954956E+01 -0.14084982733E+02  0.25967102879E+02  0.24999632885E+00 0.  0.
    1000022    2    1    0    0    0 -0.54810467156E+02  0.15775901626E+02  0.23519858669E+02  0.62500000117E+02  0.99999940397E+01 0.  0.
    3000022    2    5    5    0    0 -0.25612920160E+02  0.12352721401E+02  0.12909946601E+02  0.31230443875E+02  0.24999654780E+00 0.  0.
        -13    1    4    4    0    0  0.67793039950E+01 -0.15861149697E+01 -0.45194236766E+01  0.83012612730E+01  0.10500000000E+00 0.  1.
         13    1    4    4    0    0  0.14493600894E+02 -0.32413805259E+01 -0.95655590561E+01  0.17665841606E+02  0.10500000000E+00 0. -1.
    3000001    1    5    5    0    0 -0.29197546997E+02  0.34231802250E+01  0.10609912068E+02  0.31269556242E+02  0.10000000000E+01 0. -1.
        -13    1    6    6    0    0 -0.15511189339E+02  0.75218690238E+01  0.78814612496E+01  0.18955314947E+02  0.10500000000E+00 0. -1.
         13    1    6    6    0    0 -0.10101730821E+02  0.48308523768E+01  0.50284853518E+01  0.12275128928E+02  0.10500000000E+00 0.  1.
</event>
<event>
11    0  0.3482988E-009  0.9118800E+02  0.7816531E-02  0.1126479E+00
         25   -1    0    0    0    0  0.00000000000E+00  0.00000000000E+00  0.99999998245E-14  0.12500000000E+03  0.12500000000E+03 0.  0.
    3000001    1    3    3    0    0 -0.97065508033E+01 -0.49046054624E+02 -0.35426161904E+02  0.61284137834E+02  0.10000000000E+01 0.  1.
    1000022    2    1    0    0    0 -0.10855380038E+02 -0.49354050767E+02 -0.35391906076E+02  0.62500011429E+02  0.10000140506E+02 0.  0.
    3000022    2    3    3    0    0 -0.11488292345E+01 -0.30799614235E+00  0.34255828727E-01  0.12158735958E+01  0.25000981043E+00 0.  0.
    1000022    2    1    0    0    0  0.10855380038E+02  0.49354050767E+02  0.35391906076E+02  0.62499988571E+02  0.99999976407E+01 0.  0.
    3000022    2    5    5    0    0  0.60021361988E+01  0.10137025337E+02  0.58754927993E+01  0.13166959959E+02  0.24999458143E+00 0.  0.
        -13    1    4    4    0    0 -0.58877444681E+00 -0.14393446641E+00  0.83912377904E-01  0.62083715014E+00  0.10500000000E+00 0.  1.
         13    1    4    4    0    0 -0.56005478771E+00 -0.16406167594E+00 -0.49656549177E-01  0.59503644562E+00  0.10500000000E+00 0. -1.
    3000001    1    5    5    0    0  0.48532438391E+01  0.39217025430E+02  0.29516413276E+02  0.49333028612E+02  0.10000000000E+01 0.  1.
        -13    1    6    6    0    0  0.42964857992E+01  0.73299522742E+01  0.42237852835E+01  0.94889081399E+01  0.10500000000E+00 0.  1.
         13    1    6    6    0    0  0.17056503996E+01  0.28070730627E+01  0.16517075158E+01  0.36780518189E+01  0.10500000000E+00 0. -1.
</event>
<event>
11    0  0.3482988E-009  0.9118800E+02  0.7816531E-02  0.1126479E+00
         25   -1    0    0    0    0  0.00000000000E+00  0.00000000000E+00  0.99999998245E-14  0.12500000000E+03  0.12500000000E+03 0.  0.
    3000001    1    3    3    0    0  0.20401611903E+02  0.68470680347E+01  0.54364083688E+02  0.58477018599E+02  0.10000000000E+01 0. -1.
    1000022    2    1    0    0    0  0.23809924797E+02  0.70474484335E+01  0.56477171341E+02  0.62500001268E+02  0.10000011376E+02 0.  0.
    3000022    2    3    3    0    0  0.34083128934E+01  0.20038039881E+00  0.21130876529E+01  0.40229826690E+01  0.25000208586E+00 0.  0.
    1000022    2    1    0    0    0 -0.23809924797E+02 -0.70474484335E+01 -0.56477171341E+02  0.62499998732E+02  0.99999955280E+01 0.  0.
    3000022    2    5    5    0    0 -0.11789404280E+02 -0.26063691972E+01 -0.16098144893E+02  0.20124512007E+02  0.25000171418E+00 0.  0.
        -13    1    4    4    0    0  0.24804356218E+01  0.11049721797E+00  0.15196596010E+01  0.29129299360E+01  0.10500000000E+00 0.  1.
         13    1    4    4    0    0  0.92787727162E+00  0.89883180842E-01  0.59342805188E+00  0.11100527331E+01  0.10500000000E+00 0. -1.
    3000001    1    5    5    0    0 -0.12020520517E+02 -0.44410792363E+01 -0.40379026448E+02  0.42375486725E+02  0.10000000000E+01 0.  1.
        -13    1    6    6    0    0 -0.34028694560E+01 -0.78899435868E+00 -0.46973680759E+01  0.58547693783E+01  0.10500000000E+00 0. -1.
         13    1    6    6    0    0 -0.83865348243E+01 -0.18173748385E+01 -0.11400776817E+02  0.14269742629E+02  0.10500000000E+00 0.  1.
</event>
<event>
11    0  0.3482988E-009  0.9118800E+02  0.7816531E-02  0.1126479E+00
         25   -1    0    0    0    0  0.00000000000E+00  0.00000000000E+00  0.99999998245E-14  0.12500000000E+03  0.12500000000E+03 0.  0.
    3000001    1    3    3    0    0  0.32526040328E+02 -0.37002436268E+02 -0.23155840195E+01  0.49330371158E+02  0.10000000000E+01 0. -1.
    1000022    2    1    0    0    0  0.41985606223E+02 -0.44586232967E+02 -0.74516748552E+01  0.62500006249E+02  0.10000001143E+02 0.  0.
    3000022    2    3    3    0    0  0.94595658956E+01 -0.75837966990E+01 -0.51360908357E+01  0.13169635092E+02  0.25000014339E+00 0.  0.
    1000022    2    1    0    0    0 -0.41985606223E+02  0.44586232967E+02  0.74516748552E+01  0.62499993751E+02  0.99999230270E+01 0.  0.
    3000022    2    5    5    0    0 -0.16880610061E+02  0.24577072491E+02  0.16606193351E+01  0.29863148632E+02  0.25000275931E+00 0.  0.
        -13    1    4    4    0    0  0.56441967395E+01 -0.46015013883E+01 -0.31064114679E+01  0.79178020352E+01  0.10500000000E+00 0.  1.
         13    1    4    4    0    0  0.38153691561E+01 -0.29822953106E+01 -0.20296793679E+01  0.52518330565E+01  0.10500000000E+00 0. -1.
    3000001    1    5    5    0    0 -0.25104996162E+02  0.20009160477E+02  0.57910555201E+01  0.32636845119E+02  0.10000000000E+01 0. -1.
        -13    1    6    6    0    0 -0.12832118622E+02  0.18711102196E+02  0.12543080794E+01  0.22723400438E+02  0.10500000000E+00 0. -1.
         13    1    6    6    0    0 -0.40484914387E+01  0.58659702948E+01  0.40631125570E+00  0.71397481935E+01  0.10500000000E+00 0.  1.
</event>
<event>
11    0  0.3482988E-009  0.9118800E+02  0.7816531E-02  0.1126479E+00
         25   -1    0    0    0    0  0.00000000000E+00  0.00000000000E+00  0.99999998245E-14  0.12500000000E+03  0.12500000000E+03 0.  0.
    3000001    1    3    3    0    0  0.10046280159E+02  0.38285870622E+01  0.56151214002E+01  0.12170267551E+02  0.10000000000E+01 0.  1.
    1000022    2    1    0    0    0  0.38543074676E+02  0.20241101212E+02  0.43714748217E+02  0.62500000105E+02  0.10000000891E+02 0.  0.
    3000022    2    3    3    0    0  0.28496794516E+02  0.16412514149E+02  0.38099626816E+02  0.50329732554E+02  0.24999399925E+00 0.  0.
    1000022    2    1    0    0    0 -0.38543074676E+02 -0.20241101212E+02 -0.43714748217E+02  0.62499999895E+02  0.99999995735E+01 0.  0.
    3000022    2    5    5    0    0 -0.17935060707E+02 -0.11248017209E+02 -0.27757056270E+02  0.34909897831E+02  0.25000020662E+00 0.  0.
        -13    1    4    4    0    0  0.87492419837E+01  0.49907193840E+01  0.11635824483E+02  0.15390255088E+02  0.10500000000E+00 0.  1.
         13    1    4    4    0    0  0.19747552533E+02  0.11421794765E+02  0.26463802333E+02  0.34939477466E+02  0.10500000000E+00 0. -1.
    3000001    1    5    5    0    0 -0.20608013969E+02 -0.89930840029E+01 -0.15957691947E+02  0.27590102064E+02  0.10000000000E+01 0. -1.
        -13    1    6    6    0    0 -0.67406721736E+01 -0.41945237651E+01 -0.10497684901E+02  0.13162184631E+02  0.10500000000E+00 0.  1.
         13    1    6    6    0    0 -0.11194388533E+02 -0.70534934437E+01 -0.17259371369E+02  0.21747713200E+02  0.10500000000E+00 0. -1.
</event>
<event>
11    0  0.3482988E-009  0.9118800E+02  0.7816531E-02  0.1126479E+00
         25   -1    0    0    0    0  0.00000000000E+00  0.00000000000E+00  0.99999998245E-14  0.12500000000E+03  0.12500000000E+03 0.  0.
    3000001    1    3    3    0    0 -0.21489427668E+02 -0.90348888692E+01 -0.48167758295E+01  0.23824903940E+02  0.10000000000E+01 0.  1.
    1000022    2    1    0    0    0 -0.54104833952E+02 -0.29593587718E+02 -0.17711359871E+01  0.62500002682E+02  0.99999960800E+01 0.  0.
    3000022    2    3    3    0    0 -0.32615406284E+02 -0.20558698848E+02  0.30456398424E+01  0.38675098742E+02  0.25003043842E+00 0.  0.
    1000022    2    1    0    0    0  0.54104833952E+02  0.29593587718E+02  0.17711359871E+01  0.62499997318E+02  0.99999625533E+01 0.  0.
    3000022    2    5    5    0    0  0.60136718272E+01  0.54103911209E-01 -0.12627300604E+00  0.60204334123E+01  0.24999504414E+00 0.  0.
        -13    1    4    4    0    0 -0.89377733669E+01 -0.56443626814E+01  0.87175611821E+00  0.10607243118E+02  0.10500000000E+00 0.  1.
         13    1    4    4    0    0 -0.23677632917E+02 -0.14914336167E+02  0.21738837242E+01  0.28067855624E+02  0.10500000000E+00 0. -1.
    3000001    1    5    5    0    0  0.48091162125E+02  0.29539483806E+02  0.18974089932E+01  0.56479563906E+02  0.10000000000E+01 0.  1.
        -13    1    6    6    0    0  0.21653675403E+01  0.48807433085E-01 -0.95700913277E-01  0.21705719096E+01  0.10500000000E+00 0.  1.
         13    1    6    6    0    0  0.38483042869E+01  0.52964781243E-02 -0.30572092759E-01  0.38498615027E+01  0.10500000000E+00 0. -1.
</event>
<event>
11    0  0.3482988E-009  0.9118800E+02  0.7816531E-02  0.1126479E+00
         25   -1    0    0    0    0  0.00000000000E+00  0.00000000000E+00  0.99999998245E-14  0.12500000000E+03  0.12500000000E+03 0.  0.
    3000001    1    3    3    0    0 -0.23036875762E+02 -0.21220384881E+02  0.31613332107E+02  0.44512977279E+02  0.10000000000E+01 0. -1.
    1000022    2    1    0    0    0 -0.35884117235E+02 -0.31149733709E+02  0.39348114571E+02  0.62499998801E+02  0.99999974988E+01 0.  0.
    3000022    2    3    3    0    0 -0.12847241473E+02 -0.99293488274E+01  0.77347824635E+01  0.17987021521E+02  0.25000368105E+00 0.  0.
    1000022    2    1    0    0    0  0.35884117235E+02  0.31149733709E+02 -0.39348114571E+02  0.62500001199E+02  0.10000012490E+02 0.  0.
    3000022    2    5    5    0    0  0.26487516141E+02  0.18556333612E+02 -0.30421003136E+02  0.44400742742E+02  0.24999173526E+00 0.  0.
        -13    1    4    4    0    0 -0.87333577440E+01 -0.67922700581E+01  0.53117073468E+01  0.12273211885E+02  0.10500000000E+00 0. -1.
         13    1    4    4    0    0 -0.41138837292E+01 -0.31370787694E+01  0.24230751168E+01  0.57138096367E+01  0.10500000000E+00 0.  1.
    3000001    1    5    5    0    0  0.93966010943E+01  0.12593400097E+02 -0.89271114350E+01  0.18099258457E+02  0.10000000000E+01 0. -1.
        -13    1    6    6    0    0  0.15486055564E+02  0.10787147609E+02 -0.17807006442E+02  0.25947658351E+02  0.10500000000E+00 0.  1.
         13    1    6    6    0    0  0.11001460577E+02  0.77691860028E+01 -0.12613996694E+02  0.18453084392E+02  0.10500000000E+00 0. -1.
</event>
<event>
11    0  0.3482988E-009  0.9118800E+02  0.7816531E-02  0.1126479E+00
         25   -1    0    0    0    0  0.00000000000E+00  0.00000000000E+00  0.99999998245E-14  0.12500000000E+03  0.12500000000E+03 0.  0.
    3000001    1    3    3    0    0 -0.75920295696E+01 -0.71264056849E+01  0.10583793875E+02  0.14880902653E+02  0.10000000000E+01 0.  1.
    1000022    2    1    0    0    0 -0.33789728554E+02 -0.41154039162E+02  0.31158454050E+02  0.62499999810E+02  0.10000001125E+02 0.  0.
    3000022    2    3    3    0    0 -0.26197698984E+02 -0.34027633477E+02  0.20574660175E+02  0.47619097158E+02  0.25000147043E+00 0.  0.
    1000022    2    1    0    0    0  0.33789728554E+02  0.41154039162E+02 -0.31158454050E+02  0.62500000190E+02  0.10000003494E+02 0.  0.
    3000022    2    5    5    0    0  0.20115126888E+01  0.62393905778E+01 -0.64692163966E+01  0.92135465152E+01  0.25000104582E+00 0.  0.
        -13    1    4    4    0    0 -0.95402345680E+01 -0.12320316555E+02  0.74221463762E+01  0.17259940830E+02  0.10500000000E+00 0. -1.
         13    1    4    4    0    0 -0.16657464416E+02 -0.21707316922E+02  0.13152513799E+02  0.30359156328E+02  0.10500000000E+00 0.  1.
    3000001    1    5    5    0    0  0.31778215865E+02  0.34914648584E+02 -0.24689237653E+02  0.53286453674E+02  0.10000000000E+01 0. -1.
        -13    1    6    6    0    0  0.15202761648E+01  0.47467692553E+01 -0.48926242704E+01  0.69851166942E+01  0.10500000000E+00 0.  1.
         13    1    6    6    0    0  0.49123652402E+00  0.14926213225E+01 -0.15765921262E+01  0.22284298210E+01  0.10500000000E+00 0. -1.
</event>
<event>
11    0  0.3482988E-009  0.9118800E+02  0.7816531E-02  0.1126479E+00
         25   -1    0    0    0    0  0.00000000000E+00  0.00000000000E+00  0.99999998245E-14  0.12500000000E+03  0.12500000000E+03 0.  0.
    3000001    1    3    3    0    0 -0.29246260767E+00  0.20696688435E+01 -0.24130732593E+02  0.24241726815E+02  0.10000000000E+01 0. -1.
    1000022    2    1    0    0    0 -0.12820132326E+02  0.32928823103E+01 -0.60258204414E+02  0.62500000155E+02  0.99999976721E+01 0.  0.
    3000022    2    3    3    0    0 -0.12527669718E+02  0.12232134668E+01 -0.36127471821E+02  0.38258273340E+02  0.24999809162E+00 0.  0.
    1000022    2    1    0    0    0  0.12820132326E+02 -0.32928823103E+01  0.60258204414E+02  0.62499999845E+02  0.99999957365E+01 0.  0.
    3000022    2    5    5    0    0  0.13151786371E+02 -0.14054299071E+01  0.57465043658E+02  0.58968113948E+02  0.25000410322E+00 0.  0.
        -13    1    4    4    0    0 -0.73781901731E+01  0.66273797066E+00 -0.21173210639E+02  0.22431959023E+02  0.10500000000E+00 0. -1.
         13    1    4    4    0    0 -0.51494795449E+01  0.56047549614E+00 -0.14954261181E+02  0.15826314316E+02  0.10500000000E+00 0.  1.
    3000001    1    5    5    0    0 -0.33165404560E+00 -0.18874524032E+01  0.27931607559E+01  0.35318858968E+01  0.10000000000E+01 0.  1.
        -13    1    6    6    0    0  0.10038606997E+02 -0.10615517445E+01  0.43797538933E+02  0.44945922664E+02  0.10500000000E+00 0.  1.
         13    1    6    6    0    0  0.31131793742E+01 -0.34387816263E+00  0.13667504725E+02  0.14022191284E+02  0.10500000000E+00 0. -1.
</event>
<event>
11    0  0.3482988E-009  0.9118800E+02  0.7816531E-02  0.1126479E+00
         25   -1    0    0    0    0  0.00000000000E+00  0.00000000000E+00  0.99999998245E-14  0.12500000000E+03  0.12500000000E+03 0.  0.
    3000001    1    3    3    0    0  0.17602993195E+02 -0.23737038327E+02 -0.75105733743E+01  0.30507721488E+02  0.10000000000E+01 0.  1.
    1000022    2    1    0    0    0  0.42176589001E+02 -0.44189497791E+02 -0.86413869129E+01  0.62500001042E+02  0.10000009383E+02 0.  0.
    3000022    2    3    3    0    0  0.24573595806E+02 -0.20452459464E+02 -0.11308135387E+01  0.31992279554E+02  0.25000569279E+00 0.  0.
    1000022    2    1    0    0    0 -0.42176589001E+02  0.44189497791E+02  0.86413869129E+01  0.62499998958E+02  0.99999963626E+01 0.  0.
    3000022    2    5    5    0    0 -0.17581116006E+02  0.23912503621E+02  0.96256714319E+00  0.29696675080E+02  0.25001173268E+00 0.  0.
        -13    1    4    4    0    0  0.14719206824E+02 -0.12253637589E+02 -0.61425239437E+00  0.19162333227E+02  0.10500000000E+00 0.  1.
         13    1    4    4    0    0  0.98543889812E+01 -0.81988218746E+01 -0.51656114430E+00  0.12829946327E+02  0.10500000000E+00 0.  1.
    3000001    1    5    5    0    0 -0.24595472995E+02  0.20276994170E+02  0.76788197697E+01  0.32803323879E+02  0.10000000000E+01 0. -1.
        -13    1    6    6    0    0 -0.11285639734E+02  0.15325848843E+02  0.56108288794E+00  0.19041353575E+02  0.10500000000E+00 0. -1.
         13    1    6    6    0    0 -0.62954762720E+01  0.85866547782E+01  0.40148425525E+00  0.10655321505E+02  0.10500000000E+00 0.  1.
</event>
<event>
11    0  0.3482988E-009  0.9118800E+02  0.7816531E-02  0.1126479E+00
         25   -1    0    0    0    0  0.00000000000E+00  0.00000000000E+00  0.99999998245E-14  0.12500000000E+03  0.12500000000E+03 0.  0.
    3000001    1    3    3    0    0 -0.22218445136E+01  0.17702604279E+01 -0.27795753625E+01  0.40983477428E+01  0.10000000000E+01 0. -1.
    1000022    2    1    0    0    0 -0.23229752453E+01  0.41057446731E+02 -0.45990651556E+02  0.62499998820E+02  0.99999837966E+01 0.  0.
    3000022    2    3    3    0    0 -0.10113073176E+00  0.39287186303E+02 -0.43211076193E+02  0.58401651077E+02  0.25001548053E+00 0.  0.
    1000022    2    1    0    0    0  0.23229752453E+01 -0.41057446731E+02  0.45990651556E+02  0.62500001180E+02  0.99999985477E+01 0.  0.
    3000022    2    5    5    0    0  0.56787443936E+01 -0.16065422529E+02  0.19945008883E+02  0.26233791528E+02  0.24999936552E+00 0.  0.
        -13    1    4    4    0    0 -0.87819813669E-01  0.22903201333E+02 -0.25276532802E+02  0.34109800337E+02  0.10500000000E+00 0. -1.
         13    1    4    4    0    0 -0.13310918095E-01  0.16383984970E+02 -0.17934543392E+02  0.24291850740E+02  0.10500000000E+00 0.  1.
    3000001    1    5    5    0    0 -0.33557691483E+01 -0.24992024201E+02  0.26045642673E+02  0.36266209652E+02  0.10000000000E+01 0. -1.
        -13    1    6    6    0    0  0.34091000582E+01 -0.96144500316E+01  0.11843901584E+02  0.15631655138E+02  0.10500000000E+00 0.  1.
         13    1    6    6    0    0  0.22696443354E+01 -0.64509724976E+01  0.81011072986E+01  0.10602136390E+02  0.10500000000E+00 0. -1.
</event>
<event>
11    0  0.3482988E-009  0.9118800E+02  0.7816531E-02  0.1126479E+00
         25   -1    0    0    0    0  0.00000000000E+00  0.00000000000E+00  0.99999998245E-14  0.12500000000E+03  0.12500000000E+03 0.  0.
    3000001    1    3    3    0    0  0.16993695370E+02  0.43404278485E+02  0.25046583266E+02  0.52924931804E+02  0.10000000000E+01 0. -1.
    1000022    2    1    0    0    0  0.20556399268E+02  0.48247095228E+02  0.32494650049E+02  0.62499999923E+02  0.99999979904E+01 0.  0.
    3000022    2    3    3    0    0  0.35627038974E+01  0.48428167426E+01  0.74480667835E+01  0.95750681194E+01  0.24999523229E+00 0.  0.
    1000022    2    1    0    0    0 -0.20556399268E+02 -0.48247095228E+02 -0.32494650049E+02  0.62500000077E+02  0.99999989508E+01 0.  0.
    3000022    2    5    5    0    0 -0.11123632329E+02 -0.29416797945E+02 -0.24810869217E+02  0.40059018019E+02  0.24999153871E+00 0.  0.
        -13    1    4    4    0    0  0.17969941092E+01  0.24893347060E+01  0.39016109820E+01  0.49658401466E+01  0.10500000000E+00 0. -1.
         13    1    4    4    0    0  0.17657097882E+01  0.23534820366E+01  0.35464558016E+01  0.46092279728E+01  0.10500000000E+00 0.  1.
    3000001    1    5    5    0    0 -0.94327669383E+01 -0.18830297282E+02 -0.76837808326E+01  0.22440982058E+02  0.10000000000E+01 0.  1.
        -13    1    6    6    0    0 -0.28133586215E+01 -0.74060887160E+01 -0.62190284635E+01  0.10072362028E+02  0.10500000000E+00 0. -1.
         13    1    6    6    0    0 -0.83102737079E+01 -0.22010709229E+02 -0.18591840753E+02  0.29986655990E+02  0.10500000000E+00 0.  1.
</event>
<event>
11    0  0.3482988E-009  0.9118800E+02  0.7816531E-02  0.1126479E+00
         25   -1    0    0    0    0  0.00000000000E+00  0.00000000000E+00  0.99999998245E-14  0.12500000000E+03  0.12500000000E+03 0.  0.
    3000001    1    3    3    0    0  0.10612898534E+02  0.55827174820E+01  0.19483106113E+02  0.22899602040E+02  0.10000000000E+01 0. -1.
    1000022    2    1    0    0    0  0.17589247266E+02  0.21096783324E+02  0.55243047856E+02  0.62500001282E+02  0.99999968928E+01 0.  0.
    3000022    2    3    3    0    0  0.69763487323E+01  0.15514065842E+02  0.35759941743E+02  0.39600399242E+02  0.25001223558E+00 0.  0.
    1000022    2    1    0    0    0 -0.17589247266E+02 -0.21096783324E+02 -0.55243047856E+02  0.62499998718E+02  0.99999808632E+01 0.  0.
    3000022    2    5    5    0    0 -0.10425527289E+02 -0.90297037727E+01 -0.36820900843E+02  0.39320076514E+02  0.25001734601E+00 0.  0.
        -13    1    4    4    0    0  0.48089181726E+01  0.10803387536E+02  0.24824012561E+02  0.27496936209E+02  0.10500000000E+00 0.  1.
         13    1    4    4    0    0  0.21674305597E+01  0.47106783067E+01  0.10935929181E+02  0.12103463033E+02  0.10500000000E+00 0. -1.
    3000001    1    5    5    0    0 -0.71637199768E+01 -0.12067079552E+02 -0.18422147013E+02  0.23179922204E+02  0.10000000000E+01 0. -1.
        -13    1    6    6    0    0 -0.67953011768E+01 -0.58320161485E+01 -0.24017477274E+02  0.25632767507E+02  0.10500000000E+00 0.  1.
         13    1    6    6    0    0 -0.36302261122E+01 -0.31976876242E+01 -0.12803423569E+02  0.13687309007E+02  0.10500000000E+00 0. -1.
</event>
<event>
11    0  0.3482988E-009  0.9118800E+02  0.7816531E-02  0.1126479E+00
         25   -1    0    0    0    0  0.00000000000E+00  0.00000000000E+00  0.99999998245E-14  0.12500000000E+03  0.12500000000E+03 0.  0.
    3000001    1    3    3    0    0  0.65646342063E+00 -0.46814611035E+01  0.15472485620E+01  0.50735589480E+01  0.10000000000E+01 0.  1.
    1000022    2    1    0    0    0 -0.18362545857E+02 -0.58864447886E+02  0.20108823493E+01  0.62500000707E+02  0.10000006266E+02 0.  0.
    3000022    2    3    3    0    0 -0.19019009278E+02 -0.54182986782E+02  0.46363378721E+00  0.57426441759E+02  0.24997255317E+00 0.  0.
    1000022    2    1    0    0    0  0.18362545857E+02  0.58864447886E+02 -0.20108823493E+01  0.62499999293E+02  0.99999974269E+01 0.  0.
    3000022    2    5    5    0    0  0.69146175462E+01  0.37317186559E+02  0.45326570354E+00  0.37955925489E+02  0.24996277536E+00 0.  0.
        -13    1    4    4    0    0 -0.12043133677E+02 -0.34400083924E+02  0.34489604393E+00  0.36449044172E+02  0.10500000000E+00 0.  1.
         13    1    4    4    0    0 -0.69758756003E+01 -0.19782902858E+02  0.11873774328E+00  0.20977397587E+02  0.10500000000E+00 0. -1.
    3000001    1    5    5    0    0  0.11447928311E+02  0.21547261326E+02 -0.24641480528E+01  0.24544073804E+02  0.10000000000E+01 0.  1.
        -13    1    6    6    0    0  0.17388531028E+01  0.92995341472E+01  0.13371074567E+00  0.94622327720E+01  0.10500000000E+00 0. -1.
         13    1    6    6    0    0  0.51757644434E+01  0.28017652412E+02  0.31955495787E+00  0.28493692717E+02  0.10500000000E+00 0.  1.
</event>
<event>
11    0  0.3482988E-009  0.9118800E+02  0.7816531E-02  0.1126479E+00
         25   -1    0    0    0    0  0.00000000000E+00  0.00000000000E+00  0.99999998245E-14  0.12500000000E+03  0.12500000000E+03 0.  0.
    3000001    1    3    3    0    0  0.11799224183E+02  0.23618659799E+01  0.36159023854E+02  0.38121845552E+02  0.10000000000E+01 0. -1.
    1000022    2    1    0    0    0  0.25197223155E+02 -0.56872645983E+00  0.56311868562E+02  0.62499999694E+02  0.99999958130E+01 0.  0.
    3000022    2    3    3    0    0  0.13397998971E+02 -0.29305924398E+01  0.20152844708E+02  0.24378154141E+02  0.25000205844E+00 0.  0.
    1000022    2    1    0    0    0 -0.25197223155E+02  0.56872645983E+00 -0.56311868562E+02  0.62500000306E+02  0.99999996439E+01 0.  0.
    3000022    2    5    5    0    0 -0.20967528407E+02 -0.33324910933E+01 -0.42674234426E+02  0.47664405243E+02  0.24999790015E+00 0.  0.
        -13    1    4    4    0    0  0.53342887382E+01 -0.11767997867E+01  0.79170995072E+01  0.96193026611E+01  0.10500000000E+00 0. -1.
         13    1    4    4    0    0  0.80637102332E+01 -0.17537926531E+01  0.12235745201E+02  0.14758851480E+02  0.10500000000E+00 0.  1.
    3000001    1    5    5    0    0 -0.42296947472E+01  0.39012175532E+01 -0.13637634136E+02  0.14835595063E+02  0.10000000000E+01 0.  1.
        -13    1    6    6    0    0 -0.10272396797E+02 -0.15661610231E+01 -0.20923624827E+02  0.23362022541E+02  0.10500000000E+00 0.  1.
         13    1    6    6    0    0 -0.10695131611E+02 -0.17663300702E+01 -0.21750609599E+02  0.24302382702E+02  0.10500000000E+00 0. -1.
</event>
<event>
11    0  0.3482988E-009  0.9118800E+02  0.7816531E-02  0.1126479E+00
         25   -1    0    0    0    0  0.00000000000E+00  0.00000000000E+00  0.99999998245E-14  0.12500000000E+03  0.12500000000E+03 0.  0.
    3000001    1    3    3    0    0 -0.22693085506E+02 -0.32301765866E+02 -0.13424412237E+02  0.41708453001E+02  0.10000000000E+01 0.  1.
    1000022    2    1    0    0    0 -0.38319692573E+02 -0.45898195186E+02 -0.15205477485E+02  0.62500000111E+02  0.10000015404E+02 0.  0.
    3000022    2    3    3    0    0 -0.15626607067E+02 -0.13596429320E+02 -0.17810652486E+01  0.20791547110E+02  0.24999823616E+00 0.  0.
    1000022    2    1    0    0    0  0.38319692573E+02  0.45898195186E+02  0.15205477485E+02  0.62499999889E+02  0.10000014018E+02 0.  0.
    3000022    2    5    5    0    0  0.19062087115E+02  0.26275240379E+02  0.12757044882E+02  0.34879164537E+02  0.25000504632E+00 0.  0.
        -13    1    4    4    0    0 -0.11486787251E+02 -0.99651310942E+01 -0.12812470170E+01  0.15261151267E+02  0.10500000000E+00 0. -1.
         13    1    4    4    0    0 -0.41398198159E+01 -0.36312982257E+01 -0.49981823159E+00  0.55303958427E+01  0.10500000000E+00 0.  1.
    3000001    1    5    5    0    0  0.19257605457E+02  0.19622954807E+02  0.24484326030E+01  0.27620835352E+02  0.10000000000E+01 0.  1.
        -13    1    6    6    0    0  0.66510184049E+01  0.90797893167E+01  0.44001310425E+01  0.12085147829E+02  0.10500000000E+00 0. -1.
         13    1    6    6    0    0  0.12411068711E+02  0.17195451062E+02  0.83569138396E+01  0.22794016708E+02  0.10500000000E+00 0.  1.
</event>
<event>
11    0  0.3482988E-009  0.9118800E+02  0.7816531E-02  0.1126479E+00
         25   -1    0    0    0    0  0.00000000000E+00  0.00000000000E+00  0.99999998245E-14  0.12500000000E+03  0.12500000000E+03 0.  0.
    3000001    1    3    3    0    0 -0.14356681069E+02 -0.34134552255E+02 -0.34761056672E+02  0.50799734349E+02  0.10000000000E+01 0.  1.
    1000022    2    1    0    0    0 -0.17729195583E+02 -0.44591326672E+02 -0.38775498213E+02  0.62500000745E+02  0.10000002052E+02 0.  0.
    3000022    2    3    3    0    0 -0.33725145145E+01 -0.10456774417E+02 -0.40144415406E+01  0.11700266396E+02  0.25001497443E+00 0.  0.
    1000022    2    1    0    0    0  0.17729195583E+02  0.44591326672E+02  0.38775498213E+02  0.62499999255E+02  0.99999927386E+01 0.  0.
    3000022    2    5    5    0    0  0.20713225010E+01  0.53808762056E+01  0.94888128145E+01  0.11106046723E+02  0.24999906596E+00 0.  0.
        -13    1    4    4    0    0 -0.17058829440E+01 -0.51574880332E+01 -0.20427447664E+01  0.58046145964E+01  0.10500000000E+00 0. -1.
         13    1    4    4    0    0 -0.16666315705E+01 -0.52992863840E+01 -0.19716967742E+01  0.58956517995E+01  0.10500000000E+00 0.  1.
    3000001    1    5    5    0    0  0.15657873082E+02  0.39210450467E+02  0.29286685399E+02  0.51393952532E+02  0.10000000000E+01 0.  1.
        -13    1    6    6    0    0  0.51327859891E+00  0.12970566513E+01  0.23320214883E+01  0.27194043647E+01  0.10500000000E+00 0. -1.
         13    1    6    6    0    0  0.15580439020E+01  0.40838195542E+01  0.71567913262E+01  0.83866423579E+01  0.10500000000E+00 0.  1.
</event>
<event>
11    0  0.3482988E-009  0.9118800E+02  0.7816531E-02  0.1126479E+00
         25   -1    0    0    0    0  0.00000000000E+00  0.00000000000E+00  0.99999998245E-14  0.12500000000E+03  0.12500000000E+03 0.  0.
    3000001    1    3    3    0    0  0.18886951421E+02  0.44807976355E+02 -0.10783133685E+02  0.49817142141E+02  0.10000000000E+01 0. -1.
    1000022    2    1    0    0    0  0.27744978606E+02  0.53305129220E+02 -0.13965290919E+02  0.62500000473E+02  0.10000003479E+02 0.  0.
    3000022    2    3    3    0    0  0.88580271859E+01  0.84971528652E+01 -0.31821572333E+01  0.12682858332E+02  0.25003673885E+00 0.  0.
    1000022    2    1    0    0    0 -0.27744978606E+02 -0.53305129220E+02  0.13965290919E+02  0.62499999527E+02  0.99999975715E+01 0.  0.
    3000022    2    5    5    0    0 -0.21178637841E+02 -0.47743850747E+02  0.11336189777E+02  0.53446998803E+02  0.24999483048E+00 0.  0.
        -13    1    4    4    0    0  0.39371704475E+01  0.36981271875E+01 -0.13651859363E+01  0.55724512979E+01  0.10500000000E+00 0.  1.
         13    1    4    4    0    0  0.49208567384E+01  0.47990256777E+01 -0.18169712970E+01  0.71104070340E+01  0.10500000000E+00 0. -1.
    3000001    1    5    5    0    0 -0.65663407653E+01 -0.55612784727E+01  0.26291011422E+01  0.90530007242E+01  0.10000000000E+01 0. -1.
        -13    1    6    6    0    0 -0.11330073132E+02 -0.25520453218E+02  0.61285997444E+01  0.28587319732E+02  0.10500000000E+00 0. -1.
         13    1    6    6    0    0 -0.98485647094E+01 -0.22223397530E+02  0.52075900321E+01  0.24859679072E+02  0.10500000000E+00 0.  1.
</event>
<event>
11    0  0.3482988E-009  0.9118800E+02  0.7816531E-02  0.1126479E+00
         25   -1    0    0    0    0  0.00000000000E+00  0.00000000000E+00  0.99999998245E-14  0.12500000000E+03  0.12500000000E+03 0.  0.
    3000001    1    3    3    0    0 -0.16814572788E+01  0.96632486565E+01 -0.18948288270E+02  0.21359852564E+02  0.10000000000E+01 0. -1.
    1000022    2    1    0    0    0 -0.10490116726E+02  0.37919213074E+02 -0.47521994756E+02  0.62499993585E+02  0.99999971735E+01 0.  0.
    3000022    2    3    3    0    0 -0.88086594471E+01  0.28255964417E+02 -0.28573706486E+02  0.41140141021E+02  0.24998899764E+00 0.  0.
    1000022    2    1    0    0    0  0.10490116726E+02 -0.37919213074E+02  0.47521994756E+02  0.62500006415E+02  0.10000077358E+02 0.  0.
    3000022    2    5    5    0    0 -0.57218591348E+00 -0.95585811469E+01  0.16133293140E+02  0.18762716008E+02  0.24998838677E+00 0.  0.
        -13    1    4    4    0    0 -0.50711896133E+01  0.16066809132E+02 -0.16227328981E+02  0.23392232699E+02  0.10500000000E+00 0.  1.
         13    1    4    4    0    0 -0.37374698338E+01  0.12189155286E+02 -0.12346377505E+02  0.17747908323E+02  0.10500000000E+00 0. -1.
    3000001    1    5    5    0    0  0.11062302639E+02 -0.28360631927E+02  0.31388701617E+02  0.43737290407E+02  0.10000000000E+01 0.  1.
        -13    1    6    6    0    0 -0.28758224147E+00 -0.48481776448E+01  0.83152531644E+01  0.96302642855E+01  0.10500000000E+00 0. -1.
         13    1    6    6    0    0 -0.28460367202E+00 -0.47104035021E+01  0.78180399751E+01  0.91324517220E+01  0.10500000000E+00 0.  1.
</event>
<event>
11    0  0.3482988E-009  0.9118800E+02  0.7816531E-02  0.1126479E+00
         25   -1    0    0    0    0  0.00000000000E+00  0.00000000000E+00  0.99999998245E-14  0.12500000000E+03  0.12500000000E+03 0.  0.
    3000001    1    3    3    0    0  0.75017134904E+01 -0.39264326165E+02 -0.54146813445E+01  0.40351973788E+02  0.10000000000E+01 0. -1.
    1000022    2    1    0    0    0  0.91148417423E+01 -0.59124805670E+02 -0.15080687333E+02  0.62499998689E+02  0.99999860083E+01 0.  0.
    3000022    2    3    3    0    0  0.16131282519E+01 -0.19860479505E+02 -0.96660059886E+01  0.22148024901E+02  0.25001266569E+00 0.  0.
    1000022    2    1    0    0    0 -0.91148417423E+01  0.59124805670E+02  0.15080687333E+02  0.62500001311E+02  0.10000002398E+02 0.  0.
    3000022    2    5    5    0    0 -0.54588233063E+01  0.42289976665E+02  0.15122488812E+02  0.45243707219E+02  0.24999365853E+00 0.  0.
        -13    1    4    4    0    0  0.11618464103E+01 -0.13833093309E+02 -0.67637065636E+01  0.15442250777E+02  0.10500000000E+00 0. -1.
         13    1    4    4    0    0  0.45128184161E+00 -0.60273861960E+01 -0.29022994250E+01  0.67057741245E+01  0.10500000000E+00 0.  1.
    3000001    1    5    5    0    0 -0.36560184360E+01  0.16834829005E+02 -0.41801479025E-01  0.17256294093E+02  0.10000000000E+01 0.  1.
        -13    1    6    6    0    0 -0.19635340973E+01  0.15630328042E+02  0.55595838680E+01  0.16705766030E+02  0.10500000000E+00 0. -1.
         13    1    6    6    0    0 -0.34952892090E+01  0.26659648622E+02  0.95629049441E+01  0.28537941189E+02  0.10500000000E+00 0.  1.
</event>
<event>
11    0  0.3482988E-009  0.9118800E+02  0.7816531E-02  0.1126479E+00
         25   -1    0    0    0    0  0.00000000000E+00  0.00000000000E+00  0.99999998245E-14  0.12500000000E+03  0.12500000000E+03 0.  0.
    3000001    1    3    3    0    0 -0.34648263336E+02  0.24391035551E+02 -0.47739346959E+01  0.42652259259E+02  0.10000000000E+01 0. -1.
    1000022    2    1    0    0    0 -0.49844757383E+02  0.36354450900E+02 -0.32268864337E+00  0.62500000440E+02  0.99999994082E+01 0.  0.
    3000022    2    3    3    0    0 -0.15196494048E+02  0.11963415349E+02  0.44512460525E+01  0.19847741181E+02  0.25000079862E+00 0.  0.
    1000022    2    1    0    0    0  0.49844757383E+02 -0.36354450900E+02  0.32268864337E+00  0.62499999560E+02  0.99999939104E+01 0.  0.
    3000022    2    5    5    0    0  0.21443792916E+02 -0.98778736276E+01  0.13013662894E+01  0.23646663324E+02  0.24998022798E+00 0.  0.
        -13    1    4    4    0    0 -0.59197533099E+01  0.47008920183E+01  0.17945045557E+01  0.77700152264E+01  0.10500000000E+00 0. -1.
         13    1    4    4    0    0 -0.92767407379E+01  0.72625233310E+01  0.26567414968E+01  0.12077725955E+02  0.10500000000E+00 0.  1.
    3000001    1    5    5    0    0  0.28400964467E+02 -0.26476577273E+02 -0.97867764604E+00  0.38853336236E+02  0.10000000000E+01 0. -1.
        -13    1    6    6    0    0  0.12720682298E+02 -0.58937002323E+01  0.82844199234E+00  0.14044529244E+02  0.10500000000E+00 0.  1.
         13    1    6    6    0    0  0.87231106180E+01 -0.39841733952E+01  0.47292429707E+00  0.96021340798E+01  0.10500000000E+00 0. -1.
</event>
<event>
11    0  0.3482988E-009  0.9118800E+02  0.7816531E-02  0.1126479E+00
         25   -1    0    0    0    0  0.00000000000E+00  0.00000000000E+00  0.99999998245E-14  0.12500000000E+03  0.12500000000E+03 0.  0.
    3000001    1    3    3    0    0 -0.27779018446E+02  0.25116835844E+02  0.65789582399E+01  0.38036982006E+02  0.10000000000E+01 0. -1.
    1000022    2    1    0    0    0 -0.41093015464E+02  0.42695690586E+02  0.17166595523E+02  0.62499998879E+02  0.99999971708E+01 0.  0.
    3000022    2    3    3    0    0 -0.13313997018E+02  0.17578854742E+02  0.10587637283E+02  0.24463016873E+02  0.24996120591E+00 0.  0.
    1000022    2    1    0    0    0  0.41093015464E+02 -0.42695690586E+02 -0.17166595523E+02  0.62500001121E+02  0.10000011188E+02 0.  0.
    3000022    2    5    5    0    0  0.94528736076E+01 -0.51142473738E+01 -0.11186936056E+01  0.10808622666E+02  0.25000584064E+00 0.  0.
        -13    1    4    4    0    0 -0.33347323043E+01  0.44130013105E+01  0.26271350278E+01  0.61243680133E+01  0.10500000000E+00 0. -1.
         13    1    4    4    0    0 -0.99792647142E+01  0.13165853432E+02  0.79605022557E+01  0.18338648859E+02  0.10500000000E+00 0.  1.
    3000001    1    5    5    0    0  0.31640141857E+02 -0.37581443212E+02 -0.16047901918E+02  0.51691378455E+02  0.10000000000E+01 0. -1.
        -13    1    6    6    0    0  0.45757159063E+01 -0.25386077983E+01 -0.58379719568E+00  0.52662652586E+01  0.10500000000E+00 0.  1.
         13    1    6    6    0    0  0.48771577014E+01 -0.25756395755E+01 -0.53489640989E+00  0.55423574078E+01  0.10500000000E+00 0. -1.
</event>
<event>
11    0  0.3482988E-009  0.9118800E+02  0.7816531E-02  0.1126479E+00
         25   -1    0    0    0    0  0.00000000000E+00  0.00000000000E+00  0.99999998245E-14  0.12500000000E+03  0.12500000000E+03 0.  0.
    3000001    1    3    3    0    0 -0.11785272558E+02 -0.14023220848E+02  0.65818632359E+01  0.19490107642E+02  0.10000000000E+01 0. -1.
    1000022    2    1    0    0    0 -0.47783659066E+02 -0.35466878034E+02  0.16281042435E+02  0.62500000059E+02  0.10000007672E+02 0.  0.
    3000022    2    3    3    0    0 -0.35998386507E+02 -0.21443657186E+02  0.96991791993E+01  0.43009892417E+02  0.25000798842E+00 0.  0.
    1000022    2    1    0    0    0  0.47783659066E+02  0.35466878034E+02 -0.16281042435E+02  0.62499999941E+02  0.10000006933E+02 0.  0.
    3000022    2    5    5    0    0  0.21081271930E+02  0.96771127953E+01 -0.57674087138E+01  0.23903808888E+02  0.25007561298E+00 0.  0.
        -13    1    4    4    0    0 -0.16690930957E+02 -0.98671899641E+01  0.44696547541E+01  0.19898177118E+02  0.10500000000E+00 0. -1.
         13    1    4    4    0    0 -0.19307455550E+02 -0.11576467222E+02  0.52295244451E+01  0.23111715299E+02  0.10500000000E+00 0.  1.
    3000001    1    5    5    0    0  0.26702387135E+02  0.25789765239E+02 -0.10513633721E+02  0.38596191053E+02  0.10000000000E+01 0.  1.
        -13    1    6    6    0    0  0.78118696662E+01  0.36472591191E+01 -0.21211635137E+01  0.88790858998E+01  0.10500000000E+00 0.  1.
         13    1    6    6    0    0  0.13269402264E+02  0.60298536762E+01 -0.36462452001E+01  0.15024722988E+02  0.10500000000E+00 0. -1.
</event>
<event>
11    0  0.3482988E-009  0.9118800E+02  0.7816531E-02  0.1126479E+00
         25   -1    0    0    0    0  0.00000000000E+00  0.00000000000E+00  0.99999998245E-14  0.12500000000E+03  0.12500000000E+03 0.  0.
    3000001    1    3    3    0    0 -0.28604107378E+02 -0.41395714915E+02 -0.48707128692E+01  0.50562080813E+02  0.10000000000E+01 0. -1.
    1000022    2    1    0    0    0 -0.37261179025E+02 -0.49127230547E+02 -0.20903909287E+01  0.62499999427E+02  0.99999975301E+01 0.  0.
    3000022    2    3    3    0    0 -0.86570716466E+01 -0.77315156319E+01  0.27803219405E+01  0.11937918614E+02  0.24997458399E+00 0.  0.
    1000022    2    1    0    0    0  0.37261179025E+02  0.49127230547E+02  0.20903909287E+01  0.62500000573E+02  0.10000004693E+02 0.  0.
    3000022    2    5    5    0    0  0.12356532441E+02  0.92432176926E+01  0.44973727150E+00  0.15439745078E+02  0.24999436251E+00 0.  0.
        -13    1    4    4    0    0 -0.42149343789E+01 -0.38525762154E+01  0.13842856359E+01  0.58766731265E+01  0.10500000000E+00 0.  1.
         13    1    4    4    0    0 -0.44421372676E+01 -0.38789394164E+01  0.13960363046E+01  0.60612454879E+01  0.10500000000E+00 0. -1.
    3000001    1    5    5    0    0  0.24904646584E+02  0.39884012854E+02  0.16406536572E+01  0.47060255495E+02  0.10000000000E+01 0. -1.
        -13    1    6    6    0    0  0.46998980475E+01  0.34401694903E+01  0.16999657448E+00  0.58278410766E+01  0.10500000000E+00 0. -1.
         13    1    6    6    0    0  0.76566343935E+01  0.58030482023E+01  0.27974069702E+00  0.96119040014E+01  0.10500000000E+00 0.  1.
</event>
<event>
11    0  0.3482988E-009  0.9118800E+02  0.7816531E-02  0.1126479E+00
         25   -1    0    0    0    0  0.00000000000E+00  0.00000000000E+00  0.99999998245E-14  0.12500000000E+03  0.12500000000E+03 0.  0.
    3000001    1    3    3    0    0 -0.13758995195E+02 -0.88469617326E+01 -0.85632926050E+01  0.18490772318E+02  0.10000000000E+01 0.  1.
    1000022    2    1    0    0    0 -0.37763499728E+02 -0.26621380093E+02 -0.40883617543E+02  0.62499999683E+02  0.99999993570E+01 0.  0.
    3000022    2    3    3    0    0 -0.24004504534E+02 -0.17774418360E+02 -0.32320324938E+02  0.44009227365E+02  0.25000640490E+00 0.  0.
    1000022    2    1    0    0    0  0.37763499728E+02  0.26621380093E+02  0.40883617543E+02  0.62500000317E+02  0.10000003321E+02 0.  0.
    3000022    2    5    5    0    0  0.17449320601E+02  0.16503586237E+02  0.16298800116E+02  0.29026893588E+02  0.25003611091E+00 0.  0.
        -13    1    4    4    0    0 -0.87770513573E+01 -0.65274148982E+01 -0.11756015037E+02  0.16057979024E+02  0.10500000000E+00 0.  1.
         13    1    4    4    0    0 -0.15227453176E+02 -0.11247003462E+02 -0.20564309901E+02  0.27951248341E+02  0.10500000000E+00 0. -1.
    3000001    1    5    5    0    0  0.20314179128E+02  0.10117793856E+02  0.24584817427E+02  0.33473106729E+02  0.10000000000E+01 0.  1.
        -13    1    6    6    0    0  0.91680518762E+01  0.86304553309E+01  0.84710903677E+01  0.15175912870E+02  0.10500000000E+00 0.  1.
         13    1    6    6    0    0  0.82812687247E+01  0.78731309060E+01  0.78277097484E+01  0.13850980718E+02  0.10500000000E+00 0. -1.
</event>
<event>
11    0  0.3482988E-009  0.9118800E+02  0.7816531E-02  0.1126479E+00
         25   -1    0    0    0    0  0.00000000000E+00  0.00000000000E+00  0.99999998245E-14  0.12500000000E+03  0.12500000000E+03 0.  0.
    3000001    1    3    3    0    0 -0.11992145443E+01  0.53709511361E+02  0.28032302331E+02  0.60604947819E+02  0.10000000000E+01 0.  1.
    1000022    2    1    0    0    0 -0.26020711579E+01  0.54953792768E+02  0.27920597961E+02  0.62499999219E+02  0.99999999033E+01 0.  0.
    3000022    2    3    3    0    0 -0.14028566136E+01  0.12442814072E+01 -0.11170437024E+00  0.18950514009E+01  0.24999809399E+00 0.  0.
    1000022    2    1    0    0    0  0.26020711579E+01 -0.54953792768E+02 -0.27920597961E+02  0.62500000781E+02  0.10000009660E+02 0.  0.
    3000022    2    5    5    0    0  0.43870161345E+01 -0.13318017875E+02 -0.94121965503E+01  0.16889862628E+02  0.25001003008E+00 0.  0.
        -13    1    4    4    0    0 -0.68303854732E+00  0.51784013939E+00 -0.38878042788E-01  0.86442846396E+00  0.10500000000E+00 0.  1.
         13    1    4    4    0    0 -0.71981806625E+00  0.72644126786E+00 -0.72826327455E-01  0.10306229369E+01  0.10500000000E+00 0. -1.
    3000001    1    5    5    0    0 -0.17849449766E+01 -0.41635774893E+02 -0.18508401410E+02  0.45610138152E+02  0.10000000000E+01 0.  1.
        -13    1    6    6    0    0  0.32575669599E+01 -0.99696039739E+01 -0.70259333455E+01  0.12624559805E+02  0.10500000000E+00 0.  1.
         13    1    6    6    0    0  0.11294491746E+01 -0.33484139009E+01 -0.23862632048E+01  0.42653028231E+01  0.10500000000E+00 0. -1.
</event>
<event>
11    0  0.3482988E-009  0.9118800E+02  0.7816531E-02  0.1126479E+00
         25   -1    0    0    0    0  0.00000000000E+00  0.00000000000E+00  0.99999998245E-14  0.12500000000E+03  0.12500000000E+03 0.  0.
    3000001    1    3    3    0    0  0.66978146816E+01  0.12535906119E+01 -0.28757592271E+01  0.74633907886E+01  0.10000000000E+01 0.  1.
    1000022    2    1    0    0    0  0.61509311635E+02  0.47338434307E+01  0.66733286216E+00  0.62500000038E+02  0.99999990116E+01 0.  0.
    3000022    2    3    3    0    0  0.54811496953E+02  0.34802528187E+01  0.35430920893E+01  0.55036609249E+02  0.24999644452E+00 0.  0.
    1000022    2    1    0    0    0 -0.61509311635E+02 -0.47338434307E+01 -0.66733286216E+00  0.62499999962E+02  0.99999985356E+01 0.  0.
    3000022    2    5    5    0    0 -0.19919667592E+02  0.25223116245E+01  0.20396017150E+01  0.20183599210E+02  0.24997803517E+00 0.  0.
        -13    1    4    4    0    0  0.39042814809E+02  0.24875421837E+01  0.24823649482E+01  0.39200796102E+02  0.10500000000E+00 0. -1.
         13    1    4    4    0    0  0.15768682144E+02  0.99271063505E+00  0.10607271410E+01  0.15835813148E+02  0.10500000000E+00 0.  1.
    3000001    1    5    5    0    0 -0.41589644043E+02 -0.72561550552E+01 -0.27069345771E+01  0.42316400752E+02  0.10000000000E+01 0.  1.
        -13    1    6    6    0    0 -0.14040962785E+02  0.17881107818E+01  0.14812149808E+01  0.14232041278E+02  0.10500000000E+00 0.  1.
         13    1    6    6    0    0 -0.58787048064E+01  0.73420084278E+00  0.55838673420E+00  0.59515579324E+01  0.10500000000E+00 0. -1.
</event>
<event>
11    0  0.3482988E-009  0.9118800E+02  0.7816531E-02  0.1126479E+00
         25   -1    0    0    0    0  0.00000000000E+00  0.00000000000E+00  0.99999998245E-14  0.12500000000E+03  0.12500000000E+03 0.  0.
    3000001    1    3    3    0    0  0.14751564694E+01  0.46393638575E+02  0.88009764846E+01  0.47254660869E+02  0.10000000000E+01 0.  1.
    1000022    2    1    0    0    0  0.29631744572E+00  0.61376311129E+02  0.62538664508E+01  0.62500001603E+02  0.99999991479E+01 0.  0.
    3000022    2    3    3    0    0 -0.11788390237E+01  0.14982672555E+02 -0.25471100338E+01  0.15245340734E+02  0.25001248500E+00 0.  0.
    1000022    2    1    0    0    0 -0.29631744572E+00 -0.61376311129E+02 -0.62538664508E+01  0.62499998397E+02  0.99999791086E+01 0.  0.
    3000022    2    5    5    0    0 -0.24077147284E+01 -0.41140547282E+02 -0.82598432096E+01  0.42031288625E+02  0.24998552844E+00 0.  0.
        -13    1    4    4    0    0 -0.84988951841E+00  0.11141481943E+02 -0.18796920505E+01  0.11331337047E+02  0.10500000000E+00 0. -1.
         13    1    4    4    0    0 -0.32894950527E+00  0.38411906120E+01 -0.66741798332E+00  0.39140036867E+01  0.10500000000E+00 0.  1.
    3000001    1    5    5    0    0  0.21113972827E+01 -0.20235763847E+02  0.20059767589E+01  0.20468709772E+02  0.10000000000E+01 0.  1.
        -13    1    6    6    0    0 -0.76080455354E+00 -0.12898991375E+02 -0.25400042416E+01  0.13169109636E+02  0.10500000000E+00 0.  1.
         13    1    6    6    0    0 -0.16469101749E+01 -0.28241555907E+02 -0.57198389681E+01  0.28862178989E+02  0.10500000000E+00 0. -1.
</event>
<event>
11    0  0.3482988E-009  0.9118800E+02  0.7816531E-02  0.1126479E+00
         25   -1    0    0    0    0  0.00000000000E+00  0.00000000000E+00  0.99999998245E-14  0.12500000000E+03  0.12500000000E+03 0.  0.
    3000001    1    3    3    0    0 -0.82687751574E+01 -0.13074889021E+02 -0.14662533894E+02  0.21338117670E+02  0.10000000000E+01 0.  1.
    1000022    2    1    0    0    0 -0.17377854425E+02 -0.29770114816E+02 -0.51166400355E+02  0.62500001237E+02  0.10000003440E+02 0.  0.
    3000022    2    3    3    0    0 -0.91090792674E+01 -0.16695225795E+02 -0.36503866461E+02  0.41161883567E+02  0.25000548341E+00 0.  0.
    1000022    2    1    0    0    0  0.17377854425E+02  0.29770114816E+02  0.51166400355E+02  0.62499998763E+02  0.99999879755E+01 0.  0.
    3000022    2    5    5    0    0  0.16659101115E+02  0.24995195689E+02  0.48048716270E+02  0.56665925311E+02  0.24999735959E+00 0.  0.
        -13    1    4    4    0    0 -0.43674844470E+01 -0.79492445825E+01 -0.17274453025E+02  0.19511103561E+02  0.10500000000E+00 0. -1.
         13    1    4    4    0    0 -0.47415948203E+01 -0.87459812127E+01 -0.19229413435E+02  0.21650780006E+02  0.10500000000E+00 0.  1.
    3000001    1    5    5    0    0  0.71875330940E+00  0.47749191265E+01  0.31176840853E+01  0.58340734517E+01  0.10000000000E+01 0.  1.
        -13    1    6    6    0    0  0.84301749437E+01  0.12599603003E+02  0.24366594354E+02  0.28697731458E+02  0.10500000000E+00 0. -1.
         13    1    6    6    0    0  0.82289261716E+01  0.12395592686E+02  0.23682121915E+02  0.27968193853E+02  0.10500000000E+00 0.  1.
</event>
<event>
11    0  0.3482988E-009  0.9118800E+02  0.7816531E-02  0.1126479E+00
         25   -1    0    0    0    0  0.00000000000E+00  0.00000000000E+00  0.99999998245E-14  0.12500000000E+03  0.12500000000E+03 0.  0.
    3000001    1    3    3    0    0 -0.41822329667E+02  0.20151380880E+01 -0.12461296432E+02  0.43697276220E+02  0.10000000000E+01 0.  1.
    1000022    2    1    0    0    0 -0.60259341301E+02 -0.16049229122E+01 -0.13133393028E+02  0.62500000902E+02  0.10000005432E+02 0.  0.
    3000022    2    3    3    0    0 -0.18437011635E+02 -0.36200610002E+01 -0.67209659622E+00  0.18802724682E+02  0.25000393145E+00 0.  0.
    1000022    2    1    0    0    0  0.60259341301E+02  0.16049229122E+01  0.13133393028E+02  0.62499999098E+02  0.99999941622E+01 0.  0.
    3000022    2    5    5    0    0  0.59695955875E+02  0.21597304078E+01  0.12334998623E+02  0.60995788966E+02  0.24999460007E+00 0.  0.
        -13    1    4    4    0    0 -0.10120620826E+02 -0.19489514338E+01 -0.31342354240E+00  0.10311868740E+02  0.10500000000E+00 0.  1.
         13    1    4    4    0    0 -0.83163908089E+01 -0.16711095664E+01 -0.35867305382E+00  0.84908559421E+01  0.10500000000E+00 0. -1.
    3000001    1    5    5    0    0  0.56338542610E+00 -0.55480749553E+00  0.79839440507E+00  0.15042101321E+01  0.10000000000E+01 0. -1.
        -13    1    6    6    0    0  0.31007228242E+02  0.11323081053E+01  0.63388750345E+01  0.31668954618E+02  0.10500000000E+00 0. -1.
         13    1    6    6    0    0  0.28688727633E+02  0.10274223025E+01  0.59961235885E+01  0.29326834348E+02  0.10500000000E+00 0.  1.
</event>
<event>
11    0  0.3482988E-009  0.9118800E+02  0.7816531E-02  0.1126479E+00
         25   -1    0    0    0    0  0.00000000000E+00  0.00000000000E+00  0.99999998245E-14  0.12500000000E+03  0.12500000000E+03 0.  0.
    3000001    1    3    3    0    0  0.48689376759E+01  0.41471979613E+02 -0.92531408182E+01  0.42781447639E+02  0.10000000000E+01 0.  1.
    1000022    2    1    0    0    0  0.30556984812E+01  0.61075369531E+02 -0.81677246652E+01  0.62500001358E+02  0.10000019348E+02 0.  0.
    3000022    2    3    3    0    0 -0.18132391947E+01  0.19603389918E+02  0.10854161530E+01  0.19718553719E+02  0.24999973788E+00 0.  0.
    1000022    2    1    0    0    0 -0.30556984812E+01 -0.61075369531E+02  0.81677246652E+01  0.62499998642E+02  0.10000002377E+02 0.  0.
    3000022    2    5    5    0    0 -0.11189908909E+01 -0.56783981372E+02  0.93088925386E+01  0.57553372243E+02  0.24999033022E+00 0.  0.
        -13    1    4    4    0    0 -0.55835793925E+00  0.57171589068E+01  0.34880796942E+00  0.57558979797E+01  0.10500000000E+00 0. -1.
         13    1    4    4    0    0 -0.12548812555E+01  0.13886231011E+02  0.73660818358E+00  0.13962655739E+02  0.10500000000E+00 0.  1.
    3000001    1    5    5    0    0 -0.19367075902E+01 -0.42913881592E+01 -0.11411678734E+01  0.49466263997E+01  0.10000000000E+01 0.  1.
        -13    1    6    6    0    0 -0.52243164026E+00 -0.24429504249E+02  0.40567950120E+01  0.24769784485E+02  0.10500000000E+00 0. -1.
         13    1    6    6    0    0 -0.59655925068E+00 -0.32354477123E+02  0.52520975266E+01  0.32783587757E+02  0.10500000000E+00 0.  1.
</event>
<event>
11    0  0.3482988E-009  0.9118800E+02  0.7816531E-02  0.1126479E+00
         25   -1    0    0    0    0  0.00000000000E+00  0.00000000000E+00  0.99999998245E-14  0.12500000000E+03  0.12500000000E+03 0.  0.
    3000001    1    3    3    0    0 -0.16255858120E+02 -0.39734395070E+02 -0.42982773064E+02  0.60758487926E+02  0.10000000000E+01 0. -1.
    1000022    2    1    0    0    0 -0.17545456744E+02 -0.40857372872E+02 -0.42767766750E+02  0.62500002158E+02  0.10000021326E+02 0.  0.
    3000022    2    3    3    0    0 -0.12895986243E+01 -0.11229778025E+01  0.21500631388E+00  0.17415142317E+01  0.25000069465E+00 0.  0.
    1000022    2    1    0    0    0  0.17545456744E+02  0.40857372872E+02  0.42767766750E+02  0.62499997842E+02  0.99999943569E+01 0.  0.
    3000022    2    5    5    0    0  0.10894623079E+02  0.27470187175E+02  0.34358214660E+02  0.45319459559E+02  0.25000937435E+00 0.  0.
        -13    1    4    4    0    0 -0.34313080470E+00 -0.30079318126E+00  0.94351222459E-01  0.47764258626E+00  0.10500000000E+00 0. -1.
         13    1    4    4    0    0 -0.94646781961E+00 -0.82218462128E+00  0.12065509142E+00  0.12638716454E+01  0.10500000000E+00 0.  1.
    3000001    1    5    5    0    0  0.66508336657E+01  0.13387185698E+02  0.84095520906E+01  0.17180538284E+02  0.10000000000E+01 0. -1.
        -13    1    6    6    0    0  0.30213516598E+01  0.75954043094E+01  0.94467187440E+01  0.12492808031E+02  0.10500000000E+00 0.  1.
         13    1    6    6    0    0  0.78732714188E+01  0.19874782865E+02  0.24911495915E+02  0.32826651528E+02  0.10500000000E+00 0. -1.
</event>
<event>
11    0  0.3482988E-009  0.9118800E+02  0.7816531E-02  0.1126479E+00
         25   -1    0    0    0    0  0.00000000000E+00  0.00000000000E+00  0.99999998245E-14  0.12500000000E+03  0.12500000000E+03 0.  0.
    3000001    1    3    3    0    0 -0.50191237212E+02  0.23189804548E+02 -0.11859034429E+01  0.55311243837E+02  0.10000000000E+01 0. -1.
    1000022    2    1    0    0    0 -0.55064721942E+02  0.27787503596E+02  0.14075575958E+01  0.62500001314E+02  0.99999993573E+01 0.  0.
    3000022    2    3    3    0    0 -0.48734847301E+01  0.45976990478E+01  0.25934610387E+01  0.71887574763E+01  0.25000788757E+00 0.  0.
    1000022    2    1    0    0    0  0.55064721942E+02 -0.27787503596E+02 -0.14075575958E+01  0.62499998686E+02  0.99999829382E+01 0.  0.
    3000022    2    5    5    0    0  0.66943225637E+01 -0.21955899368E+01 -0.31916897811E+01  0.77384728822E+01  0.25001826187E+00 0.  0.
        -13    1    4    4    0    0 -0.13593667025E+01  0.13350304235E+01  0.72173707750E+00  0.20401258473E+01  0.10500000000E+00 0. -1.
         13    1    4    4    0    0 -0.35141180276E+01  0.32626686243E+01  0.18717239612E+01  0.51486316290E+01  0.10500000000E+00 0.  1.
    3000001    1    5    5    0    0  0.48370399378E+02 -0.25591913659E+02  0.17841321853E+01  0.54761525804E+02  0.10000000000E+01 0. -1.
        -13    1    6    6    0    0  0.45539221365E+01 -0.15303037038E+01 -0.21357774580E+01  0.52585745788E+01  0.10500000000E+00 0. -1.
         13    1    6    6    0    0  0.21404004273E+01 -0.66528623308E+00 -0.10559123231E+01  0.24798983034E+01  0.10500000000E+00 0.  1.
</event>
<event>
11    0  0.3482988E-009  0.9118800E+02  0.7816531E-02  0.1126479E+00
         25   -1    0    0    0    0  0.00000000000E+00  0.00000000000E+00  0.99999998245E-14  0.12500000000E+03  0.12500000000E+03 0.  0.
    3000001    1    3    3    0    0  0.23589071100E+02  0.45034478247E+02  0.21622333094E+02  0.55254626908E+02  0.10000000000E+01 0. -1.
    1000022    2    1    0    0    0  0.29282763700E+02  0.49420921431E+02  0.22502051065E+02  0.62499999481E+02  0.99999953971E+01 0.  0.
    3000022    2    3    3    0    0  0.56936926001E+01  0.43864431839E+01  0.87971797135E+00  0.72453725725E+01  0.25000154830E+00 0.  0.
    1000022    2    1    0    0    0 -0.29282763700E+02 -0.49420921431E+02 -0.22502051065E+02  0.62500000519E+02  0.10000001887E+02 0.  0.
    3000022    2    5    5    0    0 -0.15744909068E+02 -0.20798942147E+02 -0.14418569627E+02  0.29806975600E+02  0.24997670263E+00 0.  0.
        -13    1    4    4    0    0  0.38999621474E+01  0.29411440744E+01  0.58955672892E+00  0.49212432732E+01  0.10500000000E+00 0. -1.
         13    1    4    4    0    0  0.17937304527E+01  0.14452991095E+01  0.29016124243E+00  0.23241292992E+01  0.10500000000E+00 0.  1.
    3000001    1    5    5    0    0 -0.13537854632E+02 -0.28621979285E+02 -0.80834814386E+01  0.32693024919E+02  0.10000000000E+01 0. -1.
        -13    1    6    6    0    0 -0.11028276642E+02 -0.14532768247E+02 -0.10036871230E+02  0.20822440964E+02  0.10500000000E+00 0. -1.
         13    1    6    6    0    0 -0.47166324262E+01 -0.62661738993E+01 -0.43816983971E+01  0.89845346359E+01  0.10500000000E+00 0.  1.
</event>
<event>
11    0  0.3482988E-009  0.9118800E+02  0.7816531E-02  0.1126479E+00
         25   -1    0    0    0    0  0.00000000000E+00  0.00000000000E+00  0.99999998245E-14  0.12500000000E+03  0.12500000000E+03 0.  0.
    3000001    1    3    3    0    0 -0.12094431713E+01 -0.10755079643E+02 -0.25606171871E+01  0.11166523689E+02  0.10000000000E+01 0.  1.
    1000022    2    1    0    0    0 -0.76160975635E+01 -0.51436599647E+02 -0.33204241474E+02  0.62499997129E+02  0.99999631976E+01 0.  0.
    3000022    2    3    3    0    0 -0.64066543922E+01 -0.40681520004E+02 -0.30643624287E+02  0.51333473440E+02  0.24999139594E+00 0.  0.
    1000022    2    1    0    0    0  0.76160975635E+01  0.51436599647E+02  0.33204241474E+02  0.62500002871E+02  0.99999990878E+01 0.  0.
    3000022    2    5    5    0    0  0.38289238256E+01  0.94537127481E+01  0.10375488214E+02  0.14551515381E+02  0.25000360305E+00 0.  0.
        -13    1    4    4    0    0 -0.15619332423E+01 -0.10075163715E+02 -0.75810829345E+01  0.12705605172E+02  0.10500000000E+00 0.  1.
         13    1    4    4    0    0 -0.48447211499E+01 -0.30606356289E+02 -0.23062541352E+02  0.38627868268E+02  0.10500000000E+00 0. -1.
    3000001    1    5    5    0    0  0.37871737379E+01  0.41982886899E+02  0.22828753259E+02  0.47948487491E+02  0.10000000000E+01 0. -1.
        -13    1    6    6    0    0  0.24871740829E+01  0.61209782771E+01  0.66395229299E+01  0.93673208403E+01  0.10500000000E+00 0.  1.
         13    1    6    6    0    0  0.13417497427E+01  0.33327344709E+01  0.37359652845E+01  0.51841945404E+01  0.10500000000E+00 0. -1.
</event>
<event>
11    0  0.3482988E-009  0.9118800E+02  0.7816531E-02  0.1126479E+00
         25   -1    0    0    0    0  0.00000000000E+00  0.00000000000E+00  0.99999998245E-14  0.12500000000E+03  0.12500000000E+03 0.  0.
    3000001    1    3    3    0    0 -0.35569286282E+01  0.29031611156E+01  0.19079063863E+01  0.50715079127E+01  0.10000000000E+01 0.  1.
    1000022    2    1    0    0    0 -0.21372056856E+02  0.35650037812E+02  0.45591224207E+02  0.62499998102E+02  0.10000001393E+02 0.  0.
    3000022    2    3    3    0    0 -0.17815128227E+02  0.32746876697E+02  0.43683317821E+02  0.57428490190E+02  0.25000501659E+00 0.  0.
    1000022    2    1    0    0    0  0.21372056856E+02 -0.35650037812E+02 -0.45591224207E+02  0.62500001898E+02  0.10000025112E+02 0.  0.
    3000022    2    5    5    0    0  0.12720334788E+02 -0.15953704427E+02 -0.28256124043E+02  0.34853961652E+02  0.24998965315E+00 0.  0.
        -13    1    4    4    0    0 -0.12241068318E+02  0.22521944539E+02  0.29962926931E+02  0.39431836816E+02  0.10500000000E+00 0. -1.
         13    1    4    4    0    0 -0.55740599094E+01  0.10224932158E+02  0.13720390889E+02  0.17996653374E+02  0.10500000000E+00 0.  1.
    3000001    1    5    5    0    0  0.86517220674E+01 -0.19696333386E+02 -0.17335100163E+02  0.27646040245E+02  0.10000000000E+01 0.  1.
        -13    1    6    6    0    0  0.64362569431E+01 -0.81522733615E+01 -0.14305256170E+02  0.17678697449E+02  0.10500000000E+00 0. -1.
         13    1    6    6    0    0  0.62840778452E+01 -0.78014310652E+01 -0.13950867873E+02  0.17175264203E+02  0.10500000000E+00 0.  1.
</event>
<event>
11    0  0.3482988E-009  0.9118800E+02  0.7816531E-02  0.1126479E+00
         25   -1    0    0    0    0  0.00000000000E+00  0.00000000000E+00  0.99999998245E-14  0.12500000000E+03  0.12500000000E+03 0.  0.
    3000001    1    3    3    0    0  0.10360220246E+02  0.95736217281E+01 -0.46164131097E+01  0.14876144209E+02  0.10000000000E+01 0.  1.
    1000022    2    1    0    0    0  0.44435576100E+02  0.42747296767E+02 -0.20971687784E+01  0.62500000420E+02  0.10000006571E+02 0.  0.
    3000022    2    3    3    0    0  0.34075355854E+02  0.33173675039E+02  0.25192443314E+01  0.47623856211E+02  0.24999246460E+00 0.  0.
    1000022    2    1    0    0    0 -0.44435576100E+02 -0.42747296767E+02  0.20971687784E+01  0.62499999580E+02  0.10000001323E+02 0.  0.
    3000022    2    5    5    0    0 -0.26885320409E+02 -0.20351226839E+02  0.40476197515E+01  0.33962310781E+02  0.24988111768E+00 0.  0.
        -13    1    4    4    0    0  0.21847439169E+02  0.21347630463E+02  0.16317414876E+01  0.30589304175E+02  0.10500000000E+00 0. -1.
         13    1    4    4    0    0  0.12227916684E+02  0.11826044576E+02  0.88750284377E+00  0.17034552036E+02  0.10500000000E+00 0.  1.
    3000001    1    5    5    0    0 -0.17550255691E+02 -0.22396069927E+02 -0.19504509732E+01  0.28537688799E+02  0.10000000000E+01 0. -1.
        -13    1    6    6    0    0 -0.11082474239E+02 -0.84015288473E+01  0.16056483667E+01  0.13999859068E+02  0.10500000000E+00 0. -1.
         13    1    6    6    0    0 -0.15802846169E+02 -0.11949697992E+02  0.24419713848E+01  0.19962451713E+02  0.10500000000E+00 0.  1.
</event>
<event>
11    0  0.3482988E-009  0.9118800E+02  0.7816531E-02  0.1126479E+00
         25   -1    0    0    0    0  0.00000000000E+00  0.00000000000E+00  0.99999998245E-14  0.12500000000E+03  0.12500000000E+03 0.  0.
    3000001    1    3    3    0    0 -0.32419954960E+02  0.21395553820E+02 -0.32534546660E+02  0.50678594389E+02  0.10000000000E+01 0. -1.
    1000022    2    1    0    0    0 -0.41929256530E+02  0.22049366509E+02 -0.39522308811E+02  0.62499999931E+02  0.99999990500E+01 0.  0.
    3000022    2    3    3    0    0 -0.95093015705E+01  0.65381268823E+00 -0.69877621510E+01  0.11821405542E+02  0.25004343039E+00 0.  0.
    1000022    2    1    0    0    0  0.41929256530E+02 -0.22049366509E+02  0.39522308811E+02  0.62500000069E+02  0.99999999124E+01 0.  0.
    3000022    2    5    5    0    0  0.37817888318E+02 -0.18907092000E+02  0.38389048404E+02  0.57109126595E+02  0.24999665683E+00 0.  0.
        -13    1    4    4    0    0 -0.25276621894E+01  0.17120307945E+00 -0.19008442073E+01  0.31690093623E+01  0.10500000000E+00 0.  1.
         13    1    4    4    0    0 -0.69816393811E+01  0.48260960878E+00 -0.50869179437E+01  0.86523961796E+01  0.10500000000E+00 0. -1.
    3000001    1    5    5    0    0  0.41113682124E+01 -0.31422745083E+01  0.11332604070E+01  0.53908734741E+01  0.10000000000E+01 0.  1.
        -13    1    6    6    0    0  0.28969384424E+02 -0.14489687245E+02  0.29393077245E+02  0.43739459134E+02  0.10500000000E+00 0.  1.
         13    1    6    6    0    0  0.88485038935E+01 -0.44174047550E+01  0.89959711592E+01  0.13369667461E+02  0.10500000000E+00 0. -1.
</event>
<event>
11    0  0.3482988E-009  0.9118800E+02  0.7816531E-02  0.1126479E+00
         25   -1    0    0    0    0  0.00000000000E+00  0.00000000000E+00  0.99999998245E-14  0.12500000000E+03  0.12500000000E+03 0.  0.
    3000001    1    3    3    0    0 -0.55800764343E+00 -0.15500405723E+02  0.77627836064E+01  0.17373392283E+02  0.10000000000E+01 0.  1.
    1000022    2    1    0    0    0  0.10022328374E+02 -0.58170788773E+02  0.17943309352E+02  0.62499999788E+02  0.99999945264E+01 0.  0.
    3000022    2    3    3    0    0  0.10580336018E+02 -0.42670383049E+02  0.10180525746E+02  0.45126607505E+02  0.25000116805E+00 0.  0.
    1000022    2    1    0    0    0 -0.10022328374E+02  0.58170788773E+02 -0.17943309352E+02  0.62500000212E+02  0.99999971753E+01 0.  0.
    3000022    2    5    5    0    0 -0.10781170480E+02  0.51392674733E+02 -0.18268562066E+02  0.55598952422E+02  0.24999464062E+00 0.  0.
        -13    1    4    4    0    0  0.71346623663E+01 -0.28969187769E+02  0.68883530845E+01  0.30619890272E+02  0.10500000000E+00 0.  1.
         13    1    4    4    0    0  0.34456736515E+01 -0.13701195281E+02  0.32921726613E+01  0.14506717233E+02  0.10500000000E+00 0. -1.
    3000001    1    5    5    0    0  0.75884210553E+00  0.67781140395E+01  0.32525271331E+00  0.69010477901E+01  0.10000000000E+01 0.  1.
        -13    1    6    6    0    0 -0.27610370255E+01  0.13030026018E+02 -0.46431552395E+01  0.14105843437E+02  0.10500000000E+00 0.  1.
         13    1    6    6    0    0 -0.80201334545E+01  0.38362648715E+02 -0.13625406826E+02  0.41493108985E+02  0.10500000000E+00 0. -1.
</event>
<event>
11    0  0.3482988E-009  0.9118800E+02  0.7816531E-02  0.1126479E+00
         25   -1    0    0    0    0  0.00000000000E+00  0.00000000000E+00  0.99999998245E-14  0.12500000000E+03  0.12500000000E+03 0.  0.
    3000001    1    3    3    0    0 -0.55024207842E+01 -0.48941931151E+02 -0.27218199854E+02  0.56279833533E+02  0.10000000000E+01 0. -1.
    1000022    2    1    0    0    0 -0.70936687401E+01 -0.54949390448E+02 -0.27138431920E+02  0.62500001620E+02  0.10000003436E+02 0.  0.
    3000022    2    3    3    0    0 -0.15912479559E+01 -0.60074592969E+01  0.79767934547E-01  0.62201680869E+01  0.24998168944E+00 0.  0.
    1000022    2    1    0    0    0  0.70936687401E+01  0.54949390448E+02  0.27138431920E+02  0.62499998380E+02  0.99999831828E+01 0.  0.
    3000022    2    5    5    0    0  0.97095902299E+00  0.80677378184E+01  0.32347309270E+00  0.81362333849E+01  0.25000784267E+00 0.  0.
        -13    1    4    4    0    0 -0.59695456323E+00 -0.20994035255E+01  0.68711495849E-01  0.21862287582E+01  0.10500000000E+00 0.  1.
         13    1    4    4    0    0 -0.99429339270E+00 -0.39080557714E+01  0.11056438699E-01  0.40339393287E+01  0.10500000000E+00 0. -1.
    3000001    1    5    5    0    0  0.61227097171E+01  0.46881652629E+02  0.26814958827E+02  0.54363764995E+02  0.10000000000E+01 0. -1.
        -13    1    6    6    0    0  0.44736169502E+00  0.41569083022E+01  0.20918806824E+00  0.41874579123E+01  0.10500000000E+00 0.  1.
         13    1    6    6    0    0  0.52359732797E+00  0.39108295162E+01  0.11428502445E+00  0.39487754726E+01  0.10500000000E+00 0. -1.
</event>
<event>
11    0  0.3482988E-009  0.9118800E+02  0.7816531E-02  0.1126479E+00
         25   -1    0    0    0    0  0.00000000000E+00  0.00000000000E+00  0.99999998245E-14  0.12500000000E+03  0.12500000000E+03 0.  0.
    3000001    1    3    3    0    0  0.19797545515E+02  0.49450577035E+00  0.14991535472E+02  0.24858267844E+02  0.10000000000E+01 0.  1.
    1000022    2    1    0    0    0  0.42501098245E+02 -0.58568392168E+01  0.44335131265E+02  0.62500000048E+02  0.10000011203E+02 0.  0.
    3000022    2    3    3    0    0  0.22703552730E+02 -0.63513449872E+01  0.29343595793E+02  0.37641732205E+02  0.24999914413E+00 0.  0.
    1000022    2    1    0    0    0 -0.42501098245E+02  0.58568392168E+01 -0.44335131265E+02  0.62499999952E+02  0.10000010599E+02 0.  0.
    3000022    2    5    5    0    0 -0.54890575395E+01  0.43108675446E+01 -0.65280791751E+01  0.95598982010E+01  0.25000847425E+00 0.  0.
        -13    1    4    4    0    0  0.10617149109E+02 -0.30401068783E+01  0.13745251345E+02  0.17632613663E+02  0.10500000000E+00 0.  1.
         13    1    4    4    0    0  0.12086403621E+02 -0.33112381088E+01  0.15598344448E+02  0.20009118542E+02  0.10500000000E+00 0. -1.
    3000001    1    5    5    0    0 -0.37012040706E+02  0.15459716722E+01 -0.37807052090E+02  0.52940101751E+02  0.10000000000E+01 0. -1.
        -13    1    6    6    0    0 -0.17571575079E+01  0.13354646144E+01 -0.20168916394E+01  0.29916458896E+01  0.10500000000E+00 0.  1.
         13    1    6    6    0    0 -0.37319000316E+01  0.29754029302E+01 -0.45111875357E+01  0.65682523113E+01  0.10500000000E+00 0. -1.
</event>
<event>
11    0  0.3482988E-009  0.9118800E+02  0.7816531E-02  0.1126479E+00
         25   -1    0    0    0    0  0.00000000000E+00  0.00000000000E+00  0.99999998245E-14  0.12500000000E+03  0.12500000000E+03 0.  0.
    3000001    1    3    3    0    0  0.46731130495E+01  0.12807795866E+02  0.21202240193E+02  0.25227219620E+02  0.10000000000E+01 0.  1.
    1000022    2    1    0    0    0  0.10148321382E+02  0.20773287605E+02  0.57199057748E+02  0.62500002355E+02  0.10000009119E+02 0.  0.
    3000022    2    3    3    0    0  0.54752083324E+01  0.79654917387E+01  0.35996817555E+02  0.37272782736E+02  0.24998776530E+00 0.  0.
    1000022    2    1    0    0    0 -0.10148321382E+02 -0.20773287605E+02 -0.57199057748E+02  0.62499997645E+02  0.99999796762E+01 0.  0.
    3000022    2    5    5    0    0 -0.38886896651E+00 -0.32799244227E+00 -0.11204689020E+02  0.11219017150E+02  0.24998335106E+00 0.  0.
        -13    1    4    4    0    0  0.19267029713E+01  0.28728411336E+01  0.12722534891E+02  0.13184813975E+02  0.10500000000E+00 0.  1.
         13    1    4    4    0    0  0.35485053611E+01  0.50926506050E+01  0.23274282664E+02  0.24087968761E+02  0.10500000000E+00 0. -1.
    3000001    1    5    5    0    0 -0.97594524154E+01 -0.20445295162E+02 -0.45994368728E+02  0.51280980494E+02  0.10000000000E+01 0. -1.
        -13    1    6    6    0    0 -0.22939883375E+00 -0.20667514555E+00 -0.53248383552E+01  0.53348164870E+01  0.10500000000E+00 0. -1.
         13    1    6    6    0    0 -0.15947013276E+00 -0.12131729672E+00 -0.58798506647E+01  0.58842006635E+01  0.10500000000E+00 0.  1.
</event>
<event>
11    0  0.3482988E-009  0.9118800E+02  0.7816531E-02  0.1126479E+00
         25   -1    0    0    0    0  0.00000000000E+00  0.00000000000E+00  0.99999998245E-14  0.12500000000E+03  0.12500000000E+03 0.  0.
    3000001    1    3    3    0    0  0.12349130507E+02 -0.13319889583E+02  0.52047410346E+02  0.55134865616E+02  0.10000000000E+01 0. -1.
    1000022    2    1    0    0    0  0.11415848038E+02 -0.12575712928E+02  0.59310873796E+02  0.62499999994E+02  0.10000005340E+02 0.  0.
    3000022    2    3    3    0    0 -0.93328246968E+00  0.74417665527E+00  0.72634634501E+01  0.73651343784E+01  0.24997611420E+00 0.  0.
    1000022    2    1    0    0    0 -0.11415848038E+02  0.12575712928E+02 -0.59310873796E+02  0.62500000006E+02  0.10000005412E+02 0.  0.
    3000022    2    5    5    0    0 -0.25655989805E+01  0.23448665576E+01 -0.30009954950E+02  0.30211596963E+02  0.24999535083E+00 0.  0.
        -13    1    4    4    0    0 -0.22257081902E+00  0.16007866068E+00  0.17165227739E+01  0.17414472086E+01  0.10500000000E+00 0.  1.
         13    1    4    4    0    0 -0.71071165067E+00  0.58409799459E+00  0.55469406762E+01  0.56236871698E+01  0.10500000000E+00 0. -1.
    3000001    1    5    5    0    0 -0.88502490573E+01  0.10230846370E+02 -0.29300918846E+02  0.32288403043E+02  0.10000000000E+01 0.  1.
        -13    1    6    6    0    0 -0.82864538380E+00  0.69254742757E+00 -0.94201701879E+01  0.94824525561E+01  0.10500000000E+00 0.  1.
         13    1    6    6    0    0 -0.17369535967E+01  0.16523191300E+01 -0.20589784762E+02  0.20729144407E+02  0.10500000000E+00 0. -1.
</event>
<event>
11    0  0.3482988E-009  0.9118800E+02  0.7816531E-02  0.1126479E+00
         25   -1    0    0    0    0  0.00000000000E+00  0.00000000000E+00  0.99999998245E-14  0.12500000000E+03  0.12500000000E+03 0.  0.
    3000001    1    3    3    0    0 -0.33485822863E+01 -0.56537240030E+01 -0.31287559387E+01  0.73462039282E+01  0.10000000000E+01 0.  1.
    1000022    2    1    0    0    0 -0.44933582986E+02 -0.41645327411E+02 -0.72725392532E+01  0.62500000149E+02  0.10000000817E+02 0.  0.
    3000022    2    3    3    0    0 -0.41585000700E+02 -0.35991603407E+02 -0.41437833145E+01  0.55153796221E+02  0.24999672640E+00 0.  0.
    1000022    2    1    0    0    0  0.44933582986E+02  0.41645327411E+02  0.72725392532E+01  0.62499999851E+02  0.99999989571E+01 0.  0.
    3000022    2    5    5    0    0  0.45266931531E+01  0.78469035237E+00  0.52422636390E+00  0.46307668029E+01  0.24999610181E+00 0.  0.
        -13    1    4    4    0    0 -0.16306973459E+02 -0.14177910515E+02 -0.15890312135E+01  0.21667177370E+02  0.10500000000E+00 0.  1.
         13    1    4    4    0    0 -0.25278027240E+02 -0.21813692892E+02 -0.25547521009E+01  0.33486618851E+02  0.10500000000E+00 0. -1.
    3000001    1    5    5    0    0  0.40406889833E+02  0.40860637058E+02  0.67483128893E+01  0.57869233048E+02  0.10000000000E+01 0. -1.
        -13    1    6    6    0    0  0.21133997743E+01  0.33251401202E+00  0.18533252255E+00  0.21499761204E+01  0.10500000000E+00 0.  1.
         13    1    6    6    0    0  0.24132933787E+01  0.45217634035E+00  0.33889384135E+00  0.24807906825E+01  0.10500000000E+00 0. -1.
</event>
<event>
11    0  0.3482988E-009  0.9118800E+02  0.7816531E-02  0.1126479E+00
         25   -1    0    0    0    0  0.00000000000E+00  0.00000000000E+00  0.99999998245E-14  0.12500000000E+03  0.12500000000E+03 0.  0.
    3000001    1    3    3    0    0 -0.19423850557E+01 -0.45228145746E+01 -0.26007453703E+01  0.56561990649E+01  0.10000000000E+01 0.  1.
    1000022    2    1    0    0    0 -0.46092506099E+02 -0.34167847545E+02 -0.22677945724E+02  0.62499999477E+02  0.99999894030E+01 0.  0.
    3000022    2    3    3    0    0 -0.44150121043E+02 -0.29645032970E+02 -0.20077200354E+02  0.56843800412E+02  0.25000666014E+00 0.  0.
    1000022    2    1    0    0    0  0.46092506099E+02  0.34167847545E+02  0.22677945724E+02  0.62500000523E+02  0.99999959417E+01 0.  0.
    3000022    2    5    5    0    0  0.37473834443E+02  0.22683910999E+02  0.16036557414E+02  0.46648491498E+02  0.24999849453E+00 0.  0.
        -13    1    4    4    0    0 -0.17555705041E+02 -0.11716624664E+02 -0.79906253612E+01  0.22568632915E+02  0.10500000000E+00 0.  1.
         13    1    4    4    0    0 -0.26594416002E+02 -0.17928408307E+02 -0.12086574992E+02  0.34275167497E+02  0.10500000000E+00 0. -1.
    3000001    1    5    5    0    0  0.86186716554E+01  0.11483936546E+02  0.66413883102E+01  0.15851509025E+02  0.10000000000E+01 0.  1.
        -13    1    6    6    0    0  0.16008336994E+02  0.96330708527E+01  0.67937828227E+01  0.19880377698E+02  0.10500000000E+00 0.  1.
         13    1    6    6    0    0  0.21465497449E+02  0.13050840146E+02  0.92427745909E+01  0.26768113800E+02  0.10500000000E+00 0. -1.
</event>
<event>
11    0  0.3482988E-009  0.9118800E+02  0.7816531E-02  0.1126479E+00
         25   -1    0    0    0    0  0.00000000000E+00  0.00000000000E+00  0.99999998245E-14  0.12500000000E+03  0.12500000000E+03 0.  0.
    3000001    1    3    3    0    0 -0.19416017172E+02 -0.47843908899E+01 -0.14867609081E+02  0.24938282194E+02  0.10000000000E+01 0. -1.
    1000022    2    1    0    0    0 -0.39710304150E+02 -0.13215835565E+02 -0.45328613715E+02  0.62500000062E+02  0.10000011055E+02 0.  0.
    3000022    2    3    3    0    0 -0.20294286978E+02 -0.84314446751E+01 -0.30461004635E+02  0.37561717868E+02  0.25000526582E+00 0.  0.
    1000022    2    1    0    0    0  0.39710304150E+02  0.13215835565E+02  0.45328613715E+02  0.62499999938E+02  0.10000010277E+02 0.  0.
    3000022    2    5    5    0    0  0.32851882134E+02  0.12999376469E+02  0.41761241124E+02  0.54701862065E+02  0.25000954574E+00 0.  0.
        -13    1    4    4    0    0 -0.14612411974E+02 -0.61020374247E+01 -0.21994638278E+02  0.27102261574E+02  0.10500000000E+00 0. -1.
         13    1    4    4    0    0 -0.56818750040E+01 -0.23294072504E+01 -0.84663663562E+01  0.10459456295E+02  0.10500000000E+00 0.  1.
    3000001    1    5    5    0    0  0.68584220156E+01  0.21645909613E+00  0.35673725909E+01  0.77981378730E+01  0.10000000000E+01 0.  1.
        -13    1    6    6    0    0  0.10487723876E+02  0.41841667027E+01  0.13408284579E+02  0.17529766782E+02  0.10500000000E+00 0. -1.
         13    1    6    6    0    0  0.22364158258E+02  0.88152097663E+01  0.28352956545E+02  0.37172095282E+02  0.10500000000E+00 0.  1.
</event>
<event>
11    0  0.3482988E-009  0.9118800E+02  0.7816531E-02  0.1126479E+00
         25   -1    0    0    0    0  0.00000000000E+00  0.00000000000E+00  0.99999998245E-14  0.12500000000E+03  0.12500000000E+03 0.  0.
    3000001    1    3    3    0    0  0.18140239974E+02 -0.28169852099E+02  0.25871472998E+02  0.42343145711E+02  0.10000000000E+01 0.  1.
    1000022    2    1    0    0    0  0.29407589915E+02 -0.43631066857E+02  0.32214493526E+02  0.62499999240E+02  0.99999986078E+01 0.  0.
    3000022    2    3    3    0    0  0.11267349941E+02 -0.15461214758E+02  0.63430205279E+01  0.20156853529E+02  0.24999657945E+00 0.  0.
    1000022    2    1    0    0    0 -0.29407589915E+02  0.43631066857E+02 -0.32214493526E+02  0.62500000760E+02  0.10000008110E+02 0.  0.
    3000022    2    5    5    0    0 -0.13207913233E+02  0.17673723408E+02 -0.19144738837E+02  0.29212890775E+02  0.24998244559E+00 0.  0.
        -13    1    4    4    0    0  0.50506221257E+01 -0.70408443697E+01  0.28892158798E+01  0.91345972378E+01  0.10500000000E+00 0.  1.
         13    1    4    4    0    0  0.62167278156E+01 -0.84203703882E+01  0.34538046481E+01  0.11022256292E+02  0.10500000000E+00 0. -1.
    3000001    1    5    5    0    0 -0.16199676683E+02  0.25957343449E+02 -0.13069754689E+02  0.33287109985E+02  0.10000000000E+01 0.  1.
        -13    1    6    6    0    0 -0.59788730532E+01  0.78995009034E+01 -0.85591960753E+01  0.13092742263E+02  0.10500000000E+00 0.  1.
         13    1    6    6    0    0 -0.72290401793E+01  0.97742225047E+01 -0.10585542762E+02  0.16120148512E+02  0.10500000000E+00 0. -1.
</event>
<event>
11    0  0.3482988E-009  0.9118800E+02  0.7816531E-02  0.1126479E+00
         25   -1    0    0    0    0  0.00000000000E+00  0.00000000000E+00  0.99999998245E-14  0.12500000000E+03  0.12500000000E+03 0.  0.
    3000001    1    3    3    0    0  0.19994883949E+01 -0.13563859513E+01 -0.75391452750E+01  0.79797523876E+01  0.10000000000E+01 0. -1.
    1000022    2    1    0    0    0 -0.17243297530E+01 -0.28209896707E+02 -0.54840484540E+02  0.62499996942E+02  0.99999643856E+01 0.  0.
    3000022    2    3    3    0    0 -0.37238181479E+01 -0.26853510756E+02 -0.47301339265E+02  0.54520244554E+02  0.25001676127E+00 0.  0.
    1000022    2    1    0    0    0  0.17243297530E+01  0.28209896707E+02  0.54840484540E+02  0.62500003058E+02  0.10000002617E+02 0.  0.
    3000022    2    5    5    0    0  0.40630993536E+01  0.26679082260E+02  0.50103684539E+02  0.56909787466E+02  0.24999689938E+00 0.  0.
        -13    1    4    4    0    0 -0.24660983018E+01 -0.17919168859E+02 -0.31457971714E+02  0.36287646146E+02  0.10500000000E+00 0.  1.
         13    1    4    4    0    0 -0.12577198461E+01 -0.89343418973E+01 -0.15843367551E+02  0.18232598408E+02  0.10500000000E+00 0. -1.
    3000001    1    5    5    0    0 -0.23387696006E+01  0.15308144478E+01  0.47368000011E+01  0.55902155923E+01  0.10000000000E+01 0.  1.
        -13    1    6    6    0    0  0.31248495251E+01  0.20552513542E+02  0.38600547591E+02  0.43842716576E+02  0.10500000000E+00 0.  1.
         13    1    6    6    0    0  0.93824982847E+00  0.61265687177E+01  0.11503136948E+02  0.13067070890E+02  0.10500000000E+00 0. -1.
</event>
<event>
11    0  0.3482988E-009  0.9118800E+02  0.7816531E-02  0.1126479E+00
         25   -1    0    0    0    0  0.00000000000E+00  0.00000000000E+00  0.99999998245E-14  0.12500000000E+03  0.12500000000E+03 0.  0.
    3000001    1    3    3    0    0 -0.10184065509E+01 -0.29924816974E+01 -0.84695673366E+00  0.34219050718E+01  0.10000000000E+01 0. -1.
    1000022    2    1    0    0    0 -0.38284237388E+02 -0.31081589410E+02 -0.37074276437E+02  0.62500000098E+02  0.10000000314E+02 0.  0.
    3000022    2    3    3    0    0 -0.37265830837E+02 -0.28089107713E+02 -0.36227319703E+02  0.59078095026E+02  0.24999790383E+00 0.  0.
    1000022    2    1    0    0    0  0.38284237388E+02  0.31081589410E+02  0.37074276437E+02  0.62499999902E+02  0.99999990871E+01 0.  0.
    3000022    2    5    5    0    0  0.17944332515E+01  0.15249434212E+00  0.38292649508E+01  0.42389879266E+01  0.25000671908E+00 0.  0.
        -13    1    4    4    0    0 -0.17565154991E+02 -0.13181391263E+02 -0.17110125739E+02  0.27839740898E+02  0.10500000000E+00 0.  1.
         13    1    4    4    0    0 -0.19700675846E+02 -0.14907716450E+02 -0.19117193964E+02  0.31238354128E+02  0.10500000000E+00 0. -1.
    3000001    1    5    5    0    0  0.36489804137E+02  0.30929095068E+02  0.33245011486E+02  0.58261011975E+02  0.10000000000E+01 0.  1.
        -13    1    6    6    0    0  0.10005988621E+01  0.94267003710E-01  0.19796531913E+01  0.22226416960E+01  0.10500000000E+00 0. -1.
         13    1    6    6    0    0  0.79383438944E+00  0.58227338413E-01  0.18496117595E+01  0.20163462306E+01  0.10500000000E+00 0.  1.
</event>
<event>
11    0  0.3482988E-009  0.9118800E+02  0.7816531E-02  0.1126479E+00
         25   -1    0    0    0    0  0.00000000000E+00  0.00000000000E+00  0.99999998245E-14  0.12500000000E+03  0.12500000000E+03 0.  0.
    3000001    1    3    3    0    0  0.78363798211E+00  0.40313157290E+01  0.15280638735E+01  0.44945048888E+01  0.10000000000E+01 0. -1.
    1000022    2    1    0    0    0  0.18843170872E+02  0.57694618534E+02 -0.11068689487E+02  0.62500000217E+02  0.10000002192E+02 0.  0.
    3000022    2    3    3    0    0  0.18059532890E+02  0.53663302805E+02 -0.12596753360E+02  0.58005495328E+02  0.24999376759E+00 0.  0.
    1000022    2    1    0    0    0 -0.18843170872E+02 -0.57694618534E+02  0.11068689487E+02  0.62499999783E+02  0.99999994804E+01 0.  0.
    3000022    2    5    5    0    0 -0.63596598796E+00 -0.34354378217E+01  0.31552750507E+01  0.47143343519E+01  0.25000394311E+00 0.  0.
        -13    1    4    4    0    0  0.70928224636E+01  0.21271154131E+02 -0.49810794278E+01  0.22969377567E+02  0.10500000000E+00 0. -1.
         13    1    4    4    0    0  0.10966710426E+02  0.32392148675E+02 -0.76156739325E+01  0.35036117761E+02  0.10500000000E+00 0.  1.
    3000001    1    5    5    0    0 -0.18207204884E+02 -0.54259180713E+02  0.79134144360E+01  0.57785665431E+02  0.10000000000E+01 0.  1.
        -13    1    6    6    0    0 -0.38605153891E+00 -0.17385756170E+01  0.16404100775E+01  0.24235616743E+01  0.10500000000E+00 0.  1.
         13    1    6    6    0    0 -0.24991444905E+00 -0.16968622047E+01  0.15148649732E+01  0.22907726776E+01  0.10500000000E+00 0. -1.
</event>
<event>
11    0  0.3482988E-009  0.9118800E+02  0.7816531E-02  0.1126479E+00
         25   -1    0    0    0    0  0.00000000000E+00  0.00000000000E+00  0.99999998245E-14  0.12500000000E+03  0.12500000000E+03 0.  0.
    3000001    1    3    3    0    0  0.35291342042E+02 -0.43543502260E+02  0.18561237162E+02  0.59051121388E+02  0.10000000000E+01 0. -1.
    1000022    2    1    0    0    0  0.36012527673E+02 -0.46821334112E+02  0.17807596827E+02  0.62499999997E+02  0.10000000873E+02 0.  0.
    3000022    2    3    3    0    0  0.72118563083E+00 -0.32778318519E+01 -0.75364033532E+00  0.34488786089E+01  0.24999908043E+00 0.  0.
    1000022    2    1    0    0    0 -0.36012527673E+02  0.46821334112E+02 -0.17807596827E+02  0.62500000003E+02  0.10000000914E+02 0.  0.
    3000022    2    5    5    0    0 -0.29004684698E+02  0.30421070679E+02 -0.13105038879E+02  0.44028601706E+02  0.24989688144E+00 0.  0.
        -13    1    4    4    0    0  0.42921952093E+00 -0.16436367705E+01 -0.36524731366E+00  0.17407474919E+01  0.10500000000E+00 0.  1.
         13    1    4    4    0    0  0.29196610990E+00 -0.16341950814E+01 -0.38839302166E+00  0.17081311170E+01  0.10500000000E+00 0. -1.
    3000001    1    5    5    0    0 -0.70078429752E+01  0.16400263432E+02 -0.47025579482E+01  0.18471398298E+02  0.10000000000E+01 0. -1.
        -13    1    6    6    0    0 -0.18606468161E+02  0.19440396160E+02 -0.83621632400E+01  0.28179184859E+02  0.10500000000E+00 0.  1.
         13    1    6    6    0    0 -0.10398216536E+02  0.10980674520E+02 -0.47428756390E+01  0.15849416846E+02  0.10500000000E+00 0. -1.
</event>
<event>
11    0  0.3482988E-009  0.9118800E+02  0.7816531E-02  0.1126479E+00
         25   -1    0    0    0    0  0.00000000000E+00  0.00000000000E+00  0.99999998245E-14  0.12500000000E+03  0.12500000000E+03 0.  0.
    3000001    1    3    3    0    0 -0.26101120991E+02  0.18257717914E+02  0.11957304871E+02  0.34038065753E+02  0.10000000000E+01 0.  1.
    1000022    2    1    0    0    0 -0.48343316936E+02  0.26518767860E+02  0.27675411475E+02  0.62499998201E+02  0.10000001686E+02 0.  0.
    3000022    2    3    3    0    0 -0.22242195945E+02  0.82610499460E+01  0.15718106604E+02  0.28461932449E+02  0.24999369665E+00 0.  0.
    1000022    2    1    0    0    0  0.48343316936E+02 -0.26518767860E+02 -0.27675411475E+02  0.62500001799E+02  0.10000024168E+02 0.  0.
    3000022    2    5    5    0    0  0.16969892064E+01 -0.28662117371E+01 -0.43612302970E-01  0.33405593802E+01  0.24998570130E+00 0.  0.
        -13    1    4    4    0    0 -0.11495158373E+02  0.42400286147E+01  0.80424274370E+01  0.14656335584E+02  0.10500000000E+00 0. -1.
         13    1    4    4    0    0 -0.10747037571E+02  0.40210213313E+01  0.76756791669E+01  0.13805596864E+02  0.10500000000E+00 0.  1.
    3000001    1    5    5    0    0  0.46646327729E+02 -0.23652556123E+02 -0.27631799172E+02  0.59159442418E+02  0.10000000000E+01 0.  1.
        -13    1    6    6    0    0  0.95671821630E+00 -0.15938613319E+01 -0.89618890715E-01  0.18640708775E+01  0.10500000000E+00 0.  1.
         13    1    6    6    0    0  0.74027099008E+00 -0.12723504052E+01  0.46006587745E-01  0.14764885026E+01  0.10500000000E+00 0. -1.
</event>
<event>
11    0  0.3482988E-009  0.9118800E+02  0.7816531E-02  0.1126479E+00
         25   -1    0    0    0    0  0.00000000000E+00  0.00000000000E+00  0.99999998245E-14  0.12500000000E+03  0.12500000000E+03 0.  0.
    3000001    1    3    3    0    0 -0.39865289567E+02  0.46036921618E+01  0.34623928379E+02  0.53011807272E+02  0.10000000000E+01 0. -1.
    1000022    2    1    0    0    0 -0.43734438165E+02  0.69791425991E+01  0.42951597174E+02  0.62499991686E+02  0.99999873965E+01 0.  0.
    3000022    2    3    3    0    0 -0.38691485980E+01  0.23754504373E+01  0.83276687944E+01  0.94881844143E+01  0.25000055286E+00 0.  0.
    1000022    2    1    0    0    0  0.43734438165E+02 -0.69791425991E+01 -0.42951597174E+02  0.62500008314E+02  0.10000091319E+02 0.  0.
    3000022    2    5    5    0    0  0.36359730710E-01  0.23173048760E+00  0.39334159439E+00  0.52176643513E+00  0.25000310809E+00 0.  0.
        -13    1    4    4    0    0 -0.27225379528E+01  0.17150930145E+01  0.59433188818E+01  0.67592766834E+01  0.10500000000E+00 0.  1.
         13    1    4    4    0    0 -0.11466106452E+01  0.66035742283E+00  0.23843499127E+01  0.27289077309E+01  0.10500000000E+00 0. -1.
    3000001    1    5    5    0    0  0.43698078435E+02 -0.72108730867E+01 -0.43344938768E+02  0.61978241879E+02  0.10000000000E+01 0. -1.
        -13    1    6    6    0    0 -0.19300343068E-01  0.40161717474E-01  0.99161779970E-01  0.15114074699E+00  0.10500000000E+00 0.  1.
         13    1    6    6    0    0  0.55660073778E-01  0.19156877013E+00  0.29417981442E+00  0.37062568814E+00  0.10500000000E+00 0. -1.
</event>
<event>
11    0  0.3482988E-009  0.9118800E+02  0.7816531E-02  0.1126479E+00
         25   -1    0    0    0    0  0.00000000000E+00  0.00000000000E+00  0.99999998245E-14  0.12500000000E+03  0.12500000000E+03 0.  0.
    3000001    1    3    3    0    0  0.57094711686E+01 -0.25101729841E+02 -0.32219051207E+02  0.41252420083E+02  0.10000000000E+01 0. -1.
    1000022    2    1    0    0    0  0.26622857035E+01 -0.40827370299E+02 -0.46176705011E+02  0.62500001351E+02  0.10000007628E+02 0.  0.
    3000022    2    3    3    0    0 -0.30471854651E+01 -0.15725640458E+02 -0.13957653804E+02  0.21247581268E+02  0.25000593692E+00 0.  0.
    1000022    2    1    0    0    0 -0.26622857035E+01  0.40827370299E+02  0.46176705011E+02  0.62499998649E+02  0.99999907350E+01 0.  0.
    3000022    2    5    5    0    0 -0.61930393488E+01  0.23273779557E+02  0.28586020235E+02  0.37379748647E+02  0.25000961026E+00 0.  0.
        -13    1    4    4    0    0 -0.13230632410E+01 -0.65327354691E+01 -0.57659578227E+01  0.88138767669E+01  0.10500000000E+00 0.  1.
         13    1    4    4    0    0 -0.17241222240E+01 -0.91929049888E+01 -0.81916959811E+01  0.12433704501E+02  0.10500000000E+00 0. -1.
    3000001    1    5    5    0    0  0.35307536453E+01  0.17553590743E+02  0.17590684775E+02  0.25120250001E+02  0.10000000000E+01 0.  1.
        -13    1    6    6    0    0 -0.42778792649E+01  0.16124920216E+02  0.19872459056E+02  0.25946848689E+02  0.10500000000E+00 0.  1.
         13    1    6    6    0    0 -0.19151600840E+01  0.71488593402E+01  0.87135611797E+01  0.11432899958E+02  0.10500000000E+00 0. -1.
</event>
<event>
11    0  0.3482988E-009  0.9118800E+02  0.7816531E-02  0.1126479E+00
         25   -1    0    0    0    0  0.00000000000E+00  0.00000000000E+00  0.99999998245E-14  0.12500000000E+03  0.12500000000E+03 0.  0.
    3000001    1    3    3    0    0  0.12892693209E+02 -0.41247050773E+01 -0.33631415963E+01  0.13983756703E+02  0.10000000000E+01 0. -1.
    1000022    2    1    0    0    0  0.49742735702E+02 -0.34523451710E+02 -0.11833911412E+02  0.62500000028E+02  0.10000003555E+02 0.  0.
    3000022    2    3    3    0    0  0.36850042494E+02 -0.30398746632E+02 -0.84707698157E+01  0.48516243324E+02  0.24999289398E+00 0.  0.
    1000022    2    1    0    0    0 -0.49742735702E+02  0.34523451710E+02  0.11833911412E+02  0.62499999972E+02  0.10000003207E+02 0.  0.
    3000022    2    5    5    0    0 -0.46470191362E+02  0.30875270771E+02  0.13163292709E+02  0.57324478235E+02  0.24999915838E+00 0.  0.
        -13    1    4    4    0    0  0.11850235061E+02 -0.98226165019E+01 -0.27661282250E+01  0.15638873243E+02  0.10500000000E+00 0.  1.
         13    1    4    4    0    0  0.24999807433E+02 -0.20576130130E+02 -0.57046415907E+01  0.32877370082E+02  0.10500000000E+00 0. -1.
    3000001    1    5    5    0    0 -0.32725443398E+01  0.36481809389E+01 -0.13293812966E+01  0.51755217371E+01  0.10000000000E+01 0. -1.
        -13    1    6    6    0    0 -0.21723614875E+02  0.14406606528E+02  0.60847456943E+01  0.26767534628E+02  0.10500000000E+00 0.  1.
         13    1    6    6    0    0 -0.24746576487E+02  0.16468664242E+02  0.70785470143E+01  0.30556943607E+02  0.10500000000E+00 0. -1.
</event>
<event>
11    0  0.3482988E-009  0.9118800E+02  0.7816531E-02  0.1126479E+00
         25   -1    0    0    0    0  0.00000000000E+00  0.00000000000E+00  0.99999998245E-14  0.12500000000E+03  0.12500000000E+03 0.  0.
    3000001    1    3    3    0    0  0.40838389460E+02  0.25967534116E+02 -0.37025269548E+02  0.60942246979E+02  0.10000000000E+01 0.  1.
    1000022    2    1    0    0    0  0.40759840657E+02  0.27482234157E+02 -0.37277499851E+02  0.62499998737E+02  0.10000002117E+02 0.  0.
    3000022    2    3    3    0    0 -0.78548802423E-01  0.15147000410E+01 -0.25223030377E+00  0.15577517588E+01  0.24996857284E+00 0.  0.
    1000022    2    1    0    0    0 -0.40759840657E+02 -0.27482234157E+02  0.37277499851E+02  0.62500001263E+02  0.10000017900E+02 0.  0.
    3000022    2    5    5    0    0 -0.39428891084E+02 -0.24162069343E+02  0.32867235902E+02  0.56734123250E+02  0.24999602651E+00 0.  0.
        -13    1    4    4    0    0 -0.28187716393E-01  0.53411340524E+00 -0.14791970894E+00  0.56478041512E+00  0.10500000000E+00 0.  1.
         13    1    4    4    0    0 -0.50361086030E-01  0.98058663572E+00 -0.10431059483E+00  0.99297134366E+00  0.10500000000E+00 0. -1.
    3000001    1    5    5    0    0 -0.13309495730E+01 -0.33201648133E+01  0.44102639490E+01  0.57658780123E+01  0.10000000000E+01 0.  1.
        -13    1    6    6    0    0 -0.10921896579E+02 -0.66501346743E+01  0.91034136421E+01  0.15696983182E+02  0.10500000000E+00 0. -1.
         13    1    6    6    0    0 -0.28506994505E+02 -0.17511934669E+02  0.23763822260E+02  0.41037140068E+02  0.10500000000E+00 0.  1.
</event>
<event>
11    0  0.3482988E-009  0.9118800E+02  0.7816531E-02  0.1126479E+00
         25   -1    0    0    0    0  0.00000000000E+00  0.00000000000E+00  0.99999998245E-14  0.12500000000E+03  0.12500000000E+03 0.  0.
    3000001    1    3    3    0    0  0.24430970962E+01 -0.43476931099E+02  0.39478467086E+02  0.58785726368E+02  0.10000000000E+01 0.  1.
    1000022    2    1    0    0    0  0.39199572864E+00 -0.45083464230E+02  0.42113866807E+02  0.62500001170E+02  0.99999980607E+01 0.  0.
    3000022    2    3    3    0    0 -0.20511013675E+01 -0.16065331308E+01  0.26353997211E+01  0.37142748017E+01  0.25008017177E+00 0.  0.
    1000022    2    1    0    0    0 -0.39199572864E+00  0.45083464230E+02 -0.42113866807E+02  0.62499998830E+02  0.99999834337E+01 0.  0.
    3000022    2    5    5    0    0 -0.20283492944E+01  0.11899453927E+02 -0.62283189301E+01  0.13585494445E+02  0.24999600270E+00 0.  0.
        -13    1    4    4    0    0 -0.14968857778E+01 -0.11204734787E+01  0.18887556515E+01  0.26598027670E+01  0.10500000000E+00 0. -1.
         13    1    4    4    0    0 -0.55421558973E+00 -0.48605965209E+00  0.74664406960E+00  0.10544720347E+01  0.10500000000E+00 0.  1.
    3000001    1    5    5    0    0  0.16363535658E+01  0.33184010302E+02 -0.35885547877E+02  0.48914504384E+02  0.10000000000E+01 0.  1.
        -13    1    6    6    0    0 -0.73549978273E+00  0.45700315717E+01 -0.24377573243E+01  0.52325743443E+01  0.10500000000E+00 0. -1.
         13    1    6    6    0    0 -0.12928495117E+01  0.73294223556E+01 -0.37905616059E+01  0.83529201011E+01  0.10500000000E+00 0.  1.
</event>
<event>
11    0  0.3482988E-009  0.9118800E+02  0.7816531E-02  0.1126479E+00
         25   -1    0    0    0    0  0.00000000000E+00  0.00000000000E+00  0.99999998245E-14  0.12500000000E+03  0.12500000000E+03 0.  0.
    3000001    1    3    3    0    0  0.14931957692E+02  0.10923614915E+02 -0.17587835372E+02  0.25546441560E+02  0.10000000000E+01 0. -1.
    1000022    2    1    0    0    0  0.35498302397E+02  0.35852283658E+02 -0.35506820436E+02  0.62500001533E+02  0.10000008879E+02 0.  0.
    3000022    2    3    3    0    0  0.20566344704E+02  0.24928668743E+02 -0.17918985064E+02  0.36953559972E+02  0.25001820761E+00 0.  0.
    1000022    2    1    0    0    0 -0.35498302397E+02 -0.35852283658E+02  0.35506820436E+02  0.62499998467E+02  0.99999897220E+01 0.  0.
    3000022    2    5    5    0    0 -0.77124704746E+01 -0.97381671971E+01  0.40821491805E+01  0.13078247207E+02  0.25001379807E+00 0.  0.
        -13    1    4    4    0    0  0.61487062772E+01  0.73822808084E+01 -0.53314477855E+01  0.10988176341E+02  0.10500000000E+00 0.  1.
         13    1    4    4    0    0  0.14417638427E+02  0.17546387934E+02 -0.12587537279E+02  0.25965383631E+02  0.10500000000E+00 0. -1.
    3000001    1    5    5    0    0 -0.27785831922E+02 -0.26114116461E+02  0.31424671256E+02  0.49421751260E+02  0.10000000000E+01 0.  1.
        -13    1    6    6    0    0 -0.40506596020E+01 -0.51629723788E+01  0.22199858551E+01  0.69284550365E+01  0.10500000000E+00 0.  1.
         13    1    6    6    0    0 -0.36618108727E+01 -0.45751948182E+01  0.18621633254E+01  0.61497921707E+01  0.10500000000E+00 0. -1.
</event>
<event>
11    0  0.3482988E-009  0.9118800E+02  0.7816531E-02  0.1126479E+00
         25   -1    0    0    0    0  0.00000000000E+00  0.00000000000E+00  0.99999998245E-14  0.12500000000E+03  0.12500000000E+03 0.  0.
    3000001    1    3    3    0    0 -0.35669630728E+02  0.21252360667E+02 -0.27767993412E+01  0.41625665217E+02  0.10000000000E+01 0.  1.
    1000022    2    1    0    0    0 -0.54514389265E+02  0.27316720234E+02 -0.93929876292E+01  0.62499999386E+02  0.99999932736E+01 0.  0.
    3000022    2    3    3    0    0 -0.18844758537E+02  0.60643595670E+01 -0.66161882881E+01  0.20874334169E+02  0.24999657890E+00 0.  0.
    1000022    2    1    0    0    0  0.54514389265E+02 -0.27316720234E+02  0.93929876292E+01  0.62500000614E+02  0.10000000943E+02 0.  0.
    3000022    2    5    5    0    0  0.14127423630E+01  0.80758888838E+00 -0.13318055564E+00  0.16517504533E+01  0.25000340551E+00 0.  0.
        -13    1    4    4    0    0 -0.63081764856E+01  0.20170075614E+01 -0.21584278292E+01  0.69664370930E+01  0.10500000000E+00 0.  1.
         13    1    4    4    0    0 -0.12536582051E+02  0.40473520056E+01 -0.44577604588E+01  0.13907897076E+02  0.10500000000E+00 0. -1.
    3000001    1    5    5    0    0  0.53101646902E+02 -0.28124309122E+02  0.95261681849E+01  0.60848250160E+02  0.10000000000E+01 0.  1.
        -13    1    6    6    0    0  0.53802121822E+00  0.25336479612E+00 -0.84584504408E-01  0.60978692143E+00  0.10500000000E+00 0.  1.
         13    1    6    6    0    0  0.87472114481E+00  0.55422409227E+00 -0.48596051228E-01  0.10419635319E+01  0.10500000000E+00 0. -1.
</event>
<event>
11    0  0.3482988E-009  0.9118800E+02  0.7816531E-02  0.1126479E+00
         25   -1    0    0    0    0  0.00000000000E+00  0.00000000000E+00  0.99999998245E-14  0.12500000000E+03  0.12500000000E+03 0.  0.
    3000001    1    3    3    0    0 -0.19255033294E+02  0.85497837437E+01 -0.23713142995E+02  0.31735914354E+02  0.10000000000E+01 0. -1.
    1000022    2    1    0    0    0 -0.42318424952E+02  0.85521180107E+01 -0.44071101746E+02  0.62500001022E+02  0.10000015289E+02 0.  0.
    3000022    2    3    3    0    0 -0.23063391658E+02  0.23342670264E-02 -0.20357958751E+02  0.30764086668E+02  0.25000753389E+00 0.  0.
    1000022    2    1    0    0    0  0.42318424952E+02 -0.85521180107E+01  0.44071101746E+02  0.62499998978E+02  0.10000002515E+02 0.  0.
    3000022    2    5    5    0    0  0.32951727854E+01 -0.37293136705E+01  0.51033983817E+01  0.71325396105E+01  0.25000422685E+00 0.  0.
        -13    1    4    4    0    0 -0.11296710278E+02 -0.13667950331E-01 -0.98833573493E+01  0.15010250744E+02  0.10500000000E+00 0.  1.
         13    1    4    4    0    0 -0.11766681380E+02  0.16002217357E-01 -0.10474601402E+02  0.15753835924E+02  0.10500000000E+00 0. -1.
    3000001    1    5    5    0    0  0.39023252166E+02 -0.48228043402E+01  0.38967703364E+02  0.55367459368E+02  0.10000000000E+01 0. -1.
        -13    1    6    6    0    0  0.20967364521E+01 -0.23905004418E+01  0.31772378315E+01  0.44962941797E+01  0.10500000000E+00 0. -1.
         13    1    6    6    0    0  0.11984363333E+01 -0.13388132287E+01  0.19261605502E+01  0.26362454308E+01  0.10500000000E+00 0.  1.
</event>
<event>
11    0  0.3482988E-009  0.9118800E+02  0.7816531E-02  0.1126479E+00
         25   -1    0    0    0    0  0.00000000000E+00  0.00000000000E+00  0.99999998245E-14  0.12500000000E+03  0.12500000000E+03 0.  0.
    3000001    1    3    3    0    0 -0.10177736057E+02 -0.20989060194E+01 -0.30725864758E+02  0.32451047484E+02  0.10000000000E+01 0. -1.
    1000022    2    1    0    0    0 -0.25766386780E+02 -0.10077539418E+02 -0.55143327498E+02  0.62500001174E+02  0.10000004539E+02 0.  0.
    3000022    2    3    3    0    0 -0.15588650723E+02 -0.79786333989E+01 -0.24417462740E+02  0.30048953689E+02  0.25001776961E+00 0.  0.
    1000022    2    1    0    0    0  0.25766386780E+02  0.10077539418E+02  0.55143327498E+02  0.62499998826E+02  0.99999898683E+01 0.  0.
    3000022    2    5    5    0    0  0.77356386031E+01  0.69294358264E+01  0.26827545555E+02  0.28768678913E+02  0.25000090639E+00 0.  0.
        -13    1    4    4    0    0 -0.39018989589E+01 -0.19832163573E+01 -0.61441667431E+01  0.75445193732E+01  0.10500000000E+00 0.  1.
         13    1    4    4    0    0 -0.11686751764E+02 -0.59954170416E+01 -0.18273295997E+02  0.22504434316E+02  0.10500000000E+00 0. -1.
    3000001    1    5    5    0    0  0.18030748177E+02  0.31481035920E+01  0.28315781943E+02  0.33731319913E+02  0.10000000000E+01 0. -1.
        -13    1    6    6    0    0  0.48090353033E+01  0.42276752710E+01  0.16575789566E+02  0.17769858848E+02  0.10500000000E+00 0.  1.
         13    1    6    6    0    0  0.29266032998E+01  0.27017605554E+01  0.10251755989E+02  0.10998820065E+02  0.10500000000E+00 0. -1.
</event>
<event>
11    0  0.3482988E-009  0.9118800E+02  0.7816531E-02  0.1126479E+00
         25   -1    0    0    0    0  0.00000000000E+00  0.00000000000E+00  0.99999998245E-14  0.12500000000E+03  0.12500000000E+03 0.  0.
    3000001    1    3    3    0    0  0.17281880120E+02 -0.35160860379E+02  0.23996658105E+02  0.45954206372E+02  0.10000000000E+01 0.  1.
    1000022    2    1    0    0    0  0.21917188390E+02 -0.44178650796E+02  0.37069319018E+02  0.62500009097E+02  0.10000019580E+02 0.  0.
    3000022    2    3    3    0    0  0.46353082703E+01 -0.90177904166E+01  0.13072660912E+02  0.16545802724E+02  0.24999541797E+00 0.  0.
    1000022    2    1    0    0    0 -0.21917188390E+02  0.44178650796E+02 -0.37069319018E+02  0.62499990903E+02  0.99999058709E+01 0.  0.
    3000022    2    5    5    0    0 -0.76669715998E+01  0.24497957336E+02 -0.15454789324E+02  0.29964068180E+02  0.25000331295E+00 0.  0.
        -13    1    4    4    0    0  0.24593563280E+01 -0.46365619617E+01  0.67639531867E+01  0.85620224296E+01  0.10500000000E+00 0. -1.
         13    1    4    4    0    0  0.21759519423E+01 -0.43812284549E+01  0.63087077256E+01  0.79837802949E+01  0.10500000000E+00 0.  1.
    3000001    1    5    5    0    0 -0.14250216790E+02  0.19680693460E+02 -0.21614529693E+02  0.32535922724E+02  0.10000000000E+01 0. -1.
        -13    1    6    6    0    0 -0.37694258791E+01  0.12260907604E+02 -0.76989662119E+01  0.14960733019E+02  0.10500000000E+00 0.  1.
         13    1    6    6    0    0 -0.38975457207E+01  0.12237049732E+02 -0.77558231124E+01  0.15003335161E+02  0.10500000000E+00 0. -1.
</event>
<event>
11    0  0.3482988E-009  0.9118800E+02  0.7816531E-02  0.1126479E+00
         25   -1    0    0    0    0  0.00000000000E+00  0.00000000000E+00  0.99999998245E-14  0.12500000000E+03  0.12500000000E+03 0.  0.
    3000001    1    3    3    0    0  0.25172237855E+02 -0.19072891069E+02 -0.30459505953E+02  0.43888474970E+02  0.10000000000E+01 0. -1.
    1000022    2    1    0    0    0  0.39057371957E+02 -0.21612742395E+02 -0.42587100622E+02  0.62499999534E+02  0.99999932145E+01 0.  0.
    3000022    2    3    3    0    0  0.13885134103E+02 -0.25398513260E+01 -0.12127594670E+02  0.18611524564E+02  0.25000061099E+00 0.  0.
    1000022    2    1    0    0    0 -0.39057371957E+02  0.21612742395E+02  0.42587100622E+02  0.62500000466E+02  0.99999990400E+01 0.  0.
    3000022    2    5    5    0    0 -0.16708233349E+02  0.13806941487E+02  0.16375805655E+02  0.27166637929E+02  0.25002124727E+00 0.  0.
        -13    1    4    4    0    0  0.50415299924E+01 -0.87866027269E+00 -0.43446825574E+01  0.67138930632E+01  0.10500000000E+00 0.  1.
         13    1    4    4    0    0  0.88436041104E+01 -0.16611910533E+01 -0.77829121122E+01  0.11897631501E+02  0.10500000000E+00 0. -1.
    3000001    1    5    5    0    0 -0.22349138608E+02  0.78058009081E+01  0.26211294967E+02  0.35333362537E+02  0.10000000000E+01 0. -1.
        -13    1    6    6    0    0 -0.55485605228E+01  0.46339158275E+01  0.55098102950E+01  0.90900348877E+01  0.10500000000E+00 0. -1.
         13    1    6    6    0    0 -0.11159672826E+02  0.91730256590E+01  0.10865995360E+02  0.18076603041E+02  0.10500000000E+00 0.  1.
</event>
<event>
11    0  0.3482988E-009  0.9118800E+02  0.7816531E-02  0.1126479E+00
         25   -1    0    0    0    0  0.00000000000E+00  0.00000000000E+00  0.99999998245E-14  0.12500000000E+03  0.12500000000E+03 0.  0.
    3000001    1    3    3    0    0  0.40794236012E+00  0.31011792027E+01  0.23410303407E+01  0.40328838903E+01  0.10000000000E+01 0. -1.
    1000022    2    1    0    0    0  0.28114846218E+02  0.54074677820E+02  0.95778213155E+01  0.62500000526E+02  0.10000002269E+02 0.  0.
    3000022    2    3    3    0    0  0.27706903858E+02  0.50973498618E+02  0.72367909749E+01  0.58467116636E+02  0.25000278138E+00 0.  0.
    1000022    2    1    0    0    0 -0.28114846218E+02 -0.54074677820E+02 -0.95778213155E+01  0.62499999474E+02  0.99999956885E+01 0.  0.
    3000022    2    5    5    0    0 -0.13489645542E+02 -0.17667374674E+02 -0.59758330428E+00  0.22237946720E+02  0.25000755532E+00 0.  0.
        -13    1    4    4    0    0  0.15275937405E+02  0.28117409173E+02  0.40582092296E+01  0.32255589428E+02  0.10500000000E+00 0. -1.
         13    1    4    4    0    0  0.12430966453E+02  0.22856089445E+02  0.31785817453E+01  0.26211527208E+02  0.10500000000E+00 0.  1.
    3000001    1    5    5    0    0 -0.14625200676E+02 -0.36407303146E+02 -0.89802380113E+01  0.40262052754E+02  0.10000000000E+01 0.  1.
        -13    1    6    6    0    0 -0.60242920882E+01 -0.79832504629E+01 -0.30412879510E+00  0.10006393078E+02  0.10500000000E+00 0. -1.
         13    1    6    6    0    0 -0.74653534540E+01 -0.96841242115E+01 -0.29345450918E+00  0.12231553642E+02  0.10500000000E+00 0.  1.
</event>
<event>
11    0  0.3482988E-009  0.9118800E+02  0.7816531E-02  0.1126479E+00
         25   -1    0    0    0    0  0.00000000000E+00  0.00000000000E+00  0.99999998245E-14  0.12500000000E+03  0.12500000000E+03 0.  0.
    3000001    1    3    3    0    0  0.94289322787E+01  0.12764372487E+02 -0.12380043073E+02  0.20151908977E+02  0.10000000000E+01 0.  1.
    1000022    2    1    0    0    0  0.25866192877E+02  0.48589865772E+02 -0.27860635503E+02  0.62499999192E+02  0.99999949309E+01 0.  0.
    3000022    2    3    3    0    0  0.16437260599E+02  0.35825493284E+02 -0.15480592430E+02  0.42348090215E+02  0.24999559833E+00 0.  0.
    1000022    2    1    0    0    0 -0.25866192877E+02 -0.48589865772E+02  0.27860635503E+02  0.62500000808E+02  0.10000005036E+02 0.  0.
    3000022    2    5    5    0    0 -0.50792446338E+00  0.20028018638E+00 -0.34570299893E+00  0.69290047781E+00  0.25000219026E+00 0.  0.
        -13    1    4    4    0    0  0.61057168514E+01  0.13292725008E+02 -0.58088980340E+01  0.15739461166E+02  0.10500000000E+00 0.  1.
         13    1    4    4    0    0  0.10331543747E+02  0.22532768276E+02 -0.96716943956E+01  0.26608629049E+02  0.10500000000E+00 0. -1.
    3000001    1    5    5    0    0 -0.25358268414E+02 -0.48790145958E+02  0.28206338502E+02  0.61807100331E+02  0.10000000000E+01 0.  1.
        -13    1    6    6    0    0 -0.28785945437E+00  0.52112634933E-01 -0.13845695982E+00  0.34025596529E+00  0.10500000000E+00 0.  1.
         13    1    6    6    0    0 -0.22006500901E+00  0.14816755144E+00 -0.20724603911E+00  0.35264451253E+00  0.10500000000E+00 0. -1.
</event>
<event>
11    0  0.3482988E-009  0.9118800E+02  0.7816531E-02  0.1126479E+00
         25   -1    0    0    0    0  0.00000000000E+00  0.00000000000E+00  0.99999998245E-14  0.12500000000E+03  0.12500000000E+03 0.  0.
    3000001    1    3    3    0    0 -0.51697253318E+02  0.26763330768E+01  0.23218200026E+02  0.56743753593E+02  0.10000000000E+01 0.  1.
    1000022    2    1    0    0    0 -0.55541446497E+02  0.56952514544E+01  0.26248082146E+02  0.62500000066E+02  0.10000001195E+02 0.  0.
    3000022    2    3    3    0    0 -0.38441931786E+01  0.30189183775E+01  0.30298821193E+01  0.57562464732E+01  0.24999687797E+00 0.  0.
    1000022    2    1    0    0    0  0.55541446497E+02 -0.56952514544E+01 -0.26248082146E+02  0.62499999934E+02  0.10000000365E+02 0.  0.
    3000022    2    5    5    0    0  0.17116140376E+02 -0.61356900279E+01 -0.67481426337E+01  0.19396104778E+02  0.24999613445E+00 0.  0.
        -13    1    4    4    0    0 -0.19338096350E+01  0.14653540693E+01  0.14411030412E+01  0.28239485173E+01  0.10500000000E+00 0. -1.
         13    1    4    4    0    0 -0.19103835436E+01  0.15535643083E+01  0.15887790780E+01  0.29322979560E+01  0.10500000000E+00 0.  1.
    3000001    1    5    5    0    0  0.38425306120E+02  0.44043857357E+00 -0.19499939512E+02  0.43103895155E+02  0.10000000000E+01 0. -1.
        -13    1    6    6    0    0  0.71234257339E+01 -0.26170577736E+01 -0.27903798644E+01  0.80863731279E+01  0.10500000000E+00 0.  1.
         13    1    6    6    0    0  0.99927146424E+01 -0.35186322543E+01 -0.39577627693E+01  0.11309731650E+02  0.10500000000E+00 0. -1.
</event>
<event>
11    0  0.3482988E-009  0.9118800E+02  0.7816531E-02  0.1126479E+00
         25   -1    0    0    0    0  0.00000000000E+00  0.00000000000E+00  0.99999998245E-14  0.12500000000E+03  0.12500000000E+03 0.  0.
    3000001    1    3    3    0    0 -0.17523949806E-01 -0.21046405005E+01  0.10652170023E+01  0.25621291901E+01  0.10000000000E+01 0. -1.
    1000022    2    1    0    0    0 -0.40675312915E+02 -0.43148065949E+02  0.17029781142E+02  0.62500000349E+02  0.99999960994E+01 0.  0.
    3000022    2    3    3    0    0 -0.40657788965E+02 -0.41043425449E+02  0.15964564140E+02  0.59937871159E+02  0.25002955600E+00 0.  0.
    1000022    2    1    0    0    0  0.40675312915E+02  0.43148065949E+02 -0.17029781142E+02  0.62499999651E+02  0.99999917405E+01 0.  0.
    3000022    2    5    5    0    0  0.18889977671E+02  0.15229077870E+02 -0.10664795618E+02  0.26505781119E+02  0.24999594410E+00 0.  0.
        -13    1    4    4    0    0 -0.26724912837E+02 -0.27033410906E+02  0.10545246941E+02  0.39449201885E+02  0.10500000000E+00 0. -1.
         13    1    4    4    0    0 -0.13932876128E+02 -0.14010014543E+02  0.54193171985E+01  0.20488669273E+02  0.10500000000E+00 0.  1.
    3000001    1    5    5    0    0  0.21785335243E+02  0.27918988079E+02 -0.63649855247E+01  0.35994218532E+02  0.10000000000E+01 0.  1.
        -13    1    6    6    0    0  0.14399324872E+02  0.11605325016E+02 -0.81094377511E+01  0.20194012259E+02  0.10500000000E+00 0.  1.
         13    1    6    6    0    0  0.44906527996E+01  0.36237528545E+01 -0.25553578665E+01  0.63117688601E+01  0.10500000000E+00 0. -1.
</event>
<event>
11    0  0.3482988E-009  0.9118800E+02  0.7816531E-02  0.1126479E+00
         25   -1    0    0    0    0  0.00000000000E+00  0.00000000000E+00  0.99999998245E-14  0.12500000000E+03  0.12500000000E+03 0.  0.
    3000001    1    3    3    0    0 -0.32225382045E+02  0.23282460201E+02  0.36042412128E+02  0.53671255556E+02  0.10000000000E+01 0. -1.
    1000022    2    1    0    0    0 -0.40036691495E+02  0.24775280768E+02  0.39868521819E+02  0.62499997333E+02  0.99999715801E+01 0.  0.
    3000022    2    3    3    0    0 -0.78113094503E+01  0.14928205667E+01  0.38261096915E+01  0.88287417774E+01  0.24999485615E+00 0.  0.
    1000022    2    1    0    0    0  0.40036691495E+02 -0.24775280768E+02 -0.39868521819E+02  0.62500002667E+02  0.10000004912E+02 0.  0.
    3000022    2    5    5    0    0  0.24678687396E+02 -0.10953767199E+02 -0.26729873275E+02  0.37994358157E+02  0.24999810053E+00 0.  0.
        -13    1    4    4    0    0 -0.37053654922E+01  0.64081855866E+00  0.17940247678E+01  0.41677250057E+01  0.10500000000E+00 0. -1.
         13    1    4    4    0    0 -0.41059439581E+01  0.85200200801E+00  0.20320849237E+01  0.46610167716E+01  0.10500000000E+00 0.  1.
    3000001    1    5    5    0    0  0.15358004100E+02 -0.13821513569E+02 -0.13138648545E+02  0.24505644510E+02  0.10000000000E+01 0.  1.
        -13    1    6    6    0    0  0.10960094221E+02 -0.47922697825E+01 -0.11847472422E+02  0.16836363705E+02  0.10500000000E+00 0.  1.
         13    1    6    6    0    0  0.13718593174E+02 -0.61614974169E+01 -0.14882400852E+02  0.21157994452E+02  0.10500000000E+00 0. -1.
</event>
<event>
11    0  0.3482988E-009  0.9118800E+02  0.7816531E-02  0.1126479E+00
         25   -1    0    0    0    0  0.00000000000E+00  0.00000000000E+00  0.99999998245E-14  0.12500000000E+03  0.12500000000E+03 0.  0.
    3000001    1    3    3    0    0 -0.23774295409E+01  0.14602347591E+01 -0.40181002320E+02  0.40290165105E+02  0.10000000000E+01 0.  1.
    1000022    2    1    0    0    0 -0.39883870900E+01 -0.50246005708E+01 -0.61360379687E+02  0.62500000416E+02  0.10000000712E+02 0.  0.
    3000022    2    3    3    0    0 -0.16109575492E+01 -0.64848353299E+01 -0.21179377367E+02  0.22209835311E+02  0.24997082560E+00 0.  0.
    1000022    2    1    0    0    0  0.39883870900E+01  0.50246005708E+01  0.61360379687E+02  0.62499999584E+02  0.99999955119E+01 0.  0.
    3000022    2    5    5    0    0 -0.27831217458E+00 -0.16450647399E+01  0.32862386011E+02  0.32905662262E+02  0.24999784792E+00 0.  0.
        -13    1    4    4    0    0 -0.68787050967E+00 -0.27491786673E+01 -0.92004093330E+01  0.96275493287E+01  0.10500000000E+00 0.  1.
         13    1    4    4    0    0 -0.92308703949E+00 -0.37356566626E+01 -0.11978968034E+02  0.12582285982E+02  0.10500000000E+00 0. -1.
    3000001    1    5    5    0    0  0.42666992646E+01  0.66696653107E+01  0.28497993676E+02  0.29594337322E+02  0.10000000000E+01 0.  1.
        -13    1    6    6    0    0 -0.17625864718E+00 -0.75245388813E+00  0.16130569271E+02  0.16149413115E+02  0.10500000000E+00 0.  1.
         13    1    6    6    0    0 -0.10205352739E+00 -0.89261085176E+00  0.16731816740E+02  0.16756249147E+02  0.10500000000E+00 0. -1.
</event>
<event>
11    0  0.3482988E-009  0.9118800E+02  0.7816531E-02  0.1126479E+00
         25   -1    0    0    0    0  0.00000000000E+00  0.00000000000E+00  0.99999998245E-14  0.12500000000E+03  0.12500000000E+03 0.  0.
    3000001    1    3    3    0    0  0.40528588396E+02 -0.31808815580E+02  0.12286540003E+02  0.52974770327E+02  0.10000000000E+01 0.  1.
    1000022    2    1    0    0    0  0.45642375433E+02 -0.37358521368E+02  0.18093216618E+02  0.62500002470E+02  0.10000013360E+02 0.  0.
    3000022    2    3    3    0    0  0.51137870374E+01 -0.55497057883E+01  0.58066766146E+01  0.95252321432E+01  0.25000374782E+00 0.  0.
    1000022    2    1    0    0    0 -0.45642375433E+02  0.37358521368E+02 -0.18093216618E+02  0.62499997530E+02  0.99999824844E+01 0.  0.
    3000022    2    5    5    0    0 -0.42197816111E+02  0.36804739623E+02 -0.18175394817E+02  0.58869788665E+02  0.24999498441E+00 0.  0.
        -13    1    4    4    0    0  0.21556625574E+01 -0.22460306355E+01  0.23818110470E+01  0.39211711950E+01  0.10500000000E+00 0. -1.
         13    1    4    4    0    0  0.29581244800E+01 -0.33036751528E+01  0.34248655676E+01  0.56040609481E+01  0.10500000000E+00 0.  1.
    3000001    1    5    5    0    0 -0.34445593223E+01  0.55378174544E+00  0.82178199634E-01  0.36302088649E+01  0.10000000000E+01 0. -1.
        -13    1    6    6    0    0 -0.19941123363E+02  0.17424081110E+02 -0.86621574012E+01  0.27861999198E+02  0.10500000000E+00 0.  1.
         13    1    6    6    0    0 -0.22256692748E+02  0.19380658513E+02 -0.95132374161E+01  0.31007789467E+02  0.10500000000E+00 0. -1.
</event>
<event>
11    0  0.3482988E-009  0.9118800E+02  0.7816531E-02  0.1126479E+00
         25   -1    0    0    0    0  0.00000000000E+00  0.00000000000E+00  0.99999998245E-14  0.12500000000E+03  0.12500000000E+03 0.  0.
    3000001    1    3    3    0    0 -0.30683978715E+02  0.78235481141E+01  0.23856471022E+02  0.39659118302E+02  0.10000000000E+01 0. -1.
    1000022    2    1    0    0    0 -0.49132082114E+02  0.48713686789E+01  0.36994030055E+02  0.62499999440E+02  0.99999972305E+01 0.  0.
    3000022    2    3    3    0    0 -0.18448103400E+02 -0.29521794352E+01  0.13137559033E+02  0.22840881138E+02  0.25002272964E+00 0.  0.
    1000022    2    1    0    0    0  0.49132082114E+02 -0.48713686789E+01 -0.36994030055E+02  0.62500000560E+02  0.10000004228E+02 0.  0.
    3000022    2    5    5    0    0  0.19734954345E+02 -0.65958900079E+01 -0.17277062039E+02  0.27046877669E+02  0.25006198069E+00 0.  0.
        -13    1    4    4    0    0 -0.12474038560E+02 -0.19726561069E+01  0.88237897076E+01  0.15406599233E+02  0.10500000000E+00 0. -1.
         13    1    4    4    0    0 -0.59740648392E+01 -0.97952332835E+00  0.43137693253E+01  0.74342819052E+01  0.10500000000E+00 0.  1.
    3000001    1    5    5    0    0  0.29397127770E+02  0.17245213290E+01 -0.19716968017E+02  0.35453122890E+02  0.10000000000E+01 0. -1.
        -13    1    6    6    0    0  0.10101410167E+02 -0.33298824280E+01 -0.87638934792E+01  0.13781997615E+02  0.10500000000E+00 0. -1.
         13    1    6    6    0    0  0.96335441772E+01 -0.32660075799E+01 -0.85131685594E+01  0.13264880054E+02  0.10500000000E+00 0.  1.
</event>
<event>
11    0  0.3482988E-009  0.9118800E+02  0.7816531E-02  0.1126479E+00
         25   -1    0    0    0    0  0.00000000000E+00  0.00000000000E+00  0.99999998245E-14  0.12500000000E+03  0.12500000000E+03 0.  0.
    3000001    1    3    3    0    0  0.28669760856E+01  0.86734193872E+01 -0.25643343118E+00  0.91931231823E+01  0.10000000000E+01 0.  1.
    1000022    2    1    0    0    0  0.20061605745E+02  0.54416832334E+02  0.21037828172E+02  0.62500000730E+02  0.10000010538E+02 0.  0.
    3000022    2    3    3    0    0  0.17194629659E+02  0.45743412947E+02  0.21294261603E+02  0.53306877548E+02  0.24999907048E+00 0.  0.
    1000022    2    1    0    0    0 -0.20061605745E+02 -0.54416832334E+02 -0.21037828172E+02  0.62499999270E+02  0.10000001407E+02 0.  0.
    3000022    2    5    5    0    0 -0.70336511278E+01 -0.15801275907E+02 -0.17044120312E+01  0.17381601921E+02  0.24999293623E+00 0.  0.
        -13    1    4    4    0    0  0.12155646560E+02  0.32423080367E+02  0.15122675712E+02  0.37785211782E+02  0.10500000000E+00 0. -1.
         13    1    4    4    0    0  0.50389830998E+01  0.13320332580E+02  0.61715858914E+01  0.15521665766E+02  0.10500000000E+00 0.  1.
    3000001    1    5    5    0    0 -0.13027954617E+02 -0.38615556427E+02 -0.19333416141E+02  0.45118397349E+02  0.10000000000E+01 0.  1.
        -13    1    6    6    0    0 -0.19973159287E+01 -0.45331778694E+01 -0.45068080984E+00  0.49752498136E+01  0.10500000000E+00 0.  1.
         13    1    6    6    0    0 -0.50363351991E+01 -0.11268098038E+02 -0.12537312214E+01  0.12406352107E+02  0.10500000000E+00 0. -1.
</event>
<event>
11    0  0.3482988E-009  0.9118800E+02  0.7816531E-02  0.1126479E+00
         25   -1    0    0    0    0  0.00000000000E+00  0.00000000000E+00  0.99999998245E-14  0.12500000000E+03  0.12500000000E+03 0.  0.
    3000001    1    3    3    0    0  0.42748863285E+02 -0.37268125727E+02 -0.57789777220E+01  0.57015568847E+02  0.10000000000E+01 0.  1.
    1000022    2    1    0    0    0  0.44395453817E+02 -0.42155989466E+02 -0.76266809012E+01  0.62499999201E+02  0.99999935531E+01 0.  0.
    3000022    2    3    3    0    0  0.16465905318E+01 -0.48878637396E+01 -0.18477031792E+01  0.54844303547E+01  0.24999392202E+00 0.  0.
    1000022    2    1    0    0    0 -0.44395453817E+02  0.42155989466E+02  0.76266809012E+01  0.62500000799E+02  0.10000003537E+02 0.  0.
    3000022    2    5    5    0    0 -0.15047192942E+02  0.13742754695E+02 -0.21275827308E+01  0.20490740087E+02  0.24999795920E+00 0.  0.
        -13    1    4    4    0    0  0.54315286376E+00 -0.15182529944E+01 -0.61959366537E+00  0.17306150637E+01  0.10500000000E+00 0.  1.
         13    1    4    4    0    0  0.11034376680E+01 -0.33696107451E+01 -0.12281095138E+01  0.37538152910E+01  0.10500000000E+00 0. -1.
    3000001    1    5    5    0    0 -0.29348260875E+02  0.28413234771E+02  0.97542636320E+01  0.42009260712E+02  0.10000000000E+01 0. -1.
        -13    1    6    6    0    0 -0.75694495676E+01  0.70049012428E+01 -0.10724369080E+01  0.10369491506E+02  0.10500000000E+00 0.  1.
         13    1    6    6    0    0 -0.74777433747E+01  0.67378534526E+01 -0.10551458228E+01  0.10121248581E+02  0.10500000000E+00 0. -1.
</event>
<event>
11    0  0.3482988E-009  0.9118800E+02  0.7816531E-02  0.1126479E+00
         25   -1    0    0    0    0  0.00000000000E+00  0.00000000000E+00  0.99999998245E-14  0.12500000000E+03  0.12500000000E+03 0.  0.
    3000001    1    3    3    0    0 -0.28143316371E+01 -0.25624714952E+01 -0.77056439404E+00  0.40100489040E+01  0.10000000000E+01 0. -1.
    1000022    2    1    0    0    0 -0.41281765192E+02 -0.20429862725E+02 -0.41044932936E+02  0.62500000026E+02  0.10000002758E+02 0.  0.
    3000022    2    3    3    0    0 -0.38467433555E+02 -0.17867391230E+02 -0.40274368542E+02  0.58489951122E+02  0.25001420685E+00 0.  0.
    1000022    2    1    0    0    0  0.41281765192E+02  0.20429862725E+02  0.41044932936E+02  0.62499999974E+02  0.10000002439E+02 0.  0.
    3000022    2    5    5    0    0  0.29674710298E+02  0.17093089006E+02  0.34962274487E+02  0.48940629931E+02  0.24999545289E+00 0.  0.
        -13    1    4    4    0    0 -0.24964364880E+02 -0.11541305019E+02 -0.26154418083E+02  0.37953732961E+02  0.10500000000E+00 0.  1.
         13    1    4    4    0    0 -0.13503068675E+02 -0.63260862112E+01 -0.14119950458E+02  0.20536218160E+02  0.10500000000E+00 0. -1.
    3000001    1    5    5    0    0  0.11607054894E+02  0.33367737192E+01  0.60826584487E+01  0.13559370043E+02  0.10000000000E+01 0.  1.
        -13    1    6    6    0    0  0.87707931546E+01  0.50096557521E+01  0.10276823233E+02  0.14409982098E+02  0.10500000000E+00 0. -1.
         13    1    6    6    0    0  0.20903917143E+02  0.12083433254E+02  0.24685451254E+02  0.34530647833E+02  0.10500000000E+00 0.  1.
</event>
<event>
11    0  0.3482988E-009  0.9118800E+02  0.7816531E-02  0.1126479E+00
         25   -1    0    0    0    0  0.00000000000E+00  0.00000000000E+00  0.99999998245E-14  0.12500000000E+03  0.12500000000E+03 0.  0.
    3000001    1    3    3    0    0  0.73438570536E+01  0.12026447582E+02 -0.29263435307E+02  0.32494866115E+02  0.10000000000E+01 0.  1.
    1000022    2    1    0    0    0  0.15091611585E+02  0.13864751532E+02 -0.58191597678E+02  0.62500001428E+02  0.10000003145E+02 0.  0.
    3000022    2    3    3    0    0  0.77477545315E+01  0.18383039503E+01 -0.28928162371E+02  0.30005135313E+02  0.25001059698E+00 0.  0.
    1000022    2    1    0    0    0 -0.15091611585E+02 -0.13864751532E+02  0.58191597678E+02  0.62499998572E+02  0.99999852939E+01 0.  0.
    3000022    2    5    5    0    0 -0.15523513200E+02 -0.10177317289E+02  0.43132059640E+02  0.46957366999E+02  0.24999478354E+00 0.  0.
        -13    1    4    4    0    0  0.57153174896E+01  0.13259088985E+01 -0.21365701286E+02  0.22156874889E+02  0.10500000000E+00 0.  1.
         13    1    4    4    0    0  0.20324370419E+01  0.51239505182E+00 -0.75624610855E+01  0.78482604243E+01  0.10500000000E+00 0. -1.
    3000001    1    5    5    0    0  0.43190161475E+00 -0.36874342429E+01  0.15059538038E+02  0.15542631573E+02  0.10000000000E+01 0. -1.
        -13    1    6    6    0    0 -0.57117930042E+01 -0.37557425222E+01  0.15737187087E+02  0.17158096154E+02  0.10500000000E+00 0. -1.
         13    1    6    6    0    0 -0.98117201956E+01 -0.64215747672E+01  0.27394872554E+02  0.29799270845E+02  0.10500000000E+00 0.  1.
</event>
<event>
11    0  0.3482988E-009  0.9118800E+02  0.7816531E-02  0.1126479E+00
         25   -1    0    0    0    0  0.00000000000E+00  0.00000000000E+00  0.99999998245E-14  0.12500000000E+03  0.12500000000E+03 0.  0.
    3000001    1    3    3    0    0 -0.30210273865E+02  0.87776466008E+01 -0.51242012241E+01  0.31889891267E+02  0.10000000000E+01 0. -1.
    1000022    2    1    0    0    0 -0.60571597555E+02  0.76790072757E+01 -0.88523748631E+01  0.62500000098E+02  0.99999944201E+01 0.  0.
    3000022    2    3    3    0    0 -0.30361323691E+02 -0.10986393251E+01 -0.37281736389E+01  0.30610108831E+02  0.24999872600E+00 0.  0.
    1000022    2    1    0    0    0  0.60571597555E+02 -0.76790072757E+01  0.88523748631E+01  0.62499999902E+02  0.99999931918E+01 0.  0.
    3000022    2    5    5    0    0  0.29166739397E+02 -0.34643121948E+01 -0.72800200279E+00  0.29381841869E+02  0.24999734593E+00 0.  0.
        -13    1    4    4    0    0 -0.14261653167E+02 -0.46308461055E+00 -0.17930264298E+01  0.14381765093E+02  0.10500000000E+00 0.  1.
         13    1    4    4    0    0 -0.16099670523E+02 -0.63555471455E+00 -0.19351472091E+01  0.16228343738E+02  0.10500000000E+00 0. -1.
    3000001    1    5    5    0    0  0.31404858159E+02 -0.42146950809E+01  0.95803768659E+01  0.33118158033E+02  0.10000000000E+01 0.  1.
        -13    1    6    6    0    0  0.12383260141E+02 -0.15347969707E+01 -0.29470044467E+00  0.12481931213E+02  0.10500000000E+00 0. -1.
         13    1    6    6    0    0  0.16783479256E+02 -0.19295152241E+01 -0.43330155812E+00  0.16899910656E+02  0.10500000000E+00 0.  1.
</event>
<event>
11    0  0.3482988E-009  0.9118800E+02  0.7816531E-02  0.1126479E+00
         25   -1    0    0    0    0  0.00000000000E+00  0.00000000000E+00  0.99999998245E-14  0.12500000000E+03  0.12500000000E+03 0.  0.
    3000001    1    3    3    0    0  0.65008985536E+01  0.32029473477E+01  0.82714809993E+01  0.11042551863E+02  0.10000000000E+01 0. -1.
    1000022    2    1    0    0    0  0.44299862715E+02  0.29685713870E+02  0.31024684527E+02  0.62500004068E+02  0.10000000701E+02 0.  0.
    3000022    2    3    3    0    0  0.37798964161E+02  0.26482766523E+02  0.22753203527E+02  0.51457452206E+02  0.25000477723E+00 0.  0.
    1000022    2    1    0    0    0 -0.44299862715E+02 -0.29685713870E+02 -0.31024684527E+02  0.62499995932E+02  0.99999498455E+01 0.  0.
    3000022    2    5    5    0    0 -0.30801030249E+02 -0.25779765942E+02 -0.22782154785E+02  0.46177796211E+02  0.24997972356E+00 0.  0.
        -13    1    4    4    0    0  0.25092038236E+02  0.17616094742E+02  0.15164694633E+02  0.34204037263E+02  0.10500000000E+00 0. -1.
         13    1    4    4    0    0  0.12706925926E+02  0.88666717804E+01  0.75885088939E+01  0.17253414943E+02  0.10500000000E+00 0.  1.
    3000001    1    5    5    0    0 -0.13498832466E+02 -0.39059479282E+01 -0.82425297419E+01  0.16322199721E+02  0.10000000000E+01 0.  1.
        -13    1    6    6    0    0 -0.20957994259E+02 -0.17476360619E+02 -0.15489455152E+02  0.31378256002E+02  0.10500000000E+00 0. -1.
         13    1    6    6    0    0 -0.98430359893E+01 -0.83034053234E+01 -0.72926996327E+01  0.14799540209E+02  0.10500000000E+00 0.  1.
</event>
<event>
11    0  0.3482988E-009  0.9118800E+02  0.7816531E-02  0.1126479E+00
         25   -1    0    0    0    0  0.00000000000E+00  0.00000000000E+00  0.99999998245E-14  0.12500000000E+03  0.12500000000E+03 0.  0.
    3000001    1    3    3    0    0  0.45966872209E+02 -0.35170929658E+01 -0.98575441648E+01  0.47153944274E+02  0.10000000000E+01 0.  1.
    1000022    2    1    0    0    0  0.59336503851E+02 -0.10070254530E+02 -0.13565372366E+02  0.62500001317E+02  0.10000006084E+02 0.  0.
    3000022    2    3    3    0    0  0.13369631641E+02 -0.65531615639E+01 -0.37078282012E+01  0.15346057043E+02  0.25000017789E+00 0.  0.
    1000022    2    1    0    0    0 -0.59336503851E+02  0.10070254530E+02  0.13565372366E+02  0.62499998683E+02  0.99999896201E+01 0.  0.
    3000022    2    5    5    0    0 -0.25702784835E+02  0.20566895315E+01  0.13667775851E+01  0.25822348902E+02  0.25000350575E+00 0.  0.
        -13    1    4    4    0    0  0.56756815207E+01 -0.28267679655E+01 -0.16319573793E+01  0.65481514753E+01  0.10500000000E+00 0. -1.
         13    1    4    4    0    0  0.76939501207E+01 -0.37263935984E+01 -0.20758708219E+01  0.87979055677E+01  0.10500000000E+00 0.  1.
    3000001    1    5    5    0    0 -0.33633719016E+02  0.80135649982E+01  0.12198594781E+02  0.36677649781E+02  0.10000000000E+01 0.  1.
        -13    1    6    6    0    0 -0.16888753272E+02  0.14055360091E+01  0.88627945179E+00  0.16970622700E+02  0.10500000000E+00 0. -1.
         13    1    6    6    0    0 -0.88140315626E+01  0.65115352240E+00  0.48049813335E+00  0.88517262018E+01  0.10500000000E+00 0.  1.
</event>
<event>
11    0  0.3482988E-009  0.9118800E+02  0.7816531E-02  0.1126479E+00
         25   -1    0    0    0    0  0.00000000000E+00  0.00000000000E+00  0.99999998245E-14  0.12500000000E+03  0.12500000000E+03 0.  0.
    3000001    1    3    3    0    0  0.99978536675E+00 -0.26251889471E+01 -0.19916319216E+01  0.35857754390E+01  0.10000000000E+01 0. -1.
    1000022    2    1    0    0    0  0.44785482329E+02 -0.41107858841E+02 -0.10519243175E+02  0.62499999482E+02  0.99999986201E+01 0.  0.
    3000022    2    3    3    0    0  0.43785696962E+02 -0.38482669894E+02 -0.85276112532E+01  0.58914224043E+02  0.25000065247E+00 0.  0.
    1000022    2    1    0    0    0 -0.44785482329E+02  0.41107858841E+02  0.10519243175E+02  0.62500000518E+02  0.10000005092E+02 0.  0.
    3000022    2    5    5    0    0 -0.31545528634E+02  0.25889950802E+02  0.28950802190E+01  0.40912759849E+02  0.24999927914E+00 0.  0.
        -13    1    4    4    0    0  0.10894210223E+02 -0.95737840359E+01 -0.21475547909E+01  0.14661656582E+02  0.10500000000E+00 0. -1.
         13    1    4    4    0    0  0.32891486739E+02 -0.28908885858E+02 -0.63800564623E+01  0.44252567461E+02  0.10500000000E+00 0.  1.
    3000001    1    5    5    0    0 -0.13239953695E+02  0.15217908039E+02  0.76241629558E+01  0.21587240669E+02  0.10000000000E+01 0.  1.
        -13    1    6    6    0    0 -0.91981028925E+01  0.75856746782E+01  0.81260498846E+00  0.11950686550E+02  0.10500000000E+00 0.  1.
         13    1    6    6    0    0 -0.22347425742E+02  0.18304276124E+02  0.20824752306E+01  0.28962073299E+02  0.10500000000E+00 0. -1.
</event>
<event>
11    0  0.3482988E-009  0.9118800E+02  0.7816531E-02  0.1126479E+00
         25   -1    0    0    0    0  0.00000000000E+00  0.00000000000E+00  0.99999998245E-14  0.12500000000E+03  0.12500000000E+03 0.  0.
    3000001    1    3    3    0    0  0.45730257580E+01 -0.14728363997E+02 -0.30765538387E+02  0.34428993927E+02  0.10000000000E+01 0. -1.
    1000022    2    1    0    0    0  0.15987490784E+02 -0.22202555397E+02 -0.55296443565E+02  0.62499999667E+02  0.99999979831E+01 0.  0.
    3000022    2    3    3    0    0  0.11414465026E+02 -0.74741914001E+01 -0.24530905178E+02  0.28071005739E+02  0.25001089002E+00 0.  0.
    1000022    2    1    0    0    0 -0.15987490784E+02  0.22202555397E+02  0.55296443565E+02  0.62500000333E+02  0.10000002147E+02 0.  0.
    3000022    2    5    5    0    0  0.62759693074E+00  0.22956089507E+01  0.10142473457E+02  0.10420938580E+02  0.24998938369E+00 0.  0.
        -13    1    4    4    0    0  0.76308384316E+01 -0.50502684935E+01 -0.16507977555E+02  0.18874831257E+02  0.10500000000E+00 0. -1.
         13    1    4    4    0    0  0.37836265942E+01 -0.24239229067E+01 -0.80229276230E+01  0.91961744821E+01  0.10500000000E+00 0.  1.
    3000001    1    5    5    0    0 -0.16615087715E+02  0.19906946447E+02  0.45153970108E+02  0.52079061753E+02  0.10000000000E+01 0. -1.
        -13    1    6    6    0    0  0.23438882449E+00  0.70683272299E+00  0.30630170712E+01  0.31539894099E+01  0.10500000000E+00 0. -1.
         13    1    6    6    0    0  0.39320810626E+00  0.15887762277E+01  0.70794563861E+01  0.72669491700E+01  0.10500000000E+00 0.  1.
</event>
<event>
11    0  0.3482988E-009  0.9118800E+02  0.7816531E-02  0.1126479E+00
         25   -1    0    0    0    0  0.00000000000E+00  0.00000000000E+00  0.99999998245E-14  0.12500000000E+03  0.12500000000E+03 0.  0.
    3000001    1    3    3    0    0  0.25037564825E+02 -0.19680201130E+02 -0.26347996897E+02  0.41344974415E+02  0.10000000000E+01 0. -1.
    1000022    2    1    0    0    0  0.36632282385E+02 -0.23833531828E+02 -0.43546397427E+02  0.62500000433E+02  0.99999986532E+01 0.  0.
    3000022    2    3    3    0    0  0.11594717560E+02 -0.41533306979E+01 -0.17198400530E+02  0.21155026018E+02  0.25002765088E+00 0.  0.
    1000022    2    1    0    0    0 -0.36632282385E+02  0.23833531828E+02  0.43546397427E+02  0.62499999567E+02  0.99999932454E+01 0.  0.
    3000022    2    5    5    0    0 -0.19209113750E+02  0.15990926369E+02  0.30045533588E+02  0.39083198119E+02  0.25001885274E+00 0.  0.
        -13    1    4    4    0    0  0.28890138984E+01 -0.10610324019E+01 -0.43154351748E+01  0.53015277808E+01  0.10500000000E+00 0.  1.
         13    1    4    4    0    0  0.87057036613E+01 -0.30922982959E+01 -0.12882965356E+02  0.15853498237E+02  0.10500000000E+00 0. -1.
    3000001    1    5    5    0    0 -0.17423168635E+02  0.78426054595E+01  0.13500863839E+02  0.23416801448E+02  0.10000000000E+01 0. -1.
        -13    1    6    6    0    0 -0.10143174581E+02  0.83681006678E+01  0.15860411118E+02  0.20602736838E+02  0.10500000000E+00 0.  1.
         13    1    6    6    0    0 -0.90659391688E+01  0.76228257010E+01  0.14185122470E+02  0.18480461281E+02  0.10500000000E+00 0. -1.
</event>
<event>
11    0  0.3482988E-009  0.9118800E+02  0.7816531E-02  0.1126479E+00
         25   -1    0    0    0    0  0.00000000000E+00  0.00000000000E+00  0.99999998245E-14  0.12500000000E+03  0.12500000000E+03 0.  0.
    3000001    1    3    3    0    0 -0.42244139188E+02 -0.33666940655E+02 -0.26440060971E+01  0.54092707060E+02  0.10000000000E+01 0. -1.
    1000022    2    1    0    0    0 -0.46303848071E+02 -0.40373990952E+02 -0.56696156292E+01  0.62499999819E+02  0.99999972201E+01 0.  0.
    3000022    2    3    3    0    0 -0.40597088824E+01 -0.67070502969E+01 -0.30256095321E+01  0.84072927587E+01  0.24999718885E+00 0.  0.
    1000022    2    1    0    0    0  0.46303848071E+02  0.40373990952E+02  0.56696156292E+01  0.62500000181E+02  0.99999994877E+01 0.  0.
    3000022    2    5    5    0    0  0.21994839998E+02  0.24538460143E+02  0.58554313572E+01  0.33470249287E+02  0.24999651516E+00 0.  0.
        -13    1    4    4    0    0 -0.28583592298E+01 -0.46881663628E+01 -0.20731538967E+01  0.58701033561E+01  0.10500000000E+00 0. -1.
         13    1    4    4    0    0 -0.12013496527E+01 -0.20188839341E+01 -0.95245563543E+00  0.25371894026E+01  0.10500000000E+00 0.  1.
    3000001    1    5    5    0    0  0.24309008073E+02  0.15835530809E+02 -0.18581572796E+00  0.29029750894E+02  0.10000000000E+01 0.  1.
        -13    1    6    6    0    0  0.12266220114E+02  0.13778567334E+02  0.32995714719E+01  0.18740524820E+02  0.10500000000E+00 0.  1.
         13    1    6    6    0    0  0.97286198843E+01  0.10759892809E+02  0.25558598853E+01  0.14729724467E+02  0.10500000000E+00 0. -1.
</event>
<event>
11    0  0.3482988E-009  0.9118800E+02  0.7816531E-02  0.1126479E+00
         25   -1    0    0    0    0  0.00000000000E+00  0.00000000000E+00  0.99999998245E-14  0.12500000000E+03  0.12500000000E+03 0.  0.
    3000001    1    3    3    0    0 -0.11094871954E+02 -0.12563382793E+02 -0.36131863685E+02  0.39842770288E+02  0.10000000000E+01 0. -1.
    1000022    2    1    0    0    0 -0.18682378139E+02 -0.25945993528E+02 -0.52763852389E+02  0.62500000227E+02  0.10000003818E+02 0.  0.
    3000022    2    3    3    0    0 -0.75875061849E+01 -0.13382610735E+02 -0.16631988704E+02  0.22657229939E+02  0.25000012467E+00 0.  0.
    1000022    2    1    0    0    0  0.18682378139E+02  0.25945993528E+02  0.52763852389E+02  0.62499999773E+02  0.10000000982E+02 0.  0.
    3000022    2    5    5    0    0  0.13803061360E+02  0.23720663748E+02  0.38952697503E+02  0.47650493918E+02  0.25007261451E+00 0.  0.
        -13    1    4    4    0    0 -0.54419710479E+01 -0.96560778439E+01 -0.12022617430E+02  0.16352652478E+02  0.10500000000E+00 0. -1.
         13    1    4    4    0    0 -0.21455351370E+01 -0.37265328911E+01 -0.46093712747E+01  0.63045774609E+01  0.10500000000E+00 0.  1.
    3000001    1    5    5    0    0  0.48793167785E+01  0.22253297801E+01  0.13811154886E+02  0.14849505855E+02  0.10000000000E+01 0.  1.
        -13    1    6    6    0    0  0.10579895153E+02  0.18199157057E+02  0.29862701833E+02  0.36536768943E+02  0.10500000000E+00 0.  1.
         13    1    6    6    0    0  0.32231662072E+01  0.55215066911E+01  0.90899956697E+01  0.11113724975E+02  0.10500000000E+00 0. -1.
</event>
<event>
11    0  0.3482988E-009  0.9118800E+02  0.7816531E-02  0.1126479E+00
         25   -1    0    0    0    0  0.00000000000E+00  0.00000000000E+00  0.99999998245E-14  0.12500000000E+03  0.12500000000E+03 0.  0.
    3000001    1    3    3    0    0 -0.15352901897E+02  0.12754202288E+02 -0.31616032701E+02  0.37402604139E+02  0.10000000000E+01 0.  1.
    1000022    2    1    0    0    0 -0.20109282725E+02  0.16304768160E+02 -0.56000190082E+02  0.62500000529E+02  0.10000003023E+02 0.  0.
    3000022    2    3    3    0    0 -0.47563808277E+01  0.35505658728E+01 -0.24384157380E+02  0.25097396389E+02  0.24999554543E+00 0.  0.
    1000022    2    1    0    0    0  0.20109282725E+02 -0.16304768160E+02  0.56000190082E+02  0.62499999471E+02  0.99999964121E+01 0.  0.
    3000022    2    5    5    0    0  0.20393078308E+01  0.25297567013E-01  0.12216220803E+02  0.12387815273E+02  0.25000026145E+00 0.  0.
        -13    1    4    4    0    0 -0.22612423847E+01  0.16482361779E+01 -0.11244944822E+02  0.11588343655E+02  0.10500000000E+00 0.  1.
         13    1    4    4    0    0 -0.24951384430E+01  0.19023296949E+01 -0.13139212558E+02  0.13509052734E+02  0.10500000000E+00 0. -1.
    3000001    1    5    5    0    0  0.18069974894E+02 -0.16330065727E+02  0.43783969279E+02  0.50112184198E+02  0.10000000000E+01 0.  1.
        -13    1    6    6    0    0  0.10655745578E+01  0.30404412961E-01  0.59862685666E+01  0.60813493501E+01  0.10500000000E+00 0.  1.
         13    1    6    6    0    0  0.97373327306E+00 -0.51068459474E-02  0.62299522363E+01  0.63064659227E+01  0.10500000000E+00 0. -1.
</event>
<event>
11    0  0.3482988E-009  0.9118800E+02  0.7816531E-02  0.1126479E+00
         25   -1    0    0    0    0  0.00000000000E+00  0.00000000000E+00  0.99999998245E-14  0.12500000000E+03  0.12500000000E+03 0.  0.
    3000001    1    3    3    0    0  0.15009338926E+02 -0.31086870340E+02 -0.38857080780E+02  0.51986022057E+02  0.10000000000E+01 0. -1.
    1000022    2    1    0    0    0  0.21235284854E+02 -0.34255120101E+02 -0.46710807649E+02  0.62500000070E+02  0.99999940815E+01 0.  0.
    3000022    2    3    3    0    0  0.62259459284E+01 -0.31682497616E+01 -0.78537268682E+01  0.10513978014E+02  0.24999739569E+00 0.  0.
    1000022    2    1    0    0    0 -0.21235284854E+02  0.34255120101E+02  0.46710807649E+02  0.62499999930E+02  0.99999932028E+01 0.  0.
    3000022    2    5    5    0    0 -0.20503698197E+02  0.33792154004E+02  0.46693395727E+02  0.61177177259E+02  0.25000176977E+00 0.  0.
        -13    1    4    4    0    0  0.18465185369E+01 -0.92302103862E+00 -0.22595923934E+01  0.30624142975E+01  0.10500000000E+00 0. -1.
         13    1    4    4    0    0  0.43794273914E+01 -0.22452287229E+01 -0.55941344748E+01  0.74515637162E+01  0.10500000000E+00 0.  1.
    3000001    1    5    5    0    0 -0.73158665662E+00  0.46296609678E+00  0.17411922006E-01  0.13228226706E+01  0.10000000000E+01 0. -1.
        -13    1    6    6    0    0 -0.11480712447E+02  0.18987512417E+02  0.26299279932E+02  0.34409236202E+02  0.10500000000E+00 0. -1.
         13    1    6    6    0    0 -0.90229857505E+01  0.14804641588E+02  0.20394115795E+02  0.26767941057E+02  0.10500000000E+00 0.  1.
</event>
<event>
11    0  0.3482988E-009  0.9118800E+02  0.7816531E-02  0.1126479E+00
         25   -1    0    0    0    0  0.00000000000E+00  0.00000000000E+00  0.99999998245E-14  0.12500000000E+03  0.12500000000E+03 0.  0.
    3000001    1    3    3    0    0 -0.16080501033E+01  0.27906411184E+02  0.30790210297E+02  0.41597964619E+02  0.10000000000E+01 0. -1.
    1000022    2    1    0    0    0  0.42668129739E+01  0.39849282263E+02  0.46905002294E+02  0.62500002974E+02  0.10000007089E+02 0.  0.
    3000022    2    3    3    0    0  0.58748630772E+01  0.11942871079E+02  0.16114791997E+02  0.20902038355E+02  0.25000105519E+00 0.  0.
    1000022    2    1    0    0    0 -0.42668129739E+01 -0.39849282263E+02 -0.46905002294E+02  0.62499997026E+02  0.99999699132E+01 0.  0.
    3000022    2    5    5    0    0 -0.41569049550E+01 -0.11062475214E+02 -0.88167294141E+01  0.14746370245E+02  0.25000231910E+00 0.  0.
        -13    1    4    4    0    0  0.42539825679E+01  0.85867554220E+01  0.11646892340E+02  0.15082767072E+02  0.10500000000E+00 0.  1.
         13    1    4    4    0    0  0.16208805093E+01  0.33561156569E+01  0.44678996563E+01  0.58192712832E+01  0.10500000000E+00 0. -1.
    3000001    1    5    5    0    0 -0.10990801887E+00 -0.28786807048E+02 -0.38088272880E+02  0.47753626781E+02  0.10000000000E+01 0.  1.
        -13    1    6    6    0    0 -0.23232924291E+01 -0.60709007102E+01 -0.49164272420E+01  0.81508162150E+01  0.10500000000E+00 0. -1.
         13    1    6    6    0    0 -0.18336125260E+01 -0.49915745041E+01 -0.39003021721E+01  0.65955540297E+01  0.10500000000E+00 0.  1.
</event>
<event>
11    0  0.3482988E-009  0.9118800E+02  0.7816531E-02  0.1126479E+00
         25   -1    0    0    0    0  0.00000000000E+00  0.00000000000E+00  0.99999998245E-14  0.12500000000E+03  0.12500000000E+03 0.  0.
    3000001    1    3    3    0    0 -0.14509774716E+02  0.10480042451E+02  0.17591306292E+02  0.25116108559E+02  0.10000000000E+01 0.  1.
    1000022    2    1    0    0    0 -0.44700280301E+02  0.21623900648E+02  0.36613412297E+02  0.62499998410E+02  0.99999851501E+01 0.  0.
    3000022    2    3    3    0    0 -0.30190505584E+02  0.11143858197E+02  0.19022106005E+02  0.37383889851E+02  0.25000110088E+00 0.  0.
    1000022    2    1    0    0    0  0.44700280301E+02 -0.21623900648E+02 -0.36613412297E+02  0.62500001590E+02  0.10000005027E+02 0.  0.
    3000022    2    5    5    0    0  0.12554975340E+02 -0.11150164179E+02 -0.13267510988E+02  0.21401937225E+02  0.25000431189E+00 0.  0.
        -13    1    4    4    0    0 -0.20730380594E+02  0.76528707864E+01  0.13004380192E+02  0.25640593597E+02  0.10500000000E+00 0. -1.
         13    1    4    4    0    0 -0.94601249904E+01  0.34909874104E+01  0.60177258127E+01  0.11743296253E+02  0.10500000000E+00 0.  1.
    3000001    1    5    5    0    0  0.32145304961E+02 -0.10473736469E+02 -0.23345901309E+02  0.41098064365E+02  0.10000000000E+01 0.  1.
        -13    1    6    6    0    0  0.57659351689E+01 -0.51423059260E+01 -0.61875904076E+01  0.98988190538E+01  0.10500000000E+00 0. -1.
         13    1    6    6    0    0  0.67890401713E+01 -0.60078582530E+01 -0.70799205809E+01  0.11503118172E+02  0.10500000000E+00 0.  1.
</event>
<event>
11    0  0.3482988E-009  0.9118800E+02  0.7816531E-02  0.1126479E+00
         25   -1    0    0    0    0  0.00000000000E+00  0.00000000000E+00  0.99999998245E-14  0.12500000000E+03  0.12500000000E+03 0.  0.
    3000001    1    3    3    0    0 -0.19456942038E+02  0.21026790766E+02 -0.11435680095E+01  0.28688085875E+02  0.10000000000E+01 0. -1.
    1000022    2    1    0    0    0 -0.38136258002E+02  0.46915238284E+02 -0.12281540443E+02  0.62499999332E+02  0.99999961577E+01 0.  0.
    3000022    2    3    3    0    0 -0.18679315963E+02  0.25888447519E+02 -0.11137972433E+02  0.33811913457E+02  0.25000375474E+00 0.  0.
    1000022    2    1    0    0    0  0.38136258002E+02 -0.46915238284E+02  0.12281540443E+02  0.62500000668E+02  0.10000004510E+02 0.  0.
    3000022    2    5    5    0    0  0.23646624208E+00 -0.31257273151E+00  0.13618719630E+01  0.14390326788E+01  0.25000362217E+00 0.  0.
        -13    1    4    4    0    0 -0.10563096921E+02  0.14558146309E+02 -0.62272136424E+01  0.19034386128E+02  0.10500000000E+00 0.  1.
         13    1    4    4    0    0 -0.81162190426E+01  0.11330301210E+02 -0.49107587908E+01  0.14777527329E+02  0.10500000000E+00 0. -1.
    3000001    1    5    5    0    0  0.37899791760E+02 -0.46602665553E+02  0.10919668480E+02  0.61060967989E+02  0.10000000000E+01 0. -1.
        -13    1    6    6    0    0  0.18526125803E+00 -0.23219546974E+00  0.80678087163E+00  0.86611595339E+00  0.10500000000E+00 0. -1.
         13    1    6    6    0    0  0.51204984044E-01 -0.80377261767E-01  0.55509109136E+00  0.57291672546E+00  0.10500000000E+00 0.  1.
</event>
<event>
11    0  0.3482988E-009  0.9118800E+02  0.7816531E-02  0.1126479E+00
         25   -1    0    0    0    0  0.00000000000E+00  0.00000000000E+00  0.99999998245E-14  0.12500000000E+03  0.12500000000E+03 0.  0.
    3000001    1    3    3    0    0  0.10355123682E+01 -0.70385603286E+01  0.29744468640E+01  0.77756640560E+01  0.10000000000E+01 0.  1.
    1000022    2    1    0    0    0  0.26178250540E+02 -0.55560623148E+02  0.58280282163E+01  0.62500003071E+02  0.10000041255E+02 0.  0.
    3000022    2    3    3    0    0  0.25142738171E+02 -0.48522062820E+02  0.28535813524E+01  0.54724339015E+02  0.24998222952E+00 0.  0.
    1000022    2    1    0    0    0 -0.26178250540E+02  0.55560623148E+02 -0.58280282163E+01  0.62499996929E+02  0.10000002864E+02 0.  0.
    3000022    2    5    5    0    0 -0.18175216874E+02  0.31158234317E+02  0.32046264813E+00  0.36074080324E+02  0.25000141281E+00 0.  0.
        -13    1    4    4    0    0  0.83573500439E+01 -0.16236696340E+02  0.97365332649E+00  0.18287554062E+02  0.10500000000E+00 0.  1.
         13    1    4    4    0    0  0.16785388127E+02 -0.32285366480E+02  0.18799280259E+01  0.36436784953E+02  0.10500000000E+00 0. -1.
    3000001    1    5    5    0    0 -0.80030336657E+01  0.24402388831E+02 -0.61484908645E+01  0.26425916605E+02  0.10000000000E+01 0. -1.
        -13    1    6    6    0    0 -0.10799940892E+02  0.18438095146E+02  0.13903460515E+00  0.21368959533E+02  0.10500000000E+00 0.  1.
         13    1    6    6    0    0 -0.73752759815E+01  0.12720139171E+02  0.18142804297E+00  0.14705120791E+02  0.10500000000E+00 0. -1.
</event>
<event>
11    0  0.3482988E-009  0.9118800E+02  0.7816531E-02  0.1126479E+00
         25   -1    0    0    0    0  0.00000000000E+00  0.00000000000E+00  0.99999998245E-14  0.12500000000E+03  0.12500000000E+03 0.  0.
    3000001    1    3    3    0    0  0.93545122830E+01  0.66705212374E+01 -0.28334121190E+01  0.11875646419E+02  0.10000000000E+01 0. -1.
    1000022    2    1    0    0    0  0.41233480389E+02  0.45891713593E+02  0.28752726131E-01  0.62499998550E+02  0.99999855258E+01 0.  0.
    3000022    2    3    3    0    0  0.31878968106E+02  0.39221192355E+02  0.28621648451E+01  0.50624352131E+02  0.25000754838E+00 0.  0.
    1000022    2    1    0    0    0 -0.41233480389E+02 -0.45891713593E+02 -0.28752726131E-01  0.62500001450E+02  0.10000003655E+02 0.  0.
    3000022    2    5    5    0    0 -0.37077016097E+02 -0.38514424415E+02 -0.27993038777E+01  0.53534704762E+02  0.25000218024E+00 0.  0.
        -13    1    4    4    0    0  0.17945701875E+02  0.22175622576E+02  0.15905506896E+01  0.28571792539E+02  0.10500000000E+00 0.  1.
         13    1    4    4    0    0  0.13933266231E+02  0.17045569780E+02  0.12716141556E+01  0.22052559592E+02  0.10500000000E+00 0. -1.
    3000001    1    5    5    0    0 -0.41564642915E+01 -0.73772891779E+01  0.27705511516E+01  0.89652966880E+01  0.10000000000E+01 0.  1.
        -13    1    6    6    0    0 -0.16091230691E+02 -0.16778311542E+02 -0.11681087791E+01  0.23276918750E+02  0.10500000000E+00 0.  1.
         13    1    6    6    0    0 -0.20985785406E+02 -0.21736112873E+02 -0.16311950986E+01  0.30257786013E+02  0.10500000000E+00 0. -1.
</event>
<event>
11    0  0.3482988E-009  0.9118800E+02  0.7816531E-02  0.1126479E+00
         25   -1    0    0    0    0  0.00000000000E+00  0.00000000000E+00  0.99999998245E-14  0.12500000000E+03  0.12500000000E+03 0.  0.
    3000001    1    3    3    0    0  0.96120806537E+01  0.31444612904E+02 -0.32126133043E+02  0.45980911251E+02  0.10000000000E+01 0. -1.
    1000022    2    1    0    0    0  0.86908994343E+01  0.39755755754E+02 -0.46370226676E+02  0.62500002474E+02  0.10000026935E+02 0.  0.
    3000022    2    3    3    0    0 -0.92118121935E+00  0.83111428504E+01 -0.14244093632E+02  0.16519091223E+02  0.25000219119E+00 0.  0.
    1000022    2    1    0    0    0 -0.86908994343E+01 -0.39755755754E+02  0.46370226676E+02  0.62499997526E+02  0.99999960149E+01 0.  0.
    3000022    2    5    5    0    0 -0.11268473615E+01 -0.27032127817E+02  0.30676231113E+02  0.40903537438E+02  0.25000066956E+00 0.  0.
        -13    1    4    4    0    0 -0.26040426985E+00  0.28165615867E+01 -0.47843317887E+01  0.55589284237E+01  0.10500000000E+00 0.  1.
         13    1    4    4    0    0 -0.66077694950E+00  0.54945812637E+01 -0.94597618438E+01  0.10960162799E+02  0.10500000000E+00 0. -1.
    3000001    1    5    5    0    0 -0.75640520728E+01 -0.12723627937E+02  0.15693995563E+02  0.21596460089E+02  0.10000000000E+01 0.  1.
        -13    1    6    6    0    0 -0.28778555904E+00 -0.66917761805E+01  0.76300685605E+01  0.10153406336E+02  0.10500000000E+00 0. -1.
         13    1    6    6    0    0 -0.83906180248E+00 -0.20340351636E+02  0.23046162553E+02  0.30750131102E+02  0.10500000000E+00 0.  1.
</event>
<event>
11    0  0.3482988E-009  0.9118800E+02  0.7816531E-02  0.1126479E+00
         25   -1    0    0    0    0  0.00000000000E+00  0.00000000000E+00  0.99999998245E-14  0.12500000000E+03  0.12500000000E+03 0.  0.
    3000001    1    3    3    0    0  0.17481384854E+02 -0.55611732735E+01 -0.59041458594E+01  0.19297264131E+02  0.10000000000E+01 0.  1.
    1000022    2    1    0    0    0  0.58499995915E+02 -0.19055808794E+02 -0.45691035744E+01  0.62500001043E+02  0.10000002606E+02 0.  0.
    3000022    2    3    3    0    0  0.41018611061E+02 -0.13494635520E+02  0.13350422851E+01  0.43202736913E+02  0.24999533190E+00 0.  0.
    1000022    2    1    0    0    0 -0.58499995915E+02  0.19055808794E+02  0.45691035744E+01  0.62499998957E+02  0.99999895652E+01 0.  0.
    3000022    2    5    5    0    0 -0.49506206152E+01 -0.91099610119E+00  0.14988585639E+01  0.52580973713E+01  0.24990518167E+00 0.  0.
        -13    1    4    4    0    0  0.23528667308E+02 -0.77298159451E+01  0.70119056848E+00  0.24776015278E+02  0.10500000000E+00 0. -1.
         13    1    4    4    0    0  0.17489943753E+02 -0.57648195750E+01  0.63385171661E+00  0.18426721635E+02  0.10500000000E+00 0.  1.
    3000001    1    5    5    0    0 -0.53549375300E+02  0.19966804895E+02  0.30702450105E+01  0.57241901585E+02  0.10000000000E+01 0. -1.
        -13    1    6    6    0    0 -0.30659302095E+01 -0.55745331709E+00  0.99057241830E+00  0.32715349557E+01  0.10500000000E+00 0. -1.
         13    1    6    6    0    0 -0.18846904057E+01 -0.35354278410E+00  0.50828614558E+00  0.19865624157E+01  0.10500000000E+00 0.  1.
</event>
<event>
11    0  0.3482988E-009  0.9118800E+02  0.7816531E-02  0.1126479E+00
         25   -1    0    0    0    0  0.00000000000E+00  0.00000000000E+00  0.99999998245E-14  0.12500000000E+03  0.12500000000E+03 0.  0.
    3000001    1    3    3    0    0 -0.31446710971E+02 -0.12921120653E+02  0.30911071481E+01  0.34152685594E+02  0.10000000000E+01 0. -1.
    1000022    2    1    0    0    0 -0.52778169843E+02 -0.30915749993E+02  0.80579955372E+01  0.62500001185E+02  0.10000002322E+02 0.  0.
    3000022    2    3    3    0    0 -0.21331458872E+02 -0.17994629339E+02  0.49668883891E+01  0.28347315591E+02  0.24999660040E+00 0.  0.
    1000022    2    1    0    0    0  0.52778169843E+02  0.30915749993E+02 -0.80579955372E+01  0.62499998815E+02  0.99999875130E+01 0.  0.
    3000022    2    5    5    0    0  0.39778961202E+02  0.26505719693E+02 -0.32148668379E+01  0.47909464619E+02  0.25000110904E+00 0.  0.
        -13    1    4    4    0    0 -0.79380076589E+01 -0.67492907360E+01  0.18993630880E+01  0.10591671076E+02  0.10500000000E+00 0.  1.
         13    1    4    4    0    0 -0.13393451213E+02 -0.11245338604E+02  0.30675253011E+01  0.17755644516E+02  0.10500000000E+00 0. -1.
    3000001    1    5    5    0    0  0.12999208641E+02  0.44100303000E+01 -0.48431286993E+01  0.14590534196E+02  0.10000000000E+01 0.  1.
        -13    1    6    6    0    0  0.22881629420E+02  0.15320607395E+02 -0.18308463743E+01  0.27598061514E+02  0.10500000000E+00 0.  1.
         13    1    6    6    0    0  0.16897331782E+02  0.11185112297E+02 -0.13840204637E+01  0.20311403105E+02  0.10500000000E+00 0. -1.
</event>
<event>
11    0  0.3482988E-009  0.9118800E+02  0.7816531E-02  0.1126479E+00
         25   -1    0    0    0    0  0.00000000000E+00  0.00000000000E+00  0.99999998245E-14  0.12500000000E+03  0.12500000000E+03 0.  0.
    3000001    1    3    3    0    0 -0.20648802267E+02 -0.48791244215E+02  0.22066494256E+02  0.57401121207E+02  0.10000000000E+01 0.  1.
    1000022    2    1    0    0    0 -0.24129051420E+02 -0.50926568111E+02  0.25110227974E+02  0.62499999615E+02  0.99999970485E+01 0.  0.
    3000022    2    3    3    0    0 -0.34802491538E+01 -0.21353238960E+01  0.30437337187E+01  0.50988784082E+01  0.25000751522E+00 0.  0.
    1000022    2    1    0    0    0  0.24129051420E+02  0.50926568111E+02 -0.25110227974E+02  0.62500000385E+02  0.10000001859E+02 0.  0.
    3000022    2    5    5    0    0  0.23046274042E+01  0.10998630391E+02 -0.18669190746E+01  0.11394256062E+02  0.25001283904E+00 0.  0.
        -13    1    4    4    0    0 -0.12283410523E+01 -0.76171469954E+00  0.11498719431E+01  0.18499355421E+01  0.10500000000E+00 0.  1.
         13    1    4    4    0    0 -0.22519081015E+01 -0.13736091965E+01  0.18938617757E+01  0.32489428662E+01  0.10500000000E+00 0. -1.
    3000001    1    5    5    0    0  0.21824424016E+02  0.39927937720E+02 -0.23243308900E+02  0.51105744323E+02  0.10000000000E+01 0.  1.
        -13    1    6    6    0    0  0.14171112791E+01  0.68320987528E+01 -0.10992178117E+01  0.70643529458E+01  0.10500000000E+00 0. -1.
         13    1    6    6    0    0  0.88751612512E+00  0.41665316383E+01 -0.76770126290E+00  0.43299031160E+01  0.10500000000E+00 0.  1.
</event>
<event>
11    0  0.3482988E-009  0.9118800E+02  0.7816531E-02  0.1126479E+00
         25   -1    0    0    0    0  0.00000000000E+00  0.00000000000E+00  0.99999998245E-14  0.12500000000E+03  0.12500000000E+03 0.  0.
    3000001    1    3    3    0    0  0.11196430047E+02 -0.18913287523E+02  0.50907105671E+01  0.22582910017E+02  0.10000000000E+01 0. -1.
    1000022    2    1    0    0    0  0.27788223359E+02 -0.55056865969E+02  0.16752236079E+01  0.62499997954E+02  0.99999761160E+01 0.  0.
    3000022    2    3    3    0    0  0.16591793312E+02 -0.36143578446E+02 -0.34154869591E+01  0.39917087938E+02  0.24998012373E+00 0.  0.
    1000022    2    1    0    0    0 -0.27788223359E+02  0.55056865969E+02 -0.16752236079E+01  0.62500002046E+02  0.10000001687E+02 0.  0.
    3000022    2    5    5    0    0 -0.18970355142E+02  0.36123142553E+02  0.35207406851E+01  0.40953802213E+02  0.24999719322E+00 0.  0.
        -13    1    4    4    0    0  0.61152809874E+01 -0.13418401118E+02 -0.13104240190E+01  0.14804674472E+02  0.10500000000E+00 0. -1.
         13    1    4    4    0    0  0.10476512325E+02 -0.22725177328E+02 -0.21050629401E+01  0.25112413465E+02  0.10500000000E+00 0.  1.
    3000001    1    5    5    0    0 -0.88178682171E+01  0.18933723417E+02 -0.51959642930E+01  0.21546199833E+02  0.10000000000E+01 0.  1.
        -13    1    6    6    0    0 -0.70431680108E+01  0.13523185163E+02  0.12854667651E+01  0.15301836569E+02  0.10500000000E+00 0. -1.
         13    1    6    6    0    0 -0.11927187131E+02  0.22599957390E+02  0.22352739200E+01  0.25651965644E+02  0.10500000000E+00 0.  1.
</event>
<event>
11    0  0.3482988E-009  0.9118800E+02  0.7816531E-02  0.1126479E+00
         25   -1    0    0    0    0  0.00000000000E+00  0.00000000000E+00  0.99999998245E-14  0.12500000000E+03  0.12500000000E+03 0.  0.
    3000001    1    3    3    0    0  0.42565572292E+02 -0.42166113887E+02 -0.10085842490E+02  0.60766218606E+02  0.10000000000E+01 0. -1.
    1000022    2    1    0    0    0  0.44234669552E+02 -0.41869803840E+02 -0.98215792354E+01  0.62499998981E+02  0.99999994997E+01 0.  0.
    3000022    2    3    3    0    0  0.16690972591E+01  0.29631004666E+00  0.26426325415E+00  0.17337803753E+01  0.24994803136E+00 0.  0.
    1000022    2    1    0    0    0 -0.44234669552E+02  0.41869803840E+02  0.98215792354E+01  0.62500001019E+02  0.10000012238E+02 0.  0.
    3000022    2    5    5    0    0 -0.34060461079E+01  0.30147516226E+00  0.17824308531E+00  0.34331205065E+01  0.25001690347E+00 0.  0.
        -13    1    4    4    0    0  0.87118111089E+00  0.90379159658E-01  0.11186104769E+00  0.88919222582E+00  0.10500000000E+00 0.  1.
         13    1    4    4    0    0  0.79791614820E+00  0.20593088701E+00  0.15240220646E+00  0.84458814952E+00  0.10500000000E+00 0. -1.
    3000001    1    5    5    0    0 -0.40828623444E+02  0.41568328678E+02  0.96433361501E+01  0.59066880513E+02  0.10000000000E+01 0. -1.
        -13    1    6    6    0    0 -0.99987738384E+00  0.86524553768E-01  0.83256952745E-02  0.10091261558E+01  0.10500000000E+00 0. -1.
         13    1    6    6    0    0 -0.24061687241E+01  0.21495060849E+00  0.16991739003E+00  0.24239943507E+01  0.10500000000E+00 0.  1.
</event>
<event>
11    0  0.3482988E-009  0.9118800E+02  0.7816531E-02  0.1126479E+00
         25   -1    0    0    0    0  0.00000000000E+00  0.00000000000E+00  0.99999998245E-14  0.12500000000E+03  0.12500000000E+03 0.  0.
    3000001    1    3    3    0    0  0.98803923121E-01 -0.56943057199E+00 -0.14715297087E+01  0.18706718246E+01  0.10000000000E+01 0. -1.
    1000022    2    1    0    0    0 -0.42325554946E+02 -0.13052141156E+02 -0.42946929340E+02  0.62500001129E+02  0.10000020559E+02 0.  0.
    3000022    2    3    3    0    0 -0.42424358870E+02 -0.12482710584E+02 -0.41475399631E+02  0.60629329305E+02  0.25001676696E+00 0.  0.
    1000022    2    1    0    0    0  0.42325554946E+02  0.13052141156E+02  0.42946929340E+02  0.62499998871E+02  0.10000006442E+02 0.  0.
    3000022    2    5    5    0    0  0.29142803859E+01  0.78350110854E+00  0.14849375546E+00  0.30317369188E+01  0.24994838467E+00 0.  0.
        -13    1    4    4    0    0 -0.19981678207E+02 -0.59393523447E+01 -0.19598777446E+02  0.28612348254E+02  0.10500000000E+00 0.  1.
         13    1    4    4    0    0 -0.22442680663E+02 -0.65433582394E+01 -0.21876622185E+02  0.32016981051E+02  0.10500000000E+00 0. -1.
    3000001    1    5    5    0    0  0.39411274561E+02  0.12268640048E+02  0.42798435584E+02  0.59468261952E+02  0.10000000000E+01 0. -1.
        -13    1    6    6    0    0  0.19847231177E+01  0.54171469597E+00  0.15093610989E+00  0.20655235111E+01  0.10500000000E+00 0.  1.
         13    1    6    6    0    0  0.92955726818E+00  0.24178641256E+00 -0.24423544343E-02  0.96621340770E+00  0.10500000000E+00 0. -1.
</event>
<event>
11    0  0.3482988E-009  0.9118800E+02  0.7816531E-02  0.1126479E+00
         25   -1    0    0    0    0  0.00000000000E+00  0.00000000000E+00  0.99999998245E-14  0.12500000000E+03  0.12500000000E+03 0.  0.
    3000001    1    3    3    0    0 -0.14455576762E+02 -0.20456946744E+02  0.14660708714E+02  0.29041121700E+02  0.10000000000E+01 0. -1.
    1000022    2    1    0    0    0 -0.26742165501E+02 -0.50127368810E+02  0.24048985326E+02  0.62499998621E+02  0.99999806483E+01 0.  0.
    3000022    2    3    3    0    0 -0.12286588739E+02 -0.29670422067E+02  0.93882766117E+01  0.33458876921E+02  0.24999732628E+00 0.  0.
    1000022    2    1    0    0    0  0.26742165501E+02  0.50127368810E+02 -0.24048985326E+02  0.62500001379E+02  0.99999978820E+01 0.  0.
    3000022    2    5    5    0    0  0.41168441079E+01  0.72470796709E+01 -0.76291732585E+01  0.11302007345E+02  0.25003248334E+00 0.  0.
        -13    1    4    4    0    0 -0.78496250615E+01 -0.18803463031E+02  0.59477956072E+01  0.21226731570E+02  0.10500000000E+00 0. -1.
         13    1    4    4    0    0 -0.44369636772E+01 -0.10866959036E+02  0.34404810045E+01  0.12232145351E+02  0.10500000000E+00 0.  1.
    3000001    1    5    5    0    0  0.22625321393E+02  0.42880289139E+02 -0.16419812067E+02  0.51197994034E+02  0.10000000000E+01 0. -1.
        -13    1    6    6    0    0  0.20037816797E+01  0.36441490552E+01 -0.38547076017E+01  0.56713983329E+01  0.10500000000E+00 0.  1.
         13    1    6    6    0    0  0.21130624282E+01  0.36029306157E+01 -0.37744656568E+01  0.56306090116E+01  0.10500000000E+00 0. -1.
</event>
<event>
11    0  0.3482988E-009  0.9118800E+02  0.7816531E-02  0.1126479E+00
         25   -1    0    0    0    0  0.00000000000E+00  0.00000000000E+00  0.99999998245E-14  0.12500000000E+03  0.12500000000E+03 0.  0.
    3000001    1    3    3    0    0 -0.37875877737E+01 -0.80682164828E+01 -0.12078862300E+00  0.89697563093E+01  0.10000000000E+01 0. -1.
    1000022    2    1    0    0    0 -0.21249618822E+02 -0.52899820835E+02 -0.23586277876E+02  0.62499999785E+02  0.10000006231E+02 0.  0.
    3000022    2    3    3    0    0 -0.17462031049E+02 -0.44831604352E+02 -0.23465489253E+02  0.53530243476E+02  0.25000713105E+00 0.  0.
    1000022    2    1    0    0    0  0.21249618822E+02  0.52899820835E+02  0.23586277876E+02  0.62500000215E+02  0.10000008919E+02 0.  0.
    3000022    2    5    5    0    0  0.85596396330E+01  0.30763393171E+02  0.93961013639E+01  0.33286679435E+02  0.25003387361E+00 0.  0.
        -13    1    4    4    0    0 -0.13123627318E+02 -0.33635125663E+02 -0.17626023653E+02  0.40177593347E+02  0.10500000000E+00 0.  1.
         13    1    4    4    0    0 -0.43384037306E+01 -0.11196478689E+02 -0.58394656001E+01  0.13352650128E+02  0.10500000000E+00 0. -1.
    3000001    1    5    5    0    0  0.12689979189E+02  0.22136427664E+02  0.14190176512E+02  0.29213320780E+02  0.10000000000E+01 0. -1.
        -13    1    6    6    0    0  0.48621480408E+01  0.17291077116E+02  0.53311424945E+01  0.18736433404E+02  0.10500000000E+00 0. -1.
         13    1    6    6    0    0  0.36974915922E+01  0.13472316055E+02  0.40649588694E+01  0.14550246032E+02  0.10500000000E+00 0.  1.
</event>
<event>
11    0  0.3482988E-009  0.9118800E+02  0.7816531E-02  0.1126479E+00
         25   -1    0    0    0    0  0.00000000000E+00  0.00000000000E+00  0.99999998245E-14  0.12500000000E+03  0.12500000000E+03 0.  0.
    3000001    1    3    3    0    0 -0.45272948500E+02  0.73952458516E+01  0.36085484221E+02  0.58373724385E+02  0.10000000000E+01 0. -1.
    1000022    2    1    0    0    0 -0.48701784997E+02  0.55744652243E+01  0.37460799580E+02  0.62500000131E+02  0.99999993370E+01 0.  0.
    3000022    2    3    3    0    0 -0.34288364972E+01 -0.18207806273E+01  0.13753153591E+01  0.41262757461E+01  0.24999475780E+00 0.  0.
    1000022    2    1    0    0    0  0.48701784997E+02 -0.55744652243E+01 -0.37460799580E+02  0.62499999869E+02  0.99999976992E+01 0.  0.
    3000022    2    5    5    0    0  0.25040190894E+02  0.18567386695E+01 -0.16883781221E+02  0.30258605492E+02  0.24999901349E+00 0.  0.
        -13    1    4    4    0    0 -0.24042215140E+01 -0.12335999786E+01  0.92681332825E+00  0.28586811542E+01  0.10500000000E+00 0. -1.
         13    1    4    4    0    0 -0.10246149832E+01 -0.58718064870E+00  0.44850203083E+00  0.12675945920E+01  0.10500000000E+00 0.  1.
    3000001    1    5    5    0    0  0.23661594103E+02 -0.74312038938E+01 -0.20577018360E+02  0.32241394377E+02  0.10000000000E+01 0.  1.
        -13    1    6    6    0    0  0.15604671283E+02  0.11540005344E+01 -0.10448634695E+02  0.18815484981E+02  0.10500000000E+00 0. -1.
         13    1    6    6    0    0  0.94355196109E+01  0.70273813512E+00 -0.64351465258E+01  0.11443120511E+02  0.10500000000E+00 0.  1.
</event>
<event>
11    0  0.3482988E-009  0.9118800E+02  0.7816531E-02  0.1126479E+00
         25   -1    0    0    0    0  0.00000000000E+00  0.00000000000E+00  0.99999998245E-14  0.12500000000E+03  0.12500000000E+03 0.  0.
    3000001    1    3    3    0    0  0.42999069841E+02 -0.17720620852E+01 -0.10053286421E+01  0.43058923546E+02  0.10000000000E+01 0.  1.
    1000022    2    1    0    0    0  0.61581495009E+02  0.25112315145E+01  0.27682417872E+01  0.62500000252E+02  0.10000002880E+02 0.  0.
    3000022    2    3    3    0    0  0.18582425168E+02  0.42832935997E+01  0.37735704293E+01  0.19441076706E+02  0.25000104327E+00 0.  0.
    1000022    2    1    0    0    0 -0.61581495009E+02 -0.25112315145E+01 -0.27682417872E+01  0.62499999748E+02  0.99999997347E+01 0.  0.
    3000022    2    5    5    0    0 -0.65246328463E+01  0.24327379047E+01 -0.18317108158E+01  0.72046292814E+01  0.24994214862E+00 0.  0.
        -13    1    4    4    0    0  0.14007394896E+02  0.32415310390E+01  0.28656744468E+01  0.14660755447E+02  0.10500000000E+00 0.  1.
         13    1    4    4    0    0  0.45750302721E+01  0.10417625606E+01  0.90789598256E+00  0.47803212589E+01  0.10500000000E+00 0. -1.
    3000001    1    5    5    0    0 -0.55056862163E+02 -0.49439694192E+01 -0.93653097141E+00  0.55295370467E+02  0.10000000000E+01 0.  1.
        -13    1    6    6    0    0 -0.25524501698E+01  0.98818635978E+00 -0.66635234747E+00  0.28189651651E+01  0.10500000000E+00 0. -1.
         13    1    6    6    0    0 -0.39721826765E+01  0.14445515449E+01 -0.11653584684E+01  0.43856641163E+01  0.10500000000E+00 0.  1.
</event>
<event>
11    0  0.3482988E-009  0.9118800E+02  0.7816531E-02  0.1126479E+00
         25   -1    0    0    0    0  0.00000000000E+00  0.00000000000E+00  0.99999998245E-14  0.12500000000E+03  0.12500000000E+03 0.  0.
    3000001    1    3    3    0    0  0.19068253029E+02  0.16133970232E+02  0.48025160161E+02  0.54141659353E+02  0.10000000000E+01 0. -1.
    1000022    2    1    0    0    0  0.22623887834E+02  0.21706776070E+02  0.53134036614E+02  0.62499997828E+02  0.99999726785E+01 0.  0.
    3000022    2    3    3    0    0  0.35556348050E+01  0.55728058378E+01  0.51088764530E+01  0.83583384752E+01  0.24999936091E+00 0.  0.
    1000022    2    1    0    0    0 -0.22623887834E+02 -0.21706776070E+02 -0.53134036614E+02  0.62500002172E+02  0.99999998234E+01 0.  0.
    3000022    2    5    5    0    0 -0.89089763248E+01 -0.15184621104E+02 -0.30698140228E+02  0.35388994265E+02  0.25004869088E+00 0.  0.
        -13    1    4    4    0    0  0.15287948926E+01  0.25193805539E+01  0.22718050355E+01  0.37224474903E+01  0.10500000000E+00 0. -1.
         13    1    4    4    0    0  0.20268399124E+01  0.30534252840E+01  0.28370714175E+01  0.46358909849E+01  0.10500000000E+00 0.  1.
    3000001    1    5    5    0    0 -0.13714911509E+02 -0.65221549655E+01 -0.22435896386E+02  0.27111007907E+02  0.10000000000E+01 0.  1.
        -13    1    6    6    0    0 -0.43912364689E+01 -0.73861453681E+01 -0.14890727384E+02  0.17192524194E+02  0.10500000000E+00 0. -1.
         13    1    6    6    0    0 -0.45177398559E+01 -0.77984757363E+01 -0.15807412844E+02  0.18196470071E+02  0.10500000000E+00 0.  1.
</event>
<event>
11    0  0.3482988E-009  0.9118800E+02  0.7816531E-02  0.1126479E+00
         25   -1    0    0    0    0  0.00000000000E+00  0.00000000000E+00  0.99999998245E-14  0.12500000000E+03  0.12500000000E+03 0.  0.
    3000001    1    3    3    0    0  0.55226275720E+02 -0.15450878897E+02  0.16850151905E+02  0.59779585209E+02  0.10000000000E+01 0.  1.
    1000022    2    1    0    0    0  0.56320436790E+02 -0.17677571484E+02  0.17937719407E+02  0.62500000767E+02  0.10000009230E+02 0.  0.
    3000022    2    3    3    0    0  0.10941610701E+01 -0.22266925873E+01  0.10875675014E+01  0.27204155578E+01  0.25001882283E+00 0.  0.
    1000022    2    1    0    0    0 -0.56320436790E+02  0.17677571484E+02 -0.17937719407E+02  0.62499999233E+02  0.99999996405E+01 0.  0.
    3000022    2    5    5    0    0 -0.65424159615E+01 -0.21929299579E+00 -0.43906095428E+01  0.78861429190E+01  0.25000389971E+00 0.  0.
        -13    1    4    4    0    0  0.41781699059E+00 -0.78203668611E+00  0.33618549130E+00  0.95404302870E+00  0.10500000000E+00 0. -1.
         13    1    4    4    0    0  0.67634407949E+00 -0.14446559011E+01  0.75138201005E+00  0.17663725291E+01  0.10500000000E+00 0.  1.
    3000001    1    5    5    0    0 -0.49778020828E+02  0.17896864480E+02 -0.13547109864E+02  0.54613856314E+02  0.10000000000E+01 0.  1.
        -13    1    6    6    0    0 -0.24774290477E+01 -0.22463377818E-01 -0.16661253449E+01  0.29875002853E+01  0.10500000000E+00 0.  1.
         13    1    6    6    0    0 -0.40649869138E+01 -0.19682961797E+00 -0.27244841979E+01  0.48986426337E+01  0.10500000000E+00 0. -1.
</event>
<event>
11    0  0.3482988E-009  0.9118800E+02  0.7816531E-02  0.1126479E+00
         25   -1    0    0    0    0  0.00000000000E+00  0.00000000000E+00  0.99999998245E-14  0.12500000000E+03  0.12500000000E+03 0.  0.
    3000001    1    3    3    0    0  0.12691939643E+02 -0.15947557859E+02  0.27502164481E+02  0.34245860841E+02  0.10000000000E+01 0. -1.
    1000022    2    1    0    0    0  0.18285681807E+02 -0.22787573903E+02  0.54337927050E+02  0.62500000787E+02  0.10000004934E+02 0.  0.
    3000022    2    3    3    0    0  0.55937421633E+01 -0.68400160439E+01  0.26835762569E+02  0.28254139945E+02  0.25000107058E+00 0.  0.
    1000022    2    1    0    0    0 -0.18285681807E+02  0.22787573903E+02 -0.54337927050E+02  0.62499999213E+02  0.99999951023E+01 0.  0.
    3000022    2    5    5    0    0 -0.14703631380E+02  0.16329736069E+02 -0.30983865293E+02  0.37985779762E+02  0.24999959238E+00 0.  0.
        -13    1    4    4    0    0  0.18730571767E+01 -0.23056206977E+01  0.88552215545E+01  0.93407817535E+01  0.10500000000E+00 0.  1.
         13    1    4    4    0    0  0.37206849866E+01 -0.45343953462E+01  0.17980541014E+02  0.18913358192E+02  0.10500000000E+00 0. -1.
    3000001    1    5    5    0    0 -0.35820504268E+01  0.64578378340E+01 -0.23354061757E+02  0.24514219452E+02  0.10000000000E+01 0. -1.
        -13    1    6    6    0    0 -0.10738544943E+02  0.11881620839E+02 -0.22617233983E+02  0.27713526648E+02  0.10500000000E+00 0.  1.
         13    1    6    6    0    0 -0.39650864372E+01  0.44481152300E+01 -0.83666313102E+01  0.10272253114E+02  0.10500000000E+00 0. -1.
</event>
<event>
11    0  0.3482988E-009  0.9118800E+02  0.7816531E-02  0.1126479E+00
         25   -1    0    0    0    0  0.00000000000E+00  0.00000000000E+00  0.99999998245E-14  0.12500000000E+03  0.12500000000E+03 0.  0.
    3000001    1    3    3    0    0 -0.20283284836E+02 -0.66542125936E+01  0.48606379423E+02  0.53096801313E+02  0.10000000000E+01 0. -1.
    1000022    2    1    0    0    0 -0.20984914539E+02 -0.10836768774E+02  0.56995155777E+02  0.62499999159E+02  0.99999958600E+01 0.  0.
    3000022    2    3    3    0    0 -0.70162970291E+00 -0.41825561800E+01  0.83887763531E+01  0.94031978461E+01  0.25000118462E+00 0.  0.
    1000022    2    1    0    0    0  0.20984914539E+02  0.10836768774E+02 -0.56995155777E+02  0.62500000841E+02  0.10000006374E+02 0.  0.
    3000022    2    5    5    0    0  0.73270470834E+01  0.18798409077E+01 -0.29935181287E+02  0.30877127480E+02  0.25000386571E+00 0.  0.
        -13    1    4    4    0    0 -0.50325581385E+00 -0.31431883807E+01  0.63141368771E+01  0.70719339020E+01  0.10500000000E+00 0. -1.
         13    1    4    4    0    0 -0.19837388907E+00 -0.10393677993E+01  0.20746394759E+01  0.23312639441E+01  0.10500000000E+00 0.  1.
    3000001    1    5    5    0    0  0.13657867456E+02  0.89569278660E+01 -0.27059974489E+02  0.31622873361E+02  0.10000000000E+01 0. -1.
        -13    1    6    6    0    0  0.29835503333E+01  0.82978054329E+00 -0.12314278276E+02  0.12698133044E+02  0.10500000000E+00 0.  1.
         13    1    6    6    0    0  0.43434967502E+01  0.10500603644E+01 -0.17620903011E+02  0.18178994436E+02  0.10500000000E+00 0. -1.
</event>
<event>
11    0  0.3482988E-009  0.9118800E+02  0.7816531E-02  0.1126479E+00
         25   -1    0    0    0    0  0.00000000000E+00  0.00000000000E+00  0.99999998245E-14  0.12500000000E+03  0.12500000000E+03 0.  0.
    3000001    1    3    3    0    0 -0.45724772876E+02 -0.27874833161E+02  0.16635415207E+02  0.56084741396E+02  0.10000000000E+01 0.  1.
    1000022    2    1    0    0    0 -0.48366830078E+02 -0.32805723867E+02  0.19765734764E+02  0.62500000386E+02  0.10000000363E+02 0.  0.
    3000022    2    3    3    0    0 -0.26420572013E+01 -0.49308907062E+01  0.31303195572E+01  0.64152589899E+01  0.24999593089E+00 0.  0.
    1000022    2    1    0    0    0  0.48366830078E+02  0.32805723867E+02 -0.19765734764E+02  0.62499999614E+02  0.99999955419E+01 0.  0.
    3000022    2    5    5    0    0  0.23814198346E+02  0.21817154462E+02 -0.12354535724E+02  0.34580360402E+02  0.25000185076E+00 0.  0.
        -13    1    4    4    0    0 -0.19535270521E+01 -0.36105450267E+01  0.23302303158E+01  0.47215783016E+01  0.10500000000E+00 0. -1.
         13    1    4    4    0    0 -0.68853014918E+00 -0.13203456795E+01  0.80008924136E+00  0.16936806883E+01  0.10500000000E+00 0.  1.
    3000001    1    5    5    0    0  0.24552631732E+02  0.10988569405E+02 -0.74111990402E+01  0.27919639212E+02  0.10000000000E+01 0. -1.
        -13    1    6    6    0    0  0.96960032267E+01  0.89107904920E+01 -0.51020942719E+01  0.14122926634E+02  0.10500000000E+00 0.  1.
         13    1    6    6    0    0  0.14118195119E+02  0.12906363970E+02 -0.72524414517E+01  0.20457433768E+02  0.10500000000E+00 0. -1.
</event>
<event>
11    0  0.3482988E-009  0.9118800E+02  0.7816531E-02  0.1126479E+00
         25   -1    0    0    0    0  0.00000000000E+00  0.00000000000E+00  0.99999998245E-14  0.12500000000E+03  0.12500000000E+03 0.  0.
    3000001    1    3    3    0    0  0.63087248850E+00  0.64629766720E+00 -0.13618618142E+01  0.19158205481E+01  0.10000000000E+01 0. -1.
    1000022    2    1    0    0    0  0.52861132988E+02 -0.88223949316E+01 -0.30563304025E+02  0.62500001473E+02  0.10000029909E+02 0.  0.
    3000022    2    3    3    0    0  0.52230260499E+02 -0.94686925988E+01 -0.29201442211E+02  0.60584180925E+02  0.24999971308E+00 0.  0.
    1000022    2    1    0    0    0 -0.52861132988E+02  0.88223949316E+01  0.30563304025E+02  0.62499998527E+02  0.10000011493E+02 0.  0.
    3000022    2    5    5    0    0 -0.21529725313E+01 -0.50970371618E+00 -0.52100989156E+00  0.22867095143E+01  0.25000099332E+00 0.  0.
        -13    1    4    4    0    0  0.22016550168E+02 -0.40335224231E+01 -0.12256454348E+02  0.25519198315E+02  0.10500000000E+00 0. -1.
         13    1    4    4    0    0  0.30213710331E+02 -0.54351701756E+01 -0.16944987862E+02  0.35064982610E+02  0.10500000000E+00 0.  1.
    3000001    1    5    5    0    0 -0.50708160456E+02  0.93320986478E+01  0.31084313917E+02  0.60213289012E+02  0.10000000000E+01 0.  1.
        -13    1    6    6    0    0 -0.88405038828E+00 -0.25824002557E+00 -0.17245977794E+00  0.94286816408E+00  0.10500000000E+00 0.  1.
         13    1    6    6    0    0 -0.12689221430E+01 -0.25146369062E+00 -0.34855011362E+00  0.13438413502E+01  0.10500000000E+00 0. -1.
</event>
<event>
11    0  0.3482988E-009  0.9118800E+02  0.7816531E-02  0.1126479E+00
         25   -1    0    0    0    0  0.00000000000E+00  0.00000000000E+00  0.99999998245E-14  0.12500000000E+03  0.12500000000E+03 0.  0.
    3000001    1    3    3    0    0 -0.31564449359E+02 -0.45465993279E+01  0.20417011972E+02  0.37879287304E+02  0.10000000000E+01 0. -1.
    1000022    2    1    0    0    0 -0.50546446682E+02 -0.15150426349E+02  0.31965174295E+02  0.62500008380E+02  0.99999994574E+01 0.  0.
    3000022    2    3    3    0    0 -0.18981997322E+02 -0.10603827021E+02  0.11548162322E+02  0.24620721076E+02  0.24996688313E+00 0.  0.
    1000022    2    1    0    0    0  0.50546446682E+02  0.15150426349E+02 -0.31965174295E+02  0.62499991620E+02  0.99998947058E+01 0.  0.
    3000022    2    5    5    0    0  0.24178823209E+02  0.28289086027E+01 -0.11624387734E+02  0.26977900394E+02  0.25000765211E+00 0.  0.
        -13    1    4    4    0    0 -0.79964247656E+01 -0.44314862256E+01  0.49201824968E+01  0.10382682698E+02  0.10500000000E+00 0. -1.
         13    1    4    4    0    0 -0.10985572557E+02 -0.61723407950E+01  0.66279798257E+01  0.14238038378E+02  0.10500000000E+00 0.  1.
    3000001    1    5    5    0    0  0.26367623472E+02  0.12321517746E+02 -0.20340786561E+02  0.35522091226E+02  0.10000000000E+01 0. -1.
        -13    1    6    6    0    0  0.89735797999E+01  0.11046933120E+01 -0.42901235650E+01  0.10008080083E+02  0.10500000000E+00 0. -1.
         13    1    6    6    0    0  0.15205243409E+02  0.17242152907E+01 -0.73342641692E+01  0.16969820311E+02  0.10500000000E+00 0.  1.
</event>
<event>
11    0  0.3482988E-009  0.9118800E+02  0.7816531E-02  0.1126479E+00
         25   -1    0    0    0    0  0.00000000000E+00  0.00000000000E+00  0.99999998245E-14  0.12500000000E+03  0.12500000000E+03 0.  0.
    3000001    1    3    3    0    0  0.29542436952E+02 -0.19085768463E+02  0.28366298405E+02  0.45195896098E+02  0.10000000000E+01 0.  1.
    1000022    2    1    0    0    0  0.39701254450E+02 -0.31135815881E+02  0.35505230522E+02  0.62500000150E+02  0.99999994398E+01 0.  0.
    3000022    2    3    3    0    0  0.10158817498E+02 -0.12050047418E+02  0.71389321165E+01  0.17304104052E+02  0.24989902286E+00 0.  0.
    1000022    2    1    0    0    0 -0.39701254450E+02  0.31135815881E+02 -0.35505230522E+02  0.62499999850E+02  0.99999975657E+01 0.  0.
    3000022    2    5    5    0    0 -0.10387732477E+02  0.13940435361E+02 -0.10729312668E+02  0.20430892571E+02  0.24999373604E+00 0.  0.
        -13    1    4    4    0    0  0.71447361923E+01 -0.84175927701E+01  0.50300068839E+01  0.12133223708E+02  0.10500000000E+00 0.  1.
         13    1    4    4    0    0  0.30140813058E+01 -0.36324546483E+01  0.21089252326E+01  0.51708803435E+01  0.10500000000E+00 0. -1.
    3000001    1    5    5    0    0 -0.29313521974E+02  0.17195380521E+02 -0.24775917853E+02  0.42069107279E+02  0.10000000000E+01 0.  1.
        -13    1    6    6    0    0 -0.65421252620E+01  0.88781160968E+01 -0.68086293990E+01  0.12961049636E+02  0.10500000000E+00 0. -1.
         13    1    6    6    0    0 -0.38456072147E+01  0.50623192641E+01 -0.39206832695E+01  0.74698429355E+01  0.10500000000E+00 0.  1.
</event>
<event>
11    0  0.3482988E-009  0.9118800E+02  0.7816531E-02  0.1126479E+00
         25   -1    0    0    0    0  0.00000000000E+00  0.00000000000E+00  0.99999998245E-14  0.12500000000E+03  0.12500000000E+03 0.  0.
    3000001    1    3    3    0    0 -0.19788979854E+02 -0.75857743424E+01 -0.46679083333E+02  0.51274599138E+02  0.10000000000E+01 0. -1.
    1000022    2    1    0    0    0 -0.20027143748E+02 -0.72989015647E+01 -0.57895504895E+02  0.62499999937E+02  0.10000002717E+02 0.  0.
    3000022    2    3    3    0    0 -0.23816389408E+00  0.28687277769E+00 -0.11216421563E+02  0.11225400799E+02  0.24998478909E+00 0.  0.
    1000022    2    1    0    0    0  0.20027143748E+02  0.72989015647E+01  0.57895504895E+02  0.62500000063E+02  0.10000003501E+02 0.  0.
    3000022    2    5    5    0    0  0.63992370059E+01  0.14595849678E+01  0.31789738647E+02  0.32461216934E+02  0.24999803201E+00 0.  0.
        -13    1    4    4    0    0 -0.34578480972E-01  0.12632236751E+00 -0.46291628989E+01  0.46322054312E+01  0.10500000000E+00 0. -1.
         13    1    4    4    0    0 -0.20358541311E+00  0.16055041018E+00 -0.65872586637E+01  0.65931953677E+01  0.10500000000E+00 0.  1.
    3000001    1    5    5    0    0  0.13627906742E+02  0.58393165969E+01  0.26105766248E+02  0.30038783129E+02  0.10000000000E+01 0.  1.
        -13    1    6    6    0    0  0.47046013716E+01  0.10771063004E+01  0.23198745232E+02  0.23695700821E+02  0.10500000000E+00 0.  1.
         13    1    6    6    0    0  0.16946356343E+01  0.38247866746E+00  0.85909934156E+01  0.87655161132E+01  0.10500000000E+00 0. -1.
</event>
<event>
11    0  0.3482988E-009  0.9118800E+02  0.7816531E-02  0.1126479E+00
         25   -1    0    0    0    0  0.00000000000E+00  0.00000000000E+00  0.99999998245E-14  0.12500000000E+03  0.12500000000E+03 0.  0.
    3000001    1    3    3    0    0  0.14286805966E+02  0.30815063419E+02 -0.16692976569E+02  0.37859429802E+02  0.10000000000E+01 0.  1.
    1000022    2    1    0    0    0  0.16156727137E+02  0.53480257394E+02 -0.26173886859E+02  0.62500001622E+02  0.10000004339E+02 0.  0.
    3000022    2    3    3    0    0  0.18699211705E+01  0.22665193975E+02 -0.94809102899E+01  0.24640571820E+02  0.24999314927E+00 0.  0.
    1000022    2    1    0    0    0 -0.16156727137E+02 -0.53480257394E+02  0.26173886859E+02  0.62499998378E+02  0.99999840656E+01 0.  0.
    3000022    2    5    5    0    0 -0.42372037480E+01 -0.12294299808E+02  0.16903480706E+01  0.13115772033E+02  0.24999213107E+00 0.  0.
        -13    1    4    4    0    0  0.10745630385E+01  0.12345956813E+02 -0.51262824920E+01  0.13411455273E+02  0.10500000000E+00 0. -1.
         13    1    4    4    0    0  0.79535813198E+00  0.10319237161E+02 -0.43546277979E+01  0.11229116546E+02  0.10500000000E+00 0.  1.
    3000001    1    5    5    0    0 -0.11919523389E+02 -0.41185957586E+02  0.24483538788E+02  0.49384226345E+02  0.10000000000E+01 0.  1.
        -13    1    6    6    0    0 -0.17455365708E+01 -0.48837985317E+01  0.65197342438E+00  0.52282387440E+01  0.10500000000E+00 0.  1.
         13    1    6    6    0    0 -0.24916671772E+01 -0.74105012761E+01  0.10383746462E+01  0.78875332894E+01  0.10500000000E+00 0. -1.
</event>
<event>
11    0  0.3482988E-009  0.9118800E+02  0.7816531E-02  0.1126479E+00
         25   -1    0    0    0    0  0.00000000000E+00  0.00000000000E+00  0.99999998245E-14  0.12500000000E+03  0.12500000000E+03 0.  0.
    3000001    1    3    3    0    0 -0.18291571251E+02  0.19199301491E+02 -0.96389878004E+01  0.28233045220E+02  0.10000000000E+01 0. -1.
    1000022    2    1    0    0    0 -0.34118287606E+02  0.41650228754E+02 -0.30123924037E+02  0.62500000158E+02  0.10000005796E+02 0.  0.
    3000022    2    3    3    0    0 -0.15826716355E+02  0.22450927263E+02 -0.20484936236E+02  0.34266954938E+02  0.25000511793E+00 0.  0.
    1000022    2    1    0    0    0  0.34118287606E+02 -0.41650228754E+02  0.30123924037E+02  0.62499999842E+02  0.10000003821E+02 0.  0.
    3000022    2    5    5    0    0 -0.64960170249E+00 -0.40340041237E+00  0.37749326342E+00  0.88866063412E+00  0.25000458824E+00 0.  0.
        -13    1    4    4    0    0 -0.57058332306E+01  0.81947295781E+01 -0.74570775692E+01  0.12463111834E+02  0.10500000000E+00 0. -1.
         13    1    4    4    0    0 -0.10120883125E+02  0.14256197685E+02 -0.13027858667E+02  0.21803843104E+02  0.10500000000E+00 0.  1.
    3000001    1    5    5    0    0  0.34767889309E+02 -0.41246828342E+02  0.29746430773E+02  0.61611339208E+02  0.10000000000E+01 0. -1.
        -13    1    6    6    0    0 -0.39282599055E+00 -0.26842915930E+00  0.16645084072E+00  0.51487605770E+00  0.10500000000E+00 0.  1.
         13    1    6    6    0    0 -0.25677571193E+00 -0.13497125307E+00  0.21104242269E+00  0.37378457642E+00  0.10500000000E+00 0. -1.
</event>
<event>
11    0  0.3482988E-009  0.9118800E+02  0.7816531E-02  0.1126479E+00
         25   -1    0    0    0    0  0.00000000000E+00  0.00000000000E+00  0.99999998245E-14  0.12500000000E+03  0.12500000000E+03 0.  0.
    3000001    1    3    3    0    0  0.15324044193E+01  0.11543018576E+02 -0.26188019620E+02  0.28677550676E+02  0.10000000000E+01 0. -1.
    1000022    2    1    0    0    0  0.12705933693E+02  0.19912715541E+02 -0.56993797711E+02  0.62499999342E+02  0.99999974474E+01 0.  0.
    3000022    2    3    3    0    0  0.11173529274E+02  0.83696969652E+01 -0.30805778091E+02  0.33822448666E+02  0.24997246814E+00 0.  0.
    1000022    2    1    0    0    0 -0.12705933693E+02 -0.19912715541E+02  0.56993797711E+02  0.62500000658E+02  0.10000005678E+02 0.  0.
    3000022    2    5    5    0    0 -0.26094190812E+01 -0.13249515672E+02  0.29338452163E+02  0.32298080567E+02  0.24999907441E+00 0.  0.
        -13    1    4    4    0    0  0.47885970754E+01  0.36624556285E+01 -0.13364890415E+02  0.14662045014E+02  0.10500000000E+00 0.  1.
         13    1    4    4    0    0  0.63849321987E+01  0.47072413367E+01 -0.17440887676E+02  0.19160403652E+02  0.10500000000E+00 0. -1.
    3000001    1    5    5    0    0 -0.10096514612E+02 -0.66631998688E+01  0.27655345548E+02  0.30201920091E+02  0.10000000000E+01 0. -1.
        -13    1    6    6    0    0 -0.11890655175E+01 -0.57018067424E+01  0.12677352644E+02  0.13951730072E+02  0.10500000000E+00 0.  1.
         13    1    6    6    0    0 -0.14203535636E+01 -0.75477089297E+01  0.16661099519E+02  0.18346350495E+02  0.10500000000E+00 0. -1.
</event>
<event>
11    0  0.3482988E-009  0.9118800E+02  0.7816531E-02  0.1126479E+00
         25   -1    0    0    0    0  0.00000000000E+00  0.00000000000E+00  0.99999998245E-14  0.12500000000E+03  0.12500000000E+03 0.  0.
    3000001    1    3    3    0    0  0.38408930292E+02  0.28657883968E+02  0.34065272668E+02  0.58804447465E+02  0.10000000000E+01 0.  1.
    1000022    2    1    0    0    0  0.41154465619E+02  0.31108162636E+02  0.33835517894E+02  0.62500000074E+02  0.99999957532E+01 0.  0.
    3000022    2    3    3    0    0  0.27455353267E+01  0.24502786685E+01 -0.22975477420E+00  0.36955526087E+01  0.24998408636E+00 0.  0.
    1000022    2    1    0    0    0 -0.41154465619E+02 -0.31108162636E+02 -0.33835517894E+02  0.62499999926E+02  0.99999948335E+01 0.  0.
    3000022    2    5    5    0    0 -0.40883866974E+02 -0.29909900815E+02 -0.31415876736E+02  0.59607990529E+02  0.24995668172E+00 0.  0.
        -13    1    4    4    0    0  0.72150309971E+00  0.69101244071E+00 -0.52069644618E-01  0.10058832755E+01  0.10500000000E+00 0. -1.
         13    1    4    4    0    0  0.20240322270E+01  0.17592662278E+01 -0.17768512959E+00  0.26896693331E+01  0.10500000000E+00 0.  1.
    3000001    1    5    5    0    0 -0.27059864476E+00 -0.11982618213E+01 -0.24196411582E+01  0.28920093972E+01  0.10000000000E+01 0. -1.
        -13    1    6    6    0    0 -0.27817478099E+02 -0.20400681316E+02 -0.21429366838E+02  0.40610696547E+02  0.10500000000E+00 0. -1.
         13    1    6    6    0    0 -0.13066388875E+02 -0.95092194992E+01 -0.99865098982E+01  0.18997293983E+02  0.10500000000E+00 0.  1.
</event>
<event>
11    0  0.3482988E-009  0.9118800E+02  0.7816531E-02  0.1126479E+00
         25   -1    0    0    0    0  0.00000000000E+00  0.00000000000E+00  0.99999998245E-14  0.12500000000E+03  0.12500000000E+03 0.  0.
    3000001    1    3    3    0    0 -0.17044652641E+02 -0.11110634299E+02 -0.21468554315E+00  0.20371854802E+02  0.10000000000E+01 0. -1.
    1000022    2    1    0    0    0 -0.46839779379E+02 -0.37944235739E+02 -0.13134685880E+02  0.62500000294E+02  0.10000005274E+02 0.  0.
    3000022    2    3    3    0    0 -0.29795126738E+02 -0.26833601440E+02 -0.12920000336E+02  0.42128145492E+02  0.24998068931E+00 0.  0.
    1000022    2    1    0    0    0  0.46839779379E+02  0.37944235739E+02  0.13134685880E+02  0.62499999706E+02  0.10000001601E+02 0.  0.
    3000022    2    5    5    0    0  0.43512599201E+02  0.34429716306E+02  0.14543262766E+02  0.57361316643E+02  0.25000189862E+00 0.  0.
        -13    1    4    4    0    0 -0.10766339102E+02 -0.97491686125E+01 -0.46347322510E+01  0.15246380368E+02  0.10500000000E+00 0. -1.
         13    1    4    4    0    0 -0.19028787637E+02 -0.17084432827E+02 -0.82852680855E+01  0.26881765124E+02  0.10500000000E+00 0.  1.
    3000001    1    5    5    0    0  0.33271801779E+01  0.35145194327E+01 -0.14085768865E+01  0.51386830633E+01  0.10000000000E+01 0.  1.
        -13    1    6    6    0    0  0.21647820168E+02  0.17146420940E+02  0.71695242166E+01  0.28531403252E+02  0.10500000000E+00 0.  1.
         13    1    6    6    0    0  0.21864779034E+02  0.17283295366E+02  0.73737385494E+01  0.28829913391E+02  0.10500000000E+00 0. -1.
</event>
