<event>
 3    1  0.1619206E-001  0.1250000E+03  0.7546771E-02  0.1235069E+00
         21   -1    0    0  502  501  0.00000000000E+00  0.00000000000E+00  0.92507737763E+02  0.92507737763E+02  0.00000000000E+00 0.  1.
         21   -1    0    0  501  502 -0.00000000000E+00 -0.00000000000E+00 -0.42226197445E+02  0.42226197445E+02  0.00000000000E+00 0.  1.
         25    1    1    2    0    0  0.00000000000E+00  0.00000000000E+00  0.50281540318E+02  0.13473393521E+03  0.12500000000E+03 0.  0.
<mgrwt>
<rscale>  0 0.12500000E+03</rscale>
<asrwt>0</asrwt>
<pdfrwt beam="1">  1       21 0.14231960E-01 0.12500000E+03</pdfrwt>
<pdfrwt beam="2">  1       21 0.64963381E-02 0.12500000E+03</pdfrwt>
<totfact> 0.72731720E+06</totfact>
</mgrwt>
</event>
<event>
 3    1  0.1619206E-001  0.1250000E+03  0.7546771E-02  0.1235069E+00
         21   -1    0    0  502  501  0.00000000000E+00  0.00000000000E+00  0.35276935411E+02  0.35276935411E+02  0.00000000000E+00 0.  1.
         21   -1    0    0  501  502 -0.00000000000E+00 -0.00000000000E+00 -0.11073099050E+03  0.11073099050E+03  0.00000000000E+00 0.  1.
         25    1    1    2    0    0  0.00000000000E+00  0.00000000000E+00 -0.75454055092E+02  0.14600792591E+03  0.12500000000E+03 0.  0.
<mgrwt>
<rscale>  0 0.12500000E+03</rscale>
<asrwt>0</asrwt>
<pdfrwt beam="1">  1       21 0.54272210E-02 0.12500000E+03</pdfrwt>
<pdfrwt beam="2">  1       21 0.17035537E-01 0.12500000E+03</pdfrwt>
<totfact> 0.71264358E+06</totfact>
</mgrwt>
</event>
<event>
 3    1  0.1619206E-001  0.1250000E+03  0.7546771E-02  0.1235069E+00
         21   -1    0    0  502  501  0.00000000000E+00  0.00000000000E+00  0.35404467092E+03  0.35404467092E+03  0.00000000000E+00 0. -1.
         21   -1    0    0  501  502 -0.00000000000E+00 -0.00000000000E+00 -0.11033212249E+02  0.11033212249E+02  0.00000000000E+00 0. -1.
         25    1    1    2    0    0  0.00000000000E+00  0.00000000000E+00  0.34301145867E+03  0.36507788317E+03  0.12500000000E+03 0.  0.
<mgrwt>
<rscale>  0 0.12500000E+03</rscale>
<asrwt>0</asrwt>
<pdfrwt beam="1">  1       21 0.54468402E-01 0.12500000E+03</pdfrwt>
<pdfrwt beam="2">  1       21 0.16974175E-02 0.12500000E+03</pdfrwt>
<totfact> 0.50443807E+06</totfact>
</mgrwt>
</event>
<event>
 3    1  0.1619206E-001  0.1250000E+03  0.7546771E-02  0.1235069E+00
         21   -1    0    0  502  501  0.00000000000E+00  0.00000000000E+00  0.66066023709E+02  0.66066023709E+02  0.00000000000E+00 0.  1.
         21   -1    0    0  501  502 -0.00000000000E+00 -0.00000000000E+00 -0.59126458362E+02  0.59126458362E+02  0.00000000000E+00 0.  1.
         25    1    1    2    0    0  0.00000000000E+00  0.00000000000E+00  0.69395653474E+01  0.12519248207E+03  0.12500000000E+03 0.  0.
<mgrwt>
<rscale>  0 0.12500000E+03</rscale>
<asrwt>0</asrwt>
<pdfrwt beam="1">  1       21 0.10164004E-01 0.12500000E+03</pdfrwt>
<pdfrwt beam="2">  1       21 0.90963782E-02 0.12500000E+03</pdfrwt>
<totfact> 0.74017587E+06</totfact>
</mgrwt>
</event>
<event>
 3    1  0.1619206E-001  0.1250000E+03  0.7546771E-02  0.1235069E+00
         21   -1    0    0  502  501  0.00000000000E+00  0.00000000000E+00  0.18400771720E+02  0.18400771720E+02  0.00000000000E+00 0. -1.
         21   -1    0    0  501  502 -0.00000000000E+00 -0.00000000000E+00 -0.21228729204E+03  0.21228729204E+03  0.00000000000E+00 0. -1.
         25    1    1    2    0    0  0.00000000000E+00  0.00000000000E+00 -0.19388652032E+03  0.23068806376E+03  0.12500000000E+03 0.  0.
<mgrwt>
<rscale>  0 0.12500000E+03</rscale>
<asrwt>0</asrwt>
<pdfrwt beam="1">  1       21 0.28308878E-02 0.12500000E+03</pdfrwt>
<pdfrwt beam="2">  1       21 0.32659586E-01 0.12500000E+03</pdfrwt>
<totfact> 0.61745570E+06</totfact>
</mgrwt>
</event>
<event>
 3    1  0.1619206E-001  0.1250000E+03  0.7546771E-02  0.1235069E+00
         21   -1    0    0  502  501  0.00000000000E+00  0.00000000000E+00  0.14957300510E+02  0.14957300510E+02  0.00000000000E+00 0. -1.
         21   -1    0    0  501  502 -0.00000000000E+00 -0.00000000000E+00 -0.26116009352E+03  0.26116009352E+03  0.00000000000E+00 0. -1.
         25    1    1    2    0    0  0.00000000000E+00  0.00000000000E+00 -0.24620279301E+03  0.27611739403E+03  0.12500000000E+03 0.  0.
<mgrwt>
<rscale>  0 0.12500000E+03</rscale>
<asrwt>0</asrwt>
<pdfrwt beam="1">  1       21 0.23011232E-02 0.12500000E+03</pdfrwt>
<pdfrwt beam="2">  1       21 0.40178475E-01 0.12500000E+03</pdfrwt>
<totfact> 0.57501207E+06</totfact>
</mgrwt>
</event>
<event>
 3    1  0.1619206E-001  0.1250000E+03  0.7546771E-02  0.1235069E+00
         21   -1    0    0  502  501  0.00000000000E+00  0.00000000000E+00  0.18806727559E+02  0.18806727559E+02  0.00000000000E+00 0.  1.
         21   -1    0    0  501  502 -0.00000000000E+00 -0.00000000000E+00 -0.20770492835E+03  0.20770492835E+03  0.00000000000E+00 0.  1.
         25    1    1    2    0    0  0.00000000000E+00  0.00000000000E+00 -0.18889820079E+03  0.22651165590E+03  0.12500000000E+03 0.  0.
<mgrwt>
<rscale>  0 0.12500000E+03</rscale>
<asrwt>0</asrwt>
<pdfrwt beam="1">  1       21 0.28933429E-02 0.12500000E+03</pdfrwt>
<pdfrwt beam="2">  1       21 0.31954602E-01 0.12500000E+03</pdfrwt>
<totfact> 0.62162854E+06</totfact>
</mgrwt>
</event>
<event>
 3    1  0.1619206E-001  0.1250000E+03  0.7546771E-02  0.1235069E+00
         21   -1    0    0  502  501  0.00000000000E+00  0.00000000000E+00  0.65554012750E+03  0.65554012750E+03  0.00000000000E+00 0.  1.
         21   -1    0    0  501  502 -0.00000000000E+00 -0.00000000000E+00 -0.59588266776E+01  0.59588266776E+01  0.00000000000E+00 0.  1.
         25    1    1    2    0    0  0.00000000000E+00  0.00000000000E+00  0.64958130082E+03  0.66149895418E+03  0.12500000000E+03 0.  0.
<mgrwt>
<rscale>  0 0.12500000E+03</rscale>
<asrwt>0</asrwt>
<pdfrwt beam="1">  1       21 0.10085227E+00 0.12500000E+03</pdfrwt>
<pdfrwt beam="2">  1       21 0.91674308E-03 0.12500000E+03</pdfrwt>
<totfact> 0.34447880E+06</totfact>
</mgrwt>
</event>
<event>
 3    1  0.1619206E-001  0.1250000E+03  0.7546771E-02  0.1235069E+00
         21   -1    0    0  502  501  0.00000000000E+00  0.00000000000E+00  0.34800141171E+02  0.34800141171E+02  0.00000000000E+00 0. -1.
         21   -1    0    0  501  502 -0.00000000000E+00 -0.00000000000E+00 -0.11224810787E+03  0.11224810787E+03  0.00000000000E+00 0. -1.
         25    1    1    2    0    0  0.00000000000E+00  0.00000000000E+00 -0.77447966697E+02  0.14704824904E+03  0.12500000000E+03 0.  0.
<mgrwt>
<rscale>  0 0.12500000E+03</rscale>
<asrwt>0</asrwt>
<pdfrwt beam="1">  1       21 0.53538679E-02 0.12500000E+03</pdfrwt>
<pdfrwt beam="2">  1       21 0.17268940E-01 0.12500000E+03</pdfrwt>
<totfact> 0.71131994E+06</totfact>
</mgrwt>
</event>
<event>
 3    1  0.1619206E-001  0.1250000E+03  0.7546771E-02  0.1235069E+00
         21   -1    0    0  502  501  0.00000000000E+00  0.00000000000E+00  0.16719001956E+04  0.16719001956E+04  0.00000000000E+00 0.  1.
         21   -1    0    0  501  502 -0.00000000000E+00 -0.00000000000E+00 -0.23364133877E+01  0.23364133877E+01  0.00000000000E+00 0.  1.
         25    1    1    2    0    0  0.00000000000E+00  0.00000000000E+00  0.16695637822E+04  0.16742366090E+04  0.12500000000E+03 0.  0.
<mgrwt>
<rscale>  0 0.12500000E+03</rscale>
<asrwt>0</asrwt>
<pdfrwt beam="1">  1       21 0.25721446E+00 0.12500000E+03</pdfrwt>
<pdfrwt beam="2">  1       21 0.35944955E-03 0.12500000E+03</pdfrwt>
<totfact> 0.11595214E+06</totfact>
</mgrwt>
</event>
<event>
 3    1  0.1619206E-001  0.1250000E+03  0.7546771E-02  0.1235069E+00
         21   -1    0    0  502  501  0.00000000000E+00  0.00000000000E+00  0.31264895443E+02  0.31264895443E+02  0.00000000000E+00 0. -1.
         21   -1    0    0  501  502 -0.00000000000E+00 -0.00000000000E+00 -0.12494044661E+03  0.12494044661E+03  0.00000000000E+00 0. -1.
         25    1    1    2    0    0  0.00000000000E+00  0.00000000000E+00 -0.93675551170E+02  0.15620534206E+03  0.12500000000E+03 0.  0.
<mgrwt>
<rscale>  0 0.12500000E+03</rscale>
<asrwt>0</asrwt>
<pdfrwt beam="1">  1       21 0.48099839E-02 0.12500000E+03</pdfrwt>
<pdfrwt beam="2">  1       21 0.19221607E-01 0.12500000E+03</pdfrwt>
<totfact> 0.69986159E+06</totfact>
</mgrwt>
</event>
<event>
 3    1  0.1619206E-001  0.1250000E+03  0.7546771E-02  0.1235069E+00
         21   -1    0    0  502  501  0.00000000000E+00  0.00000000000E+00  0.63964713182E+02  0.63964713182E+02  0.00000000000E+00 0.  1.
         21   -1    0    0  501  502 -0.00000000000E+00 -0.00000000000E+00 -0.61068826946E+02  0.61068826946E+02  0.00000000000E+00 0.  1.
         25    1    1    2    0    0  0.00000000000E+00  0.00000000000E+00  0.28958862362E+01  0.12503354013E+03  0.12500000000E+03 0.  0.
<mgrwt>
<rscale>  0 0.12500000E+03</rscale>
<asrwt>0</asrwt>
<pdfrwt beam="1">  1       21 0.98407251E-02 0.12500000E+03</pdfrwt>
<pdfrwt beam="2">  1       21 0.93952041E-02 0.12500000E+03</pdfrwt>
<totfact> 0.74039051E+06</totfact>
</mgrwt>
</event>
<event>
 3    1  0.1619206E-001  0.1250000E+03  0.7546771E-02  0.1235069E+00
         21   -1    0    0  502  501  0.00000000000E+00  0.00000000000E+00  0.61520452586E+02  0.61520452586E+02  0.00000000000E+00 0.  1.
         21   -1    0    0  501  502 -0.00000000000E+00 -0.00000000000E+00 -0.63495144066E+02  0.63495144066E+02  0.00000000000E+00 0.  1.
         25    1    1    2    0    0  0.00000000000E+00  0.00000000000E+00 -0.19746914800E+01  0.12501559665E+03  0.12500000000E+03 0.  0.
<mgrwt>
<rscale>  0 0.12500000E+03</rscale>
<asrwt>0</asrwt>
<pdfrwt beam="1">  1       21 0.94646851E-02 0.12500000E+03</pdfrwt>
<pdfrwt beam="2">  1       21 0.97684836E-02 0.12500000E+03</pdfrwt>
<totfact> 0.74041475E+06</totfact>
</mgrwt>
</event>
<event>
 3    1  0.1619206E-001  0.1250000E+03  0.7546771E-02  0.1235069E+00
         21   -1    0    0  502  501  0.00000000000E+00  0.00000000000E+00  0.12369320135E+03  0.12369320135E+03  0.00000000000E+00 0.  1.
         21   -1    0    0  501  502 -0.00000000000E+00 -0.00000000000E+00 -0.31580151192E+02  0.31580151192E+02  0.00000000000E+00 0.  1.
         25    1    1    2    0    0  0.00000000000E+00  0.00000000000E+00  0.92113050156E+02  0.15527335254E+03  0.12500000000E+03 0.  0.
<mgrwt>
<rscale>  0 0.12500000E+03</rscale>
<asrwt>0</asrwt>
<pdfrwt beam="1">  1       21 0.19029723E-01 0.12500000E+03</pdfrwt>
<pdfrwt beam="2">  1       21 0.48584848E-02 0.12500000E+03</pdfrwt>
<totfact> 0.70101701E+06</totfact>
</mgrwt>
</event>
<event>
 3    1  0.1619206E-001  0.1250000E+03  0.7546771E-02  0.1235069E+00
         21   -1    0    0  502  501  0.00000000000E+00  0.00000000000E+00  0.64556823004E+02  0.64556823004E+02  0.00000000000E+00 0. -1.
         21   -1    0    0  501  502 -0.00000000000E+00 -0.00000000000E+00 -0.60508708735E+02  0.60508708735E+02  0.00000000000E+00 0. -1.
         25    1    1    2    0    0  0.00000000000E+00  0.00000000000E+00  0.40481142692E+01  0.12506553174E+03  0.12500000000E+03 0.  0.
<mgrwt>
<rscale>  0 0.12500000E+03</rscale>
<asrwt>0</asrwt>
<pdfrwt beam="1">  1       21 0.99318189E-02 0.12500000E+03</pdfrwt>
<pdfrwt beam="2">  1       21 0.93090322E-02 0.12500000E+03</pdfrwt>
<totfact> 0.74034730E+06</totfact>
</mgrwt>
</event>
<event>
 3    1  0.1619206E-001  0.1250000E+03  0.7546771E-02  0.1235069E+00
         21   -1    0    0  502  501  0.00000000000E+00  0.00000000000E+00  0.39465049981E+02  0.39465049981E+02  0.00000000000E+00 0.  1.
         21   -1    0    0  501  502 -0.00000000000E+00 -0.00000000000E+00 -0.98979983603E+02  0.98979983603E+02  0.00000000000E+00 0.  1.
         25    1    1    2    0    0  0.00000000000E+00  0.00000000000E+00 -0.59514933623E+02  0.13844503358E+03  0.12500000000E+03 0.  0.
<mgrwt>
<rscale>  0 0.12500000E+03</rscale>
<asrwt>0</asrwt>
<pdfrwt beam="1">  1       21 0.60715462E-02 0.12500000E+03</pdfrwt>
<pdfrwt beam="2">  1       21 0.15227690E-01 0.12500000E+03</pdfrwt>
<totfact> 0.72242961E+06</totfact>
</mgrwt>
</event>
<event>
 3    1  0.1619206E-001  0.1250000E+03  0.7546771E-02  0.1235069E+00
         21   -1    0    0  502  501  0.00000000000E+00  0.00000000000E+00  0.18635952267E+03  0.18635952267E+03  0.00000000000E+00 0.  1.
         21   -1    0    0  501  502 -0.00000000000E+00 -0.00000000000E+00 -0.20960828532E+02  0.20960828532E+02  0.00000000000E+00 0.  1.
         25    1    1    2    0    0  0.00000000000E+00  0.00000000000E+00  0.16539869414E+03  0.20732035121E+03  0.12500000000E+03 0.  0.
<mgrwt>
<rscale>  0 0.12500000E+03</rscale>
<asrwt>0</asrwt>
<pdfrwt beam="1">  1       21 0.28670695E-01 0.12500000E+03</pdfrwt>
<pdfrwt beam="2">  1       21 0.32247430E-02 0.12500000E+03</pdfrwt>
<totfact> 0.64142573E+06</totfact>
</mgrwt>
</event>
<event>
 3    1  0.1619206E-001  0.1250000E+03  0.7546771E-02  0.1235069E+00
         21   -1    0    0  502  501  0.00000000000E+00  0.00000000000E+00  0.23488914045E+03  0.23488914045E+03  0.00000000000E+00 0. -1.
         21   -1    0    0  501  502 -0.00000000000E+00 -0.00000000000E+00 -0.16630185595E+02  0.16630185595E+02  0.00000000000E+00 0. -1.
         25    1    1    2    0    0  0.00000000000E+00  0.00000000000E+00  0.21825895485E+03  0.25151932604E+03  0.12500000000E+03 0.  0.
<mgrwt>
<rscale>  0 0.12500000E+03</rscale>
<asrwt>0</asrwt>
<pdfrwt beam="1">  1       21 0.36136788E-01 0.12500000E+03</pdfrwt>
<pdfrwt beam="2">  1       21 0.25584903E-02 0.12500000E+03</pdfrwt>
<totfact> 0.59735442E+06</totfact>
</mgrwt>
</event>
<event>
 3    1  0.1619206E-001  0.1250000E+03  0.7546771E-02  0.1235069E+00
         21   -1    0    0  502  501  0.00000000000E+00  0.00000000000E+00  0.21720161599E+02  0.21720161599E+02  0.00000000000E+00 0. -1.
         21   -1    0    0  501  502 -0.00000000000E+00 -0.00000000000E+00 -0.17984442622E+03  0.17984442622E+03  0.00000000000E+00 0. -1.
         25    1    1    2    0    0  0.00000000000E+00  0.00000000000E+00 -0.15812426462E+03  0.20156458781E+03  0.12500000000E+03 0.  0.
<mgrwt>
<rscale>  0 0.12500000E+03</rscale>
<asrwt>0</asrwt>
<pdfrwt beam="1">  1       21 0.33415634E-02 0.12500000E+03</pdfrwt>
<pdfrwt beam="2">  1       21 0.27668373E-01 0.12500000E+03</pdfrwt>
<totfact> 0.64758112E+06</totfact>
</mgrwt>
</event>
<event>
 3    1  0.1619206E-001  0.1250000E+03  0.7546771E-02  0.1235069E+00
         21   -1    0    0  502  501  0.00000000000E+00  0.00000000000E+00  0.11939172177E+03  0.11939172177E+03  0.00000000000E+00 0. -1.
         21   -1    0    0  501  502 -0.00000000000E+00 -0.00000000000E+00 -0.32717930039E+02  0.32717930039E+02  0.00000000000E+00 0. -1.
         25    1    1    2    0    0  0.00000000000E+00  0.00000000000E+00  0.86673791729E+02  0.15210965181E+03  0.12500000000E+03 0.  0.
<mgrwt>
<rscale>  0 0.12500000E+03</rscale>
<asrwt>0</asrwt>
<pdfrwt beam="1">  1       21 0.18367957E-01 0.12500000E+03</pdfrwt>
<pdfrwt beam="2">  1       21 0.50335278E-02 0.12500000E+03</pdfrwt>
<totfact> 0.70495186E+06</totfact>
</mgrwt>
</event>
<event>
 3    1  0.1619206E-001  0.1250000E+03  0.7546771E-02  0.1235069E+00
         21   -1    0    0  502  501  0.00000000000E+00  0.00000000000E+00  0.11859587901E+03  0.11859587901E+03  0.00000000000E+00 0. -1.
         21   -1    0    0  501  502 -0.00000000000E+00 -0.00000000000E+00 -0.32937485117E+02  0.32937485117E+02  0.00000000000E+00 0. -1.
         25    1    1    2    0    0  0.00000000000E+00  0.00000000000E+00  0.85658393897E+02  0.15153336413E+03  0.12500000000E+03 0.  0.
<mgrwt>
<rscale>  0 0.12500000E+03</rscale>
<asrwt>0</asrwt>
<pdfrwt beam="1">  1       21 0.18245520E-01 0.12500000E+03</pdfrwt>
<pdfrwt beam="2">  1       21 0.50673055E-02 0.12500000E+03</pdfrwt>
<totfact> 0.70567110E+06</totfact>
</mgrwt>
</event>
<event>
 3    1  0.1619206E-001  0.1250000E+03  0.7546771E-02  0.1235069E+00
         21   -1    0    0  502  501  0.00000000000E+00  0.00000000000E+00  0.43059668721E+03  0.43059668721E+03  0.00000000000E+00 0. -1.
         21   -1    0    0  501  502 -0.00000000000E+00 -0.00000000000E+00 -0.90717140099E+01  0.90717140099E+01  0.00000000000E+00 0. -1.
         25    1    1    2    0    0  0.00000000000E+00  0.00000000000E+00  0.42152497320E+03  0.43966840122E+03  0.12500000000E+03 0.  0.
<mgrwt>
<rscale>  0 0.12500000E+03</rscale>
<asrwt>0</asrwt>
<pdfrwt beam="1">  1       21 0.66245628E-01 0.12500000E+03</pdfrwt>
<pdfrwt beam="2">  1       21 0.13956486E-02 0.12500000E+03</pdfrwt>
<totfact> 0.45516872E+06</totfact>
</mgrwt>
</event>
<event>
 3    1  0.1619206E-001  0.1250000E+03  0.7546771E-02  0.1235069E+00
         21   -1    0    0  502  501  0.00000000000E+00  0.00000000000E+00  0.62824647750E+02  0.62824647750E+02  0.00000000000E+00 0. -1.
         21   -1    0    0  501  502 -0.00000000000E+00 -0.00000000000E+00 -0.62177029874E+02  0.62177029874E+02  0.00000000000E+00 0. -1.
         25    1    1    2    0    0  0.00000000000E+00  0.00000000000E+00  0.64761787546E+00  0.12500167762E+03  0.12500000000E+03 0.  0.
<mgrwt>
<rscale>  0 0.12500000E+03</rscale>
<asrwt>0</asrwt>
<pdfrwt beam="1">  1       21 0.96653304E-02 0.12500000E+03</pdfrwt>
<pdfrwt beam="2">  1       21 0.95656969E-02 0.12500000E+03</pdfrwt>
<totfact> 0.74043355E+06</totfact>
</mgrwt>
</event>
<event>
 3    1  0.1619206E-001  0.1250000E+03  0.7546771E-02  0.1235069E+00
         21   -1    0    0  502  501  0.00000000000E+00  0.00000000000E+00  0.65486748350E+03  0.65486748350E+03  0.00000000000E+00 0. -1.
         21   -1    0    0  501  502 -0.00000000000E+00 -0.00000000000E+00 -0.59649472579E+01  0.59649472579E+01  0.00000000000E+00 0. -1.
         25    1    1    2    0    0  0.00000000000E+00  0.00000000000E+00  0.64890253624E+03  0.66083243076E+03  0.12500000000E+03 0.  0.
<mgrwt>
<rscale>  0 0.12500000E+03</rscale>
<asrwt>0</asrwt>
<pdfrwt beam="1">  1       21 0.10074879E+00 0.12500000E+03</pdfrwt>
<pdfrwt beam="2">  1       21 0.91768471E-03 0.12500000E+03</pdfrwt>
<totfact> 0.34475444E+06</totfact>
</mgrwt>
</event>
<event>
 3    1  0.1619206E-001  0.1250000E+03  0.7546771E-02  0.1235069E+00
         21   -1    0    0  502  501  0.00000000000E+00  0.00000000000E+00  0.20748186717E+02  0.20748186717E+02  0.00000000000E+00 0.  1.
         21   -1    0    0  501  502 -0.00000000000E+00 -0.00000000000E+00 -0.18826946437E+03  0.18826946437E+03  0.00000000000E+00 0.  1.
         25    1    1    2    0    0  0.00000000000E+00  0.00000000000E+00 -0.16752127766E+03  0.20901765109E+03  0.12500000000E+03 0.  0.
<mgrwt>
<rscale>  0 0.12500000E+03</rscale>
<asrwt>0</asrwt>
<pdfrwt beam="1">  1       21 0.31920286E-02 0.12500000E+03</pdfrwt>
<pdfrwt beam="2">  1       21 0.28964534E-01 0.12500000E+03</pdfrwt>
<totfact> 0.63963037E+06</totfact>
</mgrwt>
</event>
<event>
 3    1  0.1619206E-001  0.1250000E+03  0.7546771E-02  0.1235069E+00
         21   -1    0    0  502  501  0.00000000000E+00  0.00000000000E+00  0.50849838278E+03  0.50849838278E+03  0.00000000000E+00 0.  1.
         21   -1    0    0  501  502 -0.00000000000E+00 -0.00000000000E+00 -0.76819320027E+01  0.76819320027E+01  0.00000000000E+00 0.  1.
         25    1    1    2    0    0  0.00000000000E+00  0.00000000000E+00  0.50081645078E+03  0.51618031478E+03  0.12500000000E+03 0.  0.
<mgrwt>
<rscale>  0 0.12500000E+03</rscale>
<asrwt>0</asrwt>
<pdfrwt beam="1">  1       21 0.78230494E-01 0.12500000E+03</pdfrwt>
<pdfrwt beam="2">  1       21 0.11818361E-02 0.12500000E+03</pdfrwt>
<totfact> 0.41179963E+06</totfact>
</mgrwt>
</event>
<event>
 3    1  0.1619206E-001  0.1250000E+03  0.7546771E-02  0.1235069E+00
         21   -1    0    0  502  501  0.00000000000E+00  0.00000000000E+00  0.85895126046E+02  0.85895126046E+02  0.00000000000E+00 0. -1.
         21   -1    0    0  501  502 -0.00000000000E+00 -0.00000000000E+00 -0.45476969181E+02  0.45476969181E+02  0.00000000000E+00 0. -1.
         25    1    1    2    0    0  0.00000000000E+00  0.00000000000E+00  0.40418156864E+02  0.13137209523E+03  0.12500000000E+03 0.  0.
<mgrwt>
<rscale>  0 0.12500000E+03</rscale>
<asrwt>0</asrwt>
<pdfrwt beam="1">  1       21 0.13214635E-01 0.12500000E+03</pdfrwt>
<pdfrwt beam="2">  1       21 0.69964568E-02 0.12500000E+03</pdfrwt>
<totfact> 0.73180572E+06</totfact>
</mgrwt>
</event>
<event>
 3    1  0.1619206E-001  0.1250000E+03  0.7546771E-02  0.1235069E+00
         21   -1    0    0  502  501  0.00000000000E+00  0.00000000000E+00  0.72545452911E+02  0.72545452911E+02  0.00000000000E+00 0.  1.
         21   -1    0    0  501  502 -0.00000000000E+00 -0.00000000000E+00 -0.53845552591E+02  0.53845552591E+02  0.00000000000E+00 0.  1.
         25    1    1    2    0    0  0.00000000000E+00  0.00000000000E+00  0.18699900320E+02  0.12639100550E+03  0.12500000000E+03 0.  0.
<mgrwt>
<rscale>  0 0.12500000E+03</rscale>
<asrwt>0</asrwt>
<pdfrwt beam="1">  1       21 0.11160839E-01 0.12500000E+03</pdfrwt>
<pdfrwt beam="2">  1       21 0.82839311E-02 0.12500000E+03</pdfrwt>
<totfact> 0.73852299E+06</totfact>
</mgrwt>
</event>
<event>
 3    1  0.1619206E-001  0.1250000E+03  0.7546771E-02  0.1235069E+00
         21   -1    0    0  502  501  0.00000000000E+00  0.00000000000E+00  0.85842374397E+03  0.85842374397E+03  0.00000000000E+00 0.  1.
         21   -1    0    0  501  502 -0.00000000000E+00 -0.00000000000E+00 -0.45504915579E+01  0.45504915579E+01  0.00000000000E+00 0.  1.
         25    1    1    2    0    0  0.00000000000E+00  0.00000000000E+00  0.85387325241E+03  0.86297423552E+03  0.12500000000E+03 0.  0.
<mgrwt>
<rscale>  0 0.12500000E+03</rscale>
<asrwt>0</asrwt>
<pdfrwt beam="1">  1       21 0.13206506E+00 0.12500000E+03</pdfrwt>
<pdfrwt beam="2">  1       21 0.70007630E-03 0.12500000E+03</pdfrwt>
<totfact> 0.27379457E+06</totfact>
</mgrwt>
</event>
<event>
 3    1  0.1619206E-001  0.1250000E+03  0.7546771E-02  0.1235069E+00
         21   -1    0    0  502  501  0.00000000000E+00  0.00000000000E+00  0.31139245666E+02  0.31139245666E+02  0.00000000000E+00 0. -1.
         21   -1    0    0  501  502 -0.00000000000E+00 -0.00000000000E+00 -0.12544459304E+03  0.12544459304E+03  0.00000000000E+00 0. -1.
         25    1    1    2    0    0  0.00000000000E+00  0.00000000000E+00 -0.94305347371E+02  0.15658383870E+03  0.12500000000E+03 0.  0.
<mgrwt>
<rscale>  0 0.12500000E+03</rscale>
<asrwt>0</asrwt>
<pdfrwt beam="1">  1       21 0.47906531E-02 0.12500000E+03</pdfrwt>
<pdfrwt beam="2">  1       21 0.19299168E-01 0.12500000E+03</pdfrwt>
<totfact> 0.69939341E+06</totfact>
</mgrwt>
</event>
<event>
 3    1  0.1619206E-001  0.1250000E+03  0.7546771E-02  0.1235069E+00
         21   -1    0    0  502  501  0.00000000000E+00  0.00000000000E+00  0.20275124888E+03  0.20275124888E+03  0.00000000000E+00 0.  1.
         21   -1    0    0  501  502 -0.00000000000E+00 -0.00000000000E+00 -0.19266219180E+02  0.19266219180E+02  0.00000000000E+00 0.  1.
         25    1    1    2    0    0  0.00000000000E+00  0.00000000000E+00  0.18348502970E+03  0.22201746806E+03  0.12500000000E+03 0.  0.
<mgrwt>
<rscale>  0 0.12500000E+03</rscale>
<asrwt>0</asrwt>
<pdfrwt beam="1">  1       21 0.31192498E-01 0.12500000E+03</pdfrwt>
<pdfrwt beam="2">  1       21 0.29640339E-02 0.12500000E+03</pdfrwt>
<totfact> 0.62616917E+06</totfact>
</mgrwt>
</event>
<event>
 3    1  0.1619206E-001  0.1250000E+03  0.7546771E-02  0.1235069E+00
         21   -1    0    0  502  501  0.00000000000E+00  0.00000000000E+00  0.14008240655E+03  0.14008240655E+03  0.00000000000E+00 0.  1.
         21   -1    0    0  501  502 -0.00000000000E+00 -0.00000000000E+00 -0.27885371876E+02  0.27885371876E+02  0.00000000000E+00 0.  1.
         25    1    1    2    0    0  0.00000000000E+00  0.00000000000E+00  0.11219703467E+03  0.16796777843E+03  0.12500000000E+03 0.  0.
<mgrwt>
<rscale>  0 0.12500000E+03</rscale>
<asrwt>0</asrwt>
<pdfrwt beam="1">  1       21 0.21551139E-01 0.12500000E+03</pdfrwt>
<pdfrwt beam="2">  1       21 0.42900573E-02 0.12500000E+03</pdfrwt>
<totfact> 0.68558788E+06</totfact>
</mgrwt>
</event>
<event>
 3    1  0.1619206E-001  0.1250000E+03  0.7546771E-02  0.1235069E+00
         21   -1    0    0  502  501  0.00000000000E+00  0.00000000000E+00  0.54908867843E+01  0.54908867843E+01  0.00000000000E+00 0. -1.
         21   -1    0    0  501  502 -0.00000000000E+00 -0.00000000000E+00 -0.71140603575E+03  0.71140603575E+03  0.00000000000E+00 0. -1.
         25    1    1    2    0    0  0.00000000000E+00  0.00000000000E+00 -0.70591514897E+03  0.71689692253E+03  0.12500000000E+03 0.  0.
<mgrwt>
<rscale>  0 0.12500000E+03</rscale>
<asrwt>0</asrwt>
<pdfrwt beam="1">  1       21 0.84475177E-03 0.12500000E+03</pdfrwt>
<pdfrwt beam="2">  1       21 0.10944709E+00 0.12500000E+03</pdfrwt>
<totfact> 0.32268803E+06</totfact>
</mgrwt>
</event>
<event>
 3    1  0.1619206E-001  0.1250000E+03  0.7546771E-02  0.1235069E+00
         21   -1    0    0  502  501  0.00000000000E+00  0.00000000000E+00  0.43632833796E+03  0.43632833796E+03  0.00000000000E+00 0.  1.
         21   -1    0    0  501  502 -0.00000000000E+00 -0.00000000000E+00 -0.89525471077E+01  0.89525471077E+01  0.00000000000E+00 0.  1.
         25    1    1    2    0    0  0.00000000000E+00  0.00000000000E+00  0.42737579085E+03  0.44528088507E+03  0.12500000000E+03 0.  0.
<mgrwt>
<rscale>  0 0.12500000E+03</rscale>
<asrwt>0</asrwt>
<pdfrwt beam="1">  1       21 0.67127420E-01 0.12500000E+03</pdfrwt>
<pdfrwt beam="2">  1       21 0.13773153E-02 0.12500000E+03</pdfrwt>
<totfact> 0.45176009E+06</totfact>
</mgrwt>
</event>
<event>
 3    1  0.1619206E-001  0.1250000E+03  0.7546771E-02  0.1235069E+00
         21   -1    0    0  502  501  0.00000000000E+00  0.00000000000E+00  0.24525935323E+02  0.24525935323E+02  0.00000000000E+00 0. -1.
         21   -1    0    0  501  502 -0.00000000000E+00 -0.00000000000E+00 -0.15927017456E+03  0.15927017456E+03  0.00000000000E+00 0. -1.
         25    1    1    2    0    0  0.00000000000E+00  0.00000000000E+00 -0.13474423923E+03  0.18379610988E+03  0.12500000000E+03 0.  0.
<mgrwt>
<rscale>  0 0.12500000E+03</rscale>
<asrwt>0</asrwt>
<pdfrwt beam="1">  1       21 0.37732208E-02 0.12500000E+03</pdfrwt>
<pdfrwt beam="2">  1       21 0.24503104E-01 0.12500000E+03</pdfrwt>
<totfact> 0.66718705E+06</totfact>
</mgrwt>
</event>
<event>
 3    1  0.1619206E-001  0.1250000E+03  0.7546771E-02  0.1235069E+00
         21   -1    0    0  502  501  0.00000000000E+00  0.00000000000E+00  0.14550943552E+03  0.14550943552E+03  0.00000000000E+00 0.  1.
         21   -1    0    0  501  502 -0.00000000000E+00 -0.00000000000E+00 -0.26845338147E+02  0.26845338147E+02  0.00000000000E+00 0.  1.
         25    1    1    2    0    0  0.00000000000E+00  0.00000000000E+00  0.11866409737E+03  0.17235477366E+03  0.12500000000E+03 0.  0.
<mgrwt>
<rscale>  0 0.12500000E+03</rscale>
<asrwt>0</asrwt>
<pdfrwt beam="1">  1       21 0.22386067E-01 0.12500000E+03</pdfrwt>
<pdfrwt beam="2">  1       21 0.41300521E-02 0.12500000E+03</pdfrwt>
<totfact> 0.68039581E+06</totfact>
</mgrwt>
</event>
<event>
 3    1  0.1619206E-001  0.1250000E+03  0.7546771E-02  0.1235069E+00
         21   -1    0    0  502  501  0.00000000000E+00  0.00000000000E+00  0.11561651209E+02  0.11561651209E+02  0.00000000000E+00 0.  1.
         21   -1    0    0  501  502 -0.00000000000E+00 -0.00000000000E+00 -0.33786263997E+03  0.33786263997E+03  0.00000000000E+00 0.  1.
         25    1    1    2    0    0  0.00000000000E+00  0.00000000000E+00 -0.32630098876E+03  0.34942429118E+03  0.12500000000E+03 0.  0.
<mgrwt>
<rscale>  0 0.12500000E+03</rscale>
<asrwt>0</asrwt>
<pdfrwt beam="1">  1       21 0.17787156E-02 0.12500000E+03</pdfrwt>
<pdfrwt beam="2">  1       21 0.51978865E-01 0.12500000E+03</pdfrwt>
<totfact> 0.51580978E+06</totfact>
</mgrwt>
</event>
<event>
 3    1  0.1619206E-001  0.1250000E+03  0.7546771E-02  0.1235069E+00
         21   -1    0    0  502  501  0.00000000000E+00  0.00000000000E+00  0.76733954106E+02  0.76733954106E+02  0.00000000000E+00 0.  1.
         21   -1    0    0  501  502 -0.00000000000E+00 -0.00000000000E+00 -0.50906408324E+02  0.50906408324E+02  0.00000000000E+00 0.  1.
         25    1    1    2    0    0  0.00000000000E+00  0.00000000000E+00  0.25827545782E+02  0.12764036243E+03  0.12500000000E+03 0.  0.
<mgrwt>
<rscale>  0 0.12500000E+03</rscale>
<asrwt>0</asrwt>
<pdfrwt beam="1">  1       21 0.11805224E-01 0.12500000E+03</pdfrwt>
<pdfrwt beam="2">  1       21 0.78317551E-02 0.12500000E+03</pdfrwt>
<totfact> 0.73682200E+06</totfact>
</mgrwt>
</event>
<event>
 3    1  0.1619206E-001  0.1250000E+03  0.7546771E-02  0.1235069E+00
         21   -1    0    0  502  501  0.00000000000E+00  0.00000000000E+00  0.74316694611E+03  0.74316694611E+03  0.00000000000E+00 0.  1.
         21   -1    0    0  501  502 -0.00000000000E+00 -0.00000000000E+00 -0.52562213921E+01  0.52562213921E+01  0.00000000000E+00 0.  1.
         25    1    1    2    0    0  0.00000000000E+00  0.00000000000E+00  0.73791072471E+03  0.74842316750E+03  0.12500000000E+03 0.  0.
<mgrwt>
<rscale>  0 0.12500000E+03</rscale>
<asrwt>0</asrwt>
<pdfrwt beam="1">  1       21 0.11433329E+00 0.12500000E+03</pdfrwt>
<pdfrwt beam="2">  1       21 0.80865004E-03 0.12500000E+03</pdfrwt>
<totfact> 0.31124415E+06</totfact>
</mgrwt>
</event>
<event>
 3    1  0.1619206E-001  0.1250000E+03  0.7546771E-02  0.1235069E+00
         21   -1    0    0  502  501  0.00000000000E+00  0.00000000000E+00  0.34715295744E+04  0.34715295744E+04  0.00000000000E+00 0. -1.
         21   -1    0    0  501  502 -0.00000000000E+00 -0.00000000000E+00 -0.11252244627E+01  0.11252244627E+01  0.00000000000E+00 0. -1.
         25    1    1    2    0    0  0.00000000000E+00  0.00000000000E+00  0.34704043499E+04  0.34726547988E+04  0.12500000000E+03 0.  0.
<mgrwt>
<rscale>  0 0.12500000E+03</rscale>
<asrwt>0</asrwt>
<pdfrwt beam="1">  1       21 0.53407290E+00 0.12500000E+03</pdfrwt>
<pdfrwt beam="2">  1       21 0.17311423E-03 0.12500000E+03</pdfrwt>
<totfact> 0.67401525E+04</totfact>
</mgrwt>
</event>
<event>
 3    1  0.1619206E-001  0.1250000E+03  0.7546771E-02  0.1235069E+00
         21   -1    0    0  502  501  0.00000000000E+00  0.00000000000E+00  0.32809385302E+03  0.32809385302E+03  0.00000000000E+00 0.  1.
         21   -1    0    0  501  502 -0.00000000000E+00 -0.00000000000E+00 -0.11905892061E+02  0.11905892061E+02  0.00000000000E+00 0.  1.
         25    1    1    2    0    0  0.00000000000E+00  0.00000000000E+00  0.31618796096E+03  0.33999974508E+03  0.12500000000E+03 0.  0.
<mgrwt>
<rscale>  0 0.12500000E+03</rscale>
<asrwt>0</asrwt>
<pdfrwt beam="1">  1       21 0.50475971E-01 0.12500000E+03</pdfrwt>
<pdfrwt beam="2">  1       21 0.18316759E-02 0.12500000E+03</pdfrwt>
<totfact> 0.52285569E+06</totfact>
</mgrwt>
</event>
<event>
 3    1  0.1619206E-001  0.1250000E+03  0.7546771E-02  0.1235069E+00
         21   -1    0    0  502  501  0.00000000000E+00  0.00000000000E+00  0.11438421259E+02  0.11438421259E+02  0.00000000000E+00 0.  1.
         21   -1    0    0  501  502 -0.00000000000E+00 -0.00000000000E+00 -0.34150254755E+03  0.34150254755E+03  0.00000000000E+00 0.  1.
         25    1    1    2    0    0  0.00000000000E+00  0.00000000000E+00 -0.33006412629E+03  0.35294096881E+03  0.12500000000E+03 0.  0.
<mgrwt>
<rscale>  0 0.12500000E+03</rscale>
<asrwt>0</asrwt>
<pdfrwt beam="1">  1       21 0.17597571E-02 0.12500000E+03</pdfrwt>
<pdfrwt beam="2">  1       21 0.52538853E-01 0.12500000E+03</pdfrwt>
<totfact> 0.51321964E+06</totfact>
</mgrwt>
</event>
<event>
 3    1  0.1619206E-001  0.1250000E+03  0.7546771E-02  0.1235069E+00
         21   -1    0    0  502  501  0.00000000000E+00  0.00000000000E+00  0.44744031779E+02  0.44744031779E+02  0.00000000000E+00 0. -1.
         21   -1    0    0  501  502 -0.00000000000E+00 -0.00000000000E+00 -0.87302146111E+02  0.87302146111E+02  0.00000000000E+00 0. -1.
         25    1    1    2    0    0  0.00000000000E+00  0.00000000000E+00 -0.42558114331E+02  0.13204617789E+03  0.12500000000E+03 0.  0.
<mgrwt>
<rscale>  0 0.12500000E+03</rscale>
<asrwt>0</asrwt>
<pdfrwt beam="1">  1       21 0.68836973E-02 0.12500000E+03</pdfrwt>
<pdfrwt beam="2">  1       21 0.13431099E-01 0.12500000E+03</pdfrwt>
<totfact> 0.73090036E+06</totfact>
</mgrwt>
</event>
<event>
 3    1  0.1619206E-001  0.1250000E+03  0.7546771E-02  0.1235069E+00
         21   -1    0    0  502  501  0.00000000000E+00  0.00000000000E+00  0.83419390375E+03  0.83419390375E+03  0.00000000000E+00 0.  1.
         21   -1    0    0  501  502 -0.00000000000E+00 -0.00000000000E+00 -0.46826642852E+01  0.46826642852E+01  0.00000000000E+00 0.  1.
         25    1    1    2    0    0  0.00000000000E+00  0.00000000000E+00  0.82951123947E+03  0.83887656804E+03  0.12500000000E+03 0.  0.
<mgrwt>
<rscale>  0 0.12500000E+03</rscale>
<asrwt>0</asrwt>
<pdfrwt beam="1">  1       21 0.12833741E+00 0.12500000E+03</pdfrwt>
<pdfrwt beam="2">  1       21 0.72041055E-03 0.12500000E+03</pdfrwt>
<totfact> 0.28114619E+06</totfact>
</mgrwt>
</event>
<event>
 3    1  0.1619206E-001  0.1250000E+03  0.7546771E-02  0.1235069E+00
         21   -1    0    0  502  501  0.00000000000E+00  0.00000000000E+00  0.57734689397E+02  0.57734689397E+02  0.00000000000E+00 0. -1.
         21   -1    0    0  501  502 -0.00000000000E+00 -0.00000000000E+00 -0.67658630207E+02  0.67658630207E+02  0.00000000000E+00 0. -1.
         25    1    1    2    0    0  0.00000000000E+00  0.00000000000E+00 -0.99239408100E+01  0.12539331960E+03  0.12500000000E+03 0.  0.
<mgrwt>
<rscale>  0 0.12500000E+03</rscale>
<asrwt>0</asrwt>
<pdfrwt beam="1">  1       21 0.88822600E-02 0.12500000E+03</pdfrwt>
<pdfrwt beam="2">  1       21 0.10409020E-01 0.12500000E+03</pdfrwt>
<totfact> 0.73990351E+06</totfact>
</mgrwt>
</event>
<event>
 3    1  0.1619206E-001  0.1250000E+03  0.7546771E-02  0.1235069E+00
         21   -1    0    0  502  501  0.00000000000E+00  0.00000000000E+00  0.50996750915E+02  0.50996750915E+02  0.00000000000E+00 0.  1.
         21   -1    0    0  501  502 -0.00000000000E+00 -0.00000000000E+00 -0.76598017127E+02  0.76598017127E+02  0.00000000000E+00 0.  1.
         25    1    1    2    0    0  0.00000000000E+00  0.00000000000E+00 -0.25601266213E+02  0.12759476804E+03  0.12500000000E+03 0.  0.
<mgrwt>
<rscale>  0 0.12500000E+03</rscale>
<asrwt>0</asrwt>
<pdfrwt beam="1">  1       21 0.78456540E-02 0.12500000E+03</pdfrwt>
<pdfrwt beam="2">  1       21 0.11784310E-01 0.12500000E+03</pdfrwt>
<totfact> 0.73688376E+06</totfact>
</mgrwt>
</event>
<event>
 3    1  0.1619206E-001  0.1250000E+03  0.7546771E-02  0.1235069E+00
         21   -1    0    0  502  501  0.00000000000E+00  0.00000000000E+00  0.34726177075E+02  0.34726177075E+02  0.00000000000E+00 0.  1.
         21   -1    0    0  501  502 -0.00000000000E+00 -0.00000000000E+00 -0.11248718774E+03  0.11248718774E+03  0.00000000000E+00 0.  1.
         25    1    1    2    0    0  0.00000000000E+00  0.00000000000E+00 -0.77761010660E+02  0.14721336481E+03  0.12500000000E+03 0.  0.
<mgrwt>
<rscale>  0 0.12500000E+03</rscale>
<asrwt>0</asrwt>
<pdfrwt beam="1">  1       21 0.53424888E-02 0.12500000E+03</pdfrwt>
<pdfrwt beam="2">  1       21 0.17305721E-01 0.12500000E+03</pdfrwt>
<totfact> 0.71111033E+06</totfact>
</mgrwt>
</event>
<event>
 3    1  0.1619206E-001  0.1250000E+03  0.7546771E-02  0.1235069E+00
         21   -1    0    0  502  501  0.00000000000E+00  0.00000000000E+00  0.76943180346E+02  0.76943180346E+02  0.00000000000E+00 0. -1.
         21   -1    0    0  501  502 -0.00000000000E+00 -0.00000000000E+00 -0.50767982067E+02  0.50767982067E+02  0.00000000000E+00 0. -1.
         25    1    1    2    0    0  0.00000000000E+00  0.00000000000E+00  0.26175198278E+02  0.12771116241E+03  0.12500000000E+03 0.  0.
<mgrwt>
<rscale>  0 0.12500000E+03</rscale>
<asrwt>0</asrwt>
<pdfrwt beam="1">  1       21 0.11837412E-01 0.12500000E+03</pdfrwt>
<pdfrwt beam="2">  1       21 0.78104588E-02 0.12500000E+03</pdfrwt>
<totfact> 0.73672615E+06</totfact>
</mgrwt>
</event>
<event>
 3    1  0.1619206E-001  0.1250000E+03  0.7546771E-02  0.1235069E+00
         21   -1    0    0  502  501  0.00000000000E+00  0.00000000000E+00  0.37091797844E+02  0.37091797844E+02  0.00000000000E+00 0. -1.
         21   -1    0    0  501  502 -0.00000000000E+00 -0.00000000000E+00 -0.10531304027E+03  0.10531304027E+03  0.00000000000E+00 0. -1.
         25    1    1    2    0    0  0.00000000000E+00  0.00000000000E+00 -0.68221242425E+02  0.14240483811E+03  0.12500000000E+03 0.  0.
<mgrwt>
<rscale>  0 0.12500000E+03</rscale>
<asrwt>0</asrwt>
<pdfrwt beam="1">  1       21 0.57064305E-02 0.12500000E+03</pdfrwt>
<pdfrwt beam="2">  1       21 0.16202006E-01 0.12500000E+03</pdfrwt>
<totfact> 0.71726896E+06</totfact>
</mgrwt>
</event>
<event>
 3    1  0.1619206E-001  0.1250000E+03  0.7546771E-02  0.1235069E+00
         21   -1    0    0  502  501  0.00000000000E+00  0.00000000000E+00  0.57944933162E+01  0.57944933162E+01  0.00000000000E+00 0.  1.
         21   -1    0    0  501  502 -0.00000000000E+00 -0.00000000000E+00 -0.67413141871E+03  0.67413141871E+03  0.00000000000E+00 0.  1.
         25    1    1    2    0    0  0.00000000000E+00  0.00000000000E+00 -0.66833692540E+03  0.67992591203E+03  0.12500000000E+03 0.  0.
<mgrwt>
<rscale>  0 0.12500000E+03</rscale>
<asrwt>0</asrwt>
<pdfrwt beam="1">  1       21 0.89146059E-03 0.12500000E+03</pdfrwt>
<pdfrwt beam="2">  1       21 0.10371252E+00 0.12500000E+03</pdfrwt>
<totfact> 0.33698533E+06</totfact>
</mgrwt>
</event>
<event>
 3    1  0.1619206E-001  0.1250000E+03  0.7546771E-02  0.1235069E+00
         21   -1    0    0  502  501  0.00000000000E+00  0.00000000000E+00  0.18975446441E+02  0.18975446441E+02  0.00000000000E+00 0. -1.
         21   -1    0    0  501  502 -0.00000000000E+00 -0.00000000000E+00 -0.20585813421E+03  0.20585813421E+03  0.00000000000E+00 0. -1.
         25    1    1    2    0    0  0.00000000000E+00  0.00000000000E+00 -0.18688268776E+03  0.22483358065E+03  0.12500000000E+03 0.  0.
<mgrwt>
<rscale>  0 0.12500000E+03</rscale>
<asrwt>0</asrwt>
<pdfrwt beam="1">  1       21 0.29192995E-02 0.12500000E+03</pdfrwt>
<pdfrwt beam="2">  1       21 0.31670482E-01 0.12500000E+03</pdfrwt>
<totfact> 0.62331868E+06</totfact>
</mgrwt>
</event>
<event>
 3    1  0.1619206E-001  0.1250000E+03  0.7546771E-02  0.1235069E+00
         21   -1    0    0  502  501  0.00000000000E+00  0.00000000000E+00  0.38501970271E+01  0.38501970271E+01  0.00000000000E+00 0. -1.
         21   -1    0    0  501  502 -0.00000000000E+00 -0.00000000000E+00 -0.10145584687E+04  0.10145584687E+04  0.00000000000E+00 0. -1.
         25    1    1    2    0    0  0.00000000000E+00  0.00000000000E+00 -0.10107082717E+04  0.10184086657E+04  0.12500000000E+03 0.  0.
<mgrwt>
<rscale>  0 0.12500000E+03</rscale>
<asrwt>0</asrwt>
<pdfrwt beam="1">  1       21 0.59233843E-03 0.12500000E+03</pdfrwt>
<pdfrwt beam="2">  1       21 0.15608581E+00 0.12500000E+03</pdfrwt>
<totfact> 0.23162668E+06</totfact>
</mgrwt>
</event>
<event>
 3    1  0.1619206E-001  0.1250000E+03  0.7546771E-02  0.1235069E+00
         21   -1    0    0  502  501  0.00000000000E+00  0.00000000000E+00  0.15746203248E+03  0.15746203248E+03  0.00000000000E+00 0.  1.
         21   -1    0    0  501  502 -0.00000000000E+00 -0.00000000000E+00 -0.24807567503E+02  0.24807567503E+02  0.00000000000E+00 0.  1.
         25    1    1    2    0    0  0.00000000000E+00  0.00000000000E+00  0.13265446498E+03  0.18226959999E+03  0.12500000000E+03 0.  0.
<mgrwt>
<rscale>  0 0.12500000E+03</rscale>
<asrwt>0</asrwt>
<pdfrwt beam="1">  1       21 0.24224927E-01 0.12500000E+03</pdfrwt>
<pdfrwt beam="2">  1       21 0.38165489E-02 0.12500000E+03</pdfrwt>
<totfact> 0.66892125E+06</totfact>
</mgrwt>
</event>
<event>
 3    1  0.1619206E-001  0.1250000E+03  0.7546771E-02  0.1235069E+00
         21   -1    0    0  502  501  0.00000000000E+00  0.00000000000E+00  0.45444021953E+02  0.45444021953E+02  0.00000000000E+00 0.  1.
         21   -1    0    0  501  502 -0.00000000000E+00 -0.00000000000E+00 -0.85957400602E+02  0.85957400602E+02  0.00000000000E+00 0.  1.
         25    1    1    2    0    0  0.00000000000E+00  0.00000000000E+00 -0.40513378648E+02  0.13140142256E+03  0.12500000000E+03 0.  0.
<mgrwt>
<rscale>  0 0.12500000E+03</rscale>
<asrwt>0</asrwt>
<pdfrwt beam="1">  1       21 0.69913880E-02 0.12500000E+03</pdfrwt>
<pdfrwt beam="2">  1       21 0.13224216E-01 0.12500000E+03</pdfrwt>
<totfact> 0.73176627E+06</totfact>
</mgrwt>
</event>
<event>
 3    1  0.1619206E-001  0.1250000E+03  0.7546771E-02  0.1235069E+00
         21   -1    0    0  502  501  0.00000000000E+00  0.00000000000E+00  0.13834944183E+03  0.13834944183E+03  0.00000000000E+00 0.  1.
         21   -1    0    0  501  502 -0.00000000000E+00 -0.00000000000E+00 -0.28234663966E+02  0.28234663966E+02  0.00000000000E+00 0.  1.
         25    1    1    2    0    0  0.00000000000E+00  0.00000000000E+00  0.11011477787E+03  0.16658410580E+03  0.12500000000E+03 0.  0.
<mgrwt>
<rscale>  0 0.12500000E+03</rscale>
<asrwt>0</asrwt>
<pdfrwt beam="1">  1       21 0.21284529E-01 0.12500000E+03</pdfrwt>
<pdfrwt beam="2">  1       21 0.43437945E-02 0.12500000E+03</pdfrwt>
<totfact> 0.68723805E+06</totfact>
</mgrwt>
</event>
<event>
 3    1  0.1619206E-001  0.1250000E+03  0.7546771E-02  0.1235069E+00
         21   -1    0    0  502  501  0.00000000000E+00  0.00000000000E+00  0.55237340645E+01  0.55237340645E+01  0.00000000000E+00 0.  1.
         21   -1    0    0  501  502 -0.00000000000E+00 -0.00000000000E+00 -0.70717560882E+03  0.70717560882E+03  0.00000000000E+00 0.  1.
         25    1    1    2    0    0  0.00000000000E+00  0.00000000000E+00 -0.70165187475E+03  0.71269934288E+03  0.12500000000E+03 0.  0.
<mgrwt>
<rscale>  0 0.12500000E+03</rscale>
<asrwt>0</asrwt>
<pdfrwt beam="1">  1       21 0.84980579E-03 0.12500000E+03</pdfrwt>
<pdfrwt beam="2">  1       21 0.10879618E+00 0.12500000E+03</pdfrwt>
<totfact> 0.32426271E+06</totfact>
</mgrwt>
</event>
<event>
 3    1  0.1619206E-001  0.1250000E+03  0.7546771E-02  0.1235069E+00
         21   -1    0    0  502  501  0.00000000000E+00  0.00000000000E+00  0.71266478398E+02  0.71266478398E+02  0.00000000000E+00 0. -1.
         21   -1    0    0  501  502 -0.00000000000E+00 -0.00000000000E+00 -0.54811884743E+02  0.54811884743E+02  0.00000000000E+00 0. -1.
         25    1    1    2    0    0  0.00000000000E+00  0.00000000000E+00  0.16454593655E+02  0.12607836314E+03  0.12500000000E+03 0.  0.
<mgrwt>
<rscale>  0 0.12500000E+03</rscale>
<asrwt>0</asrwt>
<pdfrwt beam="1">  1       21 0.10964074E-01 0.12500000E+03</pdfrwt>
<pdfrwt beam="2">  1       21 0.84325977E-02 0.12500000E+03</pdfrwt>
<totfact> 0.73895241E+06</totfact>
</mgrwt>
</event>
<event>
 3    1  0.1619206E-001  0.1250000E+03  0.7546771E-02  0.1235069E+00
         21   -1    0    0  502  501  0.00000000000E+00  0.00000000000E+00  0.10529704475E+04  0.10529704475E+04  0.00000000000E+00 0. -1.
         21   -1    0    0  501  502 -0.00000000000E+00 -0.00000000000E+00 -0.37097432405E+01  0.37097432405E+01  0.00000000000E+00 0. -1.
         25    1    1    2    0    0  0.00000000000E+00  0.00000000000E+00  0.10492607042E+04  0.10566801907E+04  0.12500000000E+03 0.  0.
<mgrwt>
<rscale>  0 0.12500000E+03</rscale>
<asrwt>0</asrwt>
<pdfrwt beam="1">  1       21 0.16199522E+00 0.12500000E+03</pdfrwt>
<pdfrwt beam="2">  1       21 0.57073057E-03 0.12500000E+03</pdfrwt>
<totfact> 0.22241483E+06</totfact>
</mgrwt>
</event>
<event>
 3    1  0.1619206E-001  0.1250000E+03  0.7546771E-02  0.1235069E+00
         21   -1    0    0  502  501  0.00000000000E+00  0.00000000000E+00  0.39465946323E+02  0.39465946323E+02  0.00000000000E+00 0. -1.
         21   -1    0    0  501  502 -0.00000000000E+00 -0.00000000000E+00 -0.98977735591E+02  0.98977735591E+02  0.00000000000E+00 0. -1.
         25    1    1    2    0    0  0.00000000000E+00  0.00000000000E+00 -0.59511789268E+02  0.13844368191E+03  0.12500000000E+03 0.  0.
<mgrwt>
<rscale>  0 0.12500000E+03</rscale>
<asrwt>0</asrwt>
<pdfrwt beam="1">  1       21 0.60716841E-02 0.12500000E+03</pdfrwt>
<pdfrwt beam="2">  1       21 0.15227344E-01 0.12500000E+03</pdfrwt>
<totfact> 0.72243139E+06</totfact>
</mgrwt>
</event>
<event>
 3    1  0.1619206E-001  0.1250000E+03  0.7546771E-02  0.1235069E+00
         21   -1    0    0  502  501  0.00000000000E+00  0.00000000000E+00  0.15983607736E+03  0.15983607736E+03  0.00000000000E+00 0.  1.
         21   -1    0    0  501  502 -0.00000000000E+00 -0.00000000000E+00 -0.24439100762E+02  0.24439100762E+02  0.00000000000E+00 0.  1.
         25    1    1    2    0    0  0.00000000000E+00  0.00000000000E+00  0.13539697659E+03  0.18427517812E+03  0.12500000000E+03 0.  0.
<mgrwt>
<rscale>  0 0.12500000E+03</rscale>
<asrwt>0</asrwt>
<pdfrwt beam="1">  1       21 0.24590165E-01 0.12500000E+03</pdfrwt>
<pdfrwt beam="2">  1       21 0.37598618E-02 0.12500000E+03</pdfrwt>
<totfact> 0.66664454E+06</totfact>
</mgrwt>
</event>
<event>
 3    1  0.1619206E-001  0.1250000E+03  0.7546771E-02  0.1235069E+00
         21   -1    0    0  502  501  0.00000000000E+00  0.00000000000E+00  0.10043520614E+03  0.10043520614E+03  0.00000000000E+00 0. -1.
         21   -1    0    0  501  502 -0.00000000000E+00 -0.00000000000E+00 -0.38893234258E+02  0.38893234258E+02  0.00000000000E+00 0. -1.
         25    1    1    2    0    0  0.00000000000E+00  0.00000000000E+00  0.61541971878E+02  0.13932844039E+03  0.12500000000E+03 0.  0.
<mgrwt>
<rscale>  0 0.12500000E+03</rscale>
<asrwt>0</asrwt>
<pdfrwt beam="1">  1       21 0.15451570E-01 0.12500000E+03</pdfrwt>
<pdfrwt beam="2">  1       21 0.59835745E-02 0.12500000E+03</pdfrwt>
<totfact> 0.72127100E+06</totfact>
</mgrwt>
</event>
<event>
 3    1  0.1619206E-001  0.1250000E+03  0.7546771E-02  0.1235069E+00
         21   -1    0    0  502  501  0.00000000000E+00  0.00000000000E+00  0.10918351716E+03  0.10918351716E+03  0.00000000000E+00 0. -1.
         21   -1    0    0  501  502 -0.00000000000E+00 -0.00000000000E+00 -0.35776920378E+02  0.35776920378E+02  0.00000000000E+00 0. -1.
         25    1    1    2    0    0  0.00000000000E+00  0.00000000000E+00  0.73406596781E+02  0.14496043754E+03  0.12500000000E+03 0.  0.
<mgrwt>
<rscale>  0 0.12500000E+03</rscale>
<asrwt>0</asrwt>
<pdfrwt beam="1">  1       21 0.16797464E-01 0.12500000E+03</pdfrwt>
<pdfrwt beam="2">  1       21 0.55041416E-02 0.12500000E+03</pdfrwt>
<totfact> 0.71398162E+06</totfact>
</mgrwt>
</event>
<event>
 3    1  0.1619206E-001  0.1250000E+03  0.7546771E-02  0.1235069E+00
         21   -1    0    0  502  501  0.00000000000E+00  0.00000000000E+00  0.45584482620E+03  0.45584482620E+03  0.00000000000E+00 0.  1.
         21   -1    0    0  501  502 -0.00000000000E+00 -0.00000000000E+00 -0.85692537799E+01  0.85692537799E+01  0.00000000000E+00 0.  1.
         25    1    1    2    0    0  0.00000000000E+00  0.00000000000E+00  0.44727557242E+03  0.46441407998E+03  0.12500000000E+03 0.  0.
<mgrwt>
<rscale>  0 0.12500000E+03</rscale>
<asrwt>0</asrwt>
<pdfrwt beam="1">  1       21 0.70129954E-01 0.12500000E+03</pdfrwt>
<pdfrwt beam="2">  1       21 0.13183471E-02 0.12500000E+03</pdfrwt>
<totfact> 0.44042146E+06</totfact>
</mgrwt>
</event>
<event>
 3    1  0.1619206E-001  0.1250000E+03  0.7546771E-02  0.1235069E+00
         21   -1    0    0  502  501  0.00000000000E+00  0.00000000000E+00  0.43317410513E+03  0.43317410513E+03  0.00000000000E+00 0.  1.
         21   -1    0    0  501  502 -0.00000000000E+00 -0.00000000000E+00 -0.90177366416E+01  0.90177366416E+01  0.00000000000E+00 0.  1.
         25    1    1    2    0    0  0.00000000000E+00  0.00000000000E+00  0.42415636849E+03  0.44219184177E+03  0.12500000000E+03 0.  0.
<mgrwt>
<rscale>  0 0.12500000E+03</rscale>
<asrwt>0</asrwt>
<pdfrwt beam="1">  1       21 0.66642154E-01 0.12500000E+03</pdfrwt>
<pdfrwt beam="2">  1       21 0.13873444E-02 0.12500000E+03</pdfrwt>
<totfact> 0.45363179E+06</totfact>
</mgrwt>
</event>
<event>
 3    1  0.1619206E-001  0.1250000E+03  0.7546771E-02  0.1235069E+00
         21   -1    0    0  502  501  0.00000000000E+00  0.00000000000E+00  0.73464554890E+02  0.73464554890E+02  0.00000000000E+00 0. -1.
         21   -1    0    0  501  502 -0.00000000000E+00 -0.00000000000E+00 -0.53171900461E+02  0.53171900461E+02  0.00000000000E+00 0. -1.
         25    1    1    2    0    0  0.00000000000E+00  0.00000000000E+00  0.20292654429E+02  0.12663645535E+03  0.12500000000E+03 0.  0.
<mgrwt>
<rscale>  0 0.12500000E+03</rscale>
<asrwt>0</asrwt>
<pdfrwt beam="1">  1       21 0.11302239E-01 0.12500000E+03</pdfrwt>
<pdfrwt beam="2">  1       21 0.81802924E-02 0.12500000E+03</pdfrwt>
<totfact> 0.73818714E+06</totfact>
</mgrwt>
</event>
<event>
 3    1  0.1619206E-001  0.1250000E+03  0.7546771E-02  0.1235069E+00
         21   -1    0    0  502  501  0.00000000000E+00  0.00000000000E+00  0.15120751424E+02  0.15120751424E+02  0.00000000000E+00 0.  1.
         21   -1    0    0  501  502 -0.00000000000E+00 -0.00000000000E+00 -0.25833702905E+03  0.25833702905E+03  0.00000000000E+00 0.  1.
         25    1    1    2    0    0  0.00000000000E+00  0.00000000000E+00 -0.24321627763E+03  0.27345778048E+03  0.12500000000E+03 0.  0.
<mgrwt>
<rscale>  0 0.12500000E+03</rscale>
<asrwt>0</asrwt>
<pdfrwt beam="1">  1       21 0.23262695E-02 0.12500000E+03</pdfrwt>
<pdfrwt beam="2">  1       21 0.39744157E-01 0.12500000E+03</pdfrwt>
<totfact> 0.57736675E+06</totfact>
</mgrwt>
</event>
<event>
 3    1  0.1619206E-001  0.1250000E+03  0.7546771E-02  0.1235069E+00
         21   -1    0    0  502  501  0.00000000000E+00  0.00000000000E+00  0.20925939355E+02  0.20925939355E+02  0.00000000000E+00 0. -1.
         21   -1    0    0  501  502 -0.00000000000E+00 -0.00000000000E+00 -0.18667023418E+03  0.18667023418E+03  0.00000000000E+00 0. -1.
         25    1    1    2    0    0  0.00000000000E+00  0.00000000000E+00 -0.16574429483E+03  0.20759617354E+03  0.12500000000E+03 0.  0.
<mgrwt>
<rscale>  0 0.12500000E+03</rscale>
<asrwt>0</asrwt>
<pdfrwt beam="1">  1       21 0.32193754E-02 0.12500000E+03</pdfrwt>
<pdfrwt beam="2">  1       21 0.28718497E-01 0.12500000E+03</pdfrwt>
<totfact> 0.64113337E+06</totfact>
</mgrwt>
</event>
<event>
 3    1  0.1619206E-001  0.1250000E+03  0.7546771E-02  0.1235069E+00
         21   -1    0    0  502  501  0.00000000000E+00  0.00000000000E+00  0.17957406128E+02  0.17957406128E+02  0.00000000000E+00 0. -1.
         21   -1    0    0  501  502 -0.00000000000E+00 -0.00000000000E+00 -0.21752863259E+03  0.21752863259E+03  0.00000000000E+00 0. -1.
         25    1    1    2    0    0  0.00000000000E+00  0.00000000000E+00 -0.19957122647E+03  0.23548603872E+03  0.12500000000E+03 0.  0.
<mgrwt>
<rscale>  0 0.12500000E+03</rscale>
<asrwt>0</asrwt>
<pdfrwt beam="1">  1       21 0.27626779E-02 0.12500000E+03</pdfrwt>
<pdfrwt beam="2">  1       21 0.33465944E-01 0.12500000E+03</pdfrwt>
<totfact> 0.61272223E+06</totfact>
</mgrwt>
</event>
<event>
 3    1  0.1619206E-001  0.1250000E+03  0.7546771E-02  0.1235069E+00
         21   -1    0    0  502  501  0.00000000000E+00  0.00000000000E+00  0.12723040564E+02  0.12723040564E+02  0.00000000000E+00 0. -1.
         21   -1    0    0  501  502 -0.00000000000E+00 -0.00000000000E+00 -0.30702173591E+03  0.30702173591E+03  0.00000000000E+00 0. -1.
         25    1    1    2    0    0  0.00000000000E+00  0.00000000000E+00 -0.29429869535E+03  0.31974477648E+03  0.12500000000E+03 0.  0.
<mgrwt>
<rscale>  0 0.12500000E+03</rscale>
<asrwt>0</asrwt>
<pdfrwt beam="1">  1       21 0.19573909E-02 0.12500000E+03</pdfrwt>
<pdfrwt beam="2">  1       21 0.47234111E-01 0.12500000E+03</pdfrwt>
<totfact> 0.53853575E+06</totfact>
</mgrwt>
</event>
<event>
 3    1  0.1619206E-001  0.1250000E+03  0.7546771E-02  0.1235069E+00
         21   -1    0    0  502  501  0.00000000000E+00  0.00000000000E+00  0.11707809100E+03  0.11707809100E+03  0.00000000000E+00 0. -1.
         21   -1    0    0  501  502 -0.00000000000E+00 -0.00000000000E+00 -0.33364483198E+02  0.33364483198E+02  0.00000000000E+00 0. -1.
         25    1    1    2    0    0  0.00000000000E+00  0.00000000000E+00  0.83713607802E+02  0.15044257420E+03  0.12500000000E+03 0.  0.
<mgrwt>
<rscale>  0 0.12500000E+03</rscale>
<asrwt>0</asrwt>
<pdfrwt beam="1">  1       21 0.18012014E-01 0.12500000E+03</pdfrwt>
<pdfrwt beam="2">  1       21 0.51329975E-02 0.12500000E+03</pdfrwt>
<totfact> 0.70703650E+06</totfact>
</mgrwt>
</event>
<event>
 3    1  0.1619206E-001  0.1250000E+03  0.7546771E-02  0.1235069E+00
         21   -1    0    0  502  501  0.00000000000E+00  0.00000000000E+00  0.18033686720E+03  0.18033686720E+03  0.00000000000E+00 0.  1.
         21   -1    0    0  501  502 -0.00000000000E+00 -0.00000000000E+00 -0.21660850943E+02  0.21660850943E+02  0.00000000000E+00 0.  1.
         25    1    1    2    0    0  0.00000000000E+00  0.00000000000E+00  0.15867601626E+03  0.20199771814E+03  0.12500000000E+03 0.  0.
<mgrwt>
<rscale>  0 0.12500000E+03</rscale>
<asrwt>0</asrwt>
<pdfrwt beam="1">  1       21 0.27744132E-01 0.12500000E+03</pdfrwt>
<pdfrwt beam="2">  1       21 0.33324387E-02 0.12500000E+03</pdfrwt>
<totfact> 0.64711428E+06</totfact>
</mgrwt>
</event>
<event>
 3    1  0.1619206E-001  0.1250000E+03  0.7546771E-02  0.1235069E+00
         21   -1    0    0  502  501  0.00000000000E+00  0.00000000000E+00  0.73361029737E+02  0.73361029737E+02  0.00000000000E+00 0.  1.
         21   -1    0    0  501  502 -0.00000000000E+00 -0.00000000000E+00 -0.53246935246E+02  0.53246935246E+02  0.00000000000E+00 0.  1.
         25    1    1    2    0    0  0.00000000000E+00  0.00000000000E+00  0.20114094491E+02  0.12660796498E+03  0.12500000000E+03 0.  0.
<mgrwt>
<rscale>  0 0.12500000E+03</rscale>
<asrwt>0</asrwt>
<pdfrwt beam="1">  1       21 0.11286312E-01 0.12500000E+03</pdfrwt>
<pdfrwt beam="2">  1       21 0.81918361E-02 0.12500000E+03</pdfrwt>
<totfact> 0.73822607E+06</totfact>
</mgrwt>
</event>
<event>
 3    1  0.1619206E-001  0.1250000E+03  0.7546771E-02  0.1235069E+00
         21   -1    0    0  502  501  0.00000000000E+00  0.00000000000E+00  0.35490193272E+02  0.35490193272E+02  0.00000000000E+00 0. -1.
         21   -1    0    0  501  502 -0.00000000000E+00 -0.00000000000E+00 -0.11006561644E+03  0.11006561644E+03  0.00000000000E+00 0. -1.
         25    1    1    2    0    0  0.00000000000E+00  0.00000000000E+00 -0.74575423165E+02  0.14555580971E+03  0.12500000000E+03 0.  0.
<mgrwt>
<rscale>  0 0.12500000E+03</rscale>
<asrwt>0</asrwt>
<pdfrwt beam="1">  1       21 0.54600299E-02 0.12500000E+03</pdfrwt>
<pdfrwt beam="2">  1       21 0.16933171E-01 0.12500000E+03</pdfrwt>
<totfact> 0.71322045E+06</totfact>
</mgrwt>
</event>
<event>
 3    1  0.1619206E-001  0.1250000E+03  0.7546771E-02  0.1235069E+00
         21   -1    0    0  502  501  0.00000000000E+00  0.00000000000E+00  0.23751732771E+01  0.23751732771E+01  0.00000000000E+00 0.  1.
         21   -1    0    0  501  502 -0.00000000000E+00 -0.00000000000E+00 -0.16446168529E+04  0.16446168529E+04  0.00000000000E+00 0.  1.
         25    1    1    2    0    0  0.00000000000E+00  0.00000000000E+00 -0.16422416796E+04  0.16469920261E+04  0.12500000000E+03 0.  0.
<mgrwt>
<rscale>  0 0.12500000E+03</rscale>
<asrwt>0</asrwt>
<pdfrwt beam="1">  1       21 0.36541100E-03 0.12500000E+03</pdfrwt>
<pdfrwt beam="2">  1       21 0.25301817E+00 0.12500000E+03</pdfrwt>
<totfact> 0.11947137E+06</totfact>
</mgrwt>
</event>
<event>
 3    1  0.1619206E-001  0.1250000E+03  0.7546771E-02  0.1235069E+00
         21   -1    0    0  502  501  0.00000000000E+00  0.00000000000E+00  0.40010712781E+02  0.40010712781E+02  0.00000000000E+00 0.  1.
         21   -1    0    0  501  502 -0.00000000000E+00 -0.00000000000E+00 -0.97630102751E+02  0.97630102751E+02  0.00000000000E+00 0.  1.
         25    1    1    2    0    0  0.00000000000E+00  0.00000000000E+00 -0.57619389970E+02  0.13764081553E+03  0.12500000000E+03 0.  0.
<mgrwt>
<rscale>  0 0.12500000E+03</rscale>
<asrwt>0</asrwt>
<pdfrwt beam="1">  1       21 0.61554943E-02 0.12500000E+03</pdfrwt>
<pdfrwt beam="2">  1       21 0.15020016E-01 0.12500000E+03</pdfrwt>
<totfact> 0.72348661E+06</totfact>
</mgrwt>
</event>
<event>
 3    1  0.1619206E-001  0.1250000E+03  0.7546771E-02  0.1235069E+00
         21   -1    0    0  502  501  0.00000000000E+00  0.00000000000E+00  0.68921813872E+03  0.68921813872E+03  0.00000000000E+00 0.  1.
         21   -1    0    0  501  502 -0.00000000000E+00 -0.00000000000E+00 -0.56676540859E+01  0.56676540859E+01  0.00000000000E+00 0.  1.
         25    1    1    2    0    0  0.00000000000E+00  0.00000000000E+00  0.68355048463E+03  0.69488579281E+03  0.12500000000E+03 0.  0.
<mgrwt>
<rscale>  0 0.12500000E+03</rscale>
<asrwt>0</asrwt>
<pdfrwt beam="1">  1       21 0.10603349E+00 0.12500000E+03</pdfrwt>
<pdfrwt beam="2">  1       21 0.87194733E-03 0.12500000E+03</pdfrwt>
<totfact> 0.33108260E+06</totfact>
</mgrwt>
</event>
<event>
 3    1  0.1619206E-001  0.1250000E+03  0.7546771E-02  0.1235069E+00
         21   -1    0    0  502  501  0.00000000000E+00  0.00000000000E+00  0.27328763008E+02  0.27328763008E+02  0.00000000000E+00 0. -1.
         21   -1    0    0  501  502 -0.00000000000E+00 -0.00000000000E+00 -0.14293548518E+03  0.14293548518E+03  0.00000000000E+00 0. -1.
         25    1    1    2    0    0  0.00000000000E+00  0.00000000000E+00 -0.11560672217E+03  0.17026424819E+03  0.12500000000E+03 0.  0.
<mgrwt>
<rscale>  0 0.12500000E+03</rscale>
<asrwt>0</asrwt>
<pdfrwt beam="1">  1       21 0.42044251E-02 0.12500000E+03</pdfrwt>
<pdfrwt beam="2">  1       21 0.21990075E-01 0.12500000E+03</pdfrwt>
<totfact> 0.68286324E+06</totfact>
</mgrwt>
</event>
<event>
 3    1  0.1619206E-001  0.1250000E+03  0.7546771E-02  0.1235069E+00
         21   -1    0    0  502  501  0.00000000000E+00  0.00000000000E+00  0.11434685810E+03  0.11434685810E+03  0.00000000000E+00 0.  1.
         21   -1    0    0  501  502 -0.00000000000E+00 -0.00000000000E+00 -0.34161410859E+02  0.34161410859E+02  0.00000000000E+00 0.  1.
         25    1    1    2    0    0  0.00000000000E+00  0.00000000000E+00  0.80185447241E+02  0.14850826896E+03  0.12500000000E+03 0.  0.
<mgrwt>
<rscale>  0 0.12500000E+03</rscale>
<asrwt>0</asrwt>
<pdfrwt beam="1">  1       21 0.17591824E-01 0.12500000E+03</pdfrwt>
<pdfrwt beam="2">  1       21 0.52556017E-02 0.12500000E+03</pdfrwt>
<totfact> 0.70947096E+06</totfact>
</mgrwt>
</event>
<event>
 3    1  0.1619206E-001  0.1250000E+03  0.7546771E-02  0.1235069E+00
         21   -1    0    0  502  501  0.00000000000E+00  0.00000000000E+00  0.60684840426E+02  0.60684840426E+02  0.00000000000E+00 0. -1.
         21   -1    0    0  501  502 -0.00000000000E+00 -0.00000000000E+00 -0.64369453270E+02  0.64369453270E+02  0.00000000000E+00 0. -1.
         25    1    1    2    0    0  0.00000000000E+00  0.00000000000E+00 -0.36846128439E+01  0.12505429370E+03  0.12500000000E+03 0.  0.
<mgrwt>
<rscale>  0 0.12500000E+03</rscale>
<asrwt>0</asrwt>
<pdfrwt beam="1">  1       21 0.93361293E-02 0.12500000E+03</pdfrwt>
<pdfrwt beam="2">  1       21 0.99029928E-02 0.12500000E+03</pdfrwt>
<totfact> 0.74036248E+06</totfact>
</mgrwt>
</event>
<event>
 3    1  0.1619206E-001  0.1250000E+03  0.7546771E-02  0.1235069E+00
         21   -1    0    0  502  501  0.00000000000E+00  0.00000000000E+00  0.10869748944E+03  0.10869748944E+03  0.00000000000E+00 0. -1.
         21   -1    0    0  501  502 -0.00000000000E+00 -0.00000000000E+00 -0.35936892564E+02  0.35936892564E+02  0.00000000000E+00 0. -1.
         25    1    1    2    0    0  0.00000000000E+00  0.00000000000E+00  0.72760596877E+02  0.14463438200E+03  0.12500000000E+03 0.  0.
<mgrwt>
<rscale>  0 0.12500000E+03</rscale>
<asrwt>0</asrwt>
<pdfrwt beam="1">  1       21 0.16722691E-01 0.12500000E+03</pdfrwt>
<pdfrwt beam="2">  1       21 0.55287527E-02 0.12500000E+03</pdfrwt>
<totfact> 0.71439921E+06</totfact>
</mgrwt>
</event>
<event>
 3    1  0.1619206E-001  0.1250000E+03  0.7546771E-02  0.1235069E+00
         21   -1    0    0  502  501  0.00000000000E+00  0.00000000000E+00  0.46100479782E+02  0.46100479782E+02  0.00000000000E+00 0. -1.
         21   -1    0    0  501  502 -0.00000000000E+00 -0.00000000000E+00 -0.84733391463E+02  0.84733391463E+02  0.00000000000E+00 0. -1.
         25    1    1    2    0    0  0.00000000000E+00  0.00000000000E+00 -0.38632911681E+02  0.13083387124E+03  0.12500000000E+03 0.  0.
<mgrwt>
<rscale>  0 0.12500000E+03</rscale>
<asrwt>0</asrwt>
<pdfrwt beam="1">  1       21 0.70923815E-02 0.12500000E+03</pdfrwt>
<pdfrwt beam="2">  1       21 0.13035906E-01 0.12500000E+03</pdfrwt>
<totfact> 0.73253067E+06</totfact>
</mgrwt>
</event>
<event>
 3    1  0.1619206E-001  0.1250000E+03  0.7546771E-02  0.1235069E+00
         21   -1    0    0  502  501  0.00000000000E+00  0.00000000000E+00  0.10832352268E+02  0.10832352268E+02  0.00000000000E+00 0. -1.
         21   -1    0    0  501  502 -0.00000000000E+00 -0.00000000000E+00 -0.36060957983E+03  0.36060957983E+03  0.00000000000E+00 0. -1.
         25    1    1    2    0    0  0.00000000000E+00  0.00000000000E+00 -0.34977722756E+03  0.37144193210E+03  0.12500000000E+03 0.  0.
<mgrwt>
<rscale>  0 0.12500000E+03</rscale>
<asrwt>0</asrwt>
<pdfrwt beam="1">  1       21 0.16665160E-02 0.12500000E+03</pdfrwt>
<pdfrwt beam="2">  1       21 0.55478389E-01 0.12500000E+03</pdfrwt>
<totfact> 0.49992834E+06</totfact>
</mgrwt>
</event>
<event>
 3    1  0.1619206E-001  0.1250000E+03  0.7546771E-02  0.1235069E+00
         21   -1    0    0  502  501  0.00000000000E+00  0.00000000000E+00  0.71983001243E+02  0.71983001243E+02  0.00000000000E+00 0.  1.
         21   -1    0    0  501  502 -0.00000000000E+00 -0.00000000000E+00 -0.54266284158E+02  0.54266284158E+02  0.00000000000E+00 0.  1.
         25    1    1    2    0    0  0.00000000000E+00  0.00000000000E+00  0.17716717085E+02  0.12624928540E+03  0.12500000000E+03 0.  0.
<mgrwt>
<rscale>  0 0.12500000E+03</rscale>
<asrwt>0</asrwt>
<pdfrwt beam="1">  1       21 0.11074308E-01 0.12500000E+03</pdfrwt>
<pdfrwt beam="2">  1       21 0.83486591E-02 0.12500000E+03</pdfrwt>
<totfact> 0.73871740E+06</totfact>
</mgrwt>
</event>
<event>
 3    1  0.1619206E-001  0.1250000E+03  0.7546771E-02  0.1235069E+00
         21   -1    0    0  502  501  0.00000000000E+00  0.00000000000E+00  0.13080369117E+03  0.13080369117E+03  0.00000000000E+00 0.  1.
         21   -1    0    0  501  502 -0.00000000000E+00 -0.00000000000E+00 -0.29863453892E+02  0.29863453892E+02  0.00000000000E+00 0.  1.
         25    1    1    2    0    0  0.00000000000E+00  0.00000000000E+00  0.10094023727E+03  0.16066714506E+03  0.12500000000E+03 0.  0.
<mgrwt>
<rscale>  0 0.12500000E+03</rscale>
<asrwt>0</asrwt>
<pdfrwt beam="1">  1       21 0.20123645E-01 0.12500000E+03</pdfrwt>
<pdfrwt beam="2">  1       21 0.45943776E-02 0.12500000E+03</pdfrwt>
<totfact> 0.69438070E+06</totfact>
</mgrwt>
</event>
<event>
 3    1  0.1619206E-001  0.1250000E+03  0.7546771E-02  0.1235069E+00
         21   -1    0    0  502  501  0.00000000000E+00  0.00000000000E+00  0.33091687592E+01  0.33091687592E+01  0.00000000000E+00 0. -1.
         21   -1    0    0  501  502 -0.00000000000E+00 -0.00000000000E+00 -0.11804323938E+04  0.11804323938E+04  0.00000000000E+00 0. -1.
         25    1    1    2    0    0  0.00000000000E+00  0.00000000000E+00 -0.11771232251E+04  0.11837415626E+04  0.12500000000E+03 0.  0.
<mgrwt>
<rscale>  0 0.12500000E+03</rscale>
<asrwt>0</asrwt>
<pdfrwt beam="1">  1       21 0.50910280E-03 0.12500000E+03</pdfrwt>
<pdfrwt beam="2">  1       21 0.18160501E+00 0.12500000E+03</pdfrwt>
<totfact> 0.19470414E+06</totfact>
</mgrwt>
</event>
<event>
 3    1  0.1619206E-001  0.1250000E+03  0.7546771E-02  0.1235069E+00
         21   -1    0    0  502  501  0.00000000000E+00  0.00000000000E+00  0.23623483020E+03  0.23623483020E+03  0.00000000000E+00 0. -1.
         21   -1    0    0  501  502 -0.00000000000E+00 -0.00000000000E+00 -0.16535453289E+02  0.16535453289E+02  0.00000000000E+00 0. -1.
         25    1    1    2    0    0  0.00000000000E+00  0.00000000000E+00  0.21969937691E+03  0.25277028349E+03  0.12500000000E+03 0.  0.
<mgrwt>
<rscale>  0 0.12500000E+03</rscale>
<asrwt>0</asrwt>
<pdfrwt beam="1">  1       21 0.36343818E-01 0.12500000E+03</pdfrwt>
<pdfrwt beam="2">  1       21 0.25439161E-02 0.12500000E+03</pdfrwt>
<totfact> 0.59618348E+06</totfact>
</mgrwt>
</event>
<event>
 3    1  0.1619206E-001  0.1250000E+03  0.7546771E-02  0.1235069E+00
         21   -1    0    0  502  501  0.00000000000E+00  0.00000000000E+00  0.11667379792E+03  0.11667379792E+03  0.00000000000E+00 0.  1.
         21   -1    0    0  501  502 -0.00000000000E+00 -0.00000000000E+00 -0.33480096387E+02  0.33480096387E+02  0.00000000000E+00 0.  1.
         25    1    1    2    0    0  0.00000000000E+00  0.00000000000E+00  0.83193701528E+02  0.15015389430E+03  0.12500000000E+03 0.  0.
<mgrwt>
<rscale>  0 0.12500000E+03</rscale>
<asrwt>0</asrwt>
<pdfrwt beam="1">  1       21 0.17949815E-01 0.12500000E+03</pdfrwt>
<pdfrwt beam="2">  1       21 0.51507841E-02 0.12500000E+03</pdfrwt>
<totfact> 0.70739875E+06</totfact>
</mgrwt>
</event>
<event>
 3    1  0.1619206E-001  0.1250000E+03  0.7546771E-02  0.1235069E+00
         21   -1    0    0  502  501  0.00000000000E+00  0.00000000000E+00  0.44280055464E+03  0.44280055464E+03  0.00000000000E+00 0.  1.
         21   -1    0    0  501  502 -0.00000000000E+00 -0.00000000000E+00 -0.88216917505E+01  0.88216917505E+01  0.00000000000E+00 0.  1.
         25    1    1    2    0    0  0.00000000000E+00  0.00000000000E+00  0.43397886289E+03  0.45162224639E+03  0.12500000000E+03 0.  0.
<mgrwt>
<rscale>  0 0.12500000E+03</rscale>
<asrwt>0</asrwt>
<pdfrwt beam="1">  1       21 0.68123145E-01 0.12500000E+03</pdfrwt>
<pdfrwt beam="2">  1       21 0.13571837E-02 0.12500000E+03</pdfrwt>
<totfact> 0.44795363E+06</totfact>
</mgrwt>
</event>
<event>
 3    1  0.1619206E-001  0.1250000E+03  0.7546771E-02  0.1235069E+00
         21   -1    0    0  502  501  0.00000000000E+00  0.00000000000E+00  0.17429225426E+02  0.17429225426E+02  0.00000000000E+00 0. -1.
         21   -1    0    0  501  502 -0.00000000000E+00 -0.00000000000E+00 -0.22412068835E+03  0.22412068835E+03  0.00000000000E+00 0. -1.
         25    1    1    2    0    0  0.00000000000E+00  0.00000000000E+00 -0.20669146293E+03  0.24154991378E+03  0.12500000000E+03 0.  0.
<mgrwt>
<rscale>  0 0.12500000E+03</rscale>
<asrwt>0</asrwt>
<pdfrwt beam="1">  1       21 0.26814197E-02 0.12500000E+03</pdfrwt>
<pdfrwt beam="2">  1       21 0.34480101E-01 0.12500000E+03</pdfrwt>
<totfact> 0.60683005E+06</totfact>
</mgrwt>
</event>
<event>
 3    1  0.1619206E-001  0.1250000E+03  0.7546771E-02  0.1235069E+00
         21   -1    0    0  502  501  0.00000000000E+00  0.00000000000E+00  0.24188079153E+02  0.24188079153E+02  0.00000000000E+00 0.  1.
         21   -1    0    0  501  502 -0.00000000000E+00 -0.00000000000E+00 -0.16149484113E+03  0.16149484113E+03  0.00000000000E+00 0.  1.
         25    1    1    2    0    0  0.00000000000E+00  0.00000000000E+00 -0.13730676197E+03  0.18568292028E+03  0.12500000000E+03 0.  0.
<mgrwt>
<rscale>  0 0.12500000E+03</rscale>
<asrwt>0</asrwt>
<pdfrwt beam="1">  1       21 0.37212430E-02 0.12500000E+03</pdfrwt>
<pdfrwt beam="2">  1       21 0.24845360E-01 0.12500000E+03</pdfrwt>
<totfact> 0.66505514E+06</totfact>
</mgrwt>
</event>
<event>
 3    1  0.1619206E-001  0.1250000E+03  0.7546771E-02  0.1235069E+00
         21   -1    0    0  502  501  0.00000000000E+00  0.00000000000E+00  0.11553030401E+02  0.11553030401E+02  0.00000000000E+00 0. -1.
         21   -1    0    0  501  502 -0.00000000000E+00 -0.00000000000E+00 -0.33811475123E+03  0.33811475123E+03  0.00000000000E+00 0. -1.
         25    1    1    2    0    0  0.00000000000E+00  0.00000000000E+00 -0.32656172083E+03  0.34966778163E+03  0.12500000000E+03 0.  0.
<mgrwt>
<rscale>  0 0.12500000E+03</rscale>
<asrwt>0</asrwt>
<pdfrwt beam="1">  1       21 0.17773896E-02 0.12500000E+03</pdfrwt>
<pdfrwt beam="2">  1       21 0.52017644E-01 0.12500000E+03</pdfrwt>
<totfact> 0.51562981E+06</totfact>
</mgrwt>
</event>
<event>
 3    1  0.1619206E-001  0.1250000E+03  0.7546771E-02  0.1235069E+00
         21   -1    0    0  502  501  0.00000000000E+00  0.00000000000E+00  0.73681849530E+02  0.73681849530E+02  0.00000000000E+00 0. -1.
         21   -1    0    0  501  502 -0.00000000000E+00 -0.00000000000E+00 -0.53015091571E+02  0.53015091571E+02  0.00000000000E+00 0. -1.
         25    1    1    2    0    0  0.00000000000E+00  0.00000000000E+00  0.20666757959E+02  0.12669694110E+03  0.12500000000E+03 0.  0.
<mgrwt>
<rscale>  0 0.12500000E+03</rscale>
<asrwt>0</asrwt>
<pdfrwt beam="1">  1       21 0.11335669E-01 0.12500000E+03</pdfrwt>
<pdfrwt beam="2">  1       21 0.81561679E-02 0.12500000E+03</pdfrwt>
<totfact> 0.73810452E+06</totfact>
</mgrwt>
</event>
<event>
 3    1  0.1619206E-001  0.1250000E+03  0.7546771E-02  0.1235069E+00
         21   -1    0    0  502  501  0.00000000000E+00  0.00000000000E+00  0.26870303422E+03  0.26870303422E+03  0.00000000000E+00 0. -1.
         21   -1    0    0  501  502 -0.00000000000E+00 -0.00000000000E+00 -0.14537424229E+02  0.14537424229E+02  0.00000000000E+00 0. -1.
         25    1    1    2    0    0  0.00000000000E+00  0.00000000000E+00  0.25416560999E+03  0.28324045845E+03  0.12500000000E+03 0.  0.
<mgrwt>
<rscale>  0 0.12500000E+03</rscale>
<asrwt>0</asrwt>
<pdfrwt beam="1">  1       21 0.41338925E-01 0.12500000E+03</pdfrwt>
<pdfrwt beam="2">  1       21 0.22365270E-02 0.12500000E+03</pdfrwt>
<totfact> 0.56878368E+06</totfact>
</mgrwt>
</event>
<event>
 3    1  0.1619206E-001  0.1250000E+03  0.7546771E-02  0.1235069E+00
         21   -1    0    0  502  501  0.00000000000E+00  0.00000000000E+00  0.30986984358E+03  0.30986984358E+03  0.00000000000E+00 0.  1.
         21   -1    0    0  501  502 -0.00000000000E+00 -0.00000000000E+00 -0.12606099241E+02  0.12606099241E+02  0.00000000000E+00 0.  1.
         25    1    1    2    0    0  0.00000000000E+00  0.00000000000E+00  0.29726374433E+03  0.32247594282E+03  0.12500000000E+03 0.  0.
<mgrwt>
<rscale>  0 0.12500000E+03</rscale>
<asrwt>0</asrwt>
<pdfrwt beam="1">  1       21 0.47672278E-01 0.12500000E+03</pdfrwt>
<pdfrwt beam="2">  1       21 0.19394001E-02 0.12500000E+03</pdfrwt>
<totfact> 0.53637721E+06</totfact>
</mgrwt>
</event>
<event>
 3    1  0.1619206E-001  0.1250000E+03  0.7546771E-02  0.1235069E+00
         21   -1    0    0  502  501  0.00000000000E+00  0.00000000000E+00  0.11379261492E+03  0.11379261492E+03  0.00000000000E+00 0.  1.
         21   -1    0    0  501  502 -0.00000000000E+00 -0.00000000000E+00 -0.34327798889E+02  0.34327798889E+02  0.00000000000E+00 0.  1.
         25    1    1    2    0    0  0.00000000000E+00  0.00000000000E+00  0.79464816029E+02  0.14812041381E+03  0.12500000000E+03 0.  0.
<mgrwt>
<rscale>  0 0.12500000E+03</rscale>
<asrwt>0</asrwt>
<pdfrwt beam="1">  1       21 0.17506556E-01 0.12500000E+03</pdfrwt>
<pdfrwt beam="2">  1       21 0.52811999E-02 0.12500000E+03</pdfrwt>
<totfact> 0.70996117E+06</totfact>
</mgrwt>
</event>
<event>
 3    1  0.1619206E-001  0.1250000E+03  0.7546771E-02  0.1235069E+00
         21   -1    0    0  502  501  0.00000000000E+00  0.00000000000E+00  0.66402583673E+02  0.66402583673E+02  0.00000000000E+00 0.  1.
         21   -1    0    0  501  502 -0.00000000000E+00 -0.00000000000E+00 -0.58826777272E+02  0.58826777272E+02  0.00000000000E+00 0.  1.
         25    1    1    2    0    0  0.00000000000E+00  0.00000000000E+00  0.75758064011E+01  0.12522936094E+03  0.12500000000E+03 0.  0.
<mgrwt>
<rscale>  0 0.12500000E+03</rscale>
<asrwt>0</asrwt>
<pdfrwt beam="1">  1       21 0.10215782E-01 0.12500000E+03</pdfrwt>
<pdfrwt beam="2">  1       21 0.90502734E-02 0.12500000E+03</pdfrwt>
<totfact> 0.74012608E+06</totfact>
</mgrwt>
</event>
<event>
 3    1  0.1619206E-001  0.1250000E+03  0.7546771E-02  0.1235069E+00
         21   -1    0    0  502  501  0.00000000000E+00  0.00000000000E+00  0.73642723750E+01  0.73642723750E+01  0.00000000000E+00 0. -1.
         21   -1    0    0  501  502 -0.00000000000E+00 -0.00000000000E+00 -0.53043258059E+03  0.53043258059E+03  0.00000000000E+00 0. -1.
         25    1    1    2    0    0  0.00000000000E+00  0.00000000000E+00 -0.52306830821E+03  0.53779685296E+03  0.12500000000E+03 0.  0.
<mgrwt>
<rscale>  0 0.12500000E+03</rscale>
<asrwt>0</asrwt>
<pdfrwt beam="1">  1       21 0.11329647E-02 0.12500000E+03</pdfrwt>
<pdfrwt beam="2">  1       21 0.81605030E-01 0.12500000E+03</pdfrwt>
<totfact> 0.40065740E+06</totfact>
</mgrwt>
</event>
<event>
 3    1  0.1619206E-001  0.1250000E+03  0.7546771E-02  0.1235069E+00
         21   -1    0    0  502  501  0.00000000000E+00  0.00000000000E+00  0.14890297260E+03  0.14890297260E+03  0.00000000000E+00 0.  1.
         21   -1    0    0  501  502 -0.00000000000E+00 -0.00000000000E+00 -0.26233525978E+02  0.26233525978E+02  0.00000000000E+00 0.  1.
         25    1    1    2    0    0  0.00000000000E+00  0.00000000000E+00  0.12266944663E+03  0.17513649858E+03  0.12500000000E+03 0.  0.
<mgrwt>
<rscale>  0 0.12500000E+03</rscale>
<asrwt>0</asrwt>
<pdfrwt beam="1">  1       21 0.22908149E-01 0.12500000E+03</pdfrwt>
<pdfrwt beam="2">  1       21 0.40359272E-02 0.12500000E+03</pdfrwt>
<totfact> 0.67713890E+06</totfact>
</mgrwt>
</event>
<event>
 3    1  0.1619206E-001  0.1250000E+03  0.7546771E-02  0.1235069E+00
         21   -1    0    0  502  501  0.00000000000E+00  0.00000000000E+00  0.46525207644E+02  0.46525207644E+02  0.00000000000E+00 0.  1.
         21   -1    0    0  501  502 -0.00000000000E+00 -0.00000000000E+00 -0.83959861715E+02  0.83959861715E+02  0.00000000000E+00 0.  1.
         25    1    1    2    0    0  0.00000000000E+00  0.00000000000E+00 -0.37434654071E+02  0.13048506936E+03  0.12500000000E+03 0.  0.
<mgrwt>
<rscale>  0 0.12500000E+03</rscale>
<asrwt>0</asrwt>
<pdfrwt beam="1">  1       21 0.71577243E-02 0.12500000E+03</pdfrwt>
<pdfrwt beam="2">  1       21 0.12916902E-01 0.12500000E+03</pdfrwt>
<totfact> 0.73300149E+06</totfact>
</mgrwt>
</event>
<event>
 3    1  0.1619206E-001  0.1250000E+03  0.7546771E-02  0.1235069E+00
         21   -1    0    0  502  501  0.00000000000E+00  0.00000000000E+00  0.10365177494E+03  0.10365177494E+03  0.00000000000E+00 0. -1.
         21   -1    0    0  501  502 -0.00000000000E+00 -0.00000000000E+00 -0.37686281804E+02  0.37686281804E+02  0.00000000000E+00 0. -1.
         25    1    1    2    0    0  0.00000000000E+00  0.00000000000E+00  0.65965493139E+02  0.14133805675E+03  0.12500000000E+03 0.  0.
<mgrwt>
<rscale>  0 0.12500000E+03</rscale>
<asrwt>0</asrwt>
<pdfrwt beam="1">  1       21 0.15946427E-01 0.12500000E+03</pdfrwt>
<pdfrwt beam="2">  1       21 0.57978895E-02 0.12500000E+03</pdfrwt>
<totfact> 0.71865106E+06</totfact>
</mgrwt>
</event>
<event>
 3    1  0.1619206E-001  0.1250000E+03  0.7546771E-02  0.1235069E+00
         21   -1    0    0  502  501  0.00000000000E+00  0.00000000000E+00  0.13971501042E+02  0.13971501042E+02  0.00000000000E+00 0.  1.
         21   -1    0    0  501  502 -0.00000000000E+00 -0.00000000000E+00 -0.27958699558E+03  0.27958699558E+03  0.00000000000E+00 0.  1.
         25    1    1    2    0    0  0.00000000000E+00  0.00000000000E+00 -0.26561549453E+03  0.29355849662E+03  0.12500000000E+03 0.  0.
<mgrwt>
<rscale>  0 0.12500000E+03</rscale>
<asrwt>0</asrwt>
<pdfrwt beam="1">  1       21 0.21494618E-02 0.12500000E+03</pdfrwt>
<pdfrwt beam="2">  1       21 0.43013382E-01 0.12500000E+03</pdfrwt>
<totfact> 0.55995773E+06</totfact>
</mgrwt>
</event>
<event>
 3    1  0.1619206E-001  0.1250000E+03  0.7546771E-02  0.1235069E+00
         21   -1    0    0  502  501  0.00000000000E+00  0.00000000000E+00  0.37812627515E+03  0.37812627515E+03  0.00000000000E+00 0. -1.
         21   -1    0    0  501  502 -0.00000000000E+00 -0.00000000000E+00 -0.10330543675E+02  0.10330543675E+02  0.00000000000E+00 0. -1.
         25    1    1    2    0    0  0.00000000000E+00  0.00000000000E+00  0.36779573148E+03  0.38845681883E+03  0.12500000000E+03 0.  0.
<mgrwt>
<rscale>  0 0.12500000E+03</rscale>
<asrwt>0</asrwt>
<pdfrwt beam="1">  1       21 0.58173262E-01 0.12500000E+03</pdfrwt>
<pdfrwt beam="2">  1       21 0.15893147E-02 0.12500000E+03</pdfrwt>
<totfact> 0.48816545E+06</totfact>
</mgrwt>
</event>
<event>
 3    1  0.1619206E-001  0.1250000E+03  0.7546771E-02  0.1235069E+00
         21   -1    0    0  502  501  0.00000000000E+00  0.00000000000E+00  0.17335439149E+01  0.17335439149E+01  0.00000000000E+00 0.  1.
         21   -1    0    0  501  502 -0.00000000000E+00 -0.00000000000E+00 -0.22533320134E+04  0.22533320134E+04  0.00000000000E+00 0.  1.
         25    1    1    2    0    0  0.00000000000E+00  0.00000000000E+00 -0.22515984695E+04  0.22550655573E+04  0.12500000000E+03 0.  0.
<mgrwt>
<rscale>  0 0.12500000E+03</rscale>
<asrwt>0</asrwt>
<pdfrwt beam="1">  1       21 0.26669822E-03 0.12500000E+03</pdfrwt>
<pdfrwt beam="2">  1       21 0.34666756E+00 0.12500000E+03</pdfrwt>
<totfact> 0.57174612E+05</totfact>
</mgrwt>
</event>
<event>
 3    1  0.1619206E-001  0.1250000E+03  0.7546771E-02  0.1235069E+00
         21   -1    0    0  502  501  0.00000000000E+00  0.00000000000E+00  0.40704438138E+02  0.40704438138E+02  0.00000000000E+00 0. -1.
         21   -1    0    0  501  502 -0.00000000000E+00 -0.00000000000E+00 -0.95966193827E+02  0.95966193827E+02  0.00000000000E+00 0. -1.
         25    1    1    2    0    0  0.00000000000E+00  0.00000000000E+00 -0.55261755689E+02  0.13667063197E+03  0.12500000000E+03 0.  0.
<mgrwt>
<rscale>  0 0.12500000E+03</rscale>
<asrwt>0</asrwt>
<pdfrwt beam="1">  1       21 0.62622214E-02 0.12500000E+03</pdfrwt>
<pdfrwt beam="2">  1       21 0.14764029E-01 0.12500000E+03</pdfrwt>
<totfact> 0.72476017E+06</totfact>
</mgrwt>
</event>
<event>
 3    1  0.1619206E-001  0.1250000E+03  0.7546771E-02  0.1235069E+00
         21   -1    0    0  502  501  0.00000000000E+00  0.00000000000E+00  0.33265233392E+03  0.33265233392E+03  0.00000000000E+00 0. -1.
         21   -1    0    0  501  502 -0.00000000000E+00 -0.00000000000E+00 -0.11742740398E+02  0.11742740398E+02  0.00000000000E+00 0. -1.
         25    1    1    2    0    0  0.00000000000E+00  0.00000000000E+00  0.32090959352E+03  0.34439507431E+03  0.12500000000E+03 0.  0.
<mgrwt>
<rscale>  0 0.12500000E+03</rscale>
<asrwt>0</asrwt>
<pdfrwt beam="1">  1       21 0.51177275E-01 0.12500000E+03</pdfrwt>
<pdfrwt beam="2">  1       21 0.18065757E-02 0.12500000E+03</pdfrwt>
<totfact> 0.51955056E+06</totfact>
</mgrwt>
</event>
<event>
 3    1  0.1619206E-001  0.1250000E+03  0.7546771E-02  0.1235069E+00
         21   -1    0    0  502  501  0.00000000000E+00  0.00000000000E+00  0.10493523394E+04  0.10493523394E+04  0.00000000000E+00 0. -1.
         21   -1    0    0  501  502 -0.00000000000E+00 -0.00000000000E+00 -0.37225342275E+01  0.37225342275E+01  0.00000000000E+00 0. -1.
         25    1    1    2    0    0  0.00000000000E+00  0.00000000000E+00  0.10456298051E+04  0.10530748736E+04  0.12500000000E+03 0.  0.
<mgrwt>
<rscale>  0 0.12500000E+03</rscale>
<asrwt>0</asrwt>
<pdfrwt beam="1">  1       21 0.16143859E+00 0.12500000E+03</pdfrwt>
<pdfrwt beam="2">  1       21 0.57269841E-03 0.12500000E+03</pdfrwt>
<totfact> 0.22326357E+06</totfact>
</mgrwt>
</event>
<event>
 3    1  0.1619206E-001  0.1250000E+03  0.7546771E-02  0.1235069E+00
         21   -1    0    0  502  501  0.00000000000E+00  0.00000000000E+00  0.10680407581E+02  0.10680407581E+02  0.00000000000E+00 0.  1.
         21   -1    0    0  501  502 -0.00000000000E+00 -0.00000000000E+00 -0.36573978757E+03  0.36573978757E+03  0.00000000000E+00 0.  1.
         25    1    1    2    0    0  0.00000000000E+00  0.00000000000E+00 -0.35505937999E+03  0.37642019515E+03  0.12500000000E+03 0.  0.
<mgrwt>
<rscale>  0 0.12500000E+03</rscale>
<asrwt>0</asrwt>
<pdfrwt beam="1">  1       21 0.16431395E-02 0.12500000E+03</pdfrwt>
<pdfrwt beam="2">  1       21 0.56267663E-01 0.12500000E+03</pdfrwt>
<totfact> 0.49644477E+06</totfact>
</mgrwt>
</event>
<event>
 3    1  0.1619206E-001  0.1250000E+03  0.7546771E-02  0.1235069E+00
         21   -1    0    0  502  501  0.00000000000E+00  0.00000000000E+00  0.12572471346E+03  0.12572471346E+03  0.00000000000E+00 0.  1.
         21   -1    0    0  501  502 -0.00000000000E+00 -0.00000000000E+00 -0.31069865999E+02  0.31069865999E+02  0.00000000000E+00 0.  1.
         25    1    1    2    0    0  0.00000000000E+00  0.00000000000E+00  0.94654847464E+02  0.15679457946E+03  0.12500000000E+03 0.  0.
<mgrwt>
<rscale>  0 0.12500000E+03</rscale>
<asrwt>0</asrwt>
<pdfrwt beam="1">  1       21 0.19342263E-01 0.12500000E+03</pdfrwt>
<pdfrwt beam="2">  1       21 0.47799794E-02 0.12500000E+03</pdfrwt>
<totfact> 0.69913300E+06</totfact>
</mgrwt>
</event>
<event>
 3    1  0.1619206E-001  0.1250000E+03  0.7546771E-02  0.1235069E+00
         21   -1    0    0  502  501  0.00000000000E+00  0.00000000000E+00  0.38205595831E+01  0.38205595831E+01  0.00000000000E+00 0.  1.
         21   -1    0    0  501  502 -0.00000000000E+00 -0.00000000000E+00 -0.10224287608E+04  0.10224287608E+04  0.00000000000E+00 0.  1.
         25    1    1    2    0    0  0.00000000000E+00  0.00000000000E+00 -0.10186082012E+04  0.10262493204E+04  0.12500000000E+03 0.  0.
<mgrwt>
<rscale>  0 0.12500000E+03</rscale>
<asrwt>0</asrwt>
<pdfrwt beam="1">  1       21 0.58777763E-03 0.12500000E+03</pdfrwt>
<pdfrwt beam="2">  1       21 0.15729694E+00 0.12500000E+03</pdfrwt>
<totfact> 0.22970216E+06</totfact>
</mgrwt>
</event>
<event>
 3    1  0.1619206E-001  0.1250000E+03  0.7546771E-02  0.1235069E+00
         21   -1    0    0  502  501  0.00000000000E+00  0.00000000000E+00  0.81244054189E+02  0.81244054189E+02  0.00000000000E+00 0.  1.
         21   -1    0    0  501  502 -0.00000000000E+00 -0.00000000000E+00 -0.48080441566E+02  0.48080441566E+02  0.00000000000E+00 0.  1.
         25    1    1    2    0    0  0.00000000000E+00  0.00000000000E+00  0.33163612623E+02  0.12932449575E+03  0.12500000000E+03 0.  0.
<mgrwt>
<rscale>  0 0.12500000E+03</rscale>
<asrwt>0</asrwt>
<pdfrwt beam="1">  1       21 0.12499085E-01 0.12500000E+03</pdfrwt>
<pdfrwt beam="2">  1       21 0.73969910E-02 0.12500000E+03</pdfrwt>
<totfact> 0.73455337E+06</totfact>
</mgrwt>
</event>
<event>
 3    1  0.1619206E-001  0.1250000E+03  0.7546771E-02  0.1235069E+00
         21   -1    0    0  502  501  0.00000000000E+00  0.00000000000E+00  0.23760760933E+02  0.23760760933E+02  0.00000000000E+00 0. -1.
         21   -1    0    0  501  502 -0.00000000000E+00 -0.00000000000E+00 -0.16439919626E+03  0.16439919626E+03  0.00000000000E+00 0. -1.
         25    1    1    2    0    0  0.00000000000E+00  0.00000000000E+00 -0.14063843533E+03  0.18815995719E+03  0.12500000000E+03 0.  0.
<mgrwt>
<rscale>  0 0.12500000E+03</rscale>
<asrwt>0</asrwt>
<pdfrwt beam="1">  1       21 0.36555017E-02 0.12500000E+03</pdfrwt>
<pdfrwt beam="2">  1       21 0.25292184E-01 0.12500000E+03</pdfrwt>
<totfact> 0.66227554E+06</totfact>
</mgrwt>
</event>
<event>
 3    1  0.1619206E-001  0.1250000E+03  0.7546771E-02  0.1235069E+00
         21   -1    0    0  502  501  0.00000000000E+00  0.00000000000E+00  0.23465588711E+02  0.23465588711E+02  0.00000000000E+00 0.  1.
         21   -1    0    0  501  502 -0.00000000000E+00 -0.00000000000E+00 -0.16646716382E+03  0.16646716382E+03  0.00000000000E+00 0.  1.
         25    1    1    2    0    0  0.00000000000E+00  0.00000000000E+00 -0.14300157511E+03  0.18993275253E+03  0.12500000000E+03 0.  0.
<mgrwt>
<rscale>  0 0.12500000E+03</rscale>
<asrwt>0</asrwt>
<pdfrwt beam="1">  1       21 0.36100905E-02 0.12500000E+03</pdfrwt>
<pdfrwt beam="2">  1       21 0.25610333E-01 0.12500000E+03</pdfrwt>
<totfact> 0.66029938E+06</totfact>
</mgrwt>
</event>
<event>
 3    1  0.1619206E-001  0.1250000E+03  0.7546771E-02  0.1235069E+00
         21   -1    0    0  502  501  0.00000000000E+00  0.00000000000E+00  0.14355896813E+02  0.14355896813E+02  0.00000000000E+00 0. -1.
         21   -1    0    0  501  502 -0.00000000000E+00 -0.00000000000E+00 -0.27210072981E+03  0.27210072981E+03  0.00000000000E+00 0. -1.
         25    1    1    2    0    0  0.00000000000E+00  0.00000000000E+00 -0.25774483300E+03  0.28645662662E+03  0.12500000000E+03 0.  0.
<mgrwt>
<rscale>  0 0.12500000E+03</rscale>
<asrwt>0</asrwt>
<pdfrwt beam="1">  1       21 0.22085994E-02 0.12500000E+03</pdfrwt>
<pdfrwt beam="2">  1       21 0.41861654E-01 0.12500000E+03</pdfrwt>
<totfact> 0.56600801E+06</totfact>
</mgrwt>
</event>
<event>
 3    1  0.1619206E-001  0.1250000E+03  0.7546771E-02  0.1235069E+00
         21   -1    0    0  502  501  0.00000000000E+00  0.00000000000E+00  0.30982153995E+03  0.30982153995E+03  0.00000000000E+00 0.  1.
         21   -1    0    0  501  502 -0.00000000000E+00 -0.00000000000E+00 -0.12608064632E+02  0.12608064632E+02  0.00000000000E+00 0.  1.
         25    1    1    2    0    0  0.00000000000E+00  0.00000000000E+00  0.29721347532E+03  0.32242960459E+03  0.12500000000E+03 0.  0.
<mgrwt>
<rscale>  0 0.12500000E+03</rscale>
<asrwt>0</asrwt>
<pdfrwt beam="1">  1       21 0.47664846E-01 0.12500000E+03</pdfrwt>
<pdfrwt beam="2">  1       21 0.19397025E-02 0.12500000E+03</pdfrwt>
<totfact> 0.53641371E+06</totfact>
</mgrwt>
</event>
<event>
 3    1  0.1619206E-001  0.1250000E+03  0.7546771E-02  0.1235069E+00
         21   -1    0    0  502  501  0.00000000000E+00  0.00000000000E+00  0.96090567922E+01  0.96090567922E+01  0.00000000000E+00 0. -1.
         21   -1    0    0  501  502 -0.00000000000E+00 -0.00000000000E+00 -0.40651752659E+03  0.40651752659E+03  0.00000000000E+00 0. -1.
         25    1    1    2    0    0  0.00000000000E+00  0.00000000000E+00 -0.39690846980E+03  0.41612658338E+03  0.12500000000E+03 0.  0.
<mgrwt>
<rscale>  0 0.12500000E+03</rscale>
<asrwt>0</asrwt>
<pdfrwt beam="1">  1       21 0.14783163E-02 0.12500000E+03</pdfrwt>
<pdfrwt beam="2">  1       21 0.62541164E-01 0.12500000E+03</pdfrwt>
<totfact> 0.46989767E+06</totfact>
</mgrwt>
</event>
<event>
 3    1  0.1619206E-001  0.1250000E+03  0.7546771E-02  0.1235069E+00
         21   -1    0    0  502  501  0.00000000000E+00  0.00000000000E+00  0.39610921235E+03  0.39610921235E+03  0.00000000000E+00 0. -1.
         21   -1    0    0  501  502 -0.00000000000E+00 -0.00000000000E+00 -0.98615479726E+01  0.98615479726E+01  0.00000000000E+00 0. -1.
         25    1    1    2    0    0  0.00000000000E+00  0.00000000000E+00  0.38624766438E+03  0.40597076033E+03  0.12500000000E+03 0.  0.
<mgrwt>
<rscale>  0 0.12500000E+03</rscale>
<asrwt>0</asrwt>
<pdfrwt beam="1">  1       21 0.60939867E-01 0.12500000E+03</pdfrwt>
<pdfrwt beam="2">  1       21 0.15171615E-02 0.12500000E+03</pdfrwt>
<totfact> 0.47647827E+06</totfact>
</mgrwt>
</event>
<event>
 3    1  0.1619206E-001  0.1250000E+03  0.7546771E-02  0.1235069E+00
         21   -1    0    0  502  501  0.00000000000E+00  0.00000000000E+00  0.53033908149E+02  0.53033908149E+02  0.00000000000E+00 0.  1.
         21   -1    0    0  501  502 -0.00000000000E+00 -0.00000000000E+00 -0.73655707006E+02  0.73655707006E+02  0.00000000000E+00 0.  1.
         25    1    1    2    0    0  0.00000000000E+00  0.00000000000E+00 -0.20621798857E+02  0.12668961515E+03  0.12500000000E+03 0.  0.
<mgrwt>
<rscale>  0 0.12500000E+03</rscale>
<asrwt>0</asrwt>
<pdfrwt beam="1">  1       21 0.81590629E-02 0.12500000E+03</pdfrwt>
<pdfrwt beam="2">  1       21 0.11331647E-01 0.12500000E+03</pdfrwt>
<totfact> 0.73811453E+06</totfact>
</mgrwt>
</event>
<event>
 3    1  0.1619206E-001  0.1250000E+03  0.7546771E-02  0.1235069E+00
         21   -1    0    0  502  501  0.00000000000E+00  0.00000000000E+00  0.16401669019E+03  0.16401669019E+03  0.00000000000E+00 0.  1.
         21   -1    0    0  501  502 -0.00000000000E+00 -0.00000000000E+00 -0.23816173803E+02  0.23816173803E+02  0.00000000000E+00 0.  1.
         25    1    1    2    0    0  0.00000000000E+00  0.00000000000E+00  0.14020051638E+03  0.18783286399E+03  0.12500000000E+03 0.  0.
<mgrwt>
<rscale>  0 0.12500000E+03</rscale>
<asrwt>0</asrwt>
<pdfrwt beam="1">  1       21 0.25233336E-01 0.12500000E+03</pdfrwt>
<pdfrwt beam="2">  1       21 0.36640268E-02 0.12500000E+03</pdfrwt>
<totfact> 0.66264135E+06</totfact>
</mgrwt>
</event>
<event>
 3    1  0.1619206E-001  0.1250000E+03  0.7546771E-02  0.1235069E+00
         21   -1    0    0  502  501  0.00000000000E+00  0.00000000000E+00  0.13768683702E+03  0.13768683702E+03  0.00000000000E+00 0.  1.
         21   -1    0    0  501  502 -0.00000000000E+00 -0.00000000000E+00 -0.28370540602E+02  0.28370540602E+02  0.00000000000E+00 0.  1.
         25    1    1    2    0    0  0.00000000000E+00  0.00000000000E+00  0.10931629642E+03  0.16605737762E+03  0.12500000000E+03 0.  0.
<mgrwt>
<rscale>  0 0.12500000E+03</rscale>
<asrwt>0</asrwt>
<pdfrwt beam="1">  1       21 0.21182590E-01 0.12500000E+03</pdfrwt>
<pdfrwt beam="2">  1       21 0.43646986E-02 0.12500000E+03</pdfrwt>
<totfact> 0.68786821E+06</totfact>
</mgrwt>
</event>
<event>
 3    1  0.1619206E-001  0.1250000E+03  0.7546771E-02  0.1235069E+00
         21   -1    0    0  502  501  0.00000000000E+00  0.00000000000E+00  0.98674169285E+02  0.98674169285E+02  0.00000000000E+00 0.  1.
         21   -1    0    0  501  502 -0.00000000000E+00 -0.00000000000E+00 -0.39587361397E+02  0.39587361397E+02  0.00000000000E+00 0.  1.
         25    1    1    2    0    0  0.00000000000E+00  0.00000000000E+00  0.59086807888E+02  0.13826153068E+03  0.12500000000E+03 0.  0.
<mgrwt>
<rscale>  0 0.12500000E+03</rscale>
<asrwt>0</asrwt>
<pdfrwt beam="1">  1       21 0.15180641E-01 0.12500000E+03</pdfrwt>
<pdfrwt beam="2">  1       21 0.60903633E-02 0.12500000E+03</pdfrwt>
<totfact> 0.72267082E+06</totfact>
</mgrwt>
</event>
<event>
 3    1  0.1619206E-001  0.1250000E+03  0.7546771E-02  0.1235069E+00
         21   -1    0    0  502  501  0.00000000000E+00  0.00000000000E+00  0.51851276451E+02  0.51851276451E+02  0.00000000000E+00 0.  1.
         21   -1    0    0  501  502 -0.00000000000E+00 -0.00000000000E+00 -0.75335657429E+02  0.75335657429E+02  0.00000000000E+00 0.  1.
         25    1    1    2    0    0  0.00000000000E+00  0.00000000000E+00 -0.23484380978E+02  0.12718693388E+03  0.12500000000E+03 0.  0.
<mgrwt>
<rscale>  0 0.12500000E+03</rscale>
<asrwt>0</asrwt>
<pdfrwt beam="1">  1       21 0.79771195E-02 0.12500000E+03</pdfrwt>
<pdfrwt beam="2">  1       21 0.11590101E-01 0.12500000E+03</pdfrwt>
<totfact> 0.73743710E+06</totfact>
</mgrwt>
</event>
<event>
 3    1  0.1619206E-001  0.1250000E+03  0.7546771E-02  0.1235069E+00
         21   -1    0    0  502  501  0.00000000000E+00  0.00000000000E+00  0.41455430417E+03  0.41455430417E+03  0.00000000000E+00 0.  1.
         21   -1    0    0  501  502 -0.00000000000E+00 -0.00000000000E+00 -0.94227703361E+01  0.94227703361E+01  0.00000000000E+00 0.  1.
         25    1    1    2    0    0  0.00000000000E+00  0.00000000000E+00  0.40513153383E+03  0.42397707450E+03  0.12500000000E+03 0.  0.
<mgrwt>
<rscale>  0 0.12500000E+03</rscale>
<asrwt>0</asrwt>
<pdfrwt beam="1">  1       21 0.63777571E-01 0.12500000E+03</pdfrwt>
<pdfrwt beam="2">  1       21 0.14496573E-02 0.12500000E+03</pdfrwt>
<totfact> 0.46490610E+06</totfact>
</mgrwt>
</event>
<event>
 3    1  0.1619206E-001  0.1250000E+03  0.7546771E-02  0.1235069E+00
         21   -1    0    0  502  501  0.00000000000E+00  0.00000000000E+00  0.15242030641E+02  0.15242030641E+02  0.00000000000E+00 0.  1.
         21   -1    0    0  501  502 -0.00000000000E+00 -0.00000000000E+00 -0.25628146879E+03  0.25628146879E+03  0.00000000000E+00 0.  1.
         25    1    1    2    0    0  0.00000000000E+00  0.00000000000E+00 -0.24103943815E+03  0.27152349943E+03  0.12500000000E+03 0.  0.
<mgrwt>
<rscale>  0 0.12500000E+03</rscale>
<asrwt>0</asrwt>
<pdfrwt beam="1">  1       21 0.23449278E-02 0.12500000E+03</pdfrwt>
<pdfrwt beam="2">  1       21 0.39427918E-01 0.12500000E+03</pdfrwt>
<totfact> 0.57908906E+06</totfact>
</mgrwt>
</event>
<event>
 3    1  0.1619206E-001  0.1250000E+03  0.7546771E-02  0.1235069E+00
         21   -1    0    0  502  501  0.00000000000E+00  0.00000000000E+00  0.23770301184E+03  0.23770301184E+03  0.00000000000E+00 0.  1.
         21   -1    0    0  501  502 -0.00000000000E+00 -0.00000000000E+00 -0.16433321437E+02  0.16433321437E+02  0.00000000000E+00 0.  1.
         25    1    1    2    0    0  0.00000000000E+00  0.00000000000E+00  0.22126969040E+03  0.25413633327E+03  0.12500000000E+03 0.  0.
<mgrwt>
<rscale>  0 0.12500000E+03</rscale>
<asrwt>0</asrwt>
<pdfrwt beam="1">  1       21 0.36569692E-01 0.12500000E+03</pdfrwt>
<pdfrwt beam="2">  1       21 0.25282035E-02 0.12500000E+03</pdfrwt>
<totfact> 0.59490932E+06</totfact>
</mgrwt>
</event>
<event>
 3    1  0.1619206E-001  0.1250000E+03  0.7546771E-02  0.1235069E+00
         21   -1    0    0  502  501  0.00000000000E+00  0.00000000000E+00  0.43554768080E+02  0.43554768080E+02  0.00000000000E+00 0. -1.
         21   -1    0    0  501  502 -0.00000000000E+00 -0.00000000000E+00 -0.89685932728E+02  0.89685932728E+02  0.00000000000E+00 0. -1.
         25    1    1    2    0    0  0.00000000000E+00  0.00000000000E+00 -0.46131164648E+02  0.13324070081E+03  0.12500000000E+03 0.  0.
<mgrwt>
<rscale>  0 0.12500000E+03</rscale>
<asrwt>0</asrwt>
<pdfrwt beam="1">  1       21 0.67007336E-02 0.12500000E+03</pdfrwt>
<pdfrwt beam="2">  1       21 0.13797836E-01 0.12500000E+03</pdfrwt>
<totfact> 0.72930273E+06</totfact>
</mgrwt>
</event>
<event>
 3    1  0.1619206E-001  0.1250000E+03  0.7546771E-02  0.1235069E+00
         21   -1    0    0  502  501  0.00000000000E+00  0.00000000000E+00  0.19779787332E+02  0.19779787332E+02  0.00000000000E+00 0.  1.
         21   -1    0    0  501  502 -0.00000000000E+00 -0.00000000000E+00 -0.19748695648E+03  0.19748695648E+03  0.00000000000E+00 0.  1.
         25    1    1    2    0    0  0.00000000000E+00  0.00000000000E+00 -0.17770716915E+03  0.21726674381E+03  0.12500000000E+03 0.  0.
<mgrwt>
<rscale>  0 0.12500000E+03</rscale>
<asrwt>0</asrwt>
<pdfrwt beam="1">  1       21 0.30430443E-02 0.12500000E+03</pdfrwt>
<pdfrwt beam="2">  1       21 0.30382608E-01 0.12500000E+03</pdfrwt>
<totfact> 0.63103008E+06</totfact>
</mgrwt>
</event>
<event>
 3    1  0.1619206E-001  0.1250000E+03  0.7546771E-02  0.1235069E+00
         21   -1    0    0  502  501  0.00000000000E+00  0.00000000000E+00  0.17374477855E+03  0.17374477855E+03  0.00000000000E+00 0.  1.
         21   -1    0    0  501  502 -0.00000000000E+00 -0.00000000000E+00 -0.22482690028E+02  0.22482690028E+02  0.00000000000E+00 0.  1.
         25    1    1    2    0    0  0.00000000000E+00  0.00000000000E+00  0.15126208852E+03  0.19622746857E+03  0.12500000000E+03 0.  0.
<mgrwt>
<rscale>  0 0.12500000E+03</rscale>
<asrwt>0</asrwt>
<pdfrwt beam="1">  1       21 0.26729965E-01 0.12500000E+03</pdfrwt>
<pdfrwt beam="2">  1       21 0.34588755E-02 0.12500000E+03</pdfrwt>
<totfact> 0.65336930E+06</totfact>
</mgrwt>
</event>
<event>
 3    1  0.1619206E-001  0.1250000E+03  0.7546771E-02  0.1235069E+00
         21   -1    0    0  502  501  0.00000000000E+00  0.00000000000E+00  0.61546086547E+02  0.61546086547E+02  0.00000000000E+00 0.  1.
         21   -1    0    0  501  502 -0.00000000000E+00 -0.00000000000E+00 -0.63468698323E+02  0.63468698323E+02  0.00000000000E+00 0.  1.
         25    1    1    2    0    0  0.00000000000E+00  0.00000000000E+00 -0.19226117759E+01  0.12501478487E+03  0.12500000000E+03 0.  0.
<mgrwt>
<rscale>  0 0.12500000E+03</rscale>
<asrwt>0</asrwt>
<pdfrwt beam="1">  1       21 0.94686287E-02 0.12500000E+03</pdfrwt>
<pdfrwt beam="2">  1       21 0.97644151E-02 0.12500000E+03</pdfrwt>
<totfact> 0.74041584E+06</totfact>
</mgrwt>
</event>
<event>
 3    1  0.1619206E-001  0.1250000E+03  0.7546771E-02  0.1235069E+00
         21   -1    0    0  502  501  0.00000000000E+00  0.00000000000E+00  0.12237982455E+03  0.12237982455E+03  0.00000000000E+00 0. -1.
         21   -1    0    0  501  502 -0.00000000000E+00 -0.00000000000E+00 -0.31919068478E+02  0.31919068478E+02  0.00000000000E+00 0. -1.
         25    1    1    2    0    0  0.00000000000E+00  0.00000000000E+00  0.90460756068E+02  0.15429889302E+03  0.12500000000E+03 0.  0.
<mgrwt>
<rscale>  0 0.12500000E+03</rscale>
<asrwt>0</asrwt>
<pdfrwt beam="1">  1       21 0.18827665E-01 0.12500000E+03</pdfrwt>
<pdfrwt beam="2">  1       21 0.49106260E-02 0.12500000E+03</pdfrwt>
<totfact> 0.70222902E+06</totfact>
</mgrwt>
</event>
<event>
 3    1  0.1619206E-001  0.1250000E+03  0.7546771E-02  0.1235069E+00
         21   -1    0    0  502  501  0.00000000000E+00  0.00000000000E+00  0.54164589915E+03  0.54164589915E+03  0.00000000000E+00 0.  1.
         21   -1    0    0  501  502 -0.00000000000E+00 -0.00000000000E+00 -0.72118149628E+01  0.72118149628E+01  0.00000000000E+00 0.  1.
         25    1    1    2    0    0  0.00000000000E+00  0.00000000000E+00  0.53443408419E+03  0.54885771411E+03  0.12500000000E+03 0.  0.
<mgrwt>
<rscale>  0 0.12500000E+03</rscale>
<asrwt>0</asrwt>
<pdfrwt beam="1">  1       21 0.83330106E-01 0.12500000E+03</pdfrwt>
<pdfrwt beam="2">  1       21 0.11095104E-02 0.12500000E+03</pdfrwt>
<totfact> 0.39512586E+06</totfact>
</mgrwt>
</event>
<event>
 3    1  0.1619206E-001  0.1250000E+03  0.7546771E-02  0.1235069E+00
         21   -1    0    0  502  501  0.00000000000E+00  0.00000000000E+00  0.36584035702E+03  0.36584035702E+03  0.00000000000E+00 0. -1.
         21   -1    0    0  501  502 -0.00000000000E+00 -0.00000000000E+00 -0.10677471539E+02  0.10677471539E+02  0.00000000000E+00 0. -1.
         25    1    1    2    0    0  0.00000000000E+00  0.00000000000E+00  0.35516288548E+03  0.37651782856E+03  0.12500000000E+03 0.  0.
<mgrwt>
<rscale>  0 0.12500000E+03</rscale>
<asrwt>0</asrwt>
<pdfrwt beam="1">  1       21 0.56283122E-01 0.12500000E+03</pdfrwt>
<pdfrwt beam="2">  1       21 0.16426882E-02 0.12500000E+03</pdfrwt>
<totfact> 0.49637689E+06</totfact>
</mgrwt>
</event>
<event>
 3    1  0.1619206E-001  0.1250000E+03  0.7546771E-02  0.1235069E+00
         21   -1    0    0  502  501  0.00000000000E+00  0.00000000000E+00  0.43736843111E+02  0.43736843111E+02  0.00000000000E+00 0.  1.
         21   -1    0    0  501  502 -0.00000000000E+00 -0.00000000000E+00 -0.89312573156E+02  0.89312573156E+02  0.00000000000E+00 0.  1.
         25    1    1    2    0    0  0.00000000000E+00  0.00000000000E+00 -0.45575730045E+02  0.13304941627E+03  0.12500000000E+03 0.  0.
<mgrwt>
<rscale>  0 0.12500000E+03</rscale>
<asrwt>0</asrwt>
<pdfrwt beam="1">  1       21 0.67287451E-02 0.12500000E+03</pdfrwt>
<pdfrwt beam="2">  1       21 0.13740396E-01 0.12500000E+03</pdfrwt>
<totfact> 0.72955800E+06</totfact>
</mgrwt>
</event>
<event>
 3    1  0.1619206E-001  0.1250000E+03  0.7546771E-02  0.1235069E+00
         21   -1    0    0  502  501  0.00000000000E+00  0.00000000000E+00  0.36608957529E+02  0.36608957529E+02  0.00000000000E+00 0. -1.
         21   -1    0    0  501  502 -0.00000000000E+00 -0.00000000000E+00 -0.10670202769E+03  0.10670202769E+03  0.00000000000E+00 0. -1.
         25    1    1    2    0    0  0.00000000000E+00  0.00000000000E+00 -0.70093070161E+02  0.14331098522E+03  0.12500000000E+03 0.  0.
<mgrwt>
<rscale>  0 0.12500000E+03</rscale>
<asrwt>0</asrwt>
<pdfrwt beam="1">  1       21 0.56321474E-02 0.12500000E+03</pdfrwt>
<pdfrwt beam="2">  1       21 0.16415696E-01 0.12500000E+03</pdfrwt>
<totfact> 0.71609959E+06</totfact>
</mgrwt>
</event>
<event>
 3    1  0.1619206E-001  0.1250000E+03  0.7546771E-02  0.1235069E+00
         21   -1    0    0  502  501  0.00000000000E+00  0.00000000000E+00  0.21428281650E+02  0.21428281650E+02  0.00000000000E+00 0. -1.
         21   -1    0    0  501  502 -0.00000000000E+00 -0.00000000000E+00 -0.18229413183E+03  0.18229413183E+03  0.00000000000E+00 0. -1.
         25    1    1    2    0    0  0.00000000000E+00  0.00000000000E+00 -0.16086585018E+03  0.20372241348E+03  0.12500000000E+03 0.  0.
<mgrwt>
<rscale>  0 0.12500000E+03</rscale>
<asrwt>0</asrwt>
<pdfrwt beam="1">  1       21 0.32966587E-02 0.12500000E+03</pdfrwt>
<pdfrwt beam="2">  1       21 0.28045251E-01 0.12500000E+03</pdfrwt>
<totfact> 0.64526122E+06</totfact>
</mgrwt>
</event>
<event>
 3    1  0.1619206E-001  0.1250000E+03  0.7546771E-02  0.1235069E+00
         21   -1    0    0  502  501  0.00000000000E+00  0.00000000000E+00  0.24457115696E+02  0.24457115696E+02  0.00000000000E+00 0.  1.
         21   -1    0    0  501  502 -0.00000000000E+00 -0.00000000000E+00 -0.15971834327E+03  0.15971834327E+03  0.00000000000E+00 0.  1.
         25    1    1    2    0    0  0.00000000000E+00  0.00000000000E+00 -0.13526122757E+03  0.18417545896E+03  0.12500000000E+03 0.  0.
<mgrwt>
<rscale>  0 0.12500000E+03</rscale>
<asrwt>0</asrwt>
<pdfrwt beam="1">  1       21 0.37626332E-02 0.12500000E+03</pdfrwt>
<pdfrwt beam="2">  1       21 0.24572053E-01 0.12500000E+03</pdfrwt>
<totfact> 0.66675740E+06</totfact>
</mgrwt>
</event>
<event>
 3    1  0.1619206E-001  0.1250000E+03  0.7546771E-02  0.1235069E+00
         21   -1    0    0  502  501  0.00000000000E+00  0.00000000000E+00  0.12984043329E+03  0.12984043329E+03  0.00000000000E+00 0. -1.
         21   -1    0    0  501  502 -0.00000000000E+00 -0.00000000000E+00 -0.30085004349E+02  0.30085004349E+02  0.00000000000E+00 0. -1.
         25    1    1    2    0    0  0.00000000000E+00  0.00000000000E+00  0.99755428937E+02  0.15992543763E+03  0.12500000000E+03 0.  0.
<mgrwt>
<rscale>  0 0.12500000E+03</rscale>
<asrwt>0</asrwt>
<pdfrwt beam="1">  1       21 0.19975451E-01 0.12500000E+03</pdfrwt>
<pdfrwt beam="2">  1       21 0.46284623E-02 0.12500000E+03</pdfrwt>
<totfact> 0.69528608E+06</totfact>
</mgrwt>
</event>
<event>
 3    1  0.1619206E-001  0.1250000E+03  0.7546771E-02  0.1235069E+00
         21   -1    0    0  502  501  0.00000000000E+00  0.00000000000E+00  0.25622437030E+01  0.25622437030E+01  0.00000000000E+00 0.  1.
         21   -1    0    0  501  502 -0.00000000000E+00 -0.00000000000E+00 -0.15245427261E+04  0.15245427261E+04  0.00000000000E+00 0.  1.
         25    1    1    2    0    0  0.00000000000E+00  0.00000000000E+00 -0.15219804824E+04  0.15271049698E+04  0.12500000000E+03 0.  0.
<mgrwt>
<rscale>  0 0.12500000E+03</rscale>
<asrwt>0</asrwt>
<pdfrwt beam="1">  1       21 0.39419011E-03 0.12500000E+03</pdfrwt>
<pdfrwt beam="2">  1       21 0.23454576E+00 0.12500000E+03</pdfrwt>
<totfact> 0.13595557E+06</totfact>
</mgrwt>
</event>
<event>
 3    1  0.1619206E-001  0.1250000E+03  0.7546771E-02  0.1235069E+00
         21   -1    0    0  502  501  0.00000000000E+00  0.00000000000E+00  0.17529396252E+03  0.17529396252E+03  0.00000000000E+00 0. -1.
         21   -1    0    0  501  502 -0.00000000000E+00 -0.00000000000E+00 -0.22283996230E+02  0.22283996230E+02  0.00000000000E+00 0. -1.
         25    1    1    2    0    0  0.00000000000E+00  0.00000000000E+00  0.15300996629E+03  0.19757795875E+03  0.12500000000E+03 0.  0.
<mgrwt>
<rscale>  0 0.12500000E+03</rscale>
<asrwt>0</asrwt>
<pdfrwt beam="1">  1       21 0.26968301E-01 0.12500000E+03</pdfrwt>
<pdfrwt beam="2">  1       21 0.34283072E-02 0.12500000E+03</pdfrwt>
<totfact> 0.65189972E+06</totfact>
</mgrwt>
</event>
<event>
 3    1  0.1619206E-001  0.1250000E+03  0.7546771E-02  0.1235069E+00
         21   -1    0    0  502  501  0.00000000000E+00  0.00000000000E+00  0.15795638560E+04  0.15795638560E+04  0.00000000000E+00 0.  1.
         21   -1    0    0  501  502 -0.00000000000E+00 -0.00000000000E+00 -0.24729927728E+01  0.24729927728E+01  0.00000000000E+00 0.  1.
         25    1    1    2    0    0  0.00000000000E+00  0.00000000000E+00  0.15770908632E+04  0.15820368488E+04  0.12500000000E+03 0.  0.
<mgrwt>
<rscale>  0 0.12500000E+03</rscale>
<asrwt>0</asrwt>
<pdfrwt beam="1">  1       21 0.24300902E+00 0.12500000E+03</pdfrwt>
<pdfrwt beam="2">  1       21 0.38046169E-03 0.12500000E+03</pdfrwt>
<totfact> 0.12819498E+06</totfact>
</mgrwt>
</event>
<event>
 3    1  0.1619206E-001  0.1250000E+03  0.7546771E-02  0.1235069E+00
         21   -1    0    0  502  501  0.00000000000E+00  0.00000000000E+00  0.15198947006E+03  0.15198947006E+03  0.00000000000E+00 0.  1.
         21   -1    0    0  501  502 -0.00000000000E+00 -0.00000000000E+00 -0.25700793605E+02  0.25700793605E+02  0.00000000000E+00 0.  1.
         25    1    1    2    0    0  0.00000000000E+00  0.00000000000E+00  0.12628867645E+03  0.17769026366E+03  0.12500000000E+03 0.  0.
<mgrwt>
<rscale>  0 0.12500000E+03</rscale>
<asrwt>0</asrwt>
<pdfrwt beam="1">  1       21 0.23382995E-01 0.12500000E+03</pdfrwt>
<pdfrwt beam="2">  1       21 0.39539683E-02 0.12500000E+03</pdfrwt>
<totfact> 0.67417495E+06</totfact>
</mgrwt>
</event>
<event>
 3    1  0.1619206E-001  0.1250000E+03  0.7546771E-02  0.1235069E+00
         21   -1    0    0  502  501  0.00000000000E+00  0.00000000000E+00  0.38735284298E+02  0.38735284298E+02  0.00000000000E+00 0.  1.
         21   -1    0    0  501  502 -0.00000000000E+00 -0.00000000000E+00 -0.10084474842E+03  0.10084474842E+03  0.00000000000E+00 0.  1.
         25    1    1    2    0    0  0.00000000000E+00  0.00000000000E+00 -0.62109464123E+02  0.13958003272E+03  0.12500000000E+03 0.  0.
<mgrwt>
<rscale>  0 0.12500000E+03</rscale>
<asrwt>0</asrwt>
<pdfrwt beam="1">  1       21 0.59592746E-02 0.12500000E+03</pdfrwt>
<pdfrwt beam="2">  1       21 0.15514577E-01 0.12500000E+03</pdfrwt>
<totfact> 0.72094181E+06</totfact>
</mgrwt>
</event>
<event>
 3    1  0.1619206E-001  0.1250000E+03  0.7546771E-02  0.1235069E+00
         21   -1    0    0  502  501  0.00000000000E+00  0.00000000000E+00  0.84708183038E+01  0.84708183038E+01  0.00000000000E+00 0.  1.
         21   -1    0    0  501  502 -0.00000000000E+00 -0.00000000000E+00 -0.46114198887E+03  0.46114198887E+03  0.00000000000E+00 0.  1.
         25    1    1    2    0    0  0.00000000000E+00  0.00000000000E+00 -0.45267117057E+03  0.46961280718E+03  0.12500000000E+03 0.  0.
<mgrwt>
<rscale>  0 0.12500000E+03</rscale>
<asrwt>0</asrwt>
<pdfrwt beam="1">  1       21 0.13032029E-02 0.12500000E+03</pdfrwt>
<pdfrwt beam="2">  1       21 0.70944917E-01 0.12500000E+03</pdfrwt>
<totfact> 0.43741476E+06</totfact>
</mgrwt>
</event>
<event>
 3    1  0.1619206E-001  0.1250000E+03  0.7546771E-02  0.1235069E+00
         21   -1    0    0  502  501  0.00000000000E+00  0.00000000000E+00  0.13553322034E+02  0.13553322034E+02  0.00000000000E+00 0. -1.
         21   -1    0    0  501  502 -0.00000000000E+00 -0.00000000000E+00 -0.28821347197E+03  0.28821347197E+03  0.00000000000E+00 0. -1.
         25    1    1    2    0    0  0.00000000000E+00  0.00000000000E+00 -0.27466014993E+03  0.30176679400E+03  0.12500000000E+03 0.  0.
<mgrwt>
<rscale>  0 0.12500000E+03</rscale>
<asrwt>0</asrwt>
<pdfrwt beam="1">  1       21 0.20851265E-02 0.12500000E+03</pdfrwt>
<pdfrwt beam="2">  1       21 0.44340533E-01 0.12500000E+03</pdfrwt>
<totfact> 0.55309666E+06</totfact>
</mgrwt>
</event>
<event>
 3    1  0.1619206E-001  0.1250000E+03  0.7546771E-02  0.1235069E+00
         21   -1    0    0  502  501  0.00000000000E+00  0.00000000000E+00  0.14754489126E+03  0.14754489126E+03  0.00000000000E+00 0. -1.
         21   -1    0    0  501  502 -0.00000000000E+00 -0.00000000000E+00 -0.26474993248E+02  0.26474993248E+02  0.00000000000E+00 0. -1.
         25    1    1    2    0    0  0.00000000000E+00  0.00000000000E+00  0.12106989801E+03  0.17401988451E+03  0.12500000000E+03 0.  0.
<mgrwt>
<rscale>  0 0.12500000E+03</rscale>
<asrwt>0</asrwt>
<pdfrwt beam="1">  1       21 0.22699214E-01 0.12500000E+03</pdfrwt>
<pdfrwt beam="2">  1       21 0.40730760E-02 0.12500000E+03</pdfrwt>
<totfact> 0.67844267E+06</totfact>
</mgrwt>
</event>
<event>
 3    1  0.1619206E-001  0.1250000E+03  0.7546771E-02  0.1235069E+00
         21   -1    0    0  502  501  0.00000000000E+00  0.00000000000E+00  0.23518053983E+03  0.23518053983E+03  0.00000000000E+00 0. -1.
         21   -1    0    0  501  502 -0.00000000000E+00 -0.00000000000E+00 -0.16609580039E+02  0.16609580039E+02  0.00000000000E+00 0. -1.
         25    1    1    2    0    0  0.00000000000E+00  0.00000000000E+00  0.21857095979E+03  0.25179011987E+03  0.12500000000E+03 0.  0.
<mgrwt>
<rscale>  0 0.12500000E+03</rscale>
<asrwt>0</asrwt>
<pdfrwt beam="1">  1       21 0.36181619E-01 0.12500000E+03</pdfrwt>
<pdfrwt beam="2">  1       21 0.25553202E-02 0.12500000E+03</pdfrwt>
<totfact> 0.59710062E+06</totfact>
</mgrwt>
</event>
<event>
 3    1  0.1619206E-001  0.1250000E+03  0.7546771E-02  0.1235069E+00
         21   -1    0    0  502  501  0.00000000000E+00  0.00000000000E+00  0.10525304071E+03  0.10525304071E+03  0.00000000000E+00 0. -1.
         21   -1    0    0  501  502 -0.00000000000E+00 -0.00000000000E+00 -0.37112942047E+02  0.37112942047E+02  0.00000000000E+00 0. -1.
         25    1    1    2    0    0  0.00000000000E+00  0.00000000000E+00  0.68140098661E+02  0.14236598275E+03  0.12500000000E+03 0.  0.
<mgrwt>
<rscale>  0 0.12500000E+03</rscale>
<asrwt>0</asrwt>
<pdfrwt beam="1">  1       21 0.16192775E-01 0.12500000E+03</pdfrwt>
<pdfrwt beam="2">  1       21 0.57096834E-02 0.12500000E+03</pdfrwt>
<totfact> 0.71731920E+06</totfact>
</mgrwt>
</event>
<event>
 3    1  0.1619206E-001  0.1250000E+03  0.7546771E-02  0.1235069E+00
         21   -1    0    0  502  501  0.00000000000E+00  0.00000000000E+00  0.13594441127E+02  0.13594441127E+02  0.00000000000E+00 0. -1.
         21   -1    0    0  501  502 -0.00000000000E+00 -0.00000000000E+00 -0.28734171295E+03  0.28734171295E+03  0.00000000000E+00 0. -1.
         25    1    1    2    0    0  0.00000000000E+00  0.00000000000E+00 -0.27374727183E+03  0.30093615408E+03  0.12500000000E+03 0.  0.
<mgrwt>
<rscale>  0 0.12500000E+03</rscale>
<asrwt>0</asrwt>
<pdfrwt beam="1">  1       21 0.20914526E-02 0.12500000E+03</pdfrwt>
<pdfrwt beam="2">  1       21 0.44206415E-01 0.12500000E+03</pdfrwt>
<totfact> 0.55378466E+06</totfact>
</mgrwt>
</event>
<event>
 3    1  0.1619206E-001  0.1250000E+03  0.7546771E-02  0.1235069E+00
         21   -1    0    0  502  501  0.00000000000E+00  0.00000000000E+00  0.20447267206E+03  0.20447267206E+03  0.00000000000E+00 0.  1.
         21   -1    0    0  501  502 -0.00000000000E+00 -0.00000000000E+00 -0.19104019919E+02  0.19104019919E+02  0.00000000000E+00 0.  1.
         25    1    1    2    0    0  0.00000000000E+00  0.00000000000E+00  0.18536865214E+03  0.22357669198E+03  0.12500000000E+03 0.  0.
<mgrwt>
<rscale>  0 0.12500000E+03</rscale>
<asrwt>0</asrwt>
<pdfrwt beam="1">  1       21 0.31457333E-01 0.12500000E+03</pdfrwt>
<pdfrwt beam="2">  1       21 0.29390801E-02 0.12500000E+03</pdfrwt>
<totfact> 0.62458810E+06</totfact>
</mgrwt>
</event>
<event>
 3    1  0.1619206E-001  0.1250000E+03  0.7546771E-02  0.1235069E+00
         21   -1    0    0  502  501  0.00000000000E+00  0.00000000000E+00  0.19278500514E+03  0.19278500514E+03  0.00000000000E+00 0. -1.
         21   -1    0    0  501  502 -0.00000000000E+00 -0.00000000000E+00 -0.20262208657E+02  0.20262208657E+02  0.00000000000E+00 0. -1.
         25    1    1    2    0    0  0.00000000000E+00  0.00000000000E+00  0.17252279648E+03  0.21304721380E+03  0.12500000000E+03 0.  0.
<mgrwt>
<rscale>  0 0.12500000E+03</rscale>
<asrwt>0</asrwt>
<pdfrwt beam="1">  1       21 0.29659230E-01 0.12500000E+03</pdfrwt>
<pdfrwt beam="2">  1       21 0.31172630E-02 0.12500000E+03</pdfrwt>
<totfact> 0.63540354E+06</totfact>
</mgrwt>
</event>
<event>
 3    1  0.1619206E-001  0.1250000E+03  0.7546771E-02  0.1235069E+00
         21   -1    0    0  502  501  0.00000000000E+00  0.00000000000E+00  0.77469334568E+02  0.77469334568E+02  0.00000000000E+00 0. -1.
         21   -1    0    0  501  502 -0.00000000000E+00 -0.00000000000E+00 -0.50423177400E+02  0.50423177400E+02  0.00000000000E+00 0. -1.
         25    1    1    2    0    0  0.00000000000E+00  0.00000000000E+00  0.27046157168E+02  0.12789251197E+03  0.12500000000E+03 0.  0.
<mgrwt>
<rscale>  0 0.12500000E+03</rscale>
<asrwt>0</asrwt>
<pdfrwt beam="1">  1       21 0.11918359E-01 0.12500000E+03</pdfrwt>
<pdfrwt beam="2">  1       21 0.77574119E-02 0.12500000E+03</pdfrwt>
<totfact> 0.73648084E+06</totfact>
</mgrwt>
</event>
<event>
 3    1  0.1619206E-001  0.1250000E+03  0.7546771E-02  0.1235069E+00
         21   -1    0    0  502  501  0.00000000000E+00  0.00000000000E+00  0.38516901397E+03  0.38516901397E+03  0.00000000000E+00 0.  1.
         21   -1    0    0  501  502 -0.00000000000E+00 -0.00000000000E+00 -0.10141651738E+02  0.10141651738E+02  0.00000000000E+00 0.  1.
         25    1    1    2    0    0  0.00000000000E+00  0.00000000000E+00  0.37502736223E+03  0.39531066571E+03  0.12500000000E+03 0.  0.
<mgrwt>
<rscale>  0 0.12500000E+03</rscale>
<asrwt>0</asrwt>
<pdfrwt beam="1">  1       21 0.59256760E-01 0.12500000E+03</pdfrwt>
<pdfrwt beam="2">  1       21 0.15602544E-02 0.12500000E+03</pdfrwt>
<totfact> 0.48353957E+06</totfact>
</mgrwt>
</event>
<event>
 3    1  0.1619206E-001  0.1250000E+03  0.7546771E-02  0.1235069E+00
         21   -1    0    0  502  501  0.00000000000E+00  0.00000000000E+00  0.70379700073E+02  0.70379700073E+02  0.00000000000E+00 0. -1.
         21   -1    0    0  501  502 -0.00000000000E+00 -0.00000000000E+00 -0.55502509899E+02  0.55502509899E+02  0.00000000000E+00 0. -1.
         25    1    1    2    0    0  0.00000000000E+00  0.00000000000E+00  0.14877190174E+02  0.12588220997E+03  0.12500000000E+03 0.  0.
<mgrwt>
<rscale>  0 0.12500000E+03</rscale>
<asrwt>0</asrwt>
<pdfrwt beam="1">  1       21 0.10827646E-01 0.12500000E+03</pdfrwt>
<pdfrwt beam="2">  1       21 0.85388477E-02 0.12500000E+03</pdfrwt>
<totfact> 0.73922299E+06</totfact>
</mgrwt>
</event>
<event>
 3    1  0.1619206E-001  0.1250000E+03  0.7546771E-02  0.1235069E+00
         21   -1    0    0  502  501  0.00000000000E+00  0.00000000000E+00  0.18334346088E+02  0.18334346088E+02  0.00000000000E+00 0. -1.
         21   -1    0    0  501  502 -0.00000000000E+00 -0.00000000000E+00 -0.21305641234E+03  0.21305641234E+03  0.00000000000E+00 0. -1.
         25    1    1    2    0    0  0.00000000000E+00  0.00000000000E+00 -0.19472206625E+03  0.23139075843E+03  0.12500000000E+03 0.  0.
<mgrwt>
<rscale>  0 0.12500000E+03</rscale>
<asrwt>0</asrwt>
<pdfrwt beam="1">  1       21 0.28206687E-02 0.12500000E+03</pdfrwt>
<pdfrwt beam="2">  1       21 0.32777908E-01 0.12500000E+03</pdfrwt>
<totfact> 0.61675847E+06</totfact>
</mgrwt>
</event>
<event>
 3    1  0.1619206E-001  0.1250000E+03  0.7546771E-02  0.1235069E+00
         21   -1    0    0  502  501  0.00000000000E+00  0.00000000000E+00  0.36893714949E+03  0.36893714949E+03  0.00000000000E+00 0.  1.
         21   -1    0    0  501  502 -0.00000000000E+00 -0.00000000000E+00 -0.10587846752E+02  0.10587846752E+02  0.00000000000E+00 0.  1.
         25    1    1    2    0    0  0.00000000000E+00  0.00000000000E+00  0.35834930274E+03  0.37952499624E+03  0.12500000000E+03 0.  0.
<mgrwt>
<rscale>  0 0.12500000E+03</rscale>
<asrwt>0</asrwt>
<pdfrwt beam="1">  1       21 0.56759552E-01 0.12500000E+03</pdfrwt>
<pdfrwt beam="2">  1       21 0.16288998E-02 0.12500000E+03</pdfrwt>
<totfact> 0.49429155E+06</totfact>
</mgrwt>
</event>
<event>
 3    1  0.1619206E-001  0.1250000E+03  0.7546771E-02  0.1235069E+00
         21   -1    0    0  502  501  0.00000000000E+00  0.00000000000E+00  0.33598856509E+02  0.33598856509E+02  0.00000000000E+00 0.  1.
         21   -1    0    0  501  502 -0.00000000000E+00 -0.00000000000E+00 -0.11626139714E+03  0.11626139714E+03  0.00000000000E+00 0.  1.
         25    1    1    2    0    0  0.00000000000E+00  0.00000000000E+00 -0.82662540630E+02  0.14986025365E+03  0.12500000000E+03 0.  0.
<mgrwt>
<rscale>  0 0.12500000E+03</rscale>
<asrwt>0</asrwt>
<pdfrwt beam="1">  1       21 0.51690549E-02 0.12500000E+03</pdfrwt>
<pdfrwt beam="2">  1       21 0.17886369E-01 0.12500000E+03</pdfrwt>
<totfact> 0.70776760E+06</totfact>
</mgrwt>
</event>
<event>
 3    1  0.1619206E-001  0.1250000E+03  0.7546771E-02  0.1235069E+00
         21   -1    0    0  502  501  0.00000000000E+00  0.00000000000E+00  0.96667169813E+01  0.96667169813E+01  0.00000000000E+00 0. -1.
         21   -1    0    0  501  502 -0.00000000000E+00 -0.00000000000E+00 -0.40409272430E+03  0.40409272430E+03  0.00000000000E+00 0. -1.
         25    1    1    2    0    0  0.00000000000E+00  0.00000000000E+00 -0.39442600732E+03  0.41375944128E+03  0.12500000000E+03 0.  0.
<mgrwt>
<rscale>  0 0.12500000E+03</rscale>
<asrwt>0</asrwt>
<pdfrwt beam="1">  1       21 0.14871873E-02 0.12500000E+03</pdfrwt>
<pdfrwt beam="2">  1       21 0.62168110E-01 0.12500000E+03</pdfrwt>
<totfact> 0.47141896E+06</totfact>
</mgrwt>
</event>
<event>
 3    1  0.1619206E-001  0.1250000E+03  0.7546771E-02  0.1235069E+00
         21   -1    0    0  502  501  0.00000000000E+00  0.00000000000E+00  0.12137474961E+03  0.12137474961E+03  0.00000000000E+00 0. -1.
         21   -1    0    0  501  502 -0.00000000000E+00 -0.00000000000E+00 -0.32183382562E+02  0.32183382562E+02  0.00000000000E+00 0. -1.
         25    1    1    2    0    0  0.00000000000E+00  0.00000000000E+00  0.89191367045E+02  0.15355813217E+03  0.12500000000E+03 0.  0.
<mgrwt>
<rscale>  0 0.12500000E+03</rscale>
<asrwt>0</asrwt>
<pdfrwt beam="1">  1       21 0.18673038E-01 0.12500000E+03</pdfrwt>
<pdfrwt beam="2">  1       21 0.49512897E-02 0.12500000E+03</pdfrwt>
<totfact> 0.70315044E+06</totfact>
</mgrwt>
</event>
<event>
 3    1  0.1619206E-001  0.1250000E+03  0.7546771E-02  0.1235069E+00
         21   -1    0    0  502  501  0.00000000000E+00  0.00000000000E+00  0.57177136983E+01  0.57177136983E+01  0.00000000000E+00 0.  1.
         21   -1    0    0  501  502 -0.00000000000E+00 -0.00000000000E+00 -0.68318390988E+03  0.68318390988E+03  0.00000000000E+00 0.  1.
         25    1    1    2    0    0  0.00000000000E+00  0.00000000000E+00 -0.67746619618E+03  0.68890162358E+03  0.12500000000E+03 0.  0.
<mgrwt>
<rscale>  0 0.12500000E+03</rscale>
<asrwt>0</asrwt>
<pdfrwt beam="1">  1       21 0.87964905E-03 0.12500000E+03</pdfrwt>
<pdfrwt beam="2">  1       21 0.10510512E+00 0.12500000E+03</pdfrwt>
<totfact> 0.33342454E+06</totfact>
</mgrwt>
</event>
<event>
 3    1  0.1619206E-001  0.1250000E+03  0.7546771E-02  0.1235069E+00
         21   -1    0    0  502  501  0.00000000000E+00  0.00000000000E+00  0.59311979888E+02  0.59311979888E+02  0.00000000000E+00 0.  1.
         21   -1    0    0  501  502 -0.00000000000E+00 -0.00000000000E+00 -0.65859376257E+02  0.65859376257E+02  0.00000000000E+00 0.  1.
         25    1    1    2    0    0  0.00000000000E+00  0.00000000000E+00 -0.65473963693E+01  0.12517135615E+03  0.12500000000E+03 0.  0.
<mgrwt>
<rscale>  0 0.12500000E+03</rscale>
<asrwt>0</asrwt>
<pdfrwt beam="1">  1       21 0.91249200E-02 0.12500000E+03</pdfrwt>
<pdfrwt beam="2">  1       21 0.10132212E-01 0.12500000E+03</pdfrwt>
<totfact> 0.74020440E+06</totfact>
</mgrwt>
</event>
<event>
 3    1  0.1619206E-001  0.1250000E+03  0.7546771E-02  0.1235069E+00
         21   -1    0    0  502  501  0.00000000000E+00  0.00000000000E+00  0.40649661276E+01  0.40649661276E+01  0.00000000000E+00 0.  1.
         21   -1    0    0  501  502 -0.00000000000E+00 -0.00000000000E+00 -0.96095511681E+03  0.96095511681E+03  0.00000000000E+00 0.  1.
         25    1    1    2    0    0  0.00000000000E+00  0.00000000000E+00 -0.95689015068E+03  0.96502008294E+03  0.12500000000E+03 0.  0.
<mgrwt>
<rscale>  0 0.12500000E+03</rscale>
<asrwt>0</asrwt>
<pdfrwt beam="1">  1       21 0.62538012E-03 0.12500000E+03</pdfrwt>
<pdfrwt beam="2">  1       21 0.14783908E+00 0.12500000E+03</pdfrwt>
<totfact> 0.24513557E+06</totfact>
</mgrwt>
</event>
<event>
 3    1  0.1619206E-001  0.1250000E+03  0.7546771E-02  0.1235069E+00
         21   -1    0    0  502  501  0.00000000000E+00  0.00000000000E+00  0.49580325761E+02  0.49580325761E+02  0.00000000000E+00 0. -1.
         21   -1    0    0  501  502 -0.00000000000E+00 -0.00000000000E+00 -0.78786291539E+02  0.78786291539E+02  0.00000000000E+00 0. -1.
         25    1    1    2    0    0  0.00000000000E+00  0.00000000000E+00 -0.29205965778E+02  0.12836661730E+03  0.12500000000E+03 0.  0.
<mgrwt>
<rscale>  0 0.12500000E+03</rscale>
<asrwt>0</asrwt>
<pdfrwt beam="1">  1       21 0.76277424E-02 0.12500000E+03</pdfrwt>
<pdfrwt beam="2">  1       21 0.12120968E-01 0.12500000E+03</pdfrwt>
<totfact> 0.73584092E+06</totfact>
</mgrwt>
</event>
<event>
 3    1  0.1619206E-001  0.1250000E+03  0.7546771E-02  0.1235069E+00
         21   -1    0    0  502  501  0.00000000000E+00  0.00000000000E+00  0.24804811429E+02  0.24804811429E+02  0.00000000000E+00 0.  1.
         21   -1    0    0  501  502 -0.00000000000E+00 -0.00000000000E+00 -0.15747952816E+03  0.15747952816E+03  0.00000000000E+00 0.  1.
         25    1    1    2    0    0  0.00000000000E+00  0.00000000000E+00 -0.13267471673E+03  0.18228433959E+03  0.12500000000E+03 0.  0.
<mgrwt>
<rscale>  0 0.12500000E+03</rscale>
<asrwt>0</asrwt>
<pdfrwt beam="1">  1       21 0.38161249E-02 0.12500000E+03</pdfrwt>
<pdfrwt beam="2">  1       21 0.24227620E-01 0.12500000E+03</pdfrwt>
<totfact> 0.66890446E+06</totfact>
</mgrwt>
</event>
<event>
 3    1  0.1619206E-001  0.1250000E+03  0.7546771E-02  0.1235069E+00
         21   -1    0    0  502  501  0.00000000000E+00  0.00000000000E+00  0.19000081671E+02  0.19000081671E+02  0.00000000000E+00 0. -1.
         21   -1    0    0  501  502 -0.00000000000E+00 -0.00000000000E+00 -0.20559122154E+03  0.20559122154E+03  0.00000000000E+00 0. -1.
         25    1    1    2    0    0  0.00000000000E+00  0.00000000000E+00 -0.18659113987E+03  0.22459130321E+03  0.12500000000E+03 0.  0.
<mgrwt>
<rscale>  0 0.12500000E+03</rscale>
<asrwt>0</asrwt>
<pdfrwt beam="1">  1       21 0.29230895E-02 0.12500000E+03</pdfrwt>
<pdfrwt beam="2">  1       21 0.31629419E-01 0.12500000E+03</pdfrwt>
<totfact> 0.62356302E+06</totfact>
</mgrwt>
</event>
<event>
 3    1  0.1619206E-001  0.1250000E+03  0.7546771E-02  0.1235069E+00
         21   -1    0    0  502  501  0.00000000000E+00  0.00000000000E+00  0.41519368683E+03  0.41519368683E+03  0.00000000000E+00 0.  1.
         21   -1    0    0  501  502 -0.00000000000E+00 -0.00000000000E+00 -0.94082596241E+01  0.94082596241E+01  0.00000000000E+00 0.  1.
         25    1    1    2    0    0  0.00000000000E+00  0.00000000000E+00  0.40578542721E+03  0.42460194646E+03  0.12500000000E+03 0.  0.
<mgrwt>
<rscale>  0 0.12500000E+03</rscale>
<asrwt>0</asrwt>
<pdfrwt beam="1">  1       21 0.63875938E-01 0.12500000E+03</pdfrwt>
<pdfrwt beam="2">  1       21 0.14474249E-02 0.12500000E+03</pdfrwt>
<totfact> 0.46451228E+06</totfact>
</mgrwt>
</event>
<event>
 3    1  0.1619206E-001  0.1250000E+03  0.7546771E-02  0.1235069E+00
         21   -1    0    0  502  501  0.00000000000E+00  0.00000000000E+00  0.32314158751E+02  0.32314158751E+02  0.00000000000E+00 0.  1.
         21   -1    0    0  501  502 -0.00000000000E+00 -0.00000000000E+00 -0.12088354303E+03  0.12088354303E+03  0.00000000000E+00 0.  1.
         25    1    1    2    0    0  0.00000000000E+00  0.00000000000E+00 -0.88569384283E+02  0.15319770179E+03  0.12500000000E+03 0.  0.
<mgrwt>
<rscale>  0 0.12500000E+03</rscale>
<asrwt>0</asrwt>
<pdfrwt beam="1">  1       21 0.49714090E-02 0.12500000E+03</pdfrwt>
<pdfrwt beam="2">  1       21 0.18597468E-01 0.12500000E+03</pdfrwt>
<totfact> 0.70359784E+06</totfact>
</mgrwt>
</event>
<event>
 3    1  0.1619206E-001  0.1250000E+03  0.7546771E-02  0.1235069E+00
         21   -1    0    0  502  501  0.00000000000E+00  0.00000000000E+00  0.24395617599E+03  0.24395617599E+03  0.00000000000E+00 0.  1.
         21   -1    0    0  501  502 -0.00000000000E+00 -0.00000000000E+00 -0.16012097190E+02  0.16012097190E+02  0.00000000000E+00 0.  1.
         25    1    1    2    0    0  0.00000000000E+00  0.00000000000E+00  0.22794407880E+03  0.25996827318E+03  0.12500000000E+03 0.  0.
<mgrwt>
<rscale>  0 0.12500000E+03</rscale>
<asrwt>0</asrwt>
<pdfrwt beam="1">  1       21 0.37531717E-01 0.12500000E+03</pdfrwt>
<pdfrwt beam="2">  1       21 0.24633997E-02 0.12500000E+03</pdfrwt>
<totfact> 0.58952180E+06</totfact>
</mgrwt>
</event>
<event>
 3    1  0.1619206E-001  0.1250000E+03  0.7546771E-02  0.1235069E+00
         21   -1    0    0  502  501  0.00000000000E+00  0.00000000000E+00  0.33685414365E+02  0.33685414365E+02  0.00000000000E+00 0. -1.
         21   -1    0    0  501  502 -0.00000000000E+00 -0.00000000000E+00 -0.11596265249E+03  0.11596265249E+03  0.00000000000E+00 0. -1.
         25    1    1    2    0    0  0.00000000000E+00  0.00000000000E+00 -0.82277238123E+02  0.14964806685E+03  0.12500000000E+03 0.  0.
<mgrwt>
<rscale>  0 0.12500000E+03</rscale>
<asrwt>0</asrwt>
<pdfrwt beam="1">  1       21 0.51823715E-02 0.12500000E+03</pdfrwt>
<pdfrwt beam="2">  1       21 0.17840408E-01 0.12500000E+03</pdfrwt>
<totfact> 0.70803438E+06</totfact>
</mgrwt>
</event>
<event>
 3    1  0.1619206E-001  0.1250000E+03  0.7546771E-02  0.1235069E+00
         21   -1    0    0  502  501  0.00000000000E+00  0.00000000000E+00  0.13045724578E+03  0.13045724578E+03  0.00000000000E+00 0.  1.
         21   -1    0    0  501  502 -0.00000000000E+00 -0.00000000000E+00 -0.29942759996E+02  0.29942759996E+02  0.00000000000E+00 0.  1.
         25    1    1    2    0    0  0.00000000000E+00  0.00000000000E+00  0.10051448578E+03  0.16040000577E+03  0.12500000000E+03 0.  0.
<mgrwt>
<rscale>  0 0.12500000E+03</rscale>
<asrwt>0</asrwt>
<pdfrwt beam="1">  1       21 0.20070345E-01 0.12500000E+03</pdfrwt>
<pdfrwt beam="2">  1       21 0.46065785E-02 0.12500000E+03</pdfrwt>
<totfact> 0.69470653E+06</totfact>
</mgrwt>
</event>
<event>
 3    1  0.1619206E-001  0.1250000E+03  0.7546771E-02  0.1235069E+00
         21   -1    0    0  502  501  0.00000000000E+00  0.00000000000E+00  0.32900756294E+01  0.32900756294E+01  0.00000000000E+00 0. -1.
         21   -1    0    0  501  502 -0.00000000000E+00 -0.00000000000E+00 -0.11872827376E+04  0.11872827376E+04  0.00000000000E+00 0. -1.
         25    1    1    2    0    0  0.00000000000E+00  0.00000000000E+00 -0.11839926619E+04  0.11905728132E+04  0.12500000000E+03 0.  0.
<mgrwt>
<rscale>  0 0.12500000E+03</rscale>
<asrwt>0</asrwt>
<pdfrwt beam="1">  1       21 0.50616576E-03 0.12500000E+03</pdfrwt>
<pdfrwt beam="2">  1       21 0.18265878E+00 0.12500000E+03</pdfrwt>
<totfact> 0.19332266E+06</totfact>
</mgrwt>
</event>
<event>
 3    1  0.1619206E-001  0.1250000E+03  0.7546771E-02  0.1235069E+00
         21   -1    0    0  502  501  0.00000000000E+00  0.00000000000E+00  0.31509616373E+02  0.31509616373E+02  0.00000000000E+00 0.  1.
         21   -1    0    0  501  502 -0.00000000000E+00 -0.00000000000E+00 -0.12397009071E+03  0.12397009071E+03  0.00000000000E+00 0.  1.
         25    1    1    2    0    0  0.00000000000E+00  0.00000000000E+00 -0.92460474338E+02  0.15547970708E+03  0.12500000000E+03 0.  0.
<mgrwt>
<rscale>  0 0.12500000E+03</rscale>
<asrwt>0</asrwt>
<pdfrwt beam="1">  1       21 0.48476333E-02 0.12500000E+03</pdfrwt>
<pdfrwt beam="2">  1       21 0.19072321E-01 0.12500000E+03</pdfrwt>
<totfact> 0.70076087E+06</totfact>
</mgrwt>
</event>
<event>
 3    1  0.1619206E-001  0.1250000E+03  0.7546771E-02  0.1235069E+00
         21   -1    0    0  502  501  0.00000000000E+00  0.00000000000E+00  0.95470888872E+02  0.95470888872E+02  0.00000000000E+00 0.  1.
         21   -1    0    0  501  502 -0.00000000000E+00 -0.00000000000E+00 -0.40915613609E+02  0.40915613609E+02  0.00000000000E+00 0.  1.
         25    1    1    2    0    0  0.00000000000E+00  0.00000000000E+00  0.54555275262E+02  0.13638650248E+03  0.12500000000E+03 0.  0.
<mgrwt>
<rscale>  0 0.12500000E+03</rscale>
<asrwt>0</asrwt>
<pdfrwt beam="1">  1       21 0.14687829E-01 0.12500000E+03</pdfrwt>
<pdfrwt beam="2">  1       21 0.62947098E-02 0.12500000E+03</pdfrwt>
<totfact> 0.72513406E+06</totfact>
</mgrwt>
</event>
<event>
 3    1  0.1619206E-001  0.1250000E+03  0.7546771E-02  0.1235069E+00
         21   -1    0    0  502  501  0.00000000000E+00  0.00000000000E+00  0.30460974113E+02  0.30460974113E+02  0.00000000000E+00 0.  1.
         21   -1    0    0  501  502 -0.00000000000E+00 -0.00000000000E+00 -0.12823785561E+03  0.12823785561E+03  0.00000000000E+00 0.  1.
         25    1    1    2    0    0  0.00000000000E+00  0.00000000000E+00 -0.97776881494E+02  0.15869882972E+03  0.12500000000E+03 0.  0.
<mgrwt>
<rscale>  0 0.12500000E+03</rscale>
<asrwt>0</asrwt>
<pdfrwt beam="1">  1       21 0.46863037E-02 0.12500000E+03</pdfrwt>
<pdfrwt beam="2">  1       21 0.19728901E-01 0.12500000E+03</pdfrwt>
<totfact> 0.69678835E+06</totfact>
</mgrwt>
</event>
<event>
 3    1  0.1619206E-001  0.1250000E+03  0.7546771E-02  0.1235069E+00
         21   -1    0    0  502  501  0.00000000000E+00  0.00000000000E+00  0.12365060604E+02  0.12365060604E+02  0.00000000000E+00 0. -1.
         21   -1    0    0  501  502 -0.00000000000E+00 -0.00000000000E+00 -0.31591029961E+03  0.31591029961E+03  0.00000000000E+00 0. -1.
         25    1    1    2    0    0  0.00000000000E+00  0.00000000000E+00 -0.30354523901E+03  0.32827536022E+03  0.12500000000E+03 0.  0.
<mgrwt>
<rscale>  0 0.12500000E+03</rscale>
<asrwt>0</asrwt>
<pdfrwt beam="1">  1       21 0.19023173E-02 0.12500000E+03</pdfrwt>
<pdfrwt beam="2">  1       21 0.48601577E-01 0.12500000E+03</pdfrwt>
<totfact> 0.53184013E+06</totfact>
</mgrwt>
</event>
<event>
 3    1  0.1619206E-001  0.1250000E+03  0.7546771E-02  0.1235069E+00
         21   -1    0    0  502  501  0.00000000000E+00  0.00000000000E+00  0.50494561843E+02  0.50494561843E+02  0.00000000000E+00 0. -1.
         21   -1    0    0  501  502 -0.00000000000E+00 -0.00000000000E+00 -0.77359815739E+02  0.77359815739E+02  0.00000000000E+00 0. -1.
         25    1    1    2    0    0  0.00000000000E+00  0.00000000000E+00 -0.26865253895E+02  0.12785437758E+03  0.12500000000E+03 0.  0.
<mgrwt>
<rscale>  0 0.12500000E+03</rscale>
<asrwt>0</asrwt>
<pdfrwt beam="1">  1       21 0.77683942E-02 0.12500000E+03</pdfrwt>
<pdfrwt beam="2">  1       21 0.11901510E-01 0.12500000E+03</pdfrwt>
<totfact> 0.73653240E+06</totfact>
</mgrwt>
</event>
<event>
 3    1  0.1619206E-001  0.1250000E+03  0.7546771E-02  0.1235069E+00
         21   -1    0    0  502  501  0.00000000000E+00  0.00000000000E+00  0.45809264202E+02  0.45809264202E+02  0.00000000000E+00 0. -1.
         21   -1    0    0  501  502 -0.00000000000E+00 -0.00000000000E+00 -0.85272052893E+02  0.85272052893E+02  0.00000000000E+00 0. -1.
         25    1    1    2    0    0  0.00000000000E+00  0.00000000000E+00 -0.39462788691E+02  0.13108131709E+03  0.12500000000E+03 0.  0.
<mgrwt>
<rscale>  0 0.12500000E+03</rscale>
<asrwt>0</asrwt>
<pdfrwt beam="1">  1       21 0.70475792E-02 0.12500000E+03</pdfrwt>
<pdfrwt beam="2">  1       21 0.13118777E-01 0.12500000E+03</pdfrwt>
<totfact> 0.73219715E+06</totfact>
</mgrwt>
</event>
<event>
 3    1  0.1619206E-001  0.1250000E+03  0.7546771E-02  0.1235069E+00
         21   -1    0    0  502  501  0.00000000000E+00  0.00000000000E+00  0.64897174330E+02  0.64897174330E+02  0.00000000000E+00 0. -1.
         21   -1    0    0  501  502 -0.00000000000E+00 -0.00000000000E+00 -0.60191372588E+02  0.60191372588E+02  0.00000000000E+00 0. -1.
         25    1    1    2    0    0  0.00000000000E+00  0.00000000000E+00  0.47058017425E+01  0.12508854692E+03  0.12500000000E+03 0.  0.
<mgrwt>
<rscale>  0 0.12500000E+03</rscale>
<asrwt>0</asrwt>
<pdfrwt beam="1">  1       21 0.99841807E-02 0.12500000E+03</pdfrwt>
<pdfrwt beam="2">  1       21 0.92602111E-02 0.12500000E+03</pdfrwt>
<totfact> 0.74031622E+06</totfact>
</mgrwt>
</event>
<event>
 3    1  0.1619206E-001  0.1250000E+03  0.7546771E-02  0.1235069E+00
         21   -1    0    0  502  501  0.00000000000E+00  0.00000000000E+00  0.12905539566E+03  0.12905539566E+03  0.00000000000E+00 0.  1.
         21   -1    0    0  501  502 -0.00000000000E+00 -0.00000000000E+00 -0.30268009950E+02  0.30268009950E+02  0.00000000000E+00 0.  1.
         25    1    1    2    0    0  0.00000000000E+00  0.00000000000E+00  0.98787385710E+02  0.15932340561E+03  0.12500000000E+03 0.  0.
<mgrwt>
<rscale>  0 0.12500000E+03</rscale>
<asrwt>0</asrwt>
<pdfrwt beam="1">  1       21 0.19854676E-01 0.12500000E+03</pdfrwt>
<pdfrwt beam="2">  1       21 0.46566170E-02 0.12500000E+03</pdfrwt>
<totfact> 0.69602263E+06</totfact>
</mgrwt>
</event>
<event>
 3    1  0.1619206E-001  0.1250000E+03  0.7546771E-02  0.1235069E+00
         21   -1    0    0  502  501  0.00000000000E+00  0.00000000000E+00  0.48590067667E+01  0.48590067667E+01  0.00000000000E+00 0. -1.
         21   -1    0    0  501  502 -0.00000000000E+00 -0.00000000000E+00 -0.80391944024E+03  0.80391944024E+03  0.00000000000E+00 0. -1.
         25    1    1    2    0    0  0.00000000000E+00  0.00000000000E+00 -0.79906043348E+03  0.80877844701E+03  0.12500000000E+03 0.  0.
<mgrwt>
<rscale>  0 0.12500000E+03</rscale>
<asrwt>0</asrwt>
<pdfrwt beam="1">  1       21 0.74753994E-03 0.12500000E+03</pdfrwt>
<pdfrwt beam="2">  1       21 0.12367984E+00 0.12500000E+03</pdfrwt>
<totfact> 0.29074034E+06</totfact>
</mgrwt>
</event>
<event>
 3    1  0.1619206E-001  0.1250000E+03  0.7546771E-02  0.1235069E+00
         21   -1    0    0  502  501  0.00000000000E+00  0.00000000000E+00  0.11147858989E+03  0.11147858989E+03  0.00000000000E+00 0. -1.
         21   -1    0    0  501  502 -0.00000000000E+00 -0.00000000000E+00 -0.35040360699E+02  0.35040360699E+02  0.00000000000E+00 0. -1.
         25    1    1    2    0    0  0.00000000000E+00  0.00000000000E+00  0.76438229193E+02  0.14651895059E+03  0.12500000000E+03 0.  0.
<mgrwt>
<rscale>  0 0.12500000E+03</rscale>
<asrwt>0</asrwt>
<pdfrwt beam="1">  1       21 0.17150552E-01 0.12500000E+03</pdfrwt>
<pdfrwt beam="2">  1       21 0.53908248E-02 0.12500000E+03</pdfrwt>
<totfact> 0.71199274E+06</totfact>
</mgrwt>
</event>
<event>
 3    1  0.1619206E-001  0.1250000E+03  0.7546771E-02  0.1235069E+00
         21   -1    0    0  502  501  0.00000000000E+00  0.00000000000E+00  0.27824792088E+02  0.27824792088E+02  0.00000000000E+00 0.  1.
         21   -1    0    0  501  502 -0.00000000000E+00 -0.00000000000E+00 -0.14038739221E+03  0.14038739221E+03  0.00000000000E+00 0.  1.
         25    1    1    2    0    0  0.00000000000E+00  0.00000000000E+00 -0.11256260012E+03  0.16821218430E+03  0.12500000000E+03 0.  0.
<mgrwt>
<rscale>  0 0.12500000E+03</rscale>
<asrwt>0</asrwt>
<pdfrwt beam="1">  1       21 0.42807371E-02 0.12500000E+03</pdfrwt>
<pdfrwt beam="2">  1       21 0.21598061E-01 0.12500000E+03</pdfrwt>
<totfact> 0.68529717E+06</totfact>
</mgrwt>
</event>
<event>
 3    1  0.1619206E-001  0.1250000E+03  0.7546771E-02  0.1235069E+00
         21   -1    0    0  502  501  0.00000000000E+00  0.00000000000E+00  0.36490148823E+02  0.36490148823E+02  0.00000000000E+00 0. -1.
         21   -1    0    0  501  502 -0.00000000000E+00 -0.00000000000E+00 -0.10704944008E+03  0.10704944008E+03  0.00000000000E+00 0. -1.
         25    1    1    2    0    0  0.00000000000E+00  0.00000000000E+00 -0.70559291258E+02  0.14353958890E+03  0.12500000000E+03 0.  0.
<mgrwt>
<rscale>  0 0.12500000E+03</rscale>
<asrwt>0</asrwt>
<pdfrwt beam="1">  1       21 0.56138691E-02 0.12500000E+03</pdfrwt>
<pdfrwt beam="2">  1       21 0.16469145E-01 0.12500000E+03</pdfrwt>
<totfact> 0.71580523E+06</totfact>
</mgrwt>
</event>
<event>
 3    1  0.1619206E-001  0.1250000E+03  0.7546771E-02  0.1235069E+00
         21   -1    0    0  502  501  0.00000000000E+00  0.00000000000E+00  0.15132616252E+02  0.15132616252E+02  0.00000000000E+00 0.  1.
         21   -1    0    0  501  502 -0.00000000000E+00 -0.00000000000E+00 -0.25813447820E+03  0.25813447820E+03  0.00000000000E+00 0.  1.
         25    1    1    2    0    0  0.00000000000E+00  0.00000000000E+00 -0.24300186195E+03  0.27326709446E+03  0.12500000000E+03 0.  0.
<mgrwt>
<rscale>  0 0.12500000E+03</rscale>
<asrwt>0</asrwt>
<pdfrwt beam="1">  1       21 0.23280951E-02 0.12500000E+03</pdfrwt>
<pdfrwt beam="2">  1       21 0.39712992E-01 0.12500000E+03</pdfrwt>
<totfact> 0.57753621E+06</totfact>
</mgrwt>
</event>
<event>
 3    1  0.1619206E-001  0.1250000E+03  0.7546771E-02  0.1235069E+00
         21   -1    0    0  502  501  0.00000000000E+00  0.00000000000E+00  0.53339187275E+02  0.53339187275E+02  0.00000000000E+00 0.  1.
         21   -1    0    0  501  502 -0.00000000000E+00 -0.00000000000E+00 -0.73234149216E+02  0.73234149216E+02  0.00000000000E+00 0.  1.
         25    1    1    2    0    0  0.00000000000E+00  0.00000000000E+00 -0.19894961941E+02  0.12657333649E+03  0.12500000000E+03 0.  0.
<mgrwt>
<rscale>  0 0.12500000E+03</rscale>
<asrwt>0</asrwt>
<pdfrwt beam="1">  1       21 0.82060289E-02 0.12500000E+03</pdfrwt>
<pdfrwt beam="2">  1       21 0.11266792E-01 0.12500000E+03</pdfrwt>
<totfact> 0.73827341E+06</totfact>
</mgrwt>
</event>
<event>
 3    1  0.1619206E-001  0.1250000E+03  0.7546771E-02  0.1235069E+00
         21   -1    0    0  502  501  0.00000000000E+00  0.00000000000E+00  0.27489060052E+02  0.27489060052E+02  0.00000000000E+00 0.  1.
         21   -1    0    0  501  502 -0.00000000000E+00 -0.00000000000E+00 -0.14210198503E+03  0.14210198503E+03  0.00000000000E+00 0.  1.
         25    1    1    2    0    0  0.00000000000E+00  0.00000000000E+00 -0.11461292498E+03  0.16959104508E+03  0.12500000000E+03 0.  0.
<mgrwt>
<rscale>  0 0.12500000E+03</rscale>
<asrwt>0</asrwt>
<pdfrwt beam="1">  1       21 0.42290861E-02 0.12500000E+03</pdfrwt>
<pdfrwt beam="2">  1       21 0.21861844E-01 0.12500000E+03</pdfrwt>
<totfact> 0.68366147E+06</totfact>
</mgrwt>
</event>
<event>
 3    1  0.1619206E-001  0.1250000E+03  0.7546771E-02  0.1235069E+00
         21   -1    0    0  502  501  0.00000000000E+00  0.00000000000E+00  0.20633773573E+03  0.20633773573E+03  0.00000000000E+00 0. -1.
         21   -1    0    0  501  502 -0.00000000000E+00 -0.00000000000E+00 -0.18931340824E+02  0.18931340824E+02  0.00000000000E+00 0. -1.
         25    1    1    2    0    0  0.00000000000E+00  0.00000000000E+00  0.18740639491E+03  0.22526907656E+03  0.12500000000E+03 0.  0.
<mgrwt>
<rscale>  0 0.12500000E+03</rscale>
<asrwt>0</asrwt>
<pdfrwt beam="1">  1       21 0.31744266E-01 0.12500000E+03</pdfrwt>
<pdfrwt beam="2">  1       21 0.29125141E-02 0.12500000E+03</pdfrwt>
<totfact> 0.62287963E+06</totfact>
</mgrwt>
</event>
<event>
 3    1  0.1619206E-001  0.1250000E+03  0.7546771E-02  0.1235069E+00
         21   -1    0    0  502  501  0.00000000000E+00  0.00000000000E+00  0.87381080727E+01  0.87381080727E+01  0.00000000000E+00 0.  1.
         21   -1    0    0  501  502 -0.00000000000E+00 -0.00000000000E+00 -0.44703612813E+03  0.44703612813E+03  0.00000000000E+00 0.  1.
         25    1    1    2    0    0  0.00000000000E+00  0.00000000000E+00 -0.43829802006E+03  0.45577423620E+03  0.12500000000E+03 0.  0.
<mgrwt>
<rscale>  0 0.12500000E+03</rscale>
<asrwt>0</asrwt>
<pdfrwt beam="1">  1       21 0.13443243E-02 0.12500000E+03</pdfrwt>
<pdfrwt beam="2">  1       21 0.68774790E-01 0.12500000E+03</pdfrwt>
<totfact> 0.44548755E+06</totfact>
</mgrwt>
</event>
<event>
 3    1  0.1619206E-001  0.1250000E+03  0.7546771E-02  0.1235069E+00
         21   -1    0    0  502  501  0.00000000000E+00  0.00000000000E+00  0.13536647824E+02  0.13536647824E+02  0.00000000000E+00 0.  1.
         21   -1    0    0  501  502 -0.00000000000E+00 -0.00000000000E+00 -0.28856848836E+03  0.28856848836E+03  0.00000000000E+00 0.  1.
         25    1    1    2    0    0  0.00000000000E+00  0.00000000000E+00 -0.27503184054E+03  0.30210513618E+03  0.12500000000E+03 0.  0.
<mgrwt>
<rscale>  0 0.12500000E+03</rscale>
<asrwt>0</asrwt>
<pdfrwt beam="1">  1       21 0.20825615E-02 0.12500000E+03</pdfrwt>
<pdfrwt beam="2">  1       21 0.44395145E-01 0.12500000E+03</pdfrwt>
<totfact> 0.55281684E+06</totfact>
</mgrwt>
</event>
<event>
 3    1  0.1619206E-001  0.1250000E+03  0.7546771E-02  0.1235069E+00
         21   -1    0    0  502  501  0.00000000000E+00  0.00000000000E+00  0.11351103083E+02  0.11351103083E+02  0.00000000000E+00 0. -1.
         21   -1    0    0  501  502 -0.00000000000E+00 -0.00000000000E+00 -0.34412955035E+03  0.34412955035E+03  0.00000000000E+00 0. -1.
         25    1    1    2    0    0  0.00000000000E+00  0.00000000000E+00 -0.33277844726E+03  0.35548065343E+03  0.12500000000E+03 0.  0.
<mgrwt>
<rscale>  0 0.12500000E+03</rscale>
<asrwt>0</asrwt>
<pdfrwt beam="1">  1       21 0.17463239E-02 0.12500000E+03</pdfrwt>
<pdfrwt beam="2">  1       21 0.52942996E-01 0.12500000E+03</pdfrwt>
<totfact> 0.51136206E+06</totfact>
</mgrwt>
</event>
<event>
 3    1  0.1619206E-001  0.1250000E+03  0.7546771E-02  0.1235069E+00
         21   -1    0    0  502  501  0.00000000000E+00  0.00000000000E+00  0.45619029657E+02  0.45619029657E+02  0.00000000000E+00 0.  1.
         21   -1    0    0  501  502 -0.00000000000E+00 -0.00000000000E+00 -0.85627643318E+02  0.85627643318E+02  0.00000000000E+00 0.  1.
         25    1    1    2    0    0  0.00000000000E+00  0.00000000000E+00 -0.40008613660E+02  0.13124667298E+03  0.12500000000E+03 0.  0.
<mgrwt>
<rscale>  0 0.12500000E+03</rscale>
<asrwt>0</asrwt>
<pdfrwt beam="1">  1       21 0.70183122E-02 0.12500000E+03</pdfrwt>
<pdfrwt beam="2">  1       21 0.13173484E-01 0.12500000E+03</pdfrwt>
<totfact> 0.73197449E+06</totfact>
</mgrwt>
</event>
<event>
 3    1  0.1619206E-001  0.1250000E+03  0.7546771E-02  0.1235069E+00
         21   -1    0    0  502  501  0.00000000000E+00  0.00000000000E+00  0.11088272969E+03  0.11088272969E+03  0.00000000000E+00 0. -1.
         21   -1    0    0  501  502 -0.00000000000E+00 -0.00000000000E+00 -0.35228660143E+02  0.35228660143E+02  0.00000000000E+00 0. -1.
         25    1    1    2    0    0  0.00000000000E+00  0.00000000000E+00  0.75654069546E+02  0.14611138983E+03  0.12500000000E+03 0.  0.
<mgrwt>
<rscale>  0 0.12500000E+03</rscale>
<asrwt>0</asrwt>
<pdfrwt beam="1">  1       21 0.17058881E-01 0.12500000E+03</pdfrwt>
<pdfrwt beam="2">  1       21 0.54197939E-02 0.12500000E+03</pdfrwt>
<totfact> 0.71251171E+06</totfact>
</mgrwt>
</event>
<event>
 3    1  0.1619206E-001  0.1250000E+03  0.7546771E-02  0.1235069E+00
         21   -1    0    0  502  501  0.00000000000E+00  0.00000000000E+00  0.31574464557E+03  0.31574464557E+03  0.00000000000E+00 0. -1.
         21   -1    0    0  501  502 -0.00000000000E+00 -0.00000000000E+00 -0.12371547878E+02  0.12371547878E+02  0.00000000000E+00 0. -1.
         25    1    1    2    0    0  0.00000000000E+00  0.00000000000E+00  0.30337309769E+03  0.32811619345E+03  0.12500000000E+03 0.  0.
<mgrwt>
<rscale>  0 0.12500000E+03</rscale>
<asrwt>0</asrwt>
<pdfrwt beam="1">  1       21 0.48576093E-01 0.12500000E+03</pdfrwt>
<pdfrwt beam="2">  1       21 0.19033153E-02 0.12500000E+03</pdfrwt>
<totfact> 0.53196381E+06</totfact>
</mgrwt>
</event>
<event>
 3    1  0.1619206E-001  0.1250000E+03  0.7546771E-02  0.1235069E+00
         21   -1    0    0  502  501  0.00000000000E+00  0.00000000000E+00  0.61728257781E+02  0.61728257781E+02  0.00000000000E+00 0. -1.
         21   -1    0    0  501  502 -0.00000000000E+00 -0.00000000000E+00 -0.63281390735E+02  0.63281390735E+02  0.00000000000E+00 0. -1.
         25    1    1    2    0    0  0.00000000000E+00  0.00000000000E+00 -0.15531329543E+01  0.12500964852E+03  0.12500000000E+03 0.  0.
<mgrwt>
<rscale>  0 0.12500000E+03</rscale>
<asrwt>0</asrwt>
<pdfrwt beam="1">  1       21 0.94966550E-02 0.12500000E+03</pdfrwt>
<pdfrwt beam="2">  1       21 0.97355986E-02 0.12500000E+03</pdfrwt>
<totfact> 0.74042278E+06</totfact>
</mgrwt>
</event>
<event>
 3    1  0.1619206E-001  0.1250000E+03  0.7546771E-02  0.1235069E+00
         21   -1    0    0  502  501  0.00000000000E+00  0.00000000000E+00  0.64189405307E+02  0.64189405307E+02  0.00000000000E+00 0. -1.
         21   -1    0    0  501  502 -0.00000000000E+00 -0.00000000000E+00 -0.60855058265E+02  0.60855058265E+02  0.00000000000E+00 0. -1.
         25    1    1    2    0    0  0.00000000000E+00  0.00000000000E+00  0.33343470421E+01  0.12504446357E+03  0.12500000000E+03 0.  0.
<mgrwt>
<rscale>  0 0.12500000E+03</rscale>
<asrwt>0</asrwt>
<pdfrwt beam="1">  1       21 0.98752932E-02 0.12500000E+03</pdfrwt>
<pdfrwt beam="2">  1       21 0.93623166E-02 0.12500000E+03</pdfrwt>
<totfact> 0.74037576E+06</totfact>
</mgrwt>
</event>
<event>
 3    1  0.1619206E-001  0.1250000E+03  0.7546771E-02  0.1235069E+00
         21   -1    0    0  502  501  0.00000000000E+00  0.00000000000E+00  0.64427321076E+03  0.64427321076E+03  0.00000000000E+00 0.  1.
         21   -1    0    0  501  502 -0.00000000000E+00 -0.00000000000E+00 -0.60630334069E+01  0.60630334069E+01  0.00000000000E+00 0.  1.
         25    1    1    2    0    0  0.00000000000E+00  0.00000000000E+00  0.63821017735E+03  0.65033624416E+03  0.12500000000E+03 0.  0.
<mgrwt>
<rscale>  0 0.12500000E+03</rscale>
<asrwt>0</asrwt>
<pdfrwt beam="1">  1       21 0.99118901E-01 0.12500000E+03</pdfrwt>
<pdfrwt beam="2">  1       21 0.93277488E-03 0.12500000E+03</pdfrwt>
<totfact> 0.34910566E+06</totfact>
</mgrwt>
</event>
<event>
 3    1  0.1619206E-001  0.1250000E+03  0.7546771E-02  0.1235069E+00
         21   -1    0    0  502  501  0.00000000000E+00  0.00000000000E+00  0.33587180567E+02  0.33587180567E+02  0.00000000000E+00 0. -1.
         21   -1    0    0  501  502 -0.00000000000E+00 -0.00000000000E+00 -0.11630181319E+03  0.11630181319E+03  0.00000000000E+00 0. -1.
         25    1    1    2    0    0  0.00000000000E+00  0.00000000000E+00 -0.82714632626E+02  0.14988899376E+03  0.12500000000E+03 0.  0.
<mgrwt>
<rscale>  0 0.12500000E+03</rscale>
<asrwt>0</asrwt>
<pdfrwt beam="1">  1       21 0.51672585E-02 0.12500000E+03</pdfrwt>
<pdfrwt beam="2">  1       21 0.17892587E-01 0.12500000E+03</pdfrwt>
<totfact> 0.70773148E+06</totfact>
</mgrwt>
</event>
<event>
 3    1  0.1619206E-001  0.1250000E+03  0.7546771E-02  0.1235069E+00
         21   -1    0    0  502  501  0.00000000000E+00  0.00000000000E+00  0.20448457148E+03  0.20448457148E+03  0.00000000000E+00 0. -1.
         21   -1    0    0  501  502 -0.00000000000E+00 -0.00000000000E+00 -0.19102908213E+02  0.19102908213E+02  0.00000000000E+00 0. -1.
         25    1    1    2    0    0  0.00000000000E+00  0.00000000000E+00  0.18538166327E+03  0.22358747969E+03  0.12500000000E+03 0.  0.
<mgrwt>
<rscale>  0 0.12500000E+03</rscale>
<asrwt>0</asrwt>
<pdfrwt beam="1">  1       21 0.31459163E-01 0.12500000E+03</pdfrwt>
<pdfrwt beam="2">  1       21 0.29389091E-02 0.12500000E+03</pdfrwt>
<totfact> 0.62457719E+06</totfact>
</mgrwt>
</event>
<event>
 3    1  0.1619206E-001  0.1250000E+03  0.7546771E-02  0.1235069E+00
         21   -1    0    0  502  501  0.00000000000E+00  0.00000000000E+00  0.18516929147E+03  0.18516929147E+03  0.00000000000E+00 0.  1.
         21   -1    0    0  501  502 -0.00000000000E+00 -0.00000000000E+00 -0.21095560549E+02  0.21095560549E+02  0.00000000000E+00 0.  1.
         25    1    1    2    0    0  0.00000000000E+00  0.00000000000E+00  0.16407373092E+03  0.20626485202E+03  0.12500000000E+03 0.  0.
<mgrwt>
<rscale>  0 0.12500000E+03</rscale>
<asrwt>0</asrwt>
<pdfrwt beam="1">  1       21 0.28487582E-01 0.12500000E+03</pdfrwt>
<pdfrwt beam="2">  1       21 0.32454710E-02 0.12500000E+03</pdfrwt>
<totfact> 0.64254672E+06</totfact>
</mgrwt>
</event>
<event>
 3    1  0.1619206E-001  0.1250000E+03  0.7546771E-02  0.1235069E+00
         21   -1    0    0  502  501  0.00000000000E+00  0.00000000000E+00  0.77985027632E+02  0.77985027632E+02  0.00000000000E+00 0.  1.
         21   -1    0    0  501  502 -0.00000000000E+00 -0.00000000000E+00 -0.50089743103E+02  0.50089743103E+02  0.00000000000E+00 0.  1.
         25    1    1    2    0    0  0.00000000000E+00  0.00000000000E+00  0.27895284528E+02  0.12807477074E+03  0.12500000000E+03 0.  0.
<mgrwt>
<rscale>  0 0.12500000E+03</rscale>
<asrwt>0</asrwt>
<pdfrwt beam="1">  1       21 0.11997697E-01 0.12500000E+03</pdfrwt>
<pdfrwt beam="2">  1       21 0.77061143E-02 0.12500000E+03</pdfrwt>
<totfact> 0.73623461E+06</totfact>
</mgrwt>
</event>
<event>
 3    1  0.1619206E-001  0.1250000E+03  0.7546771E-02  0.1235069E+00
         21   -1    0    0  502  501  0.00000000000E+00  0.00000000000E+00  0.19049774710E+02  0.19049774710E+02  0.00000000000E+00 0. -1.
         21   -1    0    0  501  502 -0.00000000000E+00 -0.00000000000E+00 -0.20505491847E+03  0.20505491847E+03  0.00000000000E+00 0. -1.
         25    1    1    2    0    0  0.00000000000E+00  0.00000000000E+00 -0.18600514376E+03  0.22410469318E+03  0.12500000000E+03 0.  0.
<mgrwt>
<rscale>  0 0.12500000E+03</rscale>
<asrwt>0</asrwt>
<pdfrwt beam="1">  1       21 0.29307346E-02 0.12500000E+03</pdfrwt>
<pdfrwt beam="2">  1       21 0.31546910E-01 0.12500000E+03</pdfrwt>
<totfact> 0.62405428E+06</totfact>
</mgrwt>
</event>
<event>
 3    1  0.1619206E-001  0.1250000E+03  0.7546771E-02  0.1235069E+00
         21   -1    0    0  502  501  0.00000000000E+00  0.00000000000E+00  0.71717635213E+03  0.71717635213E+03  0.00000000000E+00 0.  1.
         21   -1    0    0  501  502 -0.00000000000E+00 -0.00000000000E+00 -0.54467077566E+01  0.54467077566E+01  0.00000000000E+00 0.  1.
         25    1    1    2    0    0  0.00000000000E+00  0.00000000000E+00  0.71172964438E+03  0.72262305989E+03  0.12500000000E+03 0.  0.
<mgrwt>
<rscale>  0 0.12500000E+03</rscale>
<asrwt>0</asrwt>
<pdfrwt beam="1">  1       21 0.11033475E+00 0.12500000E+03</pdfrwt>
<pdfrwt beam="2">  1       21 0.83795560E-03 0.12500000E+03</pdfrwt>
<totfact> 0.32056004E+06</totfact>
</mgrwt>
</event>
<event>
 3    1  0.1619206E-001  0.1250000E+03  0.7546771E-02  0.1235069E+00
         21   -1    0    0  502  501  0.00000000000E+00  0.00000000000E+00  0.71200779067E+02  0.71200779067E+02  0.00000000000E+00 0.  1.
         21   -1    0    0  501  502 -0.00000000000E+00 -0.00000000000E+00 -0.54862461496E+02  0.54862461496E+02  0.00000000000E+00 0.  1.
         25    1    1    2    0    0  0.00000000000E+00  0.00000000000E+00  0.16338317571E+02  0.12606324056E+03  0.12500000000E+03 0.  0.
<mgrwt>
<rscale>  0 0.12500000E+03</rscale>
<asrwt>0</asrwt>
<pdfrwt beam="1">  1       21 0.10953966E-01 0.12500000E+03</pdfrwt>
<pdfrwt beam="2">  1       21 0.84403787E-02 0.12500000E+03</pdfrwt>
<totfact> 0.73897324E+06</totfact>
</mgrwt>
</event>
<event>
 3    1  0.1619206E-001  0.1250000E+03  0.7546771E-02  0.1235069E+00
         21   -1    0    0  502  501  0.00000000000E+00  0.00000000000E+00  0.94859962816E+02  0.94859962816E+02  0.00000000000E+00 0. -1.
         21   -1    0    0  501  502 -0.00000000000E+00 -0.00000000000E+00 -0.41179122193E+02  0.41179122193E+02  0.00000000000E+00 0. -1.
         25    1    1    2    0    0  0.00000000000E+00  0.00000000000E+00  0.53680840623E+02  0.13603908501E+03  0.12500000000E+03 0.  0.
<mgrwt>
<rscale>  0 0.12500000E+03</rscale>
<asrwt>0</asrwt>
<pdfrwt beam="1">  1       21 0.14593840E-01 0.12500000E+03</pdfrwt>
<pdfrwt beam="2">  1       21 0.63352496E-02 0.12500000E+03</pdfrwt>
<totfact> 0.72559181E+06</totfact>
</mgrwt>
</event>
<event>
 3    1  0.1619206E-001  0.1250000E+03  0.7546771E-02  0.1235069E+00
         21   -1    0    0  502  501  0.00000000000E+00  0.00000000000E+00  0.85404267712E+01  0.85404267712E+01  0.00000000000E+00 0.  1.
         21   -1    0    0  501  502 -0.00000000000E+00 -0.00000000000E+00 -0.45738346626E+03  0.45738346626E+03  0.00000000000E+00 0.  1.
         25    1    1    2    0    0  0.00000000000E+00  0.00000000000E+00 -0.44884303949E+03  0.46592389303E+03  0.12500000000E+03 0.  0.
<mgrwt>
<rscale>  0 0.12500000E+03</rscale>
<asrwt>0</asrwt>
<pdfrwt beam="1">  1       21 0.13139114E-02 0.12500000E+03</pdfrwt>
<pdfrwt beam="2">  1       21 0.70366710E-01 0.12500000E+03</pdfrwt>
<totfact> 0.43954492E+06</totfact>
</mgrwt>
</event>
<event>
 3    1  0.1619206E-001  0.1250000E+03  0.7546771E-02  0.1235069E+00
         21   -1    0    0  502  501  0.00000000000E+00  0.00000000000E+00  0.23965983517E+01  0.23965983517E+01  0.00000000000E+00 0. -1.
         21   -1    0    0  501  502 -0.00000000000E+00 -0.00000000000E+00 -0.16299143314E+04  0.16299143314E+04  0.00000000000E+00 0. -1.
         25    1    1    2    0    0  0.00000000000E+00  0.00000000000E+00 -0.16275177331E+04  0.16323109298E+04  0.12500000000E+03 0.  0.
<mgrwt>
<rscale>  0 0.12500000E+03</rscale>
<asrwt>0</asrwt>
<pdfrwt beam="1">  1       21 0.36870730E-03 0.12500000E+03</pdfrwt>
<pdfrwt beam="2">  1       21 0.25075615E+00 0.12500000E+03</pdfrwt>
<totfact> 0.12140279E+06</totfact>
</mgrwt>
</event>
<event>
 3    1  0.1619206E-001  0.1250000E+03  0.7546771E-02  0.1235069E+00
         21   -1    0    0  502  501  0.00000000000E+00  0.00000000000E+00  0.19990242354E+01  0.19990242354E+01  0.00000000000E+00 0.  1.
         21   -1    0    0  501  502 -0.00000000000E+00 -0.00000000000E+00 -0.19540783603E+04  0.19540783603E+04  0.00000000000E+00 0.  1.
         25    1    1    2    0    0  0.00000000000E+00  0.00000000000E+00 -0.19520793360E+04  0.19560773845E+04  0.12500000000E+03 0.  0.
<mgrwt>
<rscale>  0 0.12500000E+03</rscale>
<asrwt>0</asrwt>
<pdfrwt beam="1">  1       21 0.30754232E-03 0.12500000E+03</pdfrwt>
<pdfrwt beam="2">  1       21 0.30062731E+00 0.12500000E+03</pdfrwt>
<totfact> 0.83843245E+05</totfact>
</mgrwt>
</event>
<event>
 3    1  0.1619206E-001  0.1250000E+03  0.7546771E-02  0.1235069E+00
         21   -1    0    0  502  501  0.00000000000E+00  0.00000000000E+00  0.11381649282E+03  0.11381649282E+03  0.00000000000E+00 0. -1.
         21   -1    0    0  501  502 -0.00000000000E+00 -0.00000000000E+00 -0.34320597158E+02  0.34320597158E+02  0.00000000000E+00 0. -1.
         25    1    1    2    0    0  0.00000000000E+00  0.00000000000E+00  0.79495895660E+02  0.14813708998E+03  0.12500000000E+03 0.  0.
<mgrwt>
<rscale>  0 0.12500000E+03</rscale>
<asrwt>0</asrwt>
<pdfrwt beam="1">  1       21 0.17510230E-01 0.12500000E+03</pdfrwt>
<pdfrwt beam="2">  1       21 0.52800919E-02 0.12500000E+03</pdfrwt>
<totfact> 0.70994008E+06</totfact>
</mgrwt>
</event>
<event>
 3    1  0.1619206E-001  0.1250000E+03  0.7546771E-02  0.1235069E+00
         21   -1    0    0  502  501  0.00000000000E+00  0.00000000000E+00  0.92688576238E+02  0.92688576238E+02  0.00000000000E+00 0.  1.
         21   -1    0    0  501  502 -0.00000000000E+00 -0.00000000000E+00 -0.42143812739E+02  0.42143812739E+02  0.00000000000E+00 0.  1.
         25    1    1    2    0    0  0.00000000000E+00  0.00000000000E+00  0.50544763499E+02  0.13483238898E+03  0.12500000000E+03 0.  0.
<mgrwt>
<rscale>  0 0.12500000E+03</rscale>
<asrwt>0</asrwt>
<pdfrwt beam="1">  1       21 0.14259781E-01 0.12500000E+03</pdfrwt>
<pdfrwt beam="2">  1       21 0.64836635E-02 0.12500000E+03</pdfrwt>
<totfact> 0.72718672E+06</totfact>
</mgrwt>
</event>
<event>
 3    1  0.1619206E-001  0.1250000E+03  0.7546771E-02  0.1235069E+00
         21   -1    0    0  502  501  0.00000000000E+00  0.00000000000E+00  0.80627166732E+01  0.80627166732E+01  0.00000000000E+00 0. -1.
         21   -1    0    0  501  502 -0.00000000000E+00 -0.00000000000E+00 -0.48448310394E+03  0.48448310394E+03  0.00000000000E+00 0. -1.
         25    1    1    2    0    0  0.00000000000E+00  0.00000000000E+00 -0.47642038726E+03  0.49254582061E+03  0.12500000000E+03 0.  0.
<mgrwt>
<rscale>  0 0.12500000E+03</rscale>
<asrwt>0</asrwt>
<pdfrwt beam="1">  1       21 0.12404180E-02 0.12500000E+03</pdfrwt>
<pdfrwt beam="2">  1       21 0.74535857E-01 0.12500000E+03</pdfrwt>
<totfact> 0.42451236E+06</totfact>
</mgrwt>
</event>
<event>
 3    1  0.1619206E-001  0.1250000E+03  0.7546771E-02  0.1235069E+00
         21   -1    0    0  502  501  0.00000000000E+00  0.00000000000E+00  0.28918055368E+03  0.28918055368E+03  0.00000000000E+00 0. -1.
         21   -1    0    0  501  502 -0.00000000000E+00 -0.00000000000E+00 -0.13507996822E+02  0.13507996822E+02  0.00000000000E+00 0. -1.
         25    1    1    2    0    0  0.00000000000E+00  0.00000000000E+00  0.27567255686E+03  0.30268855050E+03  0.12500000000E+03 0.  0.
<mgrwt>
<rscale>  0 0.12500000E+03</rscale>
<asrwt>0</asrwt>
<pdfrwt beam="1">  1       21 0.44489311E-01 0.12500000E+03</pdfrwt>
<pdfrwt beam="2">  1       21 0.20781536E-02 0.12500000E+03</pdfrwt>
<totfact> 0.55233484E+06</totfact>
</mgrwt>
</event>
<event>
 3    1  0.1619206E-001  0.1250000E+03  0.7546771E-02  0.1235069E+00
         21   -1    0    0  502  501  0.00000000000E+00  0.00000000000E+00  0.57326856634E+02  0.57326856634E+02  0.00000000000E+00 0.  1.
         21   -1    0    0  501  502 -0.00000000000E+00 -0.00000000000E+00 -0.68139964919E+02  0.68139964919E+02  0.00000000000E+00 0.  1.
         25    1    1    2    0    0  0.00000000000E+00  0.00000000000E+00 -0.10813108285E+02  0.12546682155E+03  0.12500000000E+03 0.  0.
<mgrwt>
<rscale>  0 0.12500000E+03</rscale>
<asrwt>0</asrwt>
<pdfrwt beam="1">  1       21 0.88195164E-02 0.12500000E+03</pdfrwt>
<pdfrwt beam="2">  1       21 0.10483072E-01 0.12500000E+03</pdfrwt>
<totfact> 0.73980039E+06</totfact>
</mgrwt>
</event>
<event>
 3    1  0.1619206E-001  0.1250000E+03  0.7546771E-02  0.1235069E+00
         21   -1    0    0  502  501  0.00000000000E+00  0.00000000000E+00  0.10804112531E+03  0.10804112531E+03  0.00000000000E+00 0. -1.
         21   -1    0    0  501  502 -0.00000000000E+00 -0.00000000000E+00 -0.36155213942E+02  0.36155213942E+02  0.00000000000E+00 0. -1.
         25    1    1    2    0    0  0.00000000000E+00  0.00000000000E+00  0.71885911363E+02  0.14419633925E+03  0.12500000000E+03 0.  0.
<mgrwt>
<rscale>  0 0.12500000E+03</rscale>
<asrwt>0</asrwt>
<pdfrwt beam="1">  1       21 0.16621711E-01 0.12500000E+03</pdfrwt>
<pdfrwt beam="2">  1       21 0.55623407E-02 0.12500000E+03</pdfrwt>
<totfact> 0.71496107E+06</totfact>
</mgrwt>
</event>
<event>
 3    1  0.1619206E-001  0.1250000E+03  0.7546771E-02  0.1235069E+00
         21   -1    0    0  502  501  0.00000000000E+00  0.00000000000E+00  0.63619312813E+01  0.63619312813E+01  0.00000000000E+00 0. -1.
         21   -1    0    0  501  502 -0.00000000000E+00 -0.00000000000E+00 -0.61400380282E+03  0.61400380282E+03  0.00000000000E+00 0. -1.
         25    1    1    2    0    0  0.00000000000E+00  0.00000000000E+00 -0.60764187154E+03  0.62036573410E+03  0.12500000000E+03 0.  0.
<mgrwt>
<rscale>  0 0.12500000E+03</rscale>
<asrwt>0</asrwt>
<pdfrwt beam="1">  1       21 0.97875890E-03 0.12500000E+03</pdfrwt>
<pdfrwt beam="2">  1       21 0.94462100E-01 0.12500000E+03</pdfrwt>
<totfact> 0.36187524E+06</totfact>
</mgrwt>
</event>
<event>
 3    1  0.1619206E-001  0.1250000E+03  0.7546771E-02  0.1235069E+00
         21   -1    0    0  502  501  0.00000000000E+00  0.00000000000E+00  0.13106733171E+02  0.13106733171E+02  0.00000000000E+00 0. -1.
         21   -1    0    0  501  502 -0.00000000000E+00 -0.00000000000E+00 -0.29803383873E+03  0.29803383873E+03  0.00000000000E+00 0. -1.
         25    1    1    2    0    0  0.00000000000E+00  0.00000000000E+00 -0.28492710556E+03  0.31114057190E+03  0.12500000000E+03 0.  0.
<mgrwt>
<rscale>  0 0.12500000E+03</rscale>
<asrwt>0</asrwt>
<pdfrwt beam="1">  1       21 0.20164206E-02 0.12500000E+03</pdfrwt>
<pdfrwt beam="2">  1       21 0.45851358E-01 0.12500000E+03</pdfrwt>
<totfact> 0.54542872E+06</totfact>
</mgrwt>
</event>
<event>
 3    1  0.1619206E-001  0.1250000E+03  0.7546771E-02  0.1235069E+00
         21   -1    0    0  502  501  0.00000000000E+00  0.00000000000E+00  0.31051444527E+03  0.31051444527E+03  0.00000000000E+00 0.  1.
         21   -1    0    0  501  502 -0.00000000000E+00 -0.00000000000E+00 -0.12579930047E+02  0.12579930047E+02  0.00000000000E+00 0.  1.
         25    1    1    2    0    0  0.00000000000E+00  0.00000000000E+00  0.29793451522E+03  0.32309437531E+03  0.12500000000E+03 0.  0.
<mgrwt>
<rscale>  0 0.12500000E+03</rscale>
<asrwt>0</asrwt>
<pdfrwt beam="1">  1       21 0.47771447E-01 0.12500000E+03</pdfrwt>
<pdfrwt beam="2">  1       21 0.19353741E-02 0.12500000E+03</pdfrwt>
<totfact> 0.53589039E+06</totfact>
</mgrwt>
</event>
<event>
 3    1  0.1619206E-001  0.1250000E+03  0.7546771E-02  0.1235069E+00
         21   -1    0    0  502  501  0.00000000000E+00  0.00000000000E+00  0.10073802491E+03  0.10073802491E+03  0.00000000000E+00 0. -1.
         21   -1    0    0  501  502 -0.00000000000E+00 -0.00000000000E+00 -0.38776321093E+02  0.38776321093E+02  0.00000000000E+00 0. -1.
         25    1    1    2    0    0  0.00000000000E+00  0.00000000000E+00  0.61961703814E+02  0.13951434600E+03  0.12500000000E+03 0.  0.
<mgrwt>
<rscale>  0 0.12500000E+03</rscale>
<asrwt>0</asrwt>
<pdfrwt beam="1">  1       21 0.15498158E-01 0.12500000E+03</pdfrwt>
<pdfrwt beam="2">  1       21 0.59655879E-02 0.12500000E+03</pdfrwt>
<totfact> 0.72102773E+06</totfact>
</mgrwt>
</event>
<event>
 3    1  0.1619206E-001  0.1250000E+03  0.7546771E-02  0.1235069E+00
         21   -1    0    0  502  501  0.00000000000E+00  0.00000000000E+00  0.50561332734E+03  0.50561332734E+03  0.00000000000E+00 0.  1.
         21   -1    0    0  501  502 -0.00000000000E+00 -0.00000000000E+00 -0.77257654987E+01  0.77257654987E+01  0.00000000000E+00 0.  1.
         25    1    1    2    0    0  0.00000000000E+00  0.00000000000E+00  0.49788756184E+03  0.51333909283E+03  0.12500000000E+03 0.  0.
<mgrwt>
<rscale>  0 0.12500000E+03</rscale>
<asrwt>0</asrwt>
<pdfrwt beam="1">  1       21 0.77786639E-01 0.12500000E+03</pdfrwt>
<pdfrwt beam="2">  1       21 0.11885797E-02 0.12500000E+03</pdfrwt>
<totfact> 0.41329788E+06</totfact>
</mgrwt>
</event>
<event>
 3    1  0.1619206E-001  0.1250000E+03  0.7546771E-02  0.1235069E+00
         21   -1    0    0  502  501  0.00000000000E+00  0.00000000000E+00  0.41478774582E+02  0.41478774582E+02  0.00000000000E+00 0. -1.
         21   -1    0    0  501  502 -0.00000000000E+00 -0.00000000000E+00 -0.94174672211E+02  0.94174672211E+02  0.00000000000E+00 0. -1.
         25    1    1    2    0    0  0.00000000000E+00  0.00000000000E+00 -0.52695897629E+02  0.13565344679E+03  0.12500000000E+03 0.  0.
<mgrwt>
<rscale>  0 0.12500000E+03</rscale>
<asrwt>0</asrwt>
<pdfrwt beam="1">  1       21 0.63813500E-02 0.12500000E+03</pdfrwt>
<pdfrwt beam="2">  1       21 0.14488411E-01 0.12500000E+03</pdfrwt>
<totfact> 0.72610067E+06</totfact>
</mgrwt>
</event>
<event>
 3    1  0.1619206E-001  0.1250000E+03  0.7546771E-02  0.1235069E+00
         21   -1    0    0  502  501  0.00000000000E+00  0.00000000000E+00  0.40401563021E+02  0.40401563021E+02  0.00000000000E+00 0.  1.
         21   -1    0    0  501  502 -0.00000000000E+00 -0.00000000000E+00 -0.96685615800E+02  0.96685615800E+02  0.00000000000E+00 0.  1.
         25    1    1    2    0    0  0.00000000000E+00  0.00000000000E+00 -0.56284052778E+02  0.13708717882E+03  0.12500000000E+03 0.  0.
<mgrwt>
<rscale>  0 0.12500000E+03</rscale>
<asrwt>0</asrwt>
<pdfrwt beam="1">  1       21 0.62156251E-02 0.12500000E+03</pdfrwt>
<pdfrwt beam="2">  1       21 0.14874710E-01 0.12500000E+03</pdfrwt>
<totfact> 0.72421278E+06</totfact>
</mgrwt>
</event>
<event>
 3    1  0.1619206E-001  0.1250000E+03  0.7546771E-02  0.1235069E+00
         21   -1    0    0  502  501  0.00000000000E+00  0.00000000000E+00  0.20490569933E+03  0.20490569933E+03  0.00000000000E+00 0.  1.
         21   -1    0    0  501  502 -0.00000000000E+00 -0.00000000000E+00 -0.19063647389E+02  0.19063647389E+02  0.00000000000E+00 0.  1.
         25    1    1    2    0    0  0.00000000000E+00  0.00000000000E+00  0.18584205194E+03  0.22396934672E+03  0.12500000000E+03 0.  0.
<mgrwt>
<rscale>  0 0.12500000E+03</rscale>
<asrwt>0</asrwt>
<pdfrwt beam="1">  1       21 0.31523952E-01 0.12500000E+03</pdfrwt>
<pdfrwt beam="2">  1       21 0.29328690E-02 0.12500000E+03</pdfrwt>
<totfact> 0.62419105E+06</totfact>
</mgrwt>
</event>
<event>
 3    1  0.1619206E-001  0.1250000E+03  0.7546771E-02  0.1235069E+00
         21   -1    0    0  502  501  0.00000000000E+00  0.00000000000E+00  0.25344595055E+01  0.25344595055E+01  0.00000000000E+00 0.  1.
         21   -1    0    0  501  502 -0.00000000000E+00 -0.00000000000E+00 -0.15412556371E+04  0.15412556371E+04  0.00000000000E+00 0.  1.
         25    1    1    2    0    0  0.00000000000E+00  0.00000000000E+00 -0.15387211776E+04  0.15437900966E+04  0.12500000000E+03 0.  0.
<mgrwt>
<rscale>  0 0.12500000E+03</rscale>
<asrwt>0</asrwt>
<pdfrwt beam="1">  1       21 0.38991685E-03 0.12500000E+03</pdfrwt>
<pdfrwt beam="2">  1       21 0.23711625E+00 0.12500000E+03</pdfrwt>
<totfact> 0.13355790E+06</totfact>
</mgrwt>
</event>
<event>
 3    1  0.1619206E-001  0.1250000E+03  0.7546771E-02  0.1235069E+00
         21   -1    0    0  502  501  0.00000000000E+00  0.00000000000E+00  0.18460024141E+02  0.18460024141E+02  0.00000000000E+00 0. -1.
         21   -1    0    0  501  502 -0.00000000000E+00 -0.00000000000E+00 -0.21160589879E+03  0.21160589879E+03  0.00000000000E+00 0. -1.
         25    1    1    2    0    0  0.00000000000E+00  0.00000000000E+00 -0.19314587465E+03  0.23006592293E+03  0.12500000000E+03 0.  0.
<mgrwt>
<rscale>  0 0.12500000E+03</rscale>
<asrwt>0</asrwt>
<pdfrwt beam="1">  1       21 0.28400037E-02 0.12500000E+03</pdfrwt>
<pdfrwt beam="2">  1       21 0.32554754E-01 0.12500000E+03</pdfrwt>
<totfact> 0.61807419E+06</totfact>
</mgrwt>
</event>
<event>
 3    1  0.1619206E-001  0.1250000E+03  0.7546771E-02  0.1235069E+00
         21   -1    0    0  502  501  0.00000000000E+00  0.00000000000E+00  0.44530711157E+03  0.44530711157E+03  0.00000000000E+00 0.  1.
         21   -1    0    0  501  502 -0.00000000000E+00 -0.00000000000E+00 -0.87720359692E+01  0.87720359692E+01  0.00000000000E+00 0.  1.
         25    1    1    2    0    0  0.00000000000E+00  0.00000000000E+00  0.43653507560E+03  0.45407914754E+03  0.12500000000E+03 0.  0.
<mgrwt>
<rscale>  0 0.12500000E+03</rscale>
<asrwt>0</asrwt>
<pdfrwt beam="1">  1       21 0.68508769E-01 0.12500000E+03</pdfrwt>
<pdfrwt beam="2">  1       21 0.13495443E-02 0.12500000E+03</pdfrwt>
<totfact> 0.44649190E+06</totfact>
</mgrwt>
</event>
<event>
 3    1  0.1619206E-001  0.1250000E+03  0.7546771E-02  0.1235069E+00
         21   -1    0    0  502  501  0.00000000000E+00  0.00000000000E+00  0.12077323801E+02  0.12077323801E+02  0.00000000000E+00 0.  1.
         21   -1    0    0  501  502 -0.00000000000E+00 -0.00000000000E+00 -0.32343672029E+03  0.32343672029E+03  0.00000000000E+00 0.  1.
         25    1    1    2    0    0  0.00000000000E+00  0.00000000000E+00 -0.31135939649E+03  0.33551404410E+03  0.12500000000E+03 0.  0.
<mgrwt>
<rscale>  0 0.12500000E+03</rscale>
<asrwt>0</asrwt>
<pdfrwt beam="1">  1       21 0.18580497E-02 0.12500000E+03</pdfrwt>
<pdfrwt beam="2">  1       21 0.49759498E-01 0.12500000E+03</pdfrwt>
<totfact> 0.52626385E+06</totfact>
</mgrwt>
</event>
<event>
 3    1  0.1619206E-001  0.1250000E+03  0.7546771E-02  0.1235069E+00
         21   -1    0    0  502  501  0.00000000000E+00  0.00000000000E+00  0.17308585765E+03  0.17308585765E+03  0.00000000000E+00 0.  1.
         21   -1    0    0  501  502 -0.00000000000E+00 -0.00000000000E+00 -0.22568279425E+02  0.22568279425E+02  0.00000000000E+00 0.  1.
         25    1    1    2    0    0  0.00000000000E+00  0.00000000000E+00  0.15051757823E+03  0.19565413708E+03  0.12500000000E+03 0.  0.
<mgrwt>
<rscale>  0 0.12500000E+03</rscale>
<asrwt>0</asrwt>
<pdfrwt beam="1">  1       21 0.26628593E-01 0.12500000E+03</pdfrwt>
<pdfrwt beam="2">  1       21 0.34720431E-02 0.12500000E+03</pdfrwt>
<totfact> 0.65399501E+06</totfact>
</mgrwt>
</event>
<event>
 3    1  0.1619206E-001  0.1250000E+03  0.7546771E-02  0.1235069E+00
         21   -1    0    0  502  501  0.00000000000E+00  0.00000000000E+00  0.30090584612E+02  0.30090584612E+02  0.00000000000E+00 0. -1.
         21   -1    0    0  501  502 -0.00000000000E+00 -0.00000000000E+00 -0.12981635453E+03  0.12981635453E+03  0.00000000000E+00 0. -1.
         25    1    1    2    0    0  0.00000000000E+00  0.00000000000E+00 -0.99725769919E+02  0.15990693914E+03  0.12500000000E+03 0.  0.
<mgrwt>
<rscale>  0 0.12500000E+03</rscale>
<asrwt>0</asrwt>
<pdfrwt beam="1">  1       21 0.46293209E-02 0.12500000E+03</pdfrwt>
<pdfrwt beam="2">  1       21 0.19971746E-01 0.12500000E+03</pdfrwt>
<totfact> 0.69530869E+06</totfact>
</mgrwt>
</event>
<event>
 3    1  0.1619206E-001  0.1250000E+03  0.7546771E-02  0.1235069E+00
         21   -1    0    0  502  501  0.00000000000E+00  0.00000000000E+00  0.19869735674E+02  0.19869735674E+02  0.00000000000E+00 0.  1.
         21   -1    0    0  501  502 -0.00000000000E+00 -0.00000000000E+00 -0.19659295242E+03  0.19659295242E+03  0.00000000000E+00 0.  1.
         25    1    1    2    0    0  0.00000000000E+00  0.00000000000E+00 -0.17672321675E+03  0.21646268810E+03  0.12500000000E+03 0.  0.
<mgrwt>
<rscale>  0 0.12500000E+03</rscale>
<asrwt>0</asrwt>
<pdfrwt beam="1">  1       21 0.30568824E-02 0.12500000E+03</pdfrwt>
<pdfrwt beam="2">  1       21 0.30245069E-01 0.12500000E+03</pdfrwt>
<totfact> 0.63185936E+06</totfact>
</mgrwt>
</event>
<event>
 3    1  0.1619206E-001  0.1250000E+03  0.7546771E-02  0.1235069E+00
         21   -1    0    0  502  501  0.00000000000E+00  0.00000000000E+00  0.10995292672E+02  0.10995292672E+02  0.00000000000E+00 0. -1.
         21   -1    0    0  501  502 -0.00000000000E+00 -0.00000000000E+00 -0.35526566836E+03  0.35526566836E+03  0.00000000000E+00 0. -1.
         25    1    1    2    0    0  0.00000000000E+00  0.00000000000E+00 -0.34427037569E+03  0.36626096104E+03  0.12500000000E+03 0.  0.
<mgrwt>
<rscale>  0 0.12500000E+03</rscale>
<asrwt>0</asrwt>
<pdfrwt beam="1">  1       21 0.16915834E-02 0.12500000E+03</pdfrwt>
<pdfrwt beam="2">  1       21 0.54656261E-01 0.12500000E+03</pdfrwt>
<totfact> 0.50359479E+06</totfact>
</mgrwt>
</event>
<event>
 3    1  0.1619206E-001  0.1250000E+03  0.7546771E-02  0.1235069E+00
         21   -1    0    0  502  501  0.00000000000E+00  0.00000000000E+00  0.43946458073E+03  0.43946458073E+03  0.00000000000E+00 0.  1.
         21   -1    0    0  501  502 -0.00000000000E+00 -0.00000000000E+00 -0.88886571781E+01  0.88886571781E+01  0.00000000000E+00 0.  1.
         25    1    1    2    0    0  0.00000000000E+00  0.00000000000E+00  0.43057592355E+03  0.44835323790E+03  0.12500000000E+03 0.  0.
<mgrwt>
<rscale>  0 0.12500000E+03</rscale>
<asrwt>0</asrwt>
<pdfrwt beam="1">  1       21 0.67609919E-01 0.12500000E+03</pdfrwt>
<pdfrwt beam="2">  1       21 0.13674861E-02 0.12500000E+03</pdfrwt>
<totfact> 0.44990978E+06</totfact>
</mgrwt>
</event>
<event>
 3    1  0.1619206E-001  0.1250000E+03  0.7546771E-02  0.1235069E+00
         21   -1    0    0  502  501  0.00000000000E+00  0.00000000000E+00  0.18840799838E+02  0.18840799838E+02  0.00000000000E+00 0.  1.
         21   -1    0    0  501  502 -0.00000000000E+00 -0.00000000000E+00 -0.20732930839E+03  0.20732930839E+03  0.00000000000E+00 0.  1.
         25    1    1    2    0    0  0.00000000000E+00  0.00000000000E+00 -0.18848850856E+03  0.22617010823E+03  0.12500000000E+03 0.  0.
<mgrwt>
<rscale>  0 0.12500000E+03</rscale>
<asrwt>0</asrwt>
<pdfrwt beam="1">  1       21 0.28985847E-02 0.12500000E+03</pdfrwt>
<pdfrwt beam="2">  1       21 0.31896816E-01 0.12500000E+03</pdfrwt>
<totfact> 0.62197197E+06</totfact>
</mgrwt>
</event>
<event>
 3    1  0.1619206E-001  0.1250000E+03  0.7546771E-02  0.1235069E+00
         21   -1    0    0  502  501  0.00000000000E+00  0.00000000000E+00  0.21989521285E+03  0.21989521285E+03  0.00000000000E+00 0. -1.
         21   -1    0    0  501  502 -0.00000000000E+00 -0.00000000000E+00 -0.17764142972E+02  0.17764142972E+02  0.00000000000E+00 0. -1.
         25    1    1    2    0    0  0.00000000000E+00  0.00000000000E+00  0.20213106988E+03  0.23765935582E+03  0.12500000000E+03 0.  0.
<mgrwt>
<rscale>  0 0.12500000E+03</rscale>
<asrwt>0</asrwt>
<pdfrwt beam="1">  1       21 0.33830031E-01 0.12500000E+03</pdfrwt>
<pdfrwt beam="2">  1       21 0.27329452E-02 0.12500000E+03</pdfrwt>
<totfact> 0.61059901E+06</totfact>
</mgrwt>
</event>
<event>
 3    1  0.1619206E-001  0.1250000E+03  0.7546771E-02  0.1235069E+00
         21   -1    0    0  502  501  0.00000000000E+00  0.00000000000E+00  0.68570081935E+03  0.68570081935E+03  0.00000000000E+00 0.  1.
         21   -1    0    0  501  502 -0.00000000000E+00 -0.00000000000E+00 -0.56967264582E+01  0.56967264582E+01  0.00000000000E+00 0.  1.
         25    1    1    2    0    0  0.00000000000E+00  0.00000000000E+00  0.68000409289E+03  0.69139754581E+03  0.12500000000E+03 0.  0.
<mgrwt>
<rscale>  0 0.12500000E+03</rscale>
<asrwt>0</asrwt>
<pdfrwt beam="1">  1       21 0.10549237E+00 0.12500000E+03</pdfrwt>
<pdfrwt beam="2">  1       21 0.87642000E-03 0.12500000E+03</pdfrwt>
<totfact> 0.33244457E+06</totfact>
</mgrwt>
</event>
<event>
 3    1  0.1619206E-001  0.1250000E+03  0.7546771E-02  0.1235069E+00
         21   -1    0    0  502  501  0.00000000000E+00  0.00000000000E+00  0.16207904764E+03  0.16207904764E+03  0.00000000000E+00 0.  1.
         21   -1    0    0  501  502 -0.00000000000E+00 -0.00000000000E+00 -0.24100894328E+02  0.24100894328E+02  0.00000000000E+00 0.  1.
         25    1    1    2    0    0  0.00000000000E+00  0.00000000000E+00  0.13797815331E+03  0.18617994197E+03  0.12500000000E+03 0.  0.
<mgrwt>
<rscale>  0 0.12500000E+03</rscale>
<asrwt>0</asrwt>
<pdfrwt beam="1">  1       21 0.24935237E-01 0.12500000E+03</pdfrwt>
<pdfrwt beam="2">  1       21 0.37078300E-02 0.12500000E+03</pdfrwt>
<totfact> 0.66449567E+06</totfact>
</mgrwt>
</event>
<event>
 3    1  0.1619206E-001  0.1250000E+03  0.7546771E-02  0.1235069E+00
         21   -1    0    0  502  501  0.00000000000E+00  0.00000000000E+00  0.63432743273E+02  0.63432743273E+02  0.00000000000E+00 0. -1.
         21   -1    0    0  501  502 -0.00000000000E+00 -0.00000000000E+00 -0.61580972199E+02  0.61580972199E+02  0.00000000000E+00 0. -1.
         25    1    1    2    0    0  0.00000000000E+00  0.00000000000E+00  0.18517710736E+01  0.12501371547E+03  0.12500000000E+03 0.  0.
<mgrwt>
<rscale>  0 0.12500000E+03</rscale>
<asrwt>0</asrwt>
<pdfrwt beam="1">  1       21 0.97588836E-02 0.12500000E+03</pdfrwt>
<pdfrwt beam="2">  1       21 0.94739957E-02 0.12500000E+03</pdfrwt>
<totfact> 0.74041729E+06</totfact>
</mgrwt>
</event>
<event>
 3    1  0.1619206E-001  0.1250000E+03  0.7546771E-02  0.1235069E+00
         21   -1    0    0  502  501  0.00000000000E+00  0.00000000000E+00  0.21955731550E+03  0.21955731550E+03  0.00000000000E+00 0.  1.
         21   -1    0    0  501  502 -0.00000000000E+00 -0.00000000000E+00 -0.17791481878E+02  0.17791481878E+02  0.00000000000E+00 0.  1.
         25    1    1    2    0    0  0.00000000000E+00  0.00000000000E+00  0.20176583363E+03  0.23734879738E+03  0.12500000000E+03 0.  0.
<mgrwt>
<rscale>  0 0.12500000E+03</rscale>
<asrwt>0</asrwt>
<pdfrwt beam="1">  1       21 0.33778047E-01 0.12500000E+03</pdfrwt>
<pdfrwt beam="2">  1       21 0.27371512E-02 0.12500000E+03</pdfrwt>
<totfact> 0.61090162E+06</totfact>
</mgrwt>
</event>
<event>
 3    1  0.1619206E-001  0.1250000E+03  0.7546771E-02  0.1235069E+00
         21   -1    0    0  502  501  0.00000000000E+00  0.00000000000E+00  0.46676528969E+02  0.46676528969E+02  0.00000000000E+00 0. -1.
         21   -1    0    0  501  502 -0.00000000000E+00 -0.00000000000E+00 -0.83687671005E+02  0.83687671005E+02  0.00000000000E+00 0. -1.
         25    1    1    2    0    0  0.00000000000E+00  0.00000000000E+00 -0.37011142037E+02  0.13036419997E+03  0.12500000000E+03 0.  0.
<mgrwt>
<rscale>  0 0.12500000E+03</rscale>
<asrwt>0</asrwt>
<pdfrwt beam="1">  1       21 0.71810046E-02 0.12500000E+03</pdfrwt>
<pdfrwt beam="2">  1       21 0.12875026E-01 0.12500000E+03</pdfrwt>
<totfact> 0.73316280E+06</totfact>
</mgrwt>
</event>
<event>
 3    1  0.1619206E-001  0.1250000E+03  0.7546771E-02  0.1235069E+00
         21   -1    0    0  502  501  0.00000000000E+00  0.00000000000E+00  0.32724470591E+03  0.32724470591E+03  0.00000000000E+00 0. -1.
         21   -1    0    0  501  502 -0.00000000000E+00 -0.00000000000E+00 -0.11936785927E+02  0.11936785927E+02  0.00000000000E+00 0. -1.
         25    1    1    2    0    0  0.00000000000E+00  0.00000000000E+00  0.31530791998E+03  0.33918149183E+03  0.12500000000E+03 0.  0.
<mgrwt>
<rscale>  0 0.12500000E+03</rscale>
<asrwt>0</asrwt>
<pdfrwt beam="1">  1       21 0.50345332E-01 0.12500000E+03</pdfrwt>
<pdfrwt beam="2">  1       21 0.18364289E-02 0.12500000E+03</pdfrwt>
<totfact> 0.52347473E+06</totfact>
</mgrwt>
</event>
<event>
 3    1  0.1619206E-001  0.1250000E+03  0.7546771E-02  0.1235069E+00
         21   -1    0    0  502  501  0.00000000000E+00  0.00000000000E+00  0.50130389935E+02  0.50130389935E+02  0.00000000000E+00 0. -1.
         21   -1    0    0  501  502 -0.00000000000E+00 -0.00000000000E+00 -0.77921795643E+02  0.77921795643E+02  0.00000000000E+00 0. -1.
         25    1    1    2    0    0  0.00000000000E+00  0.00000000000E+00 -0.27791405708E+02  0.12805218558E+03  0.12500000000E+03 0.  0.
<mgrwt>
<rscale>  0 0.12500000E+03</rscale>
<asrwt>0</asrwt>
<pdfrwt beam="1">  1       21 0.77123677E-02 0.12500000E+03</pdfrwt>
<pdfrwt beam="2">  1       21 0.11987968E-01 0.12500000E+03</pdfrwt>
<totfact> 0.73626511E+06</totfact>
</mgrwt>
</event>
<event>
 3    1  0.1619206E-001  0.1250000E+03  0.7546771E-02  0.1235069E+00
         21   -1    0    0  502  501  0.00000000000E+00  0.00000000000E+00  0.11995406572E+03  0.11995406572E+03  0.00000000000E+00 0.  1.
         21   -1    0    0  501  502 -0.00000000000E+00 -0.00000000000E+00 -0.32564548577E+02  0.32564548577E+02  0.00000000000E+00 0.  1.
         25    1    1    2    0    0  0.00000000000E+00  0.00000000000E+00  0.87389517138E+02  0.15251861429E+03  0.12500000000E+03 0.  0.
<mgrwt>
<rscale>  0 0.12500000E+03</rscale>
<asrwt>0</asrwt>
<pdfrwt beam="1">  1       21 0.18454471E-01 0.12500000E+03</pdfrwt>
<pdfrwt beam="2">  1       21 0.50099306E-02 0.12500000E+03</pdfrwt>
<totfact> 0.70444233E+06</totfact>
</mgrwt>
</event>
<event>
 3    1  0.1619206E-001  0.1250000E+03  0.7546771E-02  0.1235069E+00
         21   -1    0    0  502  501  0.00000000000E+00  0.00000000000E+00  0.81450672813E+01  0.81450672813E+01  0.00000000000E+00 0.  1.
         21   -1    0    0  501  502 -0.00000000000E+00 -0.00000000000E+00 -0.47958474315E+03  0.47958474315E+03  0.00000000000E+00 0.  1.
         25    1    1    2    0    0  0.00000000000E+00  0.00000000000E+00 -0.47143967586E+03  0.48772981043E+03  0.12500000000E+03 0.  0.
<mgrwt>
<rscale>  0 0.12500000E+03</rscale>
<asrwt>0</asrwt>
<pdfrwt beam="1">  1       21 0.12530878E-02 0.12500000E+03</pdfrwt>
<pdfrwt beam="2">  1       21 0.73782238E-01 0.12500000E+03</pdfrwt>
<totfact> 0.42717435E+06</totfact>
</mgrwt>
</event>
<event>
 3    1  0.1619206E-001  0.1250000E+03  0.7546771E-02  0.1235069E+00
         21   -1    0    0  502  501  0.00000000000E+00  0.00000000000E+00  0.52295246487E+03  0.52295246487E+03  0.00000000000E+00 0.  1.
         21   -1    0    0  501  502 -0.00000000000E+00 -0.00000000000E+00 -0.74696081621E+01  0.74696081621E+01  0.00000000000E+00 0.  1.
         25    1    1    2    0    0  0.00000000000E+00  0.00000000000E+00  0.51548285671E+03  0.53042207304E+03  0.12500000000E+03 0.  0.
<mgrwt>
<rscale>  0 0.12500000E+03</rscale>
<asrwt>0</asrwt>
<pdfrwt beam="1">  1       21 0.80454196E-01 0.12500000E+03</pdfrwt>
<pdfrwt beam="2">  1       21 0.11491709E-02 0.12500000E+03</pdfrwt>
<totfact> 0.40440864E+06</totfact>
</mgrwt>
</event>
<event>
 3    1  0.1619206E-001  0.1250000E+03  0.7546771E-02  0.1235069E+00
         21   -1    0    0  502  501  0.00000000000E+00  0.00000000000E+00  0.40606369314E+01  0.40606369314E+01  0.00000000000E+00 0. -1.
         21   -1    0    0  501  502 -0.00000000000E+00 -0.00000000000E+00 -0.96197962685E+03  0.96197962685E+03  0.00000000000E+00 0. -1.
         25    1    1    2    0    0  0.00000000000E+00  0.00000000000E+00 -0.95791898992E+03  0.96604026378E+03  0.12500000000E+03 0.  0.
<mgrwt>
<rscale>  0 0.12500000E+03</rscale>
<asrwt>0</asrwt>
<pdfrwt beam="1">  1       21 0.62471247E-03 0.12500000E+03</pdfrwt>
<pdfrwt beam="2">  1       21 0.14799708E+00 0.12500000E+03</pdfrwt>
<totfact> 0.24486774E+06</totfact>
</mgrwt>
</event>
<event>
 3    1  0.1619206E-001  0.1250000E+03  0.7546771E-02  0.1235069E+00
         21   -1    0    0  502  501  0.00000000000E+00  0.00000000000E+00  0.10784843532E+03  0.10784843532E+03  0.00000000000E+00 0.  1.
         21   -1    0    0  501  502 -0.00000000000E+00 -0.00000000000E+00 -0.36219811519E+02  0.36219811519E+02  0.00000000000E+00 0.  1.
         25    1    1    2    0    0  0.00000000000E+00  0.00000000000E+00  0.71628623803E+02  0.14406824684E+03  0.12500000000E+03 0.  0.
<mgrwt>
<rscale>  0 0.12500000E+03</rscale>
<asrwt>0</asrwt>
<pdfrwt beam="1">  1       21 0.16592067E-01 0.12500000E+03</pdfrwt>
<pdfrwt beam="2">  1       21 0.55722787E-02 0.12500000E+03</pdfrwt>
<totfact> 0.71512554E+06</totfact>
</mgrwt>
</event>
<event>
 3    1  0.1619206E-001  0.1250000E+03  0.7546771E-02  0.1235069E+00
         21   -1    0    0  502  501  0.00000000000E+00  0.00000000000E+00  0.17736681259E+03  0.17736681259E+03  0.00000000000E+00 0. -1.
         21   -1    0    0  501  502 -0.00000000000E+00 -0.00000000000E+00 -0.22023567673E+02  0.22023567673E+02  0.00000000000E+00 0. -1.
         25    1    1    2    0    0  0.00000000000E+00  0.00000000000E+00  0.15534324492E+03  0.19939038026E+03  0.12500000000E+03 0.  0.
<mgrwt>
<rscale>  0 0.12500000E+03</rscale>
<asrwt>0</asrwt>
<pdfrwt beam="1">  1       21 0.27287201E-01 0.12500000E+03</pdfrwt>
<pdfrwt beam="2">  1       21 0.33882413E-02 0.12500000E+03</pdfrwt>
<totfact> 0.64993369E+06</totfact>
</mgrwt>
</event>
<event>
 3    1  0.1619206E-001  0.1250000E+03  0.7546771E-02  0.1235069E+00
         21   -1    0    0  502  501  0.00000000000E+00  0.00000000000E+00  0.17694768891E+03  0.17694768891E+03  0.00000000000E+00 0. -1.
         21   -1    0    0  501  502 -0.00000000000E+00 -0.00000000000E+00 -0.22075733366E+02  0.22075733366E+02  0.00000000000E+00 0. -1.
         25    1    1    2    0    0  0.00000000000E+00  0.00000000000E+00  0.15487195554E+03  0.19902342227E+03  0.12500000000E+03 0.  0.
<mgrwt>
<rscale>  0 0.12500000E+03</rscale>
<asrwt>0</asrwt>
<pdfrwt beam="1">  1       21 0.27222720E-01 0.12500000E+03</pdfrwt>
<pdfrwt beam="2">  1       21 0.33962668E-02 0.12500000E+03</pdfrwt>
<totfact> 0.65033225E+06</totfact>
</mgrwt>
</event>
<event>
 3    1  0.1619206E-001  0.1250000E+03  0.7546771E-02  0.1235069E+00
         21   -1    0    0  502  501  0.00000000000E+00  0.00000000000E+00  0.25505078261E+03  0.25505078261E+03  0.00000000000E+00 0. -1.
         21   -1    0    0  501  502 -0.00000000000E+00 -0.00000000000E+00 -0.15315577392E+02  0.15315577392E+02  0.00000000000E+00 0. -1.
         25    1    1    2    0    0  0.00000000000E+00  0.00000000000E+00  0.23973520521E+03  0.27036636000E+03  0.12500000000E+03 0.  0.
<mgrwt>
<rscale>  0 0.12500000E+03</rscale>
<asrwt>0</asrwt>
<pdfrwt beam="1">  1       21 0.39238579E-01 0.12500000E+03</pdfrwt>
<pdfrwt beam="2">  1       21 0.23562429E-02 0.12500000E+03</pdfrwt>
<totfact> 0.58011970E+06</totfact>
</mgrwt>
</event>
<event>
 3    1  0.1619206E-001  0.1250000E+03  0.7546771E-02  0.1235069E+00
         21   -1    0    0  502  501  0.00000000000E+00  0.00000000000E+00  0.10410600644E+03  0.10410600644E+03  0.00000000000E+00 0.  1.
         21   -1    0    0  501  502 -0.00000000000E+00 -0.00000000000E+00 -0.37521850405E+02  0.37521850405E+02  0.00000000000E+00 0.  1.
         25    1    1    2    0    0  0.00000000000E+00  0.00000000000E+00  0.66584156038E+02  0.14162785685E+03  0.12500000000E+03 0.  0.
<mgrwt>
<rscale>  0 0.12500000E+03</rscale>
<asrwt>0</asrwt>
<pdfrwt beam="1">  1       21 0.16016309E-01 0.12500000E+03</pdfrwt>
<pdfrwt beam="2">  1       21 0.57725924E-02 0.12500000E+03</pdfrwt>
<totfact> 0.71827501E+06</totfact>
</mgrwt>
</event>
<event>
 3    1  0.1619206E-001  0.1250000E+03  0.7546771E-02  0.1235069E+00
         21   -1    0    0  502  501  0.00000000000E+00  0.00000000000E+00  0.57185235639E+02  0.57185235639E+02  0.00000000000E+00 0.  1.
         21   -1    0    0  501  502 -0.00000000000E+00 -0.00000000000E+00 -0.68308715639E+02  0.68308715639E+02  0.00000000000E+00 0.  1.
         25    1    1    2    0    0  0.00000000000E+00  0.00000000000E+00 -0.11123479999E+02  0.12549395128E+03  0.12500000000E+03 0.  0.
<mgrwt>
<rscale>  0 0.12500000E+03</rscale>
<asrwt>0</asrwt>
<pdfrwt beam="1">  1       21 0.87977285E-02 0.12500000E+03</pdfrwt>
<pdfrwt beam="2">  1       21 0.10509033E-01 0.12500000E+03</pdfrwt>
<totfact> 0.73976242E+06</totfact>
</mgrwt>
</event>
<event>
 3    1  0.1619206E-001  0.1250000E+03  0.7546771E-02  0.1235069E+00
         21   -1    0    0  502  501  0.00000000000E+00  0.00000000000E+00  0.44254211961E+03  0.44254211961E+03  0.00000000000E+00 0. -1.
         21   -1    0    0  501  502 -0.00000000000E+00 -0.00000000000E+00 -0.88268434279E+01  0.88268434279E+01  0.00000000000E+00 0. -1.
         25    1    1    2    0    0  0.00000000000E+00  0.00000000000E+00  0.43371527618E+03  0.45136896303E+03  0.12500000000E+03 0.  0.
<mgrwt>
<rscale>  0 0.12500000E+03</rscale>
<asrwt>0</asrwt>
<pdfrwt beam="1">  1       21 0.68083386E-01 0.12500000E+03</pdfrwt>
<pdfrwt beam="2">  1       21 0.13579763E-02 0.12500000E+03</pdfrwt>
<totfact> 0.44810473E+06</totfact>
</mgrwt>
</event>
<event>
 3    1  0.1619206E-001  0.1250000E+03  0.7546771E-02  0.1235069E+00
         21   -1    0    0  502  501  0.00000000000E+00  0.00000000000E+00  0.16479974036E+03  0.16479974036E+03  0.00000000000E+00 0. -1.
         21   -1    0    0  501  502 -0.00000000000E+00 -0.00000000000E+00 -0.23703010645E+02  0.23703010645E+02  0.00000000000E+00 0. -1.
         25    1    1    2    0    0  0.00000000000E+00  0.00000000000E+00  0.14109672971E+03  0.18850275100E+03  0.12500000000E+03 0.  0.
<mgrwt>
<rscale>  0 0.12500000E+03</rscale>
<asrwt>0</asrwt>
<pdfrwt beam="1">  1       21 0.25353805E-01 0.12500000E+03</pdfrwt>
<pdfrwt beam="2">  1       21 0.36466171E-02 0.12500000E+03</pdfrwt>
<totfact> 0.66189257E+06</totfact>
</mgrwt>
</event>
<event>
 3    1  0.1619206E-001  0.1250000E+03  0.7546771E-02  0.1235069E+00
         21   -1    0    0  502  501  0.00000000000E+00  0.00000000000E+00  0.80966766557E+02  0.80966766557E+02  0.00000000000E+00 0. -1.
         21   -1    0    0  501  502 -0.00000000000E+00 -0.00000000000E+00 -0.48245103097E+02  0.48245103097E+02  0.00000000000E+00 0. -1.
         25    1    1    2    0    0  0.00000000000E+00  0.00000000000E+00  0.32721663460E+02  0.12921186965E+03  0.12500000000E+03 0.  0.
<mgrwt>
<rscale>  0 0.12500000E+03</rscale>
<asrwt>0</asrwt>
<pdfrwt beam="1">  1       21 0.12456426E-01 0.12500000E+03</pdfrwt>
<pdfrwt beam="2">  1       21 0.74223236E-02 0.12500000E+03</pdfrwt>
<totfact> 0.73470442E+06</totfact>
</mgrwt>
</event>
<event>
 3    1  0.1619206E-001  0.1250000E+03  0.7546771E-02  0.1235069E+00
         21   -1    0    0  502  501  0.00000000000E+00  0.00000000000E+00  0.48783278010E+01  0.48783278010E+01  0.00000000000E+00 0.  1.
         21   -1    0    0  501  502 -0.00000000000E+00 -0.00000000000E+00 -0.80073544856E+03  0.80073544856E+03  0.00000000000E+00 0.  1.
         25    1    1    2    0    0  0.00000000000E+00  0.00000000000E+00 -0.79585712076E+03  0.80561377636E+03  0.12500000000E+03 0.  0.
<mgrwt>
<rscale>  0 0.12500000E+03</rscale>
<asrwt>0</asrwt>
<pdfrwt beam="1">  1       21 0.75051063E-03 0.12500000E+03</pdfrwt>
<pdfrwt beam="2">  1       21 0.12319029E+00 0.12500000E+03</pdfrwt>
<totfact> 0.29177610E+06</totfact>
</mgrwt>
</event>
<event>
 3    1  0.1619206E-001  0.1250000E+03  0.7546771E-02  0.1235069E+00
         21   -1    0    0  502  501  0.00000000000E+00  0.00000000000E+00  0.56008424708E+02  0.56008424708E+02  0.00000000000E+00 0. -1.
         21   -1    0    0  501  502 -0.00000000000E+00 -0.00000000000E+00 -0.69743971918E+02  0.69743971918E+02  0.00000000000E+00 0. -1.
         25    1    1    2    0    0  0.00000000000E+00  0.00000000000E+00 -0.13735547211E+02  0.12575239663E+03  0.12500000000E+03 0.  0.
<mgrwt>
<rscale>  0 0.12500000E+03</rscale>
<asrwt>0</asrwt>
<pdfrwt beam="1">  1       21 0.86166808E-02 0.12500000E+03</pdfrwt>
<pdfrwt beam="2">  1       21 0.10729842E-01 0.12500000E+03</pdfrwt>
<totfact> 0.73940268E+06</totfact>
</mgrwt>
</event>
<event>
 3    1  0.1619206E-001  0.1250000E+03  0.7546771E-02  0.1235069E+00
         21   -1    0    0  502  501  0.00000000000E+00  0.00000000000E+00  0.89603322819E+02  0.89603322819E+02  0.00000000000E+00 0.  1.
         21   -1    0    0  501  502 -0.00000000000E+00 -0.00000000000E+00 -0.43594923459E+02  0.43594923459E+02  0.00000000000E+00 0.  1.
         25    1    1    2    0    0  0.00000000000E+00  0.00000000000E+00  0.46008399360E+02  0.13319824628E+03  0.12500000000E+03 0.  0.
<mgrwt>
<rscale>  0 0.12500000E+03</rscale>
<asrwt>0</asrwt>
<pdfrwt beam="1">  1       21 0.13785127E-01 0.12500000E+03</pdfrwt>
<pdfrwt beam="2">  1       21 0.67069113E-02 0.12500000E+03</pdfrwt>
<totfact> 0.72935937E+06</totfact>
</mgrwt>
</event>
<event>
 3    1  0.1619206E-001  0.1250000E+03  0.7546771E-02  0.1235069E+00
         21   -1    0    0  502  501  0.00000000000E+00  0.00000000000E+00  0.13618821151E+03  0.13618821151E+03  0.00000000000E+00 0. -1.
         21   -1    0    0  501  502 -0.00000000000E+00 -0.00000000000E+00 -0.28682732203E+02  0.28682732203E+02  0.00000000000E+00 0. -1.
         25    1    1    2    0    0  0.00000000000E+00  0.00000000000E+00  0.10750547931E+03  0.16487094372E+03  0.12500000000E+03 0.  0.
<mgrwt>
<rscale>  0 0.12500000E+03</rscale>
<asrwt>0</asrwt>
<pdfrwt beam="1">  1       21 0.20952032E-01 0.12500000E+03</pdfrwt>
<pdfrwt beam="2">  1       21 0.44127281E-02 0.12500000E+03</pdfrwt>
<totfact> 0.68929163E+06</totfact>
</mgrwt>
</event>
<event>
 3    1  0.1619206E-001  0.1250000E+03  0.7546771E-02  0.1235069E+00
         21   -1    0    0  502  501  0.00000000000E+00  0.00000000000E+00  0.54142377695E+01  0.54142377695E+01  0.00000000000E+00 0. -1.
         21   -1    0    0  501  502 -0.00000000000E+00 -0.00000000000E+00 -0.72147736510E+03  0.72147736510E+03  0.00000000000E+00 0. -1.
         25    1    1    2    0    0  0.00000000000E+00  0.00000000000E+00 -0.71606312733E+03  0.72689160287E+03  0.12500000000E+03 0.  0.
<mgrwt>
<rscale>  0 0.12500000E+03</rscale>
<asrwt>0</asrwt>
<pdfrwt beam="1">  1       21 0.83295957E-03 0.12500000E+03</pdfrwt>
<pdfrwt beam="2">  1       21 0.11099653E+00 0.12500000E+03</pdfrwt>
<totfact> 0.31898799E+06</totfact>
</mgrwt>
</event>
<event>
 3    1  0.1619206E-001  0.1250000E+03  0.7546771E-02  0.1235069E+00
         21   -1    0    0  502  501  0.00000000000E+00  0.00000000000E+00  0.45699132127E+02  0.45699132127E+02  0.00000000000E+00 0.  1.
         21   -1    0    0  501  502 -0.00000000000E+00 -0.00000000000E+00 -0.85477553254E+02  0.85477553254E+02  0.00000000000E+00 0.  1.
         25    1    1    2    0    0  0.00000000000E+00  0.00000000000E+00 -0.39778421127E+02  0.13117668538E+03  0.12500000000E+03 0.  0.
<mgrwt>
<rscale>  0 0.12500000E+03</rscale>
<asrwt>0</asrwt>
<pdfrwt beam="1">  1       21 0.70306357E-02 0.12500000E+03</pdfrwt>
<pdfrwt beam="2">  1       21 0.13150393E-01 0.12500000E+03</pdfrwt>
<totfact> 0.73206871E+06</totfact>
</mgrwt>
</event>
<event>
 3    1  0.1619206E-001  0.1250000E+03  0.7546771E-02  0.1235069E+00
         21   -1    0    0  502  501  0.00000000000E+00  0.00000000000E+00  0.40363645502E+02  0.40363645502E+02  0.00000000000E+00 0.  1.
         21   -1    0    0  501  502 -0.00000000000E+00 -0.00000000000E+00 -0.96776442055E+02  0.96776442055E+02  0.00000000000E+00 0.  1.
         25    1    1    2    0    0  0.00000000000E+00  0.00000000000E+00 -0.56412796553E+02  0.13714008756E+03  0.12500000000E+03 0.  0.
<mgrwt>
<rscale>  0 0.12500000E+03</rscale>
<asrwt>0</asrwt>
<pdfrwt beam="1">  1       21 0.62097917E-02 0.12500000E+03</pdfrwt>
<pdfrwt beam="2">  1       21 0.14888683E-01 0.12500000E+03</pdfrwt>
<totfact> 0.72414332E+06</totfact>
</mgrwt>
</event>
<event>
 3    1  0.1619206E-001  0.1250000E+03  0.7546771E-02  0.1235069E+00
         21   -1    0    0  502  501  0.00000000000E+00  0.00000000000E+00  0.60220352330E+02  0.60220352330E+02  0.00000000000E+00 0.  1.
         21   -1    0    0  501  502 -0.00000000000E+00 -0.00000000000E+00 -0.64865943969E+02  0.64865943969E+02  0.00000000000E+00 0.  1.
         25    1    1    2    0    0  0.00000000000E+00  0.00000000000E+00 -0.46455916395E+01  0.12508629630E+03  0.12500000000E+03 0.  0.
<mgrwt>
<rscale>  0 0.12500000E+03</rscale>
<asrwt>0</asrwt>
<pdfrwt beam="1">  1       21 0.92646695E-02 0.12500000E+03</pdfrwt>
<pdfrwt beam="2">  1       21 0.99793760E-02 0.12500000E+03</pdfrwt>
<totfact> 0.74031926E+06</totfact>
</mgrwt>
</event>
<event>
 3    1  0.1619206E-001  0.1250000E+03  0.7546771E-02  0.1235069E+00
         21   -1    0    0  502  501  0.00000000000E+00  0.00000000000E+00  0.11141124737E+02  0.11141124737E+02  0.00000000000E+00 0.  1.
         21   -1    0    0  501  502 -0.00000000000E+00 -0.00000000000E+00 -0.35061540841E+03  0.35061540841E+03  0.00000000000E+00 0.  1.
         25    1    1    2    0    0  0.00000000000E+00  0.00000000000E+00 -0.33947428368E+03  0.36175653315E+03  0.12500000000E+03 0.  0.
<mgrwt>
<rscale>  0 0.12500000E+03</rscale>
<asrwt>0</asrwt>
<pdfrwt beam="1">  1       21 0.17140193E-02 0.12500000E+03</pdfrwt>
<pdfrwt beam="2">  1       21 0.53940830E-01 0.12500000E+03</pdfrwt>
<totfact> 0.50681728E+06</totfact>
</mgrwt>
</event>
<event>
 3    1  0.1619206E-001  0.1250000E+03  0.7546771E-02  0.1235069E+00
         21   -1    0    0  502  501  0.00000000000E+00  0.00000000000E+00  0.94157625656E+01  0.94157625656E+01  0.00000000000E+00 0.  1.
         21   -1    0    0  501  502 -0.00000000000E+00 -0.00000000000E+00 -0.41486284014E+03  0.41486284014E+03  0.00000000000E+00 0.  1.
         25    1    1    2    0    0  0.00000000000E+00  0.00000000000E+00 -0.40544707757E+03  0.42427860270E+03  0.12500000000E+03 0.  0.
<mgrwt>
<rscale>  0 0.12500000E+03</rscale>
<asrwt>0</asrwt>
<pdfrwt beam="1">  1       21 0.14485791E-02 0.12500000E+03</pdfrwt>
<pdfrwt beam="2">  1       21 0.63825044E-01 0.12500000E+03</pdfrwt>
<totfact> 0.46471598E+06</totfact>
</mgrwt>
</event>
<event>
 3    1  0.1619206E-001  0.1250000E+03  0.7546771E-02  0.1235069E+00
         21   -1    0    0  502  501  0.00000000000E+00  0.00000000000E+00  0.60908936688E+02  0.60908936688E+02  0.00000000000E+00 0. -1.
         21   -1    0    0  501  502 -0.00000000000E+00 -0.00000000000E+00 -0.64132625069E+02  0.64132625069E+02  0.00000000000E+00 0. -1.
         25    1    1    2    0    0  0.00000000000E+00  0.00000000000E+00 -0.32236883809E+01  0.12504156176E+03  0.12500000000E+03 0.  0.
<mgrwt>
<rscale>  0 0.12500000E+03</rscale>
<asrwt>0</asrwt>
<pdfrwt beam="1">  1       21 0.93706057E-02 0.12500000E+03</pdfrwt>
<pdfrwt beam="2">  1       21 0.98665577E-02 0.12500000E+03</pdfrwt>
<totfact> 0.74037968E+06</totfact>
</mgrwt>
</event>
<event>
 3    1  0.1619206E-001  0.1250000E+03  0.7546771E-02  0.1235069E+00
         21   -1    0    0  502  501  0.00000000000E+00  0.00000000000E+00  0.24750501790E+04  0.24750501790E+04  0.00000000000E+00 0.  1.
         21   -1    0    0  501  502 -0.00000000000E+00 -0.00000000000E+00 -0.15782508303E+01  0.15782508303E+01  0.00000000000E+00 0.  1.
         25    1    1    2    0    0  0.00000000000E+00  0.00000000000E+00  0.24734719281E+04  0.24766284298E+04  0.12500000000E+03 0.  0.
<mgrwt>
<rscale>  0 0.12500000E+03</rscale>
<asrwt>0</asrwt>
<pdfrwt beam="1">  1       21 0.38077385E+00 0.12500000E+03</pdfrwt>
<pdfrwt beam="2">  1       21 0.24280980E-03 0.12500000E+03</pdfrwt>
<totfact> 0.41663824E+05</totfact>
</mgrwt>
</event>
<event>
 3    1  0.1619206E-001  0.1250000E+03  0.7546771E-02  0.1235069E+00
         21   -1    0    0  502  501  0.00000000000E+00  0.00000000000E+00  0.31870211764E+02  0.31870211764E+02  0.00000000000E+00 0. -1.
         21   -1    0    0  501  502 -0.00000000000E+00 -0.00000000000E+00 -0.12256743159E+03  0.12256743159E+03  0.00000000000E+00 0. -1.
         25    1    1    2    0    0  0.00000000000E+00  0.00000000000E+00 -0.90697219823E+02  0.15443764335E+03  0.12500000000E+03 0.  0.
<mgrwt>
<rscale>  0 0.12500000E+03</rscale>
<asrwt>0</asrwt>
<pdfrwt beam="1">  1       21 0.49031095E-02 0.12500000E+03</pdfrwt>
<pdfrwt beam="2">  1       21 0.18856528E-01 0.12500000E+03</pdfrwt>
<totfact> 0.70205620E+06</totfact>
</mgrwt>
</event>
<event>
 3    1  0.1619206E-001  0.1250000E+03  0.7546771E-02  0.1235069E+00
         21   -1    0    0  502  501  0.00000000000E+00  0.00000000000E+00  0.81949922961E+01  0.81949922961E+01  0.00000000000E+00 0.  1.
         21   -1    0    0  501  502 -0.00000000000E+00 -0.00000000000E+00 -0.47666304724E+03  0.47666304724E+03  0.00000000000E+00 0.  1.
         25    1    1    2    0    0  0.00000000000E+00  0.00000000000E+00 -0.46846805495E+03  0.48485803954E+03  0.12500000000E+03 0.  0.
<mgrwt>
<rscale>  0 0.12500000E+03</rscale>
<asrwt>0</asrwt>
<pdfrwt beam="1">  1       21 0.12607682E-02 0.12500000E+03</pdfrwt>
<pdfrwt beam="2">  1       21 0.73332770E-01 0.12500000E+03</pdfrwt>
<totfact> 0.42877342E+06</totfact>
</mgrwt>
</event>
<event>
 3    1  0.1619206E-001  0.1250000E+03  0.7546771E-02  0.1235069E+00
         21   -1    0    0  502  501  0.00000000000E+00  0.00000000000E+00  0.85772724372E+03  0.85772724372E+03  0.00000000000E+00 0. -1.
         21   -1    0    0  501  502 -0.00000000000E+00 -0.00000000000E+00 -0.45541866935E+01  0.45541866935E+01  0.00000000000E+00 0. -1.
         25    1    1    2    0    0  0.00000000000E+00  0.00000000000E+00  0.85317305703E+03  0.86228143042E+03  0.12500000000E+03 0.  0.
<mgrwt>
<rscale>  0 0.12500000E+03</rscale>
<asrwt>0</asrwt>
<pdfrwt beam="1">  1       21 0.13195791E+00 0.12500000E+03</pdfrwt>
<pdfrwt beam="2">  1       21 0.70064479E-03 0.12500000E+03</pdfrwt>
<totfact> 0.27400201E+06</totfact>
</mgrwt>
</event>
<event>
 3    1  0.1619206E-001  0.1250000E+03  0.7546771E-02  0.1235069E+00
         21   -1    0    0  502  501  0.00000000000E+00  0.00000000000E+00  0.39893805947E+03  0.39893805947E+03  0.00000000000E+00 0.  1.
         21   -1    0    0  501  502 -0.00000000000E+00 -0.00000000000E+00 -0.97916202960E+01  0.97916202960E+01  0.00000000000E+00 0.  1.
         25    1    1    2    0    0  0.00000000000E+00  0.00000000000E+00  0.38914643918E+03  0.40872967977E+03  0.12500000000E+03 0.  0.
<mgrwt>
<rscale>  0 0.12500000E+03</rscale>
<asrwt>0</asrwt>
<pdfrwt beam="1">  1       21 0.61375073E-01 0.12500000E+03</pdfrwt>
<pdfrwt beam="2">  1       21 0.15064034E-02 0.12500000E+03</pdfrwt>
<totfact> 0.47467666E+06</totfact>
</mgrwt>
</event>
<event>
 3    1  0.1619206E-001  0.1250000E+03  0.7546771E-02  0.1235069E+00
         21   -1    0    0  502  501  0.00000000000E+00  0.00000000000E+00  0.21882587322E+02  0.21882587322E+02  0.00000000000E+00 0.  1.
         21   -1    0    0  501  502 -0.00000000000E+00 -0.00000000000E+00 -0.17850951272E+03  0.17850951272E+03  0.00000000000E+00 0.  1.
         25    1    1    2    0    0  0.00000000000E+00  0.00000000000E+00 -0.15662692540E+03  0.20039210005E+03  0.12500000000E+03 0.  0.
<mgrwt>
<rscale>  0 0.12500000E+03</rscale>
<asrwt>0</asrwt>
<pdfrwt beam="1">  1       21 0.33665519E-02 0.12500000E+03</pdfrwt>
<pdfrwt beam="2">  1       21 0.27463002E-01 0.12500000E+03</pdfrwt>
<totfact> 0.64884791E+06</totfact>
</mgrwt>
</event>
<event>
 3    1  0.1619206E-001  0.1250000E+03  0.7546771E-02  0.1235069E+00
         21   -1    0    0  502  501  0.00000000000E+00  0.00000000000E+00  0.44775464641E+03  0.44775464641E+03  0.00000000000E+00 0. -1.
         21   -1    0    0  501  502 -0.00000000000E+00 -0.00000000000E+00 -0.87240859059E+01  0.87240859059E+01  0.00000000000E+00 0. -1.
         25    1    1    2    0    0  0.00000000000E+00  0.00000000000E+00  0.43903056050E+03  0.45647873231E+03  0.12500000000E+03 0.  0.
<mgrwt>
<rscale>  0 0.12500000E+03</rscale>
<asrwt>0</asrwt>
<pdfrwt beam="1">  1       21 0.68885312E-01 0.12500000E+03</pdfrwt>
<pdfrwt beam="2">  1       21 0.13421674E-02 0.12500000E+03</pdfrwt>
<totfact> 0.44507124E+06</totfact>
</mgrwt>
</event>
<event>
 3    1  0.1619206E-001  0.1250000E+03  0.7546771E-02  0.1235069E+00
         21   -1    0    0  502  501  0.00000000000E+00  0.00000000000E+00  0.74643661230E+03  0.74643661230E+03  0.00000000000E+00 0.  1.
         21   -1    0    0  501  502 -0.00000000000E+00 -0.00000000000E+00 -0.52331972141E+01  0.52331972141E+01  0.00000000000E+00 0.  1.
         25    1    1    2    0    0  0.00000000000E+00  0.00000000000E+00  0.74120341509E+03  0.75166980952E+03  0.12500000000E+03 0.  0.
<mgrwt>
<rscale>  0 0.12500000E+03</rscale>
<asrwt>0</asrwt>
<pdfrwt beam="1">  1       21 0.11483632E+00 0.12500000E+03</pdfrwt>
<pdfrwt beam="2">  1       21 0.80510786E-03 0.12500000E+03</pdfrwt>
<totfact> 0.31010236E+06</totfact>
</mgrwt>
</event>
<event>
 3    1  0.1619206E-001  0.1250000E+03  0.7546771E-02  0.1235069E+00
         21   -1    0    0  502  501  0.00000000000E+00  0.00000000000E+00  0.21833405379E+03  0.21833405379E+03  0.00000000000E+00 0.  1.
         21   -1    0    0  501  502 -0.00000000000E+00 -0.00000000000E+00 -0.17891162337E+02  0.17891162337E+02  0.00000000000E+00 0.  1.
         25    1    1    2    0    0  0.00000000000E+00  0.00000000000E+00  0.20044289145E+03  0.23622521612E+03  0.12500000000E+03 0.  0.
<mgrwt>
<rscale>  0 0.12500000E+03</rscale>
<asrwt>0</asrwt>
<pdfrwt beam="1">  1       21 0.33589853E-01 0.12500000E+03</pdfrwt>
<pdfrwt beam="2">  1       21 0.27524867E-02 0.12500000E+03</pdfrwt>
<totfact> 0.61199865E+06</totfact>
</mgrwt>
</event>
<event>
 3    1  0.1619206E-001  0.1250000E+03  0.7546771E-02  0.1235069E+00
         21   -1    0    0  502  501  0.00000000000E+00  0.00000000000E+00  0.32466013776E+02  0.32466013776E+02  0.00000000000E+00 0. -1.
         21   -1    0    0  501  502 -0.00000000000E+00 -0.00000000000E+00 -0.12031812796E+03  0.12031812796E+03  0.00000000000E+00 0. -1.
         25    1    1    2    0    0  0.00000000000E+00  0.00000000000E+00 -0.87852114186E+02  0.15278414174E+03  0.12500000000E+03 0.  0.
<mgrwt>
<rscale>  0 0.12500000E+03</rscale>
<asrwt>0</asrwt>
<pdfrwt beam="1">  1       21 0.49947713E-02 0.12500000E+03</pdfrwt>
<pdfrwt beam="2">  1       21 0.18510481E-01 0.12500000E+03</pdfrwt>
<totfact> 0.70411189E+06</totfact>
</mgrwt>
</event>
<event>
 3    1  0.1619206E-001  0.1250000E+03  0.7546771E-02  0.1235069E+00
         21   -1    0    0  502  501  0.00000000000E+00  0.00000000000E+00  0.17070699789E+02  0.17070699789E+02  0.00000000000E+00 0.  1.
         21   -1    0    0  501  502 -0.00000000000E+00 -0.00000000000E+00 -0.22882776033E+03  0.22882776033E+03  0.00000000000E+00 0.  1.
         25    1    1    2    0    0  0.00000000000E+00  0.00000000000E+00 -0.21175706055E+03  0.24589846012E+03  0.12500000000E+03 0.  0.
<mgrwt>
<rscale>  0 0.12500000E+03</rscale>
<asrwt>0</asrwt>
<pdfrwt beam="1">  1       21 0.26262619E-02 0.12500000E+03</pdfrwt>
<pdfrwt beam="2">  1       21 0.35204266E-01 0.12500000E+03</pdfrwt>
<totfact> 0.60266509E+06</totfact>
</mgrwt>
</event>
<event>
 3    1  0.1619206E-001  0.1250000E+03  0.7546771E-02  0.1235069E+00
         21   -1    0    0  502  501  0.00000000000E+00  0.00000000000E+00  0.14819104028E+03  0.14819104028E+03  0.00000000000E+00 0. -1.
         21   -1    0    0  501  502 -0.00000000000E+00 -0.00000000000E+00 -0.26359555832E+02  0.26359555832E+02  0.00000000000E+00 0. -1.
         25    1    1    2    0    0  0.00000000000E+00  0.00000000000E+00  0.12183148444E+03  0.17455059611E+03  0.12500000000E+03 0.  0.
<mgrwt>
<rscale>  0 0.12500000E+03</rscale>
<asrwt>0</asrwt>
<pdfrwt beam="1">  1       21 0.22798621E-01 0.12500000E+03</pdfrwt>
<pdfrwt beam="2">  1       21 0.40553164E-02 0.12500000E+03</pdfrwt>
<totfact> 0.67782241E+06</totfact>
</mgrwt>
</event>
<event>
 3    1  0.1619206E-001  0.1250000E+03  0.7546771E-02  0.1235069E+00
         21   -1    0    0  502  501  0.00000000000E+00  0.00000000000E+00  0.25399637196E+03  0.25399637196E+03  0.00000000000E+00 0. -1.
         21   -1    0    0  501  502 -0.00000000000E+00 -0.00000000000E+00 -0.15379156678E+02  0.15379156678E+02  0.00000000000E+00 0. -1.
         25    1    1    2    0    0  0.00000000000E+00  0.00000000000E+00  0.23861721528E+03  0.26937552864E+03  0.12500000000E+03 0.  0.
<mgrwt>
<rscale>  0 0.12500000E+03</rscale>
<asrwt>0</asrwt>
<pdfrwt beam="1">  1       21 0.39076362E-01 0.12500000E+03</pdfrwt>
<pdfrwt beam="2">  1       21 0.23660243E-02 0.12500000E+03</pdfrwt>
<totfact> 0.58100467E+06</totfact>
</mgrwt>
</event>
<event>
 3    1  0.1619206E-001  0.1250000E+03  0.7546771E-02  0.1235069E+00
         21   -1    0    0  502  501  0.00000000000E+00  0.00000000000E+00  0.16470130867E+03  0.16470130867E+03  0.00000000000E+00 0.  1.
         21   -1    0    0  501  502 -0.00000000000E+00 -0.00000000000E+00 -0.23717176454E+02  0.23717176454E+02  0.00000000000E+00 0.  1.
         25    1    1    2    0    0  0.00000000000E+00  0.00000000000E+00  0.14098413222E+03  0.18841848512E+03  0.12500000000E+03 0.  0.
<mgrwt>
<rscale>  0 0.12500000E+03</rscale>
<asrwt>0</asrwt>
<pdfrwt beam="1">  1       21 0.25338662E-01 0.12500000E+03</pdfrwt>
<pdfrwt beam="2">  1       21 0.36487965E-02 0.12500000E+03</pdfrwt>
<totfact> 0.66198667E+06</totfact>
</mgrwt>
</event>
<event>
 3    1  0.1619206E-001  0.1250000E+03  0.7546771E-02  0.1235069E+00
         21   -1    0    0  502  501  0.00000000000E+00  0.00000000000E+00  0.30337100190E+02  0.30337100190E+02  0.00000000000E+00 0. -1.
         21   -1    0    0  501  502 -0.00000000000E+00 -0.00000000000E+00 -0.12876148266E+03  0.12876148266E+03  0.00000000000E+00 0. -1.
         25    1    1    2    0    0  0.00000000000E+00  0.00000000000E+00 -0.98424382467E+02  0.15909858285E+03  0.12500000000E+03 0.  0.
<mgrwt>
<rscale>  0 0.12500000E+03</rscale>
<asrwt>0</asrwt>
<pdfrwt beam="1">  1       21 0.46672462E-02 0.12500000E+03</pdfrwt>
<pdfrwt beam="2">  1       21 0.19809459E-01 0.12500000E+03</pdfrwt>
<totfact> 0.69629807E+06</totfact>
</mgrwt>
</event>
<event>
 3    1  0.1619206E-001  0.1250000E+03  0.7546771E-02  0.1235069E+00
         21   -1    0    0  502  501  0.00000000000E+00  0.00000000000E+00  0.57539936655E+03  0.57539936655E+03  0.00000000000E+00 0.  1.
         21   -1    0    0  501  502 -0.00000000000E+00 -0.00000000000E+00 -0.67887631220E+01  0.67887631220E+01  0.00000000000E+00 0.  1.
         25    1    1    2    0    0  0.00000000000E+00  0.00000000000E+00  0.56861060342E+03  0.58218812967E+03  0.12500000000E+03 0.  0.
<mgrwt>
<rscale>  0 0.12500000E+03</rscale>
<asrwt>0</asrwt>
<pdfrwt beam="1">  1       21 0.88522941E-01 0.12500000E+03</pdfrwt>
<pdfrwt beam="2">  1       21 0.10444255E-02 0.12500000E+03</pdfrwt>
<totfact> 0.37910752E+06</totfact>
</mgrwt>
</event>
<event>
 3    1  0.1619206E-001  0.1250000E+03  0.7546771E-02  0.1235069E+00
         21   -1    0    0  502  501  0.00000000000E+00  0.00000000000E+00  0.20114950157E+01  0.20114950157E+01  0.00000000000E+00 0. -1.
         21   -1    0    0  501  502 -0.00000000000E+00 -0.00000000000E+00 -0.19419635493E+04  0.19419635493E+04  0.00000000000E+00 0. -1.
         25    1    1    2    0    0  0.00000000000E+00  0.00000000000E+00 -0.19399520543E+04  0.19439750443E+04  0.12500000000E+03 0.  0.
<mgrwt>
<rscale>  0 0.12500000E+03</rscale>
<asrwt>0</asrwt>
<pdfrwt beam="1">  1       21 0.30946179E-03 0.12500000E+03</pdfrwt>
<pdfrwt beam="2">  1       21 0.29876264E+00 0.12500000E+03</pdfrwt>
<totfact> 0.85073858E+05</totfact>
</mgrwt>
</event>
<event>
 3    1  0.1619206E-001  0.1250000E+03  0.7546771E-02  0.1235069E+00
         21   -1    0    0  502  501  0.00000000000E+00  0.00000000000E+00  0.13429377723E+02  0.13429377723E+02  0.00000000000E+00 0.  1.
         21   -1    0    0  501  502 -0.00000000000E+00 -0.00000000000E+00 -0.29087349248E+03  0.29087349248E+03  0.00000000000E+00 0.  1.
         25    1    1    2    0    0  0.00000000000E+00  0.00000000000E+00 -0.27744411476E+03  0.30430287020E+03  0.12500000000E+03 0.  0.
<mgrwt>
<rscale>  0 0.12500000E+03</rscale>
<asrwt>0</asrwt>
<pdfrwt beam="1">  1       21 0.20660583E-02 0.12500000E+03</pdfrwt>
<pdfrwt beam="2">  1       21 0.44749764E-01 0.12500000E+03</pdfrwt>
<totfact> 0.55100475E+06</totfact>
</mgrwt>
</event>
<event>
 3    1  0.1619206E-001  0.1250000E+03  0.7546771E-02  0.1235069E+00
         21   -1    0    0  502  501  0.00000000000E+00  0.00000000000E+00  0.42538957996E+01  0.42538957996E+01  0.00000000000E+00 0. -1.
         21   -1    0    0  501  502 -0.00000000000E+00 -0.00000000000E+00 -0.91827590143E+03  0.91827590143E+03  0.00000000000E+00 0. -1.
         25    1    1    2    0    0  0.00000000000E+00  0.00000000000E+00 -0.91402200563E+03  0.92252979723E+03  0.12500000000E+03 0.  0.
<mgrwt>
<rscale>  0 0.12500000E+03</rscale>
<asrwt>0</asrwt>
<pdfrwt beam="1">  1       21 0.65444601E-03 0.12500000E+03</pdfrwt>
<pdfrwt beam="2">  1       21 0.14127311E+00 0.12500000E+03</pdfrwt>
<totfact> 0.25661590E+06</totfact>
</mgrwt>
</event>
<event>
 3    1  0.1619206E-001  0.1250000E+03  0.7546771E-02  0.1235069E+00
         21   -1    0    0  502  501  0.00000000000E+00  0.00000000000E+00  0.18096874194E+02  0.18096874194E+02  0.00000000000E+00 0.  1.
         21   -1    0    0  501  502 -0.00000000000E+00 -0.00000000000E+00 -0.21585219403E+03  0.21585219403E+03  0.00000000000E+00 0.  1.
         25    1    1    2    0    0  0.00000000000E+00  0.00000000000E+00 -0.19775531984E+03  0.23394906823E+03  0.12500000000E+03 0.  0.
<mgrwt>
<rscale>  0 0.12500000E+03</rscale>
<asrwt>0</asrwt>
<pdfrwt beam="1">  1       21 0.27841347E-02 0.12500000E+03</pdfrwt>
<pdfrwt beam="2">  1       21 0.33208028E-01 0.12500000E+03</pdfrwt>
<totfact> 0.61423161E+06</totfact>
</mgrwt>
</event>
<event>
 3    1  0.1619206E-001  0.1250000E+03  0.7546771E-02  0.1235069E+00
         21   -1    0    0  502  501  0.00000000000E+00  0.00000000000E+00  0.42574141210E+01  0.42574141210E+01  0.00000000000E+00 0. -1.
         21   -1    0    0  501  502 -0.00000000000E+00 -0.00000000000E+00 -0.91751703945E+03  0.91751703945E+03  0.00000000000E+00 0. -1.
         25    1    1    2    0    0  0.00000000000E+00  0.00000000000E+00 -0.91325962533E+03  0.92177445357E+03  0.12500000000E+03 0.  0.
<mgrwt>
<rscale>  0 0.12500000E+03</rscale>
<asrwt>0</asrwt>
<pdfrwt beam="1">  1       21 0.65498530E-03 0.12500000E+03</pdfrwt>
<pdfrwt beam="2">  1       21 0.14115679E+00 0.12500000E+03</pdfrwt>
<totfact> 0.25682561E+06</totfact>
</mgrwt>
</event>
<event>
 3    1  0.1619206E-001  0.1250000E+03  0.7546771E-02  0.1235069E+00
         21   -1    0    0  502  501  0.00000000000E+00  0.00000000000E+00  0.65621677422E+01  0.65621677422E+01  0.00000000000E+00 0.  1.
         21   -1    0    0  501  502 -0.00000000000E+00 -0.00000000000E+00 -0.59526823353E+03  0.59526823353E+03  0.00000000000E+00 0.  1.
         25    1    1    2    0    0  0.00000000000E+00  0.00000000000E+00 -0.58870606578E+03  0.60183040127E+03  0.12500000000E+03 0.  0.
<mgrwt>
<rscale>  0 0.12500000E+03</rscale>
<asrwt>0</asrwt>
<pdfrwt beam="1">  1       21 0.10095639E-02 0.12500000E+03</pdfrwt>
<pdfrwt beam="2">  1       21 0.91579759E-01 0.12500000E+03</pdfrwt>
<totfact> 0.37009975E+06</totfact>
</mgrwt>
</event>
<event>
 3    1  0.1619206E-001  0.1250000E+03  0.7546771E-02  0.1235069E+00
         21   -1    0    0  502  501  0.00000000000E+00  0.00000000000E+00  0.11363362059E+03  0.11363362059E+03  0.00000000000E+00 0. -1.
         21   -1    0    0  501  502 -0.00000000000E+00 -0.00000000000E+00 -0.34375829793E+02  0.34375829793E+02  0.00000000000E+00 0. -1.
         25    1    1    2    0    0  0.00000000000E+00  0.00000000000E+00  0.79257790794E+02  0.14800945038E+03  0.12500000000E+03 0.  0.
<mgrwt>
<rscale>  0 0.12500000E+03</rscale>
<asrwt>0</asrwt>
<pdfrwt beam="1">  1       21 0.17482095E-01 0.12500000E+03</pdfrwt>
<pdfrwt beam="2">  1       21 0.52885893E-02 0.12500000E+03</pdfrwt>
<totfact> 0.71010154E+06</totfact>
</mgrwt>
</event>
<event>
 3    1  0.1619206E-001  0.1250000E+03  0.7546771E-02  0.1235069E+00
         21   -1    0    0  502  501  0.00000000000E+00  0.00000000000E+00  0.86993302034E+02  0.86993302034E+02  0.00000000000E+00 0.  1.
         21   -1    0    0  501  502 -0.00000000000E+00 -0.00000000000E+00 -0.44902882276E+02  0.44902882276E+02  0.00000000000E+00 0.  1.
         25    1    1    2    0    0  0.00000000000E+00  0.00000000000E+00  0.42090419758E+02  0.13189618431E+03  0.12500000000E+03 0.  0.
<mgrwt>
<rscale>  0 0.12500000E+03</rscale>
<asrwt>0</asrwt>
<pdfrwt beam="1">  1       21 0.13383585E-01 0.12500000E+03</pdfrwt>
<pdfrwt beam="2">  1       21 0.69081357E-02 0.12500000E+03</pdfrwt>
<totfact> 0.73110157E+06</totfact>
</mgrwt>
</event>
<event>
 3    1  0.1619206E-001  0.1250000E+03  0.7546771E-02  0.1235069E+00
         21   -1    0    0  502  501  0.00000000000E+00  0.00000000000E+00  0.20736602600E+02  0.20736602600E+02  0.00000000000E+00 0.  1.
         21   -1    0    0  501  502 -0.00000000000E+00 -0.00000000000E+00 -0.18837463760E+03  0.18837463760E+03  0.00000000000E+00 0.  1.
         25    1    1    2    0    0  0.00000000000E+00  0.00000000000E+00 -0.16763803500E+03  0.20911124020E+03  0.12500000000E+03 0.  0.
<mgrwt>
<rscale>  0 0.12500000E+03</rscale>
<asrwt>0</asrwt>
<pdfrwt beam="1">  1       21 0.31902466E-02 0.12500000E+03</pdfrwt>
<pdfrwt beam="2">  1       21 0.28980713E-01 0.12500000E+03</pdfrwt>
<totfact> 0.63953165E+06</totfact>
</mgrwt>
</event>
<event>
 3    1  0.1619206E-001  0.1250000E+03  0.7546771E-02  0.1235069E+00
         21   -1    0    0  502  501  0.00000000000E+00  0.00000000000E+00  0.12951167630E+03  0.12951167630E+03  0.00000000000E+00 0.  1.
         21   -1    0    0  501  502 -0.00000000000E+00 -0.00000000000E+00 -0.30161373179E+02  0.30161373179E+02  0.00000000000E+00 0.  1.
         25    1    1    2    0    0  0.00000000000E+00  0.00000000000E+00  0.99350303123E+02  0.15967304948E+03  0.12500000000E+03 0.  0.
<mgrwt>
<rscale>  0 0.12500000E+03</rscale>
<asrwt>0</asrwt>
<pdfrwt beam="1">  1       21 0.19924873E-01 0.12500000E+03</pdfrwt>
<pdfrwt beam="2">  1       21 0.46402113E-02 0.12500000E+03</pdfrwt>
<totfact> 0.69559468E+06</totfact>
</mgrwt>
</event>
<event>
 3    1  0.1619206E-001  0.1250000E+03  0.7546771E-02  0.1235069E+00
         21   -1    0    0  502  501  0.00000000000E+00  0.00000000000E+00  0.50411037274E+01  0.50411037274E+01  0.00000000000E+00 0. -1.
         21   -1    0    0  501  502 -0.00000000000E+00 -0.00000000000E+00 -0.77487990949E+03  0.77487990949E+03  0.00000000000E+00 0. -1.
         25    1    1    2    0    0  0.00000000000E+00  0.00000000000E+00 -0.76983880576E+03  0.77992101322E+03  0.12500000000E+03 0.  0.
<mgrwt>
<rscale>  0 0.12500000E+03</rscale>
<asrwt>0</asrwt>
<pdfrwt beam="1">  1       21 0.77555479E-03 0.12500000E+03</pdfrwt>
<pdfrwt beam="2">  1       21 0.11921224E+00 0.12500000E+03</pdfrwt>
<totfact> 0.30038962E+06</totfact>
</mgrwt>
</event>
<event>
 3    1  0.1619206E-001  0.1250000E+03  0.7546771E-02  0.1235069E+00
         21   -1    0    0  502  501  0.00000000000E+00  0.00000000000E+00  0.39519832191E+03  0.39519832191E+03  0.00000000000E+00 0.  1.
         21   -1    0    0  501  502 -0.00000000000E+00 -0.00000000000E+00 -0.98842778004E+01  0.98842778004E+01  0.00000000000E+00 0.  1.
         25    1    1    2    0    0  0.00000000000E+00  0.00000000000E+00  0.38531404411E+03  0.40508259971E+03  0.12500000000E+03 0.  0.
<mgrwt>
<rscale>  0 0.12500000E+03</rscale>
<asrwt>0</asrwt>
<pdfrwt beam="1">  1       21 0.60799729E-01 0.12500000E+03</pdfrwt>
<pdfrwt beam="2">  1       21 0.15206584E-02 0.12500000E+03</pdfrwt>
<totfact> 0.47706050E+06</totfact>
</mgrwt>
</event>
<event>
 3    1  0.1619206E-001  0.1250000E+03  0.7546771E-02  0.1235069E+00
         21   -1    0    0  502  501  0.00000000000E+00  0.00000000000E+00  0.34326511824E+01  0.34326511824E+01  0.00000000000E+00 0.  1.
         21   -1    0    0  501  502 -0.00000000000E+00 -0.00000000000E+00 -0.11379688155E+04  0.11379688155E+04  0.00000000000E+00 0.  1.
         25    1    1    2    0    0  0.00000000000E+00  0.00000000000E+00 -0.11345361643E+04  0.11414014667E+04  0.12500000000E+03 0.  0.
<mgrwt>
<rscale>  0 0.12500000E+03</rscale>
<asrwt>0</asrwt>
<pdfrwt beam="1">  1       21 0.52810026E-03 0.12500000E+03</pdfrwt>
<pdfrwt beam="2">  1       21 0.17507210E+00 0.12500000E+03</pdfrwt>
<totfact> 0.20351639E+06</totfact>
</mgrwt>
</event>
<event>
 3    1  0.1619206E-001  0.1250000E+03  0.7546771E-02  0.1235069E+00
         21   -1    0    0  502  501  0.00000000000E+00  0.00000000000E+00  0.20726897173E+02  0.20726897173E+02  0.00000000000E+00 0.  1.
         21   -1    0    0  501  502 -0.00000000000E+00 -0.00000000000E+00 -0.18846284456E+03  0.18846284456E+03  0.00000000000E+00 0.  1.
         25    1    1    2    0    0  0.00000000000E+00  0.00000000000E+00 -0.16773594738E+03  0.20918974173E+03  0.12500000000E+03 0.  0.
<mgrwt>
<rscale>  0 0.12500000E+03</rscale>
<asrwt>0</asrwt>
<pdfrwt beam="1">  1       21 0.31887535E-02 0.12500000E+03</pdfrwt>
<pdfrwt beam="2">  1       21 0.28994283E-01 0.12500000E+03</pdfrwt>
<totfact> 0.63944885E+06</totfact>
</mgrwt>
</event>
<event>
 3    1  0.1619206E-001  0.1250000E+03  0.7546771E-02  0.1235069E+00
         21   -1    0    0  502  501  0.00000000000E+00  0.00000000000E+00  0.96639407664E+02  0.96639407664E+02  0.00000000000E+00 0. -1.
         21   -1    0    0  501  502 -0.00000000000E+00 -0.00000000000E+00 -0.40420881030E+02  0.40420881030E+02  0.00000000000E+00 0. -1.
         25    1    1    2    0    0  0.00000000000E+00  0.00000000000E+00  0.56218526635E+02  0.13706028869E+03  0.12500000000E+03 0.  0.
<mgrwt>
<rscale>  0 0.12500000E+03</rscale>
<asrwt>0</asrwt>
<pdfrwt beam="1">  1       21 0.14867601E-01 0.12500000E+03</pdfrwt>
<pdfrwt beam="2">  1       21 0.62185971E-02 0.12500000E+03</pdfrwt>
<totfact> 0.72424809E+06</totfact>
</mgrwt>
</event>
<event>
 3    1  0.1619206E-001  0.1250000E+03  0.7546771E-02  0.1235069E+00
         21   -1    0    0  502  501  0.00000000000E+00  0.00000000000E+00  0.33977633888E+02  0.33977633888E+02  0.00000000000E+00 0.  1.
         21   -1    0    0  501  502 -0.00000000000E+00 -0.00000000000E+00 -0.11496533316E+03  0.11496533316E+03  0.00000000000E+00 0.  1.
         25    1    1    2    0    0  0.00000000000E+00  0.00000000000E+00 -0.80987699275E+02  0.14894296705E+03  0.12500000000E+03 0.  0.
<mgrwt>
<rscale>  0 0.12500000E+03</rscale>
<asrwt>0</asrwt>
<pdfrwt beam="1">  1       21 0.52273282E-02 0.12500000E+03</pdfrwt>
<pdfrwt beam="2">  1       21 0.17686975E-01 0.12500000E+03</pdfrwt>
<totfact> 0.70892237E+06</totfact>
</mgrwt>
</event>
<event>
 3    1  0.1619206E-001  0.1250000E+03  0.7546771E-02  0.1235069E+00
         21   -1    0    0  502  501  0.00000000000E+00  0.00000000000E+00  0.69553195145E+02  0.69553195145E+02  0.00000000000E+00 0.  1.
         21   -1    0    0  501  502 -0.00000000000E+00 -0.00000000000E+00 -0.56162049664E+02  0.56162049664E+02  0.00000000000E+00 0.  1.
         25    1    1    2    0    0  0.00000000000E+00  0.00000000000E+00  0.13391145482E+02  0.12571524481E+03  0.12500000000E+03 0.  0.
<mgrwt>
<rscale>  0 0.12500000E+03</rscale>
<asrwt>0</asrwt>
<pdfrwt beam="1">  1       21 0.10700492E-01 0.12500000E+03</pdfrwt>
<pdfrwt beam="2">  1       21 0.86403154E-02 0.12500000E+03</pdfrwt>
<totfact> 0.73945421E+06</totfact>
</mgrwt>
</event>
<event>
 3    1  0.1619206E-001  0.1250000E+03  0.7546771E-02  0.1235069E+00
         21   -1    0    0  502  501  0.00000000000E+00  0.00000000000E+00  0.96552134949E+01  0.96552134949E+01  0.00000000000E+00 0. -1.
         21   -1    0    0  501  502 -0.00000000000E+00 -0.00000000000E+00 -0.40457417146E+03  0.40457417146E+03  0.00000000000E+00 0. -1.
         25    1    1    2    0    0  0.00000000000E+00  0.00000000000E+00 -0.39491895797E+03  0.41422938496E+03  0.12500000000E+03 0.  0.
<mgrwt>
<rscale>  0 0.12500000E+03</rscale>
<asrwt>0</asrwt>
<pdfrwt beam="1">  1       21 0.14854176E-02 0.12500000E+03</pdfrwt>
<pdfrwt beam="2">  1       21 0.62242176E-01 0.12500000E+03</pdfrwt>
<totfact> 0.47111636E+06</totfact>
</mgrwt>
</event>
<event>
 3    1  0.1619206E-001  0.1250000E+03  0.7546771E-02  0.1235069E+00
         21   -1    0    0  502  501  0.00000000000E+00  0.00000000000E+00  0.36229250161E+01  0.36229250161E+01  0.00000000000E+00 0. -1.
         21   -1    0    0  501  502 -0.00000000000E+00 -0.00000000000E+00 -0.10782033806E+04  0.10782033806E+04  0.00000000000E+00 0. -1.
         25    1    1    2    0    0  0.00000000000E+00  0.00000000000E+00 -0.10745804556E+04  0.10818263056E+04  0.12500000000E+03 0.  0.
<mgrwt>
<rscale>  0 0.12500000E+03</rscale>
<asrwt>0</asrwt>
<pdfrwt beam="1">  1       21 0.55737258E-03 0.12500000E+03</pdfrwt>
<pdfrwt beam="2">  1       21 0.16587759E+00 0.12500000E+03</pdfrwt>
<totfact> 0.21660157E+06</totfact>
</mgrwt>
</event>
<event>
 3    1  0.1619206E-001  0.1250000E+03  0.7546771E-02  0.1235069E+00
         21   -1    0    0  502  501  0.00000000000E+00  0.00000000000E+00  0.44618471142E+02  0.44618471142E+02  0.00000000000E+00 0.  1.
         21   -1    0    0  501  502 -0.00000000000E+00 -0.00000000000E+00 -0.87547822685E+02  0.87547822685E+02  0.00000000000E+00 0.  1.
         25    1    1    2    0    0  0.00000000000E+00  0.00000000000E+00 -0.42929351543E+02  0.13216629383E+03  0.12500000000E+03 0.  0.
<mgrwt>
<rscale>  0 0.12500000E+03</rscale>
<asrwt>0</asrwt>
<pdfrwt beam="1">  1       21 0.68643803E-02 0.12500000E+03</pdfrwt>
<pdfrwt beam="2">  1       21 0.13468896E-01 0.12500000E+03</pdfrwt>
<totfact> 0.73073932E+06</totfact>
</mgrwt>
</event>
<event>
 3    1  0.1619206E-001  0.1250000E+03  0.7546771E-02  0.1235069E+00
         21   -1    0    0  502  501  0.00000000000E+00  0.00000000000E+00  0.10624886131E+02  0.10624886131E+02  0.00000000000E+00 0. -1.
         21   -1    0    0  501  502 -0.00000000000E+00 -0.00000000000E+00 -0.36765099898E+03  0.36765099898E+03  0.00000000000E+00 0. -1.
         25    1    1    2    0    0  0.00000000000E+00  0.00000000000E+00 -0.35702611285E+03  0.37827588511E+03  0.12500000000E+03 0.  0.
<mgrwt>
<rscale>  0 0.12500000E+03</rscale>
<asrwt>0</asrwt>
<pdfrwt beam="1">  1       21 0.16345977E-02 0.12500000E+03</pdfrwt>
<pdfrwt beam="2">  1       21 0.56561698E-01 0.12500000E+03</pdfrwt>
<totfact> 0.49515601E+06</totfact>
</mgrwt>
</event>
<event>
 3    1  0.1619206E-001  0.1250000E+03  0.7546771E-02  0.1235069E+00
         21   -1    0    0  502  501  0.00000000000E+00  0.00000000000E+00  0.12064980334E+02  0.12064980334E+02  0.00000000000E+00 0. -1.
         21   -1    0    0  501  502 -0.00000000000E+00 -0.00000000000E+00 -0.32376762265E+03  0.32376762265E+03  0.00000000000E+00 0. -1.
         25    1    1    2    0    0  0.00000000000E+00  0.00000000000E+00 -0.31170264232E+03  0.33583260298E+03  0.12500000000E+03 0.  0.
<mgrwt>
<rscale>  0 0.12500000E+03</rscale>
<asrwt>0</asrwt>
<pdfrwt beam="1">  1       21 0.18561509E-02 0.12500000E+03</pdfrwt>
<pdfrwt beam="2">  1       21 0.49810402E-01 0.12500000E+03</pdfrwt>
<totfact> 0.52602064E+06</totfact>
</mgrwt>
</event>
<event>
 3    1  0.1619206E-001  0.1250000E+03  0.7546771E-02  0.1235069E+00
         21   -1    0    0  502  501  0.00000000000E+00  0.00000000000E+00  0.42356576646E+02  0.42356576646E+02  0.00000000000E+00 0.  1.
         21   -1    0    0  501  502 -0.00000000000E+00 -0.00000000000E+00 -0.92222986589E+02  0.92222986589E+02  0.00000000000E+00 0.  1.
         25    1    1    2    0    0  0.00000000000E+00  0.00000000000E+00 -0.49866409943E+02  0.13457956324E+03  0.12500000000E+03 0.  0.
<mgrwt>
<rscale>  0 0.12500000E+03</rscale>
<asrwt>0</asrwt>
<pdfrwt beam="1">  1       21 0.65163965E-02 0.12500000E+03</pdfrwt>
<pdfrwt beam="2">  1       21 0.14188152E-01 0.12500000E+03</pdfrwt>
<totfact> 0.72752189E+06</totfact>
</mgrwt>
</event>
<event>
 3    1  0.1619206E-001  0.1250000E+03  0.7546771E-02  0.1235069E+00
         21   -1    0    0  502  501  0.00000000000E+00  0.00000000000E+00  0.14612083473E+03  0.14612083473E+03  0.00000000000E+00 0.  1.
         21   -1    0    0  501  502 -0.00000000000E+00 -0.00000000000E+00 -0.26733011807E+02  0.26733011807E+02  0.00000000000E+00 0.  1.
         25    1    1    2    0    0  0.00000000000E+00  0.00000000000E+00  0.11938782292E+03  0.17285384653E+03  0.12500000000E+03 0.  0.
<mgrwt>
<rscale>  0 0.12500000E+03</rscale>
<asrwt>0</asrwt>
<pdfrwt beam="1">  1       21 0.22480128E-01 0.12500000E+03</pdfrwt>
<pdfrwt beam="2">  1       21 0.41127711E-02 0.12500000E+03</pdfrwt>
<totfact> 0.67980928E+06</totfact>
</mgrwt>
</event>
<event>
 3    1  0.1619206E-001  0.1250000E+03  0.7546771E-02  0.1235069E+00
         21   -1    0    0  502  501  0.00000000000E+00  0.00000000000E+00  0.28747353036E+02  0.28747353036E+02  0.00000000000E+00 0. -1.
         21   -1    0    0  501  502 -0.00000000000E+00 -0.00000000000E+00 -0.13588207565E+03  0.13588207565E+03  0.00000000000E+00 0. -1.
         25    1    1    2    0    0  0.00000000000E+00  0.00000000000E+00 -0.10713472261E+03  0.16462942869E+03  0.12500000000E+03 0.  0.
<mgrwt>
<rscale>  0 0.12500000E+03</rscale>
<asrwt>0</asrwt>
<pdfrwt beam="1">  1       21 0.44226697E-02 0.12500000E+03</pdfrwt>
<pdfrwt beam="2">  1       21 0.20904935E-01 0.12500000E+03</pdfrwt>
<totfact> 0.68958208E+06</totfact>
</mgrwt>
</event>
<event>
 3    1  0.1619206E-001  0.1250000E+03  0.7546771E-02  0.1235069E+00
         21   -1    0    0  502  501  0.00000000000E+00  0.00000000000E+00  0.12311204535E+04  0.12311204535E+04  0.00000000000E+00 0. -1.
         21   -1    0    0  501  502 -0.00000000000E+00 -0.00000000000E+00 -0.31729226730E+01  0.31729226730E+01  0.00000000000E+00 0. -1.
         25    1    1    2    0    0  0.00000000000E+00  0.00000000000E+00  0.12279475308E+04  0.12342933761E+04  0.12500000000E+03 0.  0.
<mgrwt>
<rscale>  0 0.12500000E+03</rscale>
<asrwt>0</asrwt>
<pdfrwt beam="1">  1       21 0.18940277E+00 0.12500000E+03</pdfrwt>
<pdfrwt beam="2">  1       21 0.48814293E-03 0.12500000E+03</pdfrwt>
<totfact> 0.18473156E+06</totfact>
</mgrwt>
</event>
<event>
 3    1  0.1619206E-001  0.1250000E+03  0.7546771E-02  0.1235069E+00
         21   -1    0    0  502  501  0.00000000000E+00  0.00000000000E+00  0.16197396471E+03  0.16197396471E+03  0.00000000000E+00 0.  1.
         21   -1    0    0  501  502 -0.00000000000E+00 -0.00000000000E+00 -0.24116530129E+02  0.24116530129E+02  0.00000000000E+00 0.  1.
         25    1    1    2    0    0  0.00000000000E+00  0.00000000000E+00  0.13785743458E+03  0.18609049484E+03  0.12500000000E+03 0.  0.
<mgrwt>
<rscale>  0 0.12500000E+03</rscale>
<asrwt>0</asrwt>
<pdfrwt beam="1">  1       21 0.24919071E-01 0.12500000E+03</pdfrwt>
<pdfrwt beam="2">  1       21 0.37102355E-02 0.12500000E+03</pdfrwt>
<totfact> 0.66459629E+06</totfact>
</mgrwt>
</event>
<event>
 3    1  0.1619206E-001  0.1250000E+03  0.7546771E-02  0.1235069E+00
         21   -1    0    0  502  501  0.00000000000E+00  0.00000000000E+00  0.12278786189E+03  0.12278786189E+03  0.00000000000E+00 0.  1.
         21   -1    0    0  501  502 -0.00000000000E+00 -0.00000000000E+00 -0.31812997961E+02  0.31812997961E+02  0.00000000000E+00 0.  1.
         25    1    1    2    0    0  0.00000000000E+00  0.00000000000E+00  0.90974863932E+02  0.15460085985E+03  0.12500000000E+03 0.  0.
<mgrwt>
<rscale>  0 0.12500000E+03</rscale>
<asrwt>0</asrwt>
<pdfrwt beam="1">  1       21 0.18890440E-01 0.12500000E+03</pdfrwt>
<pdfrwt beam="2">  1       21 0.48943074E-02 0.12500000E+03</pdfrwt>
<totfact> 0.70185301E+06</totfact>
</mgrwt>
</event>
<event>
 3    1  0.1619206E-001  0.1250000E+03  0.7546771E-02  0.1235069E+00
         21   -1    0    0  502  501  0.00000000000E+00  0.00000000000E+00  0.16693873867E+03  0.16693873867E+03  0.00000000000E+00 0.  1.
         21   -1    0    0  501  502 -0.00000000000E+00 -0.00000000000E+00 -0.23399302230E+02  0.23399302230E+02  0.00000000000E+00 0.  1.
         25    1    1    2    0    0  0.00000000000E+00  0.00000000000E+00  0.14353943644E+03  0.19033804090E+03  0.12500000000E+03 0.  0.
<mgrwt>
<rscale>  0 0.12500000E+03</rscale>
<asrwt>0</asrwt>
<pdfrwt beam="1">  1       21 0.25682882E-01 0.12500000E+03</pdfrwt>
<pdfrwt beam="2">  1       21 0.35998928E-02 0.12500000E+03</pdfrwt>
<totfact> 0.65984914E+06</totfact>
</mgrwt>
</event>
<event>
 3    1  0.1619206E-001  0.1250000E+03  0.7546771E-02  0.1235069E+00
         21   -1    0    0  502  501  0.00000000000E+00  0.00000000000E+00  0.35644159453E+02  0.35644159453E+02  0.00000000000E+00 0.  1.
         21   -1    0    0  501  502 -0.00000000000E+00 -0.00000000000E+00 -0.10959018420E+03  0.10959018420E+03  0.00000000000E+00 0.  1.
         25    1    1    2    0    0  0.00000000000E+00  0.00000000000E+00 -0.73946024742E+02  0.14523434365E+03  0.12500000000E+03 0.  0.
<mgrwt>
<rscale>  0 0.12500000E+03</rscale>
<asrwt>0</asrwt>
<pdfrwt beam="1">  1       21 0.54837168E-02 0.12500000E+03</pdfrwt>
<pdfrwt beam="2">  1       21 0.16860029E-01 0.12500000E+03</pdfrwt>
<totfact> 0.71363122E+06</totfact>
</mgrwt>
</event>
<event>
 3    1  0.1619206E-001  0.1250000E+03  0.7546771E-02  0.1235069E+00
         21   -1    0    0  502  501  0.00000000000E+00  0.00000000000E+00  0.16698284676E+02  0.16698284676E+02  0.00000000000E+00 0. -1.
         21   -1    0    0  501  502 -0.00000000000E+00 -0.00000000000E+00 -0.23393121365E+03  0.23393121365E+03  0.00000000000E+00 0. -1.
         25    1    1    2    0    0  0.00000000000E+00  0.00000000000E+00 -0.21723292897E+03  0.25062949832E+03  0.12500000000E+03 0.  0.
<mgrwt>
<rscale>  0 0.12500000E+03</rscale>
<asrwt>0</asrwt>
<pdfrwt beam="1">  1       21 0.25689669E-02 0.12500000E+03</pdfrwt>
<pdfrwt beam="2">  1       21 0.35989417E-01 0.12500000E+03</pdfrwt>
<totfact> 0.59818973E+06</totfact>
</mgrwt>
</event>
<event>
 3    1  0.1619206E-001  0.1250000E+03  0.7546771E-02  0.1235069E+00
         21   -1    0    0  502  501  0.00000000000E+00  0.00000000000E+00  0.93630749924E+03  0.93630749924E+03  0.00000000000E+00 0.  1.
         21   -1    0    0  501  502 -0.00000000000E+00 -0.00000000000E+00 -0.41719734202E+01  0.41719734202E+01  0.00000000000E+00 0.  1.
         25    1    1    2    0    0  0.00000000000E+00  0.00000000000E+00  0.93213552582E+03  0.94047947266E+03  0.12500000000E+03 0.  0.
<mgrwt>
<rscale>  0 0.12500000E+03</rscale>
<asrwt>0</asrwt>
<pdfrwt beam="1">  1       21 0.14404714E+00 0.12500000E+03</pdfrwt>
<pdfrwt beam="2">  1       21 0.64184281E-03 0.12500000E+03</pdfrwt>
<totfact> 0.25168080E+06</totfact>
</mgrwt>
</event>
<event>
 3    1  0.1619206E-001  0.1250000E+03  0.7546771E-02  0.1235069E+00
         21   -1    0    0  502  501  0.00000000000E+00  0.00000000000E+00  0.39053507050E+03  0.39053507050E+03  0.00000000000E+00 0.  1.
         21   -1    0    0  501  502 -0.00000000000E+00 -0.00000000000E+00 -0.10002302725E+02  0.10002302725E+02  0.00000000000E+00 0.  1.
         25    1    1    2    0    0  0.00000000000E+00  0.00000000000E+00  0.38053276778E+03  0.40053737323E+03  0.12500000000E+03 0.  0.
<mgrwt>
<rscale>  0 0.12500000E+03</rscale>
<asrwt>0</asrwt>
<pdfrwt beam="1">  1       21 0.60082307E-01 0.12500000E+03</pdfrwt>
<pdfrwt beam="2">  1       21 0.15388161E-02 0.12500000E+03</pdfrwt>
<totfact> 0.48005733E+06</totfact>
</mgrwt>
</event>
<event>
 3    1  0.1619206E-001  0.1250000E+03  0.7546771E-02  0.1235069E+00
         21   -1    0    0  502  501  0.00000000000E+00  0.00000000000E+00  0.11942827917E+03  0.11942827917E+03  0.00000000000E+00 0. -1.
         21   -1    0    0  501  502 -0.00000000000E+00 -0.00000000000E+00 -0.32707914969E+02  0.32707914969E+02  0.00000000000E+00 0. -1.
         25    1    1    2    0    0  0.00000000000E+00  0.00000000000E+00  0.86720364199E+02  0.15213619414E+03  0.12500000000E+03 0.  0.
<mgrwt>
<rscale>  0 0.12500000E+03</rscale>
<asrwt>0</asrwt>
<pdfrwt beam="1">  1       21 0.18373581E-01 0.12500000E+03</pdfrwt>
<pdfrwt beam="2">  1       21 0.50319870E-02 0.12500000E+03</pdfrwt>
<totfact> 0.70491877E+06</totfact>
</mgrwt>
</event>
<event>
 3    1  0.1619206E-001  0.1250000E+03  0.7546771E-02  0.1235069E+00
         21   -1    0    0  502  501  0.00000000000E+00  0.00000000000E+00  0.44813621665E+03  0.44813621665E+03  0.00000000000E+00 0.  1.
         21   -1    0    0  501  502 -0.00000000000E+00 -0.00000000000E+00 -0.87166576922E+01  0.87166576922E+01  0.00000000000E+00 0.  1.
         25    1    1    2    0    0  0.00000000000E+00  0.00000000000E+00  0.43941955896E+03  0.45685287434E+03  0.12500000000E+03 0.  0.
<mgrwt>
<rscale>  0 0.12500000E+03</rscale>
<asrwt>0</asrwt>
<pdfrwt beam="1">  1       21 0.68944015E-01 0.12500000E+03</pdfrwt>
<pdfrwt beam="2">  1       21 0.13410246E-02 0.12500000E+03</pdfrwt>
<totfact> 0.44485034E+06</totfact>
</mgrwt>
</event>
<event>
 3    1  0.1619206E-001  0.1250000E+03  0.7546771E-02  0.1235069E+00
         21   -1    0    0  502  501  0.00000000000E+00  0.00000000000E+00  0.27393064067E+03  0.27393064067E+03  0.00000000000E+00 0.  1.
         21   -1    0    0  501  502 -0.00000000000E+00 -0.00000000000E+00 -0.14259996583E+02  0.14259996583E+02  0.00000000000E+00 0.  1.
         25    1    1    2    0    0  0.00000000000E+00  0.00000000000E+00  0.25967064409E+03  0.28819063725E+03  0.12500000000E+03 0.  0.
<mgrwt>
<rscale>  0 0.12500000E+03</rscale>
<asrwt>0</asrwt>
<pdfrwt beam="1">  1       21 0.42143172E-01 0.12500000E+03</pdfrwt>
<pdfrwt beam="2">  1       21 0.21938458E-02 0.12500000E+03</pdfrwt>
<totfact> 0.56452084E+06</totfact>
</mgrwt>
</event>
<event>
 3    1  0.1619206E-001  0.1250000E+03  0.7546771E-02  0.1235069E+00
         21   -1    0    0  502  501  0.00000000000E+00  0.00000000000E+00  0.38295255202E+02  0.38295255202E+02  0.00000000000E+00 0. -1.
         21   -1    0    0  501  502 -0.00000000000E+00 -0.00000000000E+00 -0.10200349833E+03  0.10200349833E+03  0.00000000000E+00 0. -1.
         25    1    1    2    0    0  0.00000000000E+00  0.00000000000E+00 -0.63708243127E+02  0.14029875353E+03  0.12500000000E+03 0.  0.
<mgrwt>
<rscale>  0 0.12500000E+03</rscale>
<asrwt>0</asrwt>
<pdfrwt beam="1">  1       21 0.58915777E-02 0.12500000E+03</pdfrwt>
<pdfrwt beam="2">  1       21 0.15692846E-01 0.12500000E+03</pdfrwt>
<totfact> 0.72000331E+06</totfact>
</mgrwt>
</event>
<event>
 3    1  0.1619206E-001  0.1250000E+03  0.7546771E-02  0.1235069E+00
         21   -1    0    0  502  501  0.00000000000E+00  0.00000000000E+00  0.38679501255E+01  0.38679501255E+01  0.00000000000E+00 0.  1.
         21   -1    0    0  501  502 -0.00000000000E+00 -0.00000000000E+00 -0.10099018532E+04  0.10099018532E+04  0.00000000000E+00 0.  1.
         25    1    1    2    0    0  0.00000000000E+00  0.00000000000E+00 -0.10060339031E+04  0.10137698034E+04  0.12500000000E+03 0.  0.
<mgrwt>
<rscale>  0 0.12500000E+03</rscale>
<asrwt>0</asrwt>
<pdfrwt beam="1">  1       21 0.59506899E-03 0.12500000E+03</pdfrwt>
<pdfrwt beam="2">  1       21 0.15536958E+00 0.12500000E+03</pdfrwt>
<totfact> 0.23277377E+06</totfact>
</mgrwt>
</event>
<event>
 3    1  0.1619206E-001  0.1250000E+03  0.7546771E-02  0.1235069E+00
         21   -1    0    0  502  501  0.00000000000E+00  0.00000000000E+00  0.43261980382E+02  0.43261980382E+02  0.00000000000E+00 0. -1.
         21   -1    0    0  501  502 -0.00000000000E+00 -0.00000000000E+00 -0.90292907664E+02  0.90292907664E+02  0.00000000000E+00 0. -1.
         25    1    1    2    0    0  0.00000000000E+00  0.00000000000E+00 -0.47030927282E+02  0.13355488805E+03  0.12500000000E+03 0.  0.
<mgrwt>
<rscale>  0 0.12500000E+03</rscale>
<asrwt>0</asrwt>
<pdfrwt beam="1">  1       21 0.66556893E-02 0.12500000E+03</pdfrwt>
<pdfrwt beam="2">  1       21 0.13891216E-01 0.12500000E+03</pdfrwt>
<totfact> 0.72888391E+06</totfact>
</mgrwt>
</event>
<event>
 3    1  0.1619206E-001  0.1250000E+03  0.7546771E-02  0.1235069E+00
         21   -1    0    0  502  501  0.00000000000E+00  0.00000000000E+00  0.16801306078E+02  0.16801306078E+02  0.00000000000E+00 0.  1.
         21   -1    0    0  501  502 -0.00000000000E+00 -0.00000000000E+00 -0.23249680601E+03  0.23249680601E+03  0.00000000000E+00 0.  1.
         25    1    1    2    0    0  0.00000000000E+00  0.00000000000E+00 -0.21569549993E+03  0.24929811209E+03  0.12500000000E+03 0.  0.
<mgrwt>
<rscale>  0 0.12500000E+03</rscale>
<asrwt>0</asrwt>
<pdfrwt beam="1">  1       21 0.25848165E-02 0.12500000E+03</pdfrwt>
<pdfrwt beam="2">  1       21 0.35768737E-01 0.12500000E+03</pdfrwt>
<totfact> 0.59944335E+06</totfact>
</mgrwt>
</event>
<event>
 3    1  0.1619206E-001  0.1250000E+03  0.7546771E-02  0.1235069E+00
         21   -1    0    0  502  501  0.00000000000E+00  0.00000000000E+00  0.61714535448E+03  0.61714535448E+03  0.00000000000E+00 0. -1.
         21   -1    0    0  501  502 -0.00000000000E+00 -0.00000000000E+00 -0.63295461461E+01  0.63295461461E+01  0.00000000000E+00 0. -1.
         25    1    1    2    0    0  0.00000000000E+00  0.00000000000E+00  0.61081580833E+03  0.62347490062E+03  0.12500000000E+03 0.  0.
<mgrwt>
<rscale>  0 0.12500000E+03</rscale>
<asrwt>0</asrwt>
<pdfrwt beam="1">  1       21 0.94945391E-01 0.12500000E+03</pdfrwt>
<pdfrwt beam="2">  1       21 0.97377682E-03 0.12500000E+03</pdfrwt>
<totfact> 0.36052090E+06</totfact>
</mgrwt>
</event>
<event>
 3    1  0.1619206E-001  0.1250000E+03  0.7546771E-02  0.1235069E+00
         21   -1    0    0  502  501  0.00000000000E+00  0.00000000000E+00  0.10874703180E+02  0.10874703180E+02  0.00000000000E+00 0.  1.
         21   -1    0    0  501  502 -0.00000000000E+00 -0.00000000000E+00 -0.35920520638E+03  0.35920520638E+03  0.00000000000E+00 0.  1.
         25    1    1    2    0    0  0.00000000000E+00  0.00000000000E+00 -0.34833050320E+03  0.37007990956E+03  0.12500000000E+03 0.  0.
<mgrwt>
<rscale>  0 0.12500000E+03</rscale>
<asrwt>0</asrwt>
<pdfrwt beam="1">  1       21 0.16730311E-02 0.12500000E+03</pdfrwt>
<pdfrwt beam="2">  1       21 0.55262343E-01 0.12500000E+03</pdfrwt>
<totfact> 0.50088807E+06</totfact>
</mgrwt>
</event>
<event>
 3    1  0.1619206E-001  0.1250000E+03  0.7546771E-02  0.1235069E+00
         21   -1    0    0  502  501  0.00000000000E+00  0.00000000000E+00  0.95094898482E+01  0.95094898482E+01  0.00000000000E+00 0.  1.
         21   -1    0    0  501  502 -0.00000000000E+00 -0.00000000000E+00 -0.41077387561E+03  0.41077387561E+03  0.00000000000E+00 0.  1.
         25    1    1    2    0    0  0.00000000000E+00  0.00000000000E+00 -0.40126438576E+03  0.42028336546E+03  0.12500000000E+03 0.  0.
<mgrwt>
<rscale>  0 0.12500000E+03</rscale>
<asrwt>0</asrwt>
<pdfrwt beam="1">  1       21 0.14629984E-02 0.12500000E+03</pdfrwt>
<pdfrwt beam="2">  1       21 0.63195982E-01 0.12500000E+03</pdfrwt>
<totfact> 0.46724447E+06</totfact>
</mgrwt>
</event>
<event>
 3    1  0.1619206E-001  0.1250000E+03  0.7546771E-02  0.1235069E+00
         21   -1    0    0  502  501  0.00000000000E+00  0.00000000000E+00  0.25026500291E+02  0.25026500291E+02  0.00000000000E+00 0.  1.
         21   -1    0    0  501  502 -0.00000000000E+00 -0.00000000000E+00 -0.15608454856E+03  0.15608454856E+03  0.00000000000E+00 0.  1.
         25    1    1    2    0    0  0.00000000000E+00  0.00000000000E+00 -0.13105804827E+03  0.18111104886E+03  0.12500000000E+03 0.  0.
<mgrwt>
<rscale>  0 0.12500000E+03</rscale>
<asrwt>0</asrwt>
<pdfrwt beam="1">  1       21 0.38502309E-02 0.12500000E+03</pdfrwt>
<pdfrwt beam="2">  1       21 0.24013007E-01 0.12500000E+03</pdfrwt>
<totfact> 0.67024309E+06</totfact>
</mgrwt>
</event>
<event>
 3    1  0.1619206E-001  0.1250000E+03  0.7546771E-02  0.1235069E+00
         21   -1    0    0  502  501  0.00000000000E+00  0.00000000000E+00  0.33827169535E+02  0.33827169535E+02  0.00000000000E+00 0.  1.
         21   -1    0    0  501  502 -0.00000000000E+00 -0.00000000000E+00 -0.11547670271E+03  0.11547670271E+03  0.00000000000E+00 0.  1.
         25    1    1    2    0    0  0.00000000000E+00  0.00000000000E+00 -0.81649533179E+02  0.14930387225E+03  0.12500000000E+03 0.  0.
<mgrwt>
<rscale>  0 0.12500000E+03</rscale>
<asrwt>0</asrwt>
<pdfrwt beam="1">  1       21 0.52041800E-02 0.12500000E+03</pdfrwt>
<pdfrwt beam="2">  1       21 0.17765646E-01 0.12500000E+03</pdfrwt>
<totfact> 0.70846757E+06</totfact>
</mgrwt>
</event>
<event>
 3    1  0.1619206E-001  0.1250000E+03  0.7546771E-02  0.1235069E+00
         21   -1    0    0  502  501  0.00000000000E+00  0.00000000000E+00  0.14816022476E+02  0.14816022476E+02  0.00000000000E+00 0.  1.
         21   -1    0    0  501  502 -0.00000000000E+00 -0.00000000000E+00 -0.26365038298E+03  0.26365038298E+03  0.00000000000E+00 0.  1.
         25    1    1    2    0    0  0.00000000000E+00  0.00000000000E+00 -0.24883436051E+03  0.27846640546E+03  0.12500000000E+03 0.  0.
<mgrwt>
<rscale>  0 0.12500000E+03</rscale>
<asrwt>0</asrwt>
<pdfrwt beam="1">  1       21 0.22793880E-02 0.12500000E+03</pdfrwt>
<pdfrwt beam="2">  1       21 0.40561599E-01 0.12500000E+03</pdfrwt>
<totfact> 0.57294561E+06</totfact>
</mgrwt>
</event>
<event>
 3    1  0.1619206E-001  0.1250000E+03  0.7546771E-02  0.1235069E+00
         21   -1    0    0  502  501  0.00000000000E+00  0.00000000000E+00  0.62713640573E+01  0.62713640573E+01  0.00000000000E+00 0. -1.
         21   -1    0    0  501  502 -0.00000000000E+00 -0.00000000000E+00 -0.62287087216E+03  0.62287087216E+03  0.00000000000E+00 0. -1.
         25    1    1    2    0    0  0.00000000000E+00  0.00000000000E+00 -0.61659950810E+03  0.62914223622E+03  0.12500000000E+03 0.  0.
<mgrwt>
<rscale>  0 0.12500000E+03</rscale>
<asrwt>0</asrwt>
<pdfrwt beam="1">  1       21 0.96482465E-03 0.12500000E+03</pdfrwt>
<pdfrwt beam="2">  1       21 0.95826347E-01 0.12500000E+03</pdfrwt>
<totfact> 0.35806998E+06</totfact>
</mgrwt>
</event>
<event>
 3    1  0.1619206E-001  0.1250000E+03  0.7546771E-02  0.1235069E+00
         21   -1    0    0  502  501  0.00000000000E+00  0.00000000000E+00  0.61159272424E+03  0.61159272424E+03  0.00000000000E+00 0.  1.
         21   -1    0    0  501  502 -0.00000000000E+00 -0.00000000000E+00 -0.63870118874E+01  0.63870118874E+01  0.00000000000E+00 0.  1.
         25    1    1    2    0    0  0.00000000000E+00  0.00000000000E+00  0.60520571236E+03  0.61797973613E+03  0.12500000000E+03 0.  0.
<mgrwt>
<rscale>  0 0.12500000E+03</rscale>
<asrwt>0</asrwt>
<pdfrwt beam="1">  1       21 0.94091142E-01 0.12500000E+03</pdfrwt>
<pdfrwt beam="2">  1       21 0.98261769E-03 0.12500000E+03</pdfrwt>
<totfact> 0.36291953E+06</totfact>
</mgrwt>
</event>
<event>
 3    1  0.1619206E-001  0.1250000E+03  0.7546771E-02  0.1235069E+00
         21   -1    0    0  502  501  0.00000000000E+00  0.00000000000E+00  0.20085957511E+02  0.20085957511E+02  0.00000000000E+00 0.  1.
         21   -1    0    0  501  502 -0.00000000000E+00 -0.00000000000E+00 -0.19447666351E+03  0.19447666351E+03  0.00000000000E+00 0.  1.
         25    1    1    2    0    0  0.00000000000E+00  0.00000000000E+00 -0.17439070600E+03  0.21456262102E+03  0.12500000000E+03 0.  0.
<mgrwt>
<rscale>  0 0.12500000E+03</rscale>
<asrwt>0</asrwt>
<pdfrwt beam="1">  1       21 0.30901474E-02 0.12500000E+03</pdfrwt>
<pdfrwt beam="2">  1       21 0.29919486E-01 0.12500000E+03</pdfrwt>
<totfact> 0.63382670E+06</totfact>
</mgrwt>
</event>
<event>
 3    1  0.1619206E-001  0.1250000E+03  0.7546771E-02  0.1235069E+00
         21   -1    0    0  502  501  0.00000000000E+00  0.00000000000E+00  0.11562208575E+03  0.11562208575E+03  0.00000000000E+00 0.  1.
         21   -1    0    0  501  502 -0.00000000000E+00 -0.00000000000E+00 -0.33784635302E+02  0.33784635302E+02  0.00000000000E+00 0.  1.
         25    1    1    2    0    0  0.00000000000E+00  0.00000000000E+00  0.81837450452E+02  0.14940672106E+03  0.12500000000E+03 0.  0.
<mgrwt>
<rscale>  0 0.12500000E+03</rscale>
<asrwt>0</asrwt>
<pdfrwt beam="1">  1       21 0.17788013E-01 0.12500000E+03</pdfrwt>
<pdfrwt beam="2">  1       21 0.51976363E-02 0.12500000E+03</pdfrwt>
<totfact> 0.70833807E+06</totfact>
</mgrwt>
</event>
<event>
 3    1  0.1619206E-001  0.1250000E+03  0.7546771E-02  0.1235069E+00
         21   -1    0    0  502  501  0.00000000000E+00  0.00000000000E+00  0.11659353603E+02  0.11659353603E+02  0.00000000000E+00 0.  1.
         21   -1    0    0  501  502 -0.00000000000E+00 -0.00000000000E+00 -0.33503143769E+03  0.33503143769E+03  0.00000000000E+00 0.  1.
         25    1    1    2    0    0  0.00000000000E+00  0.00000000000E+00 -0.32337208409E+03  0.34669079129E+03  0.12500000000E+03 0.  0.
<mgrwt>
<rscale>  0 0.12500000E+03</rscale>
<asrwt>0</asrwt>
<pdfrwt beam="1">  1       21 0.17937468E-02 0.12500000E+03</pdfrwt>
<pdfrwt beam="2">  1       21 0.51543296E-01 0.12500000E+03</pdfrwt>
<totfact> 0.51783759E+06</totfact>
</mgrwt>
</event>
<event>
 3    1  0.1619206E-001  0.1250000E+03  0.7546771E-02  0.1235069E+00
         21   -1    0    0  502  501  0.00000000000E+00  0.00000000000E+00  0.45343441414E+02  0.45343441414E+02  0.00000000000E+00 0. -1.
         21   -1    0    0  501  502 -0.00000000000E+00 -0.00000000000E+00 -0.86148070773E+02  0.86148070773E+02  0.00000000000E+00 0. -1.
         25    1    1    2    0    0  0.00000000000E+00  0.00000000000E+00 -0.40804629360E+02  0.13149151219E+03  0.12500000000E+03 0.  0.
<mgrwt>
<rscale>  0 0.12500000E+03</rscale>
<asrwt>0</asrwt>
<pdfrwt beam="1">  1       21 0.69759142E-02 0.12500000E+03</pdfrwt>
<pdfrwt beam="2">  1       21 0.13253549E-01 0.12500000E+03</pdfrwt>
<totfact> 0.73164513E+06</totfact>
</mgrwt>
</event>
<event>
 3    1  0.1619206E-001  0.1250000E+03  0.7546771E-02  0.1235069E+00
         21   -1    0    0  502  501  0.00000000000E+00  0.00000000000E+00  0.41313090133E+03  0.41313090133E+03  0.00000000000E+00 0. -1.
         21   -1    0    0  501  502 -0.00000000000E+00 -0.00000000000E+00 -0.94552355861E+01  0.94552355861E+01  0.00000000000E+00 0. -1.
         25    1    1    2    0    0  0.00000000000E+00  0.00000000000E+00  0.40367566575E+03  0.42258613692E+03  0.12500000000E+03 0.  0.
<mgrwt>
<rscale>  0 0.12500000E+03</rscale>
<asrwt>0</asrwt>
<pdfrwt beam="1">  1       21 0.63558586E-01 0.12500000E+03</pdfrwt>
<pdfrwt beam="2">  1       21 0.14546519E-02 0.12500000E+03</pdfrwt>
<totfact> 0.46578457E+06</totfact>
</mgrwt>
</event>
<event>
 3    1  0.1619206E-001  0.1250000E+03  0.7546771E-02  0.1235069E+00
         21   -1    0    0  502  501  0.00000000000E+00  0.00000000000E+00  0.14990779164E+03  0.14990779164E+03  0.00000000000E+00 0. -1.
         21   -1    0    0  501  502 -0.00000000000E+00 -0.00000000000E+00 -0.26057684910E+02  0.26057684910E+02  0.00000000000E+00 0. -1.
         25    1    1    2    0    0  0.00000000000E+00  0.00000000000E+00  0.12385010673E+03  0.17596547655E+03  0.12500000000E+03 0.  0.
<mgrwt>
<rscale>  0 0.12500000E+03</rscale>
<asrwt>0</asrwt>
<pdfrwt beam="1">  1       21 0.23062737E-01 0.12500000E+03</pdfrwt>
<pdfrwt beam="2">  1       21 0.40088747E-02 0.12500000E+03</pdfrwt>
<totfact> 0.67617405E+06</totfact>
</mgrwt>
</event>
<event>
 3    1  0.1619206E-001  0.1250000E+03  0.7546771E-02  0.1235069E+00
         21   -1    0    0  502  501  0.00000000000E+00  0.00000000000E+00  0.32001949756E+02  0.32001949756E+02  0.00000000000E+00 0.  1.
         21   -1    0    0  501  502 -0.00000000000E+00 -0.00000000000E+00 -0.12206287522E+03  0.12206287522E+03  0.00000000000E+00 0.  1.
         25    1    1    2    0    0  0.00000000000E+00  0.00000000000E+00 -0.90060925467E+02  0.15406482498E+03  0.12500000000E+03 0.  0.
<mgrwt>
<rscale>  0 0.12500000E+03</rscale>
<asrwt>0</asrwt>
<pdfrwt beam="1">  1       21 0.49233768E-02 0.12500000E+03</pdfrwt>
<pdfrwt beam="2">  1       21 0.18778904E-01 0.12500000E+03</pdfrwt>
<totfact> 0.70252075E+06</totfact>
</mgrwt>
</event>
<event>
 3    1  0.1619206E-001  0.1250000E+03  0.7546771E-02  0.1235069E+00
         21   -1    0    0  502  501  0.00000000000E+00  0.00000000000E+00  0.65004482353E+02  0.65004482353E+02  0.00000000000E+00 0. -1.
         21   -1    0    0  501  502 -0.00000000000E+00 -0.00000000000E+00 -0.60092009945E+02  0.60092009945E+02  0.00000000000E+00 0. -1.
         25    1    1    2    0    0  0.00000000000E+00  0.00000000000E+00  0.49124724078E+01  0.12509649230E+03  0.12500000000E+03 0.  0.
<mgrwt>
<rscale>  0 0.12500000E+03</rscale>
<asrwt>0</asrwt>
<pdfrwt beam="1">  1       21 0.10000690E-01 0.12500000E+03</pdfrwt>
<pdfrwt beam="2">  1       21 0.92449247E-02 0.12500000E+03</pdfrwt>
<totfact> 0.74030549E+06</totfact>
</mgrwt>
</event>
<event>
 3    1  0.1619206E-001  0.1250000E+03  0.7546771E-02  0.1235069E+00
         21   -1    0    0  502  501  0.00000000000E+00  0.00000000000E+00  0.10223275495E+02  0.10223275495E+02  0.00000000000E+00 0.  1.
         21   -1    0    0  501  502 -0.00000000000E+00 -0.00000000000E+00 -0.38209378215E+03  0.38209378215E+03  0.00000000000E+00 0.  1.
         25    1    1    2    0    0  0.00000000000E+00  0.00000000000E+00 -0.37187050666E+03  0.39231705765E+03  0.12500000000E+03 0.  0.
<mgrwt>
<rscale>  0 0.12500000E+03</rscale>
<asrwt>0</asrwt>
<pdfrwt beam="1">  1       21 0.15728115E-02 0.12500000E+03</pdfrwt>
<pdfrwt beam="2">  1       21 0.58783664E-01 0.12500000E+03</pdfrwt>
<totfact> 0.48555159E+06</totfact>
</mgrwt>
</event>
<event>
 3    1  0.1619206E-001  0.1250000E+03  0.7546771E-02  0.1235069E+00
         21   -1    0    0  502  501  0.00000000000E+00  0.00000000000E+00  0.12178637096E+03  0.12178637096E+03  0.00000000000E+00 0.  1.
         21   -1    0    0  501  502 -0.00000000000E+00 -0.00000000000E+00 -0.32074607112E+02  0.32074607112E+02  0.00000000000E+00 0.  1.
         25    1    1    2    0    0  0.00000000000E+00  0.00000000000E+00  0.89711763846E+02  0.15386097807E+03  0.12500000000E+03 0.  0.
<mgrwt>
<rscale>  0 0.12500000E+03</rscale>
<asrwt>0</asrwt>
<pdfrwt beam="1">  1       21 0.18736365E-01 0.12500000E+03</pdfrwt>
<pdfrwt beam="2">  1       21 0.49345550E-02 0.12500000E+03</pdfrwt>
<totfact> 0.70277494E+06</totfact>
</mgrwt>
</event>
<event>
 3    1  0.1619206E-001  0.1250000E+03  0.7546771E-02  0.1235069E+00
         21   -1    0    0  502  501  0.00000000000E+00  0.00000000000E+00  0.62607785812E+01  0.62607785812E+01  0.00000000000E+00 0. -1.
         21   -1    0    0  501  502 -0.00000000000E+00 -0.00000000000E+00 -0.62392399752E+03  0.62392399752E+03  0.00000000000E+00 0. -1.
         25    1    1    2    0    0  0.00000000000E+00  0.00000000000E+00 -0.61766321894E+03  0.63018477611E+03  0.12500000000E+03 0.  0.
<mgrwt>
<rscale>  0 0.12500000E+03</rscale>
<asrwt>0</asrwt>
<pdfrwt beam="1">  1       21 0.96319605E-03 0.12500000E+03</pdfrwt>
<pdfrwt beam="2">  1       21 0.95988373E-01 0.12500000E+03</pdfrwt>
<totfact> 0.35762170E+06</totfact>
</mgrwt>
</event>
<event>
 3    1  0.1619206E-001  0.1250000E+03  0.7546771E-02  0.1235069E+00
         21   -1    0    0  502  501  0.00000000000E+00  0.00000000000E+00  0.38325221305E+02  0.38325221305E+02  0.00000000000E+00 0. -1.
         21   -1    0    0  501  502 -0.00000000000E+00 -0.00000000000E+00 -0.10192374283E+03  0.10192374283E+03  0.00000000000E+00 0. -1.
         25    1    1    2    0    0  0.00000000000E+00  0.00000000000E+00 -0.63598521521E+02  0.14024896413E+03  0.12500000000E+03 0.  0.
<mgrwt>
<rscale>  0 0.12500000E+03</rscale>
<asrwt>0</asrwt>
<pdfrwt beam="1">  1       21 0.58961879E-02 0.12500000E+03</pdfrwt>
<pdfrwt beam="2">  1       21 0.15680576E-01 0.12500000E+03</pdfrwt>
<totfact> 0.72006823E+06</totfact>
</mgrwt>
</event>
<event>
 3    1  0.1619206E-001  0.1250000E+03  0.7546771E-02  0.1235069E+00
         21   -1    0    0  502  501  0.00000000000E+00  0.00000000000E+00  0.20543302347E+01  0.20543302347E+01  0.00000000000E+00 0. -1.
         21   -1    0    0  501  502 -0.00000000000E+00 -0.00000000000E+00 -0.19014713087E+04  0.19014713087E+04  0.00000000000E+00 0. -1.
         25    1    1    2    0    0  0.00000000000E+00  0.00000000000E+00 -0.18994169785E+04  0.19035256390E+04  0.12500000000E+03 0.  0.
<mgrwt>
<rscale>  0 0.12500000E+03</rscale>
<asrwt>0</asrwt>
<pdfrwt beam="1">  1       21 0.31604979E-03 0.12500000E+03</pdfrwt>
<pdfrwt beam="2">  1       21 0.29253499E+00 0.12500000E+03</pdfrwt>
<totfact> 0.89276117E+05</totfact>
</mgrwt>
</event>
<event>
 3    1  0.1619206E-001  0.1250000E+03  0.7546771E-02  0.1235069E+00
         21   -1    0    0  502  501  0.00000000000E+00  0.00000000000E+00  0.58674173863E+03  0.58674173863E+03  0.00000000000E+00 0.  1.
         21   -1    0    0  501  502 -0.00000000000E+00 -0.00000000000E+00 -0.66575287607E+01  0.66575287607E+01  0.00000000000E+00 0.  1.
         25    1    1    2    0    0  0.00000000000E+00  0.00000000000E+00  0.58008420987E+03  0.59339926739E+03  0.12500000000E+03 0.  0.
<mgrwt>
<rscale>  0 0.12500000E+03</rscale>
<asrwt>0</asrwt>
<pdfrwt beam="1">  1       21 0.90267919E-01 0.12500000E+03</pdfrwt>
<pdfrwt beam="2">  1       21 0.10242357E-02 0.12500000E+03</pdfrwt>
<totfact> 0.37392864E+06</totfact>
</mgrwt>
</event>
<event>
 3    1  0.1619206E-001  0.1250000E+03  0.7546771E-02  0.1235069E+00
         21   -1    0    0  502  501  0.00000000000E+00  0.00000000000E+00  0.32028315971E+04  0.32028315971E+04  0.00000000000E+00 0.  1.
         21   -1    0    0  501  502 -0.00000000000E+00 -0.00000000000E+00 -0.12196239114E+01  0.12196239114E+01  0.00000000000E+00 0.  1.
         25    1    1    2    0    0  0.00000000000E+00  0.00000000000E+00  0.32016119732E+04  0.32040512210E+04  0.12500000000E+03 0.  0.
<mgrwt>
<rscale>  0 0.12500000E+03</rscale>
<asrwt>0</asrwt>
<pdfrwt beam="1">  1       21 0.49273659E+00 0.12500000E+03</pdfrwt>
<pdfrwt beam="2">  1       21 0.18763701E-03 0.12500000E+03</pdfrwt>
<totfact> 0.11744338E+05</totfact>
</mgrwt>
</event>
<event>
 3    1  0.1619206E-001  0.1250000E+03  0.7546771E-02  0.1235069E+00
         21   -1    0    0  502  501  0.00000000000E+00  0.00000000000E+00  0.16676091849E+03  0.16676091849E+03  0.00000000000E+00 0. -1.
         21   -1    0    0  501  502 -0.00000000000E+00 -0.00000000000E+00 -0.23424253328E+02  0.23424253328E+02  0.00000000000E+00 0. -1.
         25    1    1    2    0    0  0.00000000000E+00  0.00000000000E+00  0.14333666517E+03  0.19018517182E+03  0.12500000000E+03 0.  0.
<mgrwt>
<rscale>  0 0.12500000E+03</rscale>
<asrwt>0</asrwt>
<pdfrwt beam="1">  1       21 0.25655525E-01 0.12500000E+03</pdfrwt>
<pdfrwt beam="2">  1       21 0.36037314E-02 0.12500000E+03</pdfrwt>
<totfact> 0.66001890E+06</totfact>
</mgrwt>
</event>
<event>
 3    1  0.1619206E-001  0.1250000E+03  0.7546771E-02  0.1235069E+00
         21   -1    0    0  502  501  0.00000000000E+00  0.00000000000E+00  0.24918149076E+02  0.24918149076E+02  0.00000000000E+00 0.  1.
         21   -1    0    0  501  502 -0.00000000000E+00 -0.00000000000E+00 -0.15676324867E+03  0.15676324867E+03  0.00000000000E+00 0.  1.
         25    1    1    2    0    0  0.00000000000E+00  0.00000000000E+00 -0.13184509959E+03  0.18168139775E+03  0.12500000000E+03 0.  0.
<mgrwt>
<rscale>  0 0.12500000E+03</rscale>
<asrwt>0</asrwt>
<pdfrwt beam="1">  1       21 0.38335614E-02 0.12500000E+03</pdfrwt>
<pdfrwt beam="2">  1       21 0.24117423E-01 0.12500000E+03</pdfrwt>
<totfact> 0.66959174E+06</totfact>
</mgrwt>
</event>
<event>
 3    1  0.1619206E-001  0.1250000E+03  0.7546771E-02  0.1235069E+00
         21   -1    0    0  502  501  0.00000000000E+00  0.00000000000E+00  0.12145287756E+03  0.12145287756E+03  0.00000000000E+00 0. -1.
         21   -1    0    0  501  502 -0.00000000000E+00 -0.00000000000E+00 -0.32162679704E+02  0.32162679704E+02  0.00000000000E+00 0. -1.
         25    1    1    2    0    0  0.00000000000E+00  0.00000000000E+00  0.89290197851E+02  0.15361555726E+03  0.12500000000E+03 0.  0.
<mgrwt>
<rscale>  0 0.12500000E+03</rscale>
<asrwt>0</asrwt>
<pdfrwt beam="1">  1       21 0.18685058E-01 0.12500000E+03</pdfrwt>
<pdfrwt beam="2">  1       21 0.49481046E-02 0.12500000E+03</pdfrwt>
<totfact> 0.70307921E+06</totfact>
</mgrwt>
</event>
<event>
 3    1  0.1619206E-001  0.1250000E+03  0.7546771E-02  0.1235069E+00
         21   -1    0    0  502  501  0.00000000000E+00  0.00000000000E+00  0.16458512328E+02  0.16458512328E+02  0.00000000000E+00 0.  1.
         21   -1    0    0  501  502 -0.00000000000E+00 -0.00000000000E+00 -0.23733919094E+03  0.23733919094E+03  0.00000000000E+00 0.  1.
         25    1    1    2    0    0  0.00000000000E+00  0.00000000000E+00 -0.22088067862E+03  0.25379770327E+03  0.12500000000E+03 0.  0.
<mgrwt>
<rscale>  0 0.12500000E+03</rscale>
<asrwt>0</asrwt>
<pdfrwt beam="1">  1       21 0.25320790E-02 0.12500000E+03</pdfrwt>
<pdfrwt beam="2">  1       21 0.36513719E-01 0.12500000E+03</pdfrwt>
<totfact> 0.59522474E+06</totfact>
</mgrwt>
</event>
<event>
 3    1  0.1619206E-001  0.1250000E+03  0.7546771E-02  0.1235069E+00
         21   -1    0    0  502  501  0.00000000000E+00  0.00000000000E+00  0.18555863640E+03  0.18555863640E+03  0.00000000000E+00 0.  1.
         21   -1    0    0  501  502 -0.00000000000E+00 -0.00000000000E+00 -0.21051297184E+02  0.21051297184E+02  0.00000000000E+00 0.  1.
         25    1    1    2    0    0  0.00000000000E+00  0.00000000000E+00  0.16450733922E+03  0.20660993359E+03  0.12500000000E+03 0.  0.
<mgrwt>
<rscale>  0 0.12500000E+03</rscale>
<asrwt>0</asrwt>
<pdfrwt beam="1">  1       21 0.28547481E-01 0.12500000E+03</pdfrwt>
<pdfrwt beam="2">  1       21 0.32386612E-02 0.12500000E+03</pdfrwt>
<totfact> 0.64217984E+06</totfact>
</mgrwt>
</event>
<event>
 3    1  0.1619206E-001  0.1250000E+03  0.7546771E-02  0.1235069E+00
         21   -1    0    0  502  501  0.00000000000E+00  0.00000000000E+00  0.24889990450E+02  0.24889990450E+02  0.00000000000E+00 0. -1.
         21   -1    0    0  501  502 -0.00000000000E+00 -0.00000000000E+00 -0.15694059858E+03  0.15694059858E+03  0.00000000000E+00 0. -1.
         25    1    1    2    0    0  0.00000000000E+00  0.00000000000E+00 -0.13205060813E+03  0.18183058903E+03  0.12500000000E+03 0.  0.
<mgrwt>
<rscale>  0 0.12500000E+03</rscale>
<asrwt>0</asrwt>
<pdfrwt beam="1">  1       21 0.38292293E-02 0.12500000E+03</pdfrwt>
<pdfrwt beam="2">  1       21 0.24144707E-01 0.12500000E+03</pdfrwt>
<totfact> 0.66942155E+06</totfact>
</mgrwt>
</event>
<event>
 3    1  0.1619206E-001  0.1250000E+03  0.7546771E-02  0.1235069E+00
         21   -1    0    0  502  501  0.00000000000E+00  0.00000000000E+00  0.86486706838E+03  0.86486706838E+03  0.00000000000E+00 0.  1.
         21   -1    0    0  501  502 -0.00000000000E+00 -0.00000000000E+00 -0.45165900550E+01  0.45165900550E+01  0.00000000000E+00 0.  1.
         25    1    1    2    0    0  0.00000000000E+00  0.00000000000E+00  0.86035047833E+03  0.86938365844E+03  0.12500000000E+03 0.  0.
<mgrwt>
<rscale>  0 0.12500000E+03</rscale>
<asrwt>0</asrwt>
<pdfrwt beam="1">  1       21 0.13305634E+00 0.12500000E+03</pdfrwt>
<pdfrwt beam="2">  1       21 0.69486070E-03 0.12500000E+03</pdfrwt>
<totfact> 0.27188606E+06</totfact>
</mgrwt>
</event>
<event>
 3    1  0.1619206E-001  0.1250000E+03  0.7546771E-02  0.1235069E+00
         21   -1    0    0  502  501  0.00000000000E+00  0.00000000000E+00  0.19170834186E+03  0.19170834186E+03  0.00000000000E+00 0.  1.
         21   -1    0    0  501  502 -0.00000000000E+00 -0.00000000000E+00 -0.20376004310E+02  0.20376004310E+02  0.00000000000E+00 0.  1.
         25    1    1    2    0    0  0.00000000000E+00  0.00000000000E+00  0.17133233755E+03  0.21208434617E+03  0.12500000000E+03 0.  0.
<mgrwt>
<rscale>  0 0.12500000E+03</rscale>
<asrwt>0</asrwt>
<pdfrwt beam="1">  1       21 0.29493590E-01 0.12500000E+03</pdfrwt>
<pdfrwt beam="2">  1       21 0.31347700E-02 0.12500000E+03</pdfrwt>
<totfact> 0.63640904E+06</totfact>
</mgrwt>
</event>
<event>
 3    1  0.1619206E-001  0.1250000E+03  0.7546771E-02  0.1235069E+00
         21   -1    0    0  502  501  0.00000000000E+00  0.00000000000E+00  0.15424697822E+02  0.15424697822E+02  0.00000000000E+00 0. -1.
         21   -1    0    0  501  502 -0.00000000000E+00 -0.00000000000E+00 -0.25324645222E+03  0.25324645222E+03  0.00000000000E+00 0. -1.
         25    1    1    2    0    0  0.00000000000E+00  0.00000000000E+00 -0.23782175440E+03  0.26867115005E+03  0.12500000000E+03 0.  0.
<mgrwt>
<rscale>  0 0.12500000E+03</rscale>
<asrwt>0</asrwt>
<pdfrwt beam="1">  1       21 0.23730305E-02 0.12500000E+03</pdfrwt>
<pdfrwt beam="2">  1       21 0.38960992E-01 0.12500000E+03</pdfrwt>
<totfact> 0.58163516E+06</totfact>
</mgrwt>
</event>
<event>
 3    1  0.1619206E-001  0.1250000E+03  0.7546771E-02  0.1235069E+00
         21   -1    0    0  502  501  0.00000000000E+00  0.00000000000E+00  0.50670244123E+02  0.50670244123E+02  0.00000000000E+00 0. -1.
         21   -1    0    0  501  502 -0.00000000000E+00 -0.00000000000E+00 -0.77091596214E+02  0.77091596214E+02  0.00000000000E+00 0. -1.
         25    1    1    2    0    0  0.00000000000E+00  0.00000000000E+00 -0.26421352091E+02  0.12776184034E+03  0.12500000000E+03 0.  0.
<mgrwt>
<rscale>  0 0.12500000E+03</rscale>
<asrwt>0</asrwt>
<pdfrwt beam="1">  1       21 0.77954222E-02 0.12500000E+03</pdfrwt>
<pdfrwt beam="2">  1       21 0.11860246E-01 0.12500000E+03</pdfrwt>
<totfact> 0.73665757E+06</totfact>
</mgrwt>
</event>
<event>
 3    1  0.1619206E-001  0.1250000E+03  0.7546771E-02  0.1235069E+00
         21   -1    0    0  502  501  0.00000000000E+00  0.00000000000E+00  0.26390207451E+03  0.26390207451E+03  0.00000000000E+00 0. -1.
         21   -1    0    0  501  502 -0.00000000000E+00 -0.00000000000E+00 -0.14801891979E+02  0.14801891979E+02  0.00000000000E+00 0. -1.
         25    1    1    2    0    0  0.00000000000E+00  0.00000000000E+00  0.24910018253E+03  0.27870396649E+03  0.12500000000E+03 0.  0.
<mgrwt>
<rscale>  0 0.12500000E+03</rscale>
<asrwt>0</asrwt>
<pdfrwt beam="1">  1       21 0.40600316E-01 0.12500000E+03</pdfrwt>
<pdfrwt beam="2">  1       21 0.22772143E-02 0.12500000E+03</pdfrwt>
<totfact> 0.57273734E+06</totfact>
</mgrwt>
</event>
<event>
 3    1  0.1619206E-001  0.1250000E+03  0.7546771E-02  0.1235069E+00
         21   -1    0    0  502  501  0.00000000000E+00  0.00000000000E+00  0.37212838067E+03  0.37212838067E+03  0.00000000000E+00 0.  1.
         21   -1    0    0  501  502 -0.00000000000E+00 -0.00000000000E+00 -0.10497049413E+02  0.10497049413E+02  0.00000000000E+00 0.  1.
         25    1    1    2    0    0  0.00000000000E+00  0.00000000000E+00  0.36163133126E+03  0.38262543009E+03  0.12500000000E+03 0.  0.
<mgrwt>
<rscale>  0 0.12500000E+03</rscale>
<asrwt>0</asrwt>
<pdfrwt beam="1">  1       21 0.57250510E-01 0.12500000E+03</pdfrwt>
<pdfrwt beam="2">  1       21 0.16149310E-02 0.12500000E+03</pdfrwt>
<totfact> 0.49215553E+06</totfact>
</mgrwt>
</event>
<event>
 3    1  0.1619206E-001  0.1250000E+03  0.7546771E-02  0.1235069E+00
         21   -1    0    0  502  501  0.00000000000E+00  0.00000000000E+00  0.50718179447E+03  0.50718179447E+03  0.00000000000E+00 0.  1.
         21   -1    0    0  501  502 -0.00000000000E+00 -0.00000000000E+00 -0.77018734557E+01  0.77018734557E+01  0.00000000000E+00 0.  1.
         25    1    1    2    0    0  0.00000000000E+00  0.00000000000E+00  0.49947992101E+03  0.51488366792E+03  0.12500000000E+03 0.  0.
<mgrwt>
<rscale>  0 0.12500000E+03</rscale>
<asrwt>0</asrwt>
<pdfrwt beam="1">  1       21 0.78027942E-01 0.12500000E+03</pdfrwt>
<pdfrwt beam="2">  1       21 0.11849040E-02 0.12500000E+03</pdfrwt>
<totfact> 0.41248239E+06</totfact>
</mgrwt>
</event>
<event>
 3    1  0.1619206E-001  0.1250000E+03  0.7546771E-02  0.1235069E+00
         21   -1    0    0  502  501  0.00000000000E+00  0.00000000000E+00  0.80097645366E+03  0.80097645366E+03  0.00000000000E+00 0. -1.
         21   -1    0    0  501  502 -0.00000000000E+00 -0.00000000000E+00 -0.48768599653E+01  0.48768599653E+01  0.00000000000E+00 0. -1.
         25    1    1    2    0    0  0.00000000000E+00  0.00000000000E+00  0.79609959369E+03  0.80585331363E+03  0.12500000000E+03 0.  0.
<mgrwt>
<rscale>  0 0.12500000E+03</rscale>
<asrwt>0</asrwt>
<pdfrwt beam="1">  1       21 0.12322704E+00 0.12500000E+03</pdfrwt>
<pdfrwt beam="2">  1       21 0.75028679E-03 0.12500000E+03</pdfrwt>
<totfact> 0.29169816E+06</totfact>
</mgrwt>
</event>
<event>
 3    1  0.1619206E-001  0.1250000E+03  0.7546771E-02  0.1235069E+00
         21   -1    0    0  502  501  0.00000000000E+00  0.00000000000E+00  0.40440340799E+02  0.40440340799E+02  0.00000000000E+00 0. -1.
         21   -1    0    0  501  502 -0.00000000000E+00 -0.00000000000E+00 -0.96592905074E+02  0.96592905074E+02  0.00000000000E+00 0. -1.
         25    1    1    2    0    0  0.00000000000E+00  0.00000000000E+00 -0.56152564275E+02  0.13703324587E+03  0.12500000000E+03 0.  0.
<mgrwt>
<rscale>  0 0.12500000E+03</rscale>
<asrwt>0</asrwt>
<pdfrwt beam="1">  1       21 0.62215909E-02 0.12500000E+03</pdfrwt>
<pdfrwt beam="2">  1       21 0.14860447E-01 0.12500000E+03</pdfrwt>
<totfact> 0.72428360E+06</totfact>
</mgrwt>
</event>
<event>
 3    1  0.1619206E-001  0.1250000E+03  0.7546771E-02  0.1235069E+00
         21   -1    0    0  502  501  0.00000000000E+00  0.00000000000E+00  0.17773994739E+03  0.17773994739E+03  0.00000000000E+00 0. -1.
         21   -1    0    0  501  502 -0.00000000000E+00 -0.00000000000E+00 -0.21977332937E+02  0.21977332937E+02  0.00000000000E+00 0. -1.
         25    1    1    2    0    0  0.00000000000E+00  0.00000000000E+00  0.15576261445E+03  0.19971728032E+03  0.12500000000E+03 0.  0.
<mgrwt>
<rscale>  0 0.12500000E+03</rscale>
<asrwt>0</asrwt>
<pdfrwt beam="1">  1       21 0.27344606E-01 0.12500000E+03</pdfrwt>
<pdfrwt beam="2">  1       21 0.33811283E-02 0.12500000E+03</pdfrwt>
<totfact> 0.64957900E+06</totfact>
</mgrwt>
</event>
<event>
 3    1  0.1619206E-001  0.1250000E+03  0.7546771E-02  0.1235069E+00
         21   -1    0    0  502  501  0.00000000000E+00  0.00000000000E+00  0.21966559278E+02  0.21966559278E+02  0.00000000000E+00 0. -1.
         21   -1    0    0  501  502 -0.00000000000E+00 -0.00000000000E+00 -0.17782712124E+03  0.17782712124E+03  0.00000000000E+00 0. -1.
         25    1    1    2    0    0  0.00000000000E+00  0.00000000000E+00 -0.15586056196E+03  0.19979368052E+03  0.12500000000E+03 0.  0.
<mgrwt>
<rscale>  0 0.12500000E+03</rscale>
<asrwt>0</asrwt>
<pdfrwt beam="1">  1       21 0.33794707E-02 0.12500000E+03</pdfrwt>
<pdfrwt beam="2">  1       21 0.27358018E-01 0.12500000E+03</pdfrwt>
<totfact> 0.64949615E+06</totfact>
</mgrwt>
</event>
<event>
 3    1  0.1619206E-001  0.1250000E+03  0.7546771E-02  0.1235069E+00
         21   -1    0    0  502  501  0.00000000000E+00  0.00000000000E+00  0.23201734645E+02  0.23201734645E+02  0.00000000000E+00 0.  1.
         21   -1    0    0  501  502 -0.00000000000E+00 -0.00000000000E+00 -0.16836025667E+03  0.16836025667E+03  0.00000000000E+00 0.  1.
         25    1    1    2    0    0  0.00000000000E+00  0.00000000000E+00 -0.14515852202E+03  0.19156199131E+03  0.12500000000E+03 0.  0.
<mgrwt>
<rscale>  0 0.12500000E+03</rscale>
<asrwt>0</asrwt>
<pdfrwt beam="1">  1       21 0.35694976E-02 0.12500000E+03</pdfrwt>
<pdfrwt beam="2">  1       21 0.25901578E-01 0.12500000E+03</pdfrwt>
<totfact> 0.65849283E+06</totfact>
</mgrwt>
</event>
<event>
 3    1  0.1619206E-001  0.1250000E+03  0.7546771E-02  0.1235069E+00
         21   -1    0    0  502  501  0.00000000000E+00  0.00000000000E+00  0.21599204535E+02  0.21599204535E+02  0.00000000000E+00 0. -1.
         21   -1    0    0  501  502 -0.00000000000E+00 -0.00000000000E+00 -0.18085156764E+03  0.18085156764E+03  0.00000000000E+00 0. -1.
         25    1    1    2    0    0  0.00000000000E+00  0.00000000000E+00 -0.15925236311E+03  0.20245077218E+03  0.12500000000E+03 0.  0.
<mgrwt>
<rscale>  0 0.12500000E+03</rscale>
<asrwt>0</asrwt>
<pdfrwt beam="1">  1       21 0.33229544E-02 0.12500000E+03</pdfrwt>
<pdfrwt beam="2">  1       21 0.27823319E-01 0.12500000E+03</pdfrwt>
<totfact> 0.64662658E+06</totfact>
</mgrwt>
</event>
<event>
 3    1  0.1619206E-001  0.1250000E+03  0.7546771E-02  0.1235069E+00
         21   -1    0    0  502  501  0.00000000000E+00  0.00000000000E+00  0.12302611307E+03  0.12302611307E+03  0.00000000000E+00 0.  1.
         21   -1    0    0  501  502 -0.00000000000E+00 -0.00000000000E+00 -0.31751389218E+02  0.31751389218E+02  0.00000000000E+00 0.  1.
         25    1    1    2    0    0  0.00000000000E+00  0.00000000000E+00  0.91274723848E+02  0.15477750228E+03  0.12500000000E+03 0.  0.
<mgrwt>
<rscale>  0 0.12500000E+03</rscale>
<asrwt>0</asrwt>
<pdfrwt beam="1">  1       21 0.18927094E-01 0.12500000E+03</pdfrwt>
<pdfrwt beam="2">  1       21 0.48848292E-02 0.12500000E+03</pdfrwt>
<totfact> 0.70163323E+06</totfact>
</mgrwt>
</event>
<event>
 3    1  0.1619206E-001  0.1250000E+03  0.7546771E-02  0.1235069E+00
         21   -1    0    0  502  501  0.00000000000E+00  0.00000000000E+00  0.12416070494E+02  0.12416070494E+02  0.00000000000E+00 0. -1.
         21   -1    0    0  501  502 -0.00000000000E+00 -0.00000000000E+00 -0.31461242122E+03  0.31461242122E+03  0.00000000000E+00 0. -1.
         25    1    1    2    0    0  0.00000000000E+00  0.00000000000E+00 -0.30219635073E+03  0.32702849171E+03  0.12500000000E+03 0.  0.
<mgrwt>
<rscale>  0 0.12500000E+03</rscale>
<asrwt>0</asrwt>
<pdfrwt beam="1">  1       21 0.19101647E-02 0.12500000E+03</pdfrwt>
<pdfrwt beam="2">  1       21 0.48401911E-01 0.12500000E+03</pdfrwt>
<totfact> 0.53281029E+06</totfact>
</mgrwt>
</event>
<event>
 3    1  0.1619206E-001  0.1250000E+03  0.7546771E-02  0.1235069E+00
         21   -1    0    0  502  501  0.00000000000E+00  0.00000000000E+00  0.93018315653E+02  0.93018315653E+02  0.00000000000E+00 0.  1.
         21   -1    0    0  501  502 -0.00000000000E+00 -0.00000000000E+00 -0.41994417686E+02  0.41994417686E+02  0.00000000000E+00 0.  1.
         25    1    1    2    0    0  0.00000000000E+00  0.00000000000E+00  0.51023897967E+02  0.13501273334E+03  0.12500000000E+03 0.  0.
<mgrwt>
<rscale>  0 0.12500000E+03</rscale>
<asrwt>0</asrwt>
<pdfrwt beam="1">  1       21 0.14310510E-01 0.12500000E+03</pdfrwt>
<pdfrwt beam="2">  1       21 0.64606796E-02 0.12500000E+03</pdfrwt>
<totfact> 0.72694786E+06</totfact>
</mgrwt>
</event>
<event>
 3    1  0.1619206E-001  0.1250000E+03  0.7546771E-02  0.1235069E+00
         21   -1    0    0  502  501  0.00000000000E+00  0.00000000000E+00  0.24782814514E+02  0.24782814514E+02  0.00000000000E+00 0.  1.
         21   -1    0    0  501  502 -0.00000000000E+00 -0.00000000000E+00 -0.15761930501E+03  0.15761930501E+03  0.00000000000E+00 0.  1.
         25    1    1    2    0    0  0.00000000000E+00  0.00000000000E+00 -0.13283649050E+03  0.18240211953E+03  0.12500000000E+03 0.  0.
<mgrwt>
<rscale>  0 0.12500000E+03</rscale>
<asrwt>0</asrwt>
<pdfrwt beam="1">  1       21 0.38127407E-02 0.12500000E+03</pdfrwt>
<pdfrwt beam="2">  1       21 0.24249124E-01 0.12500000E+03</pdfrwt>
<totfact> 0.66877036E+06</totfact>
</mgrwt>
</event>
<event>
 3    1  0.1619206E-001  0.1250000E+03  0.7546771E-02  0.1235069E+00
         21   -1    0    0  502  501  0.00000000000E+00  0.00000000000E+00  0.80667232603E+01  0.80667232603E+01  0.00000000000E+00 0.  1.
         21   -1    0    0  501  502 -0.00000000000E+00 -0.00000000000E+00 -0.48424247045E+03  0.48424247045E+03  0.00000000000E+00 0.  1.
         25    1    1    2    0    0  0.00000000000E+00  0.00000000000E+00 -0.47617574719E+03  0.49230919371E+03  0.12500000000E+03 0.  0.
<mgrwt>
<rscale>  0 0.12500000E+03</rscale>
<asrwt>0</asrwt>
<pdfrwt beam="1">  1       21 0.12410346E-02 0.12500000E+03</pdfrwt>
<pdfrwt beam="2">  1       21 0.74498826E-01 0.12500000E+03</pdfrwt>
<totfact> 0.42464260E+06</totfact>
</mgrwt>
</event>
<event>
 3    1  0.1619206E-001  0.1250000E+03  0.7546771E-02  0.1235069E+00
         21   -1    0    0  502  501  0.00000000000E+00  0.00000000000E+00  0.18258481865E+03  0.18258481865E+03  0.00000000000E+00 0.  1.
         21   -1    0    0  501  502 -0.00000000000E+00 -0.00000000000E+00 -0.21394166442E+02  0.21394166442E+02  0.00000000000E+00 0.  1.
         25    1    1    2    0    0  0.00000000000E+00  0.00000000000E+00  0.16119065221E+03  0.20397898509E+03  0.12500000000E+03 0.  0.
<mgrwt>
<rscale>  0 0.12500000E+03</rscale>
<asrwt>0</asrwt>
<pdfrwt beam="1">  1       21 0.28089971E-01 0.12500000E+03</pdfrwt>
<pdfrwt beam="2">  1       21 0.32914103E-02 0.12500000E+03</pdfrwt>
<totfact> 0.64498637E+06</totfact>
</mgrwt>
</event>
<event>
 3    1  0.1619206E-001  0.1250000E+03  0.7546771E-02  0.1235069E+00
         21   -1    0    0  502  501  0.00000000000E+00  0.00000000000E+00  0.12773290662E+03  0.12773290662E+03  0.00000000000E+00 0.  1.
         21   -1    0    0  501  502 -0.00000000000E+00 -0.00000000000E+00 -0.30581391306E+02  0.30581391306E+02  0.00000000000E+00 0.  1.
         25    1    1    2    0    0  0.00000000000E+00  0.00000000000E+00  0.97151515312E+02  0.15831429792E+03  0.12500000000E+03 0.  0.
<mgrwt>
<rscale>  0 0.12500000E+03</rscale>
<asrwt>0</asrwt>
<pdfrwt beam="1">  1       21 0.19651216E-01 0.12500000E+03</pdfrwt>
<pdfrwt beam="2">  1       21 0.47048295E-02 0.12500000E+03</pdfrwt>
<totfact> 0.69726059E+06</totfact>
</mgrwt>
</event>
<event>
 3    1  0.1619206E-001  0.1250000E+03  0.7546771E-02  0.1235069E+00
         21   -1    0    0  502  501  0.00000000000E+00  0.00000000000E+00  0.54610438752E+01  0.54610438752E+01  0.00000000000E+00 0.  1.
         21   -1    0    0  501  502 -0.00000000000E+00 -0.00000000000E+00 -0.71529364885E+03  0.71529364885E+03  0.00000000000E+00 0.  1.
         25    1    1    2    0    0  0.00000000000E+00  0.00000000000E+00 -0.70983260497E+03  0.72075469272E+03  0.12500000000E+03 0.  0.
<mgrwt>
<rscale>  0 0.12500000E+03</rscale>
<asrwt>0</asrwt>
<pdfrwt beam="1">  1       21 0.84016098E-03 0.12500000E+03</pdfrwt>
<pdfrwt beam="2">  1       21 0.11004513E+00 0.12500000E+03</pdfrwt>
<totfact> 0.32125191E+06</totfact>
</mgrwt>
</event>
<event>
 3    1  0.1619206E-001  0.1250000E+03  0.7546771E-02  0.1235069E+00
         21   -1    0    0  502  501  0.00000000000E+00  0.00000000000E+00  0.14299117838E+03  0.14299117838E+03  0.00000000000E+00 0.  1.
         21   -1    0    0  501  502 -0.00000000000E+00 -0.00000000000E+00 -0.27318118812E+02  0.27318118812E+02  0.00000000000E+00 0.  1.
         25    1    1    2    0    0  0.00000000000E+00  0.00000000000E+00  0.11567305957E+03  0.17030929719E+03  0.12500000000E+03 0.  0.
<mgrwt>
<rscale>  0 0.12500000E+03</rscale>
<asrwt>0</asrwt>
<pdfrwt beam="1">  1       21 0.21998643E-01 0.12500000E+03</pdfrwt>
<pdfrwt beam="2">  1       21 0.42027876E-02 0.12500000E+03</pdfrwt>
<totfact> 0.68280989E+06</totfact>
</mgrwt>
</event>
<event>
 3    1  0.1619206E-001  0.1250000E+03  0.7546771E-02  0.1235069E+00
         21   -1    0    0  502  501  0.00000000000E+00  0.00000000000E+00  0.13640520564E+03  0.13640520564E+03  0.00000000000E+00 0.  1.
         21   -1    0    0  501  502 -0.00000000000E+00 -0.00000000000E+00 -0.28637103560E+02  0.28637103560E+02  0.00000000000E+00 0.  1.
         25    1    1    2    0    0  0.00000000000E+00  0.00000000000E+00  0.10776810208E+03  0.16504230920E+03  0.12500000000E+03 0.  0.
<mgrwt>
<rscale>  0 0.12500000E+03</rscale>
<asrwt>0</asrwt>
<pdfrwt beam="1">  1       21 0.20985416E-01 0.12500000E+03</pdfrwt>
<pdfrwt beam="2">  1       21 0.44057083E-02 0.12500000E+03</pdfrwt>
<totfact> 0.68908569E+06</totfact>
</mgrwt>
</event>
<event>
 3    1  0.1619206E-001  0.1250000E+03  0.7546771E-02  0.1235069E+00
         21   -1    0    0  502  501  0.00000000000E+00  0.00000000000E+00  0.11081314348E+03  0.11081314348E+03  0.00000000000E+00 0.  1.
         21   -1    0    0  501  502 -0.00000000000E+00 -0.00000000000E+00 -0.35250782329E+02  0.35250782329E+02  0.00000000000E+00 0.  1.
         25    1    1    2    0    0  0.00000000000E+00  0.00000000000E+00  0.75562361152E+02  0.14606392581E+03  0.12500000000E+03 0.  0.
<mgrwt>
<rscale>  0 0.12500000E+03</rscale>
<asrwt>0</asrwt>
<pdfrwt beam="1">  1       21 0.17048176E-01 0.12500000E+03</pdfrwt>
<pdfrwt beam="2">  1       21 0.54231973E-02 0.12500000E+03</pdfrwt>
<totfact> 0.71257220E+06</totfact>
</mgrwt>
</event>
<event>
 3    1  0.1619206E-001  0.1250000E+03  0.7546771E-02  0.1235069E+00
         21   -1    0    0  502  501  0.00000000000E+00  0.00000000000E+00  0.11400734426E+02  0.11400734426E+02  0.00000000000E+00 0.  1.
         21   -1    0    0  501  502 -0.00000000000E+00 -0.00000000000E+00 -0.34263143532E+03  0.34263143532E+03  0.00000000000E+00 0.  1.
         25    1    1    2    0    0  0.00000000000E+00  0.00000000000E+00 -0.33123070090E+03  0.35403216975E+03  0.12500000000E+03 0.  0.
<mgrwt>
<rscale>  0 0.12500000E+03</rscale>
<asrwt>0</asrwt>
<pdfrwt beam="1">  1       21 0.17539592E-02 0.12500000E+03</pdfrwt>
<pdfrwt beam="2">  1       21 0.52712527E-01 0.12500000E+03</pdfrwt>
<totfact> 0.51242018E+06</totfact>
</mgrwt>
</event>
<event>
 3    1  0.1619206E-001  0.1250000E+03  0.7546771E-02  0.1235069E+00
         21   -1    0    0  502  501  0.00000000000E+00  0.00000000000E+00  0.18957327220E+02  0.18957327220E+02  0.00000000000E+00 0.  1.
         21   -1    0    0  501  502 -0.00000000000E+00 -0.00000000000E+00 -0.20605489132E+03  0.20605489132E+03  0.00000000000E+00 0.  1.
         25    1    1    2    0    0  0.00000000000E+00  0.00000000000E+00 -0.18709756410E+03  0.22501221854E+03  0.12500000000E+03 0.  0.
<mgrwt>
<rscale>  0 0.12500000E+03</rscale>
<asrwt>0</asrwt>
<pdfrwt beam="1">  1       21 0.29165120E-02 0.12500000E+03</pdfrwt>
<pdfrwt beam="2">  1       21 0.31700751E-01 0.12500000E+03</pdfrwt>
<totfact> 0.62313864E+06</totfact>
</mgrwt>
</event>
<event>
 3    1  0.1619206E-001  0.1250000E+03  0.7546771E-02  0.1235069E+00
         21   -1    0    0  502  501  0.00000000000E+00  0.00000000000E+00  0.13613271193E+03  0.13613271193E+03  0.00000000000E+00 0. -1.
         21   -1    0    0  501  502 -0.00000000000E+00 -0.00000000000E+00 -0.28694425789E+02  0.28694425789E+02  0.00000000000E+00 0. -1.
         25    1    1    2    0    0  0.00000000000E+00  0.00000000000E+00  0.10743828614E+03  0.16482713772E+03  0.12500000000E+03 0.  0.
<mgrwt>
<rscale>  0 0.12500000E+03</rscale>
<asrwt>0</asrwt>
<pdfrwt beam="1">  1       21 0.20943494E-01 0.12500000E+03</pdfrwt>
<pdfrwt beam="2">  1       21 0.44145271E-02 0.12500000E+03</pdfrwt>
<totfact> 0.68934430E+06</totfact>
</mgrwt>
</event>
<event>
 3    1  0.1619206E-001  0.1250000E+03  0.7546771E-02  0.1235069E+00
         21   -1    0    0  502  501  0.00000000000E+00  0.00000000000E+00  0.93652058047E+02  0.93652058047E+02  0.00000000000E+00 0.  1.
         21   -1    0    0  501  502 -0.00000000000E+00 -0.00000000000E+00 -0.41710241947E+02  0.41710241947E+02  0.00000000000E+00 0.  1.
         25    1    1    2    0    0  0.00000000000E+00  0.00000000000E+00  0.51941816099E+02  0.13536229999E+03  0.12500000000E+03 0.  0.
<mgrwt>
<rscale>  0 0.12500000E+03</rscale>
<asrwt>0</asrwt>
<pdfrwt beam="1">  1       21 0.14408009E-01 0.12500000E+03</pdfrwt>
<pdfrwt beam="2">  1       21 0.64169603E-02 0.12500000E+03</pdfrwt>
<totfact> 0.72648537E+06</totfact>
</mgrwt>
</event>
<event>
 3    1  0.1619206E-001  0.1250000E+03  0.7546771E-02  0.1235069E+00
         21   -1    0    0  502  501  0.00000000000E+00  0.00000000000E+00  0.71748578498E+02  0.71748578498E+02  0.00000000000E+00 0. -1.
         21   -1    0    0  501  502 -0.00000000000E+00 -0.00000000000E+00 -0.54443587340E+02  0.54443587340E+02  0.00000000000E+00 0. -1.
         25    1    1    2    0    0  0.00000000000E+00  0.00000000000E+00  0.17304991158E+02  0.12619216584E+03  0.12500000000E+03 0.  0.
<mgrwt>
<rscale>  0 0.12500000E+03</rscale>
<asrwt>0</asrwt>
<pdfrwt beam="1">  1       21 0.11038243E-01 0.12500000E+03</pdfrwt>
<pdfrwt beam="2">  1       21 0.83759365E-02 0.12500000E+03</pdfrwt>
<totfact> 0.73879586E+06</totfact>
</mgrwt>
</event>
<event>
 3    1  0.1619206E-001  0.1250000E+03  0.7546771E-02  0.1235069E+00
         21   -1    0    0  502  501  0.00000000000E+00  0.00000000000E+00  0.38921843617E+03  0.38921843617E+03  0.00000000000E+00 0. -1.
         21   -1    0    0  501  502 -0.00000000000E+00 -0.00000000000E+00 -0.10036138160E+02  0.10036138160E+02  0.00000000000E+00 0. -1.
         25    1    1    2    0    0  0.00000000000E+00  0.00000000000E+00  0.37918229801E+03  0.39925457433E+03  0.12500000000E+03 0.  0.
<mgrwt>
<rscale>  0 0.12500000E+03</rscale>
<asrwt>0</asrwt>
<pdfrwt beam="1">  1       21 0.59879748E-01 0.12500000E+03</pdfrwt>
<pdfrwt beam="2">  1       21 0.15440216E-02 0.12500000E+03</pdfrwt>
<totfact> 0.48090838E+06</totfact>
</mgrwt>
</event>
<event>
 3    1  0.1619206E-001  0.1250000E+03  0.7546771E-02  0.1235069E+00
         21   -1    0    0  502  501  0.00000000000E+00  0.00000000000E+00  0.28897593962E+03  0.28897593962E+03  0.00000000000E+00 0. -1.
         21   -1    0    0  501  502 -0.00000000000E+00 -0.00000000000E+00 -0.13517561376E+02  0.13517561376E+02  0.00000000000E+00 0. -1.
         25    1    1    2    0    0  0.00000000000E+00  0.00000000000E+00  0.27545837824E+03  0.30249350099E+03  0.12500000000E+03 0.  0.
<mgrwt>
<rscale>  0 0.12500000E+03</rscale>
<asrwt>0</asrwt>
<pdfrwt beam="1">  1       21 0.44457832E-01 0.12500000E+03</pdfrwt>
<pdfrwt beam="2">  1       21 0.20796250E-02 0.12500000E+03</pdfrwt>
<totfact> 0.55249591E+06</totfact>
</mgrwt>
</event>
<event>
 3    1  0.1619206E-001  0.1250000E+03  0.7546771E-02  0.1235069E+00
         21   -1    0    0  502  501  0.00000000000E+00  0.00000000000E+00  0.79916817303E+02  0.79916817303E+02  0.00000000000E+00 0. -1.
         21   -1    0    0  501  502 -0.00000000000E+00 -0.00000000000E+00 -0.48878948534E+02  0.48878948534E+02  0.00000000000E+00 0. -1.
         25    1    1    2    0    0  0.00000000000E+00  0.00000000000E+00  0.31037868769E+02  0.12879576584E+03  0.12500000000E+03 0.  0.
<mgrwt>
<rscale>  0 0.12500000E+03</rscale>
<asrwt>0</asrwt>
<pdfrwt beam="1">  1       21 0.12294895E-01 0.12500000E+03</pdfrwt>
<pdfrwt beam="2">  1       21 0.75198382E-02 0.12500000E+03</pdfrwt>
<totfact> 0.73526324E+06</totfact>
</mgrwt>
</event>
<event>
 3    1  0.1619206E-001  0.1250000E+03  0.7546771E-02  0.1235069E+00
         21   -1    0    0  502  501  0.00000000000E+00  0.00000000000E+00  0.93409849161E+03  0.93409849161E+03  0.00000000000E+00 0. -1.
         21   -1    0    0  501  502 -0.00000000000E+00 -0.00000000000E+00 -0.41818395331E+01  0.41818395331E+01  0.00000000000E+00 0. -1.
         25    1    1    2    0    0  0.00000000000E+00  0.00000000000E+00  0.92991665208E+03  0.93828033114E+03  0.12500000000E+03 0.  0.
<mgrwt>
<rscale>  0 0.12500000E+03</rscale>
<asrwt>0</asrwt>
<pdfrwt beam="1">  1       21 0.14370729E+00 0.12500000E+03</pdfrwt>
<pdfrwt beam="2">  1       21 0.64336068E-03 0.12500000E+03</pdfrwt>
<totfact> 0.25227863E+06</totfact>
</mgrwt>
</event>
<event>
 3    1  0.1619206E-001  0.1250000E+03  0.7546771E-02  0.1235069E+00
         21   -1    0    0  502  501  0.00000000000E+00  0.00000000000E+00  0.23948025509E+01  0.23948025509E+01  0.00000000000E+00 0. -1.
         21   -1    0    0  501  502 -0.00000000000E+00 -0.00000000000E+00 -0.16311365622E+04  0.16311365622E+04  0.00000000000E+00 0. -1.
         25    1    1    2    0    0  0.00000000000E+00  0.00000000000E+00 -0.16287417596E+04  0.16335313647E+04  0.12500000000E+03 0.  0.
<mgrwt>
<rscale>  0 0.12500000E+03</rscale>
<asrwt>0</asrwt>
<pdfrwt beam="1">  1       21 0.36843093E-03 0.12500000E+03</pdfrwt>
<pdfrwt beam="2">  1       21 0.25094424E+00 0.12500000E+03</pdfrwt>
<totfact> 0.12124126E+06</totfact>
</mgrwt>
</event>
<event>
 3    1  0.1619206E-001  0.1250000E+03  0.7546771E-02  0.1235069E+00
         21   -1    0    0  502  501  0.00000000000E+00  0.00000000000E+00  0.23170324113E+02  0.23170324113E+02  0.00000000000E+00 0.  1.
         21   -1    0    0  501  502 -0.00000000000E+00 -0.00000000000E+00 -0.16858849194E+03  0.16858849194E+03  0.00000000000E+00 0.  1.
         25    1    1    2    0    0  0.00000000000E+00  0.00000000000E+00 -0.14541816783E+03  0.19175881605E+03  0.12500000000E+03 0.  0.
<mgrwt>
<rscale>  0 0.12500000E+03</rscale>
<asrwt>0</asrwt>
<pdfrwt beam="1">  1       21 0.35646652E-02 0.12500000E+03</pdfrwt>
<pdfrwt beam="2">  1       21 0.25936691E-01 0.12500000E+03</pdfrwt>
<totfact> 0.65827519E+06</totfact>
</mgrwt>
</event>
<event>
 3    1  0.1619206E-001  0.1250000E+03  0.7546771E-02  0.1235069E+00
         21   -1    0    0  502  501  0.00000000000E+00  0.00000000000E+00  0.22454704162E+02  0.22454704162E+02  0.00000000000E+00 0.  1.
         21   -1    0    0  501  502 -0.00000000000E+00 -0.00000000000E+00 -0.17396132106E+03  0.17396132106E+03  0.00000000000E+00 0.  1.
         25    1    1    2    0    0  0.00000000000E+00  0.00000000000E+00 -0.15150661690E+03  0.19641602522E+03  0.12500000000E+03 0.  0.
<mgrwt>
<rscale>  0 0.12500000E+03</rscale>
<asrwt>0</asrwt>
<pdfrwt beam="1">  1       21 0.34545698E-02 0.12500000E+03</pdfrwt>
<pdfrwt beam="2">  1       21 0.26763281E-01 0.12500000E+03</pdfrwt>
<totfact> 0.65316375E+06</totfact>
</mgrwt>
</event>
<event>
 3    1  0.1619206E-001  0.1250000E+03  0.7546771E-02  0.1235069E+00
         21   -1    0    0  502  501  0.00000000000E+00  0.00000000000E+00  0.44013683690E+03  0.44013683690E+03  0.00000000000E+00 0.  1.
         21   -1    0    0  501  502 -0.00000000000E+00 -0.00000000000E+00 -0.88750808214E+01  0.88750808214E+01  0.00000000000E+00 0.  1.
         25    1    1    2    0    0  0.00000000000E+00  0.00000000000E+00  0.43126175608E+03  0.44901191772E+03  0.12500000000E+03 0.  0.
<mgrwt>
<rscale>  0 0.12500000E+03</rscale>
<asrwt>0</asrwt>
<pdfrwt beam="1">  1       21 0.67713343E-01 0.12500000E+03</pdfrwt>
<pdfrwt beam="2">  1       21 0.13653974E-02 0.12500000E+03</pdfrwt>
<totfact> 0.44951459E+06</totfact>
</mgrwt>
</event>
<event>
 3    1  0.1619206E-001  0.1250000E+03  0.7546771E-02  0.1235069E+00
         21   -1    0    0  502  501  0.00000000000E+00  0.00000000000E+00  0.42912524226E+02  0.42912524226E+02  0.00000000000E+00 0. -1.
         21   -1    0    0  501  502 -0.00000000000E+00 -0.00000000000E+00 -0.91028203781E+02  0.91028203781E+02  0.00000000000E+00 0. -1.
         25    1    1    2    0    0  0.00000000000E+00  0.00000000000E+00 -0.48115679555E+02  0.13394072801E+03  0.12500000000E+03 0.  0.
<mgrwt>
<rscale>  0 0.12500000E+03</rscale>
<asrwt>0</asrwt>
<pdfrwt beam="1">  1       21 0.66019268E-02 0.12500000E+03</pdfrwt>
<pdfrwt beam="2">  1       21 0.14004339E-01 0.12500000E+03</pdfrwt>
<totfact> 0.72837035E+06</totfact>
</mgrwt>
</event>
<event>
 3    1  0.1619206E-001  0.1250000E+03  0.7546771E-02  0.1235069E+00
         21   -1    0    0  502  501  0.00000000000E+00  0.00000000000E+00  0.13742760807E+02  0.13742760807E+02  0.00000000000E+00 0.  1.
         21   -1    0    0  501  502 -0.00000000000E+00 -0.00000000000E+00 -0.28424055798E+03  0.28424055798E+03  0.00000000000E+00 0.  1.
         25    1    1    2    0    0  0.00000000000E+00  0.00000000000E+00 -0.27049779717E+03  0.29798331879E+03  0.12500000000E+03 0.  0.
<mgrwt>
<rscale>  0 0.12500000E+03</rscale>
<asrwt>0</asrwt>
<pdfrwt beam="1">  1       21 0.21142709E-02 0.12500000E+03</pdfrwt>
<pdfrwt beam="2">  1       21 0.43729317E-01 0.12500000E+03</pdfrwt>
<totfact> 0.55624185E+06</totfact>
</mgrwt>
</event>
<event>
 3    1  0.1619206E-001  0.1250000E+03  0.7546771E-02  0.1235069E+00
         21   -1    0    0  502  501  0.00000000000E+00  0.00000000000E+00  0.65415035640E+03  0.65415035640E+03  0.00000000000E+00 0. -1.
         21   -1    0    0  501  502 -0.00000000000E+00 -0.00000000000E+00 -0.59714864661E+01  0.59714864661E+01  0.00000000000E+00 0. -1.
         25    1    1    2    0    0  0.00000000000E+00  0.00000000000E+00  0.64817886993E+03  0.66012184286E+03  0.12500000000E+03 0.  0.
<mgrwt>
<rscale>  0 0.12500000E+03</rscale>
<asrwt>0</asrwt>
<pdfrwt beam="1">  1       21 0.10063846E+00 0.12500000E+03</pdfrwt>
<pdfrwt beam="2">  1       21 0.91869074E-03 0.12500000E+03</pdfrwt>
<totfact> 0.34504866E+06</totfact>
</mgrwt>
</event>
<event>
 3    1  0.1619206E-001  0.1250000E+03  0.7546771E-02  0.1235069E+00
         21   -1    0    0  502  501  0.00000000000E+00  0.00000000000E+00  0.13550821924E+02  0.13550821924E+02  0.00000000000E+00 0. -1.
         21   -1    0    0  501  502 -0.00000000000E+00 -0.00000000000E+00 -0.28826664698E+03  0.28826664698E+03  0.00000000000E+00 0. -1.
         25    1    1    2    0    0  0.00000000000E+00  0.00000000000E+00 -0.27471582506E+03  0.30181746891E+03  0.12500000000E+03 0.  0.
<mgrwt>
<rscale>  0 0.12500000E+03</rscale>
<asrwt>0</asrwt>
<pdfrwt beam="1">  1       21 0.20847419E-02 0.12500000E+03</pdfrwt>
<pdfrwt beam="2">  1       21 0.44348713E-01 0.12500000E+03</pdfrwt>
<totfact> 0.55305473E+06</totfact>
</mgrwt>
</event>
<event>
 3    1  0.1619206E-001  0.1250000E+03  0.7546771E-02  0.1235069E+00
         21   -1    0    0  502  501  0.00000000000E+00  0.00000000000E+00  0.21088404350E+03  0.21088404350E+03  0.00000000000E+00 0.  1.
         21   -1    0    0  501  502 -0.00000000000E+00 -0.00000000000E+00 -0.18523212734E+02  0.18523212734E+02  0.00000000000E+00 0.  1.
         25    1    1    2    0    0  0.00000000000E+00  0.00000000000E+00  0.19236083077E+03  0.22940725624E+03  0.12500000000E+03 0.  0.
<mgrwt>
<rscale>  0 0.12500000E+03</rscale>
<asrwt>0</asrwt>
<pdfrwt beam="1">  1       21 0.32443697E-01 0.12500000E+03</pdfrwt>
<pdfrwt beam="2">  1       21 0.28497252E-02 0.12500000E+03</pdfrwt>
<totfact> 0.61873018E+06</totfact>
</mgrwt>
</event>
<event>
 3    1  0.1619206E-001  0.1250000E+03  0.7546771E-02  0.1235069E+00
         21   -1    0    0  502  501  0.00000000000E+00  0.00000000000E+00  0.49726027100E+02  0.49726027100E+02  0.00000000000E+00 0.  1.
         21   -1    0    0  501  502 -0.00000000000E+00 -0.00000000000E+00 -0.78555441242E+02  0.78555441242E+02  0.00000000000E+00 0.  1.
         25    1    1    2    0    0  0.00000000000E+00  0.00000000000E+00 -0.28829414142E+02  0.12828146834E+03  0.12500000000E+03 0.  0.
<mgrwt>
<rscale>  0 0.12500000E+03</rscale>
<asrwt>0</asrwt>
<pdfrwt beam="1">  1       21 0.76501580E-02 0.12500000E+03</pdfrwt>
<pdfrwt beam="2">  1       21 0.12085452E-01 0.12500000E+03</pdfrwt>
<totfact> 0.73595571E+06</totfact>
</mgrwt>
</event>
<event>
 3    1  0.1619206E-001  0.1250000E+03  0.7546771E-02  0.1235069E+00
         21   -1    0    0  502  501  0.00000000000E+00  0.00000000000E+00  0.29288139515E+03  0.29288139515E+03  0.00000000000E+00 0.  1.
         21   -1    0    0  501  502 -0.00000000000E+00 -0.00000000000E+00 -0.13337310136E+02  0.13337310136E+02  0.00000000000E+00 0.  1.
         25    1    1    2    0    0  0.00000000000E+00  0.00000000000E+00  0.27954408501E+03  0.30621870528E+03  0.12500000000E+03 0.  0.
<mgrwt>
<rscale>  0 0.12500000E+03</rscale>
<asrwt>0</asrwt>
<pdfrwt beam="1">  1       21 0.45058671E-01 0.12500000E+03</pdfrwt>
<pdfrwt beam="2">  1       21 0.20518941E-02 0.12500000E+03</pdfrwt>
<totfact> 0.54943305E+06</totfact>
</mgrwt>
</event>
<event>
 3    1  0.1619206E-001  0.1250000E+03  0.7546771E-02  0.1235069E+00
         21   -1    0    0  502  501  0.00000000000E+00  0.00000000000E+00  0.17828322062E+01  0.17828322062E+01  0.00000000000E+00 0.  1.
         21   -1    0    0  501  502 -0.00000000000E+00 -0.00000000000E+00 -0.21910362548E+04  0.21910362548E+04  0.00000000000E+00 0.  1.
         25    1    1    2    0    0  0.00000000000E+00  0.00000000000E+00 -0.21892534226E+04  0.21928190870E+04  0.12500000000E+03 0.  0.
<mgrwt>
<rscale>  0 0.12500000E+03</rscale>
<asrwt>0</asrwt>
<pdfrwt beam="1">  1       21 0.27428167E-03 0.12500000E+03</pdfrwt>
<pdfrwt beam="2">  1       21 0.33708276E+00 0.12500000E+03</pdfrwt>
<totfact> 0.62161811E+05</totfact>
</mgrwt>
</event>
<event>
 3    1  0.1619206E-001  0.1250000E+03  0.7546771E-02  0.1235069E+00
         21   -1    0    0  502  501  0.00000000000E+00  0.00000000000E+00  0.10945163837E+03  0.10945163837E+03  0.00000000000E+00 0.  1.
         21   -1    0    0  501  502 -0.00000000000E+00 -0.00000000000E+00 -0.35689278463E+02  0.35689278463E+02  0.00000000000E+00 0.  1.
         25    1    1    2    0    0  0.00000000000E+00  0.00000000000E+00  0.73762359907E+02  0.14514091683E+03  0.12500000000E+03 0.  0.
<mgrwt>
<rscale>  0 0.12500000E+03</rscale>
<asrwt>0</asrwt>
<pdfrwt beam="1">  1       21 0.16838713E-01 0.12500000E+03</pdfrwt>
<pdfrwt beam="2">  1       21 0.54906583E-02 0.12500000E+03</pdfrwt>
<totfact> 0.71375070E+06</totfact>
</mgrwt>
</event>
<event>
 3    1  0.1619206E-001  0.1250000E+03  0.7546771E-02  0.1235069E+00
         21   -1    0    0  502  501  0.00000000000E+00  0.00000000000E+00  0.66208085104E+03  0.66208085104E+03  0.00000000000E+00 0. -1.
         21   -1    0    0  501  502 -0.00000000000E+00 -0.00000000000E+00 -0.58999591876E+01  0.58999591876E+01  0.00000000000E+00 0. -1.
         25    1    1    2    0    0  0.00000000000E+00  0.00000000000E+00  0.65618089185E+03  0.66798081023E+03  0.12500000000E+03 0.  0.
<mgrwt>
<rscale>  0 0.12500000E+03</rscale>
<asrwt>0</asrwt>
<pdfrwt beam="1">  1       21 0.10185853E+00 0.12500000E+03</pdfrwt>
<pdfrwt beam="2">  1       21 0.90768655E-03 0.12500000E+03</pdfrwt>
<totfact> 0.34181495E+06</totfact>
</mgrwt>
</event>
<event>
 3    1  0.1619206E-001  0.1250000E+03  0.7546771E-02  0.1235069E+00
         21   -1    0    0  502  501  0.00000000000E+00  0.00000000000E+00  0.31616224456E+01  0.31616224456E+01  0.00000000000E+00 0.  1.
         21   -1    0    0  501  502 -0.00000000000E+00 -0.00000000000E+00 -0.12355207072E+04  0.12355207072E+04  0.00000000000E+00 0.  1.
         25    1    1    2    0    0  0.00000000000E+00  0.00000000000E+00 -0.12323590848E+04  0.12386823297E+04  0.12500000000E+03 0.  0.
<mgrwt>
<rscale>  0 0.12500000E+03</rscale>
<asrwt>0</asrwt>
<pdfrwt beam="1">  1       21 0.48640358E-03 0.12500000E+03</pdfrwt>
<pdfrwt beam="2">  1       21 0.19008006E+00 0.12500000E+03</pdfrwt>
<totfact> 0.18389180E+06</totfact>
</mgrwt>
</event>
<event>
 3    1  0.1619206E-001  0.1250000E+03  0.7546771E-02  0.1235069E+00
         21   -1    0    0  502  501  0.00000000000E+00  0.00000000000E+00  0.34567771032E+01  0.34567771032E+01  0.00000000000E+00 0. -1.
         21   -1    0    0  501  502 -0.00000000000E+00 -0.00000000000E+00 -0.11300265778E+04  0.11300265778E+04  0.00000000000E+00 0. -1.
         25    1    1    2    0    0  0.00000000000E+00  0.00000000000E+00 -0.11265698007E+04  0.11334833549E+04  0.12500000000E+03 0.  0.
<mgrwt>
<rscale>  0 0.12500000E+03</rscale>
<asrwt>0</asrwt>
<pdfrwt beam="1">  1       21 0.53181069E-03 0.12500000E+03</pdfrwt>
<pdfrwt beam="2">  1       21 0.17385063E+00 0.12500000E+03</pdfrwt>
<totfact> 0.20521242E+06</totfact>
</mgrwt>
</event>
<event>
 3    1  0.1619206E-001  0.1250000E+03  0.7546771E-02  0.1235069E+00
         21   -1    0    0  502  501  0.00000000000E+00  0.00000000000E+00  0.22731297516E+02  0.22731297516E+02  0.00000000000E+00 0. -1.
         21   -1    0    0  501  502 -0.00000000000E+00 -0.00000000000E+00 -0.17184456792E+03  0.17184456792E+03  0.00000000000E+00 0. -1.
         25    1    1    2    0    0  0.00000000000E+00  0.00000000000E+00 -0.14911327041E+03  0.19457586544E+03  0.12500000000E+03 0.  0.
<mgrwt>
<rscale>  0 0.12500000E+03</rscale>
<asrwt>0</asrwt>
<pdfrwt beam="1">  1       21 0.34971227E-02 0.12500000E+03</pdfrwt>
<pdfrwt beam="2">  1       21 0.26437626E-01 0.12500000E+03</pdfrwt>
<totfact> 0.65517472E+06</totfact>
</mgrwt>
</event>
<event>
 3    1  0.1619206E-001  0.1250000E+03  0.7546771E-02  0.1235069E+00
         21   -1    0    0  502  501  0.00000000000E+00  0.00000000000E+00  0.53575097528E+03  0.53575097528E+03  0.00000000000E+00 0.  1.
         21   -1    0    0  501  502 -0.00000000000E+00 -0.00000000000E+00 -0.72911673152E+01  0.72911673152E+01  0.00000000000E+00 0.  1.
         25    1    1    2    0    0  0.00000000000E+00  0.00000000000E+00  0.52845980796E+03  0.54304214259E+03  0.12500000000E+03 0.  0.
<mgrwt>
<rscale>  0 0.12500000E+03</rscale>
<asrwt>0</asrwt>
<pdfrwt beam="1">  1       21 0.82423196E-01 0.12500000E+03</pdfrwt>
<pdfrwt beam="2">  1       21 0.11217185E-02 0.12500000E+03</pdfrwt>
<totfact> 0.39802043E+06</totfact>
</mgrwt>
</event>
<event>
 3    1  0.1619206E-001  0.1250000E+03  0.7546771E-02  0.1235069E+00
         21   -1    0    0  502  501  0.00000000000E+00  0.00000000000E+00  0.99614823811E+01  0.99614823811E+01  0.00000000000E+00 0. -1.
         21   -1    0    0  501  502 -0.00000000000E+00 -0.00000000000E+00 -0.39213541224E+03  0.39213541224E+03  0.00000000000E+00 0. -1.
         25    1    1    2    0    0  0.00000000000E+00  0.00000000000E+00 -0.38217392985E+03  0.40209689462E+03  0.12500000000E+03 0.  0.
<mgrwt>
<rscale>  0 0.12500000E+03</rscale>
<asrwt>0</asrwt>
<pdfrwt beam="1">  1       21 0.15325358E-02 0.12500000E+03</pdfrwt>
<pdfrwt beam="2">  1       21 0.60328521E-01 0.12500000E+03</pdfrwt>
<totfact> 0.47902578E+06</totfact>
</mgrwt>
</event>
<event>
 3    1  0.1619206E-001  0.1250000E+03  0.7546771E-02  0.1235069E+00
         21   -1    0    0  502  501  0.00000000000E+00  0.00000000000E+00  0.49144582309E+01  0.49144582309E+01  0.00000000000E+00 0.  1.
         21   -1    0    0  501  502 -0.00000000000E+00 -0.00000000000E+00 -0.79484855024E+03  0.79484855024E+03  0.00000000000E+00 0.  1.
         25    1    1    2    0    0  0.00000000000E+00  0.00000000000E+00 -0.78993409200E+03  0.79976300847E+03  0.12500000000E+03 0.  0.
<mgrwt>
<rscale>  0 0.12500000E+03</rscale>
<asrwt>0</asrwt>
<pdfrwt beam="1">  1       21 0.75607002E-03 0.12500000E+03</pdfrwt>
<pdfrwt beam="2">  1       21 0.12228447E+00 0.12500000E+03</pdfrwt>
<totfact> 0.29370652E+06</totfact>
</mgrwt>
</event>
<event>
 3    1  0.1619206E-001  0.1250000E+03  0.7546771E-02  0.1235069E+00
         21   -1    0    0  502  501  0.00000000000E+00  0.00000000000E+00  0.42297436763E+03  0.42297436763E+03  0.00000000000E+00 0. -1.
         21   -1    0    0  501  502 -0.00000000000E+00 -0.00000000000E+00 -0.92351931913E+01  0.92351931913E+01  0.00000000000E+00 0. -1.
         25    1    1    2    0    0  0.00000000000E+00  0.00000000000E+00  0.41373917443E+03  0.43220956082E+03  0.12500000000E+03 0.  0.
<mgrwt>
<rscale>  0 0.12500000E+03</rscale>
<asrwt>0</asrwt>
<pdfrwt beam="1">  1       21 0.65072965E-01 0.12500000E+03</pdfrwt>
<pdfrwt beam="2">  1       21 0.14207993E-02 0.12500000E+03</pdfrwt>
<totfact> 0.45975819E+06</totfact>
</mgrwt>
</event>
<event>
 3    1  0.1619206E-001  0.1250000E+03  0.7546771E-02  0.1235069E+00
         21   -1    0    0  502  501  0.00000000000E+00  0.00000000000E+00  0.62381044743E+03  0.62381044743E+03  0.00000000000E+00 0.  1.
         21   -1    0    0  501  502 -0.00000000000E+00 -0.00000000000E+00 -0.62619182095E+01  0.62619182095E+01  0.00000000000E+00 0.  1.
         25    1    1    2    0    0  0.00000000000E+00  0.00000000000E+00  0.61754852922E+03  0.63007236564E+03  0.12500000000E+03 0.  0.
<mgrwt>
<rscale>  0 0.12500000E+03</rscale>
<asrwt>0</asrwt>
<pdfrwt beam="1">  1       21 0.95970789E-01 0.12500000E+03</pdfrwt>
<pdfrwt beam="2">  1       21 0.96337253E-03 0.12500000E+03</pdfrwt>
<totfact> 0.35767031E+06</totfact>
</mgrwt>
</event>
<event>
 3    1  0.1619206E-001  0.1250000E+03  0.7546771E-02  0.1235069E+00
         21   -1    0    0  502  501  0.00000000000E+00  0.00000000000E+00  0.48239518517E+03  0.48239518517E+03  0.00000000000E+00 0. -1.
         21   -1    0    0  501  502 -0.00000000000E+00 -0.00000000000E+00 -0.80976139897E+01  0.80976139897E+01  0.00000000000E+00 0. -1.
         25    1    1    2    0    0  0.00000000000E+00  0.00000000000E+00  0.47429757118E+03  0.49049279916E+03  0.12500000000E+03 0.  0.
<mgrwt>
<rscale>  0 0.12500000E+03</rscale>
<asrwt>0</asrwt>
<pdfrwt beam="1">  1       21 0.74214621E-01 0.12500000E+03</pdfrwt>
<pdfrwt beam="2">  1       21 0.12457871E-02 0.12500000E+03</pdfrwt>
<totfact> 0.42564413E+06</totfact>
</mgrwt>
</event>
<event>
 3    1  0.1619206E-001  0.1250000E+03  0.7546771E-02  0.1235069E+00
         21   -1    0    0  502  501  0.00000000000E+00  0.00000000000E+00  0.12301737745E+04  0.12301737745E+04  0.00000000000E+00 0. -1.
         21   -1    0    0  501  502 -0.00000000000E+00 -0.00000000000E+00 -0.31753643925E+01  0.31753643925E+01  0.00000000000E+00 0. -1.
         25    1    1    2    0    0  0.00000000000E+00  0.00000000000E+00  0.12269984101E+04  0.12333491388E+04  0.12500000000E+03 0.  0.
<mgrwt>
<rscale>  0 0.12500000E+03</rscale>
<asrwt>0</asrwt>
<pdfrwt beam="1">  1       21 0.18925712E+00 0.12500000E+03</pdfrwt>
<pdfrwt beam="2">  1       21 0.48851858E-03 0.12500000E+03</pdfrwt>
<totfact> 0.18491267E+06</totfact>
</mgrwt>
</event>
<event>
 3    1  0.1619206E-001  0.1250000E+03  0.7546771E-02  0.1235069E+00
         21   -1    0    0  502  501  0.00000000000E+00  0.00000000000E+00  0.80475263857E+01  0.80475263857E+01  0.00000000000E+00 0.  1.
         21   -1    0    0  501  502 -0.00000000000E+00 -0.00000000000E+00 -0.48539760080E+03  0.48539760080E+03  0.00000000000E+00 0.  1.
         25    1    1    2    0    0  0.00000000000E+00  0.00000000000E+00 -0.47735007442E+03  0.49344512719E+03  0.12500000000E+03 0.  0.
<mgrwt>
<rscale>  0 0.12500000E+03</rscale>
<asrwt>0</asrwt>
<pdfrwt beam="1">  1       21 0.12380806E-02 0.12500000E+03</pdfrwt>
<pdfrwt beam="2">  1       21 0.74676575E-01 0.12500000E+03</pdfrwt>
<totfact> 0.42401794E+06</totfact>
</mgrwt>
</event>
<event>
 3    1  0.1619206E-001  0.1250000E+03  0.7546771E-02  0.1235069E+00
         21   -1    0    0  502  501  0.00000000000E+00  0.00000000000E+00  0.20907489657E+02  0.20907489657E+02  0.00000000000E+00 0. -1.
         21   -1    0    0  501  502 -0.00000000000E+00 -0.00000000000E+00 -0.18683496030E+03  0.18683496030E+03  0.00000000000E+00 0. -1.
         25    1    1    2    0    0  0.00000000000E+00  0.00000000000E+00 -0.16592747064E+03  0.20774244996E+03  0.12500000000E+03 0.  0.
<mgrwt>
<rscale>  0 0.12500000E+03</rscale>
<asrwt>0</asrwt>
<pdfrwt beam="1">  1       21 0.32165370E-02 0.12500000E+03</pdfrwt>
<pdfrwt beam="2">  1       21 0.28743839E-01 0.12500000E+03</pdfrwt>
<totfact> 0.64097841E+06</totfact>
</mgrwt>
</event>
<event>
 3    1  0.1619206E-001  0.1250000E+03  0.7546771E-02  0.1235069E+00
         21   -1    0    0  502  501  0.00000000000E+00  0.00000000000E+00  0.90598338405E+02  0.90598338405E+02  0.00000000000E+00 0. -1.
         21   -1    0    0  501  502 -0.00000000000E+00 -0.00000000000E+00 -0.43116132909E+02  0.43116132909E+02  0.00000000000E+00 0. -1.
         25    1    1    2    0    0  0.00000000000E+00  0.00000000000E+00  0.47482205496E+02  0.13371447131E+03  0.12500000000E+03 0.  0.
<mgrwt>
<rscale>  0 0.12500000E+03</rscale>
<asrwt>0</asrwt>
<pdfrwt beam="1">  1       21 0.13938206E-01 0.12500000E+03</pdfrwt>
<pdfrwt beam="2">  1       21 0.66332512E-02 0.12500000E+03</pdfrwt>
<totfact> 0.72867140E+06</totfact>
</mgrwt>
</event>
<event>
 3    1  0.1619206E-001  0.1250000E+03  0.7546771E-02  0.1235069E+00
         21   -1    0    0  502  501  0.00000000000E+00  0.00000000000E+00  0.24880475931E+02  0.24880475931E+02  0.00000000000E+00 0. -1.
         21   -1    0    0  501  502 -0.00000000000E+00 -0.00000000000E+00 -0.15700061409E+03  0.15700061409E+03  0.00000000000E+00 0. -1.
         25    1    1    2    0    0  0.00000000000E+00  0.00000000000E+00 -0.13212013816E+03  0.18188109002E+03  0.12500000000E+03 0.  0.
<mgrwt>
<rscale>  0 0.12500000E+03</rscale>
<asrwt>0</asrwt>
<pdfrwt beam="1">  1       21 0.38277654E-02 0.12500000E+03</pdfrwt>
<pdfrwt beam="2">  1       21 0.24153941E-01 0.12500000E+03</pdfrwt>
<totfact> 0.66936396E+06</totfact>
</mgrwt>
</event>
<event>
 3    1  0.1619206E-001  0.1250000E+03  0.7546771E-02  0.1235069E+00
         21   -1    0    0  502  501  0.00000000000E+00  0.00000000000E+00  0.29228611638E+02  0.29228611638E+02  0.00000000000E+00 0.  1.
         21   -1    0    0  501  502 -0.00000000000E+00 -0.00000000000E+00 -0.13364473306E+03  0.13364473306E+03  0.00000000000E+00 0.  1.
         25    1    1    2    0    0  0.00000000000E+00  0.00000000000E+00 -0.10441612142E+03  0.16287334470E+03  0.12500000000E+03 0.  0.
<mgrwt>
<rscale>  0 0.12500000E+03</rscale>
<asrwt>0</asrwt>
<pdfrwt beam="1">  1       21 0.44967095E-02 0.12500000E+03</pdfrwt>
<pdfrwt beam="2">  1       21 0.20560728E-01 0.12500000E+03</pdfrwt>
<totfact> 0.69170098E+06</totfact>
</mgrwt>
</event>
<event>
 3    1  0.1619206E-001  0.1250000E+03  0.7546771E-02  0.1235069E+00
         21   -1    0    0  502  501  0.00000000000E+00  0.00000000000E+00  0.65404585642E+03  0.65404585642E+03  0.00000000000E+00 0. -1.
         21   -1    0    0  501  502 -0.00000000000E+00 -0.00000000000E+00 -0.59724405585E+01  0.59724405585E+01  0.00000000000E+00 0. -1.
         25    1    1    2    0    0  0.00000000000E+00  0.00000000000E+00  0.64807341586E+03  0.66001829698E+03  0.12500000000E+03 0.  0.
<mgrwt>
<rscale>  0 0.12500000E+03</rscale>
<asrwt>0</asrwt>
<pdfrwt beam="1">  1       21 0.10062238E+00 0.12500000E+03</pdfrwt>
<pdfrwt beam="2">  1       21 0.91883753E-03 0.12500000E+03</pdfrwt>
<totfact> 0.34509156E+06</totfact>
</mgrwt>
</event>
<event>
 3    1  0.1619206E-001  0.1250000E+03  0.7546771E-02  0.1235069E+00
         21   -1    0    0  502  501  0.00000000000E+00  0.00000000000E+00  0.90833456302E+03  0.90833456302E+03  0.00000000000E+00 0. -1.
         21   -1    0    0  501  502 -0.00000000000E+00 -0.00000000000E+00 -0.43004528937E+01  0.43004528937E+01  0.00000000000E+00 0. -1.
         25    1    1    2    0    0  0.00000000000E+00  0.00000000000E+00  0.90403411013E+03  0.91263501592E+03  0.12500000000E+03 0.  0.
<mgrwt>
<rscale>  0 0.12500000E+03</rscale>
<asrwt>0</asrwt>
<pdfrwt beam="1">  1       21 0.13974363E+00 0.12500000E+03</pdfrwt>
<pdfrwt beam="2">  1       21 0.66160886E-03 0.12500000E+03</pdfrwt>
<totfact> 0.25939096E+06</totfact>
</mgrwt>
</event>
<event>
 3    1  0.1619206E-001  0.1250000E+03  0.7546771E-02  0.1235069E+00
         21   -1    0    0  502  501  0.00000000000E+00  0.00000000000E+00  0.23583435910E+03  0.23583435910E+03  0.00000000000E+00 0. -1.
         21   -1    0    0  501  502 -0.00000000000E+00 -0.00000000000E+00 -0.16563532196E+02  0.16563532196E+02  0.00000000000E+00 0. -1.
         25    1    1    2    0    0  0.00000000000E+00  0.00000000000E+00  0.21927082691E+03  0.25239789130E+03  0.12500000000E+03 0.  0.
<mgrwt>
<rscale>  0 0.12500000E+03</rscale>
<asrwt>0</asrwt>
<pdfrwt beam="1">  1       21 0.36282207E-01 0.12500000E+03</pdfrwt>
<pdfrwt beam="2">  1       21 0.25482359E-02 0.12500000E+03</pdfrwt>
<totfact> 0.59653164E+06</totfact>
</mgrwt>
</event>
<event>
 3    1  0.1619206E-001  0.1250000E+03  0.7546771E-02  0.1235069E+00
         21   -1    0    0  502  501  0.00000000000E+00  0.00000000000E+00  0.74647091585E+03  0.74647091585E+03  0.00000000000E+00 0. -1.
         21   -1    0    0  501  502 -0.00000000000E+00 -0.00000000000E+00 -0.52329567262E+01  0.52329567262E+01  0.00000000000E+00 0. -1.
         25    1    1    2    0    0  0.00000000000E+00  0.00000000000E+00  0.74123795912E+03  0.75170387258E+03  0.12500000000E+03 0.  0.
<mgrwt>
<rscale>  0 0.12500000E+03</rscale>
<asrwt>0</asrwt>
<pdfrwt beam="1">  1       21 0.11484159E+00 0.12500000E+03</pdfrwt>
<pdfrwt beam="2">  1       21 0.80507086E-03 0.12500000E+03</pdfrwt>
<totfact> 0.31009041E+06</totfact>
</mgrwt>
</event>
<event>
 3    1  0.1619206E-001  0.1250000E+03  0.7546771E-02  0.1235069E+00
         21   -1    0    0  502  501  0.00000000000E+00  0.00000000000E+00  0.23414383672E+02  0.23414383672E+02  0.00000000000E+00 0.  1.
         21   -1    0    0  501  502 -0.00000000000E+00 -0.00000000000E+00 -0.16683121173E+03  0.16683121173E+03  0.00000000000E+00 0.  1.
         25    1    1    2    0    0  0.00000000000E+00  0.00000000000E+00 -0.14341682806E+03  0.19024559540E+03  0.12500000000E+03 0.  0.
<mgrwt>
<rscale>  0 0.12500000E+03</rscale>
<asrwt>0</asrwt>
<pdfrwt beam="1">  1       21 0.36022130E-02 0.12500000E+03</pdfrwt>
<pdfrwt beam="2">  1       21 0.25666339E-01 0.12500000E+03</pdfrwt>
<totfact> 0.65995179E+06</totfact>
</mgrwt>
</event>
<event>
 3    1  0.1619206E-001  0.1250000E+03  0.7546771E-02  0.1235069E+00
         21   -1    0    0  502  501  0.00000000000E+00  0.00000000000E+00  0.67213894358E+02  0.67213894358E+02  0.00000000000E+00 0.  1.
         21   -1    0    0  501  502 -0.00000000000E+00 -0.00000000000E+00 -0.58116703954E+02  0.58116703954E+02  0.00000000000E+00 0.  1.
         25    1    1    2    0    0  0.00000000000E+00  0.00000000000E+00  0.90971904044E+01  0.12533059831E+03  0.12500000000E+03 0.  0.
<mgrwt>
<rscale>  0 0.12500000E+03</rscale>
<asrwt>0</asrwt>
<pdfrwt beam="1">  1       21 0.10340599E-01 0.12500000E+03</pdfrwt>
<pdfrwt beam="2">  1       21 0.89410314E-02 0.12500000E+03</pdfrwt>
<totfact> 0.73998941E+06</totfact>
</mgrwt>
</event>
<event>
 3    1  0.1619206E-001  0.1250000E+03  0.7546771E-02  0.1235069E+00
         21   -1    0    0  502  501  0.00000000000E+00  0.00000000000E+00  0.20649215057E+02  0.20649215057E+02  0.00000000000E+00 0.  1.
         21   -1    0    0  501  502 -0.00000000000E+00 -0.00000000000E+00 -0.18917183967E+03  0.18917183967E+03  0.00000000000E+00 0.  1.
         25    1    1    2    0    0  0.00000000000E+00  0.00000000000E+00 -0.16852262461E+03  0.20982105473E+03  0.12500000000E+03 0.  0.
<mgrwt>
<rscale>  0 0.12500000E+03</rscale>
<asrwt>0</asrwt>
<pdfrwt beam="1">  1       21 0.31768023E-02 0.12500000E+03</pdfrwt>
<pdfrwt beam="2">  1       21 0.29103360E-01 0.12500000E+03</pdfrwt>
<totfact> 0.63878367E+06</totfact>
</mgrwt>
</event>
<event>
 3    1  0.1619206E-001  0.1250000E+03  0.7546771E-02  0.1235069E+00
         21   -1    0    0  502  501  0.00000000000E+00  0.00000000000E+00  0.46139898706E+02  0.46139898706E+02  0.00000000000E+00 0. -1.
         21   -1    0    0  501  502 -0.00000000000E+00 -0.00000000000E+00 -0.84661000772E+02  0.84661000772E+02  0.00000000000E+00 0. -1.
         25    1    1    2    0    0  0.00000000000E+00  0.00000000000E+00 -0.38521102066E+02  0.13080089948E+03  0.12500000000E+03 0.  0.
<mgrwt>
<rscale>  0 0.12500000E+03</rscale>
<asrwt>0</asrwt>
<pdfrwt beam="1">  1       21 0.70984460E-02 0.12500000E+03</pdfrwt>
<pdfrwt beam="2">  1       21 0.13024769E-01 0.12500000E+03</pdfrwt>
<totfact> 0.73257514E+06</totfact>
</mgrwt>
</event>
<event>
 3    1  0.1619206E-001  0.1250000E+03  0.7546771E-02  0.1235069E+00
         21   -1    0    0  502  501  0.00000000000E+00  0.00000000000E+00  0.81350673645E+02  0.81350673645E+02  0.00000000000E+00 0.  1.
         21   -1    0    0  501  502 -0.00000000000E+00 -0.00000000000E+00 -0.48017426593E+02  0.48017426593E+02  0.00000000000E+00 0.  1.
         25    1    1    2    0    0  0.00000000000E+00  0.00000000000E+00  0.33333247052E+02  0.12936810024E+03  0.12500000000E+03 0.  0.
<mgrwt>
<rscale>  0 0.12500000E+03</rscale>
<asrwt>0</asrwt>
<pdfrwt beam="1">  1       21 0.12515488E-01 0.12500000E+03</pdfrwt>
<pdfrwt beam="2">  1       21 0.73872964E-02 0.12500000E+03</pdfrwt>
<totfact> 0.73449492E+06</totfact>
</mgrwt>
</event>
<event>
 3    1  0.1619206E-001  0.1250000E+03  0.7546771E-02  0.1235069E+00
         21   -1    0    0  502  501  0.00000000000E+00  0.00000000000E+00  0.16806731808E+03  0.16806731808E+03  0.00000000000E+00 0. -1.
         21   -1    0    0  501  502 -0.00000000000E+00 -0.00000000000E+00 -0.23242174890E+02  0.23242174890E+02  0.00000000000E+00 0. -1.
         25    1    1    2    0    0  0.00000000000E+00  0.00000000000E+00  0.14482514319E+03  0.19130949297E+03  0.12500000000E+03 0.  0.
<mgrwt>
<rscale>  0 0.12500000E+03</rscale>
<asrwt>0</asrwt>
<pdfrwt beam="1">  1       21 0.25856510E-01 0.12500000E+03</pdfrwt>
<pdfrwt beam="2">  1       21 0.35757193E-02 0.12500000E+03</pdfrwt>
<totfact> 0.65877222E+06</totfact>
</mgrwt>
</event>
<event>
 3    1  0.1619206E-001  0.1250000E+03  0.7546771E-02  0.1235069E+00
         21   -1    0    0  502  501  0.00000000000E+00  0.00000000000E+00  0.26795061582E+03  0.26795061582E+03  0.00000000000E+00 0. -1.
         21   -1    0    0  501  502 -0.00000000000E+00 -0.00000000000E+00 -0.14578246025E+02  0.14578246025E+02  0.00000000000E+00 0. -1.
         25    1    1    2    0    0  0.00000000000E+00  0.00000000000E+00  0.25337236979E+03  0.28252886184E+03  0.12500000000E+03 0.  0.
<mgrwt>
<rscale>  0 0.12500000E+03</rscale>
<asrwt>0</asrwt>
<pdfrwt beam="1">  1       21 0.41223168E-01 0.12500000E+03</pdfrwt>
<pdfrwt beam="2">  1       21 0.22428073E-02 0.12500000E+03</pdfrwt>
<totfact> 0.56940085E+06</totfact>
</mgrwt>
</event>
<event>
 3    1  0.1619206E-001  0.1250000E+03  0.7546771E-02  0.1235069E+00
         21   -1    0    0  502  501  0.00000000000E+00  0.00000000000E+00  0.21879823673E+03  0.21879823673E+03  0.00000000000E+00 0. -1.
         21   -1    0    0  501  502 -0.00000000000E+00 -0.00000000000E+00 -0.17853206033E+02  0.17853206033E+02  0.00000000000E+00 0. -1.
         25    1    1    2    0    0  0.00000000000E+00  0.00000000000E+00  0.20094503070E+03  0.23665144276E+03  0.12500000000E+03 0.  0.
<mgrwt>
<rscale>  0 0.12500000E+03</rscale>
<asrwt>0</asrwt>
<pdfrwt beam="1">  1       21 0.33661265E-01 0.12500000E+03</pdfrwt>
<pdfrwt beam="2">  1       21 0.27466472E-02 0.12500000E+03</pdfrwt>
<totfact> 0.61158209E+06</totfact>
</mgrwt>
</event>
<event>
 3    1  0.1619206E-001  0.1250000E+03  0.7546771E-02  0.1235069E+00
         21   -1    0    0  502  501  0.00000000000E+00  0.00000000000E+00  0.80873853621E+02  0.80873853621E+02  0.00000000000E+00 0.  1.
         21   -1    0    0  501  502 -0.00000000000E+00 -0.00000000000E+00 -0.48300530086E+02  0.48300530086E+02  0.00000000000E+00 0.  1.
         25    1    1    2    0    0  0.00000000000E+00  0.00000000000E+00  0.32573323535E+02  0.12917438371E+03  0.12500000000E+03 0.  0.
<mgrwt>
<rscale>  0 0.12500000E+03</rscale>
<asrwt>0</asrwt>
<pdfrwt beam="1">  1       21 0.12442131E-01 0.12500000E+03</pdfrwt>
<pdfrwt beam="2">  1       21 0.74308508E-02 0.12500000E+03</pdfrwt>
<totfact> 0.73475472E+06</totfact>
</mgrwt>
</event>
<event>
 3    1  0.1619206E-001  0.1250000E+03  0.7546771E-02  0.1235069E+00
         21   -1    0    0  502  501  0.00000000000E+00  0.00000000000E+00  0.71708338565E+01  0.71708338565E+01  0.00000000000E+00 0. -1.
         21   -1    0    0  501  502 -0.00000000000E+00 -0.00000000000E+00 -0.54474138966E+03  0.54474138966E+03  0.00000000000E+00 0. -1.
         25    1    1    2    0    0  0.00000000000E+00  0.00000000000E+00 -0.53757055580E+03  0.55191222352E+03  0.12500000000E+03 0.  0.
<mgrwt>
<rscale>  0 0.12500000E+03</rscale>
<asrwt>0</asrwt>
<pdfrwt beam="1">  1       21 0.11032046E-02 0.12500000E+03</pdfrwt>
<pdfrwt beam="2">  1       21 0.83806414E-01 0.12500000E+03</pdfrwt>
<totfact> 0.39361739E+06</totfact>
</mgrwt>
</event>
<event>
 3    1  0.1619206E-001  0.1250000E+03  0.7546771E-02  0.1235069E+00
         21   -1    0    0  502  501  0.00000000000E+00  0.00000000000E+00  0.20783653054E+01  0.20783653054E+01  0.00000000000E+00 0. -1.
         21   -1    0    0  501  502 -0.00000000000E+00 -0.00000000000E+00 -0.18794819129E+04  0.18794819129E+04  0.00000000000E+00 0. -1.
         25    1    1    2    0    0  0.00000000000E+00  0.00000000000E+00 -0.18774035476E+04  0.18815602782E+04  0.12500000000E+03 0.  0.
<mgrwt>
<rscale>  0 0.12500000E+03</rscale>
<asrwt>0</asrwt>
<pdfrwt beam="1">  1       21 0.31974791E-03 0.12500000E+03</pdfrwt>
<pdfrwt beam="2">  1       21 0.28915161E+00 0.12500000E+03</pdfrwt>
<totfact> 0.91619771E+05</totfact>
</mgrwt>
</event>
<event>
 3    1  0.1619206E-001  0.1250000E+03  0.7546771E-02  0.1235069E+00
         21   -1    0    0  502  501  0.00000000000E+00  0.00000000000E+00  0.21105962399E+02  0.21105962399E+02  0.00000000000E+00 0.  1.
         21   -1    0    0  501  502 -0.00000000000E+00 -0.00000000000E+00 -0.18507803275E+03  0.18507803275E+03  0.00000000000E+00 0.  1.
         25    1    1    2    0    0  0.00000000000E+00  0.00000000000E+00 -0.16397207035E+03  0.20618399515E+03  0.12500000000E+03 0.  0.
<mgrwt>
<rscale>  0 0.12500000E+03</rscale>
<asrwt>0</asrwt>
<pdfrwt beam="1">  1       21 0.32470711E-02 0.12500000E+03</pdfrwt>
<pdfrwt beam="2">  1       21 0.28473544E-01 0.12500000E+03</pdfrwt>
<totfact> 0.64263272E+06</totfact>
</mgrwt>
</event>
<event>
 3    1  0.1619206E-001  0.1250000E+03  0.7546771E-02  0.1235069E+00
         21   -1    0    0  502  501  0.00000000000E+00  0.00000000000E+00  0.26027615827E+03  0.26027615827E+03  0.00000000000E+00 0.  1.
         21   -1    0    0  501  502 -0.00000000000E+00 -0.00000000000E+00 -0.15008097653E+02  0.15008097653E+02  0.00000000000E+00 0.  1.
         25    1    1    2    0    0  0.00000000000E+00  0.00000000000E+00  0.24526806062E+03  0.27528425592E+03  0.12500000000E+03 0.  0.
<mgrwt>
<rscale>  0 0.12500000E+03</rscale>
<asrwt>0</asrwt>
<pdfrwt beam="1">  1       21 0.40042483E-01 0.12500000E+03</pdfrwt>
<pdfrwt beam="2">  1       21 0.23089383E-02 0.12500000E+03</pdfrwt>
<totfact> 0.57574797E+06</totfact>
</mgrwt>
</event>
<event>
 3    1  0.1619206E-001  0.1250000E+03  0.7546771E-02  0.1235069E+00
         21   -1    0    0  502  501  0.00000000000E+00  0.00000000000E+00  0.59900917363E+03  0.59900917363E+03  0.00000000000E+00 0.  1.
         21   -1    0    0  501  502 -0.00000000000E+00 -0.00000000000E+00 -0.65211856045E+01  0.65211856045E+01  0.00000000000E+00 0.  1.
         25    1    1    2    0    0  0.00000000000E+00  0.00000000000E+00  0.59248798802E+03  0.60553035923E+03  0.12500000000E+03 0.  0.
<mgrwt>
<rscale>  0 0.12500000E+03</rscale>
<asrwt>0</asrwt>
<pdfrwt beam="1">  1       21 0.92155214E-01 0.12500000E+03</pdfrwt>
<pdfrwt beam="2">  1       21 0.10032598E-02 0.12500000E+03</pdfrwt>
<totfact> 0.36843728E+06</totfact>
</mgrwt>
</event>
<event>
 3    1  0.1619206E-001  0.1250000E+03  0.7546771E-02  0.1235069E+00
         21   -1    0    0  502  501  0.00000000000E+00  0.00000000000E+00  0.88505944591E+02  0.88505944591E+02  0.00000000000E+00 0.  1.
         21   -1    0    0  501  502 -0.00000000000E+00 -0.00000000000E+00 -0.44135453478E+02  0.44135453478E+02  0.00000000000E+00 0.  1.
         25    1    1    2    0    0  0.00000000000E+00  0.00000000000E+00  0.44370491113E+02  0.13264139807E+03  0.12500000000E+03 0.  0.
<mgrwt>
<rscale>  0 0.12500000E+03</rscale>
<asrwt>0</asrwt>
<pdfrwt beam="1">  1       21 0.13616299E-01 0.12500000E+03</pdfrwt>
<pdfrwt beam="2">  1       21 0.67900698E-02 0.12500000E+03</pdfrwt>
<totfact> 0.73010322E+06</totfact>
</mgrwt>
</event>
<event>
 3    1  0.1619206E-001  0.1250000E+03  0.7546771E-02  0.1235069E+00
         21   -1    0    0  502  501  0.00000000000E+00  0.00000000000E+00  0.62115203047E+01  0.62115203047E+01  0.00000000000E+00 0. -1.
         21   -1    0    0  501  502 -0.00000000000E+00 -0.00000000000E+00 -0.62887180729E+03  0.62887180729E+03  0.00000000000E+00 0. -1.
         25    1    1    2    0    0  0.00000000000E+00  0.00000000000E+00 -0.62266028698E+03  0.63508332759E+03  0.12500000000E+03 0.  0.
<mgrwt>
<rscale>  0 0.12500000E+03</rscale>
<asrwt>0</asrwt>
<pdfrwt beam="1">  1       21 0.95561858E-03 0.12500000E+03</pdfrwt>
<pdfrwt beam="2">  1       21 0.96749502E-01 0.12500000E+03</pdfrwt>
<totfact> 0.35552606E+06</totfact>
</mgrwt>
</event>
<event>
 3    1  0.1619206E-001  0.1250000E+03  0.7546771E-02  0.1235069E+00
         21   -1    0    0  502  501  0.00000000000E+00  0.00000000000E+00  0.75187565647E+02  0.75187565647E+02  0.00000000000E+00 0. -1.
         21   -1    0    0  501  502 -0.00000000000E+00 -0.00000000000E+00 -0.51953404348E+02  0.51953404348E+02  0.00000000000E+00 0. -1.
         25    1    1    2    0    0  0.00000000000E+00  0.00000000000E+00  0.23234161299E+02  0.12714097000E+03  0.12500000000E+03 0.  0.
<mgrwt>
<rscale>  0 0.12500000E+03</rscale>
<asrwt>0</asrwt>
<pdfrwt beam="1">  1       21 0.11567318E-01 0.12500000E+03</pdfrwt>
<pdfrwt beam="2">  1       21 0.79928315E-02 0.12500000E+03</pdfrwt>
<totfact> 0.73749958E+06</totfact>
</mgrwt>
</event>
<event>
 3    1  0.1619206E-001  0.1250000E+03  0.7546771E-02  0.1235069E+00
         21   -1    0    0  502  501  0.00000000000E+00  0.00000000000E+00  0.53030868634E+02  0.53030868634E+02  0.00000000000E+00 0.  1.
         21   -1    0    0  501  502 -0.00000000000E+00 -0.00000000000E+00 -0.73659928653E+02  0.73659928653E+02  0.00000000000E+00 0.  1.
         25    1    1    2    0    0  0.00000000000E+00  0.00000000000E+00 -0.20629060018E+02  0.12669079729E+03  0.12500000000E+03 0.  0.
<mgrwt>
<rscale>  0 0.12500000E+03</rscale>
<asrwt>0</asrwt>
<pdfrwt beam="1">  1       21 0.81585951E-02 0.12500000E+03</pdfrwt>
<pdfrwt beam="2">  1       21 0.11332297E-01 0.12500000E+03</pdfrwt>
<totfact> 0.73811291E+06</totfact>
</mgrwt>
</event>
<event>
 3    1  0.1619206E-001  0.1250000E+03  0.7546771E-02  0.1235069E+00
         21   -1    0    0  502  501  0.00000000000E+00  0.00000000000E+00  0.13710091095E+03  0.13710091095E+03  0.00000000000E+00 0.  1.
         21   -1    0    0  501  502 -0.00000000000E+00 -0.00000000000E+00 -0.28491787348E+02  0.28491787348E+02  0.00000000000E+00 0.  1.
         25    1    1    2    0    0  0.00000000000E+00  0.00000000000E+00  0.10860912360E+03  0.16559269830E+03  0.12500000000E+03 0.  0.
<mgrwt>
<rscale>  0 0.12500000E+03</rscale>
<asrwt>0</asrwt>
<pdfrwt beam="1">  1       21 0.21092447E-01 0.12500000E+03</pdfrwt>
<pdfrwt beam="2">  1       21 0.43833520E-02 0.12500000E+03</pdfrwt>
<totfact> 0.68842504E+06</totfact>
</mgrwt>
</event>
<event>
 3    1  0.1619206E-001  0.1250000E+03  0.7546771E-02  0.1235069E+00
         21   -1    0    0  502  501  0.00000000000E+00  0.00000000000E+00  0.39638759640E+03  0.39638759640E+03  0.00000000000E+00 0. -1.
         21   -1    0    0  501  502 -0.00000000000E+00 -0.00000000000E+00 -0.98546221816E+01  0.98546221816E+01  0.00000000000E+00 0. -1.
         25    1    1    2    0    0  0.00000000000E+00  0.00000000000E+00  0.38653297422E+03  0.40624221858E+03  0.12500000000E+03 0.  0.
<mgrwt>
<rscale>  0 0.12500000E+03</rscale>
<asrwt>0</asrwt>
<pdfrwt beam="1">  1       21 0.60982695E-01 0.12500000E+03</pdfrwt>
<pdfrwt beam="2">  1       21 0.15160960E-02 0.12500000E+03</pdfrwt>
<totfact> 0.47630054E+06</totfact>
</mgrwt>
</event>
<event>
 3    1  0.1619206E-001  0.1250000E+03  0.7546771E-02  0.1235069E+00
         21   -1    0    0  502  501  0.00000000000E+00  0.00000000000E+00  0.35214477539E+02  0.35214477539E+02  0.00000000000E+00 0. -1.
         21   -1    0    0  501  502 -0.00000000000E+00 -0.00000000000E+00 -0.11092738762E+03  0.11092738762E+03  0.00000000000E+00 0. -1.
         25    1    1    2    0    0  0.00000000000E+00  0.00000000000E+00 -0.75712910085E+02  0.14614186516E+03  0.12500000000E+03 0.  0.
<mgrwt>
<rscale>  0 0.12500000E+03</rscale>
<asrwt>0</asrwt>
<pdfrwt beam="1">  1       21 0.54176120E-02 0.12500000E+03</pdfrwt>
<pdfrwt beam="2">  1       21 0.17065752E-01 0.12500000E+03</pdfrwt>
<totfact> 0.71247287E+06</totfact>
</mgrwt>
</event>
<event>
 3    1  0.1619206E-001  0.1250000E+03  0.7546771E-02  0.1235069E+00
         21   -1    0    0  502  501  0.00000000000E+00  0.00000000000E+00  0.34582324861E+02  0.34582324861E+02  0.00000000000E+00 0. -1.
         21   -1    0    0  501  502 -0.00000000000E+00 -0.00000000000E+00 -0.11295510107E+03  0.11295510107E+03  0.00000000000E+00 0. -1.
         25    1    1    2    0    0  0.00000000000E+00  0.00000000000E+00 -0.78372776212E+02  0.14753742593E+03  0.12500000000E+03 0.  0.
<mgrwt>
<rscale>  0 0.12500000E+03</rscale>
<asrwt>0</asrwt>
<pdfrwt beam="1">  1       21 0.53203578E-02 0.12500000E+03</pdfrwt>
<pdfrwt beam="2">  1       21 0.17377708E-01 0.12500000E+03</pdfrwt>
<totfact> 0.71069933E+06</totfact>
</mgrwt>
</event>
<event>
 3    1  0.1619206E-001  0.1250000E+03  0.7546771E-02  0.1235069E+00
         21   -1    0    0  502  501  0.00000000000E+00  0.00000000000E+00  0.54884636773E+02  0.54884636773E+02  0.00000000000E+00 0.  1.
         21   -1    0    0  501  502 -0.00000000000E+00 -0.00000000000E+00 -0.71172011508E+02  0.71172011508E+02  0.00000000000E+00 0.  1.
         25    1    1    2    0    0  0.00000000000E+00  0.00000000000E+00 -0.16287374735E+02  0.12605664828E+03  0.12500000000E+03 0.  0.
<mgrwt>
<rscale>  0 0.12500000E+03</rscale>
<asrwt>0</asrwt>
<pdfrwt beam="1">  1       21 0.84437903E-02 0.12500000E+03</pdfrwt>
<pdfrwt beam="2">  1       21 0.10949540E-01 0.12500000E+03</pdfrwt>
<totfact> 0.73898232E+06</totfact>
</mgrwt>
</event>
<event>
 3    1  0.1619206E-001  0.1250000E+03  0.7546771E-02  0.1235069E+00
         21   -1    0    0  502  501  0.00000000000E+00  0.00000000000E+00  0.51694736087E+02  0.51694736087E+02  0.00000000000E+00 0.  1.
         21   -1    0    0  501  502 -0.00000000000E+00 -0.00000000000E+00 -0.75563786483E+02  0.75563786483E+02  0.00000000000E+00 0.  1.
         25    1    1    2    0    0  0.00000000000E+00  0.00000000000E+00 -0.23869050396E+02  0.12725852257E+03  0.12500000000E+03 0.  0.
<mgrwt>
<rscale>  0 0.12500000E+03</rscale>
<asrwt>0</asrwt>
<pdfrwt beam="1">  1       21 0.79530364E-02 0.12500000E+03</pdfrwt>
<pdfrwt beam="2">  1       21 0.11625198E-01 0.12500000E+03</pdfrwt>
<totfact> 0.73733984E+06</totfact>
</mgrwt>
</event>
<event>
 3    1  0.1619206E-001  0.1250000E+03  0.7546771E-02  0.1235069E+00
         21   -1    0    0  502  501  0.00000000000E+00  0.00000000000E+00  0.27120441704E+02  0.27120441704E+02  0.00000000000E+00 0. -1.
         21   -1    0    0  501  502 -0.00000000000E+00 -0.00000000000E+00 -0.14403342109E+03  0.14403342109E+03  0.00000000000E+00 0. -1.
         25    1    1    2    0    0  0.00000000000E+00  0.00000000000E+00 -0.11691297938E+03  0.17115386279E+03  0.12500000000E+03 0.  0.
<mgrwt>
<rscale>  0 0.12500000E+03</rscale>
<asrwt>0</asrwt>
<pdfrwt beam="1">  1       21 0.41723756E-02 0.12500000E+03</pdfrwt>
<pdfrwt beam="2">  1       21 0.22158988E-01 0.12500000E+03</pdfrwt>
<totfact> 0.68181114E+06</totfact>
</mgrwt>
</event>
<event>
 3    1  0.1619206E-001  0.1250000E+03  0.7546771E-02  0.1235069E+00
         21   -1    0    0  502  501  0.00000000000E+00  0.00000000000E+00  0.12153950338E+03  0.12153950338E+03  0.00000000000E+00 0. -1.
         21   -1    0    0  501  502 -0.00000000000E+00 -0.00000000000E+00 -0.32139756140E+02  0.32139756140E+02  0.00000000000E+00 0. -1.
         25    1    1    2    0    0  0.00000000000E+00  0.00000000000E+00  0.89399747240E+02  0.15367925952E+03  0.12500000000E+03 0.  0.
<mgrwt>
<rscale>  0 0.12500000E+03</rscale>
<asrwt>0</asrwt>
<pdfrwt beam="1">  1       21 0.18698385E-01 0.12500000E+03</pdfrwt>
<pdfrwt beam="2">  1       21 0.49445780E-02 0.12500000E+03</pdfrwt>
<totfact> 0.70300021E+06</totfact>
</mgrwt>
</event>
<event>
 3    1  0.1619206E-001  0.1250000E+03  0.7546771E-02  0.1235069E+00
         21   -1    0    0  502  501  0.00000000000E+00  0.00000000000E+00  0.12219545373E+03  0.12219545373E+03  0.00000000000E+00 0.  1.
         21   -1    0    0  501  502 -0.00000000000E+00 -0.00000000000E+00 -0.31967228572E+02  0.31967228572E+02  0.00000000000E+00 0.  1.
         25    1    1    2    0    0  0.00000000000E+00  0.00000000000E+00  0.90228225162E+02  0.15416268231E+03  0.12500000000E+03 0.  0.
<mgrwt>
<rscale>  0 0.12500000E+03</rscale>
<asrwt>0</asrwt>
<pdfrwt beam="1">  1       21 0.18799300E-01 0.12500000E+03</pdfrwt>
<pdfrwt beam="2">  1       21 0.49180352E-02 0.12500000E+03</pdfrwt>
<totfact> 0.70239876E+06</totfact>
</mgrwt>
</event>
<event>
 3    1  0.1619206E-001  0.1250000E+03  0.7546771E-02  0.1235069E+00
         21   -1    0    0  502  501  0.00000000000E+00  0.00000000000E+00  0.35381042218E+01  0.35381042218E+01  0.00000000000E+00 0. -1.
         21   -1    0    0  501  502 -0.00000000000E+00 -0.00000000000E+00 -0.11040517054E+04  0.11040517054E+04  0.00000000000E+00 0. -1.
         25    1    1    2    0    0  0.00000000000E+00  0.00000000000E+00 -0.11005136012E+04  0.11075898096E+04  0.12500000000E+03 0.  0.
<mgrwt>
<rscale>  0 0.12500000E+03</rscale>
<asrwt>0</asrwt>
<pdfrwt beam="1">  1       21 0.54432383E-03 0.12500000E+03</pdfrwt>
<pdfrwt beam="2">  1       21 0.16985408E+00 0.12500000E+03</pdfrwt>
<totfact> 0.21083403E+06</totfact>
</mgrwt>
</event>
<event>
 3    1  0.1619206E-001  0.1250000E+03  0.7546771E-02  0.1235069E+00
         21   -1    0    0  502  501  0.00000000000E+00  0.00000000000E+00  0.16022098171E+03  0.16022098171E+03  0.00000000000E+00 0.  1.
         21   -1    0    0  501  502 -0.00000000000E+00 -0.00000000000E+00 -0.24380389874E+02  0.24380389874E+02  0.00000000000E+00 0.  1.
         25    1    1    2    0    0  0.00000000000E+00  0.00000000000E+00  0.13584059183E+03  0.18460137158E+03  0.12500000000E+03 0.  0.
<mgrwt>
<rscale>  0 0.12500000E+03</rscale>
<asrwt>0</asrwt>
<pdfrwt beam="1">  1       21 0.24649381E-01 0.12500000E+03</pdfrwt>
<pdfrwt beam="2">  1       21 0.37508293E-02 0.12500000E+03</pdfrwt>
<totfact> 0.66627562E+06</totfact>
</mgrwt>
</event>
<event>
 3    1  0.1619206E-001  0.1250000E+03  0.7546771E-02  0.1235069E+00
         21   -1    0    0  502  501  0.00000000000E+00  0.00000000000E+00  0.60468701991E+02  0.60468701991E+02  0.00000000000E+00 0.  1.
         21   -1    0    0  501  502 -0.00000000000E+00 -0.00000000000E+00 -0.64599534493E+02  0.64599534493E+02  0.00000000000E+00 0.  1.
         25    1    1    2    0    0  0.00000000000E+00  0.00000000000E+00 -0.41308325019E+01  0.12506823648E+03  0.12500000000E+03 0.  0.
<mgrwt>
<rscale>  0 0.12500000E+03</rscale>
<asrwt>0</asrwt>
<pdfrwt beam="1">  1       21 0.93028773E-02 0.12500000E+03</pdfrwt>
<pdfrwt beam="2">  1       21 0.99383899E-02 0.12500000E+03</pdfrwt>
<totfact> 0.74034365E+06</totfact>
</mgrwt>
</event>
<event>
 3    1  0.1619206E-001  0.1250000E+03  0.7546771E-02  0.1235069E+00
         21   -1    0    0  502  501  0.00000000000E+00  0.00000000000E+00  0.71494669341E+02  0.71494669341E+02  0.00000000000E+00 0.  1.
         21   -1    0    0  501  502 -0.00000000000E+00 -0.00000000000E+00 -0.54636940572E+02  0.54636940572E+02  0.00000000000E+00 0.  1.
         25    1    1    2    0    0  0.00000000000E+00  0.00000000000E+00  0.16857728769E+02  0.12613160991E+03  0.12500000000E+03 0.  0.
<mgrwt>
<rscale>  0 0.12500000E+03</rscale>
<asrwt>0</asrwt>
<pdfrwt beam="1">  1       21 0.10999180E-01 0.12500000E+03</pdfrwt>
<pdfrwt beam="2">  1       21 0.84056832E-02 0.12500000E+03</pdfrwt>
<totfact> 0.73887913E+06</totfact>
</mgrwt>
</event>
<event>
 3    1  0.1619206E-001  0.1250000E+03  0.7546771E-02  0.1235069E+00
         21   -1    0    0  502  501  0.00000000000E+00  0.00000000000E+00  0.23945834694E+03  0.23945834694E+03  0.00000000000E+00 0. -1.
         21   -1    0    0  501  502 -0.00000000000E+00 -0.00000000000E+00 -0.16312857956E+02  0.16312857956E+02  0.00000000000E+00 0. -1.
         25    1    1    2    0    0  0.00000000000E+00  0.00000000000E+00  0.22314548898E+03  0.25577120489E+03  0.12500000000E+03 0.  0.
<mgrwt>
<rscale>  0 0.12500000E+03</rscale>
<asrwt>0</asrwt>
<pdfrwt beam="1">  1       21 0.36839743E-01 0.12500000E+03</pdfrwt>
<pdfrwt beam="2">  1       21 0.25096706E-02 0.12500000E+03</pdfrwt>
<totfact> 0.59339055E+06</totfact>
</mgrwt>
</event>
<event>
 3    1  0.1619206E-001  0.1250000E+03  0.7546771E-02  0.1235069E+00
         21   -1    0    0  502  501  0.00000000000E+00  0.00000000000E+00  0.54534849686E+02  0.54534849686E+02  0.00000000000E+00 0.  1.
         21   -1    0    0  501  502 -0.00000000000E+00 -0.00000000000E+00 -0.71628509521E+02  0.71628509521E+02  0.00000000000E+00 0.  1.
         25    1    1    2    0    0  0.00000000000E+00  0.00000000000E+00 -0.17093659835E+02  0.12616335921E+03  0.12500000000E+03 0.  0.
<mgrwt>
<rscale>  0 0.12500000E+03</rscale>
<asrwt>0</asrwt>
<pdfrwt beam="1">  1       21 0.83899769E-02 0.12500000E+03</pdfrwt>
<pdfrwt beam="2">  1       21 0.11019771E-01 0.12500000E+03</pdfrwt>
<totfact> 0.73883546E+06</totfact>
</mgrwt>
</event>
<event>
 3    1  0.1619206E-001  0.1250000E+03  0.7546771E-02  0.1235069E+00
         21   -1    0    0  502  501  0.00000000000E+00  0.00000000000E+00  0.95273643398E+02  0.95273643398E+02  0.00000000000E+00 0. -1.
         21   -1    0    0  501  502 -0.00000000000E+00 -0.00000000000E+00 -0.41000321397E+02  0.41000321397E+02  0.00000000000E+00 0. -1.
         25    1    1    2    0    0  0.00000000000E+00  0.00000000000E+00  0.54273322001E+02  0.13627396480E+03  0.12500000000E+03 0.  0.
<mgrwt>
<rscale>  0 0.12500000E+03</rscale>
<asrwt>0</asrwt>
<pdfrwt beam="1">  1       21 0.14657484E-01 0.12500000E+03</pdfrwt>
<pdfrwt beam="2">  1       21 0.63077418E-02 0.12500000E+03</pdfrwt>
<totfact> 0.72528227E+06</totfact>
</mgrwt>
</event>
<event>
 3    1  0.1619206E-001  0.1250000E+03  0.7546771E-02  0.1235069E+00
         21   -1    0    0  502  501  0.00000000000E+00  0.00000000000E+00  0.45523606252E+02  0.45523606252E+02  0.00000000000E+00 0.  1.
         21   -1    0    0  501  502 -0.00000000000E+00 -0.00000000000E+00 -0.85807130007E+02  0.85807130007E+02  0.00000000000E+00 0.  1.
         25    1    1    2    0    0  0.00000000000E+00  0.00000000000E+00 -0.40283523755E+02  0.13133073626E+03  0.12500000000E+03 0.  0.
<mgrwt>
<rscale>  0 0.12500000E+03</rscale>
<asrwt>0</asrwt>
<pdfrwt beam="1">  1       21 0.70036318E-02 0.12500000E+03</pdfrwt>
<pdfrwt beam="2">  1       21 0.13201097E-01 0.12500000E+03</pdfrwt>
<totfact> 0.73186137E+06</totfact>
</mgrwt>
</event>
<event>
 3    1  0.1619206E-001  0.1250000E+03  0.7546771E-02  0.1235069E+00
         21   -1    0    0  502  501  0.00000000000E+00  0.00000000000E+00  0.68851409591E+03  0.68851409591E+03  0.00000000000E+00 0.  1.
         21   -1    0    0  501  502 -0.00000000000E+00 -0.00000000000E+00 -0.56734495680E+01  0.56734495680E+01  0.00000000000E+00 0.  1.
         25    1    1    2    0    0  0.00000000000E+00  0.00000000000E+00  0.68284064634E+03  0.69418754548E+03  0.12500000000E+03 0.  0.
<mgrwt>
<rscale>  0 0.12500000E+03</rscale>
<asrwt>0</asrwt>
<pdfrwt beam="1">  1       21 0.10592518E+00 0.12500000E+03</pdfrwt>
<pdfrwt beam="2">  1       21 0.87283894E-03 0.12500000E+03</pdfrwt>
<totfact> 0.33135453E+06</totfact>
</mgrwt>
</event>
<event>
 3    1  0.1619206E-001  0.1250000E+03  0.7546771E-02  0.1235069E+00
         21   -1    0    0  502  501  0.00000000000E+00  0.00000000000E+00  0.28307482431E+02  0.28307482431E+02  0.00000000000E+00 0.  1.
         21   -1    0    0  501  502 -0.00000000000E+00 -0.00000000000E+00 -0.13799355027E+03  0.13799355027E+03  0.00000000000E+00 0.  1.
         25    1    1    2    0    0  0.00000000000E+00  0.00000000000E+00 -0.10968606784E+03  0.16630103271E+03  0.12500000000E+03 0.  0.
<mgrwt>
<rscale>  0 0.12500000E+03</rscale>
<asrwt>0</asrwt>
<pdfrwt beam="1">  1       21 0.43549973E-02 0.12500000E+03</pdfrwt>
<pdfrwt beam="2">  1       21 0.21229777E-01 0.12500000E+03</pdfrwt>
<totfact> 0.68757657E+06</totfact>
</mgrwt>
</event>
<event>
 3    1  0.1619206E-001  0.1250000E+03  0.7546771E-02  0.1235069E+00
         21   -1    0    0  502  501  0.00000000000E+00  0.00000000000E+00  0.85980982988E+02  0.85980982988E+02  0.00000000000E+00 0. -1.
         21   -1    0    0  501  502 -0.00000000000E+00 -0.00000000000E+00 -0.45431557819E+02  0.45431557819E+02  0.00000000000E+00 0. -1.
         25    1    1    2    0    0  0.00000000000E+00  0.00000000000E+00  0.40549425169E+02  0.13141254081E+03  0.12500000000E+03 0.  0.
<mgrwt>
<rscale>  0 0.12500000E+03</rscale>
<asrwt>0</asrwt>
<pdfrwt beam="1">  1       21 0.13227844E-01 0.12500000E+03</pdfrwt>
<pdfrwt beam="2">  1       21 0.69894704E-02 0.12500000E+03</pdfrwt>
<totfact> 0.73175132E+06</totfact>
</mgrwt>
</event>
<event>
 3    1  0.1619206E-001  0.1250000E+03  0.7546771E-02  0.1235069E+00
         21   -1    0    0  502  501  0.00000000000E+00  0.00000000000E+00  0.10520346002E+02  0.10520346002E+02  0.00000000000E+00 0.  1.
         21   -1    0    0  501  502 -0.00000000000E+00 -0.00000000000E+00 -0.37130432777E+03  0.37130432777E+03  0.00000000000E+00 0.  1.
         25    1    1    2    0    0  0.00000000000E+00  0.00000000000E+00 -0.36078398176E+03  0.38182467377E+03  0.12500000000E+03 0.  0.
<mgrwt>
<rscale>  0 0.12500000E+03</rscale>
<asrwt>0</asrwt>
<pdfrwt beam="1">  1       21 0.16185150E-02 0.12500000E+03</pdfrwt>
<pdfrwt beam="2">  1       21 0.57123736E-01 0.12500000E+03</pdfrwt>
<totfact> 0.49270606E+06</totfact>
</mgrwt>
</event>
<event>
 3    1  0.1619206E-001  0.1250000E+03  0.7546771E-02  0.1235069E+00
         21   -1    0    0  502  501  0.00000000000E+00  0.00000000000E+00  0.10704704117E+04  0.10704704117E+04  0.00000000000E+00 0.  1.
         21   -1    0    0  501  502 -0.00000000000E+00 -0.00000000000E+00 -0.36490966563E+01  0.36490966563E+01  0.00000000000E+00 0.  1.
         25    1    1    2    0    0  0.00000000000E+00  0.00000000000E+00  0.10668213150E+04  0.10741195084E+04  0.12500000000E+03 0.  0.
<mgrwt>
<rscale>  0 0.12500000E+03</rscale>
<asrwt>0</asrwt>
<pdfrwt beam="1">  1       21 0.16468750E+00 0.12500000E+03</pdfrwt>
<pdfrwt beam="2">  1       21 0.56140034E-03 0.12500000E+03</pdfrwt>
<totfact> 0.21836397E+06</totfact>
</mgrwt>
</event>
<event>
 3    1  0.1619206E-001  0.1250000E+03  0.7546771E-02  0.1235069E+00
         21   -1    0    0  502  501  0.00000000000E+00  0.00000000000E+00  0.97949655759E+01  0.97949655759E+01  0.00000000000E+00 0.  1.
         21   -1    0    0  501  502 -0.00000000000E+00 -0.00000000000E+00 -0.39880180994E+03  0.39880180994E+03  0.00000000000E+00 0.  1.
         25    1    1    2    0    0  0.00000000000E+00  0.00000000000E+00 -0.38900684437E+03  0.40859677552E+03  0.12500000000E+03 0.  0.
<mgrwt>
<rscale>  0 0.12500000E+03</rscale>
<asrwt>0</asrwt>
<pdfrwt beam="1">  1       21 0.15069178E-02 0.12500000E+03</pdfrwt>
<pdfrwt beam="2">  1       21 0.61354125E-01 0.12500000E+03</pdfrwt>
<totfact> 0.47476315E+06</totfact>
</mgrwt>
</event>
<event>
 3    1  0.1619206E-001  0.1250000E+03  0.7546771E-02  0.1235069E+00
         21   -1    0    0  502  501  0.00000000000E+00  0.00000000000E+00  0.34832910269E+02  0.34832910269E+02  0.00000000000E+00 0. -1.
         21   -1    0    0  501  502 -0.00000000000E+00 -0.00000000000E+00 -0.11214251034E+03  0.11214251034E+03  0.00000000000E+00 0. -1.
         25    1    1    2    0    0  0.00000000000E+00  0.00000000000E+00 -0.77309600071E+02  0.14697542061E+03  0.12500000000E+03 0.  0.
<mgrwt>
<rscale>  0 0.12500000E+03</rscale>
<asrwt>0</asrwt>
<pdfrwt beam="1">  1       21 0.53589093E-02 0.12500000E+03</pdfrwt>
<pdfrwt beam="2">  1       21 0.17252694E-01 0.12500000E+03</pdfrwt>
<totfact> 0.71141244E+06</totfact>
</mgrwt>
</event>
<event>
 3    1  0.1619206E-001  0.1250000E+03  0.7546771E-02  0.1235069E+00
         21   -1    0    0  502  501  0.00000000000E+00  0.00000000000E+00  0.11336905875E+03  0.11336905875E+03  0.00000000000E+00 0. -1.
         21   -1    0    0  501  502 -0.00000000000E+00 -0.00000000000E+00 -0.34456050382E+02  0.34456050382E+02  0.00000000000E+00 0. -1.
         25    1    1    2    0    0  0.00000000000E+00  0.00000000000E+00  0.78913008368E+02  0.14782510913E+03  0.12500000000E+03 0.  0.
<mgrwt>
<rscale>  0 0.12500000E+03</rscale>
<asrwt>0</asrwt>
<pdfrwt beam="1">  1       21 0.17441394E-01 0.12500000E+03</pdfrwt>
<pdfrwt beam="2">  1       21 0.53009309E-02 0.12500000E+03</pdfrwt>
<totfact> 0.71033487E+06</totfact>
</mgrwt>
</event>
<event>
 3    1  0.1619206E-001  0.1250000E+03  0.7546771E-02  0.1235069E+00
         21   -1    0    0  502  501  0.00000000000E+00  0.00000000000E+00  0.46115175866E+02  0.46115175866E+02  0.00000000000E+00 0. -1.
         21   -1    0    0  501  502 -0.00000000000E+00 -0.00000000000E+00 -0.84706388442E+02  0.84706388442E+02  0.00000000000E+00 0. -1.
         25    1    1    2    0    0  0.00000000000E+00  0.00000000000E+00 -0.38591212576E+02  0.13082156431E+03  0.12500000000E+03 0.  0.
<mgrwt>
<rscale>  0 0.12500000E+03</rscale>
<asrwt>0</asrwt>
<pdfrwt beam="1">  1       21 0.70946425E-02 0.12500000E+03</pdfrwt>
<pdfrwt beam="2">  1       21 0.13031752E-01 0.12500000E+03</pdfrwt>
<totfact> 0.73254727E+06</totfact>
</mgrwt>
</event>
<event>
 3    1  0.1619206E-001  0.1250000E+03  0.7546771E-02  0.1235069E+00
         21   -1    0    0  502  501  0.00000000000E+00  0.00000000000E+00  0.13020198038E+03  0.13020198038E+03  0.00000000000E+00 0. -1.
         21   -1    0    0  501  502 -0.00000000000E+00 -0.00000000000E+00 -0.30001463791E+02  0.30001463791E+02  0.00000000000E+00 0. -1.
         25    1    1    2    0    0  0.00000000000E+00  0.00000000000E+00  0.10020051659E+03  0.16020344418E+03  0.12500000000E+03 0.  0.
<mgrwt>
<rscale>  0 0.12500000E+03</rscale>
<asrwt>0</asrwt>
<pdfrwt beam="1">  1       21 0.20031074E-01 0.12500000E+03</pdfrwt>
<pdfrwt beam="2">  1       21 0.46156099E-02 0.12500000E+03</pdfrwt>
<totfact> 0.69494646E+06</totfact>
</mgrwt>
</event>
<event>
 3    1  0.1619206E-001  0.1250000E+03  0.7546771E-02  0.1235069E+00
         21   -1    0    0  502  501  0.00000000000E+00  0.00000000000E+00  0.18094198136E+03  0.18094198136E+03  0.00000000000E+00 0. -1.
         21   -1    0    0  501  502 -0.00000000000E+00 -0.00000000000E+00 -0.21588411769E+02  0.21588411769E+02  0.00000000000E+00 0. -1.
         25    1    1    2    0    0  0.00000000000E+00  0.00000000000E+00  0.15935356959E+03  0.20253039313E+03  0.12500000000E+03 0.  0.
<mgrwt>
<rscale>  0 0.12500000E+03</rscale>
<asrwt>0</asrwt>
<pdfrwt beam="1">  1       21 0.27837227E-01 0.12500000E+03</pdfrwt>
<pdfrwt beam="2">  1       21 0.33212942E-02 0.12500000E+03</pdfrwt>
<totfact> 0.64654095E+06</totfact>
</mgrwt>
</event>
<event>
 3    1  0.1619206E-001  0.1250000E+03  0.7546771E-02  0.1235069E+00
         21   -1    0    0  502  501  0.00000000000E+00  0.00000000000E+00  0.39106893993E+03  0.39106893993E+03  0.00000000000E+00 0.  1.
         21   -1    0    0  501  502 -0.00000000000E+00 -0.00000000000E+00 -0.99886480392E+01  0.99886480392E+01  0.00000000000E+00 0.  1.
         25    1    1    2    0    0  0.00000000000E+00  0.00000000000E+00  0.38108029189E+03  0.40105758797E+03  0.12500000000E+03 0.  0.
<mgrwt>
<rscale>  0 0.12500000E+03</rscale>
<asrwt>0</asrwt>
<pdfrwt beam="1">  1       21 0.60164441E-01 0.12500000E+03</pdfrwt>
<pdfrwt beam="2">  1       21 0.15367154E-02 0.12500000E+03</pdfrwt>
<totfact> 0.47971286E+06</totfact>
</mgrwt>
</event>
<event>
 3    1  0.1619206E-001  0.1250000E+03  0.7546771E-02  0.1235069E+00
         21   -1    0    0  502  501  0.00000000000E+00  0.00000000000E+00  0.21893391702E+03  0.21893391702E+03  0.00000000000E+00 0. -1.
         21   -1    0    0  501  502 -0.00000000000E+00 -0.00000000000E+00 -0.17842141836E+02  0.17842141836E+02  0.00000000000E+00 0. -1.
         25    1    1    2    0    0  0.00000000000E+00  0.00000000000E+00  0.20109177518E+03  0.23677605885E+03  0.12500000000E+03 0.  0.
<mgrwt>
<rscale>  0 0.12500000E+03</rscale>
<asrwt>0</asrwt>
<pdfrwt beam="1">  1       21 0.33682139E-01 0.12500000E+03</pdfrwt>
<pdfrwt beam="2">  1       21 0.27449451E-02 0.12500000E+03</pdfrwt>
<totfact> 0.61146039E+06</totfact>
</mgrwt>
</event>
<event>
 3    1  0.1619206E-001  0.1250000E+03  0.7546771E-02  0.1235069E+00
         21   -1    0    0  502  501  0.00000000000E+00  0.00000000000E+00  0.17737934931E+03  0.17737934931E+03  0.00000000000E+00 0.  1.
         21   -1    0    0  501  502 -0.00000000000E+00 -0.00000000000E+00 -0.22022011103E+02  0.22022011103E+02  0.00000000000E+00 0.  1.
         25    1    1    2    0    0  0.00000000000E+00  0.00000000000E+00  0.15535733821E+03  0.19940136041E+03  0.12500000000E+03 0.  0.
<mgrwt>
<rscale>  0 0.12500000E+03</rscale>
<asrwt>0</asrwt>
<pdfrwt beam="1">  1       21 0.27289130E-01 0.12500000E+03</pdfrwt>
<pdfrwt beam="2">  1       21 0.33880018E-02 0.12500000E+03</pdfrwt>
<totfact> 0.64992177E+06</totfact>
</mgrwt>
</event>
<event>
 3    1  0.1619206E-001  0.1250000E+03  0.7546771E-02  0.1235069E+00
         21   -1    0    0  502  501  0.00000000000E+00  0.00000000000E+00  0.76495143270E+03  0.76495143270E+03  0.00000000000E+00 0. -1.
         21   -1    0    0  501  502 -0.00000000000E+00 -0.00000000000E+00 -0.51065333471E+01  0.51065333471E+01  0.00000000000E+00 0. -1.
         25    1    1    2    0    0  0.00000000000E+00  0.00000000000E+00  0.75984489935E+03  0.77005796605E+03  0.12500000000E+03 0.  0.
<mgrwt>
<rscale>  0 0.12500000E+03</rscale>
<asrwt>0</asrwt>
<pdfrwt beam="1">  1       21 0.11768474E+00 0.12500000E+03</pdfrwt>
<pdfrwt beam="2">  1       21 0.78562112E-03 0.12500000E+03</pdfrwt>
<totfact> 0.30375632E+06</totfact>
</mgrwt>
</event>
<event>
 3    1  0.1619206E-001  0.1250000E+03  0.7546771E-02  0.1235069E+00
         21   -1    0    0  502  501  0.00000000000E+00  0.00000000000E+00  0.69976332127E+01  0.69976332127E+01  0.00000000000E+00 0. -1.
         21   -1    0    0  501  502 -0.00000000000E+00 -0.00000000000E+00 -0.55822445693E+03  0.55822445693E+03  0.00000000000E+00 0. -1.
         25    1    1    2    0    0  0.00000000000E+00  0.00000000000E+00 -0.55122682372E+03  0.56522209015E+03  0.12500000000E+03 0.  0.
<mgrwt>
<rscale>  0 0.12500000E+03</rscale>
<asrwt>0</asrwt>
<pdfrwt beam="1">  1       21 0.10765585E-02 0.12500000E+03</pdfrwt>
<pdfrwt beam="2">  1       21 0.85880722E-01 0.12500000E+03</pdfrwt>
<totfact> 0.38714171E+06</totfact>
</mgrwt>
</event>
<event>
 3    1  0.1619206E-001  0.1250000E+03  0.7546771E-02  0.1235069E+00
         21   -1    0    0  502  501  0.00000000000E+00  0.00000000000E+00  0.16407772437E+03  0.16407772437E+03  0.00000000000E+00 0.  1.
         21   -1    0    0  501  502 -0.00000000000E+00 -0.00000000000E+00 -0.23807314582E+02  0.23807314582E+02  0.00000000000E+00 0.  1.
         25    1    1    2    0    0  0.00000000000E+00  0.00000000000E+00  0.14027040979E+03  0.18788503896E+03  0.12500000000E+03 0.  0.
<mgrwt>
<rscale>  0 0.12500000E+03</rscale>
<asrwt>0</asrwt>
<pdfrwt beam="1">  1       21 0.25242726E-01 0.12500000E+03</pdfrwt>
<pdfrwt beam="2">  1       21 0.36626639E-02 0.12500000E+03</pdfrwt>
<totfact> 0.66258297E+06</totfact>
</mgrwt>
</event>
<event>
 3    1  0.1619206E-001  0.1250000E+03  0.7546771E-02  0.1235069E+00
         21   -1    0    0  502  501  0.00000000000E+00  0.00000000000E+00  0.16341674628E+02  0.16341674628E+02  0.00000000000E+00 0. -1.
         21   -1    0    0  501  502 -0.00000000000E+00 -0.00000000000E+00 -0.23903608957E+03  0.23903608957E+03  0.00000000000E+00 0. -1.
         25    1    1    2    0    0  0.00000000000E+00  0.00000000000E+00 -0.22269441494E+03  0.25537776420E+03  0.12500000000E+03 0.  0.
<mgrwt>
<rscale>  0 0.12500000E+03</rscale>
<asrwt>0</asrwt>
<pdfrwt beam="1">  1       21 0.25141041E-02 0.12500000E+03</pdfrwt>
<pdfrwt beam="2">  1       21 0.36774779E-01 0.12500000E+03</pdfrwt>
<totfact> 0.59375545E+06</totfact>
</mgrwt>
</event>
<event>
 3    1  0.1619206E-001  0.1250000E+03  0.7546771E-02  0.1235069E+00
         21   -1    0    0  502  501  0.00000000000E+00  0.00000000000E+00  0.40940674797E+03  0.40940674797E+03  0.00000000000E+00 0.  1.
         21   -1    0    0  501  502 -0.00000000000E+00 -0.00000000000E+00 -0.95412447874E+01  0.95412447874E+01  0.00000000000E+00 0.  1.
         25    1    1    2    0    0  0.00000000000E+00  0.00000000000E+00  0.39986550318E+03  0.41894799276E+03  0.12500000000E+03 0.  0.
<mgrwt>
<rscale>  0 0.12500000E+03</rscale>
<asrwt>0</asrwt>
<pdfrwt beam="1">  1       21 0.62985640E-01 0.12500000E+03</pdfrwt>
<pdfrwt beam="2">  1       21 0.14678841E-02 0.12500000E+03</pdfrwt>
<totfact> 0.46809437E+06</totfact>
</mgrwt>
</event>
<event>
 3    1  0.1619206E-001  0.1250000E+03  0.7546771E-02  0.1235069E+00
         21   -1    0    0  502  501  0.00000000000E+00  0.00000000000E+00  0.89775556463E+02  0.89775556463E+02  0.00000000000E+00 0.  1.
         21   -1    0    0  501  502 -0.00000000000E+00 -0.00000000000E+00 -0.43511286968E+02  0.43511286968E+02  0.00000000000E+00 0.  1.
         25    1    1    2    0    0  0.00000000000E+00  0.00000000000E+00  0.46264269494E+02  0.13328684343E+03  0.12500000000E+03 0.  0.
<mgrwt>
<rscale>  0 0.12500000E+03</rscale>
<asrwt>0</asrwt>
<pdfrwt beam="1">  1       21 0.13811624E-01 0.12500000E+03</pdfrwt>
<pdfrwt beam="2">  1       21 0.66940442E-02 0.12500000E+03</pdfrwt>
<totfact> 0.72924119E+06</totfact>
</mgrwt>
</event>
<event>
 3    1  0.1619206E-001  0.1250000E+03  0.7546771E-02  0.1235069E+00
         21   -1    0    0  502  501  0.00000000000E+00  0.00000000000E+00  0.51296032616E+03  0.51296032616E+03  0.00000000000E+00 0.  1.
         21   -1    0    0  501  502 -0.00000000000E+00 -0.00000000000E+00 -0.76151113464E+01  0.76151113464E+01  0.00000000000E+00 0.  1.
         25    1    1    2    0    0  0.00000000000E+00  0.00000000000E+00  0.50534521482E+03  0.52057543751E+03  0.12500000000E+03 0.  0.
<mgrwt>
<rscale>  0 0.12500000E+03</rscale>
<asrwt>0</asrwt>
<pdfrwt beam="1">  1       21 0.78916946E-01 0.12500000E+03</pdfrwt>
<pdfrwt beam="2">  1       21 0.11715560E-02 0.12500000E+03</pdfrwt>
<totfact> 0.40949768E+06</totfact>
</mgrwt>
</event>
<event>
 3    1  0.1619206E-001  0.1250000E+03  0.7546771E-02  0.1235069E+00
         21   -1    0    0  502  501  0.00000000000E+00  0.00000000000E+00  0.10157592297E+04  0.10157592297E+04  0.00000000000E+00 0. -1.
         21   -1    0    0  501  502 -0.00000000000E+00 -0.00000000000E+00 -0.38456455879E+01  0.38456455879E+01  0.00000000000E+00 0. -1.
         25    1    1    2    0    0  0.00000000000E+00  0.00000000000E+00  0.10119135841E+04  0.10196048753E+04  0.12500000000E+03 0.  0.
<mgrwt>
<rscale>  0 0.12500000E+03</rscale>
<asrwt>0</asrwt>
<pdfrwt beam="1">  1       21 0.15627044E+00 0.12500000E+03</pdfrwt>
<pdfrwt beam="2">  1       21 0.59163859E-03 0.12500000E+03</pdfrwt>
<totfact> 0.23133207E+06</totfact>
</mgrwt>
</event>
<event>
 3    1  0.1619206E-001  0.1250000E+03  0.7546771E-02  0.1235069E+00
         21   -1    0    0  502  501  0.00000000000E+00  0.00000000000E+00  0.44160836765E+02  0.44160836765E+02  0.00000000000E+00 0.  1.
         21   -1    0    0  501  502 -0.00000000000E+00 -0.00000000000E+00 -0.88455072099E+02  0.88455072099E+02  0.00000000000E+00 0.  1.
         25    1    1    2    0    0  0.00000000000E+00  0.00000000000E+00 -0.44294235333E+02  0.13261590886E+03  0.12500000000E+03 0.  0.
<mgrwt>
<rscale>  0 0.12500000E+03</rscale>
<asrwt>0</asrwt>
<pdfrwt beam="1">  1       21 0.67939750E-02 0.12500000E+03</pdfrwt>
<pdfrwt beam="2">  1       21 0.13608472E-01 0.12500000E+03</pdfrwt>
<totfact> 0.73013731E+06</totfact>
</mgrwt>
</event>
<event>
 3    1  0.1619206E-001  0.1250000E+03  0.7546771E-02  0.1235069E+00
         21   -1    0    0  502  501  0.00000000000E+00  0.00000000000E+00  0.20341417615E+02  0.20341417615E+02  0.00000000000E+00 0.  1.
         21   -1    0    0  501  502 -0.00000000000E+00 -0.00000000000E+00 -0.19203430528E+03  0.19203430528E+03  0.00000000000E+00 0.  1.
         25    1    1    2    0    0  0.00000000000E+00  0.00000000000E+00 -0.17169288766E+03  0.21237572289E+03  0.12500000000E+03 0.  0.
<mgrwt>
<rscale>  0 0.12500000E+03</rscale>
<asrwt>0</asrwt>
<pdfrwt beam="1">  1       21 0.31294489E-02 0.12500000E+03</pdfrwt>
<pdfrwt beam="2">  1       21 0.29543739E-01 0.12500000E+03</pdfrwt>
<totfact> 0.63610446E+06</totfact>
</mgrwt>
</event>
<event>
 3    1  0.1619206E-001  0.1250000E+03  0.7546771E-02  0.1235069E+00
         21   -1    0    0  502  501  0.00000000000E+00  0.00000000000E+00  0.20726638701E+02  0.20726638701E+02  0.00000000000E+00 0. -1.
         21   -1    0    0  501  502 -0.00000000000E+00 -0.00000000000E+00 -0.18846519478E+03  0.18846519478E+03  0.00000000000E+00 0. -1.
         25    1    1    2    0    0  0.00000000000E+00  0.00000000000E+00 -0.16773855608E+03  0.20919183348E+03  0.12500000000E+03 0.  0.
<mgrwt>
<rscale>  0 0.12500000E+03</rscale>
<asrwt>0</asrwt>
<pdfrwt beam="1">  1       21 0.31887137E-02 0.12500000E+03</pdfrwt>
<pdfrwt beam="2">  1       21 0.28994645E-01 0.12500000E+03</pdfrwt>
<totfact> 0.63944664E+06</totfact>
</mgrwt>
</event>
<event>
 3    1  0.1619206E-001  0.1250000E+03  0.7546771E-02  0.1235069E+00
         21   -1    0    0  502  501  0.00000000000E+00  0.00000000000E+00  0.22034335203E+03  0.22034335203E+03  0.00000000000E+00 0.  1.
         21   -1    0    0  501  502 -0.00000000000E+00 -0.00000000000E+00 -0.17728013866E+02  0.17728013866E+02  0.00000000000E+00 0.  1.
         25    1    1    2    0    0  0.00000000000E+00  0.00000000000E+00  0.20261533816E+03  0.23807136589E+03  0.12500000000E+03 0.  0.
<mgrwt>
<rscale>  0 0.12500000E+03</rscale>
<asrwt>0</asrwt>
<pdfrwt beam="1">  1       21 0.33898975E-01 0.12500000E+03</pdfrwt>
<pdfrwt beam="2">  1       21 0.27273869E-02 0.12500000E+03</pdfrwt>
<totfact> 0.61019794E+06</totfact>
</mgrwt>
</event>
<event>
 3    1  0.1619206E-001  0.1250000E+03  0.7546771E-02  0.1235069E+00
         21   -1    0    0  502  501  0.00000000000E+00  0.00000000000E+00  0.23668681450E+03  0.23668681450E+03  0.00000000000E+00 0.  1.
         21   -1    0    0  501  502 -0.00000000000E+00 -0.00000000000E+00 -0.16503876687E+02  0.16503876687E+02  0.00000000000E+00 0.  1.
         25    1    1    2    0    0  0.00000000000E+00  0.00000000000E+00  0.22018293781E+03  0.25319069119E+03  0.12500000000E+03 0.  0.
<mgrwt>
<rscale>  0 0.12500000E+03</rscale>
<asrwt>0</asrwt>
<pdfrwt beam="1">  1       21 0.36413354E-01 0.12500000E+03</pdfrwt>
<pdfrwt beam="2">  1       21 0.25390581E-02 0.12500000E+03</pdfrwt>
<totfact> 0.59579086E+06</totfact>
</mgrwt>
</event>
<event>
 3    1  0.1619206E-001  0.1250000E+03  0.7546771E-02  0.1235069E+00
         21   -1    0    0  502  501  0.00000000000E+00  0.00000000000E+00  0.61628563682E+02  0.61628563682E+02  0.00000000000E+00 0.  1.
         21   -1    0    0  501  502 -0.00000000000E+00 -0.00000000000E+00 -0.63383758546E+02  0.63383758546E+02  0.00000000000E+00 0.  1.
         25    1    1    2    0    0  0.00000000000E+00  0.00000000000E+00 -0.17551948642E+01  0.12501232223E+03  0.12500000000E+03 0.  0.
<mgrwt>
<rscale>  0 0.12500000E+03</rscale>
<asrwt>0</asrwt>
<pdfrwt beam="1">  1       21 0.94813175E-02 0.12500000E+03</pdfrwt>
<pdfrwt beam="2">  1       21 0.97513475E-02 0.12500000E+03</pdfrwt>
<totfact> 0.74041917E+06</totfact>
</mgrwt>
</event>
<event>
 3    1  0.1619206E-001  0.1250000E+03  0.7546771E-02  0.1235069E+00
         21   -1    0    0  502  501  0.00000000000E+00  0.00000000000E+00  0.11893003530E+03  0.11893003530E+03  0.00000000000E+00 0.  1.
         21   -1    0    0  501  502 -0.00000000000E+00 -0.00000000000E+00 -0.32844941063E+02  0.32844941063E+02  0.00000000000E+00 0.  1.
         25    1    1    2    0    0  0.00000000000E+00  0.00000000000E+00  0.86085094233E+02  0.15177497636E+03  0.12500000000E+03 0.  0.
<mgrwt>
<rscale>  0 0.12500000E+03</rscale>
<asrwt>0</asrwt>
<pdfrwt beam="1">  1       21 0.18296928E-01 0.12500000E+03</pdfrwt>
<pdfrwt beam="2">  1       21 0.50530679E-02 0.12500000E+03</pdfrwt>
<totfact> 0.70536938E+06</totfact>
</mgrwt>
</event>
<event>
 3    1  0.1619206E-001  0.1250000E+03  0.7546771E-02  0.1235069E+00
         21   -1    0    0  502  501  0.00000000000E+00  0.00000000000E+00  0.11879117137E+02  0.11879117137E+02  0.00000000000E+00 0.  1.
         21   -1    0    0  501  502 -0.00000000000E+00 -0.00000000000E+00 -0.32883335983E+03  0.32883335983E+03  0.00000000000E+00 0.  1.
         25    1    1    2    0    0  0.00000000000E+00  0.00000000000E+00 -0.31695424269E+03  0.34071247696E+03  0.12500000000E+03 0.  0.
<mgrwt>
<rscale>  0 0.12500000E+03</rscale>
<asrwt>0</asrwt>
<pdfrwt beam="1">  1       21 0.18275563E-02 0.12500000E+03</pdfrwt>
<pdfrwt beam="2">  1       21 0.50589754E-01 0.12500000E+03</pdfrwt>
<totfact> 0.52231739E+06</totfact>
</mgrwt>
</event>
<event>
 3    1  0.1619206E-001  0.1250000E+03  0.7546771E-02  0.1235069E+00
         21   -1    0    0  502  501  0.00000000000E+00  0.00000000000E+00  0.27173337276E+03  0.27173337276E+03  0.00000000000E+00 0. -1.
         21   -1    0    0  501  502 -0.00000000000E+00 -0.00000000000E+00 -0.14375304588E+02  0.14375304588E+02  0.00000000000E+00 0. -1.
         25    1    1    2    0    0  0.00000000000E+00  0.00000000000E+00  0.25735806817E+03  0.28610867735E+03  0.12500000000E+03 0.  0.
<mgrwt>
<rscale>  0 0.12500000E+03</rscale>
<asrwt>0</asrwt>
<pdfrwt beam="1">  1       21 0.41805131E-01 0.12500000E+03</pdfrwt>
<pdfrwt beam="2">  1       21 0.22115855E-02 0.12500000E+03</pdfrwt>
<totfact> 0.56630725E+06</totfact>
</mgrwt>
</event>
<event>
 3    1  0.1619206E-001  0.1250000E+03  0.7546771E-02  0.1235069E+00
         21   -1    0    0  502  501  0.00000000000E+00  0.00000000000E+00  0.19867294338E+03  0.19867294338E+03  0.00000000000E+00 0. -1.
         21   -1    0    0  501  502 -0.00000000000E+00 -0.00000000000E+00 -0.19661711019E+02  0.19661711019E+02  0.00000000000E+00 0. -1.
         25    1    1    2    0    0  0.00000000000E+00  0.00000000000E+00  0.17901123236E+03  0.21833465440E+03  0.12500000000E+03 0.  0.
<mgrwt>
<rscale>  0 0.12500000E+03</rscale>
<asrwt>0</asrwt>
<pdfrwt beam="1">  1       21 0.30565067E-01 0.12500000E+03</pdfrwt>
<pdfrwt beam="2">  1       21 0.30248788E-02 0.12500000E+03</pdfrwt>
<totfact> 0.62993163E+06</totfact>
</mgrwt>
</event>
<event>
 3    1  0.1619206E-001  0.1250000E+03  0.7546771E-02  0.1235069E+00
         21   -1    0    0  502  501  0.00000000000E+00  0.00000000000E+00  0.98115239242E+03  0.98115239242E+03  0.00000000000E+00 0.  1.
         21   -1    0    0  501  502 -0.00000000000E+00 -0.00000000000E+00 -0.39812877492E+01  0.39812877492E+01  0.00000000000E+00 0.  1.
         25    1    1    2    0    0  0.00000000000E+00  0.00000000000E+00  0.97717110467E+03  0.98513368017E+03  0.12500000000E+03 0.  0.
<mgrwt>
<rscale>  0 0.12500000E+03</rscale>
<asrwt>0</asrwt>
<pdfrwt beam="1">  1       21 0.15094633E+00 0.12500000E+03</pdfrwt>
<pdfrwt beam="2">  1       21 0.61250659E-03 0.12500000E+03</pdfrwt>
<totfact> 0.23993771E+06</totfact>
</mgrwt>
</event>
<event>
 3    1  0.1619206E-001  0.1250000E+03  0.7546771E-02  0.1235069E+00
         21   -1    0    0  502  501  0.00000000000E+00  0.00000000000E+00  0.47731595065E+03  0.47731595065E+03  0.00000000000E+00 0.  1.
         21   -1    0    0  501  502 -0.00000000000E+00 -0.00000000000E+00 -0.81837826594E+01  0.81837826594E+01  0.00000000000E+00 0.  1.
         25    1    1    2    0    0  0.00000000000E+00  0.00000000000E+00  0.46913216799E+03  0.48549973331E+03  0.12500000000E+03 0.  0.
<mgrwt>
<rscale>  0 0.12500000E+03</rscale>
<asrwt>0</asrwt>
<pdfrwt beam="1">  1       21 0.73433201E-01 0.12500000E+03</pdfrwt>
<pdfrwt beam="2">  1       21 0.12590439E-02 0.12500000E+03</pdfrwt>
<totfact> 0.42841537E+06</totfact>
</mgrwt>
</event>
<event>
 3    1  0.1619206E-001  0.1250000E+03  0.7546771E-02  0.1235069E+00
         21   -1    0    0  502  501  0.00000000000E+00  0.00000000000E+00  0.14329250573E+02  0.14329250573E+02  0.00000000000E+00 0. -1.
         21   -1    0    0  501  502 -0.00000000000E+00 -0.00000000000E+00 -0.27260672009E+03  0.27260672009E+03  0.00000000000E+00 0. -1.
         25    1    1    2    0    0  0.00000000000E+00  0.00000000000E+00 -0.25827746951E+03  0.28693597066E+03  0.12500000000E+03 0.  0.
<mgrwt>
<rscale>  0 0.12500000E+03</rscale>
<asrwt>0</asrwt>
<pdfrwt beam="1">  1       21 0.22045004E-02 0.12500000E+03</pdfrwt>
<pdfrwt beam="2">  1       21 0.41939490E-01 0.12500000E+03</pdfrwt>
<totfact> 0.56559629E+06</totfact>
</mgrwt>
</event>
<event>
 3    1  0.1619206E-001  0.1250000E+03  0.7546771E-02  0.1235069E+00
         21   -1    0    0  502  501  0.00000000000E+00  0.00000000000E+00  0.60614416565E+02  0.60614416565E+02  0.00000000000E+00 0. -1.
         21   -1    0    0  501  502 -0.00000000000E+00 -0.00000000000E+00 -0.64444239859E+02  0.64444239859E+02  0.00000000000E+00 0. -1.
         25    1    1    2    0    0  0.00000000000E+00  0.00000000000E+00 -0.38298232940E+01  0.12505865642E+03  0.12500000000E+03 0.  0.
<mgrwt>
<rscale>  0 0.12500000E+03</rscale>
<asrwt>0</asrwt>
<pdfrwt beam="1">  1       21 0.93252948E-02 0.12500000E+03</pdfrwt>
<pdfrwt beam="2">  1       21 0.99144985E-02 0.12500000E+03</pdfrwt>
<totfact> 0.74035659E+06</totfact>
</mgrwt>
</event>
<event>
 3    1  0.1619206E-001  0.1250000E+03  0.7546771E-02  0.1235069E+00
         21   -1    0    0  502  501  0.00000000000E+00  0.00000000000E+00  0.68271520383E+03  0.68271520383E+03  0.00000000000E+00 0.  1.
         21   -1    0    0  501  502 -0.00000000000E+00 -0.00000000000E+00 -0.57216390935E+01  0.57216390935E+01  0.00000000000E+00 0.  1.
         25    1    1    2    0    0  0.00000000000E+00  0.00000000000E+00  0.67699356474E+03  0.68843684293E+03  0.12500000000E+03 0.  0.
<mgrwt>
<rscale>  0 0.12500000E+03</rscale>
<asrwt>0</asrwt>
<pdfrwt beam="1">  1       21 0.10503304E+00 0.12500000E+03</pdfrwt>
<pdfrwt beam="2">  1       21 0.88025271E-03 0.12500000E+03</pdfrwt>
<totfact> 0.33360743E+06</totfact>
</mgrwt>
</event>
<event>
 3    1  0.1619206E-001  0.1250000E+03  0.7546771E-02  0.1235069E+00
         21   -1    0    0  502  501  0.00000000000E+00  0.00000000000E+00  0.87836079785E+01  0.87836079785E+01  0.00000000000E+00 0. -1.
         21   -1    0    0  501  502 -0.00000000000E+00 -0.00000000000E+00 -0.44472043943E+03  0.44472043943E+03  0.00000000000E+00 0. -1.
         25    1    1    2    0    0  0.00000000000E+00  0.00000000000E+00 -0.43593683145E+03  0.45350404741E+03  0.12500000000E+03 0.  0.
<mgrwt>
<rscale>  0 0.12500000E+03</rscale>
<asrwt>0</asrwt>
<pdfrwt beam="1">  1       21 0.13513244E-02 0.12500000E+03</pdfrwt>
<pdfrwt beam="2">  1       21 0.68418522E-01 0.12500000E+03</pdfrwt>
<totfact> 0.44683337E+06</totfact>
</mgrwt>
</event>
<event>
 3    1  0.1619206E-001  0.1250000E+03  0.7546771E-02  0.1235069E+00
         21   -1    0    0  502  501  0.00000000000E+00  0.00000000000E+00  0.30560237479E+03  0.30560237479E+03  0.00000000000E+00 0. -1.
         21   -1    0    0  501  502 -0.00000000000E+00 -0.00000000000E+00 -0.12782132346E+02  0.12782132346E+02  0.00000000000E+00 0. -1.
         25    1    1    2    0    0  0.00000000000E+00  0.00000000000E+00  0.29282024245E+03  0.31838450714E+03  0.12500000000E+03 0.  0.
<mgrwt>
<rscale>  0 0.12500000E+03</rscale>
<asrwt>0</asrwt>
<pdfrwt beam="1">  1       21 0.47015744E-01 0.12500000E+03</pdfrwt>
<pdfrwt beam="2">  1       21 0.19664821E-02 0.12500000E+03</pdfrwt>
<totfact> 0.53961613E+06</totfact>
</mgrwt>
</event>
<event>
 3    1  0.1619206E-001  0.1250000E+03  0.7546771E-02  0.1235069E+00
         21   -1    0    0  502  501  0.00000000000E+00  0.00000000000E+00  0.26360928012E+03  0.26360928012E+03  0.00000000000E+00 0.  1.
         21   -1    0    0  501  502 -0.00000000000E+00 -0.00000000000E+00 -0.14818332641E+02  0.14818332641E+02  0.00000000000E+00 0.  1.
         25    1    1    2    0    0  0.00000000000E+00  0.00000000000E+00  0.24879094748E+03  0.27842761276E+03  0.12500000000E+03 0.  0.
<mgrwt>
<rscale>  0 0.12500000E+03</rscale>
<asrwt>0</asrwt>
<pdfrwt beam="1">  1       21 0.40555270E-01 0.12500000E+03</pdfrwt>
<pdfrwt beam="2">  1       21 0.22797437E-02 0.12500000E+03</pdfrwt>
<totfact> 0.57297966E+06</totfact>
</mgrwt>
</event>
<event>
 3    1  0.1619206E-001  0.1250000E+03  0.7546771E-02  0.1235069E+00
         21   -1    0    0  502  501  0.00000000000E+00  0.00000000000E+00  0.42908513533E+01  0.42908513533E+01  0.00000000000E+00 0. -1.
         21   -1    0    0  501  502 -0.00000000000E+00 -0.00000000000E+00 -0.91036712260E+03  0.91036712260E+03  0.00000000000E+00 0. -1.
         25    1    1    2    0    0  0.00000000000E+00  0.00000000000E+00 -0.90607627125E+03  0.91465797396E+03  0.12500000000E+03 0.  0.
<mgrwt>
<rscale>  0 0.12500000E+03</rscale>
<asrwt>0</asrwt>
<pdfrwt beam="1">  1       21 0.66013161E-03 0.12500000E+03</pdfrwt>
<pdfrwt beam="2">  1       21 0.14005635E+00 0.12500000E+03</pdfrwt>
<totfact> 0.25882047E+06</totfact>
</mgrwt>
</event>
<event>
 3    1  0.1619206E-001  0.1250000E+03  0.7546771E-02  0.1235069E+00
         21   -1    0    0  502  501  0.00000000000E+00  0.00000000000E+00  0.21105261394E+02  0.21105261394E+02  0.00000000000E+00 0.  1.
         21   -1    0    0  501  502 -0.00000000000E+00 -0.00000000000E+00 -0.18508418005E+03  0.18508418005E+03  0.00000000000E+00 0.  1.
         25    1    1    2    0    0  0.00000000000E+00  0.00000000000E+00 -0.16397891866E+03  0.20618944145E+03  0.12500000000E+03 0.  0.
<mgrwt>
<rscale>  0 0.12500000E+03</rscale>
<asrwt>0</asrwt>
<pdfrwt beam="1">  1       21 0.32469634E-02 0.12500000E+03</pdfrwt>
<pdfrwt beam="2">  1       21 0.28474489E-01 0.12500000E+03</pdfrwt>
<totfact> 0.64262694E+06</totfact>
</mgrwt>
</event>
<event>
 3    1  0.1619206E-001  0.1250000E+03  0.7546771E-02  0.1235069E+00
         21   -1    0    0  502  501  0.00000000000E+00  0.00000000000E+00  0.13855376336E+02  0.13855376336E+02  0.00000000000E+00 0. -1.
         21   -1    0    0  501  502 -0.00000000000E+00 -0.00000000000E+00 -0.28193027063E+03  0.28193027063E+03  0.00000000000E+00 0. -1.
         25    1    1    2    0    0  0.00000000000E+00  0.00000000000E+00 -0.26807489430E+03  0.29578564697E+03  0.12500000000E+03 0.  0.
<mgrwt>
<rscale>  0 0.12500000E+03</rscale>
<asrwt>0</asrwt>
<pdfrwt beam="1">  1       21 0.21315965E-02 0.12500000E+03</pdfrwt>
<pdfrwt beam="2">  1       21 0.43373885E-01 0.12500000E+03</pdfrwt>
<totfact> 0.55808232E+06</totfact>
</mgrwt>
</event>
<event>
 3    1  0.1619206E-001  0.1250000E+03  0.7546771E-02  0.1235069E+00
         21   -1    0    0  502  501  0.00000000000E+00  0.00000000000E+00  0.85664007110E+02  0.85664007110E+02  0.00000000000E+00 0.  1.
         21   -1    0    0  501  502 -0.00000000000E+00 -0.00000000000E+00 -0.45599664688E+02  0.45599664688E+02  0.00000000000E+00 0.  1.
         25    1    1    2    0    0  0.00000000000E+00  0.00000000000E+00  0.40064342422E+02  0.13126367180E+03  0.12500000000E+03 0.  0.
<mgrwt>
<rscale>  0 0.12500000E+03</rscale>
<asrwt>0</asrwt>
<pdfrwt beam="1">  1       21 0.13179078E-01 0.12500000E+03</pdfrwt>
<pdfrwt beam="2">  1       21 0.70153331E-02 0.12500000E+03</pdfrwt>
<totfact> 0.73195161E+06</totfact>
</mgrwt>
</event>
<event>
 3    1  0.1619206E-001  0.1250000E+03  0.7546771E-02  0.1235069E+00
         21   -1    0    0  502  501  0.00000000000E+00  0.00000000000E+00  0.72178907648E+01  0.72178907648E+01  0.00000000000E+00 0.  1.
         21   -1    0    0  501  502 -0.00000000000E+00 -0.00000000000E+00 -0.54118995802E+03  0.54118995802E+03  0.00000000000E+00 0.  1.
         25    1    1    2    0    0  0.00000000000E+00  0.00000000000E+00 -0.53397206725E+03  0.54840784878E+03  0.12500000000E+03 0.  0.
<mgrwt>
<rscale>  0 0.12500000E+03</rscale>
<asrwt>0</asrwt>
<pdfrwt beam="1">  1       21 0.11104441E-02 0.12500000E+03</pdfrwt>
<pdfrwt beam="2">  1       21 0.83260041E-01 0.12500000E+03</pdfrwt>
<totfact> 0.39534845E+06</totfact>
</mgrwt>
</event>
<event>
 3    1  0.1619206E-001  0.1250000E+03  0.7546771E-02  0.1235069E+00
         21   -1    0    0  502  501  0.00000000000E+00  0.00000000000E+00  0.10080071947E+03  0.10080071947E+03  0.00000000000E+00 0.  1.
         21   -1    0    0  501  502 -0.00000000000E+00 -0.00000000000E+00 -0.38752203559E+02  0.38752203559E+02  0.00000000000E+00 0.  1.
         25    1    1    2    0    0  0.00000000000E+00  0.00000000000E+00  0.62048515916E+02  0.13955292303E+03  0.12500000000E+03 0.  0.
<mgrwt>
<rscale>  0 0.12500000E+03</rscale>
<asrwt>0</asrwt>
<pdfrwt beam="1">  1       21 0.15507803E-01 0.12500000E+03</pdfrwt>
<pdfrwt beam="2">  1       21 0.59618775E-02 0.12500000E+03</pdfrwt>
<totfact> 0.72097727E+06</totfact>
</mgrwt>
</event>
<event>
 3    1  0.1619206E-001  0.1250000E+03  0.7546771E-02  0.1235069E+00
         21   -1    0    0  502  501  0.00000000000E+00  0.00000000000E+00  0.83949480004E+01  0.83949480004E+01  0.00000000000E+00 0.  1.
         21   -1    0    0  501  502 -0.00000000000E+00 -0.00000000000E+00 -0.46530961238E+03  0.46530961238E+03  0.00000000000E+00 0.  1.
         25    1    1    2    0    0  0.00000000000E+00  0.00000000000E+00 -0.45691466438E+03  0.47370456038E+03  0.12500000000E+03 0.  0.
<mgrwt>
<rscale>  0 0.12500000E+03</rscale>
<asrwt>0</asrwt>
<pdfrwt beam="1">  1       21 0.12915304E-02 0.12500000E+03</pdfrwt>
<pdfrwt beam="2">  1       21 0.71586095E-01 0.12500000E+03</pdfrwt>
<totfact> 0.43506997E+06</totfact>
</mgrwt>
</event>
<event>
 3    1  0.1619206E-001  0.1250000E+03  0.7546771E-02  0.1235069E+00
         21   -1    0    0  502  501  0.00000000000E+00  0.00000000000E+00  0.12864252841E+02  0.12864252841E+02  0.00000000000E+00 0.  1.
         21   -1    0    0  501  502 -0.00000000000E+00 -0.00000000000E+00 -0.30365152553E+03  0.30365152553E+03  0.00000000000E+00 0.  1.
         25    1    1    2    0    0  0.00000000000E+00  0.00000000000E+00 -0.29078727269E+03  0.31651577837E+03  0.12500000000E+03 0.  0.
<mgrwt>
<rscale>  0 0.12500000E+03</rscale>
<asrwt>0</asrwt>
<pdfrwt beam="1">  1       21 0.19791160E-02 0.12500000E+03</pdfrwt>
<pdfrwt beam="2">  1       21 0.46715615E-01 0.12500000E+03</pdfrwt>
<totfact> 0.54110612E+06</totfact>
</mgrwt>
</event>
<event>
 3    1  0.1619206E-001  0.1250000E+03  0.7546771E-02  0.1235069E+00
         21   -1    0    0  502  501  0.00000000000E+00  0.00000000000E+00  0.40275558471E+03  0.40275558471E+03  0.00000000000E+00 0.  1.
         21   -1    0    0  501  502 -0.00000000000E+00 -0.00000000000E+00 -0.96988102668E+01  0.96988102668E+01  0.00000000000E+00 0.  1.
         25    1    1    2    0    0  0.00000000000E+00  0.00000000000E+00  0.39305677444E+03  0.41245439498E+03  0.12500000000E+03 0.  0.
<mgrwt>
<rscale>  0 0.12500000E+03</rscale>
<asrwt>0</asrwt>
<pdfrwt beam="1">  1       21 0.61962385E-01 0.12500000E+03</pdfrwt>
<pdfrwt beam="2">  1       21 0.14921250E-02 0.12500000E+03</pdfrwt>
<totfact> 0.47226094E+06</totfact>
</mgrwt>
</event>
<event>
 3    1  0.1619206E-001  0.1250000E+03  0.7546771E-02  0.1235069E+00
         21   -1    0    0  502  501  0.00000000000E+00  0.00000000000E+00  0.23005167487E+03  0.23005167487E+03  0.00000000000E+00 0.  1.
         21   -1    0    0  501  502 -0.00000000000E+00 -0.00000000000E+00 -0.16979880725E+02  0.16979880725E+02  0.00000000000E+00 0.  1.
         25    1    1    2    0    0  0.00000000000E+00  0.00000000000E+00  0.21307179415E+03  0.24703155560E+03  0.12500000000E+03 0.  0.
<mgrwt>
<rscale>  0 0.12500000E+03</rscale>
<asrwt>0</asrwt>
<pdfrwt beam="1">  1       21 0.35392563E-01 0.12500000E+03</pdfrwt>
<pdfrwt beam="2">  1       21 0.26122895E-02 0.12500000E+03</pdfrwt>
<totfact> 0.60158796E+06</totfact>
</mgrwt>
</event>
<event>
 3    1  0.1619206E-001  0.1250000E+03  0.7546771E-02  0.1235069E+00
         21   -1    0    0  502  501  0.00000000000E+00  0.00000000000E+00  0.97141283723E+02  0.97141283723E+02  0.00000000000E+00 0. -1.
         21   -1    0    0  501  502 -0.00000000000E+00 -0.00000000000E+00 -0.40212048372E+02  0.40212048372E+02  0.00000000000E+00 0. -1.
         25    1    1    2    0    0  0.00000000000E+00  0.00000000000E+00  0.56929235351E+02  0.13735333210E+03  0.12500000000E+03 0.  0.
<mgrwt>
<rscale>  0 0.12500000E+03</rscale>
<asrwt>0</asrwt>
<pdfrwt beam="1">  1       21 0.14944813E-01 0.12500000E+03</pdfrwt>
<pdfrwt beam="2">  1       21 0.61864690E-02 0.12500000E+03</pdfrwt>
<totfact> 0.72386349E+06</totfact>
</mgrwt>
</event>
<event>
 3    1  0.1619206E-001  0.1250000E+03  0.7546771E-02  0.1235069E+00
         21   -1    0    0  502  501  0.00000000000E+00  0.00000000000E+00  0.77764759779E+01  0.77764759779E+01  0.00000000000E+00 0.  1.
         21   -1    0    0  501  502 -0.00000000000E+00 -0.00000000000E+00 -0.50231621766E+03  0.50231621766E+03  0.00000000000E+00 0.  1.
         25    1    1    2    0    0  0.00000000000E+00  0.00000000000E+00 -0.49453974169E+03  0.51009269364E+03  0.12500000000E+03 0.  0.
<mgrwt>
<rscale>  0 0.12500000E+03</rscale>
<asrwt>0</asrwt>
<pdfrwt beam="1">  1       21 0.11963812E-02 0.12500000E+03</pdfrwt>
<pdfrwt beam="2">  1       21 0.77279400E-01 0.12500000E+03</pdfrwt>
<totfact> 0.41501964E+06</totfact>
</mgrwt>
</event>
<event>
 3    1  0.1619206E-001  0.1250000E+03  0.7546771E-02  0.1235069E+00
         21   -1    0    0  502  501  0.00000000000E+00  0.00000000000E+00  0.63633156662E+03  0.63633156662E+03  0.00000000000E+00 0.  1.
         21   -1    0    0  501  502 -0.00000000000E+00 -0.00000000000E+00 -0.61387022190E+01  0.61387022190E+01  0.00000000000E+00 0.  1.
         25    1    1    2    0    0  0.00000000000E+00  0.00000000000E+00  0.63019286440E+03  0.64247026883E+03  0.12500000000E+03 0.  0.
<mgrwt>
<rscale>  0 0.12500000E+03</rscale>
<asrwt>0</asrwt>
<pdfrwt beam="1">  1       21 0.97897112E-01 0.12500000E+03</pdfrwt>
<pdfrwt beam="2">  1       21 0.94441623E-03 0.12500000E+03</pdfrwt>
<totfact> 0.35239654E+06</totfact>
</mgrwt>
</event>
<event>
 3    1  0.1619206E-001  0.1250000E+03  0.7546771E-02  0.1235069E+00
         21   -1    0    0  502  501  0.00000000000E+00  0.00000000000E+00  0.29890350925E+02  0.29890350925E+02  0.00000000000E+00 0. -1.
         21   -1    0    0  501  502 -0.00000000000E+00 -0.00000000000E+00 -0.13068598659E+03  0.13068598659E+03  0.00000000000E+00 0. -1.
         25    1    1    2    0    0  0.00000000000E+00  0.00000000000E+00 -0.10079563566E+03  0.16057633751E+03  0.12500000000E+03 0.  0.
<mgrwt>
<rscale>  0 0.12500000E+03</rscale>
<asrwt>0</asrwt>
<pdfrwt beam="1">  1       21 0.45985155E-02 0.12500000E+03</pdfrwt>
<pdfrwt beam="2">  1       21 0.20105536E-01 0.12500000E+03</pdfrwt>
<totfact> 0.69449142E+06</totfact>
</mgrwt>
</event>
<event>
 3    1  0.1619206E-001  0.1250000E+03  0.7546771E-02  0.1235069E+00
         21   -1    0    0  502  501  0.00000000000E+00  0.00000000000E+00  0.15851175119E+02  0.15851175119E+02  0.00000000000E+00 0.  1.
         21   -1    0    0  501  502 -0.00000000000E+00 -0.00000000000E+00 -0.24643283358E+03  0.24643283358E+03  0.00000000000E+00 0.  1.
         25    1    1    2    0    0  0.00000000000E+00  0.00000000000E+00 -0.23058165846E+03  0.26228400870E+03  0.12500000000E+03 0.  0.
<mgrwt>
<rscale>  0 0.12500000E+03</rscale>
<asrwt>0</asrwt>
<pdfrwt beam="1">  1       21 0.24386424E-02 0.12500000E+03</pdfrwt>
<pdfrwt beam="2">  1       21 0.37912743E-01 0.12500000E+03</pdfrwt>
<totfact> 0.58740560E+06</totfact>
</mgrwt>
</event>
<event>
 3    1  0.1619206E-001  0.1250000E+03  0.7546771E-02  0.1235069E+00
         21   -1    0    0  502  501  0.00000000000E+00  0.00000000000E+00  0.52740523943E+02  0.52740523943E+02  0.00000000000E+00 0. -1.
         21   -1    0    0  501  502 -0.00000000000E+00 -0.00000000000E+00 -0.74065437882E+02  0.74065437882E+02  0.00000000000E+00 0. -1.
         25    1    1    2    0    0  0.00000000000E+00  0.00000000000E+00 -0.21324913939E+02  0.12680596183E+03  0.12500000000E+03 0.  0.
<mgrwt>
<rscale>  0 0.12500000E+03</rscale>
<asrwt>0</asrwt>
<pdfrwt beam="1">  1       21 0.81139268E-02 0.12500000E+03</pdfrwt>
<pdfrwt beam="2">  1       21 0.11394683E-01 0.12500000E+03</pdfrwt>
<totfact> 0.73795575E+06</totfact>
</mgrwt>
</event>
<event>
 3    1  0.1619206E-001  0.1250000E+03  0.7546771E-02  0.1235069E+00
         21   -1    0    0  502  501  0.00000000000E+00  0.00000000000E+00  0.36068456320E+02  0.36068456320E+02  0.00000000000E+00 0.  1.
         21   -1    0    0  501  502 -0.00000000000E+00 -0.00000000000E+00 -0.10830100311E+03  0.10830100311E+03  0.00000000000E+00 0.  1.
         25    1    1    2    0    0  0.00000000000E+00  0.00000000000E+00 -0.72232546789E+02  0.14436945943E+03  0.12500000000E+03 0.  0.
<mgrwt>
<rscale>  0 0.12500000E+03</rscale>
<asrwt>0</asrwt>
<pdfrwt beam="1">  1       21 0.55489934E-02 0.12500000E+03</pdfrwt>
<pdfrwt beam="2">  1       21 0.16661692E-01 0.12500000E+03</pdfrwt>
<totfact> 0.71473890E+06</totfact>
</mgrwt>
</event>
<event>
 3    1  0.1619206E-001  0.1250000E+03  0.7546771E-02  0.1235069E+00
         21   -1    0    0  502  501  0.00000000000E+00  0.00000000000E+00  0.34042353075E+03  0.34042353075E+03  0.00000000000E+00 0.  1.
         21   -1    0    0  501  502 -0.00000000000E+00 -0.00000000000E+00 -0.11474676828E+02  0.11474676828E+02  0.00000000000E+00 0.  1.
         25    1    1    2    0    0  0.00000000000E+00  0.00000000000E+00  0.32894885392E+03  0.35189820758E+03  0.12500000000E+03 0.  0.
<mgrwt>
<rscale>  0 0.12500000E+03</rscale>
<asrwt>0</asrwt>
<pdfrwt beam="1">  1       21 0.52372843E-01 0.12500000E+03</pdfrwt>
<pdfrwt beam="2">  1       21 0.17653352E-02 0.12500000E+03</pdfrwt>
<totfact> 0.51398552E+06</totfact>
</mgrwt>
</event>
<event>
 3    1  0.1619206E-001  0.1250000E+03  0.7546771E-02  0.1235069E+00
         21   -1    0    0  502  501  0.00000000000E+00  0.00000000000E+00  0.53399324405E+02  0.53399324405E+02  0.00000000000E+00 0. -1.
         21   -1    0    0  501  502 -0.00000000000E+00 -0.00000000000E+00 -0.73151674548E+02  0.73151674548E+02  0.00000000000E+00 0. -1.
         25    1    1    2    0    0  0.00000000000E+00  0.00000000000E+00 -0.19752350143E+02  0.12655099895E+03  0.12500000000E+03 0.  0.
<mgrwt>
<rscale>  0 0.12500000E+03</rscale>
<asrwt>0</asrwt>
<pdfrwt beam="1">  1       21 0.82152807E-02 0.12500000E+03</pdfrwt>
<pdfrwt beam="2">  1       21 0.11254104E-01 0.12500000E+03</pdfrwt>
<totfact> 0.73830396E+06</totfact>
</mgrwt>
</event>
<event>
 3    1  0.1619206E-001  0.1250000E+03  0.7546771E-02  0.1235069E+00
         21   -1    0    0  502  501  0.00000000000E+00  0.00000000000E+00  0.27510289731E+03  0.27510289731E+03  0.00000000000E+00 0.  1.
         21   -1    0    0  501  502 -0.00000000000E+00 -0.00000000000E+00 -0.14199232499E+02  0.14199232499E+02  0.00000000000E+00 0.  1.
         25    1    1    2    0    0  0.00000000000E+00  0.00000000000E+00  0.26090366481E+03  0.28930212981E+03  0.12500000000E+03 0.  0.
<mgrwt>
<rscale>  0 0.12500000E+03</rscale>
<asrwt>0</asrwt>
<pdfrwt beam="1">  1       21 0.42323519E-01 0.12500000E+03</pdfrwt>
<pdfrwt beam="2">  1       21 0.21844975E-02 0.12500000E+03</pdfrwt>
<totfact> 0.56357095E+06</totfact>
</mgrwt>
</event>
<event>
 3    1  0.1619206E-001  0.1250000E+03  0.7546771E-02  0.1235069E+00
         21   -1    0    0  502  501  0.00000000000E+00  0.00000000000E+00  0.22729001448E+03  0.22729001448E+03  0.00000000000E+00 0.  1.
         21   -1    0    0  501  502 -0.00000000000E+00 -0.00000000000E+00 -0.17186192754E+02  0.17186192754E+02  0.00000000000E+00 0.  1.
         25    1    1    2    0    0  0.00000000000E+00  0.00000000000E+00  0.21010382173E+03  0.24447620724E+03  0.12500000000E+03 0.  0.
<mgrwt>
<rscale>  0 0.12500000E+03</rscale>
<asrwt>0</asrwt>
<pdfrwt beam="1">  1       21 0.34967692E-01 0.12500000E+03</pdfrwt>
<pdfrwt beam="2">  1       21 0.26440298E-02 0.12500000E+03</pdfrwt>
<totfact> 0.60402181E+06</totfact>
</mgrwt>
</event>
<event>
 3    1  0.1619206E-001  0.1250000E+03  0.7546771E-02  0.1235069E+00
         21   -1    0    0  502  501  0.00000000000E+00  0.00000000000E+00  0.39887091327E+03  0.39887091327E+03  0.00000000000E+00 0. -1.
         21   -1    0    0  501  502 -0.00000000000E+00 -0.00000000000E+00 -0.97932686240E+01  0.97932686240E+01  0.00000000000E+00 0. -1.
         25    1    1    2    0    0  0.00000000000E+00  0.00000000000E+00  0.38907764465E+03  0.40866418190E+03  0.12500000000E+03 0.  0.
<mgrwt>
<rscale>  0 0.12500000E+03</rscale>
<asrwt>0</asrwt>
<pdfrwt beam="1">  1       21 0.61364743E-01 0.12500000E+03</pdfrwt>
<pdfrwt beam="2">  1       21 0.15066570E-02 0.12500000E+03</pdfrwt>
<totfact> 0.47471930E+06</totfact>
</mgrwt>
</event>
<event>
 3    1  0.1619206E-001  0.1250000E+03  0.7546771E-02  0.1235069E+00
         21   -1    0    0  502  501  0.00000000000E+00  0.00000000000E+00  0.21348912283E+03  0.21348912283E+03  0.00000000000E+00 0. -1.
         21   -1    0    0  501  502 -0.00000000000E+00 -0.00000000000E+00 -0.18297185113E+02  0.18297185113E+02  0.00000000000E+00 0. -1.
         25    1    1    2    0    0  0.00000000000E+00  0.00000000000E+00  0.19519193771E+03  0.23178630794E+03  0.12500000000E+03 0.  0.
<mgrwt>
<rscale>  0 0.12500000E+03</rscale>
<asrwt>0</asrwt>
<pdfrwt beam="1">  1       21 0.32844479E-01 0.12500000E+03</pdfrwt>
<pdfrwt beam="2">  1       21 0.28149517E-02 0.12500000E+03</pdfrwt>
<totfact> 0.61636659E+06</totfact>
</mgrwt>
</event>
<event>
 3    1  0.1619206E-001  0.1250000E+03  0.7546771E-02  0.1235069E+00
         21   -1    0    0  502  501  0.00000000000E+00  0.00000000000E+00  0.21632223059E+03  0.21632223059E+03  0.00000000000E+00 0.  1.
         21   -1    0    0  501  502 -0.00000000000E+00 -0.00000000000E+00 -0.18057552335E+02  0.18057552335E+02  0.00000000000E+00 0.  1.
         25    1    1    2    0    0  0.00000000000E+00  0.00000000000E+00  0.19826467825E+03  0.23437978292E+03  0.12500000000E+03 0.  0.
<mgrwt>
<rscale>  0 0.12500000E+03</rscale>
<asrwt>0</asrwt>
<pdfrwt beam="1">  1       21 0.33280341E-01 0.12500000E+03</pdfrwt>
<pdfrwt beam="2">  1       21 0.27780851E-02 0.12500000E+03</pdfrwt>
<totfact> 0.61380797E+06</totfact>
</mgrwt>
</event>
<event>
 3    1  0.1619206E-001  0.1250000E+03  0.7546771E-02  0.1235069E+00
         21   -1    0    0  502  501  0.00000000000E+00  0.00000000000E+00  0.10022715758E+03  0.10022715758E+03  0.00000000000E+00 0. -1.
         21   -1    0    0  501  502 -0.00000000000E+00 -0.00000000000E+00 -0.38973967680E+02  0.38973967680E+02  0.00000000000E+00 0. -1.
         25    1    1    2    0    0  0.00000000000E+00  0.00000000000E+00  0.61253189895E+02  0.13920112526E+03  0.12500000000E+03 0.  0.
<mgrwt>
<rscale>  0 0.12500000E+03</rscale>
<asrwt>0</asrwt>
<pdfrwt beam="1">  1       21 0.15419563E-01 0.12500000E+03</pdfrwt>
<pdfrwt beam="2">  1       21 0.59959951E-02 0.12500000E+03</pdfrwt>
<totfact> 0.72143772E+06</totfact>
</mgrwt>
</event>
<event>
 3    1  0.1619206E-001  0.1250000E+03  0.7546771E-02  0.1235069E+00
         21   -1    0    0  502  501  0.00000000000E+00  0.00000000000E+00  0.46851684012E+03  0.46851684012E+03  0.00000000000E+00 0.  1.
         21   -1    0    0  501  502 -0.00000000000E+00 -0.00000000000E+00 -0.83374804606E+01  0.83374804606E+01  0.00000000000E+00 0.  1.
         25    1    1    2    0    0  0.00000000000E+00  0.00000000000E+00  0.46017935966E+03  0.47685432059E+03  0.12500000000E+03 0.  0.
<mgrwt>
<rscale>  0 0.12500000E+03</rscale>
<asrwt>0</asrwt>
<pdfrwt beam="1">  1       21 0.72079493E-01 0.12500000E+03</pdfrwt>
<pdfrwt beam="2">  1       21 0.12826897E-02 0.12500000E+03</pdfrwt>
<totfact> 0.43327792E+06</totfact>
</mgrwt>
</event>
<event>
 3    1  0.1619206E-001  0.1250000E+03  0.7546771E-02  0.1235069E+00
         21   -1    0    0  502  501  0.00000000000E+00  0.00000000000E+00  0.50814383559E+02  0.50814383559E+02  0.00000000000E+00 0.  1.
         21   -1    0    0  501  502 -0.00000000000E+00 -0.00000000000E+00 -0.76872919170E+02  0.76872919170E+02  0.00000000000E+00 0.  1.
         25    1    1    2    0    0  0.00000000000E+00  0.00000000000E+00 -0.26058535611E+02  0.12768730273E+03  0.12500000000E+03 0.  0.
<mgrwt>
<rscale>  0 0.12500000E+03</rscale>
<asrwt>0</asrwt>
<pdfrwt beam="1">  1       21 0.78175975E-02 0.12500000E+03</pdfrwt>
<pdfrwt beam="2">  1       21 0.11826603E-01 0.12500000E+03</pdfrwt>
<totfact> 0.73675845E+06</totfact>
</mgrwt>
</event>
<event>
 3    1  0.1619206E-001  0.1250000E+03  0.7546771E-02  0.1235069E+00
         21   -1    0    0  502  501  0.00000000000E+00  0.00000000000E+00  0.39386904572E+02  0.39386904572E+02  0.00000000000E+00 0.  1.
         21   -1    0    0  501  502 -0.00000000000E+00 -0.00000000000E+00 -0.99176364388E+02  0.99176364388E+02  0.00000000000E+00 0.  1.
         25    1    1    2    0    0  0.00000000000E+00  0.00000000000E+00 -0.59789459816E+02  0.13856326896E+03  0.12500000000E+03 0.  0.
<mgrwt>
<rscale>  0 0.12500000E+03</rscale>
<asrwt>0</asrwt>
<pdfrwt beam="1">  1       21 0.60595239E-02 0.12500000E+03</pdfrwt>
<pdfrwt beam="2">  1       21 0.15257902E-01 0.12500000E+03</pdfrwt>
<totfact> 0.72227430E+06</totfact>
</mgrwt>
</event>
<event>
 3    1  0.1619206E-001  0.1250000E+03  0.7546771E-02  0.1235069E+00
         21   -1    0    0  502  501  0.00000000000E+00  0.00000000000E+00  0.59317694553E+02  0.59317694553E+02  0.00000000000E+00 0.  1.
         21   -1    0    0  501  502 -0.00000000000E+00 -0.00000000000E+00 -0.65853031366E+02  0.65853031366E+02  0.00000000000E+00 0.  1.
         25    1    1    2    0    0  0.00000000000E+00  0.00000000000E+00 -0.65353368128E+01  0.12517072592E+03  0.12500000000E+03 0.  0.
<mgrwt>
<rscale>  0 0.12500000E+03</rscale>
<asrwt>0</asrwt>
<pdfrwt beam="1">  1       21 0.91257992E-02 0.12500000E+03</pdfrwt>
<pdfrwt beam="2">  1       21 0.10131236E-01 0.12500000E+03</pdfrwt>
<totfact> 0.74020525E+06</totfact>
</mgrwt>
</event>
<event>
 3    1  0.1619206E-001  0.1250000E+03  0.7546771E-02  0.1235069E+00
         21   -1    0    0  502  501  0.00000000000E+00  0.00000000000E+00  0.21982182960E+03  0.21982182960E+03  0.00000000000E+00 0. -1.
         21   -1    0    0  501  502 -0.00000000000E+00 -0.00000000000E+00 -0.17770073187E+02  0.17770073187E+02  0.00000000000E+00 0. -1.
         25    1    1    2    0    0  0.00000000000E+00  0.00000000000E+00  0.20205175641E+03  0.23759190278E+03  0.12500000000E+03 0.  0.
<mgrwt>
<rscale>  0 0.12500000E+03</rscale>
<asrwt>0</asrwt>
<pdfrwt beam="1">  1       21 0.33818741E-01 0.12500000E+03</pdfrwt>
<pdfrwt beam="2">  1       21 0.27338576E-02 0.12500000E+03</pdfrwt>
<totfact> 0.61066471E+06</totfact>
</mgrwt>
</event>
<event>
 3    1  0.1619206E-001  0.1250000E+03  0.7546771E-02  0.1235069E+00
         21   -1    0    0  502  501  0.00000000000E+00  0.00000000000E+00  0.12117932986E+02  0.12117932986E+02  0.00000000000E+00 0.  1.
         21   -1    0    0  501  502 -0.00000000000E+00 -0.00000000000E+00 -0.32235283069E+03  0.32235283069E+03  0.00000000000E+00 0.  1.
         25    1    1    2    0    0  0.00000000000E+00  0.00000000000E+00 -0.31023489770E+03  0.33447076368E+03  0.12500000000E+03 0.  0.
<mgrwt>
<rscale>  0 0.12500000E+03</rscale>
<asrwt>0</asrwt>
<pdfrwt beam="1">  1       21 0.18642974E-02 0.12500000E+03</pdfrwt>
<pdfrwt beam="2">  1       21 0.49592743E-01 0.12500000E+03</pdfrwt>
<totfact> 0.52706168E+06</totfact>
</mgrwt>
</event>
<event>
 3    1  0.1619206E-001  0.1250000E+03  0.7546771E-02  0.1235069E+00
         21   -1    0    0  502  501  0.00000000000E+00  0.00000000000E+00  0.79284241037E+01  0.79284241037E+01  0.00000000000E+00 0. -1.
         21   -1    0    0  501  502 -0.00000000000E+00 -0.00000000000E+00 -0.49268933510E+03  0.49268933510E+03  0.00000000000E+00 0. -1.
         25    1    1    2    0    0  0.00000000000E+00  0.00000000000E+00 -0.48476091099E+03  0.50061775920E+03  0.12500000000E+03 0.  0.
<mgrwt>
<rscale>  0 0.12500000E+03</rscale>
<asrwt>0</asrwt>
<pdfrwt beam="1">  1       21 0.12197574E-02 0.12500000E+03</pdfrwt>
<pdfrwt beam="2">  1       21 0.75798369E-01 0.12500000E+03</pdfrwt>
<totfact> 0.42010584E+06</totfact>
</mgrwt>
</event>
<event>
 3    1  0.1619206E-001  0.1250000E+03  0.7546771E-02  0.1235069E+00
         21   -1    0    0  502  501  0.00000000000E+00  0.00000000000E+00  0.92972757633E+02  0.92972757633E+02  0.00000000000E+00 0.  1.
         21   -1    0    0  501  502 -0.00000000000E+00 -0.00000000000E+00 -0.42014995569E+02  0.42014995569E+02  0.00000000000E+00 0.  1.
         25    1    1    2    0    0  0.00000000000E+00  0.00000000000E+00  0.50957762064E+02  0.13498775320E+03  0.12500000000E+03 0.  0.
<mgrwt>
<rscale>  0 0.12500000E+03</rscale>
<asrwt>0</asrwt>
<pdfrwt beam="1">  1       21 0.14303501E-01 0.12500000E+03</pdfrwt>
<pdfrwt beam="2">  1       21 0.64638455E-02 0.12500000E+03</pdfrwt>
<totfact> 0.72698093E+06</totfact>
</mgrwt>
</event>
<event>
 3    1  0.1619206E-001  0.1250000E+03  0.7546771E-02  0.1235069E+00
         21   -1    0    0  502  501  0.00000000000E+00  0.00000000000E+00  0.94366330997E+02  0.94366330997E+02  0.00000000000E+00 0.  1.
         21   -1    0    0  501  502 -0.00000000000E+00 -0.00000000000E+00 -0.41394530854E+02  0.41394530854E+02  0.00000000000E+00 0.  1.
         25    1    1    2    0    0  0.00000000000E+00  0.00000000000E+00  0.52971800143E+02  0.13576086185E+03  0.12500000000E+03 0.  0.
<mgrwt>
<rscale>  0 0.12500000E+03</rscale>
<asrwt>0</asrwt>
<pdfrwt beam="1">  1       21 0.14517897E-01 0.12500000E+03</pdfrwt>
<pdfrwt beam="2">  1       21 0.63683894E-02 0.12500000E+03</pdfrwt>
<totfact> 0.72595885E+06</totfact>
</mgrwt>
</event>
<event>
 3    1  0.1619206E-001  0.1250000E+03  0.7546771E-02  0.1235069E+00
         21   -1    0    0  502  501  0.00000000000E+00  0.00000000000E+00  0.24933984747E+02  0.24933984747E+02  0.00000000000E+00 0. -1.
         21   -1    0    0  501  502 -0.00000000000E+00 -0.00000000000E+00 -0.15666368772E+03  0.15666368772E+03  0.00000000000E+00 0. -1.
         25    1    1    2    0    0  0.00000000000E+00  0.00000000000E+00 -0.13172970298E+03  0.18159767247E+03  0.12500000000E+03 0.  0.
<mgrwt>
<rscale>  0 0.12500000E+03</rscale>
<asrwt>0</asrwt>
<pdfrwt beam="1">  1       21 0.38359977E-02 0.12500000E+03</pdfrwt>
<pdfrwt beam="2">  1       21 0.24102105E-01 0.12500000E+03</pdfrwt>
<totfact> 0.66968728E+06</totfact>
</mgrwt>
</event>
<event>
 3    1  0.1619206E-001  0.1250000E+03  0.7546771E-02  0.1235069E+00
         21   -1    0    0  502  501  0.00000000000E+00  0.00000000000E+00  0.22308525465E+01  0.22308525465E+01  0.00000000000E+00 0. -1.
         21   -1    0    0  501  502 -0.00000000000E+00 -0.00000000000E+00 -0.17510121887E+04  0.17510121887E+04  0.00000000000E+00 0. -1.
         25    1    1    2    0    0  0.00000000000E+00  0.00000000000E+00 -0.17487813361E+04  0.17532430412E+04  0.12500000000E+03 0.  0.
<mgrwt>
<rscale>  0 0.12500000E+03</rscale>
<asrwt>0</asrwt>
<pdfrwt beam="1">  1       21 0.34320660E-03 0.12500000E+03</pdfrwt>
<pdfrwt beam="2">  1       21 0.26938766E+00 0.12500000E+03</pdfrwt>
<totfact> 0.10618581E+06</totfact>
</mgrwt>
</event>
<event>
 3    1  0.1619206E-001  0.1250000E+03  0.7546771E-02  0.1235069E+00
         21   -1    0    0  502  501  0.00000000000E+00  0.00000000000E+00  0.71274467261E+01  0.71274467261E+01  0.00000000000E+00 0.  1.
         21   -1    0    0  501  502 -0.00000000000E+00 -0.00000000000E+00 -0.54805741104E+03  0.54805741104E+03  0.00000000000E+00 0.  1.
         25    1    1    2    0    0  0.00000000000E+00  0.00000000000E+00 -0.54092996431E+03  0.55518485776E+03  0.12500000000E+03 0.  0.
<mgrwt>
<rscale>  0 0.12500000E+03</rscale>
<asrwt>0</asrwt>
<pdfrwt beam="1">  1       21 0.10965302E-02 0.12500000E+03</pdfrwt>
<pdfrwt beam="2">  1       21 0.84316533E-01 0.12500000E+03</pdfrwt>
<totfact> 0.39201082E+06</totfact>
</mgrwt>
</event>
<event>
 3    1  0.1619206E-001  0.1250000E+03  0.7546771E-02  0.1235069E+00
         21   -1    0    0  502  501  0.00000000000E+00  0.00000000000E+00  0.11866212045E+03  0.11866212045E+03  0.00000000000E+00 0.  1.
         21   -1    0    0  501  502 -0.00000000000E+00 -0.00000000000E+00 -0.32919098236E+02  0.32919098236E+02  0.00000000000E+00 0.  1.
         25    1    1    2    0    0  0.00000000000E+00  0.00000000000E+00  0.85743022216E+02  0.15158121869E+03  0.12500000000E+03 0.  0.
<mgrwt>
<rscale>  0 0.12500000E+03</rscale>
<asrwt>0</asrwt>
<pdfrwt beam="1">  1       21 0.18255711E-01 0.12500000E+03</pdfrwt>
<pdfrwt beam="2">  1       21 0.50644767E-02 0.12500000E+03</pdfrwt>
<totfact> 0.70561132E+06</totfact>
</mgrwt>
</event>
<event>
 3    1  0.1619206E-001  0.1250000E+03  0.7546771E-02  0.1235069E+00
         21   -1    0    0  502  501  0.00000000000E+00  0.00000000000E+00  0.40896228558E+01  0.40896228558E+01  0.00000000000E+00 0.  1.
         21   -1    0    0  501  502 -0.00000000000E+00 -0.00000000000E+00 -0.95516142630E+03  0.95516142630E+03  0.00000000000E+00 0.  1.
         25    1    1    2    0    0  0.00000000000E+00  0.00000000000E+00 -0.95107180344E+03  0.95925104915E+03  0.12500000000E+03 0.  0.
<mgrwt>
<rscale>  0 0.12500000E+03</rscale>
<asrwt>0</asrwt>
<pdfrwt beam="1">  1       21 0.62917311E-03 0.12500000E+03</pdfrwt>
<pdfrwt beam="2">  1       21 0.14694783E+00 0.12500000E+03</pdfrwt>
<totfact> 0.24665358E+06</totfact>
</mgrwt>
</event>
<event>
 3    1  0.1619206E-001  0.1250000E+03  0.7546771E-02  0.1235069E+00
         21   -1    0    0  502  501  0.00000000000E+00  0.00000000000E+00  0.17061899214E+03  0.17061899214E+03  0.00000000000E+00 0.  1.
         21   -1    0    0  501  502 -0.00000000000E+00 -0.00000000000E+00 -0.22894579033E+02  0.22894579033E+02  0.00000000000E+00 0.  1.
         25    1    1    2    0    0  0.00000000000E+00  0.00000000000E+00  0.14772441310E+03  0.19351357117E+03  0.12500000000E+03 0.  0.
<mgrwt>
<rscale>  0 0.12500000E+03</rscale>
<asrwt>0</asrwt>
<pdfrwt beam="1">  1       21 0.26249075E-01 0.12500000E+03</pdfrwt>
<pdfrwt beam="2">  1       21 0.35222430E-02 0.12500000E+03</pdfrwt>
<totfact> 0.65634076E+06</totfact>
</mgrwt>
</event>
<event>
 3    1  0.1619206E-001  0.1250000E+03  0.7546771E-02  0.1235069E+00
         21   -1    0    0  502  501  0.00000000000E+00  0.00000000000E+00  0.13168107086E+03  0.13168107086E+03  0.00000000000E+00 0.  1.
         21   -1    0    0  501  502 -0.00000000000E+00 -0.00000000000E+00 -0.29664476258E+02  0.29664476258E+02  0.00000000000E+00 0.  1.
         25    1    1    2    0    0  0.00000000000E+00  0.00000000000E+00  0.10201659460E+03  0.16134554711E+03  0.12500000000E+03 0.  0.
<mgrwt>
<rscale>  0 0.12500000E+03</rscale>
<asrwt>0</asrwt>
<pdfrwt beam="1">  1       21 0.20258626E-01 0.12500000E+03</pdfrwt>
<pdfrwt beam="2">  1       21 0.45637657E-02 0.12500000E+03</pdfrwt>
<totfact> 0.69355457E+06</totfact>
</mgrwt>
</event>
<event>
 3    1  0.1619206E-001  0.1250000E+03  0.7546771E-02  0.1235069E+00
         21   -1    0    0  502  501  0.00000000000E+00  0.00000000000E+00  0.92731617256E+02  0.92731617256E+02  0.00000000000E+00 0.  1.
         21   -1    0    0  501  502 -0.00000000000E+00 -0.00000000000E+00 -0.42124251853E+02  0.42124251853E+02  0.00000000000E+00 0.  1.
         25    1    1    2    0    0  0.00000000000E+00  0.00000000000E+00  0.50607365403E+02  0.13485586911E+03  0.12500000000E+03 0.  0.
<mgrwt>
<rscale>  0 0.12500000E+03</rscale>
<asrwt>0</asrwt>
<pdfrwt beam="1">  1       21 0.14266403E-01 0.12500000E+03</pdfrwt>
<pdfrwt beam="2">  1       21 0.64806541E-02 0.12500000E+03</pdfrwt>
<totfact> 0.72715561E+06</totfact>
</mgrwt>
</event>
<event>
 3    1  0.1619206E-001  0.1250000E+03  0.7546771E-02  0.1235069E+00
         21   -1    0    0  502  501  0.00000000000E+00  0.00000000000E+00  0.36276362536E+01  0.36276362536E+01  0.00000000000E+00 0.  1.
         21   -1    0    0  501  502 -0.00000000000E+00 -0.00000000000E+00 -0.10768031101E+04  0.10768031101E+04  0.00000000000E+00 0.  1.
         25    1    1    2    0    0  0.00000000000E+00  0.00000000000E+00 -0.10731754738E+04  0.10804307463E+04  0.12500000000E+03 0.  0.
<mgrwt>
<rscale>  0 0.12500000E+03</rscale>
<asrwt>0</asrwt>
<pdfrwt beam="1">  1       21 0.55809785E-03 0.12500000E+03</pdfrwt>
<pdfrwt beam="2">  1       21 0.16566203E+00 0.12500000E+03</pdfrwt>
<totfact> 0.21691953E+06</totfact>
</mgrwt>
</event>
<event>
 3    1  0.1619206E-001  0.1250000E+03  0.7546771E-02  0.1235069E+00
         21   -1    0    0  502  501  0.00000000000E+00  0.00000000000E+00  0.34411256564E+02  0.34411256564E+02  0.00000000000E+00 0. -1.
         21   -1    0    0  501  502 -0.00000000000E+00 -0.00000000000E+00 -0.11351663351E+03  0.11351663351E+03  0.00000000000E+00 0. -1.
         25    1    1    2    0    0  0.00000000000E+00  0.00000000000E+00 -0.79105376946E+02  0.14792789007E+03  0.12500000000E+03 0.  0.
<mgrwt>
<rscale>  0 0.12500000E+03</rscale>
<asrwt>0</asrwt>
<pdfrwt beam="1">  1       21 0.52940393E-02 0.12500000E+03</pdfrwt>
<pdfrwt beam="2">  1       21 0.17464098E-01 0.12500000E+03</pdfrwt>
<totfact> 0.71020476E+06</totfact>
</mgrwt>
</event>
<event>
 3    1  0.1619206E-001  0.1250000E+03  0.7546771E-02  0.1235069E+00
         21   -1    0    0  502  501  0.00000000000E+00  0.00000000000E+00  0.10061735854E+02  0.10061735854E+02  0.00000000000E+00 0. -1.
         21   -1    0    0  501  502 -0.00000000000E+00 -0.00000000000E+00 -0.38822823981E+03  0.38822823981E+03  0.00000000000E+00 0. -1.
         25    1    1    2    0    0  0.00000000000E+00  0.00000000000E+00 -0.37816650396E+03  0.39828997567E+03  0.12500000000E+03 0.  0.
<mgrwt>
<rscale>  0 0.12500000E+03</rscale>
<asrwt>0</asrwt>
<pdfrwt beam="1">  1       21 0.15479594E-02 0.12500000E+03</pdfrwt>
<pdfrwt beam="2">  1       21 0.59727418E-01 0.12500000E+03</pdfrwt>
<totfact> 0.48154983E+06</totfact>
</mgrwt>
</event>
<event>
 3    1  0.1619206E-001  0.1250000E+03  0.7546771E-02  0.1235069E+00
         21   -1    0    0  502  501  0.00000000000E+00  0.00000000000E+00  0.85019359885E+02  0.85019359885E+02  0.00000000000E+00 0.  1.
         21   -1    0    0  501  502 -0.00000000000E+00 -0.00000000000E+00 -0.45945417670E+02  0.45945417670E+02  0.00000000000E+00 0.  1.
         25    1    1    2    0    0  0.00000000000E+00  0.00000000000E+00  0.39073942215E+02  0.13096477756E+03  0.12500000000E+03 0.  0.
<mgrwt>
<rscale>  0 0.12500000E+03</rscale>
<asrwt>0</asrwt>
<pdfrwt beam="1">  1       21 0.13079902E-01 0.12500000E+03</pdfrwt>
<pdfrwt beam="2">  1       21 0.70685258E-02 0.12500000E+03</pdfrwt>
<totfact> 0.73235418E+06</totfact>
</mgrwt>
</event>
<event>
 3    1  0.1619206E-001  0.1250000E+03  0.7546771E-02  0.1235069E+00
         21   -1    0    0  502  501  0.00000000000E+00  0.00000000000E+00  0.85650216125E+02  0.85650216125E+02  0.00000000000E+00 0.  1.
         21   -1    0    0  501  502 -0.00000000000E+00 -0.00000000000E+00 -0.45607006926E+02  0.45607006926E+02  0.00000000000E+00 0.  1.
         25    1    1    2    0    0  0.00000000000E+00  0.00000000000E+00  0.40043209200E+02  0.13125722305E+03  0.12500000000E+03 0.  0.
<mgrwt>
<rscale>  0 0.12500000E+03</rscale>
<asrwt>0</asrwt>
<pdfrwt beam="1">  1       21 0.13176956E-01 0.12500000E+03</pdfrwt>
<pdfrwt beam="2">  1       21 0.70164626E-02 0.12500000E+03</pdfrwt>
<totfact> 0.73196029E+06</totfact>
</mgrwt>
</event>
<event>
 3    1  0.1619206E-001  0.1250000E+03  0.7546771E-02  0.1235069E+00
         21   -1    0    0  502  501  0.00000000000E+00  0.00000000000E+00  0.85476761515E+02  0.85476761515E+02  0.00000000000E+00 0. -1.
         21   -1    0    0  501  502 -0.00000000000E+00 -0.00000000000E+00 -0.45699555420E+02  0.45699555420E+02  0.00000000000E+00 0. -1.
         25    1    1    2    0    0  0.00000000000E+00  0.00000000000E+00  0.39777206094E+02  0.13117631694E+03  0.12500000000E+03 0.  0.
<mgrwt>
<rscale>  0 0.12500000E+03</rscale>
<asrwt>0</asrwt>
<pdfrwt beam="1">  1       21 0.13150271E-01 0.12500000E+03</pdfrwt>
<pdfrwt beam="2">  1       21 0.70307009E-02 0.12500000E+03</pdfrwt>
<totfact> 0.73206921E+06</totfact>
</mgrwt>
</event>
<event>
 3    1  0.1619206E-001  0.1250000E+03  0.7546771E-02  0.1235069E+00
         21   -1    0    0  502  501  0.00000000000E+00  0.00000000000E+00  0.87286307630E+02  0.87286307630E+02  0.00000000000E+00 0.  1.
         21   -1    0    0  501  502 -0.00000000000E+00 -0.00000000000E+00 -0.44752150779E+02  0.44752150779E+02  0.00000000000E+00 0.  1.
         25    1    1    2    0    0  0.00000000000E+00  0.00000000000E+00  0.42534156851E+02  0.13203845841E+03  0.12500000000E+03 0.  0.
<mgrwt>
<rscale>  0 0.12500000E+03</rscale>
<asrwt>0</asrwt>
<pdfrwt beam="1">  1       21 0.13428663E-01 0.12500000E+03</pdfrwt>
<pdfrwt beam="2">  1       21 0.68849463E-02 0.12500000E+03</pdfrwt>
<totfact> 0.73091071E+06</totfact>
</mgrwt>
</event>
<event>
 3    1  0.1619206E-001  0.1250000E+03  0.7546771E-02  0.1235069E+00
         21   -1    0    0  502  501  0.00000000000E+00  0.00000000000E+00  0.69867626811E+02  0.69867626811E+02  0.00000000000E+00 0.  1.
         21   -1    0    0  501  502 -0.00000000000E+00 -0.00000000000E+00 -0.55909298459E+02  0.55909298459E+02  0.00000000000E+00 0.  1.
         25    1    1    2    0    0  0.00000000000E+00  0.00000000000E+00  0.13958328352E+02  0.12577692527E+03  0.12500000000E+03 0.  0.
<mgrwt>
<rscale>  0 0.12500000E+03</rscale>
<asrwt>0</asrwt>
<pdfrwt beam="1">  1       21 0.10748866E-01 0.12500000E+03</pdfrwt>
<pdfrwt beam="2">  1       21 0.86014306E-02 0.12500000E+03</pdfrwt>
<totfact> 0.73936868E+06</totfact>
</mgrwt>
</event>
<event>
 3    1  0.1619206E-001  0.1250000E+03  0.7546771E-02  0.1235069E+00
         21   -1    0    0  502  501  0.00000000000E+00  0.00000000000E+00  0.30630713532E+01  0.30630713532E+01  0.00000000000E+00 0.  1.
         21   -1    0    0  501  502 -0.00000000000E+00 -0.00000000000E+00 -0.12752722838E+04  0.12752722838E+04  0.00000000000E+00 0.  1.
         25    1    1    2    0    0  0.00000000000E+00  0.00000000000E+00 -0.12722092125E+04  0.12783353552E+04  0.12500000000E+03 0.  0.
<mgrwt>
<rscale>  0 0.12500000E+03</rscale>
<asrwt>0</asrwt>
<pdfrwt beam="1">  1       21 0.47124061E-03 0.12500000E+03</pdfrwt>
<pdfrwt beam="2">  1       21 0.19619621E+00 0.12500000E+03</pdfrwt>
<totfact> 0.17645825E+06</totfact>
</mgrwt>
</event>
<event>
 3    1  0.1619206E-001  0.1250000E+03  0.7546771E-02  0.1235069E+00
         21   -1    0    0  502  501  0.00000000000E+00  0.00000000000E+00  0.54935640935E+02  0.54935640935E+02  0.00000000000E+00 0. -1.
         21   -1    0    0  501  502 -0.00000000000E+00 -0.00000000000E+00 -0.71105932934E+02  0.71105932934E+02  0.00000000000E+00 0. -1.
         25    1    1    2    0    0  0.00000000000E+00  0.00000000000E+00 -0.16170291999E+02  0.12604157387E+03  0.12500000000E+03 0.  0.
<mgrwt>
<rscale>  0 0.12500000E+03</rscale>
<asrwt>0</asrwt>
<pdfrwt beam="1">  1       21 0.84516371E-02 0.12500000E+03</pdfrwt>
<pdfrwt beam="2">  1       21 0.10939374E-01 0.12500000E+03</pdfrwt>
<totfact> 0.73900308E+06</totfact>
</mgrwt>
</event>
<event>
 3    1  0.1619206E-001  0.1250000E+03  0.7546771E-02  0.1235069E+00
         21   -1    0    0  502  501  0.00000000000E+00  0.00000000000E+00  0.41029803141E+03  0.41029803141E+03  0.00000000000E+00 0.  1.
         21   -1    0    0  501  502 -0.00000000000E+00 -0.00000000000E+00 -0.95205185035E+01  0.95205185035E+01  0.00000000000E+00 0.  1.
         25    1    1    2    0    0  0.00000000000E+00  0.00000000000E+00  0.40077751291E+03  0.41981854992E+03  0.12500000000E+03 0.  0.
<mgrwt>
<rscale>  0 0.12500000E+03</rscale>
<asrwt>0</asrwt>
<pdfrwt beam="1">  1       21 0.63122760E-01 0.12500000E+03</pdfrwt>
<pdfrwt beam="2">  1       21 0.14646955E-02 0.12500000E+03</pdfrwt>
<totfact> 0.46754007E+06</totfact>
</mgrwt>
</event>
<event>
 3    1  0.1619206E-001  0.1250000E+03  0.7546771E-02  0.1235069E+00
         21   -1    0    0  502  501  0.00000000000E+00  0.00000000000E+00  0.18210945537E+02  0.18210945537E+02  0.00000000000E+00 0. -1.
         21   -1    0    0  501  502 -0.00000000000E+00 -0.00000000000E+00 -0.21450011983E+03  0.21450011983E+03  0.00000000000E+00 0. -1.
         25    1    1    2    0    0  0.00000000000E+00  0.00000000000E+00 -0.19628917429E+03  0.23271106537E+03  0.12500000000E+03 0.  0.
<mgrwt>
<rscale>  0 0.12500000E+03</rscale>
<asrwt>0</asrwt>
<pdfrwt beam="1">  1       21 0.28016838E-02 0.12500000E+03</pdfrwt>
<pdfrwt beam="2">  1       21 0.33000020E-01 0.12500000E+03</pdfrwt>
<totfact> 0.61545210E+06</totfact>
</mgrwt>
</event>
<event>
 3    1  0.1619206E-001  0.1250000E+03  0.7546771E-02  0.1235069E+00
         21   -1    0    0  502  501  0.00000000000E+00  0.00000000000E+00  0.38246828156E+02  0.38246828156E+02  0.00000000000E+00 0. -1.
         21   -1    0    0  501  502 -0.00000000000E+00 -0.00000000000E+00 -0.10213265226E+03  0.10213265226E+03  0.00000000000E+00 0. -1.
         25    1    1    2    0    0  0.00000000000E+00  0.00000000000E+00 -0.63885824102E+02  0.14037948041E+03  0.12500000000E+03 0.  0.
<mgrwt>
<rscale>  0 0.12500000E+03</rscale>
<asrwt>0</asrwt>
<pdfrwt beam="1">  1       21 0.58841275E-02 0.12500000E+03</pdfrwt>
<pdfrwt beam="2">  1       21 0.15712715E-01 0.12500000E+03</pdfrwt>
<totfact> 0.71989807E+06</totfact>
</mgrwt>
</event>
<event>
 3    1  0.1619206E-001  0.1250000E+03  0.7546771E-02  0.1235069E+00
         21   -1    0    0  502  501  0.00000000000E+00  0.00000000000E+00  0.31136492095E+02  0.31136492095E+02  0.00000000000E+00 0. -1.
         21   -1    0    0  501  502 -0.00000000000E+00 -0.00000000000E+00 -0.12545568679E+03  0.12545568679E+03  0.00000000000E+00 0. -1.
         25    1    1    2    0    0  0.00000000000E+00  0.00000000000E+00 -0.94319194693E+02  0.15659217888E+03  0.12500000000E+03 0.  0.
<mgrwt>
<rscale>  0 0.12500000E+03</rscale>
<asrwt>0</asrwt>
<pdfrwt beam="1">  1       21 0.47902295E-02 0.12500000E+03</pdfrwt>
<pdfrwt beam="2">  1       21 0.19300875E-01 0.12500000E+03</pdfrwt>
<totfact> 0.69938310E+06</totfact>
</mgrwt>
</event>
<event>
 3    1  0.1619206E-001  0.1250000E+03  0.7546771E-02  0.1235069E+00
         21   -1    0    0  502  501  0.00000000000E+00  0.00000000000E+00  0.59794535672E+03  0.59794535672E+03  0.00000000000E+00 0.  1.
         21   -1    0    0  501  502 -0.00000000000E+00 -0.00000000000E+00 -0.65327875801E+01  0.65327875801E+01  0.00000000000E+00 0.  1.
         25    1    1    2    0    0  0.00000000000E+00  0.00000000000E+00  0.59141256914E+03  0.60447814430E+03  0.12500000000E+03 0.  0.
<mgrwt>
<rscale>  0 0.12500000E+03</rscale>
<asrwt>0</asrwt>
<pdfrwt beam="1">  1       21 0.91991551E-01 0.12500000E+03</pdfrwt>
<pdfrwt beam="2">  1       21 0.10050447E-02 0.12500000E+03</pdfrwt>
<totfact> 0.36890905E+06</totfact>
</mgrwt>
</event>
<event>
 3    1  0.1619206E-001  0.1250000E+03  0.7546771E-02  0.1235069E+00
         21   -1    0    0  502  501  0.00000000000E+00  0.00000000000E+00  0.51869286151E+02  0.51869286151E+02  0.00000000000E+00 0.  1.
         21   -1    0    0  501  502 -0.00000000000E+00 -0.00000000000E+00 -0.75309499897E+02  0.75309499897E+02  0.00000000000E+00 0.  1.
         25    1    1    2    0    0  0.00000000000E+00  0.00000000000E+00 -0.23440213746E+02  0.12717878605E+03  0.12500000000E+03 0.  0.
<mgrwt>
<rscale>  0 0.12500000E+03</rscale>
<asrwt>0</asrwt>
<pdfrwt beam="1">  1       21 0.79798902E-02 0.12500000E+03</pdfrwt>
<pdfrwt beam="2">  1       21 0.11586077E-01 0.12500000E+03</pdfrwt>
<totfact> 0.73744818E+06</totfact>
</mgrwt>
</event>
<event>
 3    1  0.1619206E-001  0.1250000E+03  0.7546771E-02  0.1235069E+00
         21   -1    0    0  502  501  0.00000000000E+00  0.00000000000E+00  0.38463830522E+03  0.38463830522E+03  0.00000000000E+00 0.  1.
         21   -1    0    0  501  502 -0.00000000000E+00 -0.00000000000E+00 -0.10155644789E+02  0.10155644789E+02  0.00000000000E+00 0.  1.
         25    1    1    2    0    0  0.00000000000E+00  0.00000000000E+00  0.37448266043E+03  0.39479395001E+03  0.12500000000E+03 0.  0.
<mgrwt>
<rscale>  0 0.12500000E+03</rscale>
<asrwt>0</asrwt>
<pdfrwt beam="1">  1       21 0.59175113E-01 0.12500000E+03</pdfrwt>
<pdfrwt beam="2">  1       21 0.15624072E-02 0.12500000E+03</pdfrwt>
<totfact> 0.48388595E+06</totfact>
</mgrwt>
</event>
<event>
 3    1  0.1619206E-001  0.1250000E+03  0.7546771E-02  0.1235069E+00
         21   -1    0    0  502  501  0.00000000000E+00  0.00000000000E+00  0.26373523068E+03  0.26373523068E+03  0.00000000000E+00 0. -1.
         21   -1    0    0  501  502 -0.00000000000E+00 -0.00000000000E+00 -0.14811255932E+02  0.14811255932E+02  0.00000000000E+00 0. -1.
         25    1    1    2    0    0  0.00000000000E+00  0.00000000000E+00  0.24892397475E+03  0.27854648662E+03  0.12500000000E+03 0.  0.
<mgrwt>
<rscale>  0 0.12500000E+03</rscale>
<asrwt>0</asrwt>
<pdfrwt beam="1">  1       21 0.40574647E-01 0.12500000E+03</pdfrwt>
<pdfrwt beam="2">  1       21 0.22786550E-02 0.12500000E+03</pdfrwt>
<totfact> 0.57287541E+06</totfact>
</mgrwt>
</event>
<event>
 3    1  0.1619206E-001  0.1250000E+03  0.7546771E-02  0.1235069E+00
         21   -1    0    0  502  501  0.00000000000E+00  0.00000000000E+00  0.74578603640E+02  0.74578603640E+02  0.00000000000E+00 0. -1.
         21   -1    0    0  501  502 -0.00000000000E+00 -0.00000000000E+00 -0.52377623197E+02  0.52377623197E+02  0.00000000000E+00 0. -1.
         25    1    1    2    0    0  0.00000000000E+00  0.00000000000E+00  0.22200980444E+02  0.12695622684E+03  0.12500000000E+03 0.  0.
<mgrwt>
<rscale>  0 0.12500000E+03</rscale>
<asrwt>0</asrwt>
<pdfrwt beam="1">  1       21 0.11473631E-01 0.12500000E+03</pdfrwt>
<pdfrwt beam="2">  1       21 0.80580958E-02 0.12500000E+03</pdfrwt>
<totfact> 0.73775096E+06</totfact>
</mgrwt>
</event>
<event>
 3    1  0.1619206E-001  0.1250000E+03  0.7546771E-02  0.1235069E+00
         21   -1    0    0  502  501  0.00000000000E+00  0.00000000000E+00  0.12323328271E+04  0.12323328271E+04  0.00000000000E+00 0. -1.
         21   -1    0    0  501  502 -0.00000000000E+00 -0.00000000000E+00 -0.31698011399E+01  0.31698011399E+01  0.00000000000E+00 0. -1.
         25    1    1    2    0    0  0.00000000000E+00  0.00000000000E+00  0.12291630259E+04  0.12355026282E+04  0.12500000000E+03 0.  0.
<mgrwt>
<rscale>  0 0.12500000E+03</rscale>
<asrwt>0</asrwt>
<pdfrwt beam="1">  1       21 0.18958928E+00 0.12500000E+03</pdfrwt>
<pdfrwt beam="2">  1       21 0.48766270E-03 0.12500000E+03</pdfrwt>
<totfact> 0.18449990E+06</totfact>
</mgrwt>
</event>
<event>
 3    1  0.1619206E-001  0.1250000E+03  0.7546771E-02  0.1235069E+00
         21   -1    0    0  502  501  0.00000000000E+00  0.00000000000E+00  0.11459576295E+03  0.11459576295E+03  0.00000000000E+00 0.  1.
         21   -1    0    0  501  502 -0.00000000000E+00 -0.00000000000E+00 -0.34087211423E+02  0.34087211423E+02  0.00000000000E+00 0.  1.
         25    1    1    2    0    0  0.00000000000E+00  0.00000000000E+00  0.80508551532E+02  0.14868297438E+03  0.12500000000E+03 0.  0.
<mgrwt>
<rscale>  0 0.12500000E+03</rscale>
<asrwt>0</asrwt>
<pdfrwt beam="1">  1       21 0.17630117E-01 0.12500000E+03</pdfrwt>
<pdfrwt beam="2">  1       21 0.52441864E-02 0.12500000E+03</pdfrwt>
<totfact> 0.70925037E+06</totfact>
</mgrwt>
</event>
<event>
 3    1  0.1619206E-001  0.1250000E+03  0.7546771E-02  0.1235069E+00
         21   -1    0    0  502  501  0.00000000000E+00  0.00000000000E+00  0.12415483570E+03  0.12415483570E+03  0.00000000000E+00 0.  1.
         21   -1    0    0  501  502 -0.00000000000E+00 -0.00000000000E+00 -0.31462729405E+02  0.31462729405E+02  0.00000000000E+00 0.  1.
         25    1    1    2    0    0  0.00000000000E+00  0.00000000000E+00  0.92692106297E+02  0.15561756511E+03  0.12500000000E+03 0.  0.
<mgrwt>
<rscale>  0 0.12500000E+03</rscale>
<asrwt>0</asrwt>
<pdfrwt beam="1">  1       21 0.19100744E-01 0.12500000E+03</pdfrwt>
<pdfrwt beam="2">  1       21 0.48404200E-02 0.12500000E+03</pdfrwt>
<totfact> 0.70058985E+06</totfact>
</mgrwt>
</event>
<event>
 3    1  0.1619206E-001  0.1250000E+03  0.7546771E-02  0.1235069E+00
         21   -1    0    0  502  501  0.00000000000E+00  0.00000000000E+00  0.43397921922E+02  0.43397921922E+02  0.00000000000E+00 0. -1.
         21   -1    0    0  501  502 -0.00000000000E+00 -0.00000000000E+00 -0.90010070229E+02  0.90010070229E+02  0.00000000000E+00 0. -1.
         25    1    1    2    0    0  0.00000000000E+00  0.00000000000E+00 -0.46612148307E+02  0.13340799215E+03  0.12500000000E+03 0.  0.
<mgrwt>
<rscale>  0 0.12500000E+03</rscale>
<asrwt>0</asrwt>
<pdfrwt beam="1">  1       21 0.66766034E-02 0.12500000E+03</pdfrwt>
<pdfrwt beam="2">  1       21 0.13847703E-01 0.12500000E+03</pdfrwt>
<totfact> 0.72907966E+06</totfact>
</mgrwt>
</event>
<event>
 3    1  0.1619206E-001  0.1250000E+03  0.7546771E-02  0.1235069E+00
         21   -1    0    0  502  501  0.00000000000E+00  0.00000000000E+00  0.71053131596E+01  0.71053131596E+01  0.00000000000E+00 0.  1.
         21   -1    0    0  501  502 -0.00000000000E+00 -0.00000000000E+00 -0.54976464968E+03  0.54976464968E+03  0.00000000000E+00 0.  1.
         25    1    1    2    0    0  0.00000000000E+00  0.00000000000E+00 -0.54265933652E+03  0.55686996284E+03  0.12500000000E+03 0.  0.
<mgrwt>
<rscale>  0 0.12500000E+03</rscale>
<asrwt>0</asrwt>
<pdfrwt beam="1">  1       21 0.10931253E-02 0.12500000E+03</pdfrwt>
<pdfrwt beam="2">  1       21 0.84579162E-01 0.12500000E+03</pdfrwt>
<totfact> 0.39118730E+06</totfact>
</mgrwt>
</event>
<event>
 3    1  0.1619206E-001  0.1250000E+03  0.7546771E-02  0.1235069E+00
         21   -1    0    0  502  501  0.00000000000E+00  0.00000000000E+00  0.26842826197E+03  0.26842826197E+03  0.00000000000E+00 0. -1.
         21   -1    0    0  501  502 -0.00000000000E+00 -0.00000000000E+00 -0.14552305228E+02  0.14552305228E+02  0.00000000000E+00 0. -1.
         25    1    1    2    0    0  0.00000000000E+00  0.00000000000E+00  0.25387595674E+03  0.28298056720E+03  0.12500000000E+03 0.  0.
<mgrwt>
<rscale>  0 0.12500000E+03</rscale>
<asrwt>0</asrwt>
<pdfrwt beam="1">  1       21 0.41296652E-01 0.12500000E+03</pdfrwt>
<pdfrwt beam="2">  1       21 0.22388164E-02 0.12500000E+03</pdfrwt>
<totfact> 0.56900895E+06</totfact>
</mgrwt>
</event>
<event>
 3    1  0.1619206E-001  0.1250000E+03  0.7546771E-02  0.1235069E+00
         21   -1    0    0  502  501  0.00000000000E+00  0.00000000000E+00  0.30269232513E+02  0.30269232513E+02  0.00000000000E+00 0. -1.
         21   -1    0    0  501  502 -0.00000000000E+00 -0.00000000000E+00 -0.12905018316E+03  0.12905018316E+03  0.00000000000E+00 0. -1.
         25    1    1    2    0    0  0.00000000000E+00  0.00000000000E+00 -0.98780950651E+02  0.15931941568E+03  0.12500000000E+03 0.  0.
<mgrwt>
<rscale>  0 0.12500000E+03</rscale>
<asrwt>0</asrwt>
<pdfrwt beam="1">  1       21 0.46568050E-02 0.12500000E+03</pdfrwt>
<pdfrwt beam="2">  1       21 0.19853874E-01 0.12500000E+03</pdfrwt>
<totfact> 0.69602752E+06</totfact>
</mgrwt>
</event>
<event>
 3    1  0.1619206E-001  0.1250000E+03  0.7546771E-02  0.1235069E+00
         21   -1    0    0  502  501  0.00000000000E+00  0.00000000000E+00  0.25752061330E+02  0.25752061330E+02  0.00000000000E+00 0.  1.
         21   -1    0    0  501  502 -0.00000000000E+00 -0.00000000000E+00 -0.15168688634E+03  0.15168688634E+03  0.00000000000E+00 0.  1.
         25    1    1    2    0    0  0.00000000000E+00  0.00000000000E+00 -0.12593482501E+03  0.17743894767E+03  0.12500000000E+03 0.  0.
<mgrwt>
<rscale>  0 0.12500000E+03</rscale>
<asrwt>0</asrwt>
<pdfrwt beam="1">  1       21 0.39618556E-02 0.12500000E+03</pdfrwt>
<pdfrwt beam="2">  1       21 0.23336444E-01 0.12500000E+03</pdfrwt>
<totfact> 0.67446553E+06</totfact>
</mgrwt>
</event>
<event>
 3    1  0.1619206E-001  0.1250000E+03  0.7546771E-02  0.1235069E+00
         21   -1    0    0  502  501  0.00000000000E+00  0.00000000000E+00  0.36366968359E+03  0.36366968359E+03  0.00000000000E+00 0.  1.
         21   -1    0    0  501  502 -0.00000000000E+00 -0.00000000000E+00 -0.10741203285E+02  0.10741203285E+02  0.00000000000E+00 0.  1.
         25    1    1    2    0    0  0.00000000000E+00  0.00000000000E+00  0.35292848030E+03  0.37441088687E+03  0.12500000000E+03 0.  0.
<mgrwt>
<rscale>  0 0.12500000E+03</rscale>
<asrwt>0</asrwt>
<pdfrwt beam="1">  1       21 0.55949173E-01 0.12500000E+03</pdfrwt>
<pdfrwt beam="2">  1       21 0.16524931E-02 0.12500000E+03</pdfrwt>
<totfact> 0.49784622E+06</totfact>
</mgrwt>
</event>
<event>
 3    1  0.1619206E-001  0.1250000E+03  0.7546771E-02  0.1235069E+00
         21   -1    0    0  502  501  0.00000000000E+00  0.00000000000E+00  0.18754081578E+03  0.18754081578E+03  0.00000000000E+00 0. -1.
         21   -1    0    0  501  502 -0.00000000000E+00 -0.00000000000E+00 -0.20828799234E+02  0.20828799234E+02  0.00000000000E+00 0. -1.
         25    1    1    2    0    0  0.00000000000E+00  0.00000000000E+00  0.16671201654E+03  0.20836961501E+03  0.12500000000E+03 0.  0.
<mgrwt>
<rscale>  0 0.12500000E+03</rscale>
<asrwt>0</asrwt>
<pdfrwt beam="1">  1       21 0.28852432E-01 0.12500000E+03</pdfrwt>
<pdfrwt beam="2">  1       21 0.32044308E-02 0.12500000E+03</pdfrwt>
<totfact> 0.64031480E+06</totfact>
</mgrwt>
</event>
<event>
 3    1  0.1619206E-001  0.1250000E+03  0.7546771E-02  0.1235069E+00
         21   -1    0    0  502  501  0.00000000000E+00  0.00000000000E+00  0.27633143252E+03  0.27633143252E+03  0.00000000000E+00 0.  1.
         21   -1    0    0  501  502 -0.00000000000E+00 -0.00000000000E+00 -0.14136104475E+02  0.14136104475E+02  0.00000000000E+00 0.  1.
         25    1    1    2    0    0  0.00000000000E+00  0.00000000000E+00  0.26219532805E+03  0.29046753700E+03  0.12500000000E+03 0.  0.
<mgrwt>
<rscale>  0 0.12500000E+03</rscale>
<asrwt>0</asrwt>
<pdfrwt beam="1">  1       21 0.42512524E-01 0.12500000E+03</pdfrwt>
<pdfrwt beam="2">  1       21 0.21747855E-02 0.12500000E+03</pdfrwt>
<totfact> 0.56257782E+06</totfact>
</mgrwt>
</event>
<event>
 3    1  0.1619206E-001  0.1250000E+03  0.7546771E-02  0.1235069E+00
         21   -1    0    0  502  501  0.00000000000E+00  0.00000000000E+00  0.18393622933E+02  0.18393622933E+02  0.00000000000E+00 0.  1.
         21   -1    0    0  501  502 -0.00000000000E+00 -0.00000000000E+00 -0.21236979872E+03  0.21236979872E+03  0.00000000000E+00 0.  1.
         25    1    1    2    0    0  0.00000000000E+00  0.00000000000E+00 -0.19397617578E+03  0.23076342165E+03  0.12500000000E+03 0.  0.
<mgrwt>
<rscale>  0 0.12500000E+03</rscale>
<asrwt>0</asrwt>
<pdfrwt beam="1">  1       21 0.28297880E-02 0.12500000E+03</pdfrwt>
<pdfrwt beam="2">  1       21 0.32672278E-01 0.12500000E+03</pdfrwt>
<totfact> 0.61738086E+06</totfact>
</mgrwt>
</event>
<event>
 3    1  0.1619206E-001  0.1250000E+03  0.7546771E-02  0.1235069E+00
         21   -1    0    0  502  501  0.00000000000E+00  0.00000000000E+00  0.27268622430E+03  0.27268622430E+03  0.00000000000E+00 0. -1.
         21   -1    0    0  501  502 -0.00000000000E+00 -0.00000000000E+00 -0.14325072746E+02  0.14325072746E+02  0.00000000000E+00 0. -1.
         25    1    1    2    0    0  0.00000000000E+00  0.00000000000E+00  0.25836115155E+03  0.28701129705E+03  0.12500000000E+03 0.  0.
<mgrwt>
<rscale>  0 0.12500000E+03</rscale>
<asrwt>0</asrwt>
<pdfrwt beam="1">  1       21 0.41951723E-01 0.12500000E+03</pdfrwt>
<pdfrwt beam="2">  1       21 0.22038576E-02 0.12500000E+03</pdfrwt>
<totfact> 0.56553162E+06</totfact>
</mgrwt>
</event>
<event>
 3    1  0.1619206E-001  0.1250000E+03  0.7546771E-02  0.1235069E+00
         21   -1    0    0  502  501  0.00000000000E+00  0.00000000000E+00  0.21405303169E+02  0.21405303169E+02  0.00000000000E+00 0. -1.
         21   -1    0    0  501  502 -0.00000000000E+00 -0.00000000000E+00 -0.18248982363E+03  0.18248982363E+03  0.00000000000E+00 0. -1.
         25    1    1    2    0    0  0.00000000000E+00  0.00000000000E+00 -0.16108452046E+03  0.20389512680E+03  0.12500000000E+03 0.  0.
<mgrwt>
<rscale>  0 0.12500000E+03</rscale>
<asrwt>0</asrwt>
<pdfrwt beam="1">  1       21 0.32931235E-02 0.12500000E+03</pdfrwt>
<pdfrwt beam="2">  1       21 0.28075358E-01 0.12500000E+03</pdfrwt>
<totfact> 0.64507617E+06</totfact>
</mgrwt>
</event>
<event>
 3    1  0.1619206E-001  0.1250000E+03  0.7546771E-02  0.1235069E+00
         21   -1    0    0  502  501  0.00000000000E+00  0.00000000000E+00  0.15743453364E+03  0.15743453364E+03  0.00000000000E+00 0. -1.
         21   -1    0    0  501  502 -0.00000000000E+00 -0.00000000000E+00 -0.24811900603E+02  0.24811900603E+02  0.00000000000E+00 0. -1.
         25    1    1    2    0    0  0.00000000000E+00  0.00000000000E+00  0.13262263303E+03  0.18224643424E+03  0.12500000000E+03 0.  0.
<mgrwt>
<rscale>  0 0.12500000E+03</rscale>
<asrwt>0</asrwt>
<pdfrwt beam="1">  1       21 0.24220697E-01 0.12500000E+03</pdfrwt>
<pdfrwt beam="2">  1       21 0.38172156E-02 0.12500000E+03</pdfrwt>
<totfact> 0.66894763E+06</totfact>
</mgrwt>
</event>
<event>
 3    1  0.1619206E-001  0.1250000E+03  0.7546771E-02  0.1235069E+00
         21   -1    0    0  502  501  0.00000000000E+00  0.00000000000E+00  0.10856691564E+03  0.10856691564E+03  0.00000000000E+00 0. -1.
         21   -1    0    0  501  502 -0.00000000000E+00 -0.00000000000E+00 -0.35980113989E+02  0.35980113989E+02  0.00000000000E+00 0. -1.
         25    1    1    2    0    0  0.00000000000E+00  0.00000000000E+00  0.72586801648E+02  0.14454702963E+03  0.12500000000E+03 0.  0.
<mgrwt>
<rscale>  0 0.12500000E+03</rscale>
<asrwt>0</asrwt>
<pdfrwt beam="1">  1       21 0.16702602E-01 0.12500000E+03</pdfrwt>
<pdfrwt beam="2">  1       21 0.55354022E-02 0.12500000E+03</pdfrwt>
<totfact> 0.71451118E+06</totfact>
</mgrwt>
</event>
<event>
 3    1  0.1619206E-001  0.1250000E+03  0.7546771E-02  0.1235069E+00
         21   -1    0    0  502  501  0.00000000000E+00  0.00000000000E+00  0.94755724794E+01  0.94755724794E+01  0.00000000000E+00 0. -1.
         21   -1    0    0  501  502 -0.00000000000E+00 -0.00000000000E+00 -0.41224422149E+03  0.41224422149E+03  0.00000000000E+00 0. -1.
         25    1    1    2    0    0  0.00000000000E+00  0.00000000000E+00 -0.40276864902E+03  0.42171979397E+03  0.12500000000E+03 0.  0.
<mgrwt>
<rscale>  0 0.12500000E+03</rscale>
<asrwt>0</asrwt>
<pdfrwt beam="1">  1       21 0.14577806E-02 0.12500000E+03</pdfrwt>
<pdfrwt beam="2">  1       21 0.63422180E-01 0.12500000E+03</pdfrwt>
<totfact> 0.46633299E+06</totfact>
</mgrwt>
</event>
<event>
 3    1  0.1619206E-001  0.1250000E+03  0.7546771E-02  0.1235069E+00
         21   -1    0    0  502  501  0.00000000000E+00  0.00000000000E+00  0.19045358842E+03  0.19045358842E+03  0.00000000000E+00 0.  1.
         21   -1    0    0  501  502 -0.00000000000E+00 -0.00000000000E+00 -0.20510246262E+02  0.20510246262E+02  0.00000000000E+00 0.  1.
         25    1    1    2    0    0  0.00000000000E+00  0.00000000000E+00  0.16994334216E+03  0.21096383468E+03  0.12500000000E+03 0.  0.
<mgrwt>
<rscale>  0 0.12500000E+03</rscale>
<asrwt>0</asrwt>
<pdfrwt beam="1">  1       21 0.29300551E-01 0.12500000E+03</pdfrwt>
<pdfrwt beam="2">  1       21 0.31554226E-02 0.12500000E+03</pdfrwt>
<totfact> 0.63758272E+06</totfact>
</mgrwt>
</event>
<event>
 3    1  0.1619206E-001  0.1250000E+03  0.7546771E-02  0.1235069E+00
         21   -1    0    0  502  501  0.00000000000E+00  0.00000000000E+00  0.16592824077E+03  0.16592824077E+03  0.00000000000E+00 0. -1.
         21   -1    0    0  501  502 -0.00000000000E+00 -0.00000000000E+00 -0.23541803263E+02  0.23541803263E+02  0.00000000000E+00 0. -1.
         25    1    1    2    0    0  0.00000000000E+00  0.00000000000E+00  0.14238643751E+03  0.18947004404E+03  0.12500000000E+03 0.  0.
<mgrwt>
<rscale>  0 0.12500000E+03</rscale>
<asrwt>0</asrwt>
<pdfrwt beam="1">  1       21 0.25527421E-01 0.12500000E+03</pdfrwt>
<pdfrwt beam="2">  1       21 0.36218160E-02 0.12500000E+03</pdfrwt>
<totfact> 0.66081412E+06</totfact>
</mgrwt>
</event>
<event>
 3    1  0.1619206E-001  0.1250000E+03  0.7546771E-02  0.1235069E+00
         21   -1    0    0  502  501  0.00000000000E+00  0.00000000000E+00  0.66031183119E+01  0.66031183119E+01  0.00000000000E+00 0. -1.
         21   -1    0    0  501  502 -0.00000000000E+00 -0.00000000000E+00 -0.59157655754E+03  0.59157655754E+03  0.00000000000E+00 0. -1.
         25    1    1    2    0    0  0.00000000000E+00  0.00000000000E+00 -0.58497343923E+03  0.59817967585E+03  0.12500000000E+03 0.  0.
<mgrwt>
<rscale>  0 0.12500000E+03</rscale>
<asrwt>0</asrwt>
<pdfrwt beam="1">  1       21 0.10158639E-02 0.12500000E+03</pdfrwt>
<pdfrwt beam="2">  1       21 0.91011822E-01 0.12500000E+03</pdfrwt>
<totfact> 0.37175069E+06</totfact>
</mgrwt>
</event>
<event>
 3    1  0.1619206E-001  0.1250000E+03  0.7546771E-02  0.1235069E+00
         21   -1    0    0  502  501  0.00000000000E+00  0.00000000000E+00  0.57712081769E+02  0.57712081769E+02  0.00000000000E+00 0.  1.
         21   -1    0    0  501  502 -0.00000000000E+00 -0.00000000000E+00 -0.67685134209E+02  0.67685134209E+02  0.00000000000E+00 0.  1.
         25    1    1    2    0    0  0.00000000000E+00  0.00000000000E+00 -0.99730524407E+01  0.12539721598E+03  0.12500000000E+03 0.  0.
<mgrwt>
<rscale>  0 0.12500000E+03</rscale>
<asrwt>0</asrwt>
<pdfrwt beam="1">  1       21 0.88787818E-02 0.12500000E+03</pdfrwt>
<pdfrwt beam="2">  1       21 0.10413098E-01 0.12500000E+03</pdfrwt>
<totfact> 0.73989803E+06</totfact>
</mgrwt>
</event>
<event>
 3    1  0.1619206E-001  0.1250000E+03  0.7546771E-02  0.1235069E+00
         21   -1    0    0  502  501  0.00000000000E+00  0.00000000000E+00  0.21870707853E+02  0.21870707853E+02  0.00000000000E+00 0. -1.
         21   -1    0    0  501  502 -0.00000000000E+00 -0.00000000000E+00 -0.17860647338E+03  0.17860647338E+03  0.00000000000E+00 0. -1.
         25    1    1    2    0    0  0.00000000000E+00  0.00000000000E+00 -0.15673576553E+03  0.20047718123E+03  0.12500000000E+03 0.  0.
<mgrwt>
<rscale>  0 0.12500000E+03</rscale>
<asrwt>0</asrwt>
<pdfrwt beam="1">  1       21 0.33647242E-02 0.12500000E+03</pdfrwt>
<pdfrwt beam="2">  1       21 0.27477920E-01 0.12500000E+03</pdfrwt>
<totfact> 0.64875582E+06</totfact>
</mgrwt>
</event>
<event>
 3    1  0.1619206E-001  0.1250000E+03  0.7546771E-02  0.1235069E+00
         21   -1    0    0  502  501  0.00000000000E+00  0.00000000000E+00  0.23401253350E+02  0.23401253350E+02  0.00000000000E+00 0.  1.
         21   -1    0    0  501  502 -0.00000000000E+00 -0.00000000000E+00 -0.16692481986E+03  0.16692481986E+03  0.00000000000E+00 0.  1.
         25    1    1    2    0    0  0.00000000000E+00  0.00000000000E+00 -0.14352356651E+03  0.19032607321E+03  0.12500000000E+03 0.  0.
<mgrwt>
<rscale>  0 0.12500000E+03</rscale>
<asrwt>0</asrwt>
<pdfrwt beam="1">  1       21 0.36001927E-02 0.12500000E+03</pdfrwt>
<pdfrwt beam="2">  1       21 0.25680742E-01 0.12500000E+03</pdfrwt>
<totfact> 0.65986242E+06</totfact>
</mgrwt>
</event>
<event>
 3    1  0.1619206E-001  0.1250000E+03  0.7546771E-02  0.1235069E+00
         21   -1    0    0  502  501  0.00000000000E+00  0.00000000000E+00  0.27345488563E+03  0.27345488563E+03  0.00000000000E+00 0. -1.
         21   -1    0    0  501  502 -0.00000000000E+00 -0.00000000000E+00 -0.14284806033E+02  0.14284806033E+02  0.00000000000E+00 0. -1.
         25    1    1    2    0    0  0.00000000000E+00  0.00000000000E+00  0.25917007960E+03  0.28773969167E+03  0.12500000000E+03 0.  0.
<mgrwt>
<rscale>  0 0.12500000E+03</rscale>
<asrwt>0</asrwt>
<pdfrwt beam="1">  1       21 0.42069979E-01 0.12500000E+03</pdfrwt>
<pdfrwt beam="2">  1       21 0.21976627E-02 0.12500000E+03</pdfrwt>
<totfact> 0.56490698E+06</totfact>
</mgrwt>
</event>
<event>
 3    1  0.1619206E-001  0.1250000E+03  0.7546771E-02  0.1235069E+00
         21   -1    0    0  502  501  0.00000000000E+00  0.00000000000E+00  0.67037137345E+03  0.67037137345E+03  0.00000000000E+00 0.  1.
         21   -1    0    0  501  502 -0.00000000000E+00 -0.00000000000E+00 -0.58269940435E+01  0.58269940435E+01  0.00000000000E+00 0.  1.
         25    1    1    2    0    0  0.00000000000E+00  0.00000000000E+00  0.66454437941E+03  0.67619836749E+03  0.12500000000E+03 0.  0.
<mgrwt>
<rscale>  0 0.12500000E+03</rscale>
<asrwt>0</asrwt>
<pdfrwt beam="1">  1       21 0.10313400E+00 0.12500000E+03</pdfrwt>
<pdfrwt beam="2">  1       21 0.89646115E-03 0.12500000E+03</pdfrwt>
<totfact> 0.33848145E+06</totfact>
</mgrwt>
</event>
<event>
 3    1  0.1619206E-001  0.1250000E+03  0.7546771E-02  0.1235069E+00
         21   -1    0    0  502  501  0.00000000000E+00  0.00000000000E+00  0.47428164048E+02  0.47428164048E+02  0.00000000000E+00 0. -1.
         21   -1    0    0  501  502 -0.00000000000E+00 -0.00000000000E+00 -0.82361400202E+02  0.82361400202E+02  0.00000000000E+00 0. -1.
         25    1    1    2    0    0  0.00000000000E+00  0.00000000000E+00 -0.34933236155E+02  0.12978956425E+03  0.12500000000E+03 0.  0.
<mgrwt>
<rscale>  0 0.12500000E+03</rscale>
<asrwt>0</asrwt>
<pdfrwt beam="1">  1       21 0.72966407E-02 0.12500000E+03</pdfrwt>
<pdfrwt beam="2">  1       21 0.12670985E-01 0.12500000E+03</pdfrwt>
<totfact> 0.73393053E+06</totfact>
</mgrwt>
</event>
<event>
 3    1  0.1619206E-001  0.1250000E+03  0.7546771E-02  0.1235069E+00
         21   -1    0    0  502  501  0.00000000000E+00  0.00000000000E+00  0.13433023902E+03  0.13433023902E+03  0.00000000000E+00 0. -1.
         21   -1    0    0  501  502 -0.00000000000E+00 -0.00000000000E+00 -0.29079453953E+02  0.29079453953E+02  0.00000000000E+00 0. -1.
         25    1    1    2    0    0  0.00000000000E+00  0.00000000000E+00  0.10525078506E+03  0.16340969297E+03  0.12500000000E+03 0.  0.
<mgrwt>
<rscale>  0 0.12500000E+03</rscale>
<asrwt>0</asrwt>
<pdfrwt beam="1">  1       21 0.20666190E-01 0.12500000E+03</pdfrwt>
<pdfrwt beam="2">  1       21 0.44737622E-02 0.12500000E+03</pdfrwt>
<totfact> 0.69105250E+06</totfact>
</mgrwt>
</event>
<event>
 3    1  0.1619206E-001  0.1250000E+03  0.7546771E-02  0.1235069E+00
         21   -1    0    0  502  501  0.00000000000E+00  0.00000000000E+00  0.30374127653E+02  0.30374127653E+02  0.00000000000E+00 0. -1.
         21   -1    0    0  501  502 -0.00000000000E+00 -0.00000000000E+00 -0.12860451647E+03  0.12860451647E+03  0.00000000000E+00 0. -1.
         25    1    1    2    0    0  0.00000000000E+00  0.00000000000E+00 -0.98230388817E+02  0.15897864412E+03  0.12500000000E+03 0.  0.
<mgrwt>
<rscale>  0 0.12500000E+03</rscale>
<asrwt>0</asrwt>
<pdfrwt beam="1">  1       21 0.46729428E-02 0.12500000E+03</pdfrwt>
<pdfrwt beam="2">  1       21 0.19785310E-01 0.12500000E+03</pdfrwt>
<totfact> 0.69644510E+06</totfact>
</mgrwt>
</event>
<event>
 3    1  0.1619206E-001  0.1250000E+03  0.7546771E-02  0.1235069E+00
         21   -1    0    0  502  501  0.00000000000E+00  0.00000000000E+00  0.84685093103E+03  0.84685093103E+03  0.00000000000E+00 0. -1.
         21   -1    0    0  501  502 -0.00000000000E+00 -0.00000000000E+00 -0.46126772220E+01  0.46126772220E+01  0.00000000000E+00 0. -1.
         25    1    1    2    0    0  0.00000000000E+00  0.00000000000E+00  0.84223825381E+03  0.85146360825E+03  0.12500000000E+03 0.  0.
<mgrwt>
<rscale>  0 0.12500000E+03</rscale>
<asrwt>0</asrwt>
<pdfrwt beam="1">  1       21 0.13028464E+00 0.12500000E+03</pdfrwt>
<pdfrwt beam="2">  1       21 0.70964332E-03 0.12500000E+03</pdfrwt>
<totfact> 0.27727084E+06</totfact>
</mgrwt>
</event>
<event>
 3    1  0.1619206E-001  0.1250000E+03  0.7546771E-02  0.1235069E+00
         21   -1    0    0  502  501  0.00000000000E+00  0.00000000000E+00  0.12164012820E+03  0.12164012820E+03  0.00000000000E+00 0. -1.
         21   -1    0    0  501  502 -0.00000000000E+00 -0.00000000000E+00 -0.32113169049E+02  0.32113169049E+02  0.00000000000E+00 0. -1.
         25    1    1    2    0    0  0.00000000000E+00  0.00000000000E+00  0.89526959150E+02  0.15375329725E+03  0.12500000000E+03 0.  0.
<mgrwt>
<rscale>  0 0.12500000E+03</rscale>
<asrwt>0</asrwt>
<pdfrwt beam="1">  1       21 0.18713866E-01 0.12500000E+03</pdfrwt>
<pdfrwt beam="2">  1       21 0.49404876E-02 0.12500000E+03</pdfrwt>
<totfact> 0.70290841E+06</totfact>
</mgrwt>
</event>
<event>
 3    1  0.1619206E-001  0.1250000E+03  0.7546771E-02  0.1235069E+00
         21   -1    0    0  502  501  0.00000000000E+00  0.00000000000E+00  0.27639763623E+01  0.27639763623E+01  0.00000000000E+00 0.  1.
         21   -1    0    0  501  502 -0.00000000000E+00 -0.00000000000E+00 -0.14132718547E+04  0.14132718547E+04  0.00000000000E+00 0.  1.
         25    1    1    2    0    0  0.00000000000E+00  0.00000000000E+00 -0.14105078784E+04  0.14160358311E+04  0.12500000000E+03 0.  0.
<mgrwt>
<rscale>  0 0.12500000E+03</rscale>
<asrwt>0</asrwt>
<pdfrwt beam="1">  1       21 0.42522688E-03 0.12500000E+03</pdfrwt>
<pdfrwt beam="2">  1       21 0.21742657E+00 0.12500000E+03</pdfrwt>
<totfact> 0.15285827E+06</totfact>
</mgrwt>
</event>
<event>
 3    1  0.1619206E-001  0.1250000E+03  0.7546771E-02  0.1235069E+00
         21   -1    0    0  502  501  0.00000000000E+00  0.00000000000E+00  0.29588023009E+03  0.29588023009E+03  0.00000000000E+00 0. -1.
         21   -1    0    0  501  502 -0.00000000000E+00 -0.00000000000E+00 -0.13202132494E+02  0.13202132494E+02  0.00000000000E+00 0. -1.
         25    1    1    2    0    0  0.00000000000E+00  0.00000000000E+00  0.28267809760E+03  0.30908236259E+03  0.12500000000E+03 0.  0.
<mgrwt>
<rscale>  0 0.12500000E+03</rscale>
<asrwt>0</asrwt>
<pdfrwt beam="1">  1       21 0.45520030E-01 0.12500000E+03</pdfrwt>
<pdfrwt beam="2">  1       21 0.20310975E-02 0.12500000E+03</pdfrwt>
<totfact> 0.54709742E+06</totfact>
</mgrwt>
</event>
<event>
 3    1  0.1619206E-001  0.1250000E+03  0.7546771E-02  0.1235069E+00
         21   -1    0    0  502  501  0.00000000000E+00  0.00000000000E+00  0.19956253185E+02  0.19956253185E+02  0.00000000000E+00 0.  1.
         21   -1    0    0  501  502 -0.00000000000E+00 -0.00000000000E+00 -0.19574065151E+03  0.19574065151E+03  0.00000000000E+00 0.  1.
         25    1    1    2    0    0  0.00000000000E+00  0.00000000000E+00 -0.17578439832E+03  0.21569690469E+03  0.12500000000E+03 0.  0.
<mgrwt>
<rscale>  0 0.12500000E+03</rscale>
<asrwt>0</asrwt>
<pdfrwt beam="1">  1       21 0.30701929E-02 0.12500000E+03</pdfrwt>
<pdfrwt beam="2">  1       21 0.30113946E-01 0.12500000E+03</pdfrwt>
<totfact> 0.63265096E+06</totfact>
</mgrwt>
</event>
<event>
 3    1  0.1619206E-001  0.1250000E+03  0.7546771E-02  0.1235069E+00
         21   -1    0    0  502  501  0.00000000000E+00  0.00000000000E+00  0.41586714370E+03  0.41586714370E+03  0.00000000000E+00 0.  1.
         21   -1    0    0  501  502 -0.00000000000E+00 -0.00000000000E+00 -0.93930238519E+01  0.93930238519E+01  0.00000000000E+00 0.  1.
         25    1    1    2    0    0  0.00000000000E+00  0.00000000000E+00  0.40647411985E+03  0.42526016755E+03  0.12500000000E+03 0.  0.
<mgrwt>
<rscale>  0 0.12500000E+03</rscale>
<asrwt>0</asrwt>
<pdfrwt beam="1">  1       21 0.63979546E-01 0.12500000E+03</pdfrwt>
<pdfrwt beam="2">  1       21 0.14450809E-02 0.12500000E+03</pdfrwt>
<totfact> 0.46409799E+06</totfact>
</mgrwt>
</event>
<event>
 3    1  0.1619206E-001  0.1250000E+03  0.7546771E-02  0.1235069E+00
         21   -1    0    0  502  501  0.00000000000E+00  0.00000000000E+00  0.30334995266E+02  0.30334995266E+02  0.00000000000E+00 0.  1.
         21   -1    0    0  501  502 -0.00000000000E+00 -0.00000000000E+00 -0.12877041732E+03  0.12877041732E+03  0.00000000000E+00 0.  1.
         25    1    1    2    0    0  0.00000000000E+00  0.00000000000E+00 -0.98435422058E+02  0.15910541259E+03  0.12500000000E+03 0.  0.
<mgrwt>
<rscale>  0 0.12500000E+03</rscale>
<asrwt>0</asrwt>
<pdfrwt beam="1">  1       21 0.46669225E-02 0.12500000E+03</pdfrwt>
<pdfrwt beam="2">  1       21 0.19810833E-01 0.12500000E+03</pdfrwt>
<totfact> 0.69628970E+06</totfact>
</mgrwt>
</event>
<event>
 3    1  0.1619206E-001  0.1250000E+03  0.7546771E-02  0.1235069E+00
         21   -1    0    0  502  501  0.00000000000E+00  0.00000000000E+00  0.35107900998E+02  0.35107900998E+02  0.00000000000E+00 0.  1.
         21   -1    0    0  501  502 -0.00000000000E+00 -0.00000000000E+00 -0.11126412827E+03  0.11126412827E+03  0.00000000000E+00 0.  1.
         25    1    1    2    0    0  0.00000000000E+00  0.00000000000E+00 -0.76156227273E+02  0.14637202927E+03  0.12500000000E+03 0.  0.
<mgrwt>
<rscale>  0 0.12500000E+03</rscale>
<asrwt>0</asrwt>
<pdfrwt beam="1">  1       21 0.54012156E-02 0.12500000E+03</pdfrwt>
<pdfrwt beam="2">  1       21 0.17117558E-01 0.12500000E+03</pdfrwt>
<totfact> 0.71217973E+06</totfact>
</mgrwt>
</event>
<event>
 3    1  0.1619206E-001  0.1250000E+03  0.7546771E-02  0.1235069E+00
         21   -1    0    0  502  501  0.00000000000E+00  0.00000000000E+00  0.22478529492E+03  0.22478529492E+03  0.00000000000E+00 0. -1.
         21   -1    0    0  501  502 -0.00000000000E+00 -0.00000000000E+00 -0.17377693685E+02  0.17377693685E+02  0.00000000000E+00 0. -1.
         25    1    1    2    0    0  0.00000000000E+00  0.00000000000E+00  0.20740760124E+03  0.24216298861E+03  0.12500000000E+03 0.  0.
<mgrwt>
<rscale>  0 0.12500000E+03</rscale>
<asrwt>0</asrwt>
<pdfrwt beam="1">  1       21 0.34582351E-01 0.12500000E+03</pdfrwt>
<pdfrwt beam="2">  1       21 0.26734915E-02 0.12500000E+03</pdfrwt>
<totfact> 0.60623982E+06</totfact>
</mgrwt>
</event>
<event>
 3    1  0.1619206E-001  0.1250000E+03  0.7546771E-02  0.1235069E+00
         21   -1    0    0  502  501  0.00000000000E+00  0.00000000000E+00  0.92763555979E+02  0.92763555979E+02  0.00000000000E+00 0.  1.
         21   -1    0    0  501  502 -0.00000000000E+00 -0.00000000000E+00 -0.42109748368E+02  0.42109748368E+02  0.00000000000E+00 0.  1.
         25    1    1    2    0    0  0.00000000000E+00  0.00000000000E+00  0.50653807611E+02  0.13487330435E+03  0.12500000000E+03 0.  0.
<mgrwt>
<rscale>  0 0.12500000E+03</rscale>
<asrwt>0</asrwt>
<pdfrwt beam="1">  1       21 0.14271316E-01 0.12500000E+03</pdfrwt>
<pdfrwt beam="2">  1       21 0.64784228E-02 0.12500000E+03</pdfrwt>
<totfact> 0.72713251E+06</totfact>
</mgrwt>
</event>
<event>
 3    1  0.1619206E-001  0.1250000E+03  0.7546771E-02  0.1235069E+00
         21   -1    0    0  502  501  0.00000000000E+00  0.00000000000E+00  0.62494770763E+01  0.62494770763E+01  0.00000000000E+00 0.  1.
         21   -1    0    0  501  502 -0.00000000000E+00 -0.00000000000E+00 -0.62505229675E+03  0.62505229675E+03  0.00000000000E+00 0.  1.
         25    1    1    2    0    0  0.00000000000E+00  0.00000000000E+00 -0.61880281967E+03  0.63130177382E+03  0.12500000000E+03 0.  0.
<mgrwt>
<rscale>  0 0.12500000E+03</rscale>
<asrwt>0</asrwt>
<pdfrwt beam="1">  1       21 0.96145788E-03 0.12500000E+03</pdfrwt>
<pdfrwt beam="2">  1       21 0.96161905E-01 0.12500000E+03</pdfrwt>
<totfact> 0.35714242E+06</totfact>
</mgrwt>
</event>
<event>
 3    1  0.1619206E-001  0.1250000E+03  0.7546771E-02  0.1235069E+00
         21   -1    0    0  502  501  0.00000000000E+00  0.00000000000E+00  0.99060579895E+01  0.99060579895E+01  0.00000000000E+00 0. -1.
         21   -1    0    0  501  502 -0.00000000000E+00 -0.00000000000E+00 -0.39432940975E+03  0.39432940975E+03  0.00000000000E+00 0. -1.
         25    1    1    2    0    0  0.00000000000E+00  0.00000000000E+00 -0.38442335176E+03  0.40423546774E+03  0.12500000000E+03 0.  0.
<mgrwt>
<rscale>  0 0.12500000E+03</rscale>
<asrwt>0</asrwt>
<pdfrwt beam="1">  1       21 0.15240092E-02 0.12500000E+03</pdfrwt>
<pdfrwt beam="2">  1       21 0.60666052E-01 0.12500000E+03</pdfrwt>
<totfact> 0.47761684E+06</totfact>
</mgrwt>
</event>
<event>
 3    1  0.1619206E-001  0.1250000E+03  0.7546771E-02  0.1235069E+00
         21   -1    0    0  502  501  0.00000000000E+00  0.00000000000E+00  0.37975836972E+01  0.37975836972E+01  0.00000000000E+00 0.  1.
         21   -1    0    0  501  502 -0.00000000000E+00 -0.00000000000E+00 -0.10286145906E+04  0.10286145906E+04  0.00000000000E+00 0.  1.
         25    1    1    2    0    0  0.00000000000E+00  0.00000000000E+00 -0.10248170069E+04  0.10324121743E+04  0.12500000000E+03 0.  0.
<mgrwt>
<rscale>  0 0.12500000E+03</rscale>
<asrwt>0</asrwt>
<pdfrwt beam="1">  1       21 0.58424258E-03 0.12500000E+03</pdfrwt>
<pdfrwt beam="2">  1       21 0.15824869E+00 0.12500000E+03</pdfrwt>
<totfact> 0.22820312E+06</totfact>
</mgrwt>
</event>
<event>
 3    1  0.1619206E-001  0.1250000E+03  0.7546771E-02  0.1235069E+00
         21   -1    0    0  502  501  0.00000000000E+00  0.00000000000E+00  0.59183564258E+01  0.59183564258E+01  0.00000000000E+00 0. -1.
         21   -1    0    0  501  502 -0.00000000000E+00 -0.00000000000E+00 -0.66002276967E+03  0.66002276967E+03  0.00000000000E+00 0. -1.
         25    1    1    2    0    0  0.00000000000E+00  0.00000000000E+00 -0.65410441324E+03  0.66594112609E+03  0.12500000000E+03 0.  0.
<mgrwt>
<rscale>  0 0.12500000E+03</rscale>
<asrwt>0</asrwt>
<pdfrwt beam="1">  1       21 0.91051655E-03 0.12500000E+03</pdfrwt>
<pdfrwt beam="2">  1       21 0.10154194E+00 0.12500000E+03</pdfrwt>
<totfact> 0.34264983E+06</totfact>
</mgrwt>
</event>
<event>
 3    1  0.1619206E-001  0.1250000E+03  0.7546771E-02  0.1235069E+00
         21   -1    0    0  502  501  0.00000000000E+00  0.00000000000E+00  0.10189989256E+04  0.10189989256E+04  0.00000000000E+00 0.  1.
         21   -1    0    0  501  502 -0.00000000000E+00 -0.00000000000E+00 -0.38334191548E+01  0.38334191548E+01  0.00000000000E+00 0.  1.
         25    1    1    2    0    0  0.00000000000E+00  0.00000000000E+00  0.10151655064E+04  0.10228323447E+04  0.12500000000E+03 0.  0.
<mgrwt>
<rscale>  0 0.12500000E+03</rscale>
<asrwt>0</asrwt>
<pdfrwt beam="1">  1       21 0.15676885E+00 0.12500000E+03</pdfrwt>
<pdfrwt beam="2">  1       21 0.58975761E-03 0.12500000E+03</pdfrwt>
<totfact> 0.23053896E+06</totfact>
</mgrwt>
</event>
<event>
 3    1  0.1619206E-001  0.1250000E+03  0.7546771E-02  0.1235069E+00
         21   -1    0    0  502  501  0.00000000000E+00  0.00000000000E+00  0.42529712033E+01  0.42529712033E+01  0.00000000000E+00 0. -1.
         21   -1    0    0  501  502 -0.00000000000E+00 -0.00000000000E+00 -0.91847553470E+03  0.91847553470E+03  0.00000000000E+00 0. -1.
         25    1    1    2    0    0  0.00000000000E+00  0.00000000000E+00 -0.91422256350E+03  0.92272850590E+03  0.12500000000E+03 0.  0.
<mgrwt>
<rscale>  0 0.12500000E+03</rscale>
<asrwt>0</asrwt>
<pdfrwt beam="1">  1       21 0.65430351E-03 0.12500000E+03</pdfrwt>
<pdfrwt beam="2">  1       21 0.14130387E+00 0.12500000E+03</pdfrwt>
<totfact> 0.25656047E+06</totfact>
</mgrwt>
</event>
<event>
 3    1  0.1619206E-001  0.1250000E+03  0.7546771E-02  0.1235069E+00
         21   -1    0    0  502  501  0.00000000000E+00  0.00000000000E+00  0.11407716328E+02  0.11407716328E+02  0.00000000000E+00 0. -1.
         21   -1    0    0  501  502 -0.00000000000E+00 -0.00000000000E+00 -0.34242173347E+03  0.34242173347E+03  0.00000000000E+00 0. -1.
         25    1    1    2    0    0  0.00000000000E+00  0.00000000000E+00 -0.33101401714E+03  0.35382944980E+03  0.12500000000E+03 0.  0.
<mgrwt>
<rscale>  0 0.12500000E+03</rscale>
<asrwt>0</asrwt>
<pdfrwt beam="1">  1       21 0.17550330E-02 0.12500000E+03</pdfrwt>
<pdfrwt beam="2">  1       21 0.52680274E-01 0.12500000E+03</pdfrwt>
<totfact> 0.51256850E+06</totfact>
</mgrwt>
</event>
<event>
 3    1  0.1619206E-001  0.1250000E+03  0.7546771E-02  0.1235069E+00
         21   -1    0    0  502  501  0.00000000000E+00  0.00000000000E+00  0.18586783735E+03  0.18586783735E+03  0.00000000000E+00 0.  1.
         21   -1    0    0  501  502 -0.00000000000E+00 -0.00000000000E+00 -0.21016277241E+02  0.21016277241E+02  0.00000000000E+00 0.  1.
         25    1    1    2    0    0  0.00000000000E+00  0.00000000000E+00  0.16485156011E+03  0.20688411459E+03  0.12500000000E+03 0.  0.
<mgrwt>
<rscale>  0 0.12500000E+03</rscale>
<asrwt>0</asrwt>
<pdfrwt beam="1">  1       21 0.28595051E-01 0.12500000E+03</pdfrwt>
<pdfrwt beam="2">  1       21 0.32332735E-02 0.12500000E+03</pdfrwt>
<totfact> 0.64188861E+06</totfact>
</mgrwt>
</event>
<event>
 3    1  0.1619206E-001  0.1250000E+03  0.7546771E-02  0.1235069E+00
         21   -1    0    0  502  501  0.00000000000E+00  0.00000000000E+00  0.39673244439E+03  0.39673244439E+03  0.00000000000E+00 0. -1.
         21   -1    0    0  501  502 -0.00000000000E+00 -0.00000000000E+00 -0.98460563416E+01  0.98460563416E+01  0.00000000000E+00 0. -1.
         25    1    1    2    0    0  0.00000000000E+00  0.00000000000E+00  0.38688638805E+03  0.40657850073E+03  0.12500000000E+03 0.  0.
<mgrwt>
<rscale>  0 0.12500000E+03</rscale>
<asrwt>0</asrwt>
<pdfrwt beam="1">  1       21 0.61035748E-01 0.12500000E+03</pdfrwt>
<pdfrwt beam="2">  1       21 0.15147782E-02 0.12500000E+03</pdfrwt>
<totfact> 0.47608051E+06</totfact>
</mgrwt>
</event>
<event>
 3    1  0.1619206E-001  0.1250000E+03  0.7546771E-02  0.1235069E+00
         21   -1    0    0  502  501  0.00000000000E+00  0.00000000000E+00  0.23708634126E+03  0.23708634126E+03  0.00000000000E+00 0. -1.
         21   -1    0    0  501  502 -0.00000000000E+00 -0.00000000000E+00 -0.16476065130E+02  0.16476065130E+02  0.00000000000E+00 0. -1.
         25    1    1    2    0    0  0.00000000000E+00  0.00000000000E+00  0.22061027613E+03  0.25356240639E+03  0.12500000000E+03 0.  0.
<mgrwt>
<rscale>  0 0.12500000E+03</rscale>
<asrwt>0</asrwt>
<pdfrwt beam="1">  1       21 0.36474819E-01 0.12500000E+03</pdfrwt>
<pdfrwt beam="2">  1       21 0.25347794E-02 0.12500000E+03</pdfrwt>
<totfact> 0.59544407E+06</totfact>
</mgrwt>
</event>
<event>
 3    1  0.1619206E-001  0.1250000E+03  0.7546771E-02  0.1235069E+00
         21   -1    0    0  502  501  0.00000000000E+00  0.00000000000E+00  0.49602166930E+02  0.49602166930E+02  0.00000000000E+00 0.  1.
         21   -1    0    0  501  502 -0.00000000000E+00 -0.00000000000E+00 -0.78751599814E+02  0.78751599814E+02  0.00000000000E+00 0.  1.
         25    1    1    2    0    0  0.00000000000E+00  0.00000000000E+00 -0.29149432884E+02  0.12835376674E+03  0.12500000000E+03 0.  0.
<mgrwt>
<rscale>  0 0.12500000E+03</rscale>
<asrwt>0</asrwt>
<pdfrwt beam="1">  1       21 0.76311026E-02 0.12500000E+03</pdfrwt>
<pdfrwt beam="2">  1       21 0.12115631E-01 0.12500000E+03</pdfrwt>
<totfact> 0.73585824E+06</totfact>
</mgrwt>
</event>
<event>
 3    1  0.1619206E-001  0.1250000E+03  0.7546771E-02  0.1235069E+00
         21   -1    0    0  502  501  0.00000000000E+00  0.00000000000E+00  0.21947513938E+02  0.21947513938E+02  0.00000000000E+00 0. -1.
         21   -1    0    0  501  502 -0.00000000000E+00 -0.00000000000E+00 -0.17798143384E+03  0.17798143384E+03  0.00000000000E+00 0. -1.
         25    1    1    2    0    0  0.00000000000E+00  0.00000000000E+00 -0.15603391990E+03  0.19992894778E+03  0.12500000000E+03 0.  0.
<mgrwt>
<rscale>  0 0.12500000E+03</rscale>
<asrwt>0</asrwt>
<pdfrwt beam="1">  1       21 0.33765406E-02 0.12500000E+03</pdfrwt>
<pdfrwt beam="2">  1       21 0.27381759E-01 0.12500000E+03</pdfrwt>
<totfact> 0.64934952E+06</totfact>
</mgrwt>
</event>
<event>
 3    1  0.1619206E-001  0.1250000E+03  0.7546771E-02  0.1235069E+00
         21   -1    0    0  502  501  0.00000000000E+00  0.00000000000E+00  0.45989166926E+03  0.45989166926E+03  0.00000000000E+00 0. -1.
         21   -1    0    0  501  502 -0.00000000000E+00 -0.00000000000E+00 -0.84938481410E+01  0.84938481410E+01  0.00000000000E+00 0. -1.
         25    1    1    2    0    0  0.00000000000E+00  0.00000000000E+00  0.45139782112E+03  0.46838551740E+03  0.12500000000E+03 0.  0.
<mgrwt>
<rscale>  0 0.12500000E+03</rscale>
<asrwt>0</asrwt>
<pdfrwt beam="1">  1       21 0.70752545E-01 0.12500000E+03</pdfrwt>
<pdfrwt beam="2">  1       21 0.13067462E-02 0.12500000E+03</pdfrwt>
<totfact> 0.43812182E+06</totfact>
</mgrwt>
</event>
<event>
 3    1  0.1619206E-001  0.1250000E+03  0.7546771E-02  0.1235069E+00
         21   -1    0    0  502  501  0.00000000000E+00  0.00000000000E+00  0.80170760171E+01  0.80170760171E+01  0.00000000000E+00 0.  1.
         21   -1    0    0  501  502 -0.00000000000E+00 -0.00000000000E+00 -0.48724123255E+03  0.48724123255E+03  0.00000000000E+00 0.  1.
         25    1    1    2    0    0  0.00000000000E+00  0.00000000000E+00 -0.47922415653E+03  0.49525830857E+03  0.12500000000E+03 0.  0.
<mgrwt>
<rscale>  0 0.12500000E+03</rscale>
<asrwt>0</asrwt>
<pdfrwt beam="1">  1       21 0.12333961E-02 0.12500000E+03</pdfrwt>
<pdfrwt beam="2">  1       21 0.74960203E-01 0.12500000E+03</pdfrwt>
<totfact> 0.42302391E+06</totfact>
</mgrwt>
</event>
<event>
 3    1  0.1619206E-001  0.1250000E+03  0.7546771E-02  0.1235069E+00
         21   -1    0    0  502  501  0.00000000000E+00  0.00000000000E+00  0.41568054988E+01  0.41568054988E+01  0.00000000000E+00 0.  1.
         21   -1    0    0  501  502 -0.00000000000E+00 -0.00000000000E+00 -0.93972402633E+03  0.93972402633E+03  0.00000000000E+00 0.  1.
         25    1    1    2    0    0  0.00000000000E+00  0.00000000000E+00 -0.93556722084E+03  0.94388083183E+03  0.12500000000E+03 0.  0.
<mgrwt>
<rscale>  0 0.12500000E+03</rscale>
<asrwt>0</asrwt>
<pdfrwt beam="1">  1       21 0.63950844E-03 0.12500000E+03</pdfrwt>
<pdfrwt beam="2">  1       21 0.14457295E+00 0.12500000E+03</pdfrwt>
<totfact> 0.25075953E+06</totfact>
</mgrwt>
</event>
<event>
 3    1  0.1619206E-001  0.1250000E+03  0.7546771E-02  0.1235069E+00
         21   -1    0    0  502  501  0.00000000000E+00  0.00000000000E+00  0.98128616244E+01  0.98128616244E+01  0.00000000000E+00 0. -1.
         21   -1    0    0  501  502 -0.00000000000E+00 -0.00000000000E+00 -0.39807450156E+03  0.39807450156E+03  0.00000000000E+00 0. -1.
         25    1    1    2    0    0  0.00000000000E+00  0.00000000000E+00 -0.38826163994E+03  0.40788736318E+03  0.12500000000E+03 0.  0.
<mgrwt>
<rscale>  0 0.12500000E+03</rscale>
<asrwt>0</asrwt>
<pdfrwt beam="1">  1       21 0.15096708E-02 0.12500000E+03</pdfrwt>
<pdfrwt beam="2">  1       21 0.61242239E-01 0.12500000E+03</pdfrwt>
<totfact> 0.47522550E+06</totfact>
</mgrwt>
</event>
<event>
 3    1  0.1619206E-001  0.1250000E+03  0.7546771E-02  0.1235069E+00
         21   -1    0    0  502  501  0.00000000000E+00  0.00000000000E+00  0.51949413187E+02  0.51949413187E+02  0.00000000000E+00 0. -1.
         21   -1    0    0  501  502 -0.00000000000E+00 -0.00000000000E+00 -0.75193342145E+02  0.75193342145E+02  0.00000000000E+00 0. -1.
         25    1    1    2    0    0  0.00000000000E+00  0.00000000000E+00 -0.23243928957E+02  0.12714275533E+03  0.12500000000E+03 0.  0.
<mgrwt>
<rscale>  0 0.12500000E+03</rscale>
<asrwt>0</asrwt>
<pdfrwt beam="1">  1       21 0.79922174E-02 0.12500000E+03</pdfrwt>
<pdfrwt beam="2">  1       21 0.11568207E-01 0.12500000E+03</pdfrwt>
<totfact> 0.73749715E+06</totfact>
</mgrwt>
</event>
<event>
 3    1  0.1619206E-001  0.1250000E+03  0.7546771E-02  0.1235069E+00
         21   -1    0    0  502  501  0.00000000000E+00  0.00000000000E+00  0.80839258074E+03  0.80839258074E+03  0.00000000000E+00 0.  1.
         21   -1    0    0  501  502 -0.00000000000E+00 -0.00000000000E+00 -0.48321200529E+01  0.48321200529E+01  0.00000000000E+00 0.  1.
         25    1    1    2    0    0  0.00000000000E+00  0.00000000000E+00  0.80356046069E+03  0.81322470080E+03  0.12500000000E+03 0.  0.
<mgrwt>
<rscale>  0 0.12500000E+03</rscale>
<asrwt>0</asrwt>
<pdfrwt beam="1">  1       21 0.12436798E+00 0.12500000E+03</pdfrwt>
<pdfrwt beam="2">  1       21 0.74340373E-03 0.12500000E+03</pdfrwt>
<totfact> 0.28929331E+06</totfact>
</mgrwt>
</event>
<event>
 3    1  0.1619206E-001  0.1250000E+03  0.7546771E-02  0.1235069E+00
         21   -1    0    0  502  501  0.00000000000E+00  0.00000000000E+00  0.63343932565E+03  0.63343932565E+03  0.00000000000E+00 0. -1.
         21   -1    0    0  501  502 -0.00000000000E+00 -0.00000000000E+00 -0.61667311167E+01  0.61667311167E+01  0.00000000000E+00 0. -1.
         25    1    1    2    0    0  0.00000000000E+00  0.00000000000E+00  0.62727259453E+03  0.63960605677E+03  0.12500000000E+03 0.  0.
<mgrwt>
<rscale>  0 0.12500000E+03</rscale>
<asrwt>0</asrwt>
<pdfrwt beam="1">  1       21 0.97452153E-01 0.12500000E+03</pdfrwt>
<pdfrwt beam="2">  1       21 0.94872836E-03 0.12500000E+03</pdfrwt>
<totfact> 0.35360552E+06</totfact>
</mgrwt>
</event>
<event>
 3    1  0.1619206E-001  0.1250000E+03  0.7546771E-02  0.1235069E+00
         21   -1    0    0  502  501  0.00000000000E+00  0.00000000000E+00  0.28310224766E+02  0.28310224766E+02  0.00000000000E+00 0. -1.
         21   -1    0    0  501  502 -0.00000000000E+00 -0.00000000000E+00 -0.13798018321E+03  0.13798018321E+03  0.00000000000E+00 0. -1.
         25    1    1    2    0    0  0.00000000000E+00  0.00000000000E+00 -0.10966995845E+03  0.16629040798E+03  0.12500000000E+03 0.  0.
<mgrwt>
<rscale>  0 0.12500000E+03</rscale>
<asrwt>0</asrwt>
<pdfrwt beam="1">  1       21 0.43554191E-02 0.12500000E+03</pdfrwt>
<pdfrwt beam="2">  1       21 0.21227721E-01 0.12500000E+03</pdfrwt>
<totfact> 0.68758928E+06</totfact>
</mgrwt>
</event>
<event>
 3    1  0.1619206E-001  0.1250000E+03  0.7546771E-02  0.1235069E+00
         21   -1    0    0  502  501  0.00000000000E+00  0.00000000000E+00  0.25450943536E+02  0.25450943536E+02  0.00000000000E+00 0. -1.
         21   -1    0    0  501  502 -0.00000000000E+00 -0.00000000000E+00 -0.15348153967E+03  0.15348153967E+03  0.00000000000E+00 0. -1.
         25    1    1    2    0    0  0.00000000000E+00  0.00000000000E+00 -0.12803059614E+03  0.17893248321E+03  0.12500000000E+03 0.  0.
<mgrwt>
<rscale>  0 0.12500000E+03</rscale>
<asrwt>0</asrwt>
<pdfrwt beam="1">  1       21 0.39155298E-02 0.12500000E+03</pdfrwt>
<pdfrwt beam="2">  1       21 0.23612544E-01 0.12500000E+03</pdfrwt>
<totfact> 0.67274210E+06</totfact>
</mgrwt>
</event>
<event>
 3    1  0.1619206E-001  0.1250000E+03  0.7546771E-02  0.1235069E+00
         21   -1    0    0  502  501  0.00000000000E+00  0.00000000000E+00  0.30712036772E+03  0.30712036772E+03  0.00000000000E+00 0.  1.
         21   -1    0    0  501  502 -0.00000000000E+00 -0.00000000000E+00 -0.12718954555E+02  0.12718954555E+02  0.00000000000E+00 0.  1.
         25    1    1    2    0    0  0.00000000000E+00  0.00000000000E+00  0.29440141316E+03  0.31983932227E+03  0.12500000000E+03 0.  0.
<mgrwt>
<rscale>  0 0.12500000E+03</rscale>
<asrwt>0</asrwt>
<pdfrwt beam="1">  1       21 0.47249282E-01 0.12500000E+03</pdfrwt>
<pdfrwt beam="2">  1       21 0.19567625E-02 0.12500000E+03</pdfrwt>
<totfact> 0.53846080E+06</totfact>
</mgrwt>
</event>
<event>
 3    1  0.1619206E-001  0.1250000E+03  0.7546771E-02  0.1235069E+00
         21   -1    0    0  502  501  0.00000000000E+00  0.00000000000E+00  0.12114645723E+03  0.12114645723E+03  0.00000000000E+00 0.  1.
         21   -1    0    0  501  502 -0.00000000000E+00 -0.00000000000E+00 -0.32244029990E+02  0.32244029990E+02  0.00000000000E+00 0.  1.
         25    1    1    2    0    0  0.00000000000E+00  0.00000000000E+00  0.88902427235E+02  0.15339048722E+03  0.12500000000E+03 0.  0.
<mgrwt>
<rscale>  0 0.12500000E+03</rscale>
<asrwt>0</asrwt>
<pdfrwt beam="1">  1       21 0.18637916E-01 0.12500000E+03</pdfrwt>
<pdfrwt beam="2">  1       21 0.49606201E-02 0.12500000E+03</pdfrwt>
<totfact> 0.70335847E+06</totfact>
</mgrwt>
</event>
<event>
 3    1  0.1619206E-001  0.1250000E+03  0.7546771E-02  0.1235069E+00
         21   -1    0    0  502  501  0.00000000000E+00  0.00000000000E+00  0.12060837035E+03  0.12060837035E+03  0.00000000000E+00 0.  1.
         21   -1    0    0  501  502 -0.00000000000E+00 -0.00000000000E+00 -0.32387884760E+02  0.32387884760E+02  0.00000000000E+00 0.  1.
         25    1    1    2    0    0  0.00000000000E+00  0.00000000000E+00  0.88220485592E+02  0.15299625511E+03  0.12500000000E+03 0.  0.
<mgrwt>
<rscale>  0 0.12500000E+03</rscale>
<asrwt>0</asrwt>
<pdfrwt beam="1">  1       21 0.18555134E-01 0.12500000E+03</pdfrwt>
<pdfrwt beam="2">  1       21 0.49827516E-02 0.12500000E+03</pdfrwt>
<totfact> 0.70384815E+06</totfact>
</mgrwt>
</event>
<event>
 3    1  0.1619206E-001  0.1250000E+03  0.7546771E-02  0.1235069E+00
         21   -1    0    0  502  501  0.00000000000E+00  0.00000000000E+00  0.13852734736E+03  0.13852734736E+03  0.00000000000E+00 0. -1.
         21   -1    0    0  501  502 -0.00000000000E+00 -0.00000000000E+00 -0.28198403236E+02  0.28198403236E+02  0.00000000000E+00 0. -1.
         25    1    1    2    0    0  0.00000000000E+00  0.00000000000E+00  0.11032894412E+03  0.16672575059E+03  0.12500000000E+03 0.  0.
<mgrwt>
<rscale>  0 0.12500000E+03</rscale>
<asrwt>0</asrwt>
<pdfrwt beam="1">  1       21 0.21311899E-01 0.12500000E+03</pdfrwt>
<pdfrwt beam="2">  1       21 0.43382160E-02 0.12500000E+03</pdfrwt>
<totfact> 0.68706878E+06</totfact>
</mgrwt>
</event>
<event>
 3    1  0.1619206E-001  0.1250000E+03  0.7546771E-02  0.1235069E+00
         21   -1    0    0  502  501  0.00000000000E+00  0.00000000000E+00  0.13035521562E+01  0.13035521562E+01  0.00000000000E+00 0. -1.
         21   -1    0    0  501  502 -0.00000000000E+00 -0.00000000000E+00 -0.29966196454E+04  0.29966196454E+04  0.00000000000E+00 0. -1.
         25    1    1    2    0    0  0.00000000000E+00  0.00000000000E+00 -0.29953160932E+04  0.29979231975E+04  0.12500000000E+03 0.  0.
<mgrwt>
<rscale>  0 0.12500000E+03</rscale>
<asrwt>0</asrwt>
<pdfrwt beam="1">  1       21 0.20054823E-03 0.12500000E+03</pdfrwt>
<pdfrwt beam="2">  1       21 0.46101439E+00 0.12500000E+03</pdfrwt>
<totfact> 0.17432160E+05</totfact>
</mgrwt>
</event>
<event>
 3    1  0.1619206E-001  0.1250000E+03  0.7546771E-02  0.1235069E+00
         21   -1    0    0  502  501  0.00000000000E+00  0.00000000000E+00  0.11410876956E+03  0.11410876956E+03  0.00000000000E+00 0.  1.
         21   -1    0    0  501  502 -0.00000000000E+00 -0.00000000000E+00 -0.34232688821E+02  0.34232688821E+02  0.00000000000E+00 0.  1.
         25    1    1    2    0    0  0.00000000000E+00  0.00000000000E+00  0.79876080737E+02  0.14834145838E+03  0.12500000000E+03 0.  0.
<mgrwt>
<rscale>  0 0.12500000E+03</rscale>
<asrwt>0</asrwt>
<pdfrwt beam="1">  1       21 0.17555195E-01 0.12500000E+03</pdfrwt>
<pdfrwt beam="2">  1       21 0.52665675E-02 0.12500000E+03</pdfrwt>
<totfact> 0.70968170E+06</totfact>
</mgrwt>
</event>
<event>
 3    1  0.1619206E-001  0.1250000E+03  0.7546771E-02  0.1235069E+00
         21   -1    0    0  502  501  0.00000000000E+00  0.00000000000E+00  0.22508099904E+02  0.22508099904E+02  0.00000000000E+00 0.  1.
         21   -1    0    0  501  502 -0.00000000000E+00 -0.00000000000E+00 -0.17354863434E+03  0.17354863434E+03  0.00000000000E+00 0.  1.
         25    1    1    2    0    0  0.00000000000E+00  0.00000000000E+00 -0.15104053444E+03  0.19605673424E+03  0.12500000000E+03 0.  0.
<mgrwt>
<rscale>  0 0.12500000E+03</rscale>
<asrwt>0</asrwt>
<pdfrwt beam="1">  1       21 0.34627845E-02 0.12500000E+03</pdfrwt>
<pdfrwt beam="2">  1       21 0.26699790E-01 0.12500000E+03</pdfrwt>
<totfact> 0.65355551E+06</totfact>
</mgrwt>
</event>
<event>
 3    1  0.1619206E-001  0.1250000E+03  0.7546771E-02  0.1235069E+00
         21   -1    0    0  502  501  0.00000000000E+00  0.00000000000E+00  0.25493874136E+03  0.25493874136E+03  0.00000000000E+00 0. -1.
         21   -1    0    0  501  502 -0.00000000000E+00 -0.00000000000E+00 -0.15322308328E+02  0.15322308328E+02  0.00000000000E+00 0. -1.
         25    1    1    2    0    0  0.00000000000E+00  0.00000000000E+00  0.23961643303E+03  0.27026104969E+03  0.12500000000E+03 0.  0.
<mgrwt>
<rscale>  0 0.12500000E+03</rscale>
<asrwt>0</asrwt>
<pdfrwt beam="1">  1       21 0.39221342E-01 0.12500000E+03</pdfrwt>
<pdfrwt beam="2">  1       21 0.23572784E-02 0.12500000E+03</pdfrwt>
<totfact> 0.58021366E+06</totfact>
</mgrwt>
</event>
<event>
 3    1  0.1619206E-001  0.1250000E+03  0.7546771E-02  0.1235069E+00
         21   -1    0    0  502  501  0.00000000000E+00  0.00000000000E+00  0.39623267198E+03  0.39623267198E+03  0.00000000000E+00 0.  1.
         21   -1    0    0  501  502 -0.00000000000E+00 -0.00000000000E+00 -0.98584752753E+01  0.98584752753E+01  0.00000000000E+00 0.  1.
         25    1    1    2    0    0  0.00000000000E+00  0.00000000000E+00  0.38637419671E+03  0.40609114726E+03  0.12500000000E+03 0.  0.
<mgrwt>
<rscale>  0 0.12500000E+03</rscale>
<asrwt>0</asrwt>
<pdfrwt beam="1">  1       21 0.60958860E-01 0.12500000E+03</pdfrwt>
<pdfrwt beam="2">  1       21 0.15166888E-02 0.12500000E+03</pdfrwt>
<totfact> 0.47639944E+06</totfact>
</mgrwt>
</event>
<event>
 3    1  0.1619206E-001  0.1250000E+03  0.7546771E-02  0.1235069E+00
         21   -1    0    0  502  501  0.00000000000E+00  0.00000000000E+00  0.28194037696E+02  0.28194037696E+02  0.00000000000E+00 0. -1.
         21   -1    0    0  501  502 -0.00000000000E+00 -0.00000000000E+00 -0.13854879681E+03  0.13854879681E+03  0.00000000000E+00 0. -1.
         25    1    1    2    0    0  0.00000000000E+00  0.00000000000E+00 -0.11035475911E+03  0.16674283450E+03  0.12500000000E+03 0.  0.
<mgrwt>
<rscale>  0 0.12500000E+03</rscale>
<asrwt>0</asrwt>
<pdfrwt beam="1">  1       21 0.43375443E-02 0.12500000E+03</pdfrwt>
<pdfrwt beam="2">  1       21 0.21315200E-01 0.12500000E+03</pdfrwt>
<totfact> 0.68704837E+06</totfact>
</mgrwt>
</event>
<event>
 3    1  0.1619206E-001  0.1250000E+03  0.7546771E-02  0.1235069E+00
         21   -1    0    0  502  501  0.00000000000E+00  0.00000000000E+00  0.18351910596E+03  0.18351910596E+03  0.00000000000E+00 0. -1.
         21   -1    0    0  501  502 -0.00000000000E+00 -0.00000000000E+00 -0.21285249727E+02  0.21285249727E+02  0.00000000000E+00 0. -1.
         25    1    1    2    0    0  0.00000000000E+00  0.00000000000E+00  0.16223385623E+03  0.20480435568E+03  0.12500000000E+03 0.  0.
<mgrwt>
<rscale>  0 0.12500000E+03</rscale>
<asrwt>0</asrwt>
<pdfrwt beam="1">  1       21 0.28233708E-01 0.12500000E+03</pdfrwt>
<pdfrwt beam="2">  1       21 0.32746539E-02 0.12500000E+03</pdfrwt>
<totfact> 0.64410357E+06</totfact>
</mgrwt>
</event>
<event>
 3    1  0.1619206E-001  0.1250000E+03  0.7546771E-02  0.1235069E+00
         21   -1    0    0  502  501  0.00000000000E+00  0.00000000000E+00  0.11283657633E+02  0.11283657633E+02  0.00000000000E+00 0.  1.
         21   -1    0    0  501  502 -0.00000000000E+00 -0.00000000000E+00 -0.34618650505E+03  0.34618650505E+03  0.00000000000E+00 0.  1.
         25    1    1    2    0    0  0.00000000000E+00  0.00000000000E+00 -0.33490284741E+03  0.35747016268E+03  0.12500000000E+03 0.  0.
<mgrwt>
<rscale>  0 0.12500000E+03</rscale>
<asrwt>0</asrwt>
<pdfrwt beam="1">  1       21 0.17359475E-02 0.12500000E+03</pdfrwt>
<pdfrwt beam="2">  1       21 0.53259458E-01 0.12500000E+03</pdfrwt>
<totfact> 0.50991430E+06</totfact>
</mgrwt>
</event>
<event>
 3    1  0.1619206E-001  0.1250000E+03  0.7546771E-02  0.1235069E+00
         21   -1    0    0  502  501  0.00000000000E+00  0.00000000000E+00  0.11183675644E+02  0.11183675644E+02  0.00000000000E+00 0. -1.
         21   -1    0    0  501  502 -0.00000000000E+00 -0.00000000000E+00 -0.34928141018E+03  0.34928141018E+03  0.00000000000E+00 0. -1.
         25    1    1    2    0    0  0.00000000000E+00  0.00000000000E+00 -0.33809773453E+03  0.36046508582E+03  0.12500000000E+03 0.  0.
<mgrwt>
<rscale>  0 0.12500000E+03</rscale>
<asrwt>0</asrwt>
<pdfrwt beam="1">  1       21 0.17205654E-02 0.12500000E+03</pdfrwt>
<pdfrwt beam="2">  1       21 0.53735604E-01 0.12500000E+03</pdfrwt>
<totfact> 0.50774720E+06</totfact>
</mgrwt>
</event>
<event>
 3    1  0.1619206E-001  0.1250000E+03  0.7546771E-02  0.1235069E+00
         21   -1    0    0  502  501  0.00000000000E+00  0.00000000000E+00  0.86947164563E+02  0.86947164563E+02  0.00000000000E+00 0. -1.
         21   -1    0    0  501  502 -0.00000000000E+00 -0.00000000000E+00 -0.44926709452E+02  0.44926709452E+02  0.00000000000E+00 0. -1.
         25    1    1    2    0    0  0.00000000000E+00  0.00000000000E+00  0.42020455111E+02  0.13187387402E+03  0.12500000000E+03 0.  0.
<mgrwt>
<rscale>  0 0.12500000E+03</rscale>
<asrwt>0</asrwt>
<pdfrwt beam="1">  1       21 0.13376487E-01 0.12500000E+03</pdfrwt>
<pdfrwt beam="2">  1       21 0.69118015E-02 0.12500000E+03</pdfrwt>
<totfact> 0.73113151E+06</totfact>
</mgrwt>
</event>
<event>
 3    1  0.1619206E-001  0.1250000E+03  0.7546771E-02  0.1235069E+00
         21   -1    0    0  502  501  0.00000000000E+00  0.00000000000E+00  0.25169633967E+01  0.25169633967E+01  0.00000000000E+00 0.  1.
         21   -1    0    0  501  502 -0.00000000000E+00 -0.00000000000E+00 -0.15519693314E+04  0.15519693314E+04  0.00000000000E+00 0.  1.
         25    1    1    2    0    0  0.00000000000E+00  0.00000000000E+00 -0.15494523680E+04  0.15544862948E+04  0.12500000000E+03 0.  0.
<mgrwt>
<rscale>  0 0.12500000E+03</rscale>
<asrwt>0</asrwt>
<pdfrwt beam="1">  1       21 0.38722628E-03 0.12500000E+03</pdfrwt>
<pdfrwt beam="2">  1       21 0.23876381E+00 0.12500000E+03</pdfrwt>
<totfact> 0.13203998E+06</totfact>
</mgrwt>
</event>
<event>
 3    1  0.1619206E-001  0.1250000E+03  0.7546771E-02  0.1235069E+00
         21   -1    0    0  502  501  0.00000000000E+00  0.00000000000E+00  0.68647869635E+02  0.68647869635E+02  0.00000000000E+00 0.  1.
         21   -1    0    0  501  502 -0.00000000000E+00 -0.00000000000E+00 -0.56902712652E+02  0.56902712652E+02  0.00000000000E+00 0.  1.
         25    1    1    2    0    0  0.00000000000E+00  0.00000000000E+00  0.11745156983E+02  0.12555058229E+03  0.12500000000E+03 0.  0.
<mgrwt>
<rscale>  0 0.12500000E+03</rscale>
<asrwt>0</asrwt>
<pdfrwt beam="1">  1       21 0.10561211E-01 0.12500000E+03</pdfrwt>
<pdfrwt beam="2">  1       21 0.87542634E-02 0.12500000E+03</pdfrwt>
<totfact> 0.73968332E+06</totfact>
</mgrwt>
</event>
<event>
 3    1  0.1619206E-001  0.1250000E+03  0.7546771E-02  0.1235069E+00
         21   -1    0    0  502  501  0.00000000000E+00  0.00000000000E+00  0.70247246809E+02  0.70247246809E+02  0.00000000000E+00 0.  1.
         21   -1    0    0  501  502 -0.00000000000E+00 -0.00000000000E+00 -0.55607161525E+02  0.55607161525E+02  0.00000000000E+00 0.  1.
         25    1    1    2    0    0  0.00000000000E+00  0.00000000000E+00  0.14640085284E+02  0.12585440833E+03  0.12500000000E+03 0.  0.
<mgrwt>
<rscale>  0 0.12500000E+03</rscale>
<asrwt>0</asrwt>
<pdfrwt beam="1">  1       21 0.10807269E-01 0.12500000E+03</pdfrwt>
<pdfrwt beam="2">  1       21 0.85549479E-02 0.12500000E+03</pdfrwt>
<totfact> 0.73926142E+06</totfact>
</mgrwt>
</event>
<event>
 3    1  0.1619206E-001  0.1250000E+03  0.7546771E-02  0.1235069E+00
         21   -1    0    0  502  501  0.00000000000E+00  0.00000000000E+00  0.96471211830E+03  0.96471211830E+03  0.00000000000E+00 0. -1.
         21   -1    0    0  501  502 -0.00000000000E+00 -0.00000000000E+00 -0.40491354114E+01  0.40491354114E+01  0.00000000000E+00 0. -1.
         25    1    1    2    0    0  0.00000000000E+00  0.00000000000E+00  0.96066298289E+03  0.96876125371E+03  0.12500000000E+03 0.  0.
<mgrwt>
<rscale>  0 0.12500000E+03</rscale>
<asrwt>0</asrwt>
<pdfrwt beam="1">  1       21 0.14841707E+00 0.12500000E+03</pdfrwt>
<pdfrwt beam="2">  1       21 0.62294468E-03 0.12500000E+03</pdfrwt>
<totfact> 0.24415767E+06</totfact>
</mgrwt>
</event>
<event>
 3    1  0.1619206E-001  0.1250000E+03  0.7546771E-02  0.1235069E+00
         21   -1    0    0  502  501  0.00000000000E+00  0.00000000000E+00  0.12975573955E+02  0.12975573955E+02  0.00000000000E+00 0.  1.
         21   -1    0    0  501  502 -0.00000000000E+00 -0.00000000000E+00 -0.30104641332E+03  0.30104641332E+03  0.00000000000E+00 0.  1.
         25    1    1    2    0    0  0.00000000000E+00  0.00000000000E+00 -0.28807083937E+03  0.31402198728E+03  0.12500000000E+03 0.  0.
<mgrwt>
<rscale>  0 0.12500000E+03</rscale>
<asrwt>0</asrwt>
<pdfrwt beam="1">  1       21 0.19962424E-02 0.12500000E+03</pdfrwt>
<pdfrwt beam="2">  1       21 0.46314828E-01 0.12500000E+03</pdfrwt>
<totfact> 0.54310498E+06</totfact>
</mgrwt>
</event>
<event>
 3    1  0.1619206E-001  0.1250000E+03  0.7546771E-02  0.1235069E+00
         21   -1    0    0  502  501  0.00000000000E+00  0.00000000000E+00  0.48923263414E+02  0.48923263414E+02  0.00000000000E+00 0.  1.
         21   -1    0    0  501  502 -0.00000000000E+00 -0.00000000000E+00 -0.79844428343E+02  0.79844428343E+02  0.00000000000E+00 0.  1.
         25    1    1    2    0    0  0.00000000000E+00  0.00000000000E+00 -0.30921164929E+02  0.12876769176E+03  0.12500000000E+03 0.  0.
<mgrwt>
<rscale>  0 0.12500000E+03</rscale>
<asrwt>0</asrwt>
<pdfrwt beam="1">  1       21 0.75266560E-02 0.12500000E+03</pdfrwt>
<pdfrwt beam="2">  1       21 0.12283758E-01 0.12500000E+03</pdfrwt>
<totfact> 0.73530099E+06</totfact>
</mgrwt>
</event>
<event>
 3    1  0.1619206E-001  0.1250000E+03  0.7546771E-02  0.1235069E+00
         21   -1    0    0  502  501  0.00000000000E+00  0.00000000000E+00  0.66599035139E+03  0.66599035139E+03  0.00000000000E+00 0.  1.
         21   -1    0    0  501  502 -0.00000000000E+00 -0.00000000000E+00 -0.58653252136E+01  0.58653252136E+01  0.00000000000E+00 0.  1.
         25    1    1    2    0    0  0.00000000000E+00  0.00000000000E+00  0.66012502618E+03  0.67185567660E+03  0.12500000000E+03 0.  0.
<mgrwt>
<rscale>  0 0.12500000E+03</rscale>
<asrwt>0</asrwt>
<pdfrwt beam="1">  1       21 0.10245999E+00 0.12500000E+03</pdfrwt>
<pdfrwt beam="2">  1       21 0.90235825E-03 0.12500000E+03</pdfrwt>
<totfact> 0.34023700E+06</totfact>
</mgrwt>
</event>
<event>
 3    1  0.1619206E-001  0.1250000E+03  0.7546771E-02  0.1235069E+00
         21   -1    0    0  502  501  0.00000000000E+00  0.00000000000E+00  0.97903809979E+02  0.97903809979E+02  0.00000000000E+00 0. -1.
         21   -1    0    0  501  502 -0.00000000000E+00 -0.00000000000E+00 -0.39898855834E+02  0.39898855834E+02  0.00000000000E+00 0. -1.
         25    1    1    2    0    0  0.00000000000E+00  0.00000000000E+00  0.58004954145E+02  0.13780266581E+03  0.12500000000E+03 0.  0.
<mgrwt>
<rscale>  0 0.12500000E+03</rscale>
<asrwt>0</asrwt>
<pdfrwt beam="1">  1       21 0.15062125E-01 0.12500000E+03</pdfrwt>
<pdfrwt beam="2">  1       21 0.61382855E-02 0.12500000E+03</pdfrwt>
<totfact> 0.72327462E+06</totfact>
</mgrwt>
</event>
<event>
 3    1  0.1619206E-001  0.1250000E+03  0.7546771E-02  0.1235069E+00
         21   -1    0    0  502  501  0.00000000000E+00  0.00000000000E+00  0.12514299798E+03  0.12514299798E+03  0.00000000000E+00 0.  1.
         21   -1    0    0  501  502 -0.00000000000E+00 -0.00000000000E+00 -0.31214291355E+02  0.31214291355E+02  0.00000000000E+00 0.  1.
         25    1    1    2    0    0  0.00000000000E+00  0.00000000000E+00  0.93928706625E+02  0.15635728933E+03  0.12500000000E+03 0.  0.
<mgrwt>
<rscale>  0 0.12500000E+03</rscale>
<asrwt>0</asrwt>
<pdfrwt beam="1">  1       21 0.19252769E-01 0.12500000E+03</pdfrwt>
<pdfrwt beam="2">  1       21 0.48021987E-02 0.12500000E+03</pdfrwt>
<totfact> 0.69967357E+06</totfact>
</mgrwt>
</event>
<event>
 3    1  0.1619206E-001  0.1250000E+03  0.7546771E-02  0.1235069E+00
         21   -1    0    0  502  501  0.00000000000E+00  0.00000000000E+00  0.40669472224E+03  0.40669472224E+03  0.00000000000E+00 0. -1.
         21   -1    0    0  501  502 -0.00000000000E+00 -0.00000000000E+00 -0.96048701554E+01  0.96048701554E+01  0.00000000000E+00 0. -1.
         25    1    1    2    0    0  0.00000000000E+00  0.00000000000E+00  0.39708985208E+03  0.41629959240E+03  0.12500000000E+03 0.  0.
<mgrwt>
<rscale>  0 0.12500000E+03</rscale>
<asrwt>0</asrwt>
<pdfrwt beam="1">  1       21 0.62568405E-01 0.12500000E+03</pdfrwt>
<pdfrwt beam="2">  1       21 0.14776726E-02 0.12500000E+03</pdfrwt>
<totfact> 0.46978686E+06</totfact>
</mgrwt>
</event>
<event>
 3    1  0.1619206E-001  0.1250000E+03  0.7546771E-02  0.1235069E+00
         21   -1    0    0  502  501  0.00000000000E+00  0.00000000000E+00  0.15534373729E+03  0.15534373729E+03  0.00000000000E+00 0.  1.
         21   -1    0    0  501  502 -0.00000000000E+00 -0.00000000000E+00 -0.25145847963E+02  0.25145847963E+02  0.00000000000E+00 0.  1.
         25    1    1    2    0    0  0.00000000000E+00  0.00000000000E+00  0.13019788933E+03  0.18048958526E+03  0.12500000000E+03 0.  0.
<mgrwt>
<rscale>  0 0.12500000E+03</rscale>
<asrwt>0</asrwt>
<pdfrwt beam="1">  1       21 0.23899036E-01 0.12500000E+03</pdfrwt>
<pdfrwt beam="2">  1       21 0.38685921E-02 0.12500000E+03</pdfrwt>
<totfact> 0.67095418E+06</totfact>
</mgrwt>
</event>
<event>
 3    1  0.1619206E-001  0.1250000E+03  0.7546771E-02  0.1235069E+00
         21   -1    0    0  502  501  0.00000000000E+00  0.00000000000E+00  0.84895854744E+01  0.84895854744E+01  0.00000000000E+00 0.  1.
         21   -1    0    0  501  502 -0.00000000000E+00 -0.00000000000E+00 -0.46012258334E+03  0.46012258334E+03  0.00000000000E+00 0.  1.
         25    1    1    2    0    0  0.00000000000E+00  0.00000000000E+00 -0.45163299787E+03  0.46861216882E+03  0.12500000000E+03 0.  0.
<mgrwt>
<rscale>  0 0.12500000E+03</rscale>
<asrwt>0</asrwt>
<pdfrwt beam="1">  1       21 0.13060898E-02 0.12500000E+03</pdfrwt>
<pdfrwt beam="2">  1       21 0.70788105E-01 0.12500000E+03</pdfrwt>
<totfact> 0.43799100E+06</totfact>
</mgrwt>
</event>
<event>
 3    1  0.1619206E-001  0.1250000E+03  0.7546771E-02  0.1235069E+00
         21   -1    0    0  502  501  0.00000000000E+00  0.00000000000E+00  0.32691688114E+01  0.32691688114E+01  0.00000000000E+00 0. -1.
         21   -1    0    0  501  502 -0.00000000000E+00 -0.00000000000E+00 -0.11948755862E+04  0.11948755862E+04  0.00000000000E+00 0. -1.
         25    1    1    2    0    0  0.00000000000E+00  0.00000000000E+00 -0.11916064174E+04  0.11981447550E+04  0.12500000000E+03 0.  0.
<mgrwt>
<rscale>  0 0.12500000E+03</rscale>
<asrwt>0</asrwt>
<pdfrwt beam="1">  1       21 0.50294946E-03 0.12500000E+03</pdfrwt>
<pdfrwt beam="2">  1       21 0.18382686E+00 0.12500000E+03</pdfrwt>
<totfact> 0.19180394E+06</totfact>
</mgrwt>
</event>
<event>
 3    1  0.1619206E-001  0.1250000E+03  0.7546771E-02  0.1235069E+00
         21   -1    0    0  502  501  0.00000000000E+00  0.00000000000E+00  0.91246155313E+02  0.91246155313E+02  0.00000000000E+00 0. -1.
         21   -1    0    0  501  502 -0.00000000000E+00 -0.00000000000E+00 -0.42810022917E+02  0.42810022917E+02  0.00000000000E+00 0. -1.
         25    1    1    2    0    0  0.00000000000E+00  0.00000000000E+00  0.48436132396E+02  0.13405617823E+03  0.12500000000E+03 0.  0.
<mgrwt>
<rscale>  0 0.12500000E+03</rscale>
<asrwt>0</asrwt>
<pdfrwt beam="1">  1       21 0.14037870E-01 0.12500000E+03</pdfrwt>
<pdfrwt beam="2">  1       21 0.65861574E-02 0.12500000E+03</pdfrwt>
<totfact> 0.72821685E+06</totfact>
</mgrwt>
</event>
<event>
 3    1  0.1619206E-001  0.1250000E+03  0.7546771E-02  0.1235069E+00
         21   -1    0    0  502  501  0.00000000000E+00  0.00000000000E+00  0.66614909660E+02  0.66614909660E+02  0.00000000000E+00 0.  1.
         21   -1    0    0  501  502 -0.00000000000E+00 -0.00000000000E+00 -0.58639274900E+02  0.58639274900E+02  0.00000000000E+00 0.  1.
         25    1    1    2    0    0  0.00000000000E+00  0.00000000000E+00  0.79756347604E+01  0.12525418456E+03  0.12500000000E+03 0.  0.
<mgrwt>
<rscale>  0 0.12500000E+03</rscale>
<asrwt>0</asrwt>
<pdfrwt beam="1">  1       21 0.10248448E-01 0.12500000E+03</pdfrwt>
<pdfrwt beam="2">  1       21 0.90214269E-02 0.12500000E+03</pdfrwt>
<totfact> 0.74009256E+06</totfact>
</mgrwt>
</event>
<event>
 3    1  0.1619206E-001  0.1250000E+03  0.7546771E-02  0.1235069E+00
         21   -1    0    0  502  501  0.00000000000E+00  0.00000000000E+00  0.80688054371E+02  0.80688054371E+02  0.00000000000E+00 0.  1.
         21   -1    0    0  501  502 -0.00000000000E+00 -0.00000000000E+00 -0.48411751038E+02  0.48411751038E+02  0.00000000000E+00 0.  1.
         25    1    1    2    0    0  0.00000000000E+00  0.00000000000E+00  0.32276303333E+02  0.12909980541E+03  0.12500000000E+03 0.  0.
<mgrwt>
<rscale>  0 0.12500000E+03</rscale>
<asrwt>0</asrwt>
<pdfrwt beam="1">  1       21 0.12413547E-01 0.12500000E+03</pdfrwt>
<pdfrwt beam="2">  1       21 0.74479617E-02 0.12500000E+03</pdfrwt>
<totfact> 0.73485480E+06</totfact>
</mgrwt>
</event>
<event>
 3    1  0.1619206E-001  0.1250000E+03  0.7546771E-02  0.1235069E+00
         21   -1    0    0  502  501  0.00000000000E+00  0.00000000000E+00  0.44468425989E+02  0.44468425989E+02  0.00000000000E+00 0. -1.
         21   -1    0    0  501  502 -0.00000000000E+00 -0.00000000000E+00 -0.87843226135E+02  0.87843226135E+02  0.00000000000E+00 0. -1.
         25    1    1    2    0    0  0.00000000000E+00  0.00000000000E+00 -0.43374800146E+02  0.13231165212E+03  0.12500000000E+03 0.  0.
<mgrwt>
<rscale>  0 0.12500000E+03</rscale>
<asrwt>0</asrwt>
<pdfrwt beam="1">  1       21 0.68412964E-02 0.12500000E+03</pdfrwt>
<pdfrwt beam="2">  1       21 0.13514342E-01 0.12500000E+03</pdfrwt>
<totfact> 0.73054456E+06</totfact>
</mgrwt>
</event>
<event>
 3    1  0.1619206E-001  0.1250000E+03  0.7546771E-02  0.1235069E+00
         21   -1    0    0  502  501  0.00000000000E+00  0.00000000000E+00  0.95260457290E+01  0.95260457290E+01  0.00000000000E+00 0.  1.
         21   -1    0    0  501  502 -0.00000000000E+00 -0.00000000000E+00 -0.41005996729E+03  0.41005996729E+03  0.00000000000E+00 0.  1.
         25    1    1    2    0    0  0.00000000000E+00  0.00000000000E+00 -0.40053392156E+03  0.41958601301E+03  0.12500000000E+03 0.  0.
<mgrwt>
<rscale>  0 0.12500000E+03</rscale>
<asrwt>0</asrwt>
<pdfrwt beam="1">  1       21 0.14655456E-02 0.12500000E+03</pdfrwt>
<pdfrwt beam="2">  1       21 0.63086145E-01 0.12500000E+03</pdfrwt>
<totfact> 0.46768800E+06</totfact>
</mgrwt>
</event>
<event>
 3    1  0.1619206E-001  0.1250000E+03  0.7546771E-02  0.1235069E+00
         21   -1    0    0  502  501  0.00000000000E+00  0.00000000000E+00  0.19610498271E+03  0.19610498271E+03  0.00000000000E+00 0. -1.
         21   -1    0    0  501  502 -0.00000000000E+00 -0.00000000000E+00 -0.19919177708E+02  0.19919177708E+02  0.00000000000E+00 0. -1.
         25    1    1    2    0    0  0.00000000000E+00  0.00000000000E+00  0.17618580500E+03  0.21602416042E+03  0.12500000000E+03 0.  0.
<mgrwt>
<rscale>  0 0.12500000E+03</rscale>
<asrwt>0</asrwt>
<pdfrwt beam="1">  1       21 0.30169996E-01 0.12500000E+03</pdfrwt>
<pdfrwt beam="2">  1       21 0.30644890E-02 0.12500000E+03</pdfrwt>
<totfact> 0.63231246E+06</totfact>
</mgrwt>
</event>
<event>
 3    1  0.1619206E-001  0.1250000E+03  0.7546771E-02  0.1235069E+00
         21   -1    0    0  502  501  0.00000000000E+00  0.00000000000E+00  0.48499711132E+02  0.48499711132E+02  0.00000000000E+00 0. -1.
         21   -1    0    0  501  502 -0.00000000000E+00 -0.00000000000E+00 -0.80541716822E+02  0.80541716822E+02  0.00000000000E+00 0. -1.
         25    1    1    2    0    0  0.00000000000E+00  0.00000000000E+00 -0.32042005690E+02  0.12904142795E+03  0.12500000000E+03 0.  0.
<mgrwt>
<rscale>  0 0.12500000E+03</rscale>
<asrwt>0</asrwt>
<pdfrwt beam="1">  1       21 0.74614940E-02 0.12500000E+03</pdfrwt>
<pdfrwt beam="2">  1       21 0.12391033E-01 0.12500000E+03</pdfrwt>
<totfact> 0.73493317E+06</totfact>
</mgrwt>
</event>
<event>
 3    1  0.1619206E-001  0.1250000E+03  0.7546771E-02  0.1235069E+00
         21   -1    0    0  502  501  0.00000000000E+00  0.00000000000E+00  0.11067411182E+02  0.11067411182E+02  0.00000000000E+00 0. -1.
         21   -1    0    0  501  502 -0.00000000000E+00 -0.00000000000E+00 -0.35295065268E+03  0.35295065268E+03  0.00000000000E+00 0. -1.
         25    1    1    2    0    0  0.00000000000E+00  0.00000000000E+00 -0.34188324149E+03  0.36401806386E+03  0.12500000000E+03 0.  0.
<mgrwt>
<rscale>  0 0.12500000E+03</rscale>
<asrwt>0</asrwt>
<pdfrwt beam="1">  1       21 0.17026786E-02 0.12500000E+03</pdfrwt>
<pdfrwt beam="2">  1       21 0.54300103E-01 0.12500000E+03</pdfrwt>
<totfact> 0.50519529E+06</totfact>
</mgrwt>
</event>
<event>
 3    1  0.1619206E-001  0.1250000E+03  0.7546771E-02  0.1235069E+00
         21   -1    0    0  502  501  0.00000000000E+00  0.00000000000E+00  0.12689769461E+03  0.12689769461E+03  0.00000000000E+00 0.  1.
         21   -1    0    0  501  502 -0.00000000000E+00 -0.00000000000E+00 -0.30782671128E+02  0.30782671128E+02  0.00000000000E+00 0.  1.
         25    1    1    2    0    0  0.00000000000E+00  0.00000000000E+00  0.96115023482E+02  0.15768036574E+03  0.12500000000E+03 0.  0.
<mgrwt>
<rscale>  0 0.12500000E+03</rscale>
<asrwt>0</asrwt>
<pdfrwt beam="1">  1       21 0.19522722E-01 0.12500000E+03</pdfrwt>
<pdfrwt beam="2">  1       21 0.47357956E-02 0.12500000E+03</pdfrwt>
<totfact> 0.69804047E+06</totfact>
</mgrwt>
</event>
<event>
 3    1  0.1619206E-001  0.1250000E+03  0.7546771E-02  0.1235069E+00
         21   -1    0    0  502  501  0.00000000000E+00  0.00000000000E+00  0.98747686428E+02  0.98747686428E+02  0.00000000000E+00 0. -1.
         21   -1    0    0  501  502 -0.00000000000E+00 -0.00000000000E+00 -0.39557888810E+02  0.39557888810E+02  0.00000000000E+00 0. -1.
         25    1    1    2    0    0  0.00000000000E+00  0.00000000000E+00  0.59189797618E+02  0.13830557524E+03  0.12500000000E+03 0.  0.
<mgrwt>
<rscale>  0 0.12500000E+03</rscale>
<asrwt>0</asrwt>
<pdfrwt beam="1">  1       21 0.15191952E-01 0.12500000E+03</pdfrwt>
<pdfrwt beam="2">  1       21 0.60858291E-02 0.12500000E+03</pdfrwt>
<totfact> 0.72261291E+06</totfact>
</mgrwt>
</event>
<event>
 3    1  0.1619206E-001  0.1250000E+03  0.7546771E-02  0.1235069E+00
         21   -1    0    0  502  501  0.00000000000E+00  0.00000000000E+00  0.32248224363E+03  0.32248224363E+03  0.00000000000E+00 0. -1.
         21   -1    0    0  501  502 -0.00000000000E+00 -0.00000000000E+00 -0.12113070028E+02  0.12113070028E+02  0.00000000000E+00 0. -1.
         25    1    1    2    0    0  0.00000000000E+00  0.00000000000E+00  0.31036917360E+03  0.33459531366E+03  0.12500000000E+03 0.  0.
<mgrwt>
<rscale>  0 0.12500000E+03</rscale>
<asrwt>0</asrwt>
<pdfrwt beam="1">  1       21 0.49612646E-01 0.12500000E+03</pdfrwt>
<pdfrwt beam="2">  1       21 0.18635495E-02 0.12500000E+03</pdfrwt>
<totfact> 0.52696636E+06</totfact>
</mgrwt>
</event>
<event>
 3    1  0.1619206E-001  0.1250000E+03  0.7546771E-02  0.1235069E+00
         21   -1    0    0  502  501  0.00000000000E+00  0.00000000000E+00  0.19281663973E+02  0.19281663973E+02  0.00000000000E+00 0. -1.
         21   -1    0    0  501  502 -0.00000000000E+00 -0.00000000000E+00 -0.20258884324E+03  0.20258884324E+03  0.00000000000E+00 0. -1.
         25    1    1    2    0    0  0.00000000000E+00  0.00000000000E+00 -0.18330717926E+03  0.22187050721E+03  0.12500000000E+03 0.  0.
<mgrwt>
<rscale>  0 0.12500000E+03</rscale>
<asrwt>0</asrwt>
<pdfrwt beam="1">  1       21 0.29664099E-02 0.12500000E+03</pdfrwt>
<pdfrwt beam="2">  1       21 0.31167514E-01 0.12500000E+03</pdfrwt>
<totfact> 0.62631855E+06</totfact>
</mgrwt>
</event>
<event>
 3    1  0.1619206E-001  0.1250000E+03  0.7546771E-02  0.1235069E+00
         21   -1    0    0  502  501  0.00000000000E+00  0.00000000000E+00  0.14985237672E+02  0.14985237672E+02  0.00000000000E+00 0.  1.
         21   -1    0    0  501  502 -0.00000000000E+00 -0.00000000000E+00 -0.26067320956E+03  0.26067320956E+03  0.00000000000E+00 0.  1.
         25    1    1    2    0    0  0.00000000000E+00  0.00000000000E+00 -0.24568797188E+03  0.27565844723E+03  0.12500000000E+03 0.  0.
<mgrwt>
<rscale>  0 0.12500000E+03</rscale>
<asrwt>0</asrwt>
<pdfrwt beam="1">  1       21 0.23054214E-02 0.12500000E+03</pdfrwt>
<pdfrwt beam="2">  1       21 0.40103567E-01 0.12500000E+03</pdfrwt>
<totfact> 0.57541727E+06</totfact>
</mgrwt>
</event>
<event>
 3    1  0.1619206E-001  0.1250000E+03  0.7546771E-02  0.1235069E+00
         21   -1    0    0  502  501  0.00000000000E+00  0.00000000000E+00  0.31470037976E+03  0.31470037976E+03  0.00000000000E+00 0. -1.
         21   -1    0    0  501  502 -0.00000000000E+00 -0.00000000000E+00 -0.12412600210E+02  0.12412600210E+02  0.00000000000E+00 0. -1.
         25    1    1    2    0    0  0.00000000000E+00  0.00000000000E+00  0.30228777955E+03  0.32711297997E+03  0.12500000000E+03 0.  0.
<mgrwt>
<rscale>  0 0.12500000E+03</rscale>
<asrwt>0</asrwt>
<pdfrwt beam="1">  1       21 0.48415437E-01 0.12500000E+03</pdfrwt>
<pdfrwt beam="2">  1       21 0.19096310E-02 0.12500000E+03</pdfrwt>
<totfact> 0.53274448E+06</totfact>
</mgrwt>
</event>
<event>
 3    1  0.1619206E-001  0.1250000E+03  0.7546771E-02  0.1235069E+00
         21   -1    0    0  502  501  0.00000000000E+00  0.00000000000E+00  0.34448611929E+03  0.34448611929E+03  0.00000000000E+00 0. -1.
         21   -1    0    0  501  502 -0.00000000000E+00 -0.00000000000E+00 -0.11339353841E+02  0.11339353841E+02  0.00000000000E+00 0. -1.
         25    1    1    2    0    0  0.00000000000E+00  0.00000000000E+00  0.33314676545E+03  0.35582547313E+03  0.12500000000E+03 0.  0.
<mgrwt>
<rscale>  0 0.12500000E+03</rscale>
<asrwt>0</asrwt>
<pdfrwt beam="1">  1       21 0.52997857E-01 0.12500000E+03</pdfrwt>
<pdfrwt beam="2">  1       21 0.17445162E-02 0.12500000E+03</pdfrwt>
<totfact> 0.51111065E+06</totfact>
</mgrwt>
</event>
<event>
 3    1  0.1619206E-001  0.1250000E+03  0.7546771E-02  0.1235069E+00
         21   -1    0    0  502  501  0.00000000000E+00  0.00000000000E+00  0.20987993819E+03  0.20987993819E+03  0.00000000000E+00 0. -1.
         21   -1    0    0  501  502 -0.00000000000E+00 -0.00000000000E+00 -0.18611831286E+02  0.18611831286E+02  0.00000000000E+00 0. -1.
         25    1    1    2    0    0  0.00000000000E+00  0.00000000000E+00  0.19126810691E+03  0.22849176948E+03  0.12500000000E+03 0.  0.
<mgrwt>
<rscale>  0 0.12500000E+03</rscale>
<asrwt>0</asrwt>
<pdfrwt beam="1">  1       21 0.32289220E-01 0.12500000E+03</pdfrwt>
<pdfrwt beam="2">  1       21 0.28633588E-02 0.12500000E+03</pdfrwt>
<totfact> 0.61964396E+06</totfact>
</mgrwt>
</event>
<event>
 3    1  0.1619206E-001  0.1250000E+03  0.7546771E-02  0.1235069E+00
         21   -1    0    0  502  501  0.00000000000E+00  0.00000000000E+00  0.99551592217E+01  0.99551592217E+01  0.00000000000E+00 0. -1.
         21   -1    0    0  501  502 -0.00000000000E+00 -0.00000000000E+00 -0.39238448256E+03  0.39238448256E+03  0.00000000000E+00 0. -1.
         25    1    1    2    0    0  0.00000000000E+00  0.00000000000E+00 -0.38242932334E+03  0.40233964178E+03  0.12500000000E+03 0.  0.
<mgrwt>
<rscale>  0 0.12500000E+03</rscale>
<asrwt>0</asrwt>
<pdfrwt beam="1">  1       21 0.15315628E-02 0.12500000E+03</pdfrwt>
<pdfrwt beam="2">  1       21 0.60366850E-01 0.12500000E+03</pdfrwt>
<totfact> 0.47886548E+06</totfact>
</mgrwt>
</event>
<event>
 3    1  0.1619206E-001  0.1250000E+03  0.7546771E-02  0.1235069E+00
         21   -1    0    0  502  501  0.00000000000E+00  0.00000000000E+00  0.80924570757E+02  0.80924570757E+02  0.00000000000E+00 0. -1.
         21   -1    0    0  501  502 -0.00000000000E+00 -0.00000000000E+00 -0.48270259125E+02  0.48270259125E+02  0.00000000000E+00 0. -1.
         25    1    1    2    0    0  0.00000000000E+00  0.00000000000E+00  0.32654311632E+02  0.12919482988E+03  0.12500000000E+03 0.  0.
<mgrwt>
<rscale>  0 0.12500000E+03</rscale>
<asrwt>0</asrwt>
<pdfrwt beam="1">  1       21 0.12449934E-01 0.12500000E+03</pdfrwt>
<pdfrwt beam="2">  1       21 0.74261937E-02 0.12500000E+03</pdfrwt>
<totfact> 0.73472728E+06</totfact>
</mgrwt>
</event>
<event>
 3    1  0.1619206E-001  0.1250000E+03  0.7546771E-02  0.1235069E+00
         21   -1    0    0  502  501  0.00000000000E+00  0.00000000000E+00  0.18085356328E+02  0.18085356328E+02  0.00000000000E+00 0.  1.
         21   -1    0    0  501  502 -0.00000000000E+00 -0.00000000000E+00 -0.21598966198E+03  0.21598966198E+03  0.00000000000E+00 0.  1.
         25    1    1    2    0    0  0.00000000000E+00  0.00000000000E+00 -0.19790430565E+03  0.23407501830E+03  0.12500000000E+03 0.  0.
<mgrwt>
<rscale>  0 0.12500000E+03</rscale>
<asrwt>0</asrwt>
<pdfrwt beam="1">  1       21 0.27823625E-02 0.12500000E+03</pdfrwt>
<pdfrwt beam="2">  1       21 0.33229179E-01 0.12500000E+03</pdfrwt>
<totfact> 0.61410767E+06</totfact>
</mgrwt>
</event>
<event>
 3    1  0.1619206E-001  0.1250000E+03  0.7546771E-02  0.1235069E+00
         21   -1    0    0  502  501  0.00000000000E+00  0.00000000000E+00  0.11967171176E+03  0.11967171176E+03  0.00000000000E+00 0. -1.
         21   -1    0    0  501  502 -0.00000000000E+00 -0.00000000000E+00 -0.32641381514E+02  0.32641381514E+02  0.00000000000E+00 0. -1.
         25    1    1    2    0    0  0.00000000000E+00  0.00000000000E+00  0.87030330245E+02  0.15231309327E+03  0.12500000000E+03 0.  0.
<mgrwt>
<rscale>  0 0.12500000E+03</rscale>
<asrwt>0</asrwt>
<pdfrwt beam="1">  1       21 0.18411032E-01 0.12500000E+03</pdfrwt>
<pdfrwt beam="2">  1       21 0.50217511E-02 0.12500000E+03</pdfrwt>
<totfact> 0.70469830E+06</totfact>
</mgrwt>
</event>
<event>
 3    1  0.1619206E-001  0.1250000E+03  0.7546771E-02  0.1235069E+00
         21   -1    0    0  502  501  0.00000000000E+00  0.00000000000E+00  0.33756829456E+02  0.33756829456E+02  0.00000000000E+00 0. -1.
         21   -1    0    0  501  502 -0.00000000000E+00 -0.00000000000E+00 -0.11571732485E+03  0.11571732485E+03  0.00000000000E+00 0. -1.
         25    1    1    2    0    0  0.00000000000E+00  0.00000000000E+00 -0.81960495393E+02  0.14947415430E+03  0.12500000000E+03 0.  0.
<mgrwt>
<rscale>  0 0.12500000E+03</rscale>
<asrwt>0</asrwt>
<pdfrwt beam="1">  1       21 0.51933584E-02 0.12500000E+03</pdfrwt>
<pdfrwt beam="2">  1       21 0.17802665E-01 0.12500000E+03</pdfrwt>
<totfact> 0.70825319E+06</totfact>
</mgrwt>
</event>
<event>
 3    1  0.1619206E-001  0.1250000E+03  0.7546771E-02  0.1235069E+00
         21   -1    0    0  502  501  0.00000000000E+00  0.00000000000E+00  0.67745076317E+01  0.67745076317E+01  0.00000000000E+00 0.  1.
         21   -1    0    0  501  502 -0.00000000000E+00 -0.00000000000E+00 -0.57661017042E+03  0.57661017042E+03  0.00000000000E+00 0.  1.
         25    1    1    2    0    0  0.00000000000E+00  0.00000000000E+00 -0.56983566279E+03  0.58338467805E+03  0.12500000000E+03 0.  0.
<mgrwt>
<rscale>  0 0.12500000E+03</rscale>
<asrwt>0</asrwt>
<pdfrwt beam="1">  1       21 0.10422321E-02 0.12500000E+03</pdfrwt>
<pdfrwt beam="2">  1       21 0.88709245E-01 0.12500000E+03</pdfrwt>
<totfact> 0.37854985E+06</totfact>
</mgrwt>
</event>
<event>
 3    1  0.1619206E-001  0.1250000E+03  0.7546771E-02  0.1235069E+00
         21   -1    0    0  502  501  0.00000000000E+00  0.00000000000E+00  0.90009978222E+02  0.90009978222E+02  0.00000000000E+00 0.  1.
         21   -1    0    0  501  502 -0.00000000000E+00 -0.00000000000E+00 -0.43397966283E+02  0.43397966283E+02  0.00000000000E+00 0.  1.
         25    1    1    2    0    0  0.00000000000E+00  0.00000000000E+00  0.46612011940E+02  0.13340794451E+03  0.12500000000E+03 0.  0.
<mgrwt>
<rscale>  0 0.12500000E+03</rscale>
<asrwt>0</asrwt>
<pdfrwt beam="1">  1       21 0.13847689E-01 0.12500000E+03</pdfrwt>
<pdfrwt beam="2">  1       21 0.66766102E-02 0.12500000E+03</pdfrwt>
<totfact> 0.72907972E+06</totfact>
</mgrwt>
</event>
<event>
 3    1  0.1619206E-001  0.1250000E+03  0.7546771E-02  0.1235069E+00
         21   -1    0    0  502  501  0.00000000000E+00  0.00000000000E+00  0.16888729240E+03  0.16888729240E+03  0.00000000000E+00 0.  1.
         21   -1    0    0  501  502 -0.00000000000E+00 -0.00000000000E+00 -0.23129330482E+02  0.23129330482E+02  0.00000000000E+00 0.  1.
         25    1    1    2    0    0  0.00000000000E+00  0.00000000000E+00  0.14575796191E+03  0.19201662288E+03  0.12500000000E+03 0.  0.
<mgrwt>
<rscale>  0 0.12500000E+03</rscale>
<asrwt>0</asrwt>
<pdfrwt beam="1">  1       21 0.25982660E-01 0.12500000E+03</pdfrwt>
<pdfrwt beam="2">  1       21 0.35583586E-02 0.12500000E+03</pdfrwt>
<totfact> 0.65799034E+06</totfact>
</mgrwt>
</event>
<event>
 3    1  0.1619206E-001  0.1250000E+03  0.7546771E-02  0.1235069E+00
         21   -1    0    0  502  501  0.00000000000E+00  0.00000000000E+00  0.44396688045E+01  0.44396688045E+01  0.00000000000E+00 0.  1.
         21   -1    0    0  501  502 -0.00000000000E+00 -0.00000000000E+00 -0.87985166733E+03  0.87985166733E+03  0.00000000000E+00 0.  1.
         25    1    1    2    0    0  0.00000000000E+00  0.00000000000E+00 -0.87541199852E+03  0.88429133613E+03  0.12500000000E+03 0.  0.
<mgrwt>
<rscale>  0 0.12500000E+03</rscale>
<asrwt>0</asrwt>
<pdfrwt beam="1">  1       21 0.68302654E-03 0.12500000E+03</pdfrwt>
<pdfrwt beam="2">  1       21 0.13536168E+00 0.12500000E+03</pdfrwt>
<totfact> 0.26751929E+06</totfact>
</mgrwt>
</event>
<event>
 3    1  0.1619206E-001  0.1250000E+03  0.7546771E-02  0.1235069E+00
         21   -1    0    0  502  501  0.00000000000E+00  0.00000000000E+00  0.87764976967E+02  0.87764976967E+02  0.00000000000E+00 0. -1.
         21   -1    0    0  501  502 -0.00000000000E+00 -0.00000000000E+00 -0.44508072981E+02  0.44508072981E+02  0.00000000000E+00 0. -1.
         25    1    1    2    0    0  0.00000000000E+00  0.00000000000E+00  0.43256903987E+02  0.13227304995E+03  0.12500000000E+03 0.  0.
<mgrwt>
<rscale>  0 0.12500000E+03</rscale>
<asrwt>0</asrwt>
<pdfrwt beam="1">  1       21 0.13502304E-01 0.12500000E+03</pdfrwt>
<pdfrwt beam="2">  1       21 0.68473959E-02 0.12500000E+03</pdfrwt>
<totfact> 0.73059627E+06</totfact>
</mgrwt>
</event>
<event>
 3    1  0.1619206E-001  0.1250000E+03  0.7546771E-02  0.1235069E+00
         21   -1    0    0  502  501  0.00000000000E+00  0.00000000000E+00  0.90923687334E+02  0.90923687334E+02  0.00000000000E+00 0.  1.
         21   -1    0    0  501  502 -0.00000000000E+00 -0.00000000000E+00 -0.42961852016E+02  0.42961852016E+02  0.00000000000E+00 0.  1.
         25    1    1    2    0    0  0.00000000000E+00  0.00000000000E+00  0.47961835318E+02  0.13388553935E+03  0.12500000000E+03 0.  0.
<mgrwt>
<rscale>  0 0.12500000E+03</rscale>
<asrwt>0</asrwt>
<pdfrwt beam="1">  1       21 0.13988260E-01 0.12500000E+03</pdfrwt>
<pdfrwt beam="2">  1       21 0.66095157E-02 0.12500000E+03</pdfrwt>
<totfact> 0.72844376E+06</totfact>
</mgrwt>
</event>
<event>
 3    1  0.1619206E-001  0.1250000E+03  0.7546771E-02  0.1235069E+00
         21   -1    0    0  502  501  0.00000000000E+00  0.00000000000E+00  0.39561666811E+02  0.39561666811E+02  0.00000000000E+00 0.  1.
         21   -1    0    0  501  502 -0.00000000000E+00 -0.00000000000E+00 -0.98738256369E+02  0.98738256369E+02  0.00000000000E+00 0.  1.
         25    1    1    2    0    0  0.00000000000E+00  0.00000000000E+00 -0.59176589557E+02  0.13829992318E+03  0.12500000000E+03 0.  0.
<mgrwt>
<rscale>  0 0.12500000E+03</rscale>
<asrwt>0</asrwt>
<pdfrwt beam="1">  1       21 0.60864103E-02 0.12500000E+03</pdfrwt>
<pdfrwt beam="2">  1       21 0.15190501E-01 0.12500000E+03</pdfrwt>
<totfact> 0.72262034E+06</totfact>
</mgrwt>
</event>
<event>
 3    1  0.1619206E-001  0.1250000E+03  0.7546771E-02  0.1235069E+00
         21   -1    0    0  502  501  0.00000000000E+00  0.00000000000E+00  0.34152399101E+02  0.34152399101E+02  0.00000000000E+00 0.  1.
         21   -1    0    0  501  502 -0.00000000000E+00 -0.00000000000E+00 -0.11437703069E+03  0.11437703069E+03  0.00000000000E+00 0.  1.
         25    1    1    2    0    0  0.00000000000E+00  0.00000000000E+00 -0.80224631586E+02  0.14852942979E+03  0.12500000000E+03 0.  0.
<mgrwt>
<rscale>  0 0.12500000E+03</rscale>
<asrwt>0</asrwt>
<pdfrwt beam="1">  1       21 0.52542153E-02 0.12500000E+03</pdfrwt>
<pdfrwt beam="2">  1       21 0.17596466E-01 0.12500000E+03</pdfrwt>
<totfact> 0.70944423E+06</totfact>
</mgrwt>
</event>
<event>
 3    1  0.1619206E-001  0.1250000E+03  0.7546771E-02  0.1235069E+00
         21   -1    0    0  502  501  0.00000000000E+00  0.00000000000E+00  0.17764228394E+02  0.17764228394E+02  0.00000000000E+00 0. -1.
         21   -1    0    0  501  502 -0.00000000000E+00 -0.00000000000E+00 -0.21989415546E+03  0.21989415546E+03  0.00000000000E+00 0. -1.
         25    1    1    2    0    0  0.00000000000E+00  0.00000000000E+00 -0.20212992706E+03  0.23765838385E+03  0.12500000000E+03 0.  0.
<mgrwt>
<rscale>  0 0.12500000E+03</rscale>
<asrwt>0</asrwt>
<pdfrwt beam="1">  1       21 0.27329582E-02 0.12500000E+03</pdfrwt>
<pdfrwt beam="2">  1       21 0.33829870E-01 0.12500000E+03</pdfrwt>
<totfact> 0.61059994E+06</totfact>
</mgrwt>
</event>
<event>
 3    1  0.1619206E-001  0.1250000E+03  0.7546771E-02  0.1235069E+00
         21   -1    0    0  502  501  0.00000000000E+00  0.00000000000E+00  0.50282984414E+03  0.50282984414E+03  0.00000000000E+00 0. -1.
         21   -1    0    0  501  502 -0.00000000000E+00 -0.00000000000E+00 -0.77685325275E+01  0.77685325275E+01  0.00000000000E+00 0. -1.
         25    1    1    2    0    0  0.00000000000E+00  0.00000000000E+00  0.49506131161E+03  0.51059837667E+03  0.12500000000E+03 0.  0.
<mgrwt>
<rscale>  0 0.12500000E+03</rscale>
<asrwt>0</asrwt>
<pdfrwt beam="1">  1       21 0.77358412E-01 0.12500000E+03</pdfrwt>
<pdfrwt beam="2">  1       21 0.11951592E-02 0.12500000E+03</pdfrwt>
<totfact> 0.41475077E+06</totfact>
</mgrwt>
</event>
<event>
 3    1  0.1619206E-001  0.1250000E+03  0.7546771E-02  0.1235069E+00
         21   -1    0    0  502  501  0.00000000000E+00  0.00000000000E+00  0.14493401205E+02  0.14493401205E+02  0.00000000000E+00 0.  1.
         21   -1    0    0  501  502 -0.00000000000E+00 -0.00000000000E+00 -0.26951920703E+03  0.26951920703E+03  0.00000000000E+00 0.  1.
         25    1    1    2    0    0  0.00000000000E+00  0.00000000000E+00 -0.25502580582E+03  0.28401260823E+03  0.12500000000E+03 0.  0.
<mgrwt>
<rscale>  0 0.12500000E+03</rscale>
<asrwt>0</asrwt>
<pdfrwt beam="1">  1       21 0.22297539E-02 0.12500000E+03</pdfrwt>
<pdfrwt beam="2">  1       21 0.41464497E-01 0.12500000E+03</pdfrwt>
<totfact> 0.56811520E+06</totfact>
</mgrwt>
</event>
<event>
 3    1  0.1619206E-001  0.1250000E+03  0.7546771E-02  0.1235069E+00
         21   -1    0    0  502  501  0.00000000000E+00  0.00000000000E+00  0.32052300456E+02  0.32052300456E+02  0.00000000000E+00 0.  1.
         21   -1    0    0  501  502 -0.00000000000E+00 -0.00000000000E+00 -0.12187112764E+03  0.12187112764E+03  0.00000000000E+00 0.  1.
         25    1    1    2    0    0  0.00000000000E+00  0.00000000000E+00 -0.89818827185E+02  0.15392342810E+03  0.12500000000E+03 0.  0.
<mgrwt>
<rscale>  0 0.12500000E+03</rscale>
<asrwt>0</asrwt>
<pdfrwt beam="1">  1       21 0.49311232E-02 0.12500000E+03</pdfrwt>
<pdfrwt beam="2">  1       21 0.18749404E-01 0.12500000E+03</pdfrwt>
<totfact> 0.70269710E+06</totfact>
</mgrwt>
</event>
<event>
 3    1  0.1619206E-001  0.1250000E+03  0.7546771E-02  0.1235069E+00
         21   -1    0    0  502  501  0.00000000000E+00  0.00000000000E+00  0.10088929647E+02  0.10088929647E+02  0.00000000000E+00 0.  1.
         21   -1    0    0  501  502 -0.00000000000E+00 -0.00000000000E+00 -0.38718180588E+03  0.38718180588E+03  0.00000000000E+00 0.  1.
         25    1    1    2    0    0  0.00000000000E+00  0.00000000000E+00 -0.37709287624E+03  0.39727073553E+03  0.12500000000E+03 0.  0.
<mgrwt>
<rscale>  0 0.12500000E+03</rscale>
<asrwt>0</asrwt>
<pdfrwt beam="1">  1       21 0.15521432E-02 0.12500000E+03</pdfrwt>
<pdfrwt beam="2">  1       21 0.59566424E-01 0.12500000E+03</pdfrwt>
<totfact> 0.48222911E+06</totfact>
</mgrwt>
</event>
<event>
 3    1  0.1619206E-001  0.1250000E+03  0.7546771E-02  0.1235069E+00
         21   -1    0    0  502  501  0.00000000000E+00  0.00000000000E+00  0.11899186446E+03  0.11899186446E+03  0.00000000000E+00 0.  1.
         21   -1    0    0  501  502 -0.00000000000E+00 -0.00000000000E+00 -0.32827874558E+02  0.32827874558E+02  0.00000000000E+00 0.  1.
         25    1    1    2    0    0  0.00000000000E+00  0.00000000000E+00  0.86163989905E+02  0.15181973902E+03  0.12500000000E+03 0.  0.
<mgrwt>
<rscale>  0 0.12500000E+03</rscale>
<asrwt>0</asrwt>
<pdfrwt beam="1">  1       21 0.18306440E-01 0.12500000E+03</pdfrwt>
<pdfrwt beam="2">  1       21 0.50504423E-02 0.12500000E+03</pdfrwt>
<totfact> 0.70531351E+06</totfact>
</mgrwt>
</event>
<event>
 3    1  0.1619206E-001  0.1250000E+03  0.7546771E-02  0.1235069E+00
         21   -1    0    0  502  501  0.00000000000E+00  0.00000000000E+00  0.79716179040E+03  0.79716179040E+03  0.00000000000E+00 0. -1.
         21   -1    0    0  501  502 -0.00000000000E+00 -0.00000000000E+00 -0.49001972335E+01  0.49001972335E+01  0.00000000000E+00 0. -1.
         25    1    1    2    0    0  0.00000000000E+00  0.00000000000E+00  0.79226159317E+03  0.80206198764E+03  0.12500000000E+03 0.  0.
<mgrwt>
<rscale>  0 0.12500000E+03</rscale>
<asrwt>0</asrwt>
<pdfrwt beam="1">  1       21 0.12264017E+00 0.12500000E+03</pdfrwt>
<pdfrwt beam="2">  1       21 0.75387713E-03 0.12500000E+03</pdfrwt>
<totfact> 0.29294631E+06</totfact>
</mgrwt>
</event>
<event>
 3    1  0.1619206E-001  0.1250000E+03  0.7546771E-02  0.1235069E+00
         21   -1    0    0  502  501  0.00000000000E+00  0.00000000000E+00  0.25639627612E+01  0.25639627612E+01  0.00000000000E+00 0. -1.
         21   -1    0    0  501  502 -0.00000000000E+00 -0.00000000000E+00 -0.15235205671E+04  0.15235205671E+04  0.00000000000E+00 0. -1.
         25    1    1    2    0    0  0.00000000000E+00  0.00000000000E+00 -0.15209566043E+04  0.15260845299E+04  0.12500000000E+03 0.  0.
<mgrwt>
<rscale>  0 0.12500000E+03</rscale>
<asrwt>0</asrwt>
<pdfrwt beam="1">  1       21 0.39445459E-03 0.12500000E+03</pdfrwt>
<pdfrwt beam="2">  1       21 0.23438850E+00 0.12500000E+03</pdfrwt>
<totfact> 0.13610343E+06</totfact>
</mgrwt>
</event>
<event>
 3    1  0.1619206E-001  0.1250000E+03  0.7546771E-02  0.1235069E+00
         21   -1    0    0  502  501  0.00000000000E+00  0.00000000000E+00  0.27188056824E+02  0.27188056824E+02  0.00000000000E+00 0. -1.
         21   -1    0    0  501  502 -0.00000000000E+00 -0.00000000000E+00 -0.14367521833E+03  0.14367521833E+03  0.00000000000E+00 0. -1.
         25    1    1    2    0    0  0.00000000000E+00  0.00000000000E+00 -0.11648716150E+03  0.17086327515E+03  0.12500000000E+03 0.  0.
<mgrwt>
<rscale>  0 0.12500000E+03</rscale>
<asrwt>0</asrwt>
<pdfrwt beam="1">  1       21 0.41827780E-02 0.12500000E+03</pdfrwt>
<pdfrwt beam="2">  1       21 0.22103879E-01 0.12500000E+03</pdfrwt>
<totfact> 0.68215446E+06</totfact>
</mgrwt>
</event>
<event>
 3    1  0.1619206E-001  0.1250000E+03  0.7546771E-02  0.1235069E+00
         21   -1    0    0  502  501  0.00000000000E+00  0.00000000000E+00  0.16714882422E+01  0.16714882422E+01  0.00000000000E+00 0. -1.
         21   -1    0    0  501  502 -0.00000000000E+00 -0.00000000000E+00 -0.23369892180E+04  0.23369892180E+04  0.00000000000E+00 0. -1.
         25    1    1    2    0    0  0.00000000000E+00  0.00000000000E+00 -0.23353177297E+04  0.23386607062E+04  0.12500000000E+03 0.  0.
<mgrwt>
<rscale>  0 0.12500000E+03</rscale>
<asrwt>0</asrwt>
<pdfrwt beam="1">  1       21 0.25715094E-03 0.12500000E+03</pdfrwt>
<pdfrwt beam="2">  1       21 0.35953834E+00 0.12500000E+03</pdfrwt>
<totfact> 0.50919585E+05</totfact>
</mgrwt>
</event>
<event>
 3    1  0.1619206E-001  0.1250000E+03  0.7546771E-02  0.1235069E+00
         21   -1    0    0  502  501  0.00000000000E+00  0.00000000000E+00  0.33247876877E+01  0.33247876877E+01  0.00000000000E+00 0. -1.
         21   -1    0    0  501  502 -0.00000000000E+00 -0.00000000000E+00 -0.11748870505E+04  0.11748870505E+04  0.00000000000E+00 0. -1.
         25    1    1    2    0    0  0.00000000000E+00  0.00000000000E+00 -0.11715622628E+04  0.11782118382E+04  0.12500000000E+03 0.  0.
<mgrwt>
<rscale>  0 0.12500000E+03</rscale>
<asrwt>0</asrwt>
<pdfrwt beam="1">  1       21 0.51150499E-03 0.12500000E+03</pdfrwt>
<pdfrwt beam="2">  1       21 0.18075214E+00 0.12500000E+03</pdfrwt>
<totfact> 0.19583024E+06</totfact>
</mgrwt>
</event>
<event>
 3    1  0.1619206E-001  0.1250000E+03  0.7546771E-02  0.1235069E+00
         21   -1    0    0  502  501  0.00000000000E+00  0.00000000000E+00  0.18690363296E+03  0.18690363296E+03  0.00000000000E+00 0. -1.
         21   -1    0    0  501  502 -0.00000000000E+00 -0.00000000000E+00 -0.20899807768E+02  0.20899807768E+02  0.00000000000E+00 0. -1.
         25    1    1    2    0    0  0.00000000000E+00  0.00000000000E+00  0.16600382520E+03  0.20780344073E+03  0.12500000000E+03 0.  0.
<mgrwt>
<rscale>  0 0.12500000E+03</rscale>
<asrwt>0</asrwt>
<pdfrwt beam="1">  1       21 0.28754404E-01 0.12500000E+03</pdfrwt>
<pdfrwt beam="2">  1       21 0.32153552E-02 0.12500000E+03</pdfrwt>
<totfact> 0.64091383E+06</totfact>
</mgrwt>
</event>
<event>
 3    1  0.1619206E-001  0.1250000E+03  0.7546771E-02  0.1235069E+00
         21   -1    0    0  502  501  0.00000000000E+00  0.00000000000E+00  0.20985540803E+02  0.20985540803E+02  0.00000000000E+00 0.  1.
         21   -1    0    0  501  502 -0.00000000000E+00 -0.00000000000E+00 -0.18614006837E+03  0.18614006837E+03  0.00000000000E+00 0.  1.
         25    1    1    2    0    0  0.00000000000E+00  0.00000000000E+00 -0.16515452757E+03  0.20712560918E+03  0.12500000000E+03 0.  0.
<mgrwt>
<rscale>  0 0.12500000E+03</rscale>
<asrwt>0</asrwt>
<pdfrwt beam="1">  1       21 0.32285448E-02 0.12500000E+03</pdfrwt>
<pdfrwt beam="2">  1       21 0.28636933E-01 0.12500000E+03</pdfrwt>
<totfact> 0.64163229E+06</totfact>
</mgrwt>
</event>
<event>
 3    1  0.1619206E-001  0.1250000E+03  0.7546771E-02  0.1235069E+00
         21   -1    0    0  502  501  0.00000000000E+00  0.00000000000E+00  0.18123127273E+03  0.18123127273E+03  0.00000000000E+00 0. -1.
         21   -1    0    0  501  502 -0.00000000000E+00 -0.00000000000E+00 -0.21553951154E+02  0.21553951154E+02  0.00000000000E+00 0. -1.
         25    1    1    2    0    0  0.00000000000E+00  0.00000000000E+00  0.15967732158E+03  0.20278522388E+03  0.12500000000E+03 0.  0.
<mgrwt>
<rscale>  0 0.12500000E+03</rscale>
<asrwt>0</asrwt>
<pdfrwt beam="1">  1       21 0.27881733E-01 0.12500000E+03</pdfrwt>
<pdfrwt beam="2">  1       21 0.33159926E-02 0.12500000E+03</pdfrwt>
<totfact> 0.64626699E+06</totfact>
</mgrwt>
</event>
<event>
 3    1  0.1619206E-001  0.1250000E+03  0.7546771E-02  0.1235069E+00
         21   -1    0    0  502  501  0.00000000000E+00  0.00000000000E+00  0.53773812787E+02  0.53773812787E+02  0.00000000000E+00 0.  1.
         21   -1    0    0  501  502 -0.00000000000E+00 -0.00000000000E+00 -0.72642236016E+02  0.72642236016E+02  0.00000000000E+00 0.  1.
         25    1    1    2    0    0  0.00000000000E+00  0.00000000000E+00 -0.18868423229E+02  0.12641604880E+03  0.12500000000E+03 0.  0.
<mgrwt>
<rscale>  0 0.12500000E+03</rscale>
<asrwt>0</asrwt>
<pdfrwt beam="1">  1       21 0.82728943E-02 0.12500000E+03</pdfrwt>
<pdfrwt beam="2">  1       21 0.11175729E-01 0.12500000E+03</pdfrwt>
<totfact> 0.73848868E+06</totfact>
</mgrwt>
</event>
<event>
 3    1  0.1619206E-001  0.1250000E+03  0.7546771E-02  0.1235069E+00
         21   -1    0    0  502  501  0.00000000000E+00  0.00000000000E+00  0.13328359315E+03  0.13328359315E+03  0.00000000000E+00 0.  1.
         21   -1    0    0  501  502 -0.00000000000E+00 -0.00000000000E+00 -0.29307808318E+02  0.29307808318E+02  0.00000000000E+00 0.  1.
         25    1    1    2    0    0  0.00000000000E+00  0.00000000000E+00  0.10397578483E+03  0.16259140147E+03  0.12500000000E+03 0.  0.
<mgrwt>
<rscale>  0 0.12500000E+03</rscale>
<asrwt>0</asrwt>
<pdfrwt beam="1">  1       21 0.20505168E-01 0.12500000E+03</pdfrwt>
<pdfrwt beam="2">  1       21 0.45088937E-02 0.12500000E+03</pdfrwt>
<totfact> 0.69204233E+06</totfact>
</mgrwt>
</event>
<event>
 3    1  0.1619206E-001  0.1250000E+03  0.7546771E-02  0.1235069E+00
         21   -1    0    0  502  501  0.00000000000E+00  0.00000000000E+00  0.15363891311E+03  0.15363891311E+03  0.00000000000E+00 0.  1.
         21   -1    0    0  501  502 -0.00000000000E+00 -0.00000000000E+00 -0.25424873952E+02  0.25424873952E+02  0.00000000000E+00 0.  1.
         25    1    1    2    0    0  0.00000000000E+00  0.00000000000E+00  0.12821403916E+03  0.17906378706E+03  0.12500000000E+03 0.  0.
<mgrwt>
<rscale>  0 0.12500000E+03</rscale>
<asrwt>0</asrwt>
<pdfrwt beam="1">  1       21 0.23636755E-01 0.12500000E+03</pdfrwt>
<pdfrwt beam="2">  1       21 0.39115192E-02 0.12500000E+03</pdfrwt>
<totfact> 0.67259099E+06</totfact>
</mgrwt>
</event>
<event>
 3    1  0.1619206E-001  0.1250000E+03  0.7546771E-02  0.1235069E+00
         21   -1    0    0  502  501  0.00000000000E+00  0.00000000000E+00  0.66202471864E+02  0.66202471864E+02  0.00000000000E+00 0.  1.
         21   -1    0    0  501  502 -0.00000000000E+00 -0.00000000000E+00 -0.59004594391E+02  0.59004594391E+02  0.00000000000E+00 0.  1.
         25    1    1    2    0    0  0.00000000000E+00  0.00000000000E+00  0.71978774737E+01  0.12520706625E+03  0.12500000000E+03 0.  0.
<mgrwt>
<rscale>  0 0.12500000E+03</rscale>
<asrwt>0</asrwt>
<pdfrwt beam="1">  1       21 0.10184996E-01 0.12500000E+03</pdfrwt>
<pdfrwt beam="2">  1       21 0.90776299E-02 0.12500000E+03</pdfrwt>
<totfact> 0.74015618E+06</totfact>
</mgrwt>
</event>
<event>
 3    1  0.1619206E-001  0.1250000E+03  0.7546771E-02  0.1235069E+00
         21   -1    0    0  502  501  0.00000000000E+00  0.00000000000E+00  0.14654050138E+03  0.14654050138E+03  0.00000000000E+00 0. -1.
         21   -1    0    0  501  502 -0.00000000000E+00 -0.00000000000E+00 -0.26656453084E+02  0.26656453084E+02  0.00000000000E+00 0. -1.
         25    1    1    2    0    0  0.00000000000E+00  0.00000000000E+00  0.11988404830E+03  0.17319695446E+03  0.12500000000E+03 0.  0.
<mgrwt>
<rscale>  0 0.12500000E+03</rscale>
<asrwt>0</asrwt>
<pdfrwt beam="1">  1       21 0.22544692E-01 0.12500000E+03</pdfrwt>
<pdfrwt beam="2">  1       21 0.41009929E-02 0.12500000E+03</pdfrwt>
<totfact> 0.67940661E+06</totfact>
</mgrwt>
</event>
<event>
 3    1  0.1619206E-001  0.1250000E+03  0.7546771E-02  0.1235069E+00
         21   -1    0    0  502  501  0.00000000000E+00  0.00000000000E+00  0.43484306230E+01  0.43484306230E+01  0.00000000000E+00 0. -1.
         21   -1    0    0  501  502 -0.00000000000E+00 -0.00000000000E+00 -0.89831259566E+03  0.89831259566E+03  0.00000000000E+00 0. -1.
         25    1    1    2    0    0  0.00000000000E+00  0.00000000000E+00 -0.89396416504E+03  0.90266102628E+03  0.12500000000E+03 0.  0.
<mgrwt>
<rscale>  0 0.12500000E+03</rscale>
<asrwt>0</asrwt>
<pdfrwt beam="1">  1       21 0.66899071E-03 0.12500000E+03</pdfrwt>
<pdfrwt beam="2">  1       21 0.13820165E+00 0.12500000E+03</pdfrwt>
<totfact> 0.26222797E+06</totfact>
</mgrwt>
</event>
<event>
 3    1  0.1619206E-001  0.1250000E+03  0.7546771E-02  0.1235069E+00
         21   -1    0    0  502  501  0.00000000000E+00  0.00000000000E+00  0.42052272580E+02  0.42052272580E+02  0.00000000000E+00 0.  1.
         21   -1    0    0  501  502 -0.00000000000E+00 -0.00000000000E+00 -0.92890342432E+02  0.92890342432E+02  0.00000000000E+00 0.  1.
         25    1    1    2    0    0  0.00000000000E+00  0.00000000000E+00 -0.50838069853E+02  0.13494261501E+03  0.12500000000E+03 0.  0.
<mgrwt>
<rscale>  0 0.12500000E+03</rscale>
<asrwt>0</asrwt>
<pdfrwt beam="1">  1       21 0.64695804E-02 0.12500000E+03</pdfrwt>
<pdfrwt beam="2">  1       21 0.14290822E-01 0.12500000E+03</pdfrwt>
<totfact> 0.72704071E+06</totfact>
</mgrwt>
</event>
<event>
 3    1  0.1619206E-001  0.1250000E+03  0.7546771E-02  0.1235069E+00
         21   -1    0    0  502  501  0.00000000000E+00  0.00000000000E+00  0.92113816044E+01  0.92113816044E+01  0.00000000000E+00 0.  1.
         21   -1    0    0  501  502 -0.00000000000E+00 -0.00000000000E+00 -0.42406776396E+03  0.42406776396E+03  0.00000000000E+00 0.  1.
         25    1    1    2    0    0  0.00000000000E+00  0.00000000000E+00 -0.41485638236E+03  0.43327914557E+03  0.12500000000E+03 0.  0.
<mgrwt>
<rscale>  0 0.12500000E+03</rscale>
<asrwt>0</asrwt>
<pdfrwt beam="1">  1       21 0.14171358E-02 0.12500000E+03</pdfrwt>
<pdfrwt beam="2">  1       21 0.65241185E-01 0.12500000E+03</pdfrwt>
<totfact> 0.45909573E+06</totfact>
</mgrwt>
</event>
<event>
 3    1  0.1619206E-001  0.1250000E+03  0.7546771E-02  0.1235069E+00
         21   -1    0    0  502  501  0.00000000000E+00  0.00000000000E+00  0.31132427061E+01  0.31132427061E+01  0.00000000000E+00 0.  1.
         21   -1    0    0  501  502 -0.00000000000E+00 -0.00000000000E+00 -0.12547206783E+04  0.12547206783E+04  0.00000000000E+00 0.  1.
         25    1    1    2    0    0  0.00000000000E+00  0.00000000000E+00 -0.12516074356E+04  0.12578339210E+04  0.12500000000E+03 0.  0.
<mgrwt>
<rscale>  0 0.12500000E+03</rscale>
<asrwt>0</asrwt>
<pdfrwt beam="1">  1       21 0.47896029E-03 0.12500000E+03</pdfrwt>
<pdfrwt beam="2">  1       21 0.19303400E+00 0.12500000E+03</pdfrwt>
<totfact> 0.18026804E+06</totfact>
</mgrwt>
</event>
<event>
 3    1  0.1619206E-001  0.1250000E+03  0.7546771E-02  0.1235069E+00
         21   -1    0    0  502  501  0.00000000000E+00  0.00000000000E+00  0.41580528413E+02  0.41580528413E+02  0.00000000000E+00 0. -1.
         21   -1    0    0  501  502 -0.00000000000E+00 -0.00000000000E+00 -0.93944212571E+02  0.93944212571E+02  0.00000000000E+00 0. -1.
         25    1    1    2    0    0  0.00000000000E+00  0.00000000000E+00 -0.52363684158E+02  0.13552474098E+03  0.12500000000E+03 0.  0.
<mgrwt>
<rscale>  0 0.12500000E+03</rscale>
<asrwt>0</asrwt>
<pdfrwt beam="1">  1       21 0.63970044E-02 0.12500000E+03</pdfrwt>
<pdfrwt beam="2">  1       21 0.14452956E-01 0.12500000E+03</pdfrwt>
<totfact> 0.72627067E+06</totfact>
</mgrwt>
</event>
<event>
 3    1  0.1619206E-001  0.1250000E+03  0.7546771E-02  0.1235069E+00
         21   -1    0    0  502  501  0.00000000000E+00  0.00000000000E+00  0.14480523241E+02  0.14480523241E+02  0.00000000000E+00 0. -1.
         21   -1    0    0  501  502 -0.00000000000E+00 -0.00000000000E+00 -0.26975889855E+03  0.26975889855E+03  0.00000000000E+00 0. -1.
         25    1    1    2    0    0  0.00000000000E+00  0.00000000000E+00 -0.25527837531E+03  0.28423942179E+03  0.12500000000E+03 0.  0.
<mgrwt>
<rscale>  0 0.12500000E+03</rscale>
<asrwt>0</asrwt>
<pdfrwt beam="1">  1       21 0.22277730E-02 0.12500000E+03</pdfrwt>
<pdfrwt beam="2">  1       21 0.41501366E-01 0.12500000E+03</pdfrwt>
<totfact> 0.56791913E+06</totfact>
</mgrwt>
</event>
<event>
 3    1  0.1619206E-001  0.1250000E+03  0.7546771E-02  0.1235069E+00
         21   -1    0    0  502  501  0.00000000000E+00  0.00000000000E+00  0.22712472849E+02  0.22712472849E+02  0.00000000000E+00 0.  1.
         21   -1    0    0  501  502 -0.00000000000E+00 -0.00000000000E+00 -0.17198699701E+03  0.17198699701E+03  0.00000000000E+00 0.  1.
         25    1    1    2    0    0  0.00000000000E+00  0.00000000000E+00 -0.14927452417E+03  0.19469946986E+03  0.12500000000E+03 0.  0.
<mgrwt>
<rscale>  0 0.12500000E+03</rscale>
<asrwt>0</asrwt>
<pdfrwt beam="1">  1       21 0.34942264E-02 0.12500000E+03</pdfrwt>
<pdfrwt beam="2">  1       21 0.26459539E-01 0.12500000E+03</pdfrwt>
<totfact> 0.65503928E+06</totfact>
</mgrwt>
</event>
<event>
 3    1  0.1619206E-001  0.1250000E+03  0.7546771E-02  0.1235069E+00
         21   -1    0    0  502  501  0.00000000000E+00  0.00000000000E+00  0.84897872760E+01  0.84897872760E+01  0.00000000000E+00 0. -1.
         21   -1    0    0  501  502 -0.00000000000E+00 -0.00000000000E+00 -0.46011164626E+03  0.46011164626E+03  0.00000000000E+00 0. -1.
         25    1    1    2    0    0  0.00000000000E+00  0.00000000000E+00 -0.45162185899E+03  0.46860143354E+03  0.12500000000E+03 0.  0.
<mgrwt>
<rscale>  0 0.12500000E+03</rscale>
<asrwt>0</asrwt>
<pdfrwt beam="1">  1       21 0.13061213E-02 0.12500000E+03</pdfrwt>
<pdfrwt beam="2">  1       21 0.70786399E-01 0.12500000E+03</pdfrwt>
<totfact> 0.43799727E+06</totfact>
</mgrwt>
</event>
<event>
 3    1  0.1619206E-001  0.1250000E+03  0.7546771E-02  0.1235069E+00
         21   -1    0    0  502  501  0.00000000000E+00  0.00000000000E+00  0.91235641081E+02  0.91235641081E+02  0.00000000000E+00 0.  1.
         21   -1    0    0  501  502 -0.00000000000E+00 -0.00000000000E+00 -0.42814956455E+02  0.42814956455E+02  0.00000000000E+00 0.  1.
         25    1    1    2    0    0  0.00000000000E+00  0.00000000000E+00  0.48420684626E+02  0.13405059754E+03  0.12500000000E+03 0.  0.
<mgrwt>
<rscale>  0 0.12500000E+03</rscale>
<asrwt>0</asrwt>
<pdfrwt beam="1">  1       21 0.14036252E-01 0.12500000E+03</pdfrwt>
<pdfrwt beam="2">  1       21 0.65869164E-02 0.12500000E+03</pdfrwt>
<totfact> 0.72822426E+06</totfact>
</mgrwt>
</event>
<event>
 3    1  0.1619206E-001  0.1250000E+03  0.7546771E-02  0.1235069E+00
         21   -1    0    0  502  501  0.00000000000E+00  0.00000000000E+00  0.76638457603E+01  0.76638457603E+01  0.00000000000E+00 0.  1.
         21   -1    0    0  501  502 -0.00000000000E+00 -0.00000000000E+00 -0.50969841020E+03  0.50969841020E+03  0.00000000000E+00 0.  1.
         25    1    1    2    0    0  0.00000000000E+00  0.00000000000E+00 -0.50203456444E+03  0.51736225596E+03  0.12500000000E+03 0.  0.
<mgrwt>
<rscale>  0 0.12500000E+03</rscale>
<asrwt>0</asrwt>
<pdfrwt beam="1">  1       21 0.11790527E-02 0.12500000E+03</pdfrwt>
<pdfrwt beam="2">  1       21 0.78415172E-01 0.12500000E+03</pdfrwt>
<totfact> 0.41117852E+06</totfact>
</mgrwt>
</event>
<event>
 3    1  0.1619206E-001  0.1250000E+03  0.7546771E-02  0.1235069E+00
         21   -1    0    0  502  501  0.00000000000E+00  0.00000000000E+00  0.21840760614E+02  0.21840760614E+02  0.00000000000E+00 0.  1.
         21   -1    0    0  501  502 -0.00000000000E+00 -0.00000000000E+00 -0.17885137194E+03  0.17885137194E+03  0.00000000000E+00 0.  1.
         25    1    1    2    0    0  0.00000000000E+00  0.00000000000E+00 -0.15701061132E+03  0.20069213255E+03  0.12500000000E+03 0.  0.
<mgrwt>
<rscale>  0 0.12500000E+03</rscale>
<asrwt>0</asrwt>
<pdfrwt beam="1">  1       21 0.33601171E-02 0.12500000E+03</pdfrwt>
<pdfrwt beam="2">  1       21 0.27515595E-01 0.12500000E+03</pdfrwt>
<totfact> 0.64852333E+06</totfact>
</mgrwt>
</event>
<event>
 3    1  0.1619206E-001  0.1250000E+03  0.7546771E-02  0.1235069E+00
         21   -1    0    0  502  501  0.00000000000E+00  0.00000000000E+00  0.72232039691E+02  0.72232039691E+02  0.00000000000E+00 0.  1.
         21   -1    0    0  501  502 -0.00000000000E+00 -0.00000000000E+00 -0.54079187252E+02  0.54079187252E+02  0.00000000000E+00 0.  1.
         25    1    1    2    0    0  0.00000000000E+00  0.00000000000E+00  0.18152852439E+02  0.12631122694E+03  0.12500000000E+03 0.  0.
<mgrwt>
<rscale>  0 0.12500000E+03</rscale>
<asrwt>0</asrwt>
<pdfrwt beam="1">  1       21 0.11112622E-01 0.12500000E+03</pdfrwt>
<pdfrwt beam="2">  1       21 0.83198749E-02 0.12500000E+03</pdfrwt>
<totfact> 0.73863238E+06</totfact>
</mgrwt>
</event>
<event>
 3    1  0.1619206E-001  0.1250000E+03  0.7546771E-02  0.1235069E+00
         21   -1    0    0  502  501  0.00000000000E+00  0.00000000000E+00  0.18177966479E+03  0.18177966479E+03  0.00000000000E+00 0. -1.
         21   -1    0    0  501  502 -0.00000000000E+00 -0.00000000000E+00 -0.21488927293E+02  0.21488927293E+02  0.00000000000E+00 0. -1.
         25    1    1    2    0    0  0.00000000000E+00  0.00000000000E+00  0.16029073750E+03  0.20326859208E+03  0.12500000000E+03 0.  0.
<mgrwt>
<rscale>  0 0.12500000E+03</rscale>
<asrwt>0</asrwt>
<pdfrwt beam="1">  1       21 0.27966101E-01 0.12500000E+03</pdfrwt>
<pdfrwt beam="2">  1       21 0.33059889E-02 0.12500000E+03</pdfrwt>
<totfact> 0.64574791E+06</totfact>
</mgrwt>
</event>
<event>
 3    1  0.1619206E-001  0.1250000E+03  0.7546771E-02  0.1235069E+00
         21   -1    0    0  502  501  0.00000000000E+00  0.00000000000E+00  0.73049622534E+01  0.73049622534E+01  0.00000000000E+00 0. -1.
         21   -1    0    0  501  502 -0.00000000000E+00 -0.00000000000E+00 -0.53473924498E+03  0.53473924498E+03  0.00000000000E+00 0. -1.
         25    1    1    2    0    0  0.00000000000E+00  0.00000000000E+00 -0.52743428273E+03  0.54204420724E+03  0.12500000000E+03 0.  0.
<mgrwt>
<rscale>  0 0.12500000E+03</rscale>
<asrwt>0</asrwt>
<pdfrwt beam="1">  1       21 0.11238401E-02 0.12500000E+03</pdfrwt>
<pdfrwt beam="2">  1       21 0.82267592E-01 0.12500000E+03</pdfrwt>
<totfact> 0.39852005E+06</totfact>
</mgrwt>
</event>
<event>
 3    1  0.1619206E-001  0.1250000E+03  0.7546771E-02  0.1235069E+00
         21   -1    0    0  502  501  0.00000000000E+00  0.00000000000E+00  0.31328650897E+01  0.31328650897E+01  0.00000000000E+00 0. -1.
         21   -1    0    0  501  502 -0.00000000000E+00 -0.00000000000E+00 -0.12468618623E+04  0.12468618623E+04  0.00000000000E+00 0. -1.
         25    1    1    2    0    0  0.00000000000E+00  0.00000000000E+00 -0.12437289972E+04  0.12499947273E+04  0.12500000000E+03 0.  0.
<mgrwt>
<rscale>  0 0.12500000E+03</rscale>
<asrwt>0</asrwt>
<pdfrwt beam="1">  1       21 0.48197940E-03 0.12500000E+03</pdfrwt>
<pdfrwt beam="2">  1       21 0.19182484E+00 0.12500000E+03</pdfrwt>
<totfact> 0.18174695E+06</totfact>
</mgrwt>
</event>
<event>
 3    1  0.1619206E-001  0.1250000E+03  0.7546771E-02  0.1235069E+00
         21   -1    0    0  502  501  0.00000000000E+00  0.00000000000E+00  0.57436377069E+02  0.57436377069E+02  0.00000000000E+00 0.  1.
         21   -1    0    0  501  502 -0.00000000000E+00 -0.00000000000E+00 -0.68010034743E+02  0.68010034743E+02  0.00000000000E+00 0.  1.
         25    1    1    2    0    0  0.00000000000E+00  0.00000000000E+00 -0.10573657674E+02  0.12544641181E+03  0.12500000000E+03 0.  0.
<mgrwt>
<rscale>  0 0.12500000E+03</rscale>
<asrwt>0</asrwt>
<pdfrwt beam="1">  1       21 0.88363657E-02 0.12500000E+03</pdfrwt>
<pdfrwt beam="2">  1       21 0.10463082E-01 0.12500000E+03</pdfrwt>
<totfact> 0.73982898E+06</totfact>
</mgrwt>
</event>
<event>
 3    1  0.1619206E-001  0.1250000E+03  0.7546771E-02  0.1235069E+00
         21   -1    0    0  502  501  0.00000000000E+00  0.00000000000E+00  0.50918705567E+02  0.50918705567E+02  0.00000000000E+00 0. -1.
         21   -1    0    0  501  502 -0.00000000000E+00 -0.00000000000E+00 -0.76715422290E+02  0.76715422290E+02  0.00000000000E+00 0. -1.
         25    1    1    2    0    0  0.00000000000E+00  0.00000000000E+00 -0.25796716723E+02  0.12763412786E+03  0.12500000000E+03 0.  0.
<mgrwt>
<rscale>  0 0.12500000E+03</rscale>
<asrwt>0</asrwt>
<pdfrwt beam="1">  1       21 0.78336470E-02 0.12500000E+03</pdfrwt>
<pdfrwt beam="2">  1       21 0.11802373E-01 0.12500000E+03</pdfrwt>
<totfact> 0.73683045E+06</totfact>
</mgrwt>
</event>
<event>
 3    1  0.1619206E-001  0.1250000E+03  0.7546771E-02  0.1235069E+00
         21   -1    0    0  502  501  0.00000000000E+00  0.00000000000E+00  0.22962697216E+02  0.22962697216E+02  0.00000000000E+00 0. -1.
         21   -1    0    0  501  502 -0.00000000000E+00 -0.00000000000E+00 -0.17011285578E+03  0.17011285578E+03  0.00000000000E+00 0. -1.
         25    1    1    2    0    0  0.00000000000E+00  0.00000000000E+00 -0.14715015857E+03  0.19307555300E+03  0.12500000000E+03 0.  0.
<mgrwt>
<rscale>  0 0.12500000E+03</rscale>
<asrwt>0</asrwt>
<pdfrwt beam="1">  1       21 0.35327226E-02 0.12500000E+03</pdfrwt>
<pdfrwt beam="2">  1       21 0.26171209E-01 0.12500000E+03</pdfrwt>
<totfact> 0.65682265E+06</totfact>
</mgrwt>
</event>
<event>
 3    1  0.1619206E-001  0.1250000E+03  0.7546771E-02  0.1235069E+00
         21   -1    0    0  502  501  0.00000000000E+00  0.00000000000E+00  0.52359948240E+03  0.52359948240E+03  0.00000000000E+00 0. -1.
         21   -1    0    0  501  502 -0.00000000000E+00 -0.00000000000E+00 -0.74603778867E+01  0.74603778867E+01  0.00000000000E+00 0. -1.
         25    1    1    2    0    0  0.00000000000E+00  0.00000000000E+00  0.51613910452E+03  0.53105986029E+03  0.12500000000E+03 0.  0.
<mgrwt>
<rscale>  0 0.12500000E+03</rscale>
<asrwt>0</asrwt>
<pdfrwt beam="1">  1       21 0.80553738E-01 0.12500000E+03</pdfrwt>
<pdfrwt beam="2">  1       21 0.11477509E-02 0.12500000E+03</pdfrwt>
<totfact> 0.40408221E+06</totfact>
</mgrwt>
</event>
<event>
 3    1  0.1619206E-001  0.1250000E+03  0.7546771E-02  0.1235069E+00
         21   -1    0    0  502  501  0.00000000000E+00  0.00000000000E+00  0.20387535553E+03  0.20387535553E+03  0.00000000000E+00 0.  1.
         21   -1    0    0  501  502 -0.00000000000E+00 -0.00000000000E+00 -0.19159991112E+02  0.19159991112E+02  0.00000000000E+00 0.  1.
         25    1    1    2    0    0  0.00000000000E+00  0.00000000000E+00  0.18471536442E+03  0.22303534665E+03  0.12500000000E+03 0.  0.
<mgrwt>
<rscale>  0 0.12500000E+03</rscale>
<asrwt>0</asrwt>
<pdfrwt beam="1">  1       21 0.31365438E-01 0.12500000E+03</pdfrwt>
<pdfrwt beam="2">  1       21 0.29476911E-02 0.12500000E+03</pdfrwt>
<totfact> 0.62513624E+06</totfact>
</mgrwt>
</event>
<event>
 3    1  0.1619206E-001  0.1250000E+03  0.7546771E-02  0.1235069E+00
         21   -1    0    0  502  501  0.00000000000E+00  0.00000000000E+00  0.50268496584E+02  0.50268496584E+02  0.00000000000E+00 0. -1.
         21   -1    0    0  501  502 -0.00000000000E+00 -0.00000000000E+00 -0.77707714880E+02  0.77707714880E+02  0.00000000000E+00 0. -1.
         25    1    1    2    0    0  0.00000000000E+00  0.00000000000E+00 -0.27439218295E+02  0.12797621146E+03  0.12500000000E+03 0.  0.
<mgrwt>
<rscale>  0 0.12500000E+03</rscale>
<asrwt>0</asrwt>
<pdfrwt beam="1">  1       21 0.77336148E-02 0.12500000E+03</pdfrwt>
<pdfrwt beam="2">  1       21 0.11955033E-01 0.12500000E+03</pdfrwt>
<totfact> 0.73636773E+06</totfact>
</mgrwt>
</event>
<event>
 3    1  0.1619206E-001  0.1250000E+03  0.7546771E-02  0.1235069E+00
         21   -1    0    0  502  501  0.00000000000E+00  0.00000000000E+00  0.61923401537E+01  0.61923401537E+01  0.00000000000E+00 0. -1.
         21   -1    0    0  501  502 -0.00000000000E+00 -0.00000000000E+00 -0.63081967448E+03  0.63081967448E+03  0.00000000000E+00 0. -1.
         25    1    1    2    0    0  0.00000000000E+00  0.00000000000E+00 -0.62462733433E+03  0.63701201463E+03  0.12500000000E+03 0.  0.
<mgrwt>
<rscale>  0 0.12500000E+03</rscale>
<asrwt>0</asrwt>
<pdfrwt beam="1">  1       21 0.95266715E-03 0.12500000E+03</pdfrwt>
<pdfrwt beam="2">  1       21 0.97049238E-01 0.12500000E+03</pdfrwt>
<totfact> 0.35470514E+06</totfact>
</mgrwt>
</event>
<event>
 3    1  0.1619206E-001  0.1250000E+03  0.7546771E-02  0.1235069E+00
         21   -1    0    0  502  501  0.00000000000E+00  0.00000000000E+00  0.39763500719E+02  0.39763500719E+02  0.00000000000E+00 0. -1.
         21   -1    0    0  501  502 -0.00000000000E+00 -0.00000000000E+00 -0.98237074941E+02  0.98237074941E+02  0.00000000000E+00 0. -1.
         25    1    1    2    0    0  0.00000000000E+00  0.00000000000E+00 -0.58473574222E+02  0.13800057566E+03  0.12500000000E+03 0.  0.
<mgrwt>
<rscale>  0 0.12500000E+03</rscale>
<asrwt>0</asrwt>
<pdfrwt beam="1">  1       21 0.61174618E-02 0.12500000E+03</pdfrwt>
<pdfrwt beam="2">  1       21 0.15113396E-01 0.12500000E+03</pdfrwt>
<totfact> 0.72301416E+06</totfact>
</mgrwt>
</event>
<event>
 3    1  0.1619206E-001  0.1250000E+03  0.7546771E-02  0.1235069E+00
         21   -1    0    0  502  501  0.00000000000E+00  0.00000000000E+00  0.21912255422E+02  0.21912255422E+02  0.00000000000E+00 0.  1.
         21   -1    0    0  501  502 -0.00000000000E+00 -0.00000000000E+00 -0.17826781975E+03  0.17826781975E+03  0.00000000000E+00 0.  1.
         25    1    1    2    0    0  0.00000000000E+00  0.00000000000E+00 -0.15635556433E+03  0.20018007517E+03  0.12500000000E+03 0.  0.
<mgrwt>
<rscale>  0 0.12500000E+03</rscale>
<asrwt>0</asrwt>
<pdfrwt beam="1">  1       21 0.33711161E-02 0.12500000E+03</pdfrwt>
<pdfrwt beam="2">  1       21 0.27425819E-01 0.12500000E+03</pdfrwt>
<totfact> 0.64907745E+06</totfact>
</mgrwt>
</event>
<event>
 3    1  0.1619206E-001  0.1250000E+03  0.7546771E-02  0.1235069E+00
         21   -1    0    0  502  501  0.00000000000E+00  0.00000000000E+00  0.48091638091E+02  0.48091638091E+02  0.00000000000E+00 0. -1.
         21   -1    0    0  501  502 -0.00000000000E+00 -0.00000000000E+00 -0.81225139236E+02  0.81225139236E+02  0.00000000000E+00 0. -1.
         25    1    1    2    0    0  0.00000000000E+00  0.00000000000E+00 -0.33133501145E+02  0.12931677733E+03  0.12500000000E+03 0.  0.
<mgrwt>
<rscale>  0 0.12500000E+03</rscale>
<asrwt>0</asrwt>
<pdfrwt beam="1">  1       21 0.73987136E-02 0.12500000E+03</pdfrwt>
<pdfrwt beam="2">  1       21 0.12496175E-01 0.12500000E+03</pdfrwt>
<totfact> 0.73456372E+06</totfact>
</mgrwt>
</event>
<event>
 3    1  0.1619206E-001  0.1250000E+03  0.7546771E-02  0.1235069E+00
         21   -1    0    0  502  501  0.00000000000E+00  0.00000000000E+00  0.14944528512E+02  0.14944528512E+02  0.00000000000E+00 0. -1.
         21   -1    0    0  501  502 -0.00000000000E+00 -0.00000000000E+00 -0.26138328800E+03  0.26138328800E+03  0.00000000000E+00 0. -1.
         25    1    1    2    0    0  0.00000000000E+00  0.00000000000E+00 -0.24643875949E+03  0.27632781651E+03  0.12500000000E+03 0.  0.
<mgrwt>
<rscale>  0 0.12500000E+03</rscale>
<asrwt>0</asrwt>
<pdfrwt beam="1">  1       21 0.22991583E-02 0.12500000E+03</pdfrwt>
<pdfrwt beam="2">  1       21 0.40212813E-01 0.12500000E+03</pdfrwt>
<totfact> 0.57482645E+06</totfact>
</mgrwt>
</event>
<event>
 3    1  0.1619206E-001  0.1250000E+03  0.7546771E-02  0.1235069E+00
         21   -1    0    0  502  501  0.00000000000E+00  0.00000000000E+00  0.11972418346E+03  0.11972418346E+03  0.00000000000E+00 0. -1.
         21   -1    0    0  501  502 -0.00000000000E+00 -0.00000000000E+00 -0.32627075725E+02  0.32627075725E+02  0.00000000000E+00 0. -1.
         25    1    1    2    0    0  0.00000000000E+00  0.00000000000E+00  0.87097107740E+02  0.15235125919E+03  0.12500000000E+03 0.  0.
<mgrwt>
<rscale>  0 0.12500000E+03</rscale>
<asrwt>0</asrwt>
<pdfrwt beam="1">  1       21 0.18419105E-01 0.12500000E+03</pdfrwt>
<pdfrwt beam="2">  1       21 0.50195502E-02 0.12500000E+03</pdfrwt>
<totfact> 0.70465075E+06</totfact>
</mgrwt>
</event>
<event>
 3    1  0.1619206E-001  0.1250000E+03  0.7546771E-02  0.1235069E+00
         21   -1    0    0  502  501  0.00000000000E+00  0.00000000000E+00  0.14312813147E+02  0.14312813147E+02  0.00000000000E+00 0.  1.
         21   -1    0    0  501  502 -0.00000000000E+00 -0.00000000000E+00 -0.27291979291E+03  0.27291979291E+03  0.00000000000E+00 0.  1.
         25    1    1    2    0    0  0.00000000000E+00  0.00000000000E+00 -0.25860697976E+03  0.28723260606E+03  0.12500000000E+03 0.  0.
<mgrwt>
<rscale>  0 0.12500000E+03</rscale>
<asrwt>0</asrwt>
<pdfrwt beam="1">  1       21 0.22019714E-02 0.12500000E+03</pdfrwt>
<pdfrwt beam="2">  1       21 0.41987658E-01 0.12500000E+03</pdfrwt>
<totfact> 0.56534171E+06</totfact>
</mgrwt>
</event>
<event>
 3    1  0.1619206E-001  0.1250000E+03  0.7546771E-02  0.1235069E+00
         21   -1    0    0  502  501  0.00000000000E+00  0.00000000000E+00  0.62245845409E+03  0.62245845409E+03  0.00000000000E+00 0.  1.
         21   -1    0    0  501  502 -0.00000000000E+00 -0.00000000000E+00 -0.62755192324E+01  0.62755192324E+01  0.00000000000E+00 0.  1.
         25    1    1    2    0    0  0.00000000000E+00  0.00000000000E+00  0.61618293486E+03  0.62873397332E+03  0.12500000000E+03 0.  0.
<mgrwt>
<rscale>  0 0.12500000E+03</rscale>
<asrwt>0</asrwt>
<pdfrwt beam="1">  1       21 0.95762790E-01 0.12500000E+03</pdfrwt>
<pdfrwt beam="2">  1       21 0.96546499E-03 0.12500000E+03</pdfrwt>
<totfact> 0.35824604E+06</totfact>
</mgrwt>
</event>
<event>
 3    1  0.1619206E-001  0.1250000E+03  0.7546771E-02  0.1235069E+00
         21   -1    0    0  502  501  0.00000000000E+00  0.00000000000E+00  0.17573621200E+02  0.17573621200E+02  0.00000000000E+00 0. -1.
         21   -1    0    0  501  502 -0.00000000000E+00 -0.00000000000E+00 -0.22227917374E+03  0.22227917374E+03  0.00000000000E+00 0. -1.
         25    1    1    2    0    0  0.00000000000E+00  0.00000000000E+00 -0.20470555254E+03  0.23985279494E+03  0.12500000000E+03 0.  0.
<mgrwt>
<rscale>  0 0.12500000E+03</rscale>
<asrwt>0</asrwt>
<pdfrwt beam="1">  1       21 0.27036342E-02 0.12500000E+03</pdfrwt>
<pdfrwt beam="2">  1       21 0.34196794E-01 0.12500000E+03</pdfrwt>
<totfact> 0.60846911E+06</totfact>
</mgrwt>
</event>
<event>
 3    1  0.1619206E-001  0.1250000E+03  0.7546771E-02  0.1235069E+00
         21   -1    0    0  502  501  0.00000000000E+00  0.00000000000E+00  0.20001043315E+03  0.20001043315E+03  0.00000000000E+00 0.  1.
         21   -1    0    0  501  502 -0.00000000000E+00 -0.00000000000E+00 -0.19530231191E+02  0.19530231191E+02  0.00000000000E+00 0.  1.
         25    1    1    2    0    0  0.00000000000E+00  0.00000000000E+00  0.18048020196E+03  0.21954066434E+03  0.12500000000E+03 0.  0.
<mgrwt>
<rscale>  0 0.12500000E+03</rscale>
<asrwt>0</asrwt>
<pdfrwt beam="1">  1       21 0.30770834E-01 0.12500000E+03</pdfrwt>
<pdfrwt beam="2">  1       21 0.30046511E-02 0.12500000E+03</pdfrwt>
<totfact> 0.62869517E+06</totfact>
</mgrwt>
</event>
<event>
 3    1  0.1619206E-001  0.1250000E+03  0.7546771E-02  0.1235069E+00
         21   -1    0    0  502  501  0.00000000000E+00  0.00000000000E+00  0.35503468100E+03  0.35503468100E+03  0.00000000000E+00 0.  1.
         21   -1    0    0  501  502 -0.00000000000E+00 -0.00000000000E+00 -0.11002446265E+02  0.11002446265E+02  0.00000000000E+00 0.  1.
         25    1    1    2    0    0  0.00000000000E+00  0.00000000000E+00  0.34403223474E+03  0.36603712727E+03  0.12500000000E+03 0.  0.
<mgrwt>
<rscale>  0 0.12500000E+03</rscale>
<asrwt>0</asrwt>
<pdfrwt beam="1">  1       21 0.54620711E-01 0.12500000E+03</pdfrwt>
<pdfrwt beam="2">  1       21 0.16926843E-02 0.12500000E+03</pdfrwt>
<totfact> 0.50375421E+06</totfact>
</mgrwt>
</event>
<event>
 3    1  0.1619206E-001  0.1250000E+03  0.7546771E-02  0.1235069E+00
         21   -1    0    0  502  501  0.00000000000E+00  0.00000000000E+00  0.65205725663E+03  0.65205725663E+03  0.00000000000E+00 0.  1.
         21   -1    0    0  501  502 -0.00000000000E+00 -0.00000000000E+00 -0.59906549008E+01  0.59906549008E+01  0.00000000000E+00 0.  1.
         25    1    1    2    0    0  0.00000000000E+00  0.00000000000E+00  0.64606660173E+03  0.65804791153E+03  0.12500000000E+03 0.  0.
<mgrwt>
<rscale>  0 0.12500000E+03</rscale>
<asrwt>0</asrwt>
<pdfrwt beam="1">  1       21 0.10031645E+00 0.12500000E+03</pdfrwt>
<pdfrwt beam="2">  1       21 0.92163973E-03 0.12500000E+03</pdfrwt>
<totfact> 0.34590943E+06</totfact>
</mgrwt>
</event>
<event>
 3    1  0.1619206E-001  0.1250000E+03  0.7546771E-02  0.1235069E+00
         21   -1    0    0  502  501  0.00000000000E+00  0.00000000000E+00  0.50411809274E+02  0.50411809274E+02  0.00000000000E+00 0. -1.
         21   -1    0    0  501  502 -0.00000000000E+00 -0.00000000000E+00 -0.77486804308E+02  0.77486804308E+02  0.00000000000E+00 0. -1.
         25    1    1    2    0    0  0.00000000000E+00  0.00000000000E+00 -0.27074995034E+02  0.12789861358E+03  0.12500000000E+03 0.  0.
<mgrwt>
<rscale>  0 0.12500000E+03</rscale>
<asrwt>0</asrwt>
<pdfrwt beam="1">  1       21 0.77556630E-02 0.12500000E+03</pdfrwt>
<pdfrwt beam="2">  1       21 0.11921047E-01 0.12500000E+03</pdfrwt>
<totfact> 0.73647260E+06</totfact>
</mgrwt>
</event>
<event>
 3    1  0.1619206E-001  0.1250000E+03  0.7546771E-02  0.1235069E+00
         21   -1    0    0  502  501  0.00000000000E+00  0.00000000000E+00  0.42018497456E+02  0.42018497456E+02  0.00000000000E+00 0.  1.
         21   -1    0    0  501  502 -0.00000000000E+00 -0.00000000000E+00 -0.92965009138E+02  0.92965009138E+02  0.00000000000E+00 0.  1.
         25    1    1    2    0    0  0.00000000000E+00  0.00000000000E+00 -0.50946511682E+02  0.13498350659E+03  0.12500000000E+03 0.  0.
<mgrwt>
<rscale>  0 0.12500000E+03</rscale>
<asrwt>0</asrwt>
<pdfrwt beam="1">  1       21 0.64643842E-02 0.12500000E+03</pdfrwt>
<pdfrwt beam="2">  1       21 0.14302309E-01 0.12500000E+03</pdfrwt>
<totfact> 0.72698656E+06</totfact>
</mgrwt>
</event>
<event>
 3    1  0.1619206E-001  0.1250000E+03  0.7546771E-02  0.1235069E+00
         21   -1    0    0  502  501  0.00000000000E+00  0.00000000000E+00  0.73936927447E+02  0.73936927447E+02  0.00000000000E+00 0. -1.
         21   -1    0    0  501  502 -0.00000000000E+00 -0.00000000000E+00 -0.52832192720E+02  0.52832192720E+02  0.00000000000E+00 0. -1.
         25    1    1    2    0    0  0.00000000000E+00  0.00000000000E+00  0.21104734728E+02  0.12676912017E+03  0.12500000000E+03 0.  0.
<mgrwt>
<rscale>  0 0.12500000E+03</rscale>
<asrwt>0</asrwt>
<pdfrwt beam="1">  1       21 0.11374912E-01 0.12500000E+03</pdfrwt>
<pdfrwt beam="2">  1       21 0.81280296E-02 0.12500000E+03</pdfrwt>
<totfact> 0.73800601E+06</totfact>
</mgrwt>
</event>
<event>
 3    1  0.1619206E-001  0.1250000E+03  0.7546771E-02  0.1235069E+00
         21   -1    0    0  502  501  0.00000000000E+00  0.00000000000E+00  0.77924806904E+02  0.77924806904E+02  0.00000000000E+00 0.  1.
         21   -1    0    0  501  502 -0.00000000000E+00 -0.00000000000E+00 -0.50128452738E+02  0.50128452738E+02  0.00000000000E+00 0.  1.
         25    1    1    2    0    0  0.00000000000E+00  0.00000000000E+00  0.27796354166E+02  0.12805325964E+03  0.12500000000E+03 0.  0.
<mgrwt>
<rscale>  0 0.12500000E+03</rscale>
<asrwt>0</asrwt>
<pdfrwt beam="1">  1       21 0.11988432E-01 0.12500000E+03</pdfrwt>
<pdfrwt beam="2">  1       21 0.77120697E-02 0.12500000E+03</pdfrwt>
<totfact> 0.73626366E+06</totfact>
</mgrwt>
</event>
<event>
 3    1  0.1619206E-001  0.1250000E+03  0.7546771E-02  0.1235069E+00
         21   -1    0    0  502  501  0.00000000000E+00  0.00000000000E+00  0.42746138870E+03  0.42746138870E+03  0.00000000000E+00 0.  1.
         21   -1    0    0  501  502 -0.00000000000E+00 -0.00000000000E+00 -0.91382522568E+01  0.91382522568E+01  0.00000000000E+00 0.  1.
         25    1    1    2    0    0  0.00000000000E+00  0.00000000000E+00  0.41832313644E+03  0.43659964096E+03  0.12500000000E+03 0.  0.
<mgrwt>
<rscale>  0 0.12500000E+03</rscale>
<asrwt>0</asrwt>
<pdfrwt beam="1">  1       21 0.65763275E-01 0.12500000E+03</pdfrwt>
<pdfrwt beam="2">  1       21 0.14058853E-02 0.12500000E+03</pdfrwt>
<totfact> 0.45704847E+06</totfact>
</mgrwt>
</event>
<event>
 3    1  0.1619206E-001  0.1250000E+03  0.7546771E-02  0.1235069E+00
         21   -1    0    0  502  501  0.00000000000E+00  0.00000000000E+00  0.61944786331E+03  0.61944786331E+03  0.00000000000E+00 0. -1.
         21   -1    0    0  501  502 -0.00000000000E+00 -0.00000000000E+00 -0.63060190072E+01  0.63060190072E+01  0.00000000000E+00 0. -1.
         25    1    1    2    0    0  0.00000000000E+00  0.00000000000E+00  0.61314184431E+03  0.62575388232E+03  0.12500000000E+03 0.  0.
<mgrwt>
<rscale>  0 0.12500000E+03</rscale>
<asrwt>0</asrwt>
<pdfrwt beam="1">  1       21 0.95299623E-01 0.12500000E+03</pdfrwt>
<pdfrwt beam="2">  1       21 0.97015726E-03 0.12500000E+03</pdfrwt>
<totfact> 0.35953263E+06</totfact>
</mgrwt>
</event>
<event>
 3    1  0.1619206E-001  0.1250000E+03  0.7546771E-02  0.1235069E+00
         21   -1    0    0  502  501  0.00000000000E+00  0.00000000000E+00  0.10875725120E+03  0.10875725120E+03  0.00000000000E+00 0.  1.
         21   -1    0    0  501  502 -0.00000000000E+00 -0.00000000000E+00 -0.35917145357E+02  0.35917145357E+02  0.00000000000E+00 0.  1.
         25    1    1    2    0    0  0.00000000000E+00  0.00000000000E+00  0.72840105842E+02  0.14467439656E+03  0.12500000000E+03 0.  0.
<mgrwt>
<rscale>  0 0.12500000E+03</rscale>
<asrwt>0</asrwt>
<pdfrwt beam="1">  1       21 0.16731885E-01 0.12500000E+03</pdfrwt>
<pdfrwt beam="2">  1       21 0.55257147E-02 0.12500000E+03</pdfrwt>
<totfact> 0.71434794E+06</totfact>
</mgrwt>
</event>
<event>
 3    1  0.1619206E-001  0.1250000E+03  0.7546771E-02  0.1235069E+00
         21   -1    0    0  502  501  0.00000000000E+00  0.00000000000E+00  0.53807592162E+02  0.53807592162E+02  0.00000000000E+00 0.  1.
         21   -1    0    0  501  502 -0.00000000000E+00 -0.00000000000E+00 -0.72596632613E+02  0.72596632613E+02  0.00000000000E+00 0.  1.
         25    1    1    2    0    0  0.00000000000E+00  0.00000000000E+00 -0.18789040451E+02  0.12640422478E+03  0.12500000000E+03 0.  0.
<mgrwt>
<rscale>  0 0.12500000E+03</rscale>
<asrwt>0</asrwt>
<pdfrwt beam="1">  1       21 0.82780911E-02 0.12500000E+03</pdfrwt>
<pdfrwt beam="2">  1       21 0.11168713E-01 0.12500000E+03</pdfrwt>
<totfact> 0.73850488E+06</totfact>
</mgrwt>
</event>
<event>
 3    1  0.1619206E-001  0.1250000E+03  0.7546771E-02  0.1235069E+00
         21   -1    0    0  502  501  0.00000000000E+00  0.00000000000E+00  0.65206590539E+02  0.65206590539E+02  0.00000000000E+00 0. -1.
         21   -1    0    0  501  502 -0.00000000000E+00 -0.00000000000E+00 -0.59905754429E+02  0.59905754429E+02  0.00000000000E+00 0. -1.
         25    1    1    2    0    0  0.00000000000E+00  0.00000000000E+00  0.53008361102E+01  0.12511234497E+03  0.12500000000E+03 0.  0.
<mgrwt>
<rscale>  0 0.12500000E+03</rscale>
<asrwt>0</asrwt>
<pdfrwt beam="1">  1       21 0.10031783E-01 0.12500000E+03</pdfrwt>
<pdfrwt beam="2">  1       21 0.92162699E-02 0.12500000E+03</pdfrwt>
<totfact> 0.74028408E+06</totfact>
</mgrwt>
</event>
<event>
 3    1  0.1619206E-001  0.1250000E+03  0.7546771E-02  0.1235069E+00
         21   -1    0    0  502  501  0.00000000000E+00  0.00000000000E+00  0.16492772558E+03  0.16492772558E+03  0.00000000000E+00 0. -1.
         21   -1    0    0  501  502 -0.00000000000E+00 -0.00000000000E+00 -0.23684616920E+02  0.23684616920E+02  0.00000000000E+00 0. -1.
         25    1    1    2    0    0  0.00000000000E+00  0.00000000000E+00  0.14124310866E+03  0.18861234250E+03  0.12500000000E+03 0.  0.
<mgrwt>
<rscale>  0 0.12500000E+03</rscale>
<asrwt>0</asrwt>
<pdfrwt beam="1">  1       21 0.25373495E-01 0.12500000E+03</pdfrwt>
<pdfrwt beam="2">  1       21 0.36437873E-02 0.12500000E+03</pdfrwt>
<totfact> 0.66177022E+06</totfact>
</mgrwt>
</event>
<event>
 3    1  0.1619206E-001  0.1250000E+03  0.7546771E-02  0.1235069E+00
         21   -1    0    0  502  501  0.00000000000E+00  0.00000000000E+00  0.48911909934E+02  0.48911909934E+02  0.00000000000E+00 0.  1.
         21   -1    0    0  501  502 -0.00000000000E+00 -0.00000000000E+00 -0.79862961911E+02  0.79862961911E+02  0.00000000000E+00 0.  1.
         25    1    1    2    0    0  0.00000000000E+00  0.00000000000E+00 -0.30951051977E+02  0.12877487184E+03  0.12500000000E+03 0.  0.
<mgrwt>
<rscale>  0 0.12500000E+03</rscale>
<asrwt>0</asrwt>
<pdfrwt beam="1">  1       21 0.75249092E-02 0.12500000E+03</pdfrwt>
<pdfrwt beam="2">  1       21 0.12286609E-01 0.12500000E+03</pdfrwt>
<totfact> 0.73529134E+06</totfact>
</mgrwt>
</event>
<event>
 3    1  0.1619206E-001  0.1250000E+03  0.7546771E-02  0.1235069E+00
         21   -1    0    0  502  501  0.00000000000E+00  0.00000000000E+00  0.26965721678E+02  0.26965721678E+02  0.00000000000E+00 0.  1.
         21   -1    0    0  501  502 -0.00000000000E+00 -0.00000000000E+00 -0.14485983526E+03  0.14485983526E+03  0.00000000000E+00 0.  1.
         25    1    1    2    0    0  0.00000000000E+00  0.00000000000E+00 -0.11789411358E+03  0.17182555694E+03  0.12500000000E+03 0.  0.
<mgrwt>
<rscale>  0 0.12500000E+03</rscale>
<asrwt>0</asrwt>
<pdfrwt beam="1">  1       21 0.41485725E-02 0.12500000E+03</pdfrwt>
<pdfrwt beam="2">  1       21 0.22286129E-01 0.12500000E+03</pdfrwt>
<totfact> 0.68101882E+06</totfact>
</mgrwt>
</event>
<event>
 3    1  0.1619206E-001  0.1250000E+03  0.7546771E-02  0.1235069E+00
         21   -1    0    0  502  501  0.00000000000E+00  0.00000000000E+00  0.12232245764E+02  0.12232245764E+02  0.00000000000E+00 0. -1.
         21   -1    0    0  501  502 -0.00000000000E+00 -0.00000000000E+00 -0.31934037914E+03  0.31934037914E+03  0.00000000000E+00 0. -1.
         25    1    1    2    0    0  0.00000000000E+00  0.00000000000E+00 -0.30710813338E+03  0.33157262491E+03  0.12500000000E+03 0.  0.
<mgrwt>
<rscale>  0 0.12500000E+03</rscale>
<asrwt>0</asrwt>
<pdfrwt beam="1">  1       21 0.18818843E-02 0.12500000E+03</pdfrwt>
<pdfrwt beam="2">  1       21 0.49129280E-01 0.12500000E+03</pdfrwt>
<totfact> 0.52928831E+06</totfact>
</mgrwt>
</event>
<event>
 3    1  0.1619206E-001  0.1250000E+03  0.7546771E-02  0.1235069E+00
         21   -1    0    0  502  501  0.00000000000E+00  0.00000000000E+00  0.96956700523E+03  0.96956700523E+03  0.00000000000E+00 0. -1.
         21   -1    0    0  501  502 -0.00000000000E+00 -0.00000000000E+00 -0.40288602840E+01  0.40288602840E+01  0.00000000000E+00 0. -1.
         25    1    1    2    0    0  0.00000000000E+00  0.00000000000E+00  0.96553814494E+03  0.97359586551E+03  0.12500000000E+03 0.  0.
<mgrwt>
<rscale>  0 0.12500000E+03</rscale>
<asrwt>0</asrwt>
<pdfrwt beam="1">  1       21 0.14916397E+00 0.12500000E+03</pdfrwt>
<pdfrwt beam="2">  1       21 0.61982543E-03 0.12500000E+03</pdfrwt>
<totfact> 0.24290153E+06</totfact>
</mgrwt>
</event>
<event>
 3    1  0.1619206E-001  0.1250000E+03  0.7546771E-02  0.1235069E+00
         21   -1    0    0  502  501  0.00000000000E+00  0.00000000000E+00  0.65867675441E+01  0.65867675441E+01  0.00000000000E+00 0.  1.
         21   -1    0    0  501  502 -0.00000000000E+00 -0.00000000000E+00 -0.59304506707E+03  0.59304506707E+03  0.00000000000E+00 0.  1.
         25    1    1    2    0    0  0.00000000000E+00  0.00000000000E+00 -0.58645829953E+03  0.59963183462E+03  0.12500000000E+03 0.  0.
<mgrwt>
<rscale>  0 0.12500000E+03</rscale>
<asrwt>0</asrwt>
<pdfrwt beam="1">  1       21 0.10133485E-02 0.12500000E+03</pdfrwt>
<pdfrwt beam="2">  1       21 0.91237732E-01 0.12500000E+03</pdfrwt>
<totfact> 0.37109277E+06</totfact>
</mgrwt>
</event>
<event>
 3    1  0.1619206E-001  0.1250000E+03  0.7546771E-02  0.1235069E+00
         21   -1    0    0  502  501  0.00000000000E+00  0.00000000000E+00  0.19934934418E+03  0.19934934418E+03  0.00000000000E+00 0. -1.
         21   -1    0    0  501  502 -0.00000000000E+00 -0.00000000000E+00 -0.19594997997E+02  0.19594997997E+02  0.00000000000E+00 0. -1.
         25    1    1    2    0    0  0.00000000000E+00  0.00000000000E+00  0.17975434618E+03  0.21894434218E+03  0.12500000000E+03 0.  0.
<mgrwt>
<rscale>  0 0.12500000E+03</rscale>
<asrwt>0</asrwt>
<pdfrwt beam="1">  1       21 0.30669128E-01 0.12500000E+03</pdfrwt>
<pdfrwt beam="2">  1       21 0.30146152E-02 0.12500000E+03</pdfrwt>
<totfact> 0.62930602E+06</totfact>
</mgrwt>
</event>
<event>
 3    1  0.1619206E-001  0.1250000E+03  0.7546771E-02  0.1235069E+00
         21   -1    0    0  502  501  0.00000000000E+00  0.00000000000E+00  0.36123179693E+03  0.36123179693E+03  0.00000000000E+00 0.  1.
         21   -1    0    0  501  502 -0.00000000000E+00 -0.00000000000E+00 -0.10813693682E+02  0.10813693682E+02  0.00000000000E+00 0.  1.
         25    1    1    2    0    0  0.00000000000E+00  0.00000000000E+00  0.35041810325E+03  0.37204549061E+03  0.12500000000E+03 0.  0.
<mgrwt>
<rscale>  0 0.12500000E+03</rscale>
<asrwt>0</asrwt>
<pdfrwt beam="1">  1       21 0.55574113E-01 0.12500000E+03</pdfrwt>
<pdfrwt beam="2">  1       21 0.16636455E-02 0.12500000E+03</pdfrwt>
<totfact> 0.49950396E+06</totfact>
</mgrwt>
</event>
<event>
 3    1  0.1619206E-001  0.1250000E+03  0.7546771E-02  0.1235069E+00
         21   -1    0    0  502  501  0.00000000000E+00  0.00000000000E+00  0.78557262953E+01  0.78557262953E+01  0.00000000000E+00 0. -1.
         21   -1    0    0  501  502 -0.00000000000E+00 -0.00000000000E+00 -0.49724873973E+03  0.49724873973E+03  0.00000000000E+00 0. -1.
         25    1    1    2    0    0  0.00000000000E+00  0.00000000000E+00 -0.48939301344E+03  0.50510446603E+03  0.12500000000E+03 0.  0.
<mgrwt>
<rscale>  0 0.12500000E+03</rscale>
<asrwt>0</asrwt>
<pdfrwt beam="1">  1       21 0.12085732E-02 0.12500000E+03</pdfrwt>
<pdfrwt beam="2">  1       21 0.76499812E-01 0.12500000E+03</pdfrwt>
<totfact> 0.41768588E+06</totfact>
</mgrwt>
</event>
<event>
 3    1  0.1619206E-001  0.1250000E+03  0.7546771E-02  0.1235069E+00
         21   -1    0    0  502  501  0.00000000000E+00  0.00000000000E+00  0.14585806805E+04  0.14585806805E+04  0.00000000000E+00 0. -1.
         21   -1    0    0  501  502 -0.00000000000E+00 -0.00000000000E+00 -0.26781171945E+01  0.26781171945E+01  0.00000000000E+00 0. -1.
         25    1    1    2    0    0  0.00000000000E+00  0.00000000000E+00  0.14559025633E+04  0.14612587977E+04  0.12500000000E+03 0.  0.
<mgrwt>
<rscale>  0 0.12500000E+03</rscale>
<asrwt>0</asrwt>
<pdfrwt beam="1">  1       21 0.22439639E+00 0.12500000E+03</pdfrwt>
<pdfrwt beam="2">  1       21 0.41201920E-03 0.12500000E+03</pdfrwt>
<totfact> 0.14577162E+06</totfact>
</mgrwt>
</event>
<event>
 3    1  0.1619206E-001  0.1250000E+03  0.7546771E-02  0.1235069E+00
         21   -1    0    0  502  501  0.00000000000E+00  0.00000000000E+00  0.12522884529E+02  0.12522884529E+02  0.00000000000E+00 0. -1.
         21   -1    0    0  501  502 -0.00000000000E+00 -0.00000000000E+00 -0.31192893226E+03  0.31192893226E+03  0.00000000000E+00 0. -1.
         25    1    1    2    0    0  0.00000000000E+00  0.00000000000E+00 -0.29940604773E+03  0.32445181679E+03  0.12500000000E+03 0.  0.
<mgrwt>
<rscale>  0 0.12500000E+03</rscale>
<asrwt>0</asrwt>
<pdfrwt beam="1">  1       21 0.19265976E-02 0.12500000E+03</pdfrwt>
<pdfrwt beam="2">  1       21 0.47989067E-01 0.12500000E+03</pdfrwt>
<totfact> 0.53482433E+06</totfact>
</mgrwt>
</event>
<event>
 3    1  0.1619206E-001  0.1250000E+03  0.7546771E-02  0.1235069E+00
         21   -1    0    0  502  501  0.00000000000E+00  0.00000000000E+00  0.21377389213E+02  0.21377389213E+02  0.00000000000E+00 0.  1.
         21   -1    0    0  501  502 -0.00000000000E+00 -0.00000000000E+00 -0.18272811339E+03  0.18272811339E+03  0.00000000000E+00 0.  1.
         25    1    1    2    0    0  0.00000000000E+00  0.00000000000E+00 -0.16135072417E+03  0.20410550260E+03  0.12500000000E+03 0.  0.
<mgrwt>
<rscale>  0 0.12500000E+03</rscale>
<asrwt>0</asrwt>
<pdfrwt beam="1">  1       21 0.32888292E-02 0.12500000E+03</pdfrwt>
<pdfrwt beam="2">  1       21 0.28112017E-01 0.12500000E+03</pdfrwt>
<totfact> 0.64485090E+06</totfact>
</mgrwt>
</event>
<event>
 3    1  0.1619206E-001  0.1250000E+03  0.7546771E-02  0.1235069E+00
         21   -1    0    0  502  501  0.00000000000E+00  0.00000000000E+00  0.26916824251E+03  0.26916824251E+03  0.00000000000E+00 0. -1.
         21   -1    0    0  501  502 -0.00000000000E+00 -0.00000000000E+00 -0.14512298938E+02  0.14512298938E+02  0.00000000000E+00 0. -1.
         25    1    1    2    0    0  0.00000000000E+00  0.00000000000E+00  0.25465594357E+03  0.28368054145E+03  0.12500000000E+03 0.  0.
<mgrwt>
<rscale>  0 0.12500000E+03</rscale>
<asrwt>0</asrwt>
<pdfrwt beam="1">  1       21 0.41410495E-01 0.12500000E+03</pdfrwt>
<pdfrwt beam="2">  1       21 0.22326616E-02 0.12500000E+03</pdfrwt>
<totfact> 0.56840254E+06</totfact>
</mgrwt>
</event>
<event>
 3    1  0.1619206E-001  0.1250000E+03  0.7546771E-02  0.1235069E+00
         21   -1    0    0  502  501  0.00000000000E+00  0.00000000000E+00  0.38789049930E+01  0.38789049930E+01  0.00000000000E+00 0.  1.
         21   -1    0    0  501  502 -0.00000000000E+00 -0.00000000000E+00 -0.10070496718E+04  0.10070496718E+04  0.00000000000E+00 0.  1.
         25    1    1    2    0    0  0.00000000000E+00  0.00000000000E+00 -0.10031707668E+04  0.10109285767E+04  0.12500000000E+03 0.  0.
<mgrwt>
<rscale>  0 0.12500000E+03</rscale>
<asrwt>0</asrwt>
<pdfrwt beam="1">  1       21 0.59675392E-03 0.12500000E+03</pdfrwt>
<pdfrwt beam="2">  1       21 0.15493090E+00 0.12500000E+03</pdfrwt>
<totfact> 0.23347662E+06</totfact>
</mgrwt>
</event>
<event>
 3    1  0.1619206E-001  0.1250000E+03  0.7546771E-02  0.1235069E+00
         21   -1    0    0  502  501  0.00000000000E+00  0.00000000000E+00  0.14455935256E+03  0.14455935256E+03  0.00000000000E+00 0.  1.
         21   -1    0    0  501  502 -0.00000000000E+00 -0.00000000000E+00 -0.27021772932E+02  0.27021772932E+02  0.00000000000E+00 0.  1.
         25    1    1    2    0    0  0.00000000000E+00  0.00000000000E+00  0.11753757963E+03  0.17158112549E+03  0.12500000000E+03 0.  0.
<mgrwt>
<rscale>  0 0.12500000E+03</rscale>
<asrwt>0</asrwt>
<pdfrwt beam="1">  1       21 0.22239900E-01 0.12500000E+03</pdfrwt>
<pdfrwt beam="2">  1       21 0.41571959E-02 0.12500000E+03</pdfrwt>
<totfact> 0.68130695E+06</totfact>
</mgrwt>
</event>
<event>
 3    1  0.1619206E-001  0.1250000E+03  0.7546771E-02  0.1235069E+00
         21   -1    0    0  502  501  0.00000000000E+00  0.00000000000E+00  0.25435080129E+02  0.25435080129E+02  0.00000000000E+00 0.  1.
         21   -1    0    0  501  502 -0.00000000000E+00 -0.00000000000E+00 -0.15357726338E+03  0.15357726338E+03  0.00000000000E+00 0.  1.
         25    1    1    2    0    0  0.00000000000E+00  0.00000000000E+00 -0.12814218325E+03  0.17901234351E+03  0.12500000000E+03 0.  0.
<mgrwt>
<rscale>  0 0.12500000E+03</rscale>
<asrwt>0</asrwt>
<pdfrwt beam="1">  1       21 0.39130893E-02 0.12500000E+03</pdfrwt>
<pdfrwt beam="2">  1       21 0.23627271E-01 0.12500000E+03</pdfrwt>
<totfact> 0.67265018E+06</totfact>
</mgrwt>
</event>
<event>
 3    1  0.1619206E-001  0.1250000E+03  0.7546771E-02  0.1235069E+00
         21   -1    0    0  502  501  0.00000000000E+00  0.00000000000E+00  0.17352754862E+04  0.17352754862E+04  0.00000000000E+00 0.  1.
         21   -1    0    0  501  502 -0.00000000000E+00 -0.00000000000E+00 -0.22510834914E+01  0.22510834914E+01  0.00000000000E+00 0.  1.
         25    1    1    2    0    0  0.00000000000E+00  0.00000000000E+00  0.17330244027E+04  0.17375265697E+04  0.12500000000E+03 0.  0.
<mgrwt>
<rscale>  0 0.12500000E+03</rscale>
<asrwt>0</asrwt>
<pdfrwt beam="1">  1       21 0.26696439E+00 0.12500000E+03</pdfrwt>
<pdfrwt beam="2">  1       21 0.34632192E-03 0.12500000E+03</pdfrwt>
<totfact> 0.10808110E+06</totfact>
</mgrwt>
</event>
<event>
 3    1  0.1619206E-001  0.1250000E+03  0.7546771E-02  0.1235069E+00
         21   -1    0    0  502  501  0.00000000000E+00  0.00000000000E+00  0.85483713288E+02  0.85483713288E+02  0.00000000000E+00 0. -1.
         21   -1    0    0  501  502 -0.00000000000E+00 -0.00000000000E+00 -0.45695839005E+02  0.45695839005E+02  0.00000000000E+00 0. -1.
         25    1    1    2    0    0  0.00000000000E+00  0.00000000000E+00  0.39787874283E+02  0.13117955229E+03  0.12500000000E+03 0.  0.
<mgrwt>
<rscale>  0 0.12500000E+03</rscale>
<asrwt>0</asrwt>
<pdfrwt beam="1">  1       21 0.13151340E-01 0.12500000E+03</pdfrwt>
<pdfrwt beam="2">  1       21 0.70301291E-02 0.12500000E+03</pdfrwt>
<totfact> 0.73206485E+06</totfact>
</mgrwt>
</event>
<event>
 3    1  0.1619206E-001  0.1250000E+03  0.7546771E-02  0.1235069E+00
         21   -1    0    0  502  501  0.00000000000E+00  0.00000000000E+00  0.18148149137E+02  0.18148149137E+02  0.00000000000E+00 0.  1.
         21   -1    0    0  501  502 -0.00000000000E+00 -0.00000000000E+00 -0.21524233521E+03  0.21524233521E+03  0.00000000000E+00 0.  1.
         25    1    1    2    0    0  0.00000000000E+00  0.00000000000E+00 -0.19709418607E+03  0.23339048435E+03  0.12500000000E+03 0.  0.
<mgrwt>
<rscale>  0 0.12500000E+03</rscale>
<asrwt>0</asrwt>
<pdfrwt beam="1">  1       21 0.27920229E-02 0.12500000E+03</pdfrwt>
<pdfrwt beam="2">  1       21 0.33114206E-01 0.12500000E+03</pdfrwt>
<totfact> 0.61478176E+06</totfact>
</mgrwt>
</event>
<event>
 3    1  0.1619206E-001  0.1250000E+03  0.7546771E-02  0.1235069E+00
         21   -1    0    0  502  501  0.00000000000E+00  0.00000000000E+00  0.32554576272E+03  0.32554576272E+03  0.00000000000E+00 0. -1.
         21   -1    0    0  501  502 -0.00000000000E+00 -0.00000000000E+00 -0.11999081073E+02  0.11999081073E+02  0.00000000000E+00 0. -1.
         25    1    1    2    0    0  0.00000000000E+00  0.00000000000E+00  0.31354668165E+03  0.33754484379E+03  0.12500000000E+03 0.  0.
<mgrwt>
<rscale>  0 0.12500000E+03</rscale>
<asrwt>0</asrwt>
<pdfrwt beam="1">  1       21 0.50083957E-01 0.12500000E+03</pdfrwt>
<pdfrwt beam="2">  1       21 0.18460127E-02 0.12500000E+03</pdfrwt>
<totfact> 0.52471647E+06</totfact>
</mgrwt>
</event>
<event>
 3    1  0.1619206E-001  0.1250000E+03  0.7546771E-02  0.1235069E+00
         21   -1    0    0  502  501  0.00000000000E+00  0.00000000000E+00  0.76930531063E+02  0.76930531063E+02  0.00000000000E+00 0.  1.
         21   -1    0    0  501  502 -0.00000000000E+00 -0.00000000000E+00 -0.50776329580E+02  0.50776329580E+02  0.00000000000E+00 0.  1.
         25    1    1    2    0    0  0.00000000000E+00  0.00000000000E+00  0.26154201484E+02  0.12770686064E+03  0.12500000000E+03 0.  0.
<mgrwt>
<rscale>  0 0.12500000E+03</rscale>
<asrwt>0</asrwt>
<pdfrwt beam="1">  1       21 0.11835466E-01 0.12500000E+03</pdfrwt>
<pdfrwt beam="2">  1       21 0.78117429E-02 0.12500000E+03</pdfrwt>
<totfact> 0.73673197E+06</totfact>
</mgrwt>
</event>
<event>
 3    1  0.1619206E-001  0.1250000E+03  0.7546771E-02  0.1235069E+00
         21   -1    0    0  502  501  0.00000000000E+00  0.00000000000E+00  0.11494190755E+03  0.11494190755E+03  0.00000000000E+00 0. -1.
         21   -1    0    0  501  502 -0.00000000000E+00 -0.00000000000E+00 -0.33984558664E+02  0.33984558664E+02  0.00000000000E+00 0. -1.
         25    1    1    2    0    0  0.00000000000E+00  0.00000000000E+00  0.80957348884E+02  0.14892646621E+03  0.12500000000E+03 0.  0.
<mgrwt>
<rscale>  0 0.12500000E+03</rscale>
<asrwt>0</asrwt>
<pdfrwt beam="1">  1       21 0.17683370E-01 0.12500000E+03</pdfrwt>
<pdfrwt beam="2">  1       21 0.52283937E-02 0.12500000E+03</pdfrwt>
<totfact> 0.70894318E+06</totfact>
</mgrwt>
</event>
<event>
 3    1  0.1619206E-001  0.1250000E+03  0.7546771E-02  0.1235069E+00
         21   -1    0    0  502  501  0.00000000000E+00  0.00000000000E+00  0.10292429042E+02  0.10292429042E+02  0.00000000000E+00 0. -1.
         21   -1    0    0  501  502 -0.00000000000E+00 -0.00000000000E+00 -0.37952654170E+03  0.37952654170E+03  0.00000000000E+00 0. -1.
         25    1    1    2    0    0  0.00000000000E+00  0.00000000000E+00 -0.36923411266E+03  0.38981897074E+03  0.12500000000E+03 0.  0.
<mgrwt>
<rscale>  0 0.12500000E+03</rscale>
<asrwt>0</asrwt>
<pdfrwt beam="1">  1       21 0.15834510E-02 0.12500000E+03</pdfrwt>
<pdfrwt beam="2">  1       21 0.58388686E-01 0.12500000E+03</pdfrwt>
<totfact> 0.48724066E+06</totfact>
</mgrwt>
</event>
<event>
 3    1  0.1619206E-001  0.1250000E+03  0.7546771E-02  0.1235069E+00
         21   -1    0    0  502  501  0.00000000000E+00  0.00000000000E+00  0.37415271828E+02  0.37415271828E+02  0.00000000000E+00 0.  1.
         21   -1    0    0  501  502 -0.00000000000E+00 -0.00000000000E+00 -0.10440255567E+03  0.10440255567E+03  0.00000000000E+00 0.  1.
         25    1    1    2    0    0  0.00000000000E+00  0.00000000000E+00 -0.66987283843E+02  0.14181782750E+03  0.12500000000E+03 0.  0.
<mgrwt>
<rscale>  0 0.12500000E+03</rscale>
<asrwt>0</asrwt>
<pdfrwt beam="1">  1       21 0.57561957E-02 0.12500000E+03</pdfrwt>
<pdfrwt beam="2">  1       21 0.16061932E-01 0.12500000E+03</pdfrwt>
<totfact> 0.71802875E+06</totfact>
</mgrwt>
</event>
<event>
 3    1  0.1619206E-001  0.1250000E+03  0.7546771E-02  0.1235069E+00
         21   -1    0    0  502  501  0.00000000000E+00  0.00000000000E+00  0.13606722404E+03  0.13606722404E+03  0.00000000000E+00 0. -1.
         21   -1    0    0  501  502 -0.00000000000E+00 -0.00000000000E+00 -0.28708236151E+02  0.28708236151E+02  0.00000000000E+00 0. -1.
         25    1    1    2    0    0  0.00000000000E+00  0.00000000000E+00  0.10735898789E+03  0.16477546019E+03  0.12500000000E+03 0.  0.
<mgrwt>
<rscale>  0 0.12500000E+03</rscale>
<asrwt>0</asrwt>
<pdfrwt beam="1">  1       21 0.20933419E-01 0.12500000E+03</pdfrwt>
<pdfrwt beam="2">  1       21 0.44166518E-02 0.12500000E+03</pdfrwt>
<totfact> 0.68940644E+06</totfact>
</mgrwt>
</event>
<event>
 3    1  0.1619206E-001  0.1250000E+03  0.7546771E-02  0.1235069E+00
         21   -1    0    0  502  501  0.00000000000E+00  0.00000000000E+00  0.17038771802E+02  0.17038771802E+02  0.00000000000E+00 0. -1.
         21   -1    0    0  501  502 -0.00000000000E+00 -0.00000000000E+00 -0.22925654768E+03  0.22925654768E+03  0.00000000000E+00 0. -1.
         25    1    1    2    0    0  0.00000000000E+00  0.00000000000E+00 -0.21221777588E+03  0.24629531949E+03  0.12500000000E+03 0.  0.
<mgrwt>
<rscale>  0 0.12500000E+03</rscale>
<asrwt>0</asrwt>
<pdfrwt beam="1">  1       21 0.26213497E-02 0.12500000E+03</pdfrwt>
<pdfrwt beam="2">  1       21 0.35270236E-01 0.12500000E+03</pdfrwt>
<totfact> 0.60228744E+06</totfact>
</mgrwt>
</event>
<event>
 3    1  0.1619206E-001  0.1250000E+03  0.7546771E-02  0.1235069E+00
         21   -1    0    0  502  501  0.00000000000E+00  0.00000000000E+00  0.10503032218E+03  0.10503032218E+03  0.00000000000E+00 0.  1.
         21   -1    0    0  501  502 -0.00000000000E+00 -0.00000000000E+00 -0.37191640650E+02  0.37191640650E+02  0.00000000000E+00 0.  1.
         25    1    1    2    0    0  0.00000000000E+00  0.00000000000E+00  0.67838681534E+02  0.14222196283E+03  0.12500000000E+03 0.  0.
<mgrwt>
<rscale>  0 0.12500000E+03</rscale>
<asrwt>0</asrwt>
<pdfrwt beam="1">  1       21 0.16158511E-01 0.12500000E+03</pdfrwt>
<pdfrwt beam="2">  1       21 0.57217909E-02 0.12500000E+03</pdfrwt>
<totfact> 0.71750547E+06</totfact>
</mgrwt>
</event>
<event>
 3    1  0.1619206E-001  0.1250000E+03  0.7546771E-02  0.1235069E+00
         21   -1    0    0  502  501  0.00000000000E+00  0.00000000000E+00  0.88037663529E+02  0.88037663529E+02  0.00000000000E+00 0. -1.
         21   -1    0    0  501  502 -0.00000000000E+00 -0.00000000000E+00 -0.44370214331E+02  0.44370214331E+02  0.00000000000E+00 0. -1.
         25    1    1    2    0    0  0.00000000000E+00  0.00000000000E+00  0.43667449198E+02  0.13240787786E+03  0.12500000000E+03 0.  0.
<mgrwt>
<rscale>  0 0.12500000E+03</rscale>
<asrwt>0</asrwt>
<pdfrwt beam="1">  1       21 0.13544256E-01 0.12500000E+03</pdfrwt>
<pdfrwt beam="2">  1       21 0.68261868E-02 0.12500000E+03</pdfrwt>
<totfact> 0.73041570E+06</totfact>
</mgrwt>
</event>
<event>
 3    1  0.1619206E-001  0.1250000E+03  0.7546771E-02  0.1235069E+00
         21   -1    0    0  502  501  0.00000000000E+00  0.00000000000E+00  0.20911983178E+02  0.20911983178E+02  0.00000000000E+00 0.  1.
         21   -1    0    0  501  502 -0.00000000000E+00 -0.00000000000E+00 -0.18679481361E+03  0.18679481361E+03  0.00000000000E+00 0.  1.
         25    1    1    2    0    0  0.00000000000E+00  0.00000000000E+00 -0.16588283043E+03  0.20770679679E+03  0.12500000000E+03 0.  0.
<mgrwt>
<rscale>  0 0.12500000E+03</rscale>
<asrwt>0</asrwt>
<pdfrwt beam="1">  1       21 0.32172280E-02 0.12500000E+03</pdfrwt>
<pdfrwt beam="2">  1       21 0.28737665E-01 0.12500000E+03</pdfrwt>
<totfact> 0.64101616E+06</totfact>
</mgrwt>
</event>
<event>
 3    1  0.1619206E-001  0.1250000E+03  0.7546771E-02  0.1235069E+00
         21   -1    0    0  502  501  0.00000000000E+00  0.00000000000E+00  0.14832369374E+02  0.14832369374E+02  0.00000000000E+00 0.  1.
         21   -1    0    0  501  502 -0.00000000000E+00 -0.00000000000E+00 -0.26335981133E+03  0.26335981133E+03  0.00000000000E+00 0.  1.
         25    1    1    2    0    0  0.00000000000E+00  0.00000000000E+00 -0.24852744196E+03  0.27819218071E+03  0.12500000000E+03 0.  0.
<mgrwt>
<rscale>  0 0.12500000E+03</rscale>
<asrwt>0</asrwt>
<pdfrwt beam="1">  1       21 0.22819031E-02 0.12500000E+03</pdfrwt>
<pdfrwt beam="2">  1       21 0.40516892E-01 0.12500000E+03</pdfrwt>
<totfact> 0.57318623E+06</totfact>
</mgrwt>
</event>
<event>
 3    1  0.1619206E-001  0.1250000E+03  0.7546771E-02  0.1235069E+00
         21   -1    0    0  502  501  0.00000000000E+00  0.00000000000E+00  0.72190401910E+01  0.72190401910E+01  0.00000000000E+00 0.  1.
         21   -1    0    0  501  502 -0.00000000000E+00 -0.00000000000E+00 -0.54110378896E+03  0.54110378896E+03  0.00000000000E+00 0.  1.
         25    1    1    2    0    0  0.00000000000E+00  0.00000000000E+00 -0.53388474877E+03  0.54832282915E+03  0.12500000000E+03 0.  0.
<mgrwt>
<rscale>  0 0.12500000E+03</rscale>
<asrwt>0</asrwt>
<pdfrwt beam="1">  1       21 0.11106212E-02 0.12500000E+03</pdfrwt>
<pdfrwt beam="2">  1       21 0.83246761E-01 0.12500000E+03</pdfrwt>
<totfact> 0.39539065E+06</totfact>
</mgrwt>
</event>
<event>
 3    1  0.1619206E-001  0.1250000E+03  0.7546771E-02  0.1235069E+00
         21   -1    0    0  502  501  0.00000000000E+00  0.00000000000E+00  0.87310764872E+02  0.87310764872E+02  0.00000000000E+00 0. -1.
         21   -1    0    0  501  502 -0.00000000000E+00 -0.00000000000E+00 -0.44739614934E+02  0.44739614934E+02  0.00000000000E+00 0. -1.
         25    1    1    2    0    0  0.00000000000E+00  0.00000000000E+00  0.42571149938E+02  0.13205037981E+03  0.12500000000E+03 0.  0.
<mgrwt>
<rscale>  0 0.12500000E+03</rscale>
<asrwt>0</asrwt>
<pdfrwt beam="1">  1       21 0.13432425E-01 0.12500000E+03</pdfrwt>
<pdfrwt beam="2">  1       21 0.68830177E-02 0.12500000E+03</pdfrwt>
<totfact> 0.73089472E+06</totfact>
</mgrwt>
</event>
<event>
 3    1  0.1619206E-001  0.1250000E+03  0.7546771E-02  0.1235069E+00
         21   -1    0    0  502  501  0.00000000000E+00  0.00000000000E+00  0.49032378990E+02  0.49032378990E+02  0.00000000000E+00 0.  1.
         21   -1    0    0  501  502 -0.00000000000E+00 -0.00000000000E+00 -0.79666744312E+02  0.79666744312E+02  0.00000000000E+00 0.  1.
         25    1    1    2    0    0  0.00000000000E+00  0.00000000000E+00 -0.30634365322E+02  0.12869912330E+03  0.12500000000E+03 0.  0.
<mgrwt>
<rscale>  0 0.12500000E+03</rscale>
<asrwt>0</asrwt>
<pdfrwt beam="1">  1       21 0.75434430E-02 0.12500000E+03</pdfrwt>
<pdfrwt beam="2">  1       21 0.12256422E-01 0.12500000E+03</pdfrwt>
<totfact> 0.73539321E+06</totfact>
</mgrwt>
</event>
<event>
 3    1  0.1619206E-001  0.1250000E+03  0.7546771E-02  0.1235069E+00
         21   -1    0    0  502  501  0.00000000000E+00  0.00000000000E+00  0.46617773521E+03  0.46617773521E+03  0.00000000000E+00 0. -1.
         21   -1    0    0  501  502 -0.00000000000E+00 -0.00000000000E+00 -0.83793148084E+01  0.83793148084E+01  0.00000000000E+00 0. -1.
         25    1    1    2    0    0  0.00000000000E+00  0.00000000000E+00  0.45779842040E+03  0.47455705002E+03  0.12500000000E+03 0.  0.
<mgrwt>
<rscale>  0 0.12500000E+03</rscale>
<asrwt>0</asrwt>
<pdfrwt beam="1">  1       21 0.71719632E-01 0.12500000E+03</pdfrwt>
<pdfrwt beam="2">  1       21 0.12891257E-02 0.12500000E+03</pdfrwt>
<totfact> 0.43458391E+06</totfact>
</mgrwt>
</event>
<event>
 3    1  0.1619206E-001  0.1250000E+03  0.7546771E-02  0.1235069E+00
         21   -1    0    0  502  501  0.00000000000E+00  0.00000000000E+00  0.63784645427E+02  0.63784645427E+02  0.00000000000E+00 0.  1.
         21   -1    0    0  501  502 -0.00000000000E+00 -0.00000000000E+00 -0.61241227789E+02  0.61241227789E+02  0.00000000000E+00 0.  1.
         25    1    1    2    0    0  0.00000000000E+00  0.00000000000E+00  0.25434176384E+01  0.12502587322E+03  0.12500000000E+03 0.  0.
<mgrwt>
<rscale>  0 0.12500000E+03</rscale>
<asrwt>0</asrwt>
<pdfrwt beam="1">  1       21 0.98130223E-02 0.12500000E+03</pdfrwt>
<pdfrwt beam="2">  1       21 0.94217274E-02 0.12500000E+03</pdfrwt>
<totfact> 0.74040087E+06</totfact>
</mgrwt>
</event>
<event>
 3    1  0.1619206E-001  0.1250000E+03  0.7546771E-02  0.1235069E+00
         21   -1    0    0  502  501  0.00000000000E+00  0.00000000000E+00  0.26066623637E+03  0.26066623637E+03  0.00000000000E+00 0. -1.
         21   -1    0    0  501  502 -0.00000000000E+00 -0.00000000000E+00 -0.14985638549E+02  0.14985638549E+02  0.00000000000E+00 0. -1.
         25    1    1    2    0    0  0.00000000000E+00  0.00000000000E+00  0.24568059782E+03  0.27565187491E+03  0.12500000000E+03 0.  0.
<mgrwt>
<rscale>  0 0.12500000E+03</rscale>
<asrwt>0</asrwt>
<pdfrwt beam="1">  1       21 0.40102494E-01 0.12500000E+03</pdfrwt>
<pdfrwt beam="2">  1       21 0.23054831E-02 0.12500000E+03</pdfrwt>
<totfact> 0.57542307E+06</totfact>
</mgrwt>
</event>
<event>
 3    1  0.1619206E-001  0.1250000E+03  0.7546771E-02  0.1235069E+00
         21   -1    0    0  502  501  0.00000000000E+00  0.00000000000E+00  0.10824281343E+03  0.10824281343E+03  0.00000000000E+00 0.  1.
         21   -1    0    0  501  502 -0.00000000000E+00 -0.00000000000E+00 -0.36087846168E+02  0.36087846168E+02  0.00000000000E+00 0.  1.
         25    1    1    2    0    0  0.00000000000E+00  0.00000000000E+00  0.72154967265E+02  0.14433065960E+03  0.12500000000E+03 0.  0.
<mgrwt>
<rscale>  0 0.12500000E+03</rscale>
<asrwt>0</asrwt>
<pdfrwt beam="1">  1       21 0.16652740E-01 0.12500000E+03</pdfrwt>
<pdfrwt beam="2">  1       21 0.55519764E-02 0.12500000E+03</pdfrwt>
<totfact> 0.71478868E+06</totfact>
</mgrwt>
</event>
<event>
 3    1  0.1619206E-001  0.1250000E+03  0.7546771E-02  0.1235069E+00
         21   -1    0    0  502  501  0.00000000000E+00  0.00000000000E+00  0.12426660387E+02  0.12426660387E+02  0.00000000000E+00 0. -1.
         21   -1    0    0  501  502 -0.00000000000E+00 -0.00000000000E+00 -0.31434431120E+03  0.31434431120E+03  0.00000000000E+00 0. -1.
         25    1    1    2    0    0  0.00000000000E+00  0.00000000000E+00 -0.30191765081E+03  0.32677097159E+03  0.12500000000E+03 0.  0.
<mgrwt>
<rscale>  0 0.12500000E+03</rscale>
<asrwt>0</asrwt>
<pdfrwt beam="1">  1       21 0.19117940E-02 0.12500000E+03</pdfrwt>
<pdfrwt beam="2">  1       21 0.48360661E-01 0.12500000E+03</pdfrwt>
<totfact> 0.53301103E+06</totfact>
</mgrwt>
</event>
<event>
 3    1  0.1619206E-001  0.1250000E+03  0.7546771E-02  0.1235069E+00
         21   -1    0    0  502  501  0.00000000000E+00  0.00000000000E+00  0.95580117163E+01  0.95580117163E+01  0.00000000000E+00 0.  1.
         21   -1    0    0  501  502 -0.00000000000E+00 -0.00000000000E+00 -0.40868855531E+03  0.40868855531E+03  0.00000000000E+00 0.  1.
         25    1    1    2    0    0  0.00000000000E+00  0.00000000000E+00 -0.39913054360E+03  0.41824656703E+03  0.12500000000E+03 0.  0.
<mgrwt>
<rscale>  0 0.12500000E+03</rscale>
<asrwt>0</asrwt>
<pdfrwt beam="1">  1       21 0.14704633E-02 0.12500000E+03</pdfrwt>
<pdfrwt beam="2">  1       21 0.62875166E-01 0.12500000E+03</pdfrwt>
<totfact> 0.46854164E+06</totfact>
</mgrwt>
</event>
<event>
 3    1  0.1619206E-001  0.1250000E+03  0.7546771E-02  0.1235069E+00
         21   -1    0    0  502  501  0.00000000000E+00  0.00000000000E+00  0.63090536376E+01  0.63090536376E+01  0.00000000000E+00 0.  1.
         21   -1    0    0  501  502 -0.00000000000E+00 -0.00000000000E+00 -0.61914991128E+03  0.61914991128E+03  0.00000000000E+00 0.  1.
         25    1    1    2    0    0  0.00000000000E+00  0.00000000000E+00 -0.61284085764E+03  0.62545896492E+03  0.12500000000E+03 0.  0.
<mgrwt>
<rscale>  0 0.12500000E+03</rscale>
<asrwt>0</asrwt>
<pdfrwt beam="1">  1       21 0.97062342E-03 0.12500000E+03</pdfrwt>
<pdfrwt beam="2">  1       21 0.95253854E-01 0.12500000E+03</pdfrwt>
<totfact> 0.35966011E+06</totfact>
</mgrwt>
</event>
<event>
 3    1  0.1619206E-001  0.1250000E+03  0.7546771E-02  0.1235069E+00
         21   -1    0    0  502  501  0.00000000000E+00  0.00000000000E+00  0.14322304761E+04  0.14322304761E+04  0.00000000000E+00 0.  1.
         21   -1    0    0  501  502 -0.00000000000E+00 -0.00000000000E+00 -0.27273892472E+01  0.27273892472E+01  0.00000000000E+00 0.  1.
         25    1    1    2    0    0  0.00000000000E+00  0.00000000000E+00  0.14295030868E+04  0.14349578653E+04  0.12500000000E+03 0.  0.
<mgrwt>
<rscale>  0 0.12500000E+03</rscale>
<asrwt>0</asrwt>
<pdfrwt beam="1">  1       21 0.22034255E+00 0.12500000E+03</pdfrwt>
<pdfrwt beam="2">  1       21 0.41959949E-03 0.12500000E+03</pdfrwt>
<totfact> 0.14985565E+06</totfact>
</mgrwt>
</event>
<event>
 3    1  0.1619206E-001  0.1250000E+03  0.7546771E-02  0.1235069E+00
         21   -1    0    0  502  501  0.00000000000E+00  0.00000000000E+00  0.15907168032E+02  0.15907168032E+02  0.00000000000E+00 0.  1.
         21   -1    0    0  501  502 -0.00000000000E+00 -0.00000000000E+00 -0.24556539494E+03  0.24556539494E+03  0.00000000000E+00 0.  1.
         25    1    1    2    0    0  0.00000000000E+00  0.00000000000E+00 -0.22965822691E+03  0.26147256297E+03  0.12500000000E+03 0.  0.
<mgrwt>
<rscale>  0 0.12500000E+03</rscale>
<asrwt>0</asrwt>
<pdfrwt beam="1">  1       21 0.24472567E-02 0.12500000E+03</pdfrwt>
<pdfrwt beam="2">  1       21 0.37779291E-01 0.12500000E+03</pdfrwt>
<totfact> 0.58814565E+06</totfact>
</mgrwt>
</event>
<event>
 3    1  0.1619206E-001  0.1250000E+03  0.7546771E-02  0.1235069E+00
         21   -1    0    0  502  501  0.00000000000E+00  0.00000000000E+00  0.16796199202E+03  0.16796199202E+03  0.00000000000E+00 0. -1.
         21   -1    0    0  501  502 -0.00000000000E+00 -0.00000000000E+00 -0.23256749655E+02  0.23256749655E+02  0.00000000000E+00 0. -1.
         25    1    1    2    0    0  0.00000000000E+00  0.00000000000E+00  0.14470524236E+03  0.19121874167E+03  0.12500000000E+03 0.  0.
<mgrwt>
<rscale>  0 0.12500000E+03</rscale>
<asrwt>0</asrwt>
<pdfrwt beam="1">  1       21 0.25840306E-01 0.12500000E+03</pdfrwt>
<pdfrwt beam="2">  1       21 0.35779616E-02 0.12500000E+03</pdfrwt>
<totfact> 0.65887268E+06</totfact>
</mgrwt>
</event>
<event>
 3    1  0.1619206E-001  0.1250000E+03  0.7546771E-02  0.1235069E+00
         21   -1    0    0  502  501  0.00000000000E+00  0.00000000000E+00  0.15730391332E+04  0.15730391332E+04  0.00000000000E+00 0. -1.
         21   -1    0    0  501  502 -0.00000000000E+00 -0.00000000000E+00 -0.24832503639E+01  0.24832503639E+01  0.00000000000E+00 0. -1.
         25    1    1    2    0    0  0.00000000000E+00  0.00000000000E+00  0.15705558829E+04  0.15755223836E+04  0.12500000000E+03 0.  0.
<mgrwt>
<rscale>  0 0.12500000E+03</rscale>
<asrwt>0</asrwt>
<pdfrwt beam="1">  1       21 0.24200522E+00 0.12500000E+03</pdfrwt>
<pdfrwt beam="2">  1       21 0.38203977E-03 0.12500000E+03</pdfrwt>
<totfact> 0.12909567E+06</totfact>
</mgrwt>
</event>
<event>
 3    1  0.1619206E-001  0.1250000E+03  0.7546771E-02  0.1235069E+00
         21   -1    0    0  502  501  0.00000000000E+00  0.00000000000E+00  0.15170899464E+03  0.15170899464E+03  0.00000000000E+00 0.  1.
         21   -1    0    0  501  502 -0.00000000000E+00 -0.00000000000E+00 -0.25748308525E+02  0.25748308525E+02  0.00000000000E+00 0.  1.
         25    1    1    2    0    0  0.00000000000E+00  0.00000000000E+00  0.12596068612E+03  0.17745730317E+03  0.12500000000E+03 0.  0.
<mgrwt>
<rscale>  0 0.12500000E+03</rscale>
<asrwt>0</asrwt>
<pdfrwt beam="1">  1       21 0.23339845E-01 0.12500000E+03</pdfrwt>
<pdfrwt beam="2">  1       21 0.39612783E-02 0.12500000E+03</pdfrwt>
<totfact> 0.67444430E+06</totfact>
</mgrwt>
</event>
<event>
 3    1  0.1619206E-001  0.1250000E+03  0.7546771E-02  0.1235069E+00
         21   -1    0    0  502  501  0.00000000000E+00  0.00000000000E+00  0.75975010765E+01  0.75975010765E+01  0.00000000000E+00 0.  1.
         21   -1    0    0  501  502 -0.00000000000E+00 -0.00000000000E+00 -0.51414931839E+03  0.51414931839E+03  0.00000000000E+00 0.  1.
         25    1    1    2    0    0  0.00000000000E+00  0.00000000000E+00 -0.50655181732E+03  0.52174681947E+03  0.12500000000E+03 0.  0.
<mgrwt>
<rscale>  0 0.12500000E+03</rscale>
<asrwt>0</asrwt>
<pdfrwt beam="1">  1       21 0.11688462E-02 0.12500000E+03</pdfrwt>
<pdfrwt beam="2">  1       21 0.79099900E-01 0.12500000E+03</pdfrwt>
<totfact> 0.40888725E+06</totfact>
</mgrwt>
</event>
<event>
 3    1  0.1619206E-001  0.1250000E+03  0.7546771E-02  0.1235069E+00
         21   -1    0    0  502  501  0.00000000000E+00  0.00000000000E+00  0.33698291994E+02  0.33698291994E+02  0.00000000000E+00 0. -1.
         21   -1    0    0  501  502 -0.00000000000E+00 -0.00000000000E+00 -0.11591833796E+03  0.11591833796E+03  0.00000000000E+00 0. -1.
         25    1    1    2    0    0  0.00000000000E+00  0.00000000000E+00 -0.82220045967E+02  0.14961662995E+03  0.12500000000E+03 0.  0.
<mgrwt>
<rscale>  0 0.12500000E+03</rscale>
<asrwt>0</asrwt>
<pdfrwt beam="1">  1       21 0.51843525E-02 0.12500000E+03</pdfrwt>
<pdfrwt beam="2">  1       21 0.17833591E-01 0.12500000E+03</pdfrwt>
<totfact> 0.70807392E+06</totfact>
</mgrwt>
</event>
<event>
 3    1  0.1619206E-001  0.1250000E+03  0.7546771E-02  0.1235069E+00
         21   -1    0    0  502  501  0.00000000000E+00  0.00000000000E+00  0.36486293648E+03  0.36486293648E+03  0.00000000000E+00 0. -1.
         21   -1    0    0  501  502 -0.00000000000E+00 -0.00000000000E+00 -0.10706075102E+02  0.10706075102E+02  0.00000000000E+00 0. -1.
         25    1    1    2    0    0  0.00000000000E+00  0.00000000000E+00  0.35415686138E+03  0.37556901158E+03  0.12500000000E+03 0.  0.
<mgrwt>
<rscale>  0 0.12500000E+03</rscale>
<asrwt>0</asrwt>
<pdfrwt beam="1">  1       21 0.56132750E-01 0.12500000E+03</pdfrwt>
<pdfrwt beam="2">  1       21 0.16470888E-02 0.12500000E+03</pdfrwt>
<totfact> 0.49703773E+06</totfact>
</mgrwt>
</event>
<event>
 3    1  0.1619206E-001  0.1250000E+03  0.7546771E-02  0.1235069E+00
         21   -1    0    0  502  501  0.00000000000E+00  0.00000000000E+00  0.28526677276E+02  0.28526677276E+02  0.00000000000E+00 0. -1.
         21   -1    0    0  501  502 -0.00000000000E+00 -0.00000000000E+00 -0.13693322788E+03  0.13693322788E+03  0.00000000000E+00 0. -1.
         25    1    1    2    0    0  0.00000000000E+00  0.00000000000E+00 -0.10840655060E+03  0.16545990515E+03  0.12500000000E+03 0.  0.
<mgrwt>
<rscale>  0 0.12500000E+03</rscale>
<asrwt>0</asrwt>
<pdfrwt beam="1">  1       21 0.43887196E-02 0.12500000E+03</pdfrwt>
<pdfrwt beam="2">  1       21 0.21066650E-01 0.12500000E+03</pdfrwt>
<totfact> 0.68858433E+06</totfact>
</mgrwt>
</event>
<event>
 3    1  0.1619206E-001  0.1250000E+03  0.7546771E-02  0.1235069E+00
         21   -1    0    0  502  501  0.00000000000E+00  0.00000000000E+00  0.59814508267E+02  0.59814508267E+02  0.00000000000E+00 0. -1.
         21   -1    0    0  501  502 -0.00000000000E+00 -0.00000000000E+00 -0.65306062244E+02  0.65306062244E+02  0.00000000000E+00 0. -1.
         25    1    1    2    0    0  0.00000000000E+00  0.00000000000E+00 -0.54915539772E+01  0.12512057051E+03  0.12500000000E+03 0.  0.
<mgrwt>
<rscale>  0 0.12500000E+03</rscale>
<asrwt>0</asrwt>
<pdfrwt beam="1">  1       21 0.92022321E-02 0.12500000E+03</pdfrwt>
<pdfrwt beam="2">  1       21 0.10047086E-01 0.12500000E+03</pdfrwt>
<totfact> 0.74027297E+06</totfact>
</mgrwt>
</event>
<event>
 3    1  0.1619206E-001  0.1250000E+03  0.7546771E-02  0.1235069E+00
         21   -1    0    0  502  501  0.00000000000E+00  0.00000000000E+00  0.98196850364E+01  0.98196850364E+01  0.00000000000E+00 0.  1.
         21   -1    0    0  501  502 -0.00000000000E+00 -0.00000000000E+00 -0.39779789123E+03  0.39779789123E+03  0.00000000000E+00 0.  1.
         25    1    1    2    0    0  0.00000000000E+00  0.00000000000E+00 -0.38797820619E+03  0.40761757627E+03  0.12500000000E+03 0.  0.
<mgrwt>
<rscale>  0 0.12500000E+03</rscale>
<asrwt>0</asrwt>
<pdfrwt beam="1">  1       21 0.15107209E-02 0.12500000E+03</pdfrwt>
<pdfrwt beam="2">  1       21 0.61199669E-01 0.12500000E+03</pdfrwt>
<totfact> 0.47540159E+06</totfact>
</mgrwt>
</event>
<event>
 3    1  0.1619206E-001  0.1250000E+03  0.7546771E-02  0.1235069E+00
         21   -1    0    0  502  501  0.00000000000E+00  0.00000000000E+00  0.48686259581E+01  0.48686259581E+01  0.00000000000E+00 0. -1.
         21   -1    0    0  501  502 -0.00000000000E+00 -0.00000000000E+00 -0.80233109580E+03  0.80233109580E+03  0.00000000000E+00 0. -1.
         25    1    1    2    0    0  0.00000000000E+00  0.00000000000E+00 -0.79746246984E+03  0.80719972176E+03  0.12500000000E+03 0.  0.
<mgrwt>
<rscale>  0 0.12500000E+03</rscale>
<asrwt>0</asrwt>
<pdfrwt beam="1">  1       21 0.74901973E-03 0.12500000E+03</pdfrwt>
<pdfrwt beam="2">  1       21 0.12343549E+00 0.12500000E+03</pdfrwt>
<totfact> 0.29125665E+06</totfact>
</mgrwt>
</event>
<event>
 3    1  0.1619206E-001  0.1250000E+03  0.7546771E-02  0.1235069E+00
         21   -1    0    0  502  501  0.00000000000E+00  0.00000000000E+00  0.10613980807E+03  0.10613980807E+03  0.00000000000E+00 0. -1.
         21   -1    0    0  501  502 -0.00000000000E+00 -0.00000000000E+00 -0.36802874162E+02  0.36802874162E+02  0.00000000000E+00 0. -1.
         25    1    1    2    0    0  0.00000000000E+00  0.00000000000E+00  0.69336933908E+02  0.14294268223E+03  0.12500000000E+03 0.  0.
<mgrwt>
<rscale>  0 0.12500000E+03</rscale>
<asrwt>0</asrwt>
<pdfrwt beam="1">  1       21 0.16329201E-01 0.12500000E+03</pdfrwt>
<pdfrwt beam="2">  1       21 0.56619807E-02 0.12500000E+03</pdfrwt>
<totfact> 0.71657437E+06</totfact>
</mgrwt>
</event>
<event>
 3    1  0.1619206E-001  0.1250000E+03  0.7546771E-02  0.1235069E+00
         21   -1    0    0  502  501  0.00000000000E+00  0.00000000000E+00  0.74731131700E+02  0.74731131700E+02  0.00000000000E+00 0. -1.
         21   -1    0    0  501  502 -0.00000000000E+00 -0.00000000000E+00 -0.52270719192E+02  0.52270719192E+02  0.00000000000E+00 0. -1.
         25    1    1    2    0    0  0.00000000000E+00  0.00000000000E+00  0.22460412507E+02  0.12700185089E+03  0.12500000000E+03 0.  0.
<mgrwt>
<rscale>  0 0.12500000E+03</rscale>
<asrwt>0</asrwt>
<pdfrwt beam="1">  1       21 0.11497097E-01 0.12500000E+03</pdfrwt>
<pdfrwt beam="2">  1       21 0.80416492E-02 0.12500000E+03</pdfrwt>
<totfact> 0.73768884E+06</totfact>
</mgrwt>
</event>
<event>
 3    1  0.1619206E-001  0.1250000E+03  0.7546771E-02  0.1235069E+00
         21   -1    0    0  502  501  0.00000000000E+00  0.00000000000E+00  0.63032215232E+02  0.63032215232E+02  0.00000000000E+00 0. -1.
         21   -1    0    0  501  502 -0.00000000000E+00 -0.00000000000E+00 -0.61972278551E+02  0.61972278551E+02  0.00000000000E+00 0. -1.
         25    1    1    2    0    0  0.00000000000E+00  0.00000000000E+00  0.10599366811E+01  0.12500449378E+03  0.12500000000E+03 0.  0.
<mgrwt>
<rscale>  0 0.12500000E+03</rscale>
<asrwt>0</asrwt>
<pdfrwt beam="1">  1       21 0.96972639E-02 0.12500000E+03</pdfrwt>
<pdfrwt beam="2">  1       21 0.95341967E-02 0.12500000E+03</pdfrwt>
<totfact> 0.74042975E+06</totfact>
</mgrwt>
</event>
<event>
 3    1  0.1619206E-001  0.1250000E+03  0.7546771E-02  0.1235069E+00
         21   -1    0    0  502  501  0.00000000000E+00  0.00000000000E+00  0.65151626086E+01  0.65151626086E+01  0.00000000000E+00 0.  1.
         21   -1    0    0  501  502 -0.00000000000E+00 -0.00000000000E+00 -0.59956293260E+03  0.59956293260E+03  0.00000000000E+00 0.  1.
         25    1    1    2    0    0  0.00000000000E+00  0.00000000000E+00 -0.59304776999E+03  0.60607809521E+03  0.12500000000E+03 0.  0.
<mgrwt>
<rscale>  0 0.12500000E+03</rscale>
<asrwt>0</asrwt>
<pdfrwt beam="1">  1       21 0.10023325E-02 0.12500000E+03</pdfrwt>
<pdfrwt beam="2">  1       21 0.92240466E-01 0.12500000E+03</pdfrwt>
<totfact> 0.36819187E+06</totfact>
</mgrwt>
</event>
<event>
 3    1  0.1619206E-001  0.1250000E+03  0.7546771E-02  0.1235069E+00
         21   -1    0    0  502  501  0.00000000000E+00  0.00000000000E+00  0.20076926893E+03  0.20076926893E+03  0.00000000000E+00 0.  1.
         21   -1    0    0  501  502 -0.00000000000E+00 -0.00000000000E+00 -0.19456413926E+02  0.19456413926E+02  0.00000000000E+00 0.  1.
         25    1    1    2    0    0  0.00000000000E+00  0.00000000000E+00  0.18131285501E+03  0.22022568286E+03  0.12500000000E+03 0.  0.
<mgrwt>
<rscale>  0 0.12500000E+03</rscale>
<asrwt>0</asrwt>
<pdfrwt beam="1">  1       21 0.30887578E-01 0.12500000E+03</pdfrwt>
<pdfrwt beam="2">  1       21 0.29932946E-02 0.12500000E+03</pdfrwt>
<totfact> 0.62799476E+06</totfact>
</mgrwt>
</event>
<event>
 3    1  0.1619206E-001  0.1250000E+03  0.7546771E-02  0.1235069E+00
         21   -1    0    0  502  501  0.00000000000E+00  0.00000000000E+00  0.15289648068E+03  0.15289648068E+03  0.00000000000E+00 0. -1.
         21   -1    0    0  501  502 -0.00000000000E+00 -0.00000000000E+00 -0.25548331673E+02  0.25548331673E+02  0.00000000000E+00 0. -1.
         25    1    1    2    0    0  0.00000000000E+00  0.00000000000E+00  0.12734814900E+03  0.17844481235E+03  0.12500000000E+03 0.  0.
<mgrwt>
<rscale>  0 0.12500000E+03</rscale>
<asrwt>0</asrwt>
<pdfrwt beam="1">  1       21 0.23522535E-01 0.12500000E+03</pdfrwt>
<pdfrwt beam="2">  1       21 0.39305127E-02 0.12500000E+03</pdfrwt>
<totfact> 0.67330392E+06</totfact>
</mgrwt>
</event>
<event>
 3    1  0.1619206E-001  0.1250000E+03  0.7546771E-02  0.1235069E+00
         21   -1    0    0  502  501  0.00000000000E+00  0.00000000000E+00  0.29842411902E+03  0.29842411902E+03  0.00000000000E+00 0. -1.
         21   -1    0    0  501  502 -0.00000000000E+00 -0.00000000000E+00 -0.13089592131E+02  0.13089592131E+02  0.00000000000E+00 0. -1.
         25    1    1    2    0    0  0.00000000000E+00  0.00000000000E+00  0.28533452689E+03  0.31151371115E+03  0.12500000000E+03 0.  0.
<mgrwt>
<rscale>  0 0.12500000E+03</rscale>
<asrwt>0</asrwt>
<pdfrwt beam="1">  1       21 0.45911398E-01 0.12500000E+03</pdfrwt>
<pdfrwt beam="2">  1       21 0.20137836E-02 0.12500000E+03</pdfrwt>
<totfact> 0.54512710E+06</totfact>
</mgrwt>
</event>
<event>
 3    1  0.1619206E-001  0.1250000E+03  0.7546771E-02  0.1235069E+00
         21   -1    0    0  502  501  0.00000000000E+00  0.00000000000E+00  0.28270916655E+03  0.28270916655E+03  0.00000000000E+00 0.  1.
         21   -1    0    0  501  502 -0.00000000000E+00 -0.00000000000E+00 -0.13817203197E+02  0.13817203197E+02  0.00000000000E+00 0.  1.
         25    1    1    2    0    0  0.00000000000E+00  0.00000000000E+00  0.26889196336E+03  0.29652636975E+03  0.12500000000E+03 0.  0.
<mgrwt>
<rscale>  0 0.12500000E+03</rscale>
<asrwt>0</asrwt>
<pdfrwt beam="1">  1       21 0.43493714E-01 0.12500000E+03</pdfrwt>
<pdfrwt beam="2">  1       21 0.21257238E-02 0.12500000E+03</pdfrwt>
<totfact> 0.55746089E+06</totfact>
</mgrwt>
</event>
<event>
 3    1  0.1619206E-001  0.1250000E+03  0.7546771E-02  0.1235069E+00
         21   -1    0    0  502  501  0.00000000000E+00  0.00000000000E+00  0.40046463373E+02  0.40046463373E+02  0.00000000000E+00 0.  1.
         21   -1    0    0  501  502 -0.00000000000E+00 -0.00000000000E+00 -0.97542945642E+02  0.97542945642E+02  0.00000000000E+00 0.  1.
         25    1    1    2    0    0  0.00000000000E+00  0.00000000000E+00 -0.57496482269E+02  0.13758940902E+03  0.12500000000E+03 0.  0.
<mgrwt>
<rscale>  0 0.12500000E+03</rscale>
<asrwt>0</asrwt>
<pdfrwt beam="1">  1       21 0.61609944E-02 0.12500000E+03</pdfrwt>
<pdfrwt beam="2">  1       21 0.15006607E-01 0.12500000E+03</pdfrwt>
<totfact> 0.72355397E+06</totfact>
</mgrwt>
</event>
<event>
 3    1  0.1619206E-001  0.1250000E+03  0.7546771E-02  0.1235069E+00
         21   -1    0    0  502  501  0.00000000000E+00  0.00000000000E+00  0.40988729941E+01  0.40988729941E+01  0.00000000000E+00 0. -1.
         21   -1    0    0  501  502 -0.00000000000E+00 -0.00000000000E+00 -0.95300586419E+03  0.95300586419E+03  0.00000000000E+00 0. -1.
         25    1    1    2    0    0  0.00000000000E+00  0.00000000000E+00 -0.94890699120E+03  0.95710473719E+03  0.12500000000E+03 0.  0.
<mgrwt>
<rscale>  0 0.12500000E+03</rscale>
<asrwt>0</asrwt>
<pdfrwt beam="1">  1       21 0.63059668E-03 0.12500000E+03</pdfrwt>
<pdfrwt beam="2">  1       21 0.14661609E+00 0.12500000E+03</pdfrwt>
<totfact> 0.24722176E+06</totfact>
</mgrwt>
</event>
<event>
 3    1  0.1619206E-001  0.1250000E+03  0.7546771E-02  0.1235069E+00
         21   -1    0    0  502  501  0.00000000000E+00  0.00000000000E+00  0.12393436707E+02  0.12393436707E+02  0.00000000000E+00 0.  1.
         21   -1    0    0  501  502 -0.00000000000E+00 -0.00000000000E+00 -0.31518698907E+03  0.31518698907E+03  0.00000000000E+00 0.  1.
         25    1    1    2    0    0  0.00000000000E+00  0.00000000000E+00 -0.30279355236E+03  0.32758042578E+03  0.12500000000E+03 0.  0.
<mgrwt>
<rscale>  0 0.12500000E+03</rscale>
<asrwt>0</asrwt>
<pdfrwt beam="1">  1       21 0.19066828E-02 0.12500000E+03</pdfrwt>
<pdfrwt beam="2">  1       21 0.48490301E-01 0.12500000E+03</pdfrwt>
<totfact> 0.53238049E+06</totfact>
</mgrwt>
</event>
<event>
 3    1  0.1619206E-001  0.1250000E+03  0.7546771E-02  0.1235069E+00
         21   -1    0    0  502  501  0.00000000000E+00  0.00000000000E+00  0.18715425435E+03  0.18715425435E+03  0.00000000000E+00 0.  1.
         21   -1    0    0  501  502 -0.00000000000E+00 -0.00000000000E+00 -0.20871820486E+02  0.20871820486E+02  0.00000000000E+00 0.  1.
         25    1    1    2    0    0  0.00000000000E+00  0.00000000000E+00  0.16628243386E+03  0.20802607483E+03  0.12500000000E+03 0.  0.
<mgrwt>
<rscale>  0 0.12500000E+03</rscale>
<asrwt>0</asrwt>
<pdfrwt beam="1">  1       21 0.28792961E-01 0.12500000E+03</pdfrwt>
<pdfrwt beam="2">  1       21 0.32110494E-02 0.12500000E+03</pdfrwt>
<totfact> 0.64067816E+06</totfact>
</mgrwt>
</event>
<event>
 3    1  0.1619206E-001  0.1250000E+03  0.7546771E-02  0.1235069E+00
         21   -1    0    0  502  501  0.00000000000E+00  0.00000000000E+00  0.11610706969E+03  0.11610706969E+03  0.00000000000E+00 0.  1.
         21   -1    0    0  501  502 -0.00000000000E+00 -0.00000000000E+00 -0.33643515509E+02  0.33643515509E+02  0.00000000000E+00 0.  1.
         25    1    1    2    0    0  0.00000000000E+00  0.00000000000E+00  0.82463554185E+02  0.14975058520E+03  0.12500000000E+03 0.  0.
<mgrwt>
<rscale>  0 0.12500000E+03</rscale>
<asrwt>0</asrwt>
<pdfrwt beam="1">  1       21 0.17862626E-01 0.12500000E+03</pdfrwt>
<pdfrwt beam="2">  1       21 0.51759255E-02 0.12500000E+03</pdfrwt>
<totfact> 0.70790546E+06</totfact>
</mgrwt>
</event>
<event>
 3    1  0.1619206E-001  0.1250000E+03  0.7546771E-02  0.1235069E+00
         21   -1    0    0  502  501  0.00000000000E+00  0.00000000000E+00  0.11597275766E+03  0.11597275766E+03  0.00000000000E+00 0.  1.
         21   -1    0    0  501  502 -0.00000000000E+00 -0.00000000000E+00 -0.33682479222E+02  0.33682479222E+02  0.00000000000E+00 0.  1.
         25    1    1    2    0    0  0.00000000000E+00  0.00000000000E+00  0.82290278434E+02  0.14965523688E+03  0.12500000000E+03 0.  0.
<mgrwt>
<rscale>  0 0.12500000E+03</rscale>
<asrwt>0</asrwt>
<pdfrwt beam="1">  1       21 0.17841963E-01 0.12500000E+03</pdfrwt>
<pdfrwt beam="2">  1       21 0.51819199E-02 0.12500000E+03</pdfrwt>
<totfact> 0.70802536E+06</totfact>
</mgrwt>
</event>
<event>
 3    1  0.1619206E-001  0.1250000E+03  0.7546771E-02  0.1235069E+00
         21   -1    0    0  502  501  0.00000000000E+00  0.00000000000E+00  0.47105411201E+02  0.47105411201E+02  0.00000000000E+00 0. -1.
         21   -1    0    0  501  502 -0.00000000000E+00 -0.00000000000E+00 -0.82925717034E+02  0.82925717034E+02  0.00000000000E+00 0. -1.
         25    1    1    2    0    0  0.00000000000E+00  0.00000000000E+00 -0.35820305833E+02  0.13003112823E+03  0.12500000000E+03 0.  0.
<mgrwt>
<rscale>  0 0.12500000E+03</rscale>
<asrwt>0</asrwt>
<pdfrwt beam="1">  1       21 0.72469865E-02 0.12500000E+03</pdfrwt>
<pdfrwt beam="2">  1       21 0.12757802E-01 0.12500000E+03</pdfrwt>
<totfact> 0.73360755E+06</totfact>
</mgrwt>
</event>
<event>
 3    1  0.1619206E-001  0.1250000E+03  0.7546771E-02  0.1235069E+00
         21   -1    0    0  502  501  0.00000000000E+00  0.00000000000E+00  0.75086189586E+02  0.75086189586E+02  0.00000000000E+00 0. -1.
         21   -1    0    0  501  502 -0.00000000000E+00 -0.00000000000E+00 -0.52023548159E+02  0.52023548159E+02  0.00000000000E+00 0. -1.
         25    1    1    2    0    0  0.00000000000E+00  0.00000000000E+00  0.23062641427E+02  0.12710973774E+03  0.12500000000E+03 0.  0.
<mgrwt>
<rscale>  0 0.12500000E+03</rscale>
<asrwt>0</asrwt>
<pdfrwt beam="1">  1       21 0.11551721E-01 0.12500000E+03</pdfrwt>
<pdfrwt beam="2">  1       21 0.80036228E-02 0.12500000E+03</pdfrwt>
<totfact> 0.73754205E+06</totfact>
</mgrwt>
</event>
<event>
 3    1  0.1619206E-001  0.1250000E+03  0.7546771E-02  0.1235069E+00
         21   -1    0    0  502  501  0.00000000000E+00  0.00000000000E+00  0.49690638697E+01  0.49690638697E+01  0.00000000000E+00 0. -1.
         21   -1    0    0  501  502 -0.00000000000E+00 -0.00000000000E+00 -0.78611386418E+03  0.78611386418E+03  0.00000000000E+00 0. -1.
         25    1    1    2    0    0  0.00000000000E+00  0.00000000000E+00 -0.78114480031E+03  0.79108292805E+03  0.12500000000E+03 0.  0.
<mgrwt>
<rscale>  0 0.12500000E+03</rscale>
<asrwt>0</asrwt>
<pdfrwt beam="1">  1       21 0.76447143E-03 0.12500000E+03</pdfrwt>
<pdfrwt beam="2">  1       21 0.12094058E+00 0.12500000E+03</pdfrwt>
<totfact> 0.29660403E+06</totfact>
</mgrwt>
</event>
<event>
 3    1  0.1619206E-001  0.1250000E+03  0.7546771E-02  0.1235069E+00
         21   -1    0    0  502  501  0.00000000000E+00  0.00000000000E+00  0.38969084202E+02  0.38969084202E+02  0.00000000000E+00 0. -1.
         21   -1    0    0  501  502 -0.00000000000E+00 -0.00000000000E+00 -0.10023971772E+03  0.10023971772E+03  0.00000000000E+00 0. -1.
         25    1    1    2    0    0  0.00000000000E+00  0.00000000000E+00 -0.61270633514E+02  0.13920880192E+03  0.12500000000E+03 0.  0.
<mgrwt>
<rscale>  0 0.12500000E+03</rscale>
<asrwt>0</asrwt>
<pdfrwt beam="1">  1       21 0.59952438E-02 0.12500000E+03</pdfrwt>
<pdfrwt beam="2">  1       21 0.15421495E-01 0.12500000E+03</pdfrwt>
<totfact> 0.72142766E+06</totfact>
</mgrwt>
</event>
<event>
 3    1  0.1619206E-001  0.1250000E+03  0.7546771E-02  0.1235069E+00
         21   -1    0    0  502  501  0.00000000000E+00  0.00000000000E+00  0.12396044203E+03  0.12396044203E+03  0.00000000000E+00 0. -1.
         21   -1    0    0  501  502 -0.00000000000E+00 -0.00000000000E+00 -0.31512068978E+02  0.31512068978E+02  0.00000000000E+00 0. -1.
         25    1    1    2    0    0  0.00000000000E+00  0.00000000000E+00  0.92448373056E+02  0.15547251101E+03  0.12500000000E+03 0.  0.
<mgrwt>
<rscale>  0 0.12500000E+03</rscale>
<asrwt>0</asrwt>
<pdfrwt beam="1">  1       21 0.19070837E-01 0.12500000E+03</pdfrwt>
<pdfrwt beam="2">  1       21 0.48480107E-02 0.12500000E+03</pdfrwt>
<totfact> 0.70076980E+06</totfact>
</mgrwt>
</event>
<event>
 3    1  0.1619206E-001  0.1250000E+03  0.7546771E-02  0.1235069E+00
         21   -1    0    0  502  501  0.00000000000E+00  0.00000000000E+00  0.98652051466E+01  0.98652051466E+01  0.00000000000E+00 0. -1.
         21   -1    0    0  501  502 -0.00000000000E+00 -0.00000000000E+00 -0.39596236895E+03  0.39596236895E+03  0.00000000000E+00 0. -1.
         25    1    1    2    0    0  0.00000000000E+00  0.00000000000E+00 -0.38609716380E+03  0.40582757409E+03  0.12500000000E+03 0.  0.
<mgrwt>
<rscale>  0 0.12500000E+03</rscale>
<asrwt>0</asrwt>
<pdfrwt beam="1">  1       21 0.15177240E-02 0.12500000E+03</pdfrwt>
<pdfrwt beam="2">  1       21 0.60917281E-01 0.12500000E+03</pdfrwt>
<totfact> 0.47657204E+06</totfact>
</mgrwt>
</event>
<event>
 3    1  0.1619206E-001  0.1250000E+03  0.7546771E-02  0.1235069E+00
         21   -1    0    0  502  501  0.00000000000E+00  0.00000000000E+00  0.47354138217E+03  0.47354138217E+03  0.00000000000E+00 0.  1.
         21   -1    0    0  501  502 -0.00000000000E+00 -0.00000000000E+00 -0.82490150746E+01  0.82490150746E+01  0.00000000000E+00 0.  1.
         25    1    1    2    0    0  0.00000000000E+00  0.00000000000E+00  0.46529236710E+03  0.48179039725E+03  0.12500000000E+03 0.  0.
<mgrwt>
<rscale>  0 0.12500000E+03</rscale>
<asrwt>0</asrwt>
<pdfrwt beam="1">  1       21 0.72852499E-01 0.12500000E+03</pdfrwt>
<pdfrwt beam="2">  1       21 0.12690796E-02 0.12500000E+03</pdfrwt>
<totfact> 0.43049160E+06</totfact>
</mgrwt>
</event>
<event>
 3    1  0.1619206E-001  0.1250000E+03  0.7546771E-02  0.1235069E+00
         21   -1    0    0  502  501  0.00000000000E+00  0.00000000000E+00  0.37501472457E+02  0.37501472457E+02  0.00000000000E+00 0. -1.
         21   -1    0    0  501  502 -0.00000000000E+00 -0.00000000000E+00 -0.10416257667E+03  0.10416257667E+03  0.00000000000E+00 0. -1.
         25    1    1    2    0    0  0.00000000000E+00  0.00000000000E+00 -0.66661104212E+02  0.14166404913E+03  0.12500000000E+03 0.  0.
<mgrwt>
<rscale>  0 0.12500000E+03</rscale>
<asrwt>0</asrwt>
<pdfrwt beam="1">  1       21 0.57694573E-02 0.12500000E+03</pdfrwt>
<pdfrwt beam="2">  1       21 0.16025012E-01 0.12500000E+03</pdfrwt>
<totfact> 0.71822808E+06</totfact>
</mgrwt>
</event>
<event>
 3    1  0.1619206E-001  0.1250000E+03  0.7546771E-02  0.1235069E+00
         21   -1    0    0  502  501  0.00000000000E+00  0.00000000000E+00  0.50447155747E+02  0.50447155747E+02  0.00000000000E+00 0. -1.
         21   -1    0    0  501  502 -0.00000000000E+00 -0.00000000000E+00 -0.77432512144E+02  0.77432512144E+02  0.00000000000E+00 0. -1.
         25    1    1    2    0    0  0.00000000000E+00  0.00000000000E+00 -0.26985356397E+02  0.12787966789E+03  0.12500000000E+03 0.  0.
<mgrwt>
<rscale>  0 0.12500000E+03</rscale>
<asrwt>0</asrwt>
<pdfrwt beam="1">  1       21 0.77611009E-02 0.12500000E+03</pdfrwt>
<pdfrwt beam="2">  1       21 0.11912694E-01 0.12500000E+03</pdfrwt>
<totfact> 0.73649821E+06</totfact>
</mgrwt>
</event>
<event>
 3    1  0.1619206E-001  0.1250000E+03  0.7546771E-02  0.1235069E+00
         21   -1    0    0  502  501  0.00000000000E+00  0.00000000000E+00  0.23637640103E+02  0.23637640103E+02  0.00000000000E+00 0. -1.
         21   -1    0    0  501  502 -0.00000000000E+00 -0.00000000000E+00 -0.16525549856E+03  0.16525549856E+03  0.00000000000E+00 0. -1.
         25    1    1    2    0    0  0.00000000000E+00  0.00000000000E+00 -0.14161785846E+03  0.18889313866E+03  0.12500000000E+03 0.  0.
<mgrwt>
<rscale>  0 0.12500000E+03</rscale>
<asrwt>0</asrwt>
<pdfrwt beam="1">  1       21 0.36365602E-02 0.12500000E+03</pdfrwt>
<pdfrwt beam="2">  1       21 0.25423922E-01 0.12500000E+03</pdfrwt>
<totfact> 0.66145693E+06</totfact>
</mgrwt>
</event>
<event>
 3    1  0.1619206E-001  0.1250000E+03  0.7546771E-02  0.1235069E+00
         21   -1    0    0  502  501  0.00000000000E+00  0.00000000000E+00  0.53486996060E+03  0.53486996060E+03  0.00000000000E+00 0. -1.
         21   -1    0    0  501  502 -0.00000000000E+00 -0.00000000000E+00 -0.73031770107E+01  0.73031770107E+01  0.00000000000E+00 0. -1.
         25    1    1    2    0    0  0.00000000000E+00  0.00000000000E+00  0.52756678359E+03  0.54217313761E+03  0.12500000000E+03 0.  0.
<mgrwt>
<rscale>  0 0.12500000E+03</rscale>
<asrwt>0</asrwt>
<pdfrwt beam="1">  1       21 0.82287656E-01 0.12500000E+03</pdfrwt>
<pdfrwt beam="2">  1       21 0.11235661E-02 0.12500000E+03</pdfrwt>
<totfact> 0.39845558E+06</totfact>
</mgrwt>
</event>
<event>
 3    1  0.1619206E-001  0.1250000E+03  0.7546771E-02  0.1235069E+00
         21   -1    0    0  502  501  0.00000000000E+00  0.00000000000E+00  0.30229520423E+01  0.30229520423E+01  0.00000000000E+00 0.  1.
         21   -1    0    0  501  502 -0.00000000000E+00 -0.00000000000E+00 -0.12921971455E+04  0.12921971455E+04  0.00000000000E+00 0.  1.
         25    1    1    2    0    0  0.00000000000E+00  0.00000000000E+00 -0.12891741935E+04  0.12952200975E+04  0.12500000000E+03 0.  0.
<mgrwt>
<rscale>  0 0.12500000E+03</rscale>
<asrwt>0</asrwt>
<pdfrwt beam="1">  1       21 0.46507008E-03 0.12500000E+03</pdfrwt>
<pdfrwt beam="2">  1       21 0.19879933E+00 0.12500000E+03</pdfrwt>
<totfact> 0.17338410E+06</totfact>
</mgrwt>
</event>
<event>
 3    1  0.1619206E-001  0.1250000E+03  0.7546771E-02  0.1235069E+00
         21   -1    0    0  502  501  0.00000000000E+00  0.00000000000E+00  0.16761194443E+02  0.16761194443E+02  0.00000000000E+00 0. -1.
         21   -1    0    0  501  502 -0.00000000000E+00 -0.00000000000E+00 -0.23305319995E+03  0.23305319995E+03  0.00000000000E+00 0. -1.
         25    1    1    2    0    0  0.00000000000E+00  0.00000000000E+00 -0.21629200551E+03  0.24981439439E+03  0.12500000000E+03 0.  0.
<mgrwt>
<rscale>  0 0.12500000E+03</rscale>
<asrwt>0</asrwt>
<pdfrwt beam="1">  1       21 0.25786454E-02 0.12500000E+03</pdfrwt>
<pdfrwt beam="2">  1       21 0.35854337E-01 0.12500000E+03</pdfrwt>
<totfact> 0.59895668E+06</totfact>
</mgrwt>
</event>
<event>
 3    1  0.1619206E-001  0.1250000E+03  0.7546771E-02  0.1235069E+00
         21   -1    0    0  502  501  0.00000000000E+00  0.00000000000E+00  0.13014644665E+01  0.13014644665E+01  0.00000000000E+00 0. -1.
         21   -1    0    0  501  502 -0.00000000000E+00 -0.00000000000E+00 -0.30014265473E+04  0.30014265473E+04  0.00000000000E+00 0. -1.
         25    1    1    2    0    0  0.00000000000E+00  0.00000000000E+00 -0.30001250828E+04  0.30027280117E+04  0.12500000000E+03 0.  0.
<mgrwt>
<rscale>  0 0.12500000E+03</rscale>
<asrwt>0</asrwt>
<pdfrwt beam="1">  1       21 0.20022635E-03 0.12500000E+03</pdfrwt>
<pdfrwt beam="2">  1       21 0.46175552E+00 0.12500000E+03</pdfrwt>
<totfact> 0.17277589E+05</totfact>
</mgrwt>
</event>
<event>
 3    1  0.1619206E-001  0.1250000E+03  0.7546771E-02  0.1235069E+00
         21   -1    0    0  502  501  0.00000000000E+00  0.00000000000E+00  0.18619203032E+03  0.18619203032E+03  0.00000000000E+00 0.  1.
         21   -1    0    0  501  502 -0.00000000000E+00 -0.00000000000E+00 -0.20979684218E+02  0.20979684218E+02  0.00000000000E+00 0.  1.
         25    1    1    2    0    0  0.00000000000E+00  0.00000000000E+00  0.16521234610E+03  0.20717171454E+03  0.12500000000E+03 0.  0.
<mgrwt>
<rscale>  0 0.12500000E+03</rscale>
<asrwt>0</asrwt>
<pdfrwt beam="1">  1       21 0.28644927E-01 0.12500000E+03</pdfrwt>
<pdfrwt beam="2">  1       21 0.32276439E-02 0.12500000E+03</pdfrwt>
<totfact> 0.64158338E+06</totfact>
</mgrwt>
</event>
<event>
 3    1  0.1619206E-001  0.1250000E+03  0.7546771E-02  0.1235069E+00
         21   -1    0    0  502  501  0.00000000000E+00  0.00000000000E+00  0.92955172136E+02  0.92955172136E+02  0.00000000000E+00 0. -1.
         21   -1    0    0  501  502 -0.00000000000E+00 -0.00000000000E+00 -0.42022944074E+02  0.42022944074E+02  0.00000000000E+00 0. -1.
         25    1    1    2    0    0  0.00000000000E+00  0.00000000000E+00  0.50932228062E+02  0.13497811621E+03  0.12500000000E+03 0.  0.
<mgrwt>
<rscale>  0 0.12500000E+03</rscale>
<asrwt>0</asrwt>
<pdfrwt beam="1">  1       21 0.14300796E-01 0.12500000E+03</pdfrwt>
<pdfrwt beam="2">  1       21 0.64650684E-02 0.12500000E+03</pdfrwt>
<totfact> 0.72699369E+06</totfact>
</mgrwt>
</event>
<event>
 3    1  0.1619206E-001  0.1250000E+03  0.7546771E-02  0.1235069E+00
         21   -1    0    0  502  501  0.00000000000E+00  0.00000000000E+00  0.47296512248E+03  0.47296512248E+03  0.00000000000E+00 0.  1.
         21   -1    0    0  501  502 -0.00000000000E+00 -0.00000000000E+00 -0.82590656569E+01  0.82590656569E+01  0.00000000000E+00 0.  1.
         25    1    1    2    0    0  0.00000000000E+00  0.00000000000E+00  0.46470605682E+03  0.48122418814E+03  0.12500000000E+03 0.  0.
<mgrwt>
<rscale>  0 0.12500000E+03</rscale>
<asrwt>0</asrwt>
<pdfrwt beam="1">  1       21 0.72763844E-01 0.12500000E+03</pdfrwt>
<pdfrwt beam="2">  1       21 0.12706259E-02 0.12500000E+03</pdfrwt>
<totfact> 0.43080985E+06</totfact>
</mgrwt>
</event>
<event>
 3    1  0.1619206E-001  0.1250000E+03  0.7546771E-02  0.1235069E+00
         21   -1    0    0  502  501  0.00000000000E+00  0.00000000000E+00  0.44906353628E+02  0.44906353628E+02  0.00000000000E+00 0.  1.
         21   -1    0    0  501  502 -0.00000000000E+00 -0.00000000000E+00 -0.86986577275E+02  0.86986577275E+02  0.00000000000E+00 0.  1.
         25    1    1    2    0    0  0.00000000000E+00  0.00000000000E+00 -0.42080223647E+02  0.13189293090E+03  0.12500000000E+03 0.  0.
<mgrwt>
<rscale>  0 0.12500000E+03</rscale>
<asrwt>0</asrwt>
<pdfrwt beam="1">  1       21 0.69086698E-02 0.12500000E+03</pdfrwt>
<pdfrwt beam="2">  1       21 0.13382550E-01 0.12500000E+03</pdfrwt>
<totfact> 0.73110594E+06</totfact>
</mgrwt>
</event>
<event>
 3    1  0.1619206E-001  0.1250000E+03  0.7546771E-02  0.1235069E+00
         21   -1    0    0  502  501  0.00000000000E+00  0.00000000000E+00  0.54320675807E+03  0.54320675807E+03  0.00000000000E+00 0.  1.
         21   -1    0    0  501  502 -0.00000000000E+00 -0.00000000000E+00 -0.71910924192E+01  0.71910924192E+01  0.00000000000E+00 0.  1.
         25    1    1    2    0    0  0.00000000000E+00  0.00000000000E+00  0.53601566565E+03  0.55039785049E+03  0.12500000000E+03 0.  0.
<mgrwt>
<rscale>  0 0.12500000E+03</rscale>
<asrwt>0</asrwt>
<pdfrwt beam="1">  1       21 0.83570238E-01 0.12500000E+03</pdfrwt>
<pdfrwt beam="2">  1       21 0.11063223E-02 0.12500000E+03</pdfrwt>
<totfact> 0.39436434E+06</totfact>
</mgrwt>
</event>
<event>
 3    1  0.1619206E-001  0.1250000E+03  0.7546771E-02  0.1235069E+00
         21   -1    0    0  502  501  0.00000000000E+00  0.00000000000E+00  0.21755872900E+02  0.21755872900E+02  0.00000000000E+00 0. -1.
         21   -1    0    0  501  502 -0.00000000000E+00 -0.00000000000E+00 -0.17954921955E+03  0.17954921955E+03  0.00000000000E+00 0. -1.
         25    1    1    2    0    0  0.00000000000E+00  0.00000000000E+00 -0.15779334665E+03  0.20130509245E+03  0.12500000000E+03 0.  0.
<mgrwt>
<rscale>  0 0.12500000E+03</rscale>
<asrwt>0</asrwt>
<pdfrwt beam="1">  1       21 0.33470573E-02 0.12500000E+03</pdfrwt>
<pdfrwt beam="2">  1       21 0.27622957E-01 0.12500000E+03</pdfrwt>
<totfact> 0.64786110E+06</totfact>
</mgrwt>
</event>
<event>
 3    1  0.1619206E-001  0.1250000E+03  0.7546771E-02  0.1235069E+00
         21   -1    0    0  502  501  0.00000000000E+00  0.00000000000E+00  0.27491753547E+02  0.27491753547E+02  0.00000000000E+00 0. -1.
         21   -1    0    0  501  502 -0.00000000000E+00 -0.00000000000E+00 -0.14208806264E+03  0.14208806264E+03  0.00000000000E+00 0. -1.
         25    1    1    2    0    0  0.00000000000E+00  0.00000000000E+00 -0.11459630909E+03  0.16957981619E+03  0.12500000000E+03 0.  0.
<mgrwt>
<rscale>  0 0.12500000E+03</rscale>
<asrwt>0</asrwt>
<pdfrwt beam="1">  1       21 0.42295006E-02 0.12500000E+03</pdfrwt>
<pdfrwt beam="2">  1       21 0.21859702E-01 0.12500000E+03</pdfrwt>
<totfact> 0.68367478E+06</totfact>
</mgrwt>
</event>
<event>
 3    1  0.1619206E-001  0.1250000E+03  0.7546771E-02  0.1235069E+00
         21   -1    0    0  502  501  0.00000000000E+00  0.00000000000E+00  0.58994846130E+02  0.58994846130E+02  0.00000000000E+00 0.  1.
         21   -1    0    0  501  502 -0.00000000000E+00 -0.00000000000E+00 -0.66213411107E+02  0.66213411107E+02  0.00000000000E+00 0.  1.
         25    1    1    2    0    0  0.00000000000E+00  0.00000000000E+00 -0.72185649779E+01  0.12520825724E+03  0.12500000000E+03 0.  0.
<mgrwt>
<rscale>  0 0.12500000E+03</rscale>
<asrwt>0</asrwt>
<pdfrwt beam="1">  1       21 0.90761302E-02 0.12500000E+03</pdfrwt>
<pdfrwt beam="2">  1       21 0.10186679E-01 0.12500000E+03</pdfrwt>
<totfact> 0.74015457E+06</totfact>
</mgrwt>
</event>
<event>
 3    1  0.1619206E-001  0.1250000E+03  0.7546771E-02  0.1235069E+00
         21   -1    0    0  502  501  0.00000000000E+00  0.00000000000E+00  0.12722868288E+03  0.12722868288E+03  0.00000000000E+00 0. -1.
         21   -1    0    0  501  502 -0.00000000000E+00 -0.00000000000E+00 -0.30702589318E+02  0.30702589318E+02  0.00000000000E+00 0. -1.
         25    1    1    2    0    0  0.00000000000E+00  0.00000000000E+00  0.96526093563E+02  0.15793127220E+03  0.12500000000E+03 0.  0.
<mgrwt>
<rscale>  0 0.12500000E+03</rscale>
<asrwt>0</asrwt>
<pdfrwt beam="1">  1       21 0.19573643E-01 0.12500000E+03</pdfrwt>
<pdfrwt beam="2">  1       21 0.47234754E-02 0.12500000E+03</pdfrwt>
<totfact> 0.69773160E+06</totfact>
</mgrwt>
</event>
<event>
 3    1  0.1619206E-001  0.1250000E+03  0.7546771E-02  0.1235069E+00
         21   -1    0    0  502  501  0.00000000000E+00  0.00000000000E+00  0.47473376287E+03  0.47473376287E+03  0.00000000000E+00 0. -1.
         21   -1    0    0  501  502 -0.00000000000E+00 -0.00000000000E+00 -0.82282961642E+01  0.82282961642E+01  0.00000000000E+00 0. -1.
         25    1    1    2    0    0  0.00000000000E+00  0.00000000000E+00  0.46650546670E+03  0.48296205903E+03  0.12500000000E+03 0.  0.
<mgrwt>
<rscale>  0 0.12500000E+03</rscale>
<asrwt>0</asrwt>
<pdfrwt beam="1">  1       21 0.73035942E-01 0.12500000E+03</pdfrwt>
<pdfrwt beam="2">  1       21 0.12658921E-02 0.12500000E+03</pdfrwt>
<totfact> 0.42983417E+06</totfact>
</mgrwt>
</event>
<event>
 3    1  0.1619206E-001  0.1250000E+03  0.7546771E-02  0.1235069E+00
         21   -1    0    0  502  501  0.00000000000E+00  0.00000000000E+00  0.60536288623E+03  0.60536288623E+03  0.00000000000E+00 0. -1.
         21   -1    0    0  501  502 -0.00000000000E+00 -0.00000000000E+00 -0.64527411390E+01  0.64527411390E+01  0.00000000000E+00 0. -1.
         25    1    1    2    0    0  0.00000000000E+00  0.00000000000E+00  0.59891014509E+03  0.61181562737E+03  0.12500000000E+03 0.  0.
<mgrwt>
<rscale>  0 0.12500000E+03</rscale>
<asrwt>0</asrwt>
<pdfrwt beam="1">  1       21 0.93132707E-01 0.12500000E+03</pdfrwt>
<pdfrwt beam="2">  1       21 0.99272989E-03 0.12500000E+03</pdfrwt>
<totfact> 0.36563691E+06</totfact>
</mgrwt>
</event>
<event>
 3    1  0.1619206E-001  0.1250000E+03  0.7546771E-02  0.1235069E+00
         21   -1    0    0  502  501  0.00000000000E+00  0.00000000000E+00  0.28405331510E+02  0.28405331510E+02  0.00000000000E+00 0.  1.
         21   -1    0    0  501  502 -0.00000000000E+00 -0.00000000000E+00 -0.13751819790E+03  0.13751819790E+03  0.00000000000E+00 0.  1.
         25    1    1    2    0    0  0.00000000000E+00  0.00000000000E+00 -0.10911286639E+03  0.16592352941E+03  0.12500000000E+03 0.  0.
<mgrwt>
<rscale>  0 0.12500000E+03</rscale>
<asrwt>0</asrwt>
<pdfrwt beam="1">  1       21 0.43700509E-02 0.12500000E+03</pdfrwt>
<pdfrwt beam="2">  1       21 0.21156646E-01 0.12500000E+03</pdfrwt>
<totfact> 0.68802851E+06</totfact>
</mgrwt>
</event>
<event>
 3    1  0.1619206E-001  0.1250000E+03  0.7546771E-02  0.1235069E+00
         21   -1    0    0  502  501  0.00000000000E+00  0.00000000000E+00  0.52367001845E+03  0.52367001845E+03  0.00000000000E+00 0.  1.
         21   -1    0    0  501  502 -0.00000000000E+00 -0.00000000000E+00 -0.74593730066E+01  0.74593730066E+01  0.00000000000E+00 0.  1.
         25    1    1    2    0    0  0.00000000000E+00  0.00000000000E+00  0.51621064545E+03  0.53112939146E+03  0.12500000000E+03 0.  0.
<mgrwt>
<rscale>  0 0.12500000E+03</rscale>
<asrwt>0</asrwt>
<pdfrwt beam="1">  1       21 0.80564589E-01 0.12500000E+03</pdfrwt>
<pdfrwt beam="2">  1       21 0.11475963E-02 0.12500000E+03</pdfrwt>
<totfact> 0.40404665E+06</totfact>
</mgrwt>
</event>
<event>
 3    1  0.1619206E-001  0.1250000E+03  0.7546771E-02  0.1235069E+00
         21   -1    0    0  502  501  0.00000000000E+00  0.00000000000E+00  0.87685949315E+03  0.87685949315E+03  0.00000000000E+00 0. -1.
         21   -1    0    0  501  502 -0.00000000000E+00 -0.00000000000E+00 -0.44548186232E+01  0.44548186232E+01  0.00000000000E+00 0. -1.
         25    1    1    2    0    0  0.00000000000E+00  0.00000000000E+00  0.87240467452E+03  0.88131431177E+03  0.12500000000E+03 0.  0.
<mgrwt>
<rscale>  0 0.12500000E+03</rscale>
<asrwt>0</asrwt>
<pdfrwt beam="1">  1       21 0.13490132E+00 0.12500000E+03</pdfrwt>
<pdfrwt beam="2">  1       21 0.68535741E-03 0.12500000E+03</pdfrwt>
<totfact> 0.26838348E+06</totfact>
</mgrwt>
</event>
<event>
 3    1  0.1619206E-001  0.1250000E+03  0.7546771E-02  0.1235069E+00
         21   -1    0    0  502  501  0.00000000000E+00  0.00000000000E+00  0.42092522596E+02  0.42092522596E+02  0.00000000000E+00 0. -1.
         21   -1    0    0  501  502 -0.00000000000E+00 -0.00000000000E+00 -0.92801518158E+02  0.92801518158E+02  0.00000000000E+00 0. -1.
         25    1    1    2    0    0  0.00000000000E+00  0.00000000000E+00 -0.50708995562E+02  0.13489404075E+03  0.12500000000E+03 0.  0.
<mgrwt>
<rscale>  0 0.12500000E+03</rscale>
<asrwt>0</asrwt>
<pdfrwt beam="1">  1       21 0.64757728E-02 0.12500000E+03</pdfrwt>
<pdfrwt beam="2">  1       21 0.14277157E-01 0.12500000E+03</pdfrwt>
<totfact> 0.72710505E+06</totfact>
</mgrwt>
</event>
<event>
 3    1  0.1619206E-001  0.1250000E+03  0.7546771E-02  0.1235069E+00
         21   -1    0    0  502  501  0.00000000000E+00  0.00000000000E+00  0.59086117579E+02  0.59086117579E+02  0.00000000000E+00 0. -1.
         21   -1    0    0  501  502 -0.00000000000E+00 -0.00000000000E+00 -0.66111129992E+02  0.66111129992E+02  0.00000000000E+00 0. -1.
         25    1    1    2    0    0  0.00000000000E+00  0.00000000000E+00 -0.70250124127E+01  0.12519724757E+03  0.12500000000E+03 0.  0.
<mgrwt>
<rscale>  0 0.12500000E+03</rscale>
<asrwt>0</asrwt>
<pdfrwt beam="1">  1       21 0.90901720E-02 0.12500000E+03</pdfrwt>
<pdfrwt beam="2">  1       21 0.10170943E-01 0.12500000E+03</pdfrwt>
<totfact> 0.74016944E+06</totfact>
</mgrwt>
</event>
<event>
 3    1  0.1619206E-001  0.1250000E+03  0.7546771E-02  0.1235069E+00
         21   -1    0    0  502  501  0.00000000000E+00  0.00000000000E+00  0.37508478651E+03  0.37508478651E+03  0.00000000000E+00 0.  1.
         21   -1    0    0  501  502 -0.00000000000E+00 -0.00000000000E+00 -0.10414312018E+02  0.10414312018E+02  0.00000000000E+00 0.  1.
         25    1    1    2    0    0  0.00000000000E+00  0.00000000000E+00  0.36467047449E+03  0.38549909853E+03  0.12500000000E+03 0.  0.
<mgrwt>
<rscale>  0 0.12500000E+03</rscale>
<asrwt>0</asrwt>
<pdfrwt beam="1">  1       21 0.57705341E-01 0.12500000E+03</pdfrwt>
<pdfrwt beam="2">  1       21 0.16022021E-02 0.12500000E+03</pdfrwt>
<totfact> 0.49018294E+06</totfact>
</mgrwt>
</event>
<event>
 3    1  0.1619206E-001  0.1250000E+03  0.7546771E-02  0.1235069E+00
         21   -1    0    0  502  501  0.00000000000E+00  0.00000000000E+00  0.95863469638E+03  0.95863469638E+03  0.00000000000E+00 0.  1.
         21   -1    0    0  501  502 -0.00000000000E+00 -0.00000000000E+00 -0.40748055696E+01  0.40748055696E+01  0.00000000000E+00 0.  1.
         25    1    1    2    0    0  0.00000000000E+00  0.00000000000E+00  0.95455989081E+03  0.96270950195E+03  0.12500000000E+03 0.  0.
<mgrwt>
<rscale>  0 0.12500000E+03</rscale>
<asrwt>0</asrwt>
<pdfrwt beam="1">  1       21 0.14748208E+00 0.12500000E+03</pdfrwt>
<pdfrwt beam="2">  1       21 0.62689393E-03 0.12500000E+03</pdfrwt>
<totfact> 0.24574214E+06</totfact>
</mgrwt>
</event>
<event>
 3    1  0.1619206E-001  0.1250000E+03  0.7546771E-02  0.1235069E+00
         21   -1    0    0  502  501  0.00000000000E+00  0.00000000000E+00  0.18618279671E+02  0.18618279671E+02  0.00000000000E+00 0. -1.
         21   -1    0    0  501  502 -0.00000000000E+00 -0.00000000000E+00 -0.20980724691E+03  0.20980724691E+03  0.00000000000E+00 0. -1.
         25    1    1    2    0    0  0.00000000000E+00  0.00000000000E+00 -0.19118896724E+03  0.22842552658E+03  0.12500000000E+03 0.  0.
<mgrwt>
<rscale>  0 0.12500000E+03</rscale>
<asrwt>0</asrwt>
<pdfrwt beam="1">  1       21 0.28643507E-02 0.12500000E+03</pdfrwt>
<pdfrwt beam="2">  1       21 0.32278038E-01 0.12500000E+03</pdfrwt>
<totfact> 0.61971017E+06</totfact>
</mgrwt>
</event>
<event>
 3    1  0.1619206E-001  0.1250000E+03  0.7546771E-02  0.1235069E+00
         21   -1    0    0  502  501  0.00000000000E+00  0.00000000000E+00  0.96255391027E+03  0.96255391027E+03  0.00000000000E+00 0.  1.
         21   -1    0    0  501  502 -0.00000000000E+00 -0.00000000000E+00 -0.40582142552E+01  0.40582142552E+01  0.00000000000E+00 0.  1.
         25    1    1    2    0    0  0.00000000000E+00  0.00000000000E+00  0.95849569601E+03  0.96661212452E+03  0.12500000000E+03 0.  0.
<mgrwt>
<rscale>  0 0.12500000E+03</rscale>
<asrwt>0</asrwt>
<pdfrwt beam="1">  1       21 0.14808503E+00 0.12500000E+03</pdfrwt>
<pdfrwt beam="2">  1       21 0.62434142E-03 0.12500000E+03</pdfrwt>
<totfact> 0.24471881E+06</totfact>
</mgrwt>
</event>
<event>
 3    1  0.1619206E-001  0.1250000E+03  0.7546771E-02  0.1235069E+00
         21   -1    0    0  502  501  0.00000000000E+00  0.00000000000E+00  0.34393777015E+02  0.34393777015E+02  0.00000000000E+00 0.  1.
         21   -1    0    0  501  502 -0.00000000000E+00 -0.00000000000E+00 -0.11357432475E+03  0.11357432475E+03  0.00000000000E+00 0.  1.
         25    1    1    2    0    0  0.00000000000E+00  0.00000000000E+00 -0.79180547732E+02  0.14796810176E+03  0.12500000000E+03 0.  0.
<mgrwt>
<rscale>  0 0.12500000E+03</rscale>
<asrwt>0</asrwt>
<pdfrwt beam="1">  1       21 0.52913504E-02 0.12500000E+03</pdfrwt>
<pdfrwt beam="2">  1       21 0.17472973E-01 0.12500000E+03</pdfrwt>
<totfact> 0.71015387E+06</totfact>
</mgrwt>
</event>
<event>
 3    1  0.1619206E-001  0.1250000E+03  0.7546771E-02  0.1235069E+00
         21   -1    0    0  502  501  0.00000000000E+00  0.00000000000E+00  0.13506966435E+03  0.13506966435E+03  0.00000000000E+00 0. -1.
         21   -1    0    0  501  502 -0.00000000000E+00 -0.00000000000E+00 -0.28920261399E+02  0.28920261399E+02  0.00000000000E+00 0. -1.
         25    1    1    2    0    0  0.00000000000E+00  0.00000000000E+00  0.10614940295E+03  0.16398992575E+03  0.12500000000E+03 0.  0.
<mgrwt>
<rscale>  0 0.12500000E+03</rscale>
<asrwt>0</asrwt>
<pdfrwt beam="1">  1       21 0.20779948E-01 0.12500000E+03</pdfrwt>
<pdfrwt beam="2">  1       21 0.44492711E-02 0.12500000E+03</pdfrwt>
<totfact> 0.69035227E+06</totfact>
</mgrwt>
</event>
<event>
 3    1  0.1619206E-001  0.1250000E+03  0.7546771E-02  0.1235069E+00
         21   -1    0    0  502  501  0.00000000000E+00  0.00000000000E+00  0.43471171794E+03  0.43471171794E+03  0.00000000000E+00 0.  1.
         21   -1    0    0  501  502 -0.00000000000E+00 -0.00000000000E+00 -0.89858401299E+01  0.89858401299E+01  0.00000000000E+00 0.  1.
         25    1    1    2    0    0  0.00000000000E+00  0.00000000000E+00  0.42572587781E+03  0.44369755807E+03  0.12500000000E+03 0.  0.
<mgrwt>
<rscale>  0 0.12500000E+03</rscale>
<asrwt>0</asrwt>
<pdfrwt beam="1">  1       21 0.66878710E-01 0.12500000E+03</pdfrwt>
<pdfrwt beam="2">  1       21 0.13824373E-02 0.12500000E+03</pdfrwt>
<totfact> 0.45271815E+06</totfact>
</mgrwt>
</event>
<event>
 3    1  0.1619206E-001  0.1250000E+03  0.7546771E-02  0.1235069E+00
         21   -1    0    0  502  501  0.00000000000E+00  0.00000000000E+00  0.75116154836E+02  0.75116154836E+02  0.00000000000E+00 0.  1.
         21   -1    0    0  501  502 -0.00000000000E+00 -0.00000000000E+00 -0.52002794985E+02  0.52002794985E+02  0.00000000000E+00 0.  1.
         25    1    1    2    0    0  0.00000000000E+00  0.00000000000E+00  0.23113359851E+02  0.12711894982E+03  0.12500000000E+03 0.  0.
<mgrwt>
<rscale>  0 0.12500000E+03</rscale>
<asrwt>0</asrwt>
<pdfrwt beam="1">  1       21 0.11556331E-01 0.12500000E+03</pdfrwt>
<pdfrwt beam="2">  1       21 0.80004300E-02 0.12500000E+03</pdfrwt>
<totfact> 0.73752952E+06</totfact>
</mgrwt>
</event>
<event>
 3    1  0.1619206E-001  0.1250000E+03  0.7546771E-02  0.1235069E+00
         21   -1    0    0  502  501  0.00000000000E+00  0.00000000000E+00  0.38523721276E+02  0.38523721276E+02  0.00000000000E+00 0. -1.
         21   -1    0    0  501  502 -0.00000000000E+00 -0.00000000000E+00 -0.10139856355E+03  0.10139856355E+03  0.00000000000E+00 0. -1.
         25    1    1    2    0    0  0.00000000000E+00  0.00000000000E+00 -0.62874842273E+02  0.13992228483E+03  0.12500000000E+03 0.  0.
<mgrwt>
<rscale>  0 0.12500000E+03</rscale>
<asrwt>0</asrwt>
<pdfrwt beam="1">  1       21 0.59267264E-02 0.12500000E+03</pdfrwt>
<pdfrwt beam="2">  1       21 0.15599779E-01 0.12500000E+03</pdfrwt>
<totfact> 0.72049455E+06</totfact>
</mgrwt>
</event>
<event>
 3    1  0.1619206E-001  0.1250000E+03  0.7546771E-02  0.1235069E+00
         21   -1    0    0  502  501  0.00000000000E+00  0.00000000000E+00  0.14413607448E+03  0.14413607448E+03  0.00000000000E+00 0.  1.
         21   -1    0    0  501  502 -0.00000000000E+00 -0.00000000000E+00 -0.27101126586E+02  0.27101126586E+02  0.00000000000E+00 0.  1.
         25    1    1    2    0    0  0.00000000000E+00  0.00000000000E+00  0.11703494789E+03  0.17123720106E+03  0.12500000000E+03 0.  0.
<mgrwt>
<rscale>  0 0.12500000E+03</rscale>
<asrwt>0</asrwt>
<pdfrwt beam="1">  1       21 0.22174780E-01 0.12500000E+03</pdfrwt>
<pdfrwt beam="2">  1       21 0.41694042E-02 0.12500000E+03</pdfrwt>
<totfact> 0.68171275E+06</totfact>
</mgrwt>
</event>
<event>
 3    1  0.1619206E-001  0.1250000E+03  0.7546771E-02  0.1235069E+00
         21   -1    0    0  502  501  0.00000000000E+00  0.00000000000E+00  0.62714892427E+02  0.62714892427E+02  0.00000000000E+00 0. -1.
         21   -1    0    0  501  502 -0.00000000000E+00 -0.00000000000E+00 -0.62285843901E+02  0.62285843901E+02  0.00000000000E+00 0. -1.
         25    1    1    2    0    0  0.00000000000E+00  0.00000000000E+00  0.42904852554E+00  0.12500073633E+03  0.12500000000E+03 0.  0.
<mgrwt>
<rscale>  0 0.12500000E+03</rscale>
<asrwt>0</asrwt>
<pdfrwt beam="1">  1       21 0.96484450E-02 0.12500000E+03</pdfrwt>
<pdfrwt beam="2">  1       21 0.95824375E-02 0.12500000E+03</pdfrwt>
<totfact> 0.74043482E+06</totfact>
</mgrwt>
</event>
<event>
 3    1  0.1619206E-001  0.1250000E+03  0.7546771E-02  0.1235069E+00
         21   -1    0    0  502  501  0.00000000000E+00  0.00000000000E+00  0.58374082730E+02  0.58374082730E+02  0.00000000000E+00 0. -1.
         21   -1    0    0  501  502 -0.00000000000E+00 -0.00000000000E+00 -0.66917539726E+02  0.66917539726E+02  0.00000000000E+00 0. -1.
         25    1    1    2    0    0  0.00000000000E+00  0.00000000000E+00 -0.85434569959E+01  0.12529162246E+03  0.12500000000E+03 0.  0.
<mgrwt>
<rscale>  0 0.12500000E+03</rscale>
<asrwt>0</asrwt>
<pdfrwt beam="1">  1       21 0.89806282E-02 0.12500000E+03</pdfrwt>
<pdfrwt beam="2">  1       21 0.10295006E-01 0.12500000E+03</pdfrwt>
<totfact> 0.74004202E+06</totfact>
</mgrwt>
</event>
<event>
 3    1  0.1619206E-001  0.1250000E+03  0.7546771E-02  0.1235069E+00
         21   -1    0    0  502  501  0.00000000000E+00  0.00000000000E+00  0.34345625599E+02  0.34345625599E+02  0.00000000000E+00 0. -1.
         21   -1    0    0  501  502 -0.00000000000E+00 -0.00000000000E+00 -0.11373355215E+03  0.11373355215E+03  0.00000000000E+00 0. -1.
         25    1    1    2    0    0  0.00000000000E+00  0.00000000000E+00 -0.79387926546E+02  0.14807917774E+03  0.12500000000E+03 0.  0.
<mgrwt>
<rscale>  0 0.12500000E+03</rscale>
<asrwt>0</asrwt>
<pdfrwt beam="1">  1       21 0.52839424E-02 0.12500000E+03</pdfrwt>
<pdfrwt beam="2">  1       21 0.17497470E-01 0.12500000E+03</pdfrwt>
<totfact> 0.71001333E+06</totfact>
</mgrwt>
</event>
<event>
 3    1  0.1619206E-001  0.1250000E+03  0.7546771E-02  0.1235069E+00
         21   -1    0    0  502  501  0.00000000000E+00  0.00000000000E+00  0.12148777254E+04  0.12148777254E+04  0.00000000000E+00 0. -1.
         21   -1    0    0  501  502 -0.00000000000E+00 -0.00000000000E+00 -0.32153441604E+01  0.32153441604E+01  0.00000000000E+00 0. -1.
         25    1    1    2    0    0  0.00000000000E+00  0.00000000000E+00  0.12116623812E+04  0.12180930696E+04  0.12500000000E+03 0.  0.
<mgrwt>
<rscale>  0 0.12500000E+03</rscale>
<asrwt>0</asrwt>
<pdfrwt beam="1">  1       21 0.18690390E+00 0.12500000E+03</pdfrwt>
<pdfrwt beam="2">  1       21 0.49466930E-03 0.12500000E+03</pdfrwt>
<totfact> 0.18786549E+06</totfact>
</mgrwt>
</event>
<event>
 3    1  0.1619206E-001  0.1250000E+03  0.7546771E-02  0.1235069E+00
         21   -1    0    0  502  501  0.00000000000E+00  0.00000000000E+00  0.10406937453E+03  0.10406937453E+03  0.00000000000E+00 0.  1.
         21   -1    0    0  501  502 -0.00000000000E+00 -0.00000000000E+00 -0.37535057913E+02  0.37535057913E+02  0.00000000000E+00 0.  1.
         25    1    1    2    0    0  0.00000000000E+00  0.00000000000E+00  0.66534316620E+02  0.14160443244E+03  0.12500000000E+03 0.  0.
<mgrwt>
<rscale>  0 0.12500000E+03</rscale>
<asrwt>0</asrwt>
<pdfrwt beam="1">  1       21 0.16010673E-01 0.12500000E+03</pdfrwt>
<pdfrwt beam="2">  1       21 0.57746243E-02 0.12500000E+03</pdfrwt>
<totfact> 0.71830539E+06</totfact>
</mgrwt>
</event>
<event>
 3    1  0.1619206E-001  0.1250000E+03  0.7546771E-02  0.1235069E+00
         21   -1    0    0  502  501  0.00000000000E+00  0.00000000000E+00  0.53307528461E+02  0.53307528461E+02  0.00000000000E+00 0.  1.
         21   -1    0    0  501  502 -0.00000000000E+00 -0.00000000000E+00 -0.73277642254E+02  0.73277642254E+02  0.00000000000E+00 0.  1.
         25    1    1    2    0    0  0.00000000000E+00  0.00000000000E+00 -0.19970113793E+02  0.12658517071E+03  0.12500000000E+03 0.  0.
<mgrwt>
<rscale>  0 0.12500000E+03</rscale>
<asrwt>0</asrwt>
<pdfrwt beam="1">  1       21 0.82011583E-02 0.12500000E+03</pdfrwt>
<pdfrwt beam="2">  1       21 0.11273483E-01 0.12500000E+03</pdfrwt>
<totfact> 0.73825723E+06</totfact>
</mgrwt>
</event>
<event>
 3    1  0.1619206E-001  0.1250000E+03  0.7546771E-02  0.1235069E+00
         21   -1    0    0  502  501  0.00000000000E+00  0.00000000000E+00  0.50005225358E+02  0.50005225358E+02  0.00000000000E+00 0. -1.
         21   -1    0    0  501  502 -0.00000000000E+00 -0.00000000000E+00 -0.78116836231E+02  0.78116836231E+02  0.00000000000E+00 0. -1.
         25    1    1    2    0    0  0.00000000000E+00  0.00000000000E+00 -0.28111610873E+02  0.12812206159E+03  0.12500000000E+03 0.  0.
<mgrwt>
<rscale>  0 0.12500000E+03</rscale>
<asrwt>0</asrwt>
<pdfrwt beam="1">  1       21 0.76931116E-02 0.12500000E+03</pdfrwt>
<pdfrwt beam="2">  1       21 0.12017975E-01 0.12500000E+03</pdfrwt>
<totfact> 0.73617077E+06</totfact>
</mgrwt>
</event>
<event>
 3    1  0.1619206E-001  0.1250000E+03  0.7546771E-02  0.1235069E+00
         21   -1    0    0  502  501  0.00000000000E+00  0.00000000000E+00  0.76093142703E+02  0.76093142703E+02  0.00000000000E+00 0. -1.
         21   -1    0    0  501  502 -0.00000000000E+00 -0.00000000000E+00 -0.51335111959E+02  0.51335111959E+02  0.00000000000E+00 0. -1.
         25    1    1    2    0    0  0.00000000000E+00  0.00000000000E+00  0.24758030744E+02  0.12742825466E+03  0.12500000000E+03 0.  0.
<mgrwt>
<rscale>  0 0.12500000E+03</rscale>
<asrwt>0</asrwt>
<pdfrwt beam="1">  1       21 0.11706637E-01 0.12500000E+03</pdfrwt>
<pdfrwt beam="2">  1       21 0.78977095E-02 0.12500000E+03</pdfrwt>
<totfact> 0.73710947E+06</totfact>
</mgrwt>
</event>
<event>
 3    1  0.1619206E-001  0.1250000E+03  0.7546771E-02  0.1235069E+00
         21   -1    0    0  502  501  0.00000000000E+00  0.00000000000E+00  0.19996568053E+03  0.19996568053E+03  0.00000000000E+00 0. -1.
         21   -1    0    0  501  502 -0.00000000000E+00 -0.00000000000E+00 -0.19534602086E+02  0.19534602086E+02  0.00000000000E+00 0. -1.
         25    1    1    2    0    0  0.00000000000E+00  0.00000000000E+00  0.18043107844E+03  0.21950028261E+03  0.12500000000E+03 0.  0.
<mgrwt>
<rscale>  0 0.12500000E+03</rscale>
<asrwt>0</asrwt>
<pdfrwt beam="1">  1       21 0.30763949E-01 0.12500000E+03</pdfrwt>
<pdfrwt beam="2">  1       21 0.30053235E-02 0.12500000E+03</pdfrwt>
<totfact> 0.62873650E+06</totfact>
</mgrwt>
</event>
<event>
 3    1  0.1619206E-001  0.1250000E+03  0.7546771E-02  0.1235069E+00
         21   -1    0    0  502  501  0.00000000000E+00  0.00000000000E+00  0.70149659218E+01  0.70149659218E+01  0.00000000000E+00 0. -1.
         21   -1    0    0  501  502 -0.00000000000E+00 -0.00000000000E+00 -0.55684518550E+03  0.55684518550E+03  0.00000000000E+00 0. -1.
         25    1    1    2    0    0  0.00000000000E+00  0.00000000000E+00 -0.54983021958E+03  0.56386015142E+03  0.12500000000E+03 0.  0.
<mgrwt>
<rscale>  0 0.12500000E+03</rscale>
<asrwt>0</asrwt>
<pdfrwt beam="1">  1       21 0.10792255E-02 0.12500000E+03</pdfrwt>
<pdfrwt beam="2">  1       21 0.85668492E-01 0.12500000E+03</pdfrwt>
<totfact> 0.38779736E+06</totfact>
</mgrwt>
</event>
<event>
 3    1  0.1619206E-001  0.1250000E+03  0.7546771E-02  0.1235069E+00
         21   -1    0    0  502  501  0.00000000000E+00  0.00000000000E+00  0.73982174043E+03  0.73982174043E+03  0.00000000000E+00 0.  1.
         21   -1    0    0  501  502 -0.00000000000E+00 -0.00000000000E+00 -0.52799881195E+01  0.52799881195E+01  0.00000000000E+00 0.  1.
         25    1    1    2    0    0  0.00000000000E+00  0.00000000000E+00  0.73454175231E+03  0.74510172855E+03  0.12500000000E+03 0.  0.
<mgrwt>
<rscale>  0 0.12500000E+03</rscale>
<asrwt>0</asrwt>
<pdfrwt beam="1">  1       21 0.11381865E+00 0.12500000E+03</pdfrwt>
<pdfrwt beam="2">  1       21 0.81230645E-03 0.12500000E+03</pdfrwt>
<totfact> 0.31241911E+06</totfact>
</mgrwt>
</event>
<event>
 3    1  0.1619206E-001  0.1250000E+03  0.7546771E-02  0.1235069E+00
         21   -1    0    0  502  501  0.00000000000E+00  0.00000000000E+00  0.93043706203E+01  0.93043706203E+01  0.00000000000E+00 0.  1.
         21   -1    0    0  501  502 -0.00000000000E+00 -0.00000000000E+00 -0.41982957896E+03  0.41982957896E+03  0.00000000000E+00 0.  1.
         25    1    1    2    0    0  0.00000000000E+00  0.00000000000E+00 -0.41052520834E+03  0.42913394958E+03  0.12500000000E+03 0.  0.
<mgrwt>
<rscale>  0 0.12500000E+03</rscale>
<asrwt>0</asrwt>
<pdfrwt beam="1">  1       21 0.14314420E-02 0.12500000E+03</pdfrwt>
<pdfrwt beam="2">  1       21 0.64589149E-01 0.12500000E+03</pdfrwt>
<totfact> 0.46167120E+06</totfact>
</mgrwt>
</event>
<event>
 3    1  0.1619206E-001  0.1250000E+03  0.7546771E-02  0.1235069E+00
         21   -1    0    0  502  501  0.00000000000E+00  0.00000000000E+00  0.10480359507E+02  0.10480359507E+02  0.00000000000E+00 0. -1.
         21   -1    0    0  501  502 -0.00000000000E+00 -0.00000000000E+00 -0.37272099277E+03  0.37272099277E+03  0.00000000000E+00 0. -1.
         25    1    1    2    0    0  0.00000000000E+00  0.00000000000E+00 -0.36224063326E+03  0.38320135228E+03  0.12500000000E+03 0.  0.
<mgrwt>
<rscale>  0 0.12500000E+03</rscale>
<asrwt>0</asrwt>
<pdfrwt beam="1">  1       21 0.16123631E-02 0.12500000E+03</pdfrwt>
<pdfrwt beam="2">  1       21 0.57341686E-01 0.12500000E+03</pdfrwt>
<totfact> 0.49175918E+06</totfact>
</mgrwt>
</event>
<event>
 3    1  0.1619206E-001  0.1250000E+03  0.7546771E-02  0.1235069E+00
         21   -1    0    0  502  501  0.00000000000E+00  0.00000000000E+00  0.37287508727E+02  0.37287508727E+02  0.00000000000E+00 0.  1.
         21   -1    0    0  501  502 -0.00000000000E+00 -0.00000000000E+00 -0.10476028389E+03  0.10476028389E+03  0.00000000000E+00 0.  1.
         25    1    1    2    0    0  0.00000000000E+00  0.00000000000E+00 -0.67472775168E+02  0.14204779262E+03  0.12500000000E+03 0.  0.
<mgrwt>
<rscale>  0 0.12500000E+03</rscale>
<asrwt>0</asrwt>
<pdfrwt beam="1">  1       21 0.57365398E-02 0.12500000E+03</pdfrwt>
<pdfrwt beam="2">  1       21 0.16116967E-01 0.12500000E+03</pdfrwt>
<totfact> 0.71773088E+06</totfact>
</mgrwt>
</event>
<event>
 3    1  0.1619206E-001  0.1250000E+03  0.7546771E-02  0.1235069E+00
         21   -1    0    0  502  501  0.00000000000E+00  0.00000000000E+00  0.13451591233E+03  0.13451591233E+03  0.00000000000E+00 0.  1.
         21   -1    0    0  501  502 -0.00000000000E+00 -0.00000000000E+00 -0.29039315366E+02  0.29039315366E+02  0.00000000000E+00 0.  1.
         25    1    1    2    0    0  0.00000000000E+00  0.00000000000E+00  0.10547659697E+03  0.16355522770E+03  0.12500000000E+03 0.  0.
<mgrwt>
<rscale>  0 0.12500000E+03</rscale>
<asrwt>0</asrwt>
<pdfrwt beam="1">  1       21 0.20694755E-01 0.12500000E+03</pdfrwt>
<pdfrwt beam="2">  1       21 0.44675871E-02 0.12500000E+03</pdfrwt>
<totfact> 0.69087674E+06</totfact>
</mgrwt>
</event>
<event>
 3    1  0.1619206E-001  0.1250000E+03  0.7546771E-02  0.1235069E+00
         21   -1    0    0  502  501  0.00000000000E+00  0.00000000000E+00  0.13687915502E+03  0.13687915502E+03  0.00000000000E+00 0.  1.
         21   -1    0    0  501  502 -0.00000000000E+00 -0.00000000000E+00 -0.28537946479E+02  0.28537946479E+02  0.00000000000E+00 0.  1.
         25    1    1    2    0    0  0.00000000000E+00  0.00000000000E+00  0.10834120854E+03  0.16541710150E+03  0.12500000000E+03 0.  0.
<mgrwt>
<rscale>  0 0.12500000E+03</rscale>
<asrwt>0</asrwt>
<pdfrwt beam="1">  1       21 0.21058331E-01 0.12500000E+03</pdfrwt>
<pdfrwt beam="2">  1       21 0.43904534E-02 0.12500000E+03</pdfrwt>
<totfact> 0.68863568E+06</totfact>
</mgrwt>
</event>
<event>
 3    1  0.1619206E-001  0.1250000E+03  0.7546771E-02  0.1235069E+00
         21   -1    0    0  502  501  0.00000000000E+00  0.00000000000E+00  0.44620127126E+02  0.44620127126E+02  0.00000000000E+00 0.  1.
         21   -1    0    0  501  502 -0.00000000000E+00 -0.00000000000E+00 -0.87544573528E+02  0.87544573528E+02  0.00000000000E+00 0.  1.
         25    1    1    2    0    0  0.00000000000E+00  0.00000000000E+00 -0.42924446402E+02  0.13216470065E+03  0.12500000000E+03 0.  0.
<mgrwt>
<rscale>  0 0.12500000E+03</rscale>
<asrwt>0</asrwt>
<pdfrwt beam="1">  1       21 0.68646349E-02 0.12500000E+03</pdfrwt>
<pdfrwt beam="2">  1       21 0.13468396E-01 0.12500000E+03</pdfrwt>
<totfact> 0.73074145E+06</totfact>
</mgrwt>
</event>
<event>
 3    1  0.1619206E-001  0.1250000E+03  0.7546771E-02  0.1235069E+00
         21   -1    0    0  502  501  0.00000000000E+00  0.00000000000E+00  0.11236556940E+04  0.11236556940E+04  0.00000000000E+00 0.  1.
         21   -1    0    0  501  502 -0.00000000000E+00 -0.00000000000E+00 -0.34763762787E+01  0.34763762787E+01  0.00000000000E+00 0.  1.
         25    1    1    2    0    0  0.00000000000E+00  0.00000000000E+00  0.11201793177E+04  0.11271320703E+04  0.12500000000E+03 0.  0.
<mgrwt>
<rscale>  0 0.12500000E+03</rscale>
<asrwt>0</asrwt>
<pdfrwt beam="1">  1       21 0.17286982E+00 0.12500000E+03</pdfrwt>
<pdfrwt beam="2">  1       21 0.53482802E-03 0.12500000E+03</pdfrwt>
<totfact> 0.20657918E+06</totfact>
</mgrwt>
</event>
<event>
 3    1  0.1619206E-001  0.1250000E+03  0.7546771E-02  0.1235069E+00
         21   -1    0    0  502  501  0.00000000000E+00  0.00000000000E+00  0.68014671727E+02  0.68014671727E+02  0.00000000000E+00 0.  1.
         21   -1    0    0  501  502 -0.00000000000E+00 -0.00000000000E+00 -0.57432461273E+02  0.57432461273E+02  0.00000000000E+00 0.  1.
         25    1    1    2    0    0  0.00000000000E+00  0.00000000000E+00  0.10582210454E+02  0.12544713300E+03  0.12500000000E+03 0.  0.
<mgrwt>
<rscale>  0 0.12500000E+03</rscale>
<asrwt>0</asrwt>
<pdfrwt beam="1">  1       21 0.10463796E-01 0.12500000E+03</pdfrwt>
<pdfrwt beam="2">  1       21 0.88357633E-02 0.12500000E+03</pdfrwt>
<totfact> 0.73982797E+06</totfact>
</mgrwt>
</event>
<event>
 3    1  0.1619206E-001  0.1250000E+03  0.7546771E-02  0.1235069E+00
         21   -1    0    0  502  501  0.00000000000E+00  0.00000000000E+00  0.38382359913E+03  0.38382359913E+03  0.00000000000E+00 0.  1.
         21   -1    0    0  501  502 -0.00000000000E+00 -0.00000000000E+00 -0.10177201217E+02  0.10177201217E+02  0.00000000000E+00 0.  1.
         25    1    1    2    0    0  0.00000000000E+00  0.00000000000E+00  0.37364639791E+03  0.39400080035E+03  0.12500000000E+03 0.  0.
<mgrwt>
<rscale>  0 0.12500000E+03</rscale>
<asrwt>0</asrwt>
<pdfrwt beam="1">  1       21 0.59049773E-01 0.12500000E+03</pdfrwt>
<pdfrwt beam="2">  1       21 0.15657236E-02 0.12500000E+03</pdfrwt>
<totfact> 0.48441838E+06</totfact>
</mgrwt>
</event>
<event>
 3    1  0.1619206E-001  0.1250000E+03  0.7546771E-02  0.1235069E+00
         21   -1    0    0  502  501  0.00000000000E+00  0.00000000000E+00  0.67023943668E+02  0.67023943668E+02  0.00000000000E+00 0.  1.
         21   -1    0    0  501  502 -0.00000000000E+00 -0.00000000000E+00 -0.58281410884E+02  0.58281410884E+02  0.00000000000E+00 0.  1.
         25    1    1    2    0    0  0.00000000000E+00  0.00000000000E+00  0.87425327842E+01  0.12530535455E+03  0.12500000000E+03 0.  0.
<mgrwt>
<rscale>  0 0.12500000E+03</rscale>
<asrwt>0</asrwt>
<pdfrwt beam="1">  1       21 0.10311376E-01 0.12500000E+03</pdfrwt>
<pdfrwt beam="2">  1       21 0.89663709E-02 0.12500000E+03</pdfrwt>
<totfact> 0.74002349E+06</totfact>
</mgrwt>
</event>
<event>
 3    1  0.1619206E-001  0.1250000E+03  0.7546771E-02  0.1235069E+00
         21   -1    0    0  502  501  0.00000000000E+00  0.00000000000E+00  0.14468193632E+02  0.14468193632E+02  0.00000000000E+00 0.  1.
         21   -1    0    0  501  502 -0.00000000000E+00 -0.00000000000E+00 -0.26998878364E+03  0.26998878364E+03  0.00000000000E+00 0.  1.
         25    1    1    2    0    0  0.00000000000E+00  0.00000000000E+00 -0.25552059001E+03  0.28445697727E+03  0.12500000000E+03 0.  0.
<mgrwt>
<rscale>  0 0.12500000E+03</rscale>
<asrwt>0</asrwt>
<pdfrwt beam="1">  1       21 0.22258761E-02 0.12500000E+03</pdfrwt>
<pdfrwt beam="2">  1       21 0.41536734E-01 0.12500000E+03</pdfrwt>
<totfact> 0.56773113E+06</totfact>
</mgrwt>
</event>
<event>
 3    1  0.1619206E-001  0.1250000E+03  0.7546771E-02  0.1235069E+00
         21   -1    0    0  502  501  0.00000000000E+00  0.00000000000E+00  0.16882361503E+02  0.16882361503E+02  0.00000000000E+00 0. -1.
         21   -1    0    0  501  502 -0.00000000000E+00 -0.00000000000E+00 -0.23138054468E+03  0.23138054468E+03  0.00000000000E+00 0. -1.
         25    1    1    2    0    0  0.00000000000E+00  0.00000000000E+00 -0.21449818318E+03  0.24826290618E+03  0.12500000000E+03 0.  0.
<mgrwt>
<rscale>  0 0.12500000E+03</rscale>
<asrwt>0</asrwt>
<pdfrwt beam="1">  1       21 0.25972864E-02 0.12500000E+03</pdfrwt>
<pdfrwt beam="2">  1       21 0.35597006E-01 0.12500000E+03</pdfrwt>
<totfact> 0.60042120E+06</totfact>
</mgrwt>
</event>
<event>
 3    1  0.1619206E-001  0.1250000E+03  0.7546771E-02  0.1235069E+00
         21   -1    0    0  502  501  0.00000000000E+00  0.00000000000E+00  0.17978276100E+03  0.17978276100E+03  0.00000000000E+00 0.  1.
         21   -1    0    0  501  502 -0.00000000000E+00 -0.00000000000E+00 -0.21727611581E+02  0.21727611581E+02  0.00000000000E+00 0.  1.
         25    1    1    2    0    0  0.00000000000E+00  0.00000000000E+00  0.15805514942E+03  0.20151037258E+03  0.12500000000E+03 0.  0.
<mgrwt>
<rscale>  0 0.12500000E+03</rscale>
<asrwt>0</asrwt>
<pdfrwt beam="1">  1       21 0.27658885E-01 0.12500000E+03</pdfrwt>
<pdfrwt beam="2">  1       21 0.33427096E-02 0.12500000E+03</pdfrwt>
<totfact> 0.64763961E+06</totfact>
</mgrwt>
</event>
<event>
 3    1  0.1619206E-001  0.1250000E+03  0.7546771E-02  0.1235069E+00
         21   -1    0    0  502  501  0.00000000000E+00  0.00000000000E+00  0.27972577904E+03  0.27972577904E+03  0.00000000000E+00 0. -1.
         21   -1    0    0  501  502 -0.00000000000E+00 -0.00000000000E+00 -0.13964569206E+02  0.13964569206E+02  0.00000000000E+00 0. -1.
         25    1    1    2    0    0  0.00000000000E+00  0.00000000000E+00  0.26576120983E+03  0.29369034824E+03  0.12500000000E+03 0.  0.
<mgrwt>
<rscale>  0 0.12500000E+03</rscale>
<asrwt>0</asrwt>
<pdfrwt beam="1">  1       21 0.43034731E-01 0.12500000E+03</pdfrwt>
<pdfrwt beam="2">  1       21 0.21483955E-02 0.12500000E+03</pdfrwt>
<totfact> 0.55984642E+06</totfact>
</mgrwt>
</event>
<event>
 3    1  0.1619206E-001  0.1250000E+03  0.7546771E-02  0.1235069E+00
         21   -1    0    0  502  501  0.00000000000E+00  0.00000000000E+00  0.63735286280E+03  0.63735286280E+03  0.00000000000E+00 0.  1.
         21   -1    0    0  501  502 -0.00000000000E+00 -0.00000000000E+00 -0.61288655437E+01  0.61288655437E+01  0.00000000000E+00 0.  1.
         25    1    1    2    0    0  0.00000000000E+00  0.00000000000E+00  0.63122399726E+03  0.64348172835E+03  0.12500000000E+03 0.  0.
<mgrwt>
<rscale>  0 0.12500000E+03</rscale>
<asrwt>0</asrwt>
<pdfrwt beam="1">  1       21 0.98054234E-01 0.12500000E+03</pdfrwt>
<pdfrwt beam="2">  1       21 0.94290290E-03 0.12500000E+03</pdfrwt>
<totfact> 0.35197098E+06</totfact>
</mgrwt>
</event>
<event>
 3    1  0.1619206E-001  0.1250000E+03  0.7546771E-02  0.1235069E+00
         21   -1    0    0  502  501  0.00000000000E+00  0.00000000000E+00  0.23599712885E+03  0.23599712885E+03  0.00000000000E+00 0.  1.
         21   -1    0    0  501  502 -0.00000000000E+00 -0.00000000000E+00 -0.16552108151E+02  0.16552108151E+02  0.00000000000E+00 0.  1.
         25    1    1    2    0    0  0.00000000000E+00  0.00000000000E+00  0.21944502070E+03  0.25254923700E+03  0.12500000000E+03 0.  0.
<mgrwt>
<rscale>  0 0.12500000E+03</rscale>
<asrwt>0</asrwt>
<pdfrwt beam="1">  1       21 0.36307248E-01 0.12500000E+03</pdfrwt>
<pdfrwt beam="2">  1       21 0.25464784E-02 0.12500000E+03</pdfrwt>
<totfact> 0.59639010E+06</totfact>
</mgrwt>
</event>
<event>
 3    1  0.1619206E-001  0.1250000E+03  0.7546771E-02  0.1235069E+00
         21   -1    0    0  502  501  0.00000000000E+00  0.00000000000E+00  0.75670269047E+02  0.75670269047E+02  0.00000000000E+00 0. -1.
         21   -1    0    0  501  502 -0.00000000000E+00 -0.00000000000E+00 -0.51621991691E+02  0.51621991691E+02  0.00000000000E+00 0. -1.
         25    1    1    2    0    0  0.00000000000E+00  0.00000000000E+00  0.24048277357E+02  0.12729226074E+03  0.12500000000E+03 0.  0.
<mgrwt>
<rscale>  0 0.12500000E+03</rscale>
<asrwt>0</asrwt>
<pdfrwt beam="1">  1       21 0.11641580E-01 0.12500000E+03</pdfrwt>
<pdfrwt beam="2">  1       21 0.79418449E-02 0.12500000E+03</pdfrwt>
<totfact> 0.73729402E+06</totfact>
</mgrwt>
</event>
<event>
 3    1  0.1619206E-001  0.1250000E+03  0.7546771E-02  0.1235069E+00
         21   -1    0    0  502  501  0.00000000000E+00  0.00000000000E+00  0.46825556532E+02  0.46825556532E+02  0.00000000000E+00 0.  1.
         21   -1    0    0  501  502 -0.00000000000E+00 -0.00000000000E+00 -0.83421325646E+02  0.83421325646E+02  0.00000000000E+00 0.  1.
         25    1    1    2    0    0  0.00000000000E+00  0.00000000000E+00 -0.36595769114E+02  0.13024688218E+03  0.12500000000E+03 0.  0.
<mgrwt>
<rscale>  0 0.12500000E+03</rscale>
<asrwt>0</asrwt>
<pdfrwt beam="1">  1       21 0.72039318E-02 0.12500000E+03</pdfrwt>
<pdfrwt beam="2">  1       21 0.12834050E-01 0.12500000E+03</pdfrwt>
<totfact> 0.73331938E+06</totfact>
</mgrwt>
</event>
<event>
 3    1  0.1619206E-001  0.1250000E+03  0.7546771E-02  0.1235069E+00
         21   -1    0    0  502  501  0.00000000000E+00  0.00000000000E+00  0.23285523914E+02  0.23285523914E+02  0.00000000000E+00 0.  1.
         21   -1    0    0  501  502 -0.00000000000E+00 -0.00000000000E+00 -0.16775443895E+03  0.16775443895E+03  0.00000000000E+00 0.  1.
         25    1    1    2    0    0  0.00000000000E+00  0.00000000000E+00 -0.14446891504E+03  0.19103996287E+03  0.12500000000E+03 0.  0.
<mgrwt>
<rscale>  0 0.12500000E+03</rscale>
<asrwt>0</asrwt>
<pdfrwt beam="1">  1       21 0.35823881E-02 0.12500000E+03</pdfrwt>
<pdfrwt beam="2">  1       21 0.25808377E-01 0.12500000E+03</pdfrwt>
<totfact> 0.65907067E+06</totfact>
</mgrwt>
</event>
<event>
 3    1  0.1619206E-001  0.1250000E+03  0.7546771E-02  0.1235069E+00
         21   -1    0    0  502  501  0.00000000000E+00  0.00000000000E+00  0.15830086387E+03  0.15830086387E+03  0.00000000000E+00 0.  1.
         21   -1    0    0  501  502 -0.00000000000E+00 -0.00000000000E+00 -0.24676112970E+02  0.24676112970E+02  0.00000000000E+00 0.  1.
         25    1    1    2    0    0  0.00000000000E+00  0.00000000000E+00  0.13362475090E+03  0.18297697684E+03  0.12500000000E+03 0.  0.
<mgrwt>
<rscale>  0 0.12500000E+03</rscale>
<asrwt>0</asrwt>
<pdfrwt beam="1">  1       21 0.24353978E-01 0.12500000E+03</pdfrwt>
<pdfrwt beam="2">  1       21 0.37963252E-02 0.12500000E+03</pdfrwt>
<totfact> 0.66811658E+06</totfact>
</mgrwt>
</event>
<event>
 3    1  0.1619206E-001  0.1250000E+03  0.7546771E-02  0.1235069E+00
         21   -1    0    0  502  501  0.00000000000E+00  0.00000000000E+00  0.36760356047E+03  0.36760356047E+03  0.00000000000E+00 0. -1.
         21   -1    0    0  501  502 -0.00000000000E+00 -0.00000000000E+00 -0.10626257251E+02  0.10626257251E+02  0.00000000000E+00 0. -1.
         25    1    1    2    0    0  0.00000000000E+00  0.00000000000E+00  0.35697730322E+03  0.37822981773E+03  0.12500000000E+03 0.  0.
<mgrwt>
<rscale>  0 0.12500000E+03</rscale>
<asrwt>0</asrwt>
<pdfrwt beam="1">  1       21 0.56554384E-01 0.12500000E+03</pdfrwt>
<pdfrwt beam="2">  1       21 0.16348091E-02 0.12500000E+03</pdfrwt>
<totfact> 0.49518801E+06</totfact>
</mgrwt>
</event>
<event>
 3    1  0.1619206E-001  0.1250000E+03  0.7546771E-02  0.1235069E+00
         21   -1    0    0  502  501  0.00000000000E+00  0.00000000000E+00  0.67719317226E+02  0.67719317226E+02  0.00000000000E+00 0.  1.
         21   -1    0    0  501  502 -0.00000000000E+00 -0.00000000000E+00 -0.57682950154E+02  0.57682950154E+02  0.00000000000E+00 0.  1.
         25    1    1    2    0    0  0.00000000000E+00  0.00000000000E+00  0.10036367073E+02  0.12540226738E+03  0.12500000000E+03 0.  0.
<mgrwt>
<rscale>  0 0.12500000E+03</rscale>
<asrwt>0</asrwt>
<pdfrwt beam="1">  1       21 0.10418356E-01 0.12500000E+03</pdfrwt>
<pdfrwt beam="2">  1       21 0.88743001E-02 0.12500000E+03</pdfrwt>
<totfact> 0.73989093E+06</totfact>
</mgrwt>
</event>
<event>
 3    1  0.1619206E-001  0.1250000E+03  0.7546771E-02  0.1235069E+00
         21   -1    0    0  502  501  0.00000000000E+00  0.00000000000E+00  0.69965020452E+02  0.69965020452E+02  0.00000000000E+00 0.  1.
         21   -1    0    0  501  502 -0.00000000000E+00 -0.00000000000E+00 -0.55831470852E+02  0.55831470852E+02  0.00000000000E+00 0.  1.
         25    1    1    2    0    0  0.00000000000E+00  0.00000000000E+00  0.14133549600E+02  0.12579649130E+03  0.12500000000E+03 0.  0.
<mgrwt>
<rscale>  0 0.12500000E+03</rscale>
<asrwt>0</asrwt>
<pdfrwt beam="1">  1       21 0.10763849E-01 0.12500000E+03</pdfrwt>
<pdfrwt beam="2">  1       21 0.85894571E-02 0.12500000E+03</pdfrwt>
<totfact> 0.73934158E+06</totfact>
</mgrwt>
</event>
<event>
 3    1  0.1619206E-001  0.1250000E+03  0.7546771E-02  0.1235069E+00
         21   -1    0    0  502  501  0.00000000000E+00  0.00000000000E+00  0.45341848045E+03  0.45341848045E+03  0.00000000000E+00 0. -1.
         21   -1    0    0  501  502 -0.00000000000E+00 -0.00000000000E+00 -0.86151098123E+01  0.86151098123E+01  0.00000000000E+00 0. -1.
         25    1    1    2    0    0  0.00000000000E+00  0.00000000000E+00  0.44480337064E+03  0.46203359026E+03  0.12500000000E+03 0.  0.
<mgrwt>
<rscale>  0 0.12500000E+03</rscale>
<asrwt>0</asrwt>
<pdfrwt beam="1">  1       21 0.69756671E-01 0.12500000E+03</pdfrwt>
<pdfrwt beam="2">  1       21 0.13254019E-02 0.12500000E+03</pdfrwt>
<totfact> 0.44180860E+06</totfact>
</mgrwt>
</event>
<event>
 3    1  0.1619206E-001  0.1250000E+03  0.7546771E-02  0.1235069E+00
         21   -1    0    0  502  501  0.00000000000E+00  0.00000000000E+00  0.56723030971E+02  0.56723030971E+02  0.00000000000E+00 0.  1.
         21   -1    0    0  501  502 -0.00000000000E+00 -0.00000000000E+00 -0.68865325656E+02  0.68865325656E+02  0.00000000000E+00 0.  1.
         25    1    1    2    0    0  0.00000000000E+00  0.00000000000E+00 -0.12142294685E+02  0.12558835663E+03  0.12500000000E+03 0.  0.
<mgrwt>
<rscale>  0 0.12500000E+03</rscale>
<asrwt>0</asrwt>
<pdfrwt beam="1">  1       21 0.87266202E-02 0.12500000E+03</pdfrwt>
<pdfrwt beam="2">  1       21 0.10594665E-01 0.12500000E+03</pdfrwt>
<totfact> 0.73963065E+06</totfact>
</mgrwt>
</event>
<event>
 3    1  0.1619206E-001  0.1250000E+03  0.7546771E-02  0.1235069E+00
         21   -1    0    0  502  501  0.00000000000E+00  0.00000000000E+00  0.38274096592E+02  0.38274096592E+02  0.00000000000E+00 0.  1.
         21   -1    0    0  501  502 -0.00000000000E+00 -0.00000000000E+00 -0.10205988770E+03  0.10205988770E+03  0.00000000000E+00 0.  1.
         25    1    1    2    0    0  0.00000000000E+00  0.00000000000E+00 -0.63785791109E+02  0.14033398429E+03  0.12500000000E+03 0.  0.
<mgrwt>
<rscale>  0 0.12500000E+03</rscale>
<asrwt>0</asrwt>
<pdfrwt beam="1">  1       21 0.58883226E-02 0.12500000E+03</pdfrwt>
<pdfrwt beam="2">  1       21 0.15701521E-01 0.12500000E+03</pdfrwt>
<totfact> 0.71995737E+06</totfact>
</mgrwt>
</event>
<event>
 3    1  0.1619206E-001  0.1250000E+03  0.7546771E-02  0.1235069E+00
         21   -1    0    0  502  501  0.00000000000E+00  0.00000000000E+00  0.39448727828E+02  0.39448727828E+02  0.00000000000E+00 0. -1.
         21   -1    0    0  501  502 -0.00000000000E+00 -0.00000000000E+00 -0.99020937178E+02  0.99020937178E+02  0.00000000000E+00 0. -1.
         25    1    1    2    0    0  0.00000000000E+00  0.00000000000E+00 -0.59572209350E+02  0.13846966501E+03  0.12500000000E+03 0.  0.
<mgrwt>
<rscale>  0 0.12500000E+03</rscale>
<asrwt>0</asrwt>
<pdfrwt beam="1">  1       21 0.60690352E-02 0.12500000E+03</pdfrwt>
<pdfrwt beam="2">  1       21 0.15233990E-01 0.12500000E+03</pdfrwt>
<totfact> 0.72239725E+06</totfact>
</mgrwt>
</event>
<event>
 3    1  0.1619206E-001  0.1250000E+03  0.7546771E-02  0.1235069E+00
         21   -1    0    0  502  501  0.00000000000E+00  0.00000000000E+00  0.12722868288E+03  0.12722868288E+03  0.00000000000E+00 0. -1.
         21   -1    0    0  501  502 -0.00000000000E+00 -0.00000000000E+00 -0.30702589318E+02  0.30702589318E+02  0.00000000000E+00 0. -1.
         25    1    1    2    0    0  0.00000000000E+00  0.00000000000E+00  0.96526093563E+02  0.15793127220E+03  0.12500000000E+03 0.  0.
<mgrwt>
<rscale>  0 0.12500000E+03</rscale>
<asrwt>0</asrwt>
<pdfrwt beam="1">  1       21 0.19573643E-01 0.12500000E+03</pdfrwt>
<pdfrwt beam="2">  1       21 0.47234754E-02 0.12500000E+03</pdfrwt>
<totfact> 0.69773160E+06</totfact>
</mgrwt>
</event>
<event>
 3    1  0.1619206E-001  0.1250000E+03  0.7546771E-02  0.1235069E+00
         21   -1    0    0  502  501  0.00000000000E+00  0.00000000000E+00  0.49681688563E+03  0.49681688563E+03  0.00000000000E+00 0. -1.
         21   -1    0    0  501  502 -0.00000000000E+00 -0.00000000000E+00 -0.78625548225E+01  0.78625548225E+01  0.00000000000E+00 0. -1.
         25    1    1    2    0    0  0.00000000000E+00  0.00000000000E+00  0.48895433080E+03  0.50467944045E+03  0.12500000000E+03 0.  0.
<mgrwt>
<rscale>  0 0.12500000E+03</rscale>
<asrwt>0</asrwt>
<pdfrwt beam="1">  1       21 0.76433343E-01 0.12500000E+03</pdfrwt>
<pdfrwt beam="2">  1       21 0.12096242E-02 0.12500000E+03</pdfrwt>
<totfact> 0.41791434E+06</totfact>
</mgrwt>
</event>
<event>
 3    1  0.1619206E-001  0.1250000E+03  0.7546771E-02  0.1235069E+00
         21   -1    0    0  502  501  0.00000000000E+00  0.00000000000E+00  0.16341847948E+02  0.16341847948E+02  0.00000000000E+00 0. -1.
         21   -1    0    0  501  502 -0.00000000000E+00 -0.00000000000E+00 -0.23903355438E+03  0.23903355438E+03  0.00000000000E+00 0. -1.
         25    1    1    2    0    0  0.00000000000E+00  0.00000000000E+00 -0.22269170643E+03  0.25537540232E+03  0.12500000000E+03 0.  0.
<mgrwt>
<rscale>  0 0.12500000E+03</rscale>
<asrwt>0</asrwt>
<pdfrwt beam="1">  1       21 0.25141303E-02 0.12500000E+03</pdfrwt>
<pdfrwt beam="2">  1       21 0.36774395E-01 0.12500000E+03</pdfrwt>
<totfact> 0.59375761E+06</totfact>
</mgrwt>
</event>
<event>
 3    1  0.1619206E-001  0.1250000E+03  0.7546771E-02  0.1235069E+00
         21   -1    0    0  502  501  0.00000000000E+00  0.00000000000E+00  0.10649780571E+02  0.10649780571E+02  0.00000000000E+00 0.  1.
         21   -1    0    0  501  502 -0.00000000000E+00 -0.00000000000E+00 -0.36679159480E+03  0.36679159480E+03  0.00000000000E+00 0.  1.
         25    1    1    2    0    0  0.00000000000E+00  0.00000000000E+00 -0.35614181423E+03  0.37744137537E+03  0.12500000000E+03 0.  0.
<mgrwt>
<rscale>  0 0.12500000E+03</rscale>
<asrwt>0</asrwt>
<pdfrwt beam="1">  1       21 0.16384280E-02 0.12500000E+03</pdfrwt>
<pdfrwt beam="2">  1       21 0.56429469E-01 0.12500000E+03</pdfrwt>
<totfact> 0.49573497E+06</totfact>
</mgrwt>
</event>
<event>
 3    1  0.1619206E-001  0.1250000E+03  0.7546771E-02  0.1235069E+00
         21   -1    0    0  502  501  0.00000000000E+00  0.00000000000E+00  0.88568980197E+02  0.88568980197E+02  0.00000000000E+00 0.  1.
         21   -1    0    0  501  502 -0.00000000000E+00 -0.00000000000E+00 -0.44104041746E+02  0.44104041746E+02  0.00000000000E+00 0.  1.
         25    1    1    2    0    0  0.00000000000E+00  0.00000000000E+00  0.44464938451E+02  0.13267302194E+03  0.12500000000E+03 0.  0.
<mgrwt>
<rscale>  0 0.12500000E+03</rscale>
<asrwt>0</asrwt>
<pdfrwt beam="1">  1       21 0.13625997E-01 0.12500000E+03</pdfrwt>
<pdfrwt beam="2">  1       21 0.67852372E-02 0.12500000E+03</pdfrwt>
<totfact> 0.73006092E+06</totfact>
</mgrwt>
</event>
<event>
 3    1  0.1619206E-001  0.1250000E+03  0.7546771E-02  0.1235069E+00
         21   -1    0    0  502  501  0.00000000000E+00  0.00000000000E+00  0.38399668080E+02  0.38399668080E+02  0.00000000000E+00 0. -1.
         21   -1    0    0  501  502 -0.00000000000E+00 -0.00000000000E+00 -0.10172613971E+03  0.10172613971E+03  0.00000000000E+00 0. -1.
         25    1    1    2    0    0  0.00000000000E+00  0.00000000000E+00 -0.63326471633E+02  0.14012580779E+03  0.12500000000E+03 0.  0.
<mgrwt>
<rscale>  0 0.12500000E+03</rscale>
<asrwt>0</asrwt>
<pdfrwt beam="1">  1       21 0.59076413E-02 0.12500000E+03</pdfrwt>
<pdfrwt beam="2">  1       21 0.15650175E-01 0.12500000E+03</pdfrwt>
<totfact> 0.72022889E+06</totfact>
</mgrwt>
</event>
<event>
 3    1  0.1619206E-001  0.1250000E+03  0.7546771E-02  0.1235069E+00
         21   -1    0    0  502  501  0.00000000000E+00  0.00000000000E+00  0.17829316307E+03  0.17829316307E+03  0.00000000000E+00 0.  1.
         21   -1    0    0  501  502 -0.00000000000E+00 -0.00000000000E+00 -0.21909140725E+02  0.21909140725E+02  0.00000000000E+00 0.  1.
         25    1    1    2    0    0  0.00000000000E+00  0.00000000000E+00  0.15638402234E+03  0.20020230379E+03  0.12500000000E+03 0.  0.
<mgrwt>
<rscale>  0 0.12500000E+03</rscale>
<asrwt>0</asrwt>
<pdfrwt beam="1">  1       21 0.27429716E-01 0.12500000E+03</pdfrwt>
<pdfrwt beam="2">  1       21 0.33706371E-02 0.12500000E+03</pdfrwt>
<totfact> 0.64905338E+06</totfact>
</mgrwt>
</event>
<event>
 3    1  0.1619206E-001  0.1250000E+03  0.7546771E-02  0.1235069E+00
         21   -1    0    0  502  501  0.00000000000E+00  0.00000000000E+00  0.28091816345E+02  0.28091816345E+02  0.00000000000E+00 0. -1.
         21   -1    0    0  501  502 -0.00000000000E+00 -0.00000000000E+00 -0.13905295236E+03  0.13905295236E+03  0.00000000000E+00 0. -1.
         25    1    1    2    0    0  0.00000000000E+00  0.00000000000E+00 -0.11096113602E+03  0.16714476871E+03  0.12500000000E+03 0.  0.
<mgrwt>
<rscale>  0 0.12500000E+03</rscale>
<asrwt>0</asrwt>
<pdfrwt beam="1">  1       21 0.43218179E-02 0.12500000E+03</pdfrwt>
<pdfrwt beam="2">  1       21 0.21392762E-01 0.12500000E+03</pdfrwt>
<totfact> 0.68656849E+06</totfact>
</mgrwt>
</event>
<event>
 3    1  0.1619206E-001  0.1250000E+03  0.7546771E-02  0.1235069E+00
         21   -1    0    0  502  501  0.00000000000E+00  0.00000000000E+00  0.12397671101E+03  0.12397671101E+03  0.00000000000E+00 0.  1.
         21   -1    0    0  501  502 -0.00000000000E+00 -0.00000000000E+00 -0.31507933774E+02  0.31507933774E+02  0.00000000000E+00 0.  1.
         25    1    1    2    0    0  0.00000000000E+00  0.00000000000E+00  0.92468777236E+02  0.15548464478E+03  0.12500000000E+03 0.  0.
<mgrwt>
<rscale>  0 0.12500000E+03</rscale>
<asrwt>0</asrwt>
<pdfrwt beam="1">  1       21 0.19073340E-01 0.12500000E+03</pdfrwt>
<pdfrwt beam="2">  1       21 0.48473745E-02 0.12500000E+03</pdfrwt>
<totfact> 0.70075474E+06</totfact>
</mgrwt>
</event>
<event>
 3    1  0.1619206E-001  0.1250000E+03  0.7546771E-02  0.1235069E+00
         21   -1    0    0  502  501  0.00000000000E+00  0.00000000000E+00  0.16179582833E+02  0.16179582833E+02  0.00000000000E+00 0.  1.
         21   -1    0    0  501  502 -0.00000000000E+00 -0.00000000000E+00 -0.24143082306E+03  0.24143082306E+03  0.00000000000E+00 0.  1.
         25    1    1    2    0    0  0.00000000000E+00  0.00000000000E+00 -0.22525124022E+03  0.25761040589E+03  0.12500000000E+03 0.  0.
<mgrwt>
<rscale>  0 0.12500000E+03</rscale>
<asrwt>0</asrwt>
<pdfrwt beam="1">  1       21 0.24891665E-02 0.12500000E+03</pdfrwt>
<pdfrwt beam="2">  1       21 0.37143205E-01 0.12500000E+03</pdfrwt>
<totfact> 0.59168987E+06</totfact>
</mgrwt>
</event>
<event>
 3    1  0.1619206E-001  0.1250000E+03  0.7546771E-02  0.1235069E+00
         21   -1    0    0  502  501  0.00000000000E+00  0.00000000000E+00  0.71988146464E+01  0.71988146464E+01  0.00000000000E+00 0. -1.
         21   -1    0    0  501  502 -0.00000000000E+00 -0.00000000000E+00 -0.54262405575E+03  0.54262405575E+03  0.00000000000E+00 0. -1.
         25    1    1    2    0    0  0.00000000000E+00  0.00000000000E+00 -0.53542524110E+03  0.54982287039E+03  0.12500000000E+03 0.  0.
<mgrwt>
<rscale>  0 0.12500000E+03</rscale>
<asrwt>0</asrwt>
<pdfrwt beam="1">  1       21 0.11075097E-02 0.12500000E+03</pdfrwt>
<pdfrwt beam="2">  1       21 0.83480644E-01 0.12500000E+03</pdfrwt>
<totfact> 0.39464823E+06</totfact>
</mgrwt>
</event>
<event>
 3    1  0.1619206E-001  0.1250000E+03  0.7546771E-02  0.1235069E+00
         21   -1    0    0  502  501  0.00000000000E+00  0.00000000000E+00  0.15768511651E+02  0.15768511651E+02  0.00000000000E+00 0. -1.
         21   -1    0    0  501  502 -0.00000000000E+00 -0.00000000000E+00 -0.24772471154E+03  0.24772471154E+03  0.00000000000E+00 0. -1.
         25    1    1    2    0    0  0.00000000000E+00  0.00000000000E+00 -0.23195619989E+03  0.26349322319E+03  0.12500000000E+03 0.  0.
<mgrwt>
<rscale>  0 0.12500000E+03</rscale>
<asrwt>0</asrwt>
<pdfrwt beam="1">  1       21 0.24259249E-02 0.12500000E+03</pdfrwt>
<pdfrwt beam="2">  1       21 0.38111494E-01 0.12500000E+03</pdfrwt>
<totfact> 0.58630571E+06</totfact>
</mgrwt>
</event>
<event>
 3    1  0.1619206E-001  0.1250000E+03  0.7546771E-02  0.1235069E+00
         21   -1    0    0  502  501  0.00000000000E+00  0.00000000000E+00  0.37936669958E+01  0.37936669958E+01  0.00000000000E+00 0.  1.
         21   -1    0    0  501  502 -0.00000000000E+00 -0.00000000000E+00 -0.10296765647E+04  0.10296765647E+04  0.00000000000E+00 0.  1.
         25    1    1    2    0    0  0.00000000000E+00  0.00000000000E+00 -0.10258828977E+04  0.10334702317E+04  0.12500000000E+03 0.  0.
<mgrwt>
<rscale>  0 0.12500000E+03</rscale>
<asrwt>0</asrwt>
<pdfrwt beam="1">  1       21 0.58364063E-03 0.12500000E+03</pdfrwt>
<pdfrwt beam="2">  1       21 0.15841190E+00 0.12500000E+03</pdfrwt>
<totfact> 0.22794723E+06</totfact>
</mgrwt>
</event>
<event>
 3    1  0.1619206E-001  0.1250000E+03  0.7546771E-02  0.1235069E+00
         21   -1    0    0  502  501  0.00000000000E+00  0.00000000000E+00  0.12837531610E+03  0.12837531610E+03  0.00000000000E+00 0.  1.
         21   -1    0    0  501  502 -0.00000000000E+00 -0.00000000000E+00 -0.30428357403E+02  0.30428357403E+02  0.00000000000E+00 0.  1.
         25    1    1    2    0    0  0.00000000000E+00  0.00000000000E+00  0.97946958697E+02  0.15880367350E+03  0.12500000000E+03 0.  0.
<mgrwt>
<rscale>  0 0.12500000E+03</rscale>
<asrwt>0</asrwt>
<pdfrwt beam="1">  1       21 0.19750048E-01 0.12500000E+03</pdfrwt>
<pdfrwt beam="2">  1       21 0.46812858E-02 0.12500000E+03</pdfrwt>
<totfact> 0.69665970E+06</totfact>
</mgrwt>
</event>
<event>
 3    1  0.1619206E-001  0.1250000E+03  0.7546771E-02  0.1235069E+00
         21   -1    0    0  502  501  0.00000000000E+00  0.00000000000E+00  0.64046072286E+02  0.64046072286E+02  0.00000000000E+00 0. -1.
         21   -1    0    0  501  502 -0.00000000000E+00 -0.00000000000E+00 -0.60991249902E+02  0.60991249902E+02  0.00000000000E+00 0. -1.
         25    1    1    2    0    0  0.00000000000E+00  0.00000000000E+00  0.30548223839E+01  0.12503732219E+03  0.12500000000E+03 0.  0.
<mgrwt>
<rscale>  0 0.12500000E+03</rscale>
<asrwt>0</asrwt>
<pdfrwt beam="1">  1       21 0.98532418E-02 0.12500000E+03</pdfrwt>
<pdfrwt beam="2">  1       21 0.93832693E-02 0.12500000E+03</pdfrwt>
<totfact> 0.74038540E+06</totfact>
</mgrwt>
</event>
<event>
 3    1  0.1619206E-001  0.1250000E+03  0.7546771E-02  0.1235069E+00
         21   -1    0    0  502  501  0.00000000000E+00  0.00000000000E+00  0.95628533955E+02  0.95628533955E+02  0.00000000000E+00 0. -1.
         21   -1    0    0  501  502 -0.00000000000E+00 -0.00000000000E+00 -0.40848163602E+02  0.40848163602E+02  0.00000000000E+00 0. -1.
         25    1    1    2    0    0  0.00000000000E+00  0.00000000000E+00  0.54780370354E+02  0.13647669756E+03  0.12500000000E+03 0.  0.
<mgrwt>
<rscale>  0 0.12500000E+03</rscale>
<asrwt>0</asrwt>
<pdfrwt beam="1">  1       21 0.14712082E-01 0.12500000E+03</pdfrwt>
<pdfrwt beam="2">  1       21 0.62843329E-02 0.12500000E+03</pdfrwt>
<totfact> 0.72501533E+06</totfact>
</mgrwt>
</event>
<event>
 3    1  0.1619206E-001  0.1250000E+03  0.7546771E-02  0.1235069E+00
         21   -1    0    0  502  501  0.00000000000E+00  0.00000000000E+00  0.19321549620E+02  0.19321549620E+02  0.00000000000E+00 0.  1.
         21   -1    0    0  501  502 -0.00000000000E+00 -0.00000000000E+00 -0.20217063729E+03  0.20217063729E+03  0.00000000000E+00 0.  1.
         25    1    1    2    0    0  0.00000000000E+00  0.00000000000E+00 -0.18284908767E+03  0.22149218691E+03  0.12500000000E+03 0.  0.
<mgrwt>
<rscale>  0 0.12500000E+03</rscale>
<asrwt>0</asrwt>
<pdfrwt beam="1">  1       21 0.29725463E-02 0.12500000E+03</pdfrwt>
<pdfrwt beam="2">  1       21 0.31103173E-01 0.12500000E+03</pdfrwt>
<totfact> 0.62670340E+06</totfact>
</mgrwt>
</event>
<event>
 3    1  0.1619206E-001  0.1250000E+03  0.7546771E-02  0.1235069E+00
         21   -1    0    0  502  501  0.00000000000E+00  0.00000000000E+00  0.23387876863E+03  0.23387876863E+03  0.00000000000E+00 0.  1.
         21   -1    0    0  501  502 -0.00000000000E+00 -0.00000000000E+00 -0.16702029102E+02  0.16702029102E+02  0.00000000000E+00 0.  1.
         25    1    1    2    0    0  0.00000000000E+00  0.00000000000E+00  0.21717673953E+03  0.25058079773E+03  0.12500000000E+03 0.  0.
<mgrwt>
<rscale>  0 0.12500000E+03</rscale>
<asrwt>0</asrwt>
<pdfrwt beam="1">  1       21 0.35981347E-01 0.12500000E+03</pdfrwt>
<pdfrwt beam="2">  1       21 0.25695431E-02 0.12500000E+03</pdfrwt>
<totfact> 0.59823552E+06</totfact>
</mgrwt>
</event>
<event>
 3    1  0.1619206E-001  0.1250000E+03  0.7546771E-02  0.1235069E+00
         21   -1    0    0  502  501  0.00000000000E+00  0.00000000000E+00  0.11807528519E+03  0.11807528519E+03  0.00000000000E+00 0.  1.
         21   -1    0    0  501  502 -0.00000000000E+00 -0.00000000000E+00 -0.33082706458E+02  0.33082706458E+02  0.00000000000E+00 0.  1.
         25    1    1    2    0    0  0.00000000000E+00  0.00000000000E+00  0.84992578735E+02  0.15115799165E+03  0.12500000000E+03 0.  0.
<mgrwt>
<rscale>  0 0.12500000E+03</rscale>
<asrwt>0</asrwt>
<pdfrwt beam="1">  1       21 0.18165428E-01 0.12500000E+03</pdfrwt>
<pdfrwt beam="2">  1       21 0.50896472E-02 0.12500000E+03</pdfrwt>
<totfact> 0.70614038E+06</totfact>
</mgrwt>
</event>
<event>
 3    1  0.1619206E-001  0.1250000E+03  0.7546771E-02  0.1235069E+00
         21   -1    0    0  502  501  0.00000000000E+00  0.00000000000E+00  0.66297686624E+03  0.66297686624E+03  0.00000000000E+00 0.  1.
         21   -1    0    0  501  502 -0.00000000000E+00 -0.00000000000E+00 -0.58919853752E+01  0.58919853752E+01  0.00000000000E+00 0.  1.
         25    1    1    2    0    0  0.00000000000E+00  0.00000000000E+00  0.65708488087E+03  0.66886885162E+03  0.12500000000E+03 0.  0.
<mgrwt>
<rscale>  0 0.12500000E+03</rscale>
<asrwt>0</asrwt>
<pdfrwt beam="1">  1       21 0.10199638E+00 0.12500000E+03</pdfrwt>
<pdfrwt beam="2">  1       21 0.90645981E-03 0.12500000E+03</pdfrwt>
<totfact> 0.34145236E+06</totfact>
</mgrwt>
</event>
<event>
 3    1  0.1619206E-001  0.1250000E+03  0.7546771E-02  0.1235069E+00
         21   -1    0    0  502  501  0.00000000000E+00  0.00000000000E+00  0.58648445384E+02  0.58648445384E+02  0.00000000000E+00 0.  1.
         21   -1    0    0  501  502 -0.00000000000E+00 -0.00000000000E+00 -0.66604493511E+02  0.66604493511E+02  0.00000000000E+00 0.  1.
         25    1    1    2    0    0  0.00000000000E+00  0.00000000000E+00 -0.79560481273E+01  0.12525293889E+03  0.12500000000E+03 0.  0.
<mgrwt>
<rscale>  0 0.12500000E+03</rscale>
<asrwt>0</asrwt>
<pdfrwt beam="1">  1       21 0.90228377E-02 0.12500000E+03</pdfrwt>
<pdfrwt beam="2">  1       21 0.10246845E-01 0.12500000E+03</pdfrwt>
<totfact> 0.74009425E+06</totfact>
</mgrwt>
</event>
<event>
 3    1  0.1619206E-001  0.1250000E+03  0.7546771E-02  0.1235069E+00
         21   -1    0    0  502  501  0.00000000000E+00  0.00000000000E+00  0.70281887125E+03  0.70281887125E+03  0.00000000000E+00 0.  1.
         21   -1    0    0  501  502 -0.00000000000E+00 -0.00000000000E+00 -0.55579754042E+01  0.55579754042E+01  0.00000000000E+00 0.  1.
         25    1    1    2    0    0  0.00000000000E+00  0.00000000000E+00  0.69726089584E+03  0.70837684665E+03  0.12500000000E+03 0.  0.
<mgrwt>
<rscale>  0 0.12500000E+03</rscale>
<asrwt>0</asrwt>
<pdfrwt beam="1">  1       21 0.10812591E+00 0.12500000E+03</pdfrwt>
<pdfrwt beam="2">  1       21 0.85507370E-03 0.12500000E+03</pdfrwt>
<totfact> 0.32589694E+06</totfact>
</mgrwt>
</event>
<event>
 3    1  0.1619206E-001  0.1250000E+03  0.7546771E-02  0.1235069E+00
         21   -1    0    0  502  501  0.00000000000E+00  0.00000000000E+00  0.47354740977E+03  0.47354740977E+03  0.00000000000E+00 0. -1.
         21   -1    0    0  501  502 -0.00000000000E+00 -0.00000000000E+00 -0.82489100761E+01  0.82489100761E+01  0.00000000000E+00 0. -1.
         25    1    1    2    0    0  0.00000000000E+00  0.00000000000E+00  0.46529849970E+03  0.48179631985E+03  0.12500000000E+03 0.  0.
<mgrwt>
<rscale>  0 0.12500000E+03</rscale>
<asrwt>0</asrwt>
<pdfrwt beam="1">  1       21 0.72853426E-01 0.12500000E+03</pdfrwt>
<pdfrwt beam="2">  1       21 0.12690635E-02 0.12500000E+03</pdfrwt>
<totfact> 0.43048828E+06</totfact>
</mgrwt>
</event>
<event>
 3    1  0.1619206E-001  0.1250000E+03  0.7546771E-02  0.1235069E+00
         21   -1    0    0  502  501  0.00000000000E+00  0.00000000000E+00  0.17553726187E+02  0.17553726187E+02  0.00000000000E+00 0. -1.
         21   -1    0    0  501  502 -0.00000000000E+00 -0.00000000000E+00 -0.22253110014E+03  0.22253110014E+03  0.00000000000E+00 0. -1.
         25    1    1    2    0    0  0.00000000000E+00  0.00000000000E+00 -0.20497737396E+03  0.24008482633E+03  0.12500000000E+03 0.  0.
<mgrwt>
<rscale>  0 0.12500000E+03</rscale>
<asrwt>0</asrwt>
<pdfrwt beam="1">  1       21 0.27005732E-02 0.12500000E+03</pdfrwt>
<pdfrwt beam="2">  1       21 0.34235555E-01 0.12500000E+03</pdfrwt>
<totfact> 0.60824454E+06</totfact>
</mgrwt>
</event>
<event>
 3    1  0.1619206E-001  0.1250000E+03  0.7546771E-02  0.1235069E+00
         21   -1    0    0  502  501  0.00000000000E+00  0.00000000000E+00  0.51294189984E+03  0.51294189984E+03  0.00000000000E+00 0. -1.
         21   -1    0    0  501  502 -0.00000000000E+00 -0.00000000000E+00 -0.76153849027E+01  0.76153849027E+01  0.00000000000E+00 0. -1.
         25    1    1    2    0    0  0.00000000000E+00  0.00000000000E+00  0.50532651494E+03  0.52055728474E+03  0.12500000000E+03 0.  0.
<mgrwt>
<rscale>  0 0.12500000E+03</rscale>
<asrwt>0</asrwt>
<pdfrwt beam="1">  1       21 0.78914111E-01 0.12500000E+03</pdfrwt>
<pdfrwt beam="2">  1       21 0.11715981E-02 0.12500000E+03</pdfrwt>
<totfact> 0.40950715E+06</totfact>
</mgrwt>
</event>
<event>
 3    1  0.1619206E-001  0.1250000E+03  0.7546771E-02  0.1235069E+00
         21   -1    0    0  502  501  0.00000000000E+00  0.00000000000E+00  0.65207040724E+02  0.65207040724E+02  0.00000000000E+00 0. -1.
         21   -1    0    0  501  502 -0.00000000000E+00 -0.00000000000E+00 -0.59905340844E+02  0.59905340844E+02  0.00000000000E+00 0. -1.
         25    1    1    2    0    0  0.00000000000E+00  0.00000000000E+00  0.53016998792E+01  0.12511238157E+03  0.12500000000E+03 0.  0.
<mgrwt>
<rscale>  0 0.12500000E+03</rscale>
<asrwt>0</asrwt>
<pdfrwt beam="1">  1       21 0.10031852E-01 0.12500000E+03</pdfrwt>
<pdfrwt beam="2">  1       21 0.92162063E-02 0.12500000E+03</pdfrwt>
<totfact> 0.74028403E+06</totfact>
</mgrwt>
</event>
<event>
 3    1  0.1619206E-001  0.1250000E+03  0.7546771E-02  0.1235069E+00
         21   -1    0    0  502  501  0.00000000000E+00  0.00000000000E+00  0.30015608126E+01  0.30015608126E+01  0.00000000000E+00 0. -1.
         21   -1    0    0  501  502 -0.00000000000E+00 -0.00000000000E+00 -0.13014062496E+04  0.13014062496E+04  0.00000000000E+00 0. -1.
         25    1    1    2    0    0  0.00000000000E+00  0.00000000000E+00 -0.12984046888E+04  0.13044078104E+04  0.12500000000E+03 0.  0.
<mgrwt>
<rscale>  0 0.12500000E+03</rscale>
<asrwt>0</asrwt>
<pdfrwt beam="1">  1       21 0.46177899E-03 0.12500000E+03</pdfrwt>
<pdfrwt beam="2">  1       21 0.20021617E+00 0.12500000E+03</pdfrwt>
<totfact> 0.17173399E+06</totfact>
</mgrwt>
</event>
<event>
 3    1  0.1619206E-001  0.1250000E+03  0.7546771E-02  0.1235069E+00
         21   -1    0    0  502  501  0.00000000000E+00  0.00000000000E+00  0.33013754277E+02  0.33013754277E+02  0.00000000000E+00 0.  1.
         21   -1    0    0  501  502 -0.00000000000E+00 -0.00000000000E+00 -0.11832189600E+03  0.11832189600E+03  0.00000000000E+00 0.  1.
         25    1    1    2    0    0  0.00000000000E+00  0.00000000000E+00 -0.85308141718E+02  0.15133565027E+03  0.12500000000E+03 0.  0.
<mgrwt>
<rscale>  0 0.12500000E+03</rscale>
<asrwt>0</asrwt>
<pdfrwt beam="1">  1       21 0.50790392E-02 0.12500000E+03</pdfrwt>
<pdfrwt beam="2">  1       21 0.18203368E-01 0.12500000E+03</pdfrwt>
<totfact> 0.70591820E+06</totfact>
</mgrwt>
</event>
<event>
 3    1  0.1619206E-001  0.1250000E+03  0.7546771E-02  0.1235069E+00
         21   -1    0    0  502  501  0.00000000000E+00  0.00000000000E+00  0.81925810460E+01  0.81925810460E+01  0.00000000000E+00 0. -1.
         21   -1    0    0  501  502 -0.00000000000E+00 -0.00000000000E+00 -0.47680333927E+03  0.47680333927E+03  0.00000000000E+00 0. -1.
         25    1    1    2    0    0  0.00000000000E+00  0.00000000000E+00 -0.46861075823E+03  0.48499592032E+03  0.12500000000E+03 0.  0.
<mgrwt>
<rscale>  0 0.12500000E+03</rscale>
<asrwt>0</asrwt>
<pdfrwt beam="1">  1       21 0.12603969E-02 0.12500000E+03</pdfrwt>
<pdfrwt beam="2">  1       21 0.73354372E-01 0.12500000E+03</pdfrwt>
<totfact> 0.42869637E+06</totfact>
</mgrwt>
</event>
<event>
 3    1  0.1619206E-001  0.1250000E+03  0.7546771E-02  0.1235069E+00
         21   -1    0    0  502  501  0.00000000000E+00  0.00000000000E+00  0.42137216914E+02  0.42137216914E+02  0.00000000000E+00 0. -1.
         21   -1    0    0  501  502 -0.00000000000E+00 -0.00000000000E+00 -0.92703084970E+02  0.92703084970E+02  0.00000000000E+00 0. -1.
         25    1    1    2    0    0  0.00000000000E+00  0.00000000000E+00 -0.50565868056E+02  0.13484030188E+03  0.12500000000E+03 0.  0.
<mgrwt>
<rscale>  0 0.12500000E+03</rscale>
<asrwt>0</asrwt>
<pdfrwt beam="1">  1       21 0.64826488E-02 0.12500000E+03</pdfrwt>
<pdfrwt beam="2">  1       21 0.14262013E-01 0.12500000E+03</pdfrwt>
<totfact> 0.72717624E+06</totfact>
</mgrwt>
</event>
<event>
 3    1  0.1619206E-001  0.1250000E+03  0.7546771E-02  0.1235069E+00
         21   -1    0    0  502  501  0.00000000000E+00  0.00000000000E+00  0.13019356987E+03  0.13019356987E+03  0.00000000000E+00 0. -1.
         21   -1    0    0  501  502 -0.00000000000E+00 -0.00000000000E+00 -0.30003401889E+02  0.30003401889E+02  0.00000000000E+00 0. -1.
         25    1    1    2    0    0  0.00000000000E+00  0.00000000000E+00  0.10019016798E+03  0.16019697175E+03  0.12500000000E+03 0.  0.
<mgrwt>
<rscale>  0 0.12500000E+03</rscale>
<asrwt>0</asrwt>
<pdfrwt beam="1">  1       21 0.20029780E-01 0.12500000E+03</pdfrwt>
<pdfrwt beam="2">  1       21 0.46159080E-02 0.12500000E+03</pdfrwt>
<totfact> 0.69495436E+06</totfact>
</mgrwt>
</event>
<event>
 3    1  0.1619206E-001  0.1250000E+03  0.7546771E-02  0.1235069E+00
         21   -1    0    0  502  501  0.00000000000E+00  0.00000000000E+00  0.63725168580E+03  0.63725168580E+03  0.00000000000E+00 0.  1.
         21   -1    0    0  501  502 -0.00000000000E+00 -0.00000000000E+00 -0.61298386290E+01  0.61298386290E+01  0.00000000000E+00 0.  1.
         25    1    1    2    0    0  0.00000000000E+00  0.00000000000E+00  0.63112184717E+03  0.64338152443E+03  0.12500000000E+03 0.  0.
<mgrwt>
<rscale>  0 0.12500000E+03</rscale>
<asrwt>0</asrwt>
<pdfrwt beam="1">  1       21 0.98038669E-01 0.12500000E+03</pdfrwt>
<pdfrwt beam="2">  1       21 0.94305260E-03 0.12500000E+03</pdfrwt>
<totfact> 0.35201311E+06</totfact>
</mgrwt>
</event>
<event>
 3    1  0.1619206E-001  0.1250000E+03  0.7546771E-02  0.1235069E+00
         21   -1    0    0  502  501  0.00000000000E+00  0.00000000000E+00  0.91922115030E+01  0.91922115030E+01  0.00000000000E+00 0. -1.
         21   -1    0    0  501  502 -0.00000000000E+00 -0.00000000000E+00 -0.42495214549E+03  0.42495214549E+03  0.00000000000E+00 0. -1.
         25    1    1    2    0    0  0.00000000000E+00  0.00000000000E+00 -0.41575993399E+03  0.43414435699E+03  0.12500000000E+03 0.  0.
<mgrwt>
<rscale>  0 0.12500000E+03</rscale>
<asrwt>0</asrwt>
<pdfrwt beam="1">  1       21 0.14141862E-02 0.12500000E+03</pdfrwt>
<pdfrwt beam="2">  1       21 0.65377262E-01 0.12500000E+03</pdfrwt>
<totfact> 0.45856086E+06</totfact>
</mgrwt>
</event>
<event>
 3    1  0.1619206E-001  0.1250000E+03  0.7546771E-02  0.1235069E+00
         21   -1    0    0  502  501  0.00000000000E+00  0.00000000000E+00  0.20350631333E+02  0.20350631333E+02  0.00000000000E+00 0.  1.
         21   -1    0    0  501  502 -0.00000000000E+00 -0.00000000000E+00 -0.19194736203E+03  0.19194736203E+03  0.00000000000E+00 0.  1.
         25    1    1    2    0    0  0.00000000000E+00  0.00000000000E+00 -0.17159673070E+03  0.21229799336E+03  0.12500000000E+03 0.  0.
<mgrwt>
<rscale>  0 0.12500000E+03</rscale>
<asrwt>0</asrwt>
<pdfrwt beam="1">  1       21 0.31308666E-02 0.12500000E+03</pdfrwt>
<pdfrwt beam="2">  1       21 0.29530361E-01 0.12500000E+03</pdfrwt>
<totfact> 0.63618570E+06</totfact>
</mgrwt>
</event>
<event>
 3    1  0.1619206E-001  0.1250000E+03  0.7546771E-02  0.1235069E+00
         21   -1    0    0  502  501  0.00000000000E+00  0.00000000000E+00  0.14120171345E+03  0.14120171345E+03  0.00000000000E+00 0.  1.
         21   -1    0    0  501  502 -0.00000000000E+00 -0.00000000000E+00 -0.27664324352E+02  0.27664324352E+02  0.00000000000E+00 0.  1.
         25    1    1    2    0    0  0.00000000000E+00  0.00000000000E+00  0.11353738910E+03  0.16886603780E+03  0.12500000000E+03 0.  0.
<mgrwt>
<rscale>  0 0.12500000E+03</rscale>
<asrwt>0</asrwt>
<pdfrwt beam="1">  1       21 0.21723340E-01 0.12500000E+03</pdfrwt>
<pdfrwt beam="2">  1       21 0.42560500E-02 0.12500000E+03</pdfrwt>
<totfact> 0.68452062E+06</totfact>
</mgrwt>
</event>
<event>
 3    1  0.1619206E-001  0.1250000E+03  0.7546771E-02  0.1235069E+00
         21   -1    0    0  502  501  0.00000000000E+00  0.00000000000E+00  0.89431290022E+01  0.89431290022E+01  0.00000000000E+00 0.  1.
         21   -1    0    0  501  502 -0.00000000000E+00 -0.00000000000E+00 -0.43678784003E+03  0.43678784003E+03  0.00000000000E+00 0.  1.
         25    1    1    2    0    0  0.00000000000E+00  0.00000000000E+00 -0.42784471103E+03  0.44573096903E+03  0.12500000000E+03 0.  0.
<mgrwt>
<rscale>  0 0.12500000E+03</rscale>
<asrwt>0</asrwt>
<pdfrwt beam="1">  1       21 0.13758660E-02 0.12500000E+03</pdfrwt>
<pdfrwt beam="2">  1       21 0.67198127E-01 0.12500000E+03</pdfrwt>
<totfact> 0.45148825E+06</totfact>
</mgrwt>
</event>
<event>
 3    1  0.1619206E-001  0.1250000E+03  0.7546771E-02  0.1235069E+00
         21   -1    0    0  502  501  0.00000000000E+00  0.00000000000E+00  0.59954615773E+03  0.59954615773E+03  0.00000000000E+00 0. -1.
         21   -1    0    0  501  502 -0.00000000000E+00 -0.00000000000E+00 -0.65153448981E+01  0.65153448981E+01  0.00000000000E+00 0. -1.
         25    1    1    2    0    0  0.00000000000E+00  0.00000000000E+00  0.59303081284E+03  0.60606150263E+03  0.12500000000E+03 0.  0.
<mgrwt>
<rscale>  0 0.12500000E+03</rscale>
<asrwt>0</asrwt>
<pdfrwt beam="1">  1       21 0.92237827E-01 0.12500000E+03</pdfrwt>
<pdfrwt beam="2">  1       21 0.10023612E-02 0.12500000E+03</pdfrwt>
<totfact> 0.36819947E+06</totfact>
</mgrwt>
</event>
<event>
 3    1  0.1619206E-001  0.1250000E+03  0.7546771E-02  0.1235069E+00
         21   -1    0    0  502  501  0.00000000000E+00  0.00000000000E+00  0.95536155559E+02  0.95536155559E+02  0.00000000000E+00 0. -1.
         21   -1    0    0  501  502 -0.00000000000E+00 -0.00000000000E+00 -0.40887661610E+02  0.40887661610E+02  0.00000000000E+00 0. -1.
         25    1    1    2    0    0  0.00000000000E+00  0.00000000000E+00  0.54648493949E+02  0.13642381717E+03  0.12500000000E+03 0.  0.
<mgrwt>
<rscale>  0 0.12500000E+03</rscale>
<asrwt>0</asrwt>
<pdfrwt beam="1">  1       21 0.14697870E-01 0.12500000E+03</pdfrwt>
<pdfrwt beam="2">  1       21 0.62904095E-02 0.12500000E+03</pdfrwt>
<totfact> 0.72508494E+06</totfact>
</mgrwt>
</event>
<event>
 3    1  0.1619206E-001  0.1250000E+03  0.7546771E-02  0.1235069E+00
         21   -1    0    0  502  501  0.00000000000E+00  0.00000000000E+00  0.62231567932E+02  0.62231567932E+02  0.00000000000E+00 0.  1.
         21   -1    0    0  501  502 -0.00000000000E+00 -0.00000000000E+00 -0.62769589934E+02  0.62769589934E+02  0.00000000000E+00 0.  1.
         25    1    1    2    0    0  0.00000000000E+00  0.00000000000E+00 -0.53802200202E+00  0.12500115787E+03  0.12500000000E+03 0.  0.
<mgrwt>
<rscale>  0 0.12500000E+03</rscale>
<asrwt>0</asrwt>
<pdfrwt beam="1">  1       21 0.95740874E-02 0.12500000E+03</pdfrwt>
<pdfrwt beam="2">  1       21 0.96568600E-02 0.12500000E+03</pdfrwt>
<totfact> 0.74043425E+06</totfact>
</mgrwt>
</event>
<event>
 3    1  0.1619206E-001  0.1250000E+03  0.7546771E-02  0.1235069E+00
         21   -1    0    0  502  501  0.00000000000E+00  0.00000000000E+00  0.74549017721E+03  0.74549017721E+03  0.00000000000E+00 0. -1.
         21   -1    0    0  501  502 -0.00000000000E+00 -0.00000000000E+00 -0.52398410059E+01  0.52398410059E+01  0.00000000000E+00 0. -1.
         25    1    1    2    0    0  0.00000000000E+00  0.00000000000E+00  0.74025033620E+03  0.75073001822E+03  0.12500000000E+03 0.  0.
<mgrwt>
<rscale>  0 0.12500000E+03</rscale>
<asrwt>0</asrwt>
<pdfrwt beam="1">  1       21 0.11469071E+00 0.12500000E+03</pdfrwt>
<pdfrwt beam="2">  1       21 0.80612998E-03 0.12500000E+03</pdfrwt>
<totfact> 0.31043219E+06</totfact>
</mgrwt>
</event>
<event>
 3    1  0.1619206E-001  0.1250000E+03  0.7546771E-02  0.1235069E+00
         21   -1    0    0  502  501  0.00000000000E+00  0.00000000000E+00  0.14069860618E+02  0.14069860618E+02  0.00000000000E+00 0.  1.
         21   -1    0    0  501  502 -0.00000000000E+00 -0.00000000000E+00 -0.27763245893E+03  0.27763245893E+03  0.00000000000E+00 0.  1.
         25    1    1    2    0    0  0.00000000000E+00  0.00000000000E+00 -0.26356259831E+03  0.29170231954E+03  0.12500000000E+03 0.  0.
<mgrwt>
<rscale>  0 0.12500000E+03</rscale>
<asrwt>0</asrwt>
<pdfrwt beam="1">  1       21 0.21645938E-02 0.12500000E+03</pdfrwt>
<pdfrwt beam="2">  1       21 0.42712688E-01 0.12500000E+03</pdfrwt>
<totfact> 0.56152869E+06</totfact>
</mgrwt>
</event>
<event>
 3    1  0.1619206E-001  0.1250000E+03  0.7546771E-02  0.1235069E+00
         21   -1    0    0  502  501  0.00000000000E+00  0.00000000000E+00  0.70381206848E+01  0.70381206848E+01  0.00000000000E+00 0. -1.
         21   -1    0    0  501  502 -0.00000000000E+00 -0.00000000000E+00 -0.55501321659E+03  0.55501321659E+03  0.00000000000E+00 0. -1.
         25    1    1    2    0    0  0.00000000000E+00  0.00000000000E+00 -0.54797509590E+03  0.56205133727E+03  0.12500000000E+03 0.  0.
<mgrwt>
<rscale>  0 0.12500000E+03</rscale>
<asrwt>0</asrwt>
<pdfrwt beam="1">  1       21 0.10827876E-02 0.12500000E+03</pdfrwt>
<pdfrwt beam="2">  1       21 0.85386665E-01 0.12500000E+03</pdfrwt>
<totfact> 0.38867042E+06</totfact>
</mgrwt>
</event>
<event>
 3    1  0.1619206E-001  0.1250000E+03  0.7546771E-02  0.1235069E+00
         21   -1    0    0  502  501  0.00000000000E+00  0.00000000000E+00  0.56555475534E+02  0.56555475534E+02  0.00000000000E+00 0. -1.
         21   -1    0    0  501  502 -0.00000000000E+00 -0.00000000000E+00 -0.69069351165E+02  0.69069351165E+02  0.00000000000E+00 0. -1.
         25    1    1    2    0    0  0.00000000000E+00  0.00000000000E+00 -0.12513875631E+02  0.12562482670E+03  0.12500000000E+03 0.  0.
<mgrwt>
<rscale>  0 0.12500000E+03</rscale>
<asrwt>0</asrwt>
<pdfrwt beam="1">  1       21 0.87008424E-02 0.12500000E+03</pdfrwt>
<pdfrwt beam="2">  1       21 0.10626054E-01 0.12500000E+03</pdfrwt>
<totfact> 0.73957986E+06</totfact>
</mgrwt>
</event>
<event>
 3    1  0.1619206E-001  0.1250000E+03  0.7546771E-02  0.1235069E+00
         21   -1    0    0  502  501  0.00000000000E+00  0.00000000000E+00  0.44620529928E+03  0.44620529928E+03  0.00000000000E+00 0. -1.
         21   -1    0    0  501  502 -0.00000000000E+00 -0.00000000000E+00 -0.87543783238E+01  0.87543783238E+01  0.00000000000E+00 0. -1.
         25    1    1    2    0    0  0.00000000000E+00  0.00000000000E+00  0.43745092096E+03  0.45495967761E+03  0.12500000000E+03 0.  0.
<mgrwt>
<rscale>  0 0.12500000E+03</rscale>
<asrwt>0</asrwt>
<pdfrwt beam="1">  1       21 0.68646952E-01 0.12500000E+03</pdfrwt>
<pdfrwt beam="2">  1       21 0.13468278E-02 0.12500000E+03</pdfrwt>
<totfact> 0.44596979E+06</totfact>
</mgrwt>
</event>
<event>
 3    1  0.1619206E-001  0.1250000E+03  0.7546771E-02  0.1235069E+00
         21   -1    0    0  502  501  0.00000000000E+00  0.00000000000E+00  0.46078001617E+02  0.46078001617E+02  0.00000000000E+00 0.  1.
         21   -1    0    0  501  502 -0.00000000000E+00 -0.00000000000E+00 -0.84774726831E+02  0.84774726831E+02  0.00000000000E+00 0.  1.
         25    1    1    2    0    0  0.00000000000E+00  0.00000000000E+00 -0.38696725214E+02  0.13085272845E+03  0.12500000000E+03 0.  0.
<mgrwt>
<rscale>  0 0.12500000E+03</rscale>
<asrwt>0</asrwt>
<pdfrwt beam="1">  1       21 0.70889235E-02 0.12500000E+03</pdfrwt>
<pdfrwt beam="2">  1       21 0.13042265E-01 0.12500000E+03</pdfrwt>
<totfact> 0.73250524E+06</totfact>
</mgrwt>
</event>
<event>
 3    1  0.1619206E-001  0.1250000E+03  0.7546771E-02  0.1235069E+00
         21   -1    0    0  502  501  0.00000000000E+00  0.00000000000E+00  0.71866776719E+01  0.71866776719E+01  0.00000000000E+00 0. -1.
         21   -1    0    0  501  502 -0.00000000000E+00 -0.00000000000E+00 -0.54354044780E+03  0.54354044780E+03  0.00000000000E+00 0. -1.
         25    1    1    2    0    0  0.00000000000E+00  0.00000000000E+00 -0.53635377013E+03  0.55072712547E+03  0.12500000000E+03 0.  0.
<mgrwt>
<rscale>  0 0.12500000E+03</rscale>
<asrwt>0</asrwt>
<pdfrwt beam="1">  1       21 0.11056428E-02 0.12500000E+03</pdfrwt>
<pdfrwt beam="2">  1       21 0.83621604E-01 0.12500000E+03</pdfrwt>
<totfact> 0.39420172E+06</totfact>
</mgrwt>
</event>
<event>
 3    1  0.1619206E-001  0.1250000E+03  0.7546771E-02  0.1235069E+00
         21   -1    0    0  502  501  0.00000000000E+00  0.00000000000E+00  0.62253424440E+02  0.62253424440E+02  0.00000000000E+00 0. -1.
         21   -1    0    0  501  502 -0.00000000000E+00 -0.00000000000E+00 -0.62747552205E+02  0.62747552205E+02  0.00000000000E+00 0. -1.
         25    1    1    2    0    0  0.00000000000E+00  0.00000000000E+00 -0.49412776459E+00  0.12500097665E+03  0.12500000000E+03 0.  0.
<mgrwt>
<rscale>  0 0.12500000E+03</rscale>
<asrwt>0</asrwt>
<pdfrwt beam="1">  1       21 0.95774499E-02 0.12500000E+03</pdfrwt>
<pdfrwt beam="2">  1       21 0.96534696E-02 0.12500000E+03</pdfrwt>
<totfact> 0.74043450E+06</totfact>
</mgrwt>
</event>
<event>
 3    1  0.1619206E-001  0.1250000E+03  0.7546771E-02  0.1235069E+00
         21   -1    0    0  502  501  0.00000000000E+00  0.00000000000E+00  0.11126009705E+03  0.11126009705E+03  0.00000000000E+00 0.  1.
         21   -1    0    0  501  502 -0.00000000000E+00 -0.00000000000E+00 -0.35109173041E+02  0.35109173041E+02  0.00000000000E+00 0.  1.
         25    1    1    2    0    0  0.00000000000E+00  0.00000000000E+00  0.76150924011E+02  0.14636927009E+03  0.12500000000E+03 0.  0.
<mgrwt>
<rscale>  0 0.12500000E+03</rscale>
<asrwt>0</asrwt>
<pdfrwt beam="1">  1       21 0.17116938E-01 0.12500000E+03</pdfrwt>
<pdfrwt beam="2">  1       21 0.54014113E-02 0.12500000E+03</pdfrwt>
<totfact> 0.71218324E+06</totfact>
</mgrwt>
</event>
<event>
 3    1  0.1619206E-001  0.1250000E+03  0.7546771E-02  0.1235069E+00
         21   -1    0    0  502  501  0.00000000000E+00  0.00000000000E+00  0.86704952637E+03  0.86704952637E+03  0.00000000000E+00 0. -1.
         21   -1    0    0  501  502 -0.00000000000E+00 -0.00000000000E+00 -0.45052213065E+01  0.45052213065E+01  0.00000000000E+00 0. -1.
         25    1    1    2    0    0  0.00000000000E+00  0.00000000000E+00  0.86254430506E+03  0.87155474768E+03  0.12500000000E+03 0.  0.
<mgrwt>
<rscale>  0 0.12500000E+03</rscale>
<asrwt>0</asrwt>
<pdfrwt beam="1">  1       21 0.13339210E+00 0.12500000E+03</pdfrwt>
<pdfrwt beam="2">  1       21 0.69311166E-03 0.12500000E+03</pdfrwt>
<totfact> 0.27124389E+06</totfact>
</mgrwt>
</event>
<event>
 3    1  0.1619206E-001  0.1250000E+03  0.7546771E-02  0.1235069E+00
         21   -1    0    0  502  501  0.00000000000E+00  0.00000000000E+00  0.62189936130E+03  0.62189936130E+03  0.00000000000E+00 0.  1.
         21   -1    0    0  501  502 -0.00000000000E+00 -0.00000000000E+00 -0.62811609773E+01  0.62811609773E+01  0.00000000000E+00 0.  1.
         25    1    1    2    0    0  0.00000000000E+00  0.00000000000E+00  0.61561820032E+03  0.62818052228E+03  0.12500000000E+03 0.  0.
<mgrwt>
<rscale>  0 0.12500000E+03</rscale>
<asrwt>0</asrwt>
<pdfrwt beam="1">  1       21 0.95676776E-01 0.12500000E+03</pdfrwt>
<pdfrwt beam="2">  1       21 0.96633295E-03 0.12500000E+03</pdfrwt>
<totfact> 0.35848449E+06</totfact>
</mgrwt>
</event>
<event>
 3    1  0.1619206E-001  0.1250000E+03  0.7546771E-02  0.1235069E+00
         21   -1    0    0  502  501  0.00000000000E+00  0.00000000000E+00  0.45285659438E+03  0.45285659438E+03  0.00000000000E+00 0.  1.
         21   -1    0    0  501  502 -0.00000000000E+00 -0.00000000000E+00 -0.86257990906E+01  0.86257990906E+01  0.00000000000E+00 0.  1.
         25    1    1    2    0    0  0.00000000000E+00  0.00000000000E+00  0.44423079529E+03  0.46148239347E+03  0.12500000000E+03 0.  0.
<mgrwt>
<rscale>  0 0.12500000E+03</rscale>
<asrwt>0</asrwt>
<pdfrwt beam="1">  1       21 0.69670227E-01 0.12500000E+03</pdfrwt>
<pdfrwt beam="2">  1       21 0.13270464E-02 0.12500000E+03</pdfrwt>
<totfact> 0.44213072E+06</totfact>
</mgrwt>
</event>
<event>
 3    1  0.1619206E-001  0.1250000E+03  0.7546771E-02  0.1235069E+00
         21   -1    0    0  502  501  0.00000000000E+00  0.00000000000E+00  0.15517146400E+02  0.15517146400E+02  0.00000000000E+00 0.  1.
         21   -1    0    0  501  502 -0.00000000000E+00 -0.00000000000E+00 -0.25173765197E+03  0.25173765197E+03  0.00000000000E+00 0.  1.
         25    1    1    2    0    0  0.00000000000E+00  0.00000000000E+00 -0.23622050557E+03  0.26725479837E+03  0.12500000000E+03 0.  0.
<mgrwt>
<rscale>  0 0.12500000E+03</rscale>
<asrwt>0</asrwt>
<pdfrwt beam="1">  1       21 0.23872534E-02 0.12500000E+03</pdfrwt>
<pdfrwt beam="2">  1       21 0.38728867E-01 0.12500000E+03</pdfrwt>
<totfact> 0.58290646E+06</totfact>
</mgrwt>
</event>
<event>
 3    1  0.1619206E-001  0.1250000E+03  0.7546771E-02  0.1235069E+00
         21   -1    0    0  502  501  0.00000000000E+00  0.00000000000E+00  0.50613180847E+02  0.50613180847E+02  0.00000000000E+00 0.  1.
         21   -1    0    0  501  502 -0.00000000000E+00 -0.00000000000E+00 -0.77178512289E+02  0.77178512289E+02  0.00000000000E+00 0.  1.
         25    1    1    2    0    0  0.00000000000E+00  0.00000000000E+00 -0.26565331442E+02  0.12779169314E+03  0.12500000000E+03 0.  0.
<mgrwt>
<rscale>  0 0.12500000E+03</rscale>
<asrwt>0</asrwt>
<pdfrwt beam="1">  1       21 0.77866432E-02 0.12500000E+03</pdfrwt>
<pdfrwt beam="2">  1       21 0.11873617E-01 0.12500000E+03</pdfrwt>
<totfact> 0.73661718E+06</totfact>
</mgrwt>
</event>
<event>
 3    1  0.1619206E-001  0.1250000E+03  0.7546771E-02  0.1235069E+00
         21   -1    0    0  502  501  0.00000000000E+00  0.00000000000E+00  0.10205334532E+03  0.10205334532E+03  0.00000000000E+00 0.  1.
         21   -1    0    0  501  502 -0.00000000000E+00 -0.00000000000E+00 -0.38276550247E+02  0.38276550247E+02  0.00000000000E+00 0.  1.
         25    1    1    2    0    0  0.00000000000E+00  0.00000000000E+00  0.63776795073E+02  0.14032989557E+03  0.12500000000E+03 0.  0.
<mgrwt>
<rscale>  0 0.12500000E+03</rscale>
<asrwt>0</asrwt>
<pdfrwt beam="1">  1       21 0.15700515E-01 0.12500000E+03</pdfrwt>
<pdfrwt beam="2">  1       21 0.58887001E-02 0.12500000E+03</pdfrwt>
<totfact> 0.71996270E+06</totfact>
</mgrwt>
</event>
<event>
 3    1  0.1619206E-001  0.1250000E+03  0.7546771E-02  0.1235069E+00
         21   -1    0    0  502  501  0.00000000000E+00  0.00000000000E+00  0.67676769922E+03  0.67676769922E+03  0.00000000000E+00 0.  1.
         21   -1    0    0  501  502 -0.00000000000E+00 -0.00000000000E+00 -0.57719214503E+01  0.57719214503E+01  0.00000000000E+00 0.  1.
         25    1    1    2    0    0  0.00000000000E+00  0.00000000000E+00  0.67099577777E+03  0.68253962067E+03  0.12500000000E+03 0.  0.
<mgrwt>
<rscale>  0 0.12500000E+03</rscale>
<asrwt>0</asrwt>
<pdfrwt beam="1">  1       21 0.10411804E+00 0.12500000E+03</pdfrwt>
<pdfrwt beam="2">  1       21 0.88798845E-03 0.12500000E+03</pdfrwt>
<totfact> 0.33594250E+06</totfact>
</mgrwt>
</event>
<event>
 3    1  0.1619206E-001  0.1250000E+03  0.7546771E-02  0.1235069E+00
         21   -1    0    0  502  501  0.00000000000E+00  0.00000000000E+00  0.21862114725E+01  0.21862114725E+01  0.00000000000E+00 0.  1.
         21   -1    0    0  501  502 -0.00000000000E+00 -0.00000000000E+00 -0.17867667649E+04  0.17867667649E+04  0.00000000000E+00 0.  1.
         25    1    1    2    0    0  0.00000000000E+00  0.00000000000E+00 -0.17845805534E+04  0.17889529763E+04  0.12500000000E+03 0.  0.
<mgrwt>
<rscale>  0 0.12500000E+03</rscale>
<asrwt>0</asrwt>
<pdfrwt beam="1">  1       21 0.33634174E-03 0.12500000E+03</pdfrwt>
<pdfrwt beam="2">  1       21 0.27488596E+00 0.12500000E+03</pdfrwt>
<totfact> 0.10197712E+06</totfact>
</mgrwt>
</event>
<event>
 3    1  0.1619206E-001  0.1250000E+03  0.7546771E-02  0.1235069E+00
         21   -1    0    0  502  501  0.00000000000E+00  0.00000000000E+00  0.45028795563E+01  0.45028795563E+01  0.00000000000E+00 0. -1.
         21   -1    0    0  501  502 -0.00000000000E+00 -0.00000000000E+00 -0.86750044080E+03  0.86750044080E+03  0.00000000000E+00 0. -1.
         25    1    1    2    0    0  0.00000000000E+00  0.00000000000E+00 -0.86299756124E+03  0.87200332036E+03  0.12500000000E+03 0.  0.
<mgrwt>
<rscale>  0 0.12500000E+03</rscale>
<asrwt>0</asrwt>
<pdfrwt beam="1">  1       21 0.69275074E-03 0.12500000E+03</pdfrwt>
<pdfrwt beam="2">  1       21 0.13346160E+00 0.12500000E+03</pdfrwt>
<totfact> 0.27111124E+06</totfact>
</mgrwt>
</event>
<event>
 3    1  0.1619206E-001  0.1250000E+03  0.7546771E-02  0.1235069E+00
         21   -1    0    0  502  501  0.00000000000E+00  0.00000000000E+00  0.18524664612E+03  0.18524664612E+03  0.00000000000E+00 0.  1.
         21   -1    0    0  501  502 -0.00000000000E+00 -0.00000000000E+00 -0.21086751539E+02  0.21086751539E+02  0.00000000000E+00 0.  1.
         25    1    1    2    0    0  0.00000000000E+00  0.00000000000E+00  0.16415989458E+03  0.20633339765E+03  0.12500000000E+03 0.  0.
<mgrwt>
<rscale>  0 0.12500000E+03</rscale>
<asrwt>0</asrwt>
<pdfrwt beam="1">  1       21 0.28499483E-01 0.12500000E+03</pdfrwt>
<pdfrwt beam="2">  1       21 0.32441157E-02 0.12500000E+03</pdfrwt>
<totfact> 0.64247381E+06</totfact>
</mgrwt>
</event>
<event>
 3    1  0.1619206E-001  0.1250000E+03  0.7546771E-02  0.1235069E+00
         21   -1    0    0  502  501  0.00000000000E+00  0.00000000000E+00  0.21022267380E+03  0.21022267380E+03  0.00000000000E+00 0. -1.
         21   -1    0    0  501  502 -0.00000000000E+00 -0.00000000000E+00 -0.18581487569E+02  0.18581487569E+02  0.00000000000E+00 0. -1.
         25    1    1    2    0    0  0.00000000000E+00  0.00000000000E+00  0.19164118623E+03  0.22880416137E+03  0.12500000000E+03 0.  0.
<mgrwt>
<rscale>  0 0.12500000E+03</rscale>
<asrwt>0</asrwt>
<pdfrwt beam="1">  1       21 0.32341948E-01 0.12500000E+03</pdfrwt>
<pdfrwt beam="2">  1       21 0.28586905E-02 0.12500000E+03</pdfrwt>
<totfact> 0.61933189E+06</totfact>
</mgrwt>
</event>
<event>
 3    1  0.1619206E-001  0.1250000E+03  0.7546771E-02  0.1235069E+00
         21   -1    0    0  502  501  0.00000000000E+00  0.00000000000E+00  0.24411451905E+03  0.24411451905E+03  0.00000000000E+00 0.  1.
         21   -1    0    0  501  502 -0.00000000000E+00 -0.00000000000E+00 -0.16001711063E+02  0.16001711063E+02  0.00000000000E+00 0.  1.
         25    1    1    2    0    0  0.00000000000E+00  0.00000000000E+00  0.22811280798E+03  0.26011623011E+03  0.12500000000E+03 0.  0.
<mgrwt>
<rscale>  0 0.12500000E+03</rscale>
<asrwt>0</asrwt>
<pdfrwt beam="1">  1       21 0.37556077E-01 0.12500000E+03</pdfrwt>
<pdfrwt beam="2">  1       21 0.24618019E-02 0.12500000E+03</pdfrwt>
<totfact> 0.58938621E+06</totfact>
</mgrwt>
</event>
<event>
 3    1  0.1619206E-001  0.1250000E+03  0.7546771E-02  0.1235069E+00
         21   -1    0    0  502  501  0.00000000000E+00  0.00000000000E+00  0.12633549076E+02  0.12633549076E+02  0.00000000000E+00 0. -1.
         21   -1    0    0  501  502 -0.00000000000E+00 -0.00000000000E+00 -0.30919656673E+03  0.30919656673E+03  0.00000000000E+00 0. -1.
         25    1    1    2    0    0  0.00000000000E+00  0.00000000000E+00 -0.29656301766E+03  0.32183011581E+03  0.12500000000E+03 0.  0.
<mgrwt>
<rscale>  0 0.12500000E+03</rscale>
<asrwt>0</asrwt>
<pdfrwt beam="1">  1       21 0.19436232E-02 0.12500000E+03</pdfrwt>
<pdfrwt beam="2">  1       21 0.47568696E-01 0.12500000E+03</pdfrwt>
<totfact> 0.53688636E+06</totfact>
</mgrwt>
</event>
<event>
 3    1  0.1619206E-001  0.1250000E+03  0.7546771E-02  0.1235069E+00
         21   -1    0    0  502  501  0.00000000000E+00  0.00000000000E+00  0.25315282657E+02  0.25315282657E+02  0.00000000000E+00 0.  1.
         21   -1    0    0  501  502 -0.00000000000E+00 -0.00000000000E+00 -0.15430402469E+03  0.15430402469E+03  0.00000000000E+00 0.  1.
         25    1    1    2    0    0  0.00000000000E+00  0.00000000000E+00 -0.12898874203E+03  0.17961930734E+03  0.12500000000E+03 0.  0.
<mgrwt>
<rscale>  0 0.12500000E+03</rscale>
<asrwt>0</asrwt>
<pdfrwt beam="1">  1       21 0.38946589E-02 0.12500000E+03</pdfrwt>
<pdfrwt beam="2">  1       21 0.23739080E-01 0.12500000E+03</pdfrwt>
<totfact> 0.67195235E+06</totfact>
</mgrwt>
</event>
<event>
 3    1  0.1619206E-001  0.1250000E+03  0.7546771E-02  0.1235069E+00
         21   -1    0    0  502  501  0.00000000000E+00  0.00000000000E+00  0.80635355150E+02  0.80635355150E+02  0.00000000000E+00 0.  1.
         21   -1    0    0  501  502 -0.00000000000E+00 -0.00000000000E+00 -0.48443390529E+02  0.48443390529E+02  0.00000000000E+00 0.  1.
         25    1    1    2    0    0  0.00000000000E+00  0.00000000000E+00  0.32191964621E+02  0.12907874568E+03  0.12500000000E+03 0.  0.
<mgrwt>
<rscale>  0 0.12500000E+03</rscale>
<asrwt>0</asrwt>
<pdfrwt beam="1">  1       21 0.12405439E-01 0.12500000E+03</pdfrwt>
<pdfrwt beam="2">  1       21 0.74528293E-02 0.12500000E+03</pdfrwt>
<totfact> 0.73488307E+06</totfact>
</mgrwt>
</event>
<event>
 3    1  0.1619206E-001  0.1250000E+03  0.7546771E-02  0.1235069E+00
         21   -1    0    0  502  501  0.00000000000E+00  0.00000000000E+00  0.43807931449E+03  0.43807931449E+03  0.00000000000E+00 0. -1.
         21   -1    0    0  501  502 -0.00000000000E+00 -0.00000000000E+00 -0.89167643182E+01  0.89167643182E+01  0.00000000000E+00 0. -1.
         25    1    1    2    0    0  0.00000000000E+00  0.00000000000E+00  0.42916255017E+03  0.44699607881E+03  0.12500000000E+03 0.  0.
<mgrwt>
<rscale>  0 0.12500000E+03</rscale>
<asrwt>0</asrwt>
<pdfrwt beam="1">  1       21 0.67396801E-01 0.12500000E+03</pdfrwt>
<pdfrwt beam="2">  1       21 0.13718102E-02 0.12500000E+03</pdfrwt>
<totfact> 0.45072570E+06</totfact>
</mgrwt>
</event>
<event>
 3    1  0.1619206E-001  0.1250000E+03  0.7546771E-02  0.1235069E+00
         21   -1    0    0  502  501  0.00000000000E+00  0.00000000000E+00  0.19802923184E+02  0.19802923184E+02  0.00000000000E+00 0.  1.
         21   -1    0    0  501  502 -0.00000000000E+00 -0.00000000000E+00 -0.19725623150E+03  0.19725623150E+03  0.00000000000E+00 0.  1.
         25    1    1    2    0    0  0.00000000000E+00  0.00000000000E+00 -0.17745330831E+03  0.21705915468E+03  0.12500000000E+03 0.  0.
<mgrwt>
<rscale>  0 0.12500000E+03</rscale>
<asrwt>0</asrwt>
<pdfrwt beam="1">  1       21 0.30466035E-02 0.12500000E+03</pdfrwt>
<pdfrwt beam="2">  1       21 0.30347113E-01 0.12500000E+03</pdfrwt>
<totfact> 0.63124399E+06</totfact>
</mgrwt>
</event>
<event>
 3    1  0.1619206E-001  0.1250000E+03  0.7546771E-02  0.1235069E+00
         21   -1    0    0  502  501  0.00000000000E+00  0.00000000000E+00  0.15849734317E+03  0.15849734317E+03  0.00000000000E+00 0. -1.
         21   -1    0    0  501  502 -0.00000000000E+00 -0.00000000000E+00 -0.24645523526E+02  0.24645523526E+02  0.00000000000E+00 0. -1.
         25    1    1    2    0    0  0.00000000000E+00  0.00000000000E+00  0.13385181965E+03  0.18314286670E+03  0.12500000000E+03 0.  0.
<mgrwt>
<rscale>  0 0.12500000E+03</rscale>
<asrwt>0</asrwt>
<pdfrwt beam="1">  1       21 0.24384206E-01 0.12500000E+03</pdfrwt>
<pdfrwt beam="2">  1       21 0.37916191E-02 0.12500000E+03</pdfrwt>
<totfact> 0.66792814E+06</totfact>
</mgrwt>
</event>
<event>
 3    1  0.1619206E-001  0.1250000E+03  0.7546771E-02  0.1235069E+00
         21   -1    0    0  502  501  0.00000000000E+00  0.00000000000E+00  0.39121275808E+01  0.39121275808E+01  0.00000000000E+00 0. -1.
         21   -1    0    0  501  502 -0.00000000000E+00 -0.00000000000E+00 -0.99849759992E+03  0.99849759992E+03  0.00000000000E+00 0. -1.
         25    1    1    2    0    0  0.00000000000E+00  0.00000000000E+00 -0.99458547234E+03  0.10024097275E+04  0.12500000000E+03 0.  0.
<mgrwt>
<rscale>  0 0.12500000E+03</rscale>
<asrwt>0</asrwt>
<pdfrwt beam="1">  1       21 0.60186544E-03 0.12500000E+03</pdfrwt>
<pdfrwt beam="2">  1       21 0.15361510E+00 0.12500000E+03</pdfrwt>
<totfact> 0.23558587E+06</totfact>
</mgrwt>
</event>
<event>
 3    1  0.1619206E-001  0.1250000E+03  0.7546771E-02  0.1235069E+00
         21   -1    0    0  502  501  0.00000000000E+00  0.00000000000E+00  0.98270672976E+01  0.98270672976E+01  0.00000000000E+00 0.  1.
         21   -1    0    0  501  502 -0.00000000000E+00 -0.00000000000E+00 -0.39749905864E+03  0.39749905864E+03  0.00000000000E+00 0.  1.
         25    1    1    2    0    0  0.00000000000E+00  0.00000000000E+00 -0.38767199135E+03  0.40732612594E+03  0.12500000000E+03 0.  0.
<mgrwt>
<rscale>  0 0.12500000E+03</rscale>
<asrwt>0</asrwt>
<pdfrwt beam="1">  1       21 0.15118570E-02 0.12500000E+03</pdfrwt>
<pdfrwt beam="2">  1       21 0.61153681E-01 0.12500000E+03</pdfrwt>
<totfact> 0.47559192E+06</totfact>
</mgrwt>
</event>
<event>
 3    1  0.1619206E-001  0.1250000E+03  0.7546771E-02  0.1235069E+00
         21   -1    0    0  502  501  0.00000000000E+00  0.00000000000E+00  0.54213442982E+01  0.54213442982E+01  0.00000000000E+00 0. -1.
         21   -1    0    0  501  502 -0.00000000000E+00 -0.00000000000E+00 -0.72053162189E+03  0.72053162189E+03  0.00000000000E+00 0. -1.
         25    1    1    2    0    0  0.00000000000E+00  0.00000000000E+00 -0.71511027760E+03  0.72595296619E+03  0.12500000000E+03 0.  0.
<mgrwt>
<rscale>  0 0.12500000E+03</rscale>
<asrwt>0</asrwt>
<pdfrwt beam="1">  1       21 0.83405316E-03 0.12500000E+03</pdfrwt>
<pdfrwt beam="2">  1       21 0.11085099E+00 0.12500000E+03</pdfrwt>
<totfact> 0.31933266E+06</totfact>
</mgrwt>
</event>
<event>
 3    1  0.1619206E-001  0.1250000E+03  0.7546771E-02  0.1235069E+00
         21   -1    0    0  502  501  0.00000000000E+00  0.00000000000E+00  0.11641547907E+02  0.11641547907E+02  0.00000000000E+00 0.  1.
         21   -1    0    0  501  502 -0.00000000000E+00 -0.00000000000E+00 -0.33554386676E+03  0.33554386676E+03  0.00000000000E+00 0.  1.
         25    1    1    2    0    0  0.00000000000E+00  0.00000000000E+00 -0.32390231886E+03  0.34718541467E+03  0.12500000000E+03 0.  0.
<mgrwt>
<rscale>  0 0.12500000E+03</rscale>
<asrwt>0</asrwt>
<pdfrwt beam="1">  1       21 0.17910075E-02 0.12500000E+03</pdfrwt>
<pdfrwt beam="2">  1       21 0.51622129E-01 0.12500000E+03</pdfrwt>
<totfact> 0.51746972E+06</totfact>
</mgrwt>
</event>
<event>
 3    1  0.1619206E-001  0.1250000E+03  0.7546771E-02  0.1235069E+00
         21   -1    0    0  502  501  0.00000000000E+00  0.00000000000E+00  0.22110139078E+04  0.22110139078E+04  0.00000000000E+00 0.  1.
         21   -1    0    0  501  502 -0.00000000000E+00 -0.00000000000E+00 -0.17667233961E+01  0.17667233961E+01  0.00000000000E+00 0.  1.
         25    1    1    2    0    0  0.00000000000E+00  0.00000000000E+00  0.22092471844E+04  0.22127806312E+04  0.12500000000E+03 0.  0.
<mgrwt>
<rscale>  0 0.12500000E+03</rscale>
<asrwt>0</asrwt>
<pdfrwt beam="1">  1       21 0.34015377E+00 0.12500000E+03</pdfrwt>
<pdfrwt beam="2">  1       21 0.27180537E-03 0.12500000E+03</pdfrwt>
<totfact> 0.60533289E+05</totfact>
</mgrwt>
</event>
<event>
 3    1  0.1619206E-001  0.1250000E+03  0.7546771E-02  0.1235069E+00
         21   -1    0    0  502  501  0.00000000000E+00  0.00000000000E+00  0.12528910016E+03  0.12528910016E+03  0.00000000000E+00 0. -1.
         21   -1    0    0  501  502 -0.00000000000E+00 -0.00000000000E+00 -0.31177891733E+02  0.31177891733E+02  0.00000000000E+00 0. -1.
         25    1    1    2    0    0  0.00000000000E+00  0.00000000000E+00  0.94111208423E+02  0.15646699189E+03  0.12500000000E+03 0.  0.
<mgrwt>
<rscale>  0 0.12500000E+03</rscale>
<asrwt>0</asrwt>
<pdfrwt beam="1">  1       21 0.19275246E-01 0.12500000E+03</pdfrwt>
<pdfrwt beam="2">  1       21 0.47965988E-02 0.12500000E+03</pdfrwt>
<totfact> 0.69953788E+06</totfact>
</mgrwt>
</event>
<event>
 3    1  0.1619206E-001  0.1250000E+03  0.7546771E-02  0.1235069E+00
         21   -1    0    0  502  501  0.00000000000E+00  0.00000000000E+00  0.64107801904E+02  0.64107801904E+02  0.00000000000E+00 0. -1.
         21   -1    0    0  501  502 -0.00000000000E+00 -0.00000000000E+00 -0.60932521222E+02  0.60932521222E+02  0.00000000000E+00 0. -1.
         25    1    1    2    0    0  0.00000000000E+00  0.00000000000E+00  0.31752806814E+01  0.12504032313E+03  0.12500000000E+03 0.  0.
<mgrwt>
<rscale>  0 0.12500000E+03</rscale>
<asrwt>0</asrwt>
<pdfrwt beam="1">  1       21 0.98627387E-02 0.12500000E+03</pdfrwt>
<pdfrwt beam="2">  1       21 0.93742341E-02 0.12500000E+03</pdfrwt>
<totfact> 0.74038135E+06</totfact>
</mgrwt>
</event>
<event>
 3    1  0.1619206E-001  0.1250000E+03  0.7546771E-02  0.1235069E+00
         21   -1    0    0  502  501  0.00000000000E+00  0.00000000000E+00  0.14843073684E+03  0.14843073684E+03  0.00000000000E+00 0. -1.
         21   -1    0    0  501  502 -0.00000000000E+00 -0.00000000000E+00 -0.26316988538E+02  0.26316988538E+02  0.00000000000E+00 0. -1.
         25    1    1    2    0    0  0.00000000000E+00  0.00000000000E+00  0.12211374830E+03  0.17474772538E+03  0.12500000000E+03 0.  0.
<mgrwt>
<rscale>  0 0.12500000E+03</rscale>
<asrwt>0</asrwt>
<pdfrwt beam="1">  1       21 0.22835498E-01 0.12500000E+03</pdfrwt>
<pdfrwt beam="2">  1       21 0.40487675E-02 0.12500000E+03</pdfrwt>
<totfact> 0.67759229E+06</totfact>
</mgrwt>
</event>
<event>
 3    1  0.1619206E-001  0.1250000E+03  0.7546771E-02  0.1235069E+00
         21   -1    0    0  502  501  0.00000000000E+00  0.00000000000E+00  0.26426476744E+02  0.26426476744E+02  0.00000000000E+00 0.  1.
         21   -1    0    0  501  502 -0.00000000000E+00 -0.00000000000E+00 -0.14781576968E+03  0.14781576968E+03  0.00000000000E+00 0.  1.
         25    1    1    2    0    0  0.00000000000E+00  0.00000000000E+00 -0.12138929294E+03  0.17424224643E+03  0.12500000000E+03 0.  0.
<mgrwt>
<rscale>  0 0.12500000E+03</rscale>
<asrwt>0</asrwt>
<pdfrwt beam="1">  1       21 0.40656118E-02 0.12500000E+03</pdfrwt>
<pdfrwt beam="2">  1       21 0.22740888E-01 0.12500000E+03</pdfrwt>
<totfact> 0.67818265E+06</totfact>
</mgrwt>
</event>
<event>
 3    1  0.1619206E-001  0.1250000E+03  0.7546771E-02  0.1235069E+00
         21   -1    0    0  502  501  0.00000000000E+00  0.00000000000E+00  0.11534089975E+04  0.11534089975E+04  0.00000000000E+00 0.  1.
         21   -1    0    0  501  502 -0.00000000000E+00 -0.00000000000E+00 -0.33866997816E+01  0.33866997816E+01  0.00000000000E+00 0.  1.
         25    1    1    2    0    0  0.00000000000E+00  0.00000000000E+00  0.11500222977E+04  0.11567956973E+04  0.12500000000E+03 0.  0.
<mgrwt>
<rscale>  0 0.12500000E+03</rscale>
<asrwt>0</asrwt>
<pdfrwt beam="1">  1       21 0.17744722E+00 0.12500000E+03</pdfrwt>
<pdfrwt beam="2">  1       21 0.52103166E-03 0.12500000E+03</pdfrwt>
<totfact> 0.20026254E+06</totfact>
</mgrwt>
</event>
<event>
 3    1  0.1619206E-001  0.1250000E+03  0.7546771E-02  0.1235069E+00
         21   -1    0    0  502  501  0.00000000000E+00  0.00000000000E+00  0.12958888604E+03  0.12958888604E+03  0.00000000000E+00 0.  1.
         21   -1    0    0  501  502 -0.00000000000E+00 -0.00000000000E+00 -0.30143402875E+02  0.30143402875E+02  0.00000000000E+00 0.  1.
         25    1    1    2    0    0  0.00000000000E+00  0.00000000000E+00  0.99445483167E+02  0.15973228892E+03  0.12500000000E+03 0.  0.
<mgrwt>
<rscale>  0 0.12500000E+03</rscale>
<asrwt>0</asrwt>
<pdfrwt beam="1">  1       21 0.19936751E-01 0.12500000E+03</pdfrwt>
<pdfrwt beam="2">  1       21 0.46374467E-02 0.12500000E+03</pdfrwt>
<totfact> 0.69552222E+06</totfact>
</mgrwt>
</event>
<event>
 3    1  0.1619206E-001  0.1250000E+03  0.7546771E-02  0.1235069E+00
         21   -1    0    0  502  501  0.00000000000E+00  0.00000000000E+00  0.69359855879E+03  0.69359855879E+03  0.00000000000E+00 0. -1.
         21   -1    0    0  501  502 -0.00000000000E+00 -0.00000000000E+00 -0.56318600299E+01  0.56318600299E+01  0.00000000000E+00 0. -1.
         25    1    1    2    0    0  0.00000000000E+00  0.00000000000E+00  0.68796669876E+03  0.69923041882E+03  0.12500000000E+03 0.  0.
<mgrwt>
<rscale>  0 0.12500000E+03</rscale>
<asrwt>0</asrwt>
<pdfrwt beam="1">  1       21 0.10670740E+00 0.12500000E+03</pdfrwt>
<pdfrwt beam="2">  1       21 0.86644055E-03 0.12500000E+03</pdfrwt>
<totfact> 0.32939847E+06</totfact>
</mgrwt>
</event>
<event>
 3    1  0.1619206E-001  0.1250000E+03  0.7546771E-02  0.1235069E+00
         21   -1    0    0  502  501  0.00000000000E+00  0.00000000000E+00  0.97980687267E+01  0.97980687267E+01  0.00000000000E+00 0.  1.
         21   -1    0    0  501  502 -0.00000000000E+00 -0.00000000000E+00 -0.39867550524E+03  0.39867550524E+03  0.00000000000E+00 0.  1.
         25    1    1    2    0    0  0.00000000000E+00  0.00000000000E+00 -0.38887743651E+03  0.40847357397E+03  0.12500000000E+03 0.  0.
<mgrwt>
<rscale>  0 0.12500000E+03</rscale>
<asrwt>0</asrwt>
<pdfrwt beam="1">  1       21 0.15073951E-02 0.12500000E+03</pdfrwt>
<pdfrwt beam="2">  1       21 0.61334696E-01 0.12500000E+03</pdfrwt>
<totfact> 0.47484339E+06</totfact>
</mgrwt>
</event>
<event>
 3    1  0.1619206E-001  0.1250000E+03  0.7546771E-02  0.1235069E+00
         21   -1    0    0  502  501  0.00000000000E+00  0.00000000000E+00  0.53306314200E+03  0.53306314200E+03  0.00000000000E+00 0. -1.
         21   -1    0    0  501  502 -0.00000000000E+00 -0.00000000000E+00 -0.73279311440E+01  0.73279311440E+01  0.00000000000E+00 0. -1.
         25    1    1    2    0    0  0.00000000000E+00  0.00000000000E+00  0.52573521086E+03  0.54039107315E+03  0.12500000000E+03 0.  0.
<mgrwt>
<rscale>  0 0.12500000E+03</rscale>
<asrwt>0</asrwt>
<pdfrwt beam="1">  1       21 0.82009684E-01 0.12500000E+03</pdfrwt>
<pdfrwt beam="2">  1       21 0.11273744E-02 0.12500000E+03</pdfrwt>
<totfact> 0.39935011E+06</totfact>
</mgrwt>
</event>
<event>
 3    1  0.1619206E-001  0.1250000E+03  0.7546771E-02  0.1235069E+00
         21   -1    0    0  502  501  0.00000000000E+00  0.00000000000E+00  0.23278411730E+03  0.23278411730E+03  0.00000000000E+00 0.  1.
         21   -1    0    0  501  502 -0.00000000000E+00 -0.00000000000E+00 -0.16780569247E+02  0.16780569247E+02  0.00000000000E+00 0.  1.
         25    1    1    2    0    0  0.00000000000E+00  0.00000000000E+00  0.21600354806E+03  0.24956468655E+03  0.12500000000E+03 0.  0.
<mgrwt>
<rscale>  0 0.12500000E+03</rscale>
<asrwt>0</asrwt>
<pdfrwt beam="1">  1       21 0.35812939E-01 0.12500000E+03</pdfrwt>
<pdfrwt beam="2">  1       21 0.25816262E-02 0.12500000E+03</pdfrwt>
<totfact> 0.59919198E+06</totfact>
</mgrwt>
</event>
<event>
 3    1  0.1619206E-001  0.1250000E+03  0.7546771E-02  0.1235069E+00
         21   -1    0    0  502  501  0.00000000000E+00  0.00000000000E+00  0.20575048597E+03  0.20575048597E+03  0.00000000000E+00 0. -1.
         21   -1    0    0  501  502 -0.00000000000E+00 -0.00000000000E+00 -0.18985374356E+02  0.18985374356E+02  0.00000000000E+00 0. -1.
         25    1    1    2    0    0  0.00000000000E+00  0.00000000000E+00  0.18676511161E+03  0.22473586032E+03  0.12500000000E+03 0.  0.
<mgrwt>
<rscale>  0 0.12500000E+03</rscale>
<asrwt>0</asrwt>
<pdfrwt beam="1">  1       21 0.31653919E-01 0.12500000E+03</pdfrwt>
<pdfrwt beam="2">  1       21 0.29208270E-02 0.12500000E+03</pdfrwt>
<totfact> 0.62341722E+06</totfact>
</mgrwt>
</event>
<event>
 3    1  0.1619206E-001  0.1250000E+03  0.7546771E-02  0.1235069E+00
         21   -1    0    0  502  501  0.00000000000E+00  0.00000000000E+00  0.37737415836E+03  0.37737415836E+03  0.00000000000E+00 0.  1.
         21   -1    0    0  501  502 -0.00000000000E+00 -0.00000000000E+00 -0.10351132724E+02  0.10351132724E+02  0.00000000000E+00 0.  1.
         25    1    1    2    0    0  0.00000000000E+00  0.00000000000E+00  0.36702302564E+03  0.38772529109E+03  0.12500000000E+03 0.  0.
<mgrwt>
<rscale>  0 0.12500000E+03</rscale>
<asrwt>0</asrwt>
<pdfrwt beam="1">  1       21 0.58057552E-01 0.12500000E+03</pdfrwt>
<pdfrwt beam="2">  1       21 0.15924822E-02 0.12500000E+03</pdfrwt>
<totfact> 0.48866323E+06</totfact>
</mgrwt>
</event>
<event>
 3    1  0.1619206E-001  0.1250000E+03  0.7546771E-02  0.1235069E+00
         21   -1    0    0  502  501  0.00000000000E+00  0.00000000000E+00  0.27717138984E+03  0.27717138984E+03  0.00000000000E+00 0. -1.
         21   -1    0    0  501  502 -0.00000000000E+00 -0.00000000000E+00 -0.14093265551E+02  0.14093265551E+02  0.00000000000E+00 0. -1.
         25    1    1    2    0    0  0.00000000000E+00  0.00000000000E+00  0.26307812429E+03  0.29126465539E+03  0.12500000000E+03 0.  0.
<mgrwt>
<rscale>  0 0.12500000E+03</rscale>
<asrwt>0</asrwt>
<pdfrwt beam="1">  1       21 0.42641748E-01 0.12500000E+03</pdfrwt>
<pdfrwt beam="2">  1       21 0.21681949E-02 0.12500000E+03</pdfrwt>
<totfact> 0.56190020E+06</totfact>
</mgrwt>
</event>
<event>
 3    1  0.1619206E-001  0.1250000E+03  0.7546771E-02  0.1235069E+00
         21   -1    0    0  502  501  0.00000000000E+00  0.00000000000E+00  0.94970600937E+01  0.94970600937E+01  0.00000000000E+00 0. -1.
         21   -1    0    0  501  502 -0.00000000000E+00 -0.00000000000E+00 -0.41131149655E+03  0.41131149655E+03  0.00000000000E+00 0. -1.
         25    1    1    2    0    0  0.00000000000E+00  0.00000000000E+00 -0.40181443646E+03  0.42080855665E+03  0.12500000000E+03 0.  0.
<mgrwt>
<rscale>  0 0.12500000E+03</rscale>
<asrwt>0</asrwt>
<pdfrwt beam="1">  1       21 0.14610863E-02 0.12500000E+03</pdfrwt>
<pdfrwt beam="2">  1       21 0.63278685E-01 0.12500000E+03</pdfrwt>
<totfact> 0.46691092E+06</totfact>
</mgrwt>
</event>
<event>
 3    1  0.1619206E-001  0.1250000E+03  0.7546771E-02  0.1235069E+00
         21   -1    0    0  502  501  0.00000000000E+00  0.00000000000E+00  0.18866261652E+04  0.18866261652E+04  0.00000000000E+00 0. -1.
         21   -1    0    0  501  502 -0.00000000000E+00 -0.00000000000E+00 -0.20704949778E+01  0.20704949778E+01  0.00000000000E+00 0. -1.
         25    1    1    2    0    0  0.00000000000E+00  0.00000000000E+00  0.18845556702E+04  0.18886966602E+04  0.12500000000E+03 0.  0.
<mgrwt>
<rscale>  0 0.12500000E+03</rscale>
<asrwt>0</asrwt>
<pdfrwt beam="1">  1       21 0.29024881E+00 0.12500000E+03</pdfrwt>
<pdfrwt beam="2">  1       21 0.31853920E-03 0.12500000E+03</pdfrwt>
<totfact> 0.90855003E+05</totfact>
</mgrwt>
</event>
<event>
 3    1  0.1619206E-001  0.1250000E+03  0.7546771E-02  0.1235069E+00
         21   -1    0    0  502  501  0.00000000000E+00  0.00000000000E+00  0.72698209068E+03  0.72698209068E+03  0.00000000000E+00 0.  1.
         21   -1    0    0  501  502 -0.00000000000E+00 -0.00000000000E+00 -0.53732410331E+01  0.53732410331E+01  0.00000000000E+00 0.  1.
         25    1    1    2    0    0  0.00000000000E+00  0.00000000000E+00  0.72160884965E+03  0.73235533172E+03  0.12500000000E+03 0.  0.
<mgrwt>
<rscale>  0 0.12500000E+03</rscale>
<asrwt>0</asrwt>
<pdfrwt beam="1">  1       21 0.11184332E+00 0.12500000E+03</pdfrwt>
<pdfrwt beam="2">  1       21 0.82665305E-03 0.12500000E+03</pdfrwt>
<totfact> 0.31699421E+06</totfact>
</mgrwt>
</event>
<event>
 3    1  0.1619206E-001  0.1250000E+03  0.7546771E-02  0.1235069E+00
         21   -1    0    0  502  501  0.00000000000E+00  0.00000000000E+00  0.30555454548E+01  0.30555454548E+01  0.00000000000E+00 0.  1.
         21   -1    0    0  501  502 -0.00000000000E+00 -0.00000000000E+00 -0.12784133170E+04  0.12784133170E+04  0.00000000000E+00 0.  1.
         25    1    1    2    0    0  0.00000000000E+00  0.00000000000E+00 -0.12753577715E+04  0.12814688624E+04  0.12500000000E+03 0.  0.
<mgrwt>
<rscale>  0 0.12500000E+03</rscale>
<asrwt>0</asrwt>
<pdfrwt beam="1">  1       21 0.47008312E-03 0.12500000E+03</pdfrwt>
<pdfrwt beam="2">  1       21 0.19667930E+00 0.12500000E+03</pdfrwt>
<totfact> 0.17588355E+06</totfact>
</mgrwt>
</event>
<event>
 3    1  0.1619206E-001  0.1250000E+03  0.7546771E-02  0.1235069E+00
         21   -1    0    0  502  501  0.00000000000E+00  0.00000000000E+00  0.82019167893E+02  0.82019167893E+02  0.00000000000E+00 0. -1.
         21   -1    0    0  501  502 -0.00000000000E+00 -0.00000000000E+00 -0.47626062302E+02  0.47626062302E+02  0.00000000000E+00 0. -1.
         25    1    1    2    0    0  0.00000000000E+00  0.00000000000E+00  0.34393105591E+02  0.12964523019E+03  0.12500000000E+03 0.  0.
<mgrwt>
<rscale>  0 0.12500000E+03</rscale>
<asrwt>0</asrwt>
<pdfrwt beam="1">  1       21 0.12618334E-01 0.12500000E+03</pdfrwt>
<pdfrwt beam="2">  1       21 0.73270865E-02 0.12500000E+03</pdfrwt>
<totfact> 0.73412368E+06</totfact>
</mgrwt>
</event>
<event>
 3    1  0.1619206E-001  0.1250000E+03  0.7546771E-02  0.1235069E+00
         21   -1    0    0  502  501  0.00000000000E+00  0.00000000000E+00  0.13312827589E+03  0.13312827589E+03  0.00000000000E+00 0.  1.
         21   -1    0    0  501  502 -0.00000000000E+00 -0.00000000000E+00 -0.29342000968E+02  0.29342000968E+02  0.00000000000E+00 0.  1.
         25    1    1    2    0    0  0.00000000000E+00  0.00000000000E+00  0.10378627492E+03  0.16247027686E+03  0.12500000000E+03 0.  0.
<mgrwt>
<rscale>  0 0.12500000E+03</rscale>
<asrwt>0</asrwt>
<pdfrwt beam="1">  1       21 0.20481273E-01 0.12500000E+03</pdfrwt>
<pdfrwt beam="2">  1       21 0.45141541E-02 0.12500000E+03</pdfrwt>
<totfact> 0.69218908E+06</totfact>
</mgrwt>
</event>
<event>
 3    1  0.1619206E-001  0.1250000E+03  0.7546771E-02  0.1235069E+00
         21   -1    0    0  502  501  0.00000000000E+00  0.00000000000E+00  0.92291314023E+02  0.92291314023E+02  0.00000000000E+00 0.  1.
         21   -1    0    0  501  502 -0.00000000000E+00 -0.00000000000E+00 -0.42325218157E+02  0.42325218157E+02  0.00000000000E+00 0.  1.
         25    1    1    2    0    0  0.00000000000E+00  0.00000000000E+00  0.49966095866E+02  0.13461653218E+03  0.12500000000E+03 0.  0.
<mgrwt>
<rscale>  0 0.12500000E+03</rscale>
<asrwt>0</asrwt>
<pdfrwt beam="1">  1       21 0.14198664E-01 0.12500000E+03</pdfrwt>
<pdfrwt beam="2">  1       21 0.65115720E-02 0.12500000E+03</pdfrwt>
<totfact> 0.72747285E+06</totfact>
</mgrwt>
</event>
<event>
 3    1  0.1619206E-001  0.1250000E+03  0.7546771E-02  0.1235069E+00
         21   -1    0    0  502  501  0.00000000000E+00  0.00000000000E+00  0.15350337033E+02  0.15350337033E+02  0.00000000000E+00 0. -1.
         21   -1    0    0  501  502 -0.00000000000E+00 -0.00000000000E+00 -0.25447324000E+03  0.25447324000E+03  0.00000000000E+00 0. -1.
         25    1    1    2    0    0  0.00000000000E+00  0.00000000000E+00 -0.23912290297E+03  0.26982357704E+03  0.12500000000E+03 0.  0.
<mgrwt>
<rscale>  0 0.12500000E+03</rscale>
<asrwt>0</asrwt>
<pdfrwt beam="1">  1       21 0.23615903E-02 0.12500000E+03</pdfrwt>
<pdfrwt beam="2">  1       21 0.39149730E-01 0.12500000E+03</pdfrwt>
<totfact> 0.58060419E+06</totfact>
</mgrwt>
</event>
<event>
 3    1  0.1619206E-001  0.1250000E+03  0.7546771E-02  0.1235069E+00
         21   -1    0    0  502  501  0.00000000000E+00  0.00000000000E+00  0.12813614778E+03  0.12813614778E+03  0.00000000000E+00 0.  1.
         21   -1    0    0  501  502 -0.00000000000E+00 -0.00000000000E+00 -0.30485152455E+02  0.30485152455E+02  0.00000000000E+00 0.  1.
         25    1    1    2    0    0  0.00000000000E+00  0.00000000000E+00  0.97650995325E+02  0.15862130023E+03  0.12500000000E+03 0.  0.
<mgrwt>
<rscale>  0 0.12500000E+03</rscale>
<asrwt>0</asrwt>
<pdfrwt beam="1">  1       21 0.19713253E-01 0.12500000E+03</pdfrwt>
<pdfrwt beam="2">  1       21 0.46900235E-02 0.12500000E+03</pdfrwt>
<totfact> 0.69688352E+06</totfact>
</mgrwt>
</event>
<event>
 3    1  0.1619206E-001  0.1250000E+03  0.7546771E-02  0.1235069E+00
         21   -1    0    0  502  501  0.00000000000E+00  0.00000000000E+00  0.49870131361E+02  0.49870131361E+02  0.00000000000E+00 0.  1.
         21   -1    0    0  501  502 -0.00000000000E+00 -0.00000000000E+00 -0.78328448178E+02  0.78328448178E+02  0.00000000000E+00 0.  1.
         25    1    1    2    0    0  0.00000000000E+00  0.00000000000E+00 -0.28458316817E+02  0.12819857954E+03  0.12500000000E+03 0.  0.
<mgrwt>
<rscale>  0 0.12500000E+03</rscale>
<asrwt>0</asrwt>
<pdfrwt beam="1">  1       21 0.76723279E-02 0.12500000E+03</pdfrwt>
<pdfrwt beam="2">  1       21 0.12050530E-01 0.12500000E+03</pdfrwt>
<totfact> 0.73606751E+06</totfact>
</mgrwt>
</event>
<event>
 3    1  0.1619206E-001  0.1250000E+03  0.7546771E-02  0.1235069E+00
         21   -1    0    0  502  501  0.00000000000E+00  0.00000000000E+00  0.75791159727E+02  0.75791159727E+02  0.00000000000E+00 0. -1.
         21   -1    0    0  501  502 -0.00000000000E+00 -0.00000000000E+00 -0.51539652040E+02  0.51539652040E+02  0.00000000000E+00 0. -1.
         25    1    1    2    0    0  0.00000000000E+00  0.00000000000E+00  0.24251507687E+02  0.12733081177E+03  0.12500000000E+03 0.  0.
<mgrwt>
<rscale>  0 0.12500000E+03</rscale>
<asrwt>0</asrwt>
<pdfrwt beam="1">  1       21 0.11660178E-01 0.12500000E+03</pdfrwt>
<pdfrwt beam="2">  1       21 0.79291772E-02 0.12500000E+03</pdfrwt>
<totfact> 0.73724169E+06</totfact>
</mgrwt>
</event>
<event>
 3    1  0.1619206E-001  0.1250000E+03  0.7546771E-02  0.1235069E+00
         21   -1    0    0  502  501  0.00000000000E+00  0.00000000000E+00  0.71077323436E+02  0.71077323436E+02  0.00000000000E+00 0. -1.
         21   -1    0    0  501  502 -0.00000000000E+00 -0.00000000000E+00 -0.54957753207E+02  0.54957753207E+02  0.00000000000E+00 0. -1.
         25    1    1    2    0    0  0.00000000000E+00  0.00000000000E+00  0.16119570228E+02  0.12603507664E+03  0.12500000000E+03 0.  0.
<mgrwt>
<rscale>  0 0.12500000E+03</rscale>
<asrwt>0</asrwt>
<pdfrwt beam="1">  1       21 0.10934973E-01 0.12500000E+03</pdfrwt>
<pdfrwt beam="2">  1       21 0.84550389E-02 0.12500000E+03</pdfrwt>
<totfact> 0.73901203E+06</totfact>
</mgrwt>
</event>
<event>
 3    1  0.1619206E-001  0.1250000E+03  0.7546771E-02  0.1235069E+00
         21   -1    0    0  502  501  0.00000000000E+00  0.00000000000E+00  0.51325183840E+03  0.51325183840E+03  0.00000000000E+00 0. -1.
         21   -1    0    0  501  502 -0.00000000000E+00 -0.00000000000E+00 -0.76107861828E+01  0.76107861828E+01  0.00000000000E+00 0. -1.
         25    1    1    2    0    0  0.00000000000E+00  0.00000000000E+00  0.50564105222E+03  0.52086262458E+03  0.12500000000E+03 0.  0.
<mgrwt>
<rscale>  0 0.12500000E+03</rscale>
<asrwt>0</asrwt>
<pdfrwt beam="1">  1       21 0.78961794E-01 0.12500000E+03</pdfrwt>
<pdfrwt beam="2">  1       21 0.11708906E-02 0.12500000E+03</pdfrwt>
<totfact> 0.40934792E+06</totfact>
</mgrwt>
</event>
<event>
 3    1  0.1619206E-001  0.1250000E+03  0.7546771E-02  0.1235069E+00
         21   -1    0    0  502  501  0.00000000000E+00  0.00000000000E+00  0.72995488649E+02  0.72995488649E+02  0.00000000000E+00 0. -1.
         21   -1    0    0  501  502 -0.00000000000E+00 -0.00000000000E+00 -0.53513581076E+02  0.53513581076E+02  0.00000000000E+00 0. -1.
         25    1    1    2    0    0  0.00000000000E+00  0.00000000000E+00  0.19481907573E+02  0.12650906973E+03  0.12500000000E+03 0.  0.
<mgrwt>
<rscale>  0 0.12500000E+03</rscale>
<asrwt>0</asrwt>
<pdfrwt beam="1">  1       21 0.11230075E-01 0.12500000E+03</pdfrwt>
<pdfrwt beam="2">  1       21 0.82328587E-02 0.12500000E+03</pdfrwt>
<totfact> 0.73836132E+06</totfact>
</mgrwt>
</event>
<event>
 3    1  0.1619206E-001  0.1250000E+03  0.7546771E-02  0.1235069E+00
         21   -1    0    0  502  501  0.00000000000E+00  0.00000000000E+00  0.36020309548E+02  0.36020309548E+02  0.00000000000E+00 0.  1.
         21   -1    0    0  501  502 -0.00000000000E+00 -0.00000000000E+00 -0.10844576432E+03  0.10844576432E+03  0.00000000000E+00 0.  1.
         25    1    1    2    0    0  0.00000000000E+00  0.00000000000E+00 -0.72425454771E+02  0.14446607387E+03  0.12500000000E+03 0.  0.
<mgrwt>
<rscale>  0 0.12500000E+03</rscale>
<asrwt>0</asrwt>
<pdfrwt beam="1">  1       21 0.55415861E-02 0.12500000E+03</pdfrwt>
<pdfrwt beam="2">  1       21 0.16683964E-01 0.12500000E+03</pdfrwt>
<totfact> 0.71461498E+06</totfact>
</mgrwt>
</event>
<event>
 3    1  0.1619206E-001  0.1250000E+03  0.7546771E-02  0.1235069E+00
         21   -1    0    0  502  501  0.00000000000E+00  0.00000000000E+00  0.20471416167E+02  0.20471416167E+02  0.00000000000E+00 0. -1.
         21   -1    0    0  501  502 -0.00000000000E+00 -0.00000000000E+00 -0.19081483998E+03  0.19081483998E+03  0.00000000000E+00 0. -1.
         25    1    1    2    0    0  0.00000000000E+00  0.00000000000E+00 -0.17034342381E+03  0.21128625615E+03  0.12500000000E+03 0.  0.
<mgrwt>
<rscale>  0 0.12500000E+03</rscale>
<asrwt>0</asrwt>
<pdfrwt beam="1">  1       21 0.31494486E-02 0.12500000E+03</pdfrwt>
<pdfrwt beam="2">  1       21 0.29356129E-01 0.12500000E+03</pdfrwt>
<totfact> 0.63724460E+06</totfact>
</mgrwt>
</event>
<event>
 3    1  0.1619206E-001  0.1250000E+03  0.7546771E-02  0.1235069E+00
         21   -1    0    0  502  501  0.00000000000E+00  0.00000000000E+00  0.74362388259E+02  0.74362388259E+02  0.00000000000E+00 0. -1.
         21   -1    0    0  501  502 -0.00000000000E+00 -0.00000000000E+00 -0.52529915882E+02  0.52529915882E+02  0.00000000000E+00 0. -1.
         25    1    1    2    0    0  0.00000000000E+00  0.00000000000E+00  0.21832472378E+02  0.12689230414E+03  0.12500000000E+03 0.  0.
<mgrwt>
<rscale>  0 0.12500000E+03</rscale>
<asrwt>0</asrwt>
<pdfrwt beam="1">  1       21 0.11440367E-01 0.12500000E+03</pdfrwt>
<pdfrwt beam="2">  1       21 0.80815255E-02 0.12500000E+03</pdfrwt>
<totfact> 0.73783804E+06</totfact>
</mgrwt>
</event>
<event>
 3    1  0.1619206E-001  0.1250000E+03  0.7546771E-02  0.1235069E+00
         21   -1    0    0  502  501  0.00000000000E+00  0.00000000000E+00  0.31412646561E+03  0.31412646561E+03  0.00000000000E+00 0. -1.
         21   -1    0    0  501  502 -0.00000000000E+00 -0.00000000000E+00 -0.12435278232E+02  0.12435278232E+02  0.00000000000E+00 0. -1.
         25    1    1    2    0    0  0.00000000000E+00  0.00000000000E+00  0.30169118737E+03  0.32656174384E+03  0.12500000000E+03 0.  0.
<mgrwt>
<rscale>  0 0.12500000E+03</rscale>
<asrwt>0</asrwt>
<pdfrwt beam="1">  1       21 0.48327143E-01 0.12500000E+03</pdfrwt>
<pdfrwt beam="2">  1       21 0.19131200E-02 0.12500000E+03</pdfrwt>
<totfact> 0.53317423E+06</totfact>
</mgrwt>
</event>
<event>
 3    1  0.1619206E-001  0.1250000E+03  0.7546771E-02  0.1235069E+00
         21   -1    0    0  502  501  0.00000000000E+00  0.00000000000E+00  0.40070850209E+02  0.40070850209E+02  0.00000000000E+00 0.  1.
         21   -1    0    0  501  502 -0.00000000000E+00 -0.00000000000E+00 -0.97483581697E+02  0.97483581697E+02  0.00000000000E+00 0.  1.
         25    1    1    2    0    0  0.00000000000E+00  0.00000000000E+00 -0.57412731488E+02  0.13755443191E+03  0.12500000000E+03 0.  0.
<mgrwt>
<rscale>  0 0.12500000E+03</rscale>
<asrwt>0</asrwt>
<pdfrwt beam="1">  1       21 0.61647463E-02 0.12500000E+03</pdfrwt>
<pdfrwt beam="2">  1       21 0.14997474E-01 0.12500000E+03</pdfrwt>
<totfact> 0.72359981E+06</totfact>
</mgrwt>
</event>
<event>
 3    1  0.1619206E-001  0.1250000E+03  0.7546771E-02  0.1235069E+00
         21   -1    0    0  502  501  0.00000000000E+00  0.00000000000E+00  0.21327918806E+03  0.21327918806E+03  0.00000000000E+00 0.  1.
         21   -1    0    0  501  502 -0.00000000000E+00 -0.00000000000E+00 -0.18315195381E+02  0.18315195381E+02  0.00000000000E+00 0.  1.
         25    1    1    2    0    0  0.00000000000E+00  0.00000000000E+00  0.19496399268E+03  0.23159438344E+03  0.12500000000E+03 0.  0.
<mgrwt>
<rscale>  0 0.12500000E+03</rscale>
<asrwt>0</asrwt>
<pdfrwt beam="1">  1       21 0.32812181E-01 0.12500000E+03</pdfrwt>
<pdfrwt beam="2">  1       21 0.28177225E-02 0.12500000E+03</pdfrwt>
<totfact> 0.61655668E+06</totfact>
</mgrwt>
</event>
<event>
 3    1  0.1619206E-001  0.1250000E+03  0.7546771E-02  0.1235069E+00
         21   -1    0    0  502  501  0.00000000000E+00  0.00000000000E+00  0.24136643474E+02  0.24136643474E+02  0.00000000000E+00 0.  1.
         21   -1    0    0  501  502 -0.00000000000E+00 -0.00000000000E+00 -0.16183898992E+03  0.16183898992E+03  0.00000000000E+00 0.  1.
         25    1    1    2    0    0  0.00000000000E+00  0.00000000000E+00 -0.13770234645E+03  0.18597563340E+03  0.12500000000E+03 0.  0.
<mgrwt>
<rscale>  0 0.12500000E+03</rscale>
<asrwt>0</asrwt>
<pdfrwt beam="1">  1       21 0.37133297E-02 0.12500000E+03</pdfrwt>
<pdfrwt beam="2">  1       21 0.24898306E-01 0.12500000E+03</pdfrwt>
<totfact> 0.66472554E+06</totfact>
</mgrwt>
</event>
<event>
 3    1  0.1619206E-001  0.1250000E+03  0.7546771E-02  0.1235069E+00
         21   -1    0    0  502  501  0.00000000000E+00  0.00000000000E+00  0.27721193476E+03  0.27721193476E+03  0.00000000000E+00 0.  1.
         21   -1    0    0  501  502 -0.00000000000E+00 -0.00000000000E+00 -0.14091204274E+02  0.14091204274E+02  0.00000000000E+00 0.  1.
         25    1    1    2    0    0  0.00000000000E+00  0.00000000000E+00  0.26312073049E+03  0.29130313903E+03  0.12500000000E+03 0.  0.
<mgrwt>
<rscale>  0 0.12500000E+03</rscale>
<asrwt>0</asrwt>
<pdfrwt beam="1">  1       21 0.42647986E-01 0.12500000E+03</pdfrwt>
<pdfrwt beam="2">  1       21 0.21678778E-02 0.12500000E+03</pdfrwt>
<totfact> 0.56186752E+06</totfact>
</mgrwt>
</event>
<event>
 3    1  0.1619206E-001  0.1250000E+03  0.7546771E-02  0.1235069E+00
         21   -1    0    0  502  501  0.00000000000E+00  0.00000000000E+00  0.26103068910E+03  0.26103068910E+03  0.00000000000E+00 0.  1.
         21   -1    0    0  501  502 -0.00000000000E+00 -0.00000000000E+00 -0.14964715503E+02  0.14964715503E+02  0.00000000000E+00 0.  1.
         25    1    1    2    0    0  0.00000000000E+00  0.00000000000E+00  0.24606597360E+03  0.27599540460E+03  0.12500000000E+03 0.  0.
<mgrwt>
<rscale>  0 0.12500000E+03</rscale>
<asrwt>0</asrwt>
<pdfrwt beam="1">  1       21 0.40158564E-01 0.12500000E+03</pdfrwt>
<pdfrwt beam="2">  1       21 0.23022641E-02 0.12500000E+03</pdfrwt>
<totfact> 0.57511973E+06</totfact>
</mgrwt>
</event>
<event>
 3    1  0.1619206E-001  0.1250000E+03  0.7546771E-02  0.1235069E+00
         21   -1    0    0  502  501  0.00000000000E+00  0.00000000000E+00  0.60342544121E+03  0.60342544121E+03  0.00000000000E+00 0. -1.
         21   -1    0    0  501  502 -0.00000000000E+00 -0.00000000000E+00 -0.64734592432E+01  0.64734592432E+01  0.00000000000E+00 0. -1.
         25    1    1    2    0    0  0.00000000000E+00  0.00000000000E+00  0.59695198197E+03  0.60989890045E+03  0.12500000000E+03 0.  0.
<mgrwt>
<rscale>  0 0.12500000E+03</rscale>
<asrwt>0</asrwt>
<pdfrwt beam="1">  1       21 0.92834639E-01 0.12500000E+03</pdfrwt>
<pdfrwt beam="2">  1       21 0.99591728E-03 0.12500000E+03</pdfrwt>
<totfact> 0.36648771E+06</totfact>
</mgrwt>
</event>
<event>
 3    1  0.1619206E-001  0.1250000E+03  0.7546771E-02  0.1235069E+00
         21   -1    0    0  502  501  0.00000000000E+00  0.00000000000E+00  0.38008568815E+02  0.38008568815E+02  0.00000000000E+00 0. -1.
         21   -1    0    0  501  502 -0.00000000000E+00 -0.00000000000E+00 -0.10277287785E+03  0.10277287785E+03  0.00000000000E+00 0. -1.
         25    1    1    2    0    0  0.00000000000E+00  0.00000000000E+00 -0.64764309031E+02  0.14078144666E+03  0.12500000000E+03 0.  0.
<mgrwt>
<rscale>  0 0.12500000E+03</rscale>
<asrwt>0</asrwt>
<pdfrwt beam="1">  1       21 0.58474721E-02 0.12500000E+03</pdfrwt>
<pdfrwt beam="2">  1       21 0.15811212E-01 0.12500000E+03</pdfrwt>
<totfact> 0.71937456E+06</totfact>
</mgrwt>
</event>
<event>
 3    1  0.1619206E-001  0.1250000E+03  0.7546771E-02  0.1235069E+00
         21   -1    0    0  502  501  0.00000000000E+00  0.00000000000E+00  0.16794413675E+02  0.16794413675E+02  0.00000000000E+00 0. -1.
         21   -1    0    0  501  502 -0.00000000000E+00 -0.00000000000E+00 -0.23259222236E+03  0.23259222236E+03  0.00000000000E+00 0. -1.
         25    1    1    2    0    0  0.00000000000E+00  0.00000000000E+00 -0.21579780868E+03  0.24938663603E+03  0.12500000000E+03 0.  0.
<mgrwt>
<rscale>  0 0.12500000E+03</rscale>
<asrwt>0</asrwt>
<pdfrwt beam="1">  1       21 0.25837559E-02 0.12500000E+03</pdfrwt>
<pdfrwt beam="2">  1       21 0.35783419E-01 0.12500000E+03</pdfrwt>
<totfact> 0.59935984E+06</totfact>
</mgrwt>
</event>
<event>
 3    1  0.1619206E-001  0.1250000E+03  0.7546771E-02  0.1235069E+00
         21   -1    0    0  502  501  0.00000000000E+00  0.00000000000E+00  0.10696667930E+03  0.10696667930E+03  0.00000000000E+00 0.  1.
         21   -1    0    0  501  502 -0.00000000000E+00 -0.00000000000E+00 -0.36518381476E+02  0.36518381476E+02  0.00000000000E+00 0.  1.
         25    1    1    2    0    0  0.00000000000E+00  0.00000000000E+00  0.70448297826E+02  0.14348506078E+03  0.12500000000E+03 0.  0.
<mgrwt>
<rscale>  0 0.12500000E+03</rscale>
<asrwt>0</asrwt>
<pdfrwt beam="1">  1       21 0.16456412E-01 0.12500000E+03</pdfrwt>
<pdfrwt beam="2">  1       21 0.56182126E-02 0.12500000E+03</pdfrwt>
<totfact> 0.71587542E+06</totfact>
</mgrwt>
</event>
<event>
 3    1  0.1619206E-001  0.1250000E+03  0.7546771E-02  0.1235069E+00
         21   -1    0    0  502  501  0.00000000000E+00  0.00000000000E+00  0.14590017107E+02  0.14590017107E+02  0.00000000000E+00 0.  1.
         21   -1    0    0  501  502 -0.00000000000E+00 -0.00000000000E+00 -0.26773443591E+03  0.26773443591E+03  0.00000000000E+00 0.  1.
         25    1    1    2    0    0  0.00000000000E+00  0.00000000000E+00 -0.25314441881E+03  0.28232445302E+03  0.12500000000E+03 0.  0.
<mgrwt>
<rscale>  0 0.12500000E+03</rscale>
<asrwt>0</asrwt>
<pdfrwt beam="1">  1       21 0.22446181E-02 0.12500000E+03</pdfrwt>
<pdfrwt beam="2">  1       21 0.41189912E-01 0.12500000E+03</pdfrwt>
<totfact> 0.56957833E+06</totfact>
</mgrwt>
</event>
<event>
 3    1  0.1619206E-001  0.1250000E+03  0.7546771E-02  0.1235069E+00
         21   -1    0    0  502  501  0.00000000000E+00  0.00000000000E+00  0.19161853137E+02  0.19161853137E+02  0.00000000000E+00 0.  1.
         21   -1    0    0  501  502 -0.00000000000E+00 -0.00000000000E+00 -0.20385554424E+03  0.20385554424E+03  0.00000000000E+00 0.  1.
         25    1    1    2    0    0  0.00000000000E+00  0.00000000000E+00 -0.18469369110E+03  0.22301739738E+03  0.12500000000E+03 0.  0.
<mgrwt>
<rscale>  0 0.12500000E+03</rscale>
<asrwt>0</asrwt>
<pdfrwt beam="1">  1       21 0.29479773E-02 0.12500000E+03</pdfrwt>
<pdfrwt beam="2">  1       21 0.31362392E-01 0.12500000E+03</pdfrwt>
<totfact> 0.62515441E+06</totfact>
</mgrwt>
</event>
<event>
 3    1  0.1619206E-001  0.1250000E+03  0.7546771E-02  0.1235069E+00
         21   -1    0    0  502  501  0.00000000000E+00  0.00000000000E+00  0.69960696110E+01  0.69960696110E+01  0.00000000000E+00 0.  1.
         21   -1    0    0  501  502 -0.00000000000E+00 -0.00000000000E+00 -0.55834921852E+03  0.55834921852E+03  0.00000000000E+00 0.  1.
         25    1    1    2    0    0  0.00000000000E+00  0.00000000000E+00 -0.55135314891E+03  0.56534528813E+03  0.12500000000E+03 0.  0.
<mgrwt>
<rscale>  0 0.12500000E+03</rscale>
<asrwt>0</asrwt>
<pdfrwt beam="1">  1       21 0.10763184E-02 0.12500000E+03</pdfrwt>
<pdfrwt beam="2">  1       21 0.85899879E-01 0.12500000E+03</pdfrwt>
<totfact> 0.38708261E+06</totfact>
</mgrwt>
</event>
<event>
 3    1  0.1619206E-001  0.1250000E+03  0.7546771E-02  0.1235069E+00
         21   -1    0    0  502  501  0.00000000000E+00  0.00000000000E+00  0.72437232956E+02  0.72437232956E+02  0.00000000000E+00 0.  1.
         21   -1    0    0  501  502 -0.00000000000E+00 -0.00000000000E+00 -0.53925996902E+02  0.53925996902E+02  0.00000000000E+00 0.  1.
         25    1    1    2    0    0  0.00000000000E+00  0.00000000000E+00  0.18511236054E+02  0.12636322986E+03  0.12500000000E+03 0.  0.
<mgrwt>
<rscale>  0 0.12500000E+03</rscale>
<asrwt>0</asrwt>
<pdfrwt beam="1">  1       21 0.11144190E-01 0.12500000E+03</pdfrwt>
<pdfrwt beam="2">  1       21 0.82963072E-02 0.12500000E+03</pdfrwt>
<totfact> 0.73856107E+06</totfact>
</mgrwt>
</event>
<event>
 3    1  0.1619206E-001  0.1250000E+03  0.7546771E-02  0.1235069E+00
         21   -1    0    0  502  501  0.00000000000E+00  0.00000000000E+00  0.71631305042E+03  0.71631305042E+03  0.00000000000E+00 0.  1.
         21   -1    0    0  501  502 -0.00000000000E+00 -0.00000000000E+00 -0.54532721381E+01  0.54532721381E+01  0.00000000000E+00 0.  1.
         25    1    1    2    0    0  0.00000000000E+00  0.00000000000E+00  0.71085977828E+03  0.72176632255E+03  0.12500000000E+03 0.  0.
<mgrwt>
<rscale>  0 0.12500000E+03</rscale>
<asrwt>0</asrwt>
<pdfrwt beam="1">  1       21 0.11020193E+00 0.12500000E+03</pdfrwt>
<pdfrwt beam="2">  1       21 0.83896551E-03 0.12500000E+03</pdfrwt>
<totfact> 0.32087703E+06</totfact>
</mgrwt>
</event>
<event>
 3    1  0.1619206E-001  0.1250000E+03  0.7546771E-02  0.1235069E+00
         21   -1    0    0  502  501  0.00000000000E+00  0.00000000000E+00  0.14941621348E+02  0.14941621348E+02  0.00000000000E+00 0.  1.
         21   -1    0    0  501  502 -0.00000000000E+00 -0.00000000000E+00 -0.26143414486E+03  0.26143414486E+03  0.00000000000E+00 0.  1.
         25    1    1    2    0    0  0.00000000000E+00  0.00000000000E+00 -0.24649252351E+03  0.27637576621E+03  0.12500000000E+03 0.  0.
<mgrwt>
<rscale>  0 0.12500000E+03</rscale>
<asrwt>0</asrwt>
<pdfrwt beam="1">  1       21 0.22987110E-02 0.12500000E+03</pdfrwt>
<pdfrwt beam="2">  1       21 0.40220638E-01 0.12500000E+03</pdfrwt>
<totfact> 0.57478416E+06</totfact>
</mgrwt>
</event>
<event>
 3    1  0.1619206E-001  0.1250000E+03  0.7546771E-02  0.1235069E+00
         21   -1    0    0  502  501  0.00000000000E+00  0.00000000000E+00  0.86374963555E+02  0.86374963555E+02  0.00000000000E+00 0.  1.
         21   -1    0    0  501  502 -0.00000000000E+00 -0.00000000000E+00 -0.45224331672E+02  0.45224331672E+02  0.00000000000E+00 0.  1.
         25    1    1    2    0    0  0.00000000000E+00  0.00000000000E+00  0.41150631883E+02  0.13159929523E+03  0.12500000000E+03 0.  0.
<mgrwt>
<rscale>  0 0.12500000E+03</rscale>
<asrwt>0</asrwt>
<pdfrwt beam="1">  1       21 0.13288456E-01 0.12500000E+03</pdfrwt>
<pdfrwt beam="2">  1       21 0.69575895E-02 0.12500000E+03</pdfrwt>
<totfact> 0.73150025E+06</totfact>
</mgrwt>
</event>
<event>
 3    1  0.1619206E-001  0.1250000E+03  0.7546771E-02  0.1235069E+00
         21   -1    0    0  502  501  0.00000000000E+00  0.00000000000E+00  0.47516843154E+01  0.47516843154E+01  0.00000000000E+00 0.  1.
         21   -1    0    0  501  502 -0.00000000000E+00 -0.00000000000E+00 -0.82207691856E+03  0.82207691856E+03  0.00000000000E+00 0.  1.
         25    1    1    2    0    0  0.00000000000E+00  0.00000000000E+00 -0.81732523425E+03  0.82682860288E+03  0.12500000000E+03 0.  0.
<mgrwt>
<rscale>  0 0.12500000E+03</rscale>
<asrwt>0</asrwt>
<pdfrwt beam="1">  1       21 0.73102777E-03 0.12500000E+03</pdfrwt>
<pdfrwt beam="2">  1       21 0.12647347E+00 0.12500000E+03</pdfrwt>
<totfact> 0.28492985E+06</totfact>
</mgrwt>
</event>
<event>
 3    1  0.1619206E-001  0.1250000E+03  0.7546771E-02  0.1235069E+00
         21   -1    0    0  502  501  0.00000000000E+00  0.00000000000E+00  0.12338156151E+03  0.12338156151E+03  0.00000000000E+00 0. -1.
         21   -1    0    0  501  502 -0.00000000000E+00 -0.00000000000E+00 -0.31659917027E+02  0.31659917027E+02  0.00000000000E+00 0. -1.
         25    1    1    2    0    0  0.00000000000E+00  0.00000000000E+00  0.91721644481E+02  0.15504147853E+03  0.12500000000E+03 0.  0.
<mgrwt>
<rscale>  0 0.12500000E+03</rscale>
<asrwt>0</asrwt>
<pdfrwt beam="1">  1       21 0.18981779E-01 0.12500000E+03</pdfrwt>
<pdfrwt beam="2">  1       21 0.48707565E-02 0.12500000E+03</pdfrwt>
<totfact> 0.70130504E+06</totfact>
</mgrwt>
</event>
<event>
 3    1  0.1619206E-001  0.1250000E+03  0.7546771E-02  0.1235069E+00
         21   -1    0    0  502  501  0.00000000000E+00  0.00000000000E+00  0.39195253342E+03  0.39195253342E+03  0.00000000000E+00 0. -1.
         21   -1    0    0  501  502 -0.00000000000E+00 -0.00000000000E+00 -0.99661302504E+01  0.99661302504E+01  0.00000000000E+00 0. -1.
         25    1    1    2    0    0  0.00000000000E+00  0.00000000000E+00  0.38198640317E+03  0.40191866367E+03  0.12500000000E+03 0.  0.
<mgrwt>
<rscale>  0 0.12500000E+03</rscale>
<asrwt>0</asrwt>
<pdfrwt beam="1">  1       21 0.60300378E-01 0.12500000E+03</pdfrwt>
<pdfrwt beam="2">  1       21 0.15332511E-02 0.12500000E+03</pdfrwt>
<totfact> 0.47914353E+06</totfact>
</mgrwt>
</event>
<event>
 3    1  0.1619206E-001  0.1250000E+03  0.7546771E-02  0.1235069E+00
         21   -1    0    0  502  501  0.00000000000E+00  0.00000000000E+00  0.12091684386E+04  0.12091684386E+04  0.00000000000E+00 0. -1.
         21   -1    0    0  501  502 -0.00000000000E+00 -0.00000000000E+00 -0.32305259345E+01  0.32305259345E+01  0.00000000000E+00 0. -1.
         25    1    1    2    0    0  0.00000000000E+00  0.00000000000E+00  0.12059379126E+04  0.12123989645E+04  0.12500000000E+03 0.  0.
<mgrwt>
<rscale>  0 0.12500000E+03</rscale>
<asrwt>0</asrwt>
<pdfrwt beam="1">  1       21 0.18602555E+00 0.12500000E+03</pdfrwt>
<pdfrwt beam="2">  1       21 0.49700495E-03 0.12500000E+03</pdfrwt>
<totfact> 0.18898065E+06</totfact>
</mgrwt>
</event>
<event>
 3    1  0.1619206E-001  0.1250000E+03  0.7546771E-02  0.1235069E+00
         21   -1    0    0  502  501  0.00000000000E+00  0.00000000000E+00  0.13449794287E+02  0.13449794287E+02  0.00000000000E+00 0. -1.
         21   -1    0    0  501  502 -0.00000000000E+00 -0.00000000000E+00 -0.29043195134E+03  0.29043195134E+03  0.00000000000E+00 0. -1.
         25    1    1    2    0    0  0.00000000000E+00  0.00000000000E+00 -0.27698215706E+03  0.30388174563E+03  0.12500000000E+03 0.  0.
<mgrwt>
<rscale>  0 0.12500000E+03</rscale>
<asrwt>0</asrwt>
<pdfrwt beam="1">  1       21 0.20691993E-02 0.12500000E+03</pdfrwt>
<pdfrwt beam="2">  1       21 0.44681835E-01 0.12500000E+03</pdfrwt>
<totfact> 0.55135122E+06</totfact>
</mgrwt>
</event>
<event>
 3    1  0.1619206E-001  0.1250000E+03  0.7546771E-02  0.1235069E+00
         21   -1    0    0  502  501  0.00000000000E+00  0.00000000000E+00  0.23564541621E+04  0.23564541621E+04  0.00000000000E+00 0.  1.
         21   -1    0    0  501  502 -0.00000000000E+00 -0.00000000000E+00 -0.16576813005E+01  0.16576813005E+01  0.00000000000E+00 0.  1.
         25    1    1    2    0    0  0.00000000000E+00  0.00000000000E+00  0.23547964808E+04  0.23581118434E+04  0.12500000000E+03 0.  0.
<mgrwt>
<rscale>  0 0.12500000E+03</rscale>
<asrwt>0</asrwt>
<pdfrwt beam="1">  1       21 0.36252873E+00 0.12500000E+03</pdfrwt>
<pdfrwt beam="2">  1       21 0.25502978E-03 0.12500000E+03</pdfrwt>
<totfact> 0.49536640E+05</totfact>
</mgrwt>
</event>
<event>
 3    1  0.1619206E-001  0.1250000E+03  0.7546771E-02  0.1235069E+00
         21   -1    0    0  502  501  0.00000000000E+00  0.00000000000E+00  0.40347723964E+01  0.40347723964E+01  0.00000000000E+00 0.  1.
         21   -1    0    0  501  502 -0.00000000000E+00 -0.00000000000E+00 -0.96814630819E+03  0.96814630819E+03  0.00000000000E+00 0.  1.
         25    1    1    2    0    0  0.00000000000E+00  0.00000000000E+00 -0.96411153580E+03  0.97218108059E+03  0.12500000000E+03 0.  0.
<mgrwt>
<rscale>  0 0.12500000E+03</rscale>
<asrwt>0</asrwt>
<pdfrwt beam="1">  1       21 0.62073285E-03 0.12500000E+03</pdfrwt>
<pdfrwt beam="2">  1       21 0.14894591E+00 0.12500000E+03</pdfrwt>
<totfact> 0.24326739E+06</totfact>
</mgrwt>
</event>
<event>
 3    1  0.1619206E-001  0.1250000E+03  0.7546771E-02  0.1235069E+00
         21   -1    0    0  502  501  0.00000000000E+00  0.00000000000E+00  0.20370328009E+03  0.20370328009E+03  0.00000000000E+00 0.  1.
         21   -1    0    0  501  502 -0.00000000000E+00 -0.00000000000E+00 -0.19176176242E+02  0.19176176242E+02  0.00000000000E+00 0.  1.
         25    1    1    2    0    0  0.00000000000E+00  0.00000000000E+00  0.18452710385E+03  0.22287945633E+03  0.12500000000E+03 0.  0.
<mgrwt>
<rscale>  0 0.12500000E+03</rscale>
<asrwt>0</asrwt>
<pdfrwt beam="1">  1       21 0.31338965E-01 0.12500000E+03</pdfrwt>
<pdfrwt beam="2">  1       21 0.29501811E-02 0.12500000E+03</pdfrwt>
<totfact> 0.62529424E+06</totfact>
</mgrwt>
</event>
<event>
 3    1  0.1619206E-001  0.1250000E+03  0.7546771E-02  0.1235069E+00
         21   -1    0    0  502  501  0.00000000000E+00  0.00000000000E+00  0.13846843045E+03  0.13846843045E+03  0.00000000000E+00 0.  1.
         21   -1    0    0  501  502 -0.00000000000E+00 -0.00000000000E+00 -0.28210401370E+02  0.28210401370E+02  0.00000000000E+00 0.  1.
         25    1    1    2    0    0  0.00000000000E+00  0.00000000000E+00  0.11025802908E+03  0.16667883182E+03  0.12500000000E+03 0.  0.
<mgrwt>
<rscale>  0 0.12500000E+03</rscale>
<asrwt>0</asrwt>
<pdfrwt beam="1">  1       21 0.21302835E-01 0.12500000E+03</pdfrwt>
<pdfrwt beam="2">  1       21 0.43400618E-02 0.12500000E+03</pdfrwt>
<totfact> 0.68712484E+06</totfact>
</mgrwt>
</event>
<event>
 3    1  0.1619206E-001  0.1250000E+03  0.7546771E-02  0.1235069E+00
         21   -1    0    0  502  501  0.00000000000E+00  0.00000000000E+00  0.21894014176E+03  0.21894014176E+03  0.00000000000E+00 0. -1.
         21   -1    0    0  501  502 -0.00000000000E+00 -0.00000000000E+00 -0.17841634561E+02  0.17841634561E+02  0.00000000000E+00 0. -1.
         25    1    1    2    0    0  0.00000000000E+00  0.00000000000E+00  0.20109850720E+03  0.23678177633E+03  0.12500000000E+03 0.  0.
<mgrwt>
<rscale>  0 0.12500000E+03</rscale>
<asrwt>0</asrwt>
<pdfrwt beam="1">  1       21 0.33683097E-01 0.12500000E+03</pdfrwt>
<pdfrwt beam="2">  1       21 0.27448670E-02 0.12500000E+03</pdfrwt>
<totfact> 0.61145481E+06</totfact>
</mgrwt>
</event>
<event>
 3    1  0.1619206E-001  0.1250000E+03  0.7546771E-02  0.1235069E+00
         21   -1    0    0  502  501  0.00000000000E+00  0.00000000000E+00  0.69245962865E+02  0.69245962865E+02  0.00000000000E+00 0.  1.
         21   -1    0    0  501  502 -0.00000000000E+00 -0.00000000000E+00 -0.56411230899E+02  0.56411230899E+02  0.00000000000E+00 0.  1.
         25    1    1    2    0    0  0.00000000000E+00  0.00000000000E+00  0.12834731967E+02  0.12565719376E+03  0.12500000000E+03 0.  0.
<mgrwt>
<rscale>  0 0.12500000E+03</rscale>
<asrwt>0</asrwt>
<pdfrwt beam="1">  1       21 0.10653225E-01 0.12500000E+03</pdfrwt>
<pdfrwt beam="2">  1       21 0.86786509E-02 0.12500000E+03</pdfrwt>
<totfact> 0.73953484E+06</totfact>
</mgrwt>
</event>
<event>
 3    1  0.1619206E-001  0.1250000E+03  0.7546771E-02  0.1235069E+00
         21   -1    0    0  502  501  0.00000000000E+00  0.00000000000E+00  0.95045645011E+01  0.95045645011E+01  0.00000000000E+00 0. -1.
         21   -1    0    0  501  502 -0.00000000000E+00 -0.00000000000E+00 -0.41098674216E+03  0.41098674216E+03  0.00000000000E+00 0. -1.
         25    1    1    2    0    0  0.00000000000E+00  0.00000000000E+00 -0.40148217766E+03  0.42049130667E+03  0.12500000000E+03 0.  0.
<mgrwt>
<rscale>  0 0.12500000E+03</rscale>
<asrwt>0</asrwt>
<pdfrwt beam="1">  1       21 0.14622405E-02 0.12500000E+03</pdfrwt>
<pdfrwt beam="2">  1       21 0.63228739E-01 0.12500000E+03</pdfrwt>
<totfact> 0.46711232E+06</totfact>
</mgrwt>
</event>
<event>
 3    1  0.1619206E-001  0.1250000E+03  0.7546771E-02  0.1235069E+00
         21   -1    0    0  502  501  0.00000000000E+00  0.00000000000E+00  0.98531181516E+02  0.98531181516E+02  0.00000000000E+00 0.  1.
         21   -1    0    0  501  502 -0.00000000000E+00 -0.00000000000E+00 -0.39644810302E+02  0.39644810302E+02  0.00000000000E+00 0.  1.
         25    1    1    2    0    0  0.00000000000E+00  0.00000000000E+00  0.58886371214E+02  0.13817599182E+03  0.12500000000E+03 0.  0.
<mgrwt>
<rscale>  0 0.12500000E+03</rscale>
<asrwt>0</asrwt>
<pdfrwt beam="1">  1       21 0.15158643E-01 0.12500000E+03</pdfrwt>
<pdfrwt beam="2">  1       21 0.60992016E-02 0.12500000E+03</pdfrwt>
<totfact> 0.72278332E+06</totfact>
</mgrwt>
</event>
<event>
 3    1  0.1619206E-001  0.1250000E+03  0.7546771E-02  0.1235069E+00
         21   -1    0    0  502  501  0.00000000000E+00  0.00000000000E+00  0.31102427033E+03  0.31102427033E+03  0.00000000000E+00 0. -1.
         21   -1    0    0  501  502 -0.00000000000E+00 -0.00000000000E+00 -0.12559309265E+02  0.12559309265E+02  0.00000000000E+00 0. -1.
         25    1    1    2    0    0  0.00000000000E+00  0.00000000000E+00  0.29846496106E+03  0.32358357959E+03  0.12500000000E+03 0.  0.
<mgrwt>
<rscale>  0 0.12500000E+03</rscale>
<asrwt>0</asrwt>
<pdfrwt beam="1">  1       21 0.47849882E-01 0.12500000E+03</pdfrwt>
<pdfrwt beam="2">  1       21 0.19322017E-02 0.12500000E+03</pdfrwt>
<totfact> 0.53550581E+06</totfact>
</mgrwt>
</event>
<event>
 3    1  0.1619206E-001  0.1250000E+03  0.7546771E-02  0.1235069E+00
         21   -1    0    0  502  501  0.00000000000E+00  0.00000000000E+00  0.59425474024E+03  0.59425474024E+03  0.00000000000E+00 0. -1.
         21   -1    0    0  501  502 -0.00000000000E+00 -0.00000000000E+00 -0.65733594290E+01  0.65733594290E+01  0.00000000000E+00 0. -1.
         25    1    1    2    0    0  0.00000000000E+00  0.00000000000E+00  0.58768138081E+03  0.60082809967E+03  0.12500000000E+03 0.  0.
<mgrwt>
<rscale>  0 0.12500000E+03</rscale>
<asrwt>0</asrwt>
<pdfrwt beam="1">  1       21 0.91423764E-01 0.12500000E+03</pdfrwt>
<pdfrwt beam="2">  1       21 0.10112865E-02 0.12500000E+03</pdfrwt>
<totfact> 0.37055220E+06</totfact>
</mgrwt>
</event>
<event>
 3    1  0.1619206E-001  0.1250000E+03  0.7546771E-02  0.1235069E+00
         21   -1    0    0  502  501  0.00000000000E+00  0.00000000000E+00  0.15802459411E+04  0.15802459411E+04  0.00000000000E+00 0.  1.
         21   -1    0    0  501  502 -0.00000000000E+00 -0.00000000000E+00 -0.24719253494E+01  0.24719253494E+01  0.00000000000E+00 0.  1.
         25    1    1    2    0    0  0.00000000000E+00  0.00000000000E+00  0.15777740157E+04  0.15827178664E+04  0.12500000000E+03 0.  0.
<mgrwt>
<rscale>  0 0.12500000E+03</rscale>
<asrwt>0</asrwt>
<pdfrwt beam="1">  1       21 0.24311395E+00 0.12500000E+03</pdfrwt>
<pdfrwt beam="2">  1       21 0.38029747E-03 0.12500000E+03</pdfrwt>
<totfact> 0.12810113E+06</totfact>
</mgrwt>
</event>
<event>
 3    1  0.1619206E-001  0.1250000E+03  0.7546771E-02  0.1235069E+00
         21   -1    0    0  502  501  0.00000000000E+00  0.00000000000E+00  0.61907283347E+02  0.61907283347E+02  0.00000000000E+00 0. -1.
         21   -1    0    0  501  502 -0.00000000000E+00 -0.00000000000E+00 -0.63098391479E+02  0.63098391479E+02  0.00000000000E+00 0. -1.
         25    1    1    2    0    0  0.00000000000E+00  0.00000000000E+00 -0.11911081318E+01  0.12500567483E+03  0.12500000000E+03 0.  0.
<mgrwt>
<rscale>  0 0.12500000E+03</rscale>
<asrwt>0</asrwt>
<pdfrwt beam="1">  1       21 0.95241975E-02 0.12500000E+03</pdfrwt>
<pdfrwt beam="2">  1       21 0.97074448E-02 0.12500000E+03</pdfrwt>
<totfact> 0.74042815E+06</totfact>
</mgrwt>
</event>
<event>
 3    1  0.1619206E-001  0.1250000E+03  0.7546771E-02  0.1235069E+00
         21   -1    0    0  502  501  0.00000000000E+00  0.00000000000E+00  0.14192293650E+02  0.14192293650E+02  0.00000000000E+00 0.  1.
         21   -1    0    0  501  502 -0.00000000000E+00 -0.00000000000E+00 -0.27523739969E+03  0.27523739969E+03  0.00000000000E+00 0.  1.
         25    1    1    2    0    0  0.00000000000E+00  0.00000000000E+00 -0.26104510604E+03  0.28942969334E+03  0.12500000000E+03 0.  0.
<mgrwt>
<rscale>  0 0.12500000E+03</rscale>
<asrwt>0</asrwt>
<pdfrwt beam="1">  1       21 0.21834300E-02 0.12500000E+03</pdfrwt>
<pdfrwt beam="2">  1       21 0.42344212E-01 0.12500000E+03</pdfrwt>
<totfact> 0.56346210E+06</totfact>
</mgrwt>
</event>
<event>
 3    1  0.1619206E-001  0.1250000E+03  0.7546771E-02  0.1235069E+00
         21   -1    0    0  502  501  0.00000000000E+00  0.00000000000E+00  0.32004272150E+02  0.32004272150E+02  0.00000000000E+00 0.  1.
         21   -1    0    0  501  502 -0.00000000000E+00 -0.00000000000E+00 -0.12205401772E+03  0.12205401772E+03  0.00000000000E+00 0.  1.
         25    1    1    2    0    0  0.00000000000E+00  0.00000000000E+00 -0.90049745568E+02  0.15405828987E+03  0.12500000000E+03 0.  0.
<mgrwt>
<rscale>  0 0.12500000E+03</rscale>
<asrwt>0</asrwt>
<pdfrwt beam="1">  1       21 0.49237341E-02 0.12500000E+03</pdfrwt>
<pdfrwt beam="2">  1       21 0.18777541E-01 0.12500000E+03</pdfrwt>
<totfact> 0.70252890E+06</totfact>
</mgrwt>
</event>
<event>
 3    1  0.1619206E-001  0.1250000E+03  0.7546771E-02  0.1235069E+00
         21   -1    0    0  502  501  0.00000000000E+00  0.00000000000E+00  0.13268670336E+03  0.13268670336E+03  0.00000000000E+00 0. -1.
         21   -1    0    0  501  502 -0.00000000000E+00 -0.00000000000E+00 -0.29439649197E+02  0.29439649197E+02  0.00000000000E+00 0. -1.
         25    1    1    2    0    0  0.00000000000E+00  0.00000000000E+00  0.10324705416E+03  0.16212635256E+03  0.12500000000E+03 0.  0.
<mgrwt>
<rscale>  0 0.12500000E+03</rscale>
<asrwt>0</asrwt>
<pdfrwt beam="1">  1       21 0.20413339E-01 0.12500000E+03</pdfrwt>
<pdfrwt beam="2">  1       21 0.45291769E-02 0.12500000E+03</pdfrwt>
<totfact> 0.69260608E+06</totfact>
</mgrwt>
</event>
<event>
 3    1  0.1619206E-001  0.1250000E+03  0.7546771E-02  0.1235069E+00
         21   -1    0    0  502  501  0.00000000000E+00  0.00000000000E+00  0.31558293506E+03  0.31558293506E+03  0.00000000000E+00 0. -1.
         21   -1    0    0  501  502 -0.00000000000E+00 -0.00000000000E+00 -0.12377887287E+02  0.12377887287E+02  0.00000000000E+00 0. -1.
         25    1    1    2    0    0  0.00000000000E+00  0.00000000000E+00  0.30320504778E+03  0.32796082235E+03  0.12500000000E+03 0.  0.
<mgrwt>
<rscale>  0 0.12500000E+03</rscale>
<asrwt>0</asrwt>
<pdfrwt beam="1">  1       21 0.48551215E-01 0.12500000E+03</pdfrwt>
<pdfrwt beam="2">  1       21 0.19042906E-02 0.12500000E+03</pdfrwt>
<totfact> 0.53208460E+06</totfact>
</mgrwt>
</event>
<event>
 3    1  0.1619206E-001  0.1250000E+03  0.7546771E-02  0.1235069E+00
         21   -1    0    0  502  501  0.00000000000E+00  0.00000000000E+00  0.50579902533E+01  0.50579902533E+01  0.00000000000E+00 0.  1.
         21   -1    0    0  501  502 -0.00000000000E+00 -0.00000000000E+00 -0.77229290773E+03  0.77229290773E+03  0.00000000000E+00 0.  1.
         25    1    1    2    0    0  0.00000000000E+00  0.00000000000E+00 -0.76723491748E+03  0.77735089799E+03  0.12500000000E+03 0.  0.
<mgrwt>
<rscale>  0 0.12500000E+03</rscale>
<asrwt>0</asrwt>
<pdfrwt beam="1">  1       21 0.77815290E-03 0.12500000E+03</pdfrwt>
<pdfrwt beam="2">  1       21 0.11881421E+00 0.12500000E+03</pdfrwt>
<totfact> 0.30127087E+06</totfact>
</mgrwt>
</event>
<event>
 3    1  0.1619206E-001  0.1250000E+03  0.7546771E-02  0.1235069E+00
         21   -1    0    0  502  501  0.00000000000E+00  0.00000000000E+00  0.38284034382E+02  0.38284034382E+02  0.00000000000E+00 0.  1.
         21   -1    0    0  501  502 -0.00000000000E+00 -0.00000000000E+00 -0.10203339494E+03  0.10203339494E+03  0.00000000000E+00 0.  1.
         25    1    1    2    0    0  0.00000000000E+00  0.00000000000E+00 -0.63749360558E+02  0.14031742932E+03  0.12500000000E+03 0.  0.
<mgrwt>
<rscale>  0 0.12500000E+03</rscale>
<asrwt>0</asrwt>
<pdfrwt beam="1">  1       21 0.58898515E-02 0.12500000E+03</pdfrwt>
<pdfrwt beam="2">  1       21 0.15697445E-01 0.12500000E+03</pdfrwt>
<totfact> 0.71997896E+06</totfact>
</mgrwt>
</event>
<event>
 3    1  0.1619206E-001  0.1250000E+03  0.7546771E-02  0.1235069E+00
         21   -1    0    0  502  501  0.00000000000E+00  0.00000000000E+00  0.15309716584E+03  0.15309716584E+03  0.00000000000E+00 0.  1.
         21   -1    0    0  501  502 -0.00000000000E+00 -0.00000000000E+00 -0.25514842018E+02  0.25514842018E+02  0.00000000000E+00 0.  1.
         25    1    1    2    0    0  0.00000000000E+00  0.00000000000E+00  0.12758232383E+03  0.17861200786E+03  0.12500000000E+03 0.  0.
<mgrwt>
<rscale>  0 0.12500000E+03</rscale>
<asrwt>0</asrwt>
<pdfrwt beam="1">  1       21 0.23553409E-01 0.12500000E+03</pdfrwt>
<pdfrwt beam="2">  1       21 0.39253604E-02 0.12500000E+03</pdfrwt>
<totfact> 0.67311120E+06</totfact>
</mgrwt>
</event>
<event>
 3    1  0.1619206E-001  0.1250000E+03  0.7546771E-02  0.1235069E+00
         21   -1    0    0  502  501  0.00000000000E+00  0.00000000000E+00  0.66231010166E+01  0.66231010166E+01  0.00000000000E+00 0.  1.
         21   -1    0    0  501  502 -0.00000000000E+00 -0.00000000000E+00 -0.58979169881E+03  0.58979169881E+03  0.00000000000E+00 0.  1.
         25    1    1    2    0    0  0.00000000000E+00  0.00000000000E+00 -0.58316859780E+03  0.59641479983E+03  0.12500000000E+03 0.  0.
<mgrwt>
<rscale>  0 0.12500000E+03</rscale>
<asrwt>0</asrwt>
<pdfrwt beam="1">  1       21 0.10189391E-02 0.12500000E+03</pdfrwt>
<pdfrwt beam="2">  1       21 0.90737139E-01 0.12500000E+03</pdfrwt>
<totfact> 0.37255284E+06</totfact>
</mgrwt>
</event>
<event>
 3    1  0.1619206E-001  0.1250000E+03  0.7546771E-02  0.1235069E+00
         21   -1    0    0  502  501  0.00000000000E+00  0.00000000000E+00  0.22038802052E+03  0.22038802052E+03  0.00000000000E+00 0. -1.
         21   -1    0    0  501  502 -0.00000000000E+00 -0.00000000000E+00 -0.17724420732E+02  0.17724420732E+02  0.00000000000E+00 0. -1.
         25    1    1    2    0    0  0.00000000000E+00  0.00000000000E+00  0.20266359978E+03  0.23811244125E+03  0.12500000000E+03 0.  0.
<mgrwt>
<rscale>  0 0.12500000E+03</rscale>
<asrwt>0</asrwt>
<pdfrwt beam="1">  1       21 0.33905847E-01 0.12500000E+03</pdfrwt>
<pdfrwt beam="2">  1       21 0.27268341E-02 0.12500000E+03</pdfrwt>
<totfact> 0.61015798E+06</totfact>
</mgrwt>
</event>
<event>
 3    1  0.1619206E-001  0.1250000E+03  0.7546771E-02  0.1235069E+00
         21   -1    0    0  502  501  0.00000000000E+00  0.00000000000E+00  0.66301749955E+01  0.66301749955E+01  0.00000000000E+00 0. -1.
         21   -1    0    0  501  502 -0.00000000000E+00 -0.00000000000E+00 -0.58916242824E+03  0.58916242824E+03  0.00000000000E+00 0. -1.
         25    1    1    2    0    0  0.00000000000E+00  0.00000000000E+00 -0.58253225324E+03  0.59579260323E+03  0.12500000000E+03 0.  0.
<mgrwt>
<rscale>  0 0.12500000E+03</rscale>
<asrwt>0</asrwt>
<pdfrwt beam="1">  1       21 0.10200266E-02 0.12500000E+03</pdfrwt>
<pdfrwt beam="2">  1       21 0.90640400E-01 0.12500000E+03</pdfrwt>
<totfact> 0.37283591E+06</totfact>
</mgrwt>
</event>
<event>
 3    1  0.1619206E-001  0.1250000E+03  0.7546771E-02  0.1235069E+00
         21   -1    0    0  502  501  0.00000000000E+00  0.00000000000E+00  0.79571865062E+02  0.79571865062E+02  0.00000000000E+00 0.  1.
         21   -1    0    0  501  502 -0.00000000000E+00 -0.00000000000E+00 -0.49090843817E+02  0.49090843817E+02  0.00000000000E+00 0.  1.
         25    1    1    2    0    0  0.00000000000E+00  0.00000000000E+00  0.30481021244E+02  0.12866270888E+03  0.12500000000E+03 0.  0.
<mgrwt>
<rscale>  0 0.12500000E+03</rscale>
<asrwt>0</asrwt>
<pdfrwt beam="1">  1       21 0.12241825E-01 0.12500000E+03</pdfrwt>
<pdfrwt beam="2">  1       21 0.75524375E-02 0.12500000E+03</pdfrwt>
<totfact> 0.73544220E+06</totfact>
</mgrwt>
</event>
<event>
 3    1  0.1619206E-001  0.1250000E+03  0.7546771E-02  0.1235069E+00
         21   -1    0    0  502  501  0.00000000000E+00  0.00000000000E+00  0.44440472688E+01  0.44440472688E+01  0.00000000000E+00 0.  1.
         21   -1    0    0  501  502 -0.00000000000E+00 -0.00000000000E+00 -0.87898480006E+03  0.87898480006E+03  0.00000000000E+00 0.  1.
         25    1    1    2    0    0  0.00000000000E+00  0.00000000000E+00 -0.87454075279E+03  0.88342884733E+03  0.12500000000E+03 0.  0.
<mgrwt>
<rscale>  0 0.12500000E+03</rscale>
<asrwt>0</asrwt>
<pdfrwt beam="1">  1       21 0.68369892E-03 0.12500000E+03</pdfrwt>
<pdfrwt beam="2">  1       21 0.13522856E+00 0.12500000E+03</pdfrwt>
<totfact> 0.26776879E+06</totfact>
</mgrwt>
</event>
<event>
 3    1  0.1619206E-001  0.1250000E+03  0.7546771E-02  0.1235069E+00
         21   -1    0    0  502  501  0.00000000000E+00  0.00000000000E+00  0.29798904518E+03  0.29798904518E+03  0.00000000000E+00 0. -1.
         21   -1    0    0  501  502 -0.00000000000E+00 -0.00000000000E+00 -0.13108703368E+02  0.13108703368E+02  0.00000000000E+00 0. -1.
         25    1    1    2    0    0  0.00000000000E+00  0.00000000000E+00  0.28488034181E+03  0.31109774854E+03  0.12500000000E+03 0.  0.
<mgrwt>
<rscale>  0 0.12500000E+03</rscale>
<asrwt>0</asrwt>
<pdfrwt beam="1">  1       21 0.45844463E-01 0.12500000E+03</pdfrwt>
<pdfrwt beam="2">  1       21 0.20167238E-02 0.12500000E+03</pdfrwt>
<totfact> 0.54546337E+06</totfact>
</mgrwt>
</event>
<event>
 3    1  0.1619206E-001  0.1250000E+03  0.7546771E-02  0.1235069E+00
         21   -1    0    0  502  501  0.00000000000E+00  0.00000000000E+00  0.10901821236E+03  0.10901821236E+03  0.00000000000E+00 0.  1.
         21   -1    0    0  501  502 -0.00000000000E+00 -0.00000000000E+00 -0.35831169081E+02  0.35831169081E+02  0.00000000000E+00 0.  1.
         25    1    1    2    0    0  0.00000000000E+00  0.00000000000E+00  0.73187043279E+02  0.14484938144E+03  0.12500000000E+03 0.  0.
<mgrwt>
<rscale>  0 0.12500000E+03</rscale>
<asrwt>0</asrwt>
<pdfrwt beam="1">  1       21 0.16772032E-01 0.12500000E+03</pdfrwt>
<pdfrwt beam="2">  1       21 0.55124876E-02 0.12500000E+03</pdfrwt>
<totfact> 0.71412380E+06</totfact>
</mgrwt>
</event>
<event>
 3    1  0.1619206E-001  0.1250000E+03  0.7546771E-02  0.1235069E+00
         21   -1    0    0  502  501  0.00000000000E+00  0.00000000000E+00  0.91845778553E+03  0.91845778553E+03  0.00000000000E+00 0. -1.
         21   -1    0    0  501  502 -0.00000000000E+00 -0.00000000000E+00 -0.42530533918E+01  0.42530533918E+01  0.00000000000E+00 0. -1.
         25    1    1    2    0    0  0.00000000000E+00  0.00000000000E+00  0.91420473214E+03  0.92271083892E+03  0.12500000000E+03 0.  0.
<mgrwt>
<rscale>  0 0.12500000E+03</rscale>
<asrwt>0</asrwt>
<pdfrwt beam="1">  1       21 0.14130104E+00 0.12500000E+03</pdfrwt>
<pdfrwt beam="2">  1       21 0.65431664E-03 0.12500000E+03</pdfrwt>
<totfact> 0.25656558E+06</totfact>
</mgrwt>
</event>
<event>
 3    1  0.1619206E-001  0.1250000E+03  0.7546771E-02  0.1235069E+00
         21   -1    0    0  502  501  0.00000000000E+00  0.00000000000E+00  0.43697783656E+03  0.43697783656E+03  0.00000000000E+00 0.  1.
         21   -1    0    0  501  502 -0.00000000000E+00 -0.00000000000E+00 -0.89392405591E+01  0.89392405591E+01  0.00000000000E+00 0.  1.
         25    1    1    2    0    0  0.00000000000E+00  0.00000000000E+00  0.42803859600E+03  0.44591707712E+03  0.12500000000E+03 0.  0.
<mgrwt>
<rscale>  0 0.12500000E+03</rscale>
<asrwt>0</asrwt>
<pdfrwt beam="1">  1       21 0.67227343E-01 0.12500000E+03</pdfrwt>
<pdfrwt beam="2">  1       21 0.13752681E-02 0.12500000E+03</pdfrwt>
<totfact> 0.45137600E+06</totfact>
</mgrwt>
</event>
<event>
 3    1  0.1619206E-001  0.1250000E+03  0.7546771E-02  0.1235069E+00
         21   -1    0    0  502  501  0.00000000000E+00  0.00000000000E+00  0.17949090580E+04  0.17949090580E+04  0.00000000000E+00 0.  1.
         21   -1    0    0  501  502 -0.00000000000E+00 -0.00000000000E+00 -0.21762941040E+01  0.21762941040E+01  0.00000000000E+00 0.  1.
         25    1    1    2    0    0  0.00000000000E+00  0.00000000000E+00  0.17927327639E+04  0.17970853521E+04  0.12500000000E+03 0.  0.
<mgrwt>
<rscale>  0 0.12500000E+03</rscale>
<asrwt>0</asrwt>
<pdfrwt beam="1">  1       21 0.27613867E+00 0.12500000E+03</pdfrwt>
<pdfrwt beam="2">  1       21 0.33481591E-03 0.12500000E+03</pdfrwt>
<totfact> 0.10103575E+06</totfact>
</mgrwt>
</event>
<event>
 3    1  0.1619206E-001  0.1250000E+03  0.7546771E-02  0.1235069E+00
         21   -1    0    0  502  501  0.00000000000E+00  0.00000000000E+00  0.18287882322E+03  0.18287882322E+03  0.00000000000E+00 0. -1.
         21   -1    0    0  501  502 -0.00000000000E+00 -0.00000000000E+00 -0.21359772177E+02  0.21359772177E+02  0.00000000000E+00 0. -1.
         25    1    1    2    0    0  0.00000000000E+00  0.00000000000E+00  0.16151905104E+03  0.20423859540E+03  0.12500000000E+03 0.  0.
<mgrwt>
<rscale>  0 0.12500000E+03</rscale>
<asrwt>0</asrwt>
<pdfrwt beam="1">  1       21 0.28135203E-01 0.12500000E+03</pdfrwt>
<pdfrwt beam="2">  1       21 0.32861189E-02 0.12500000E+03</pdfrwt>
<totfact> 0.64470846E+06</totfact>
</mgrwt>
</event>
<event>
 3    1  0.1619206E-001  0.1250000E+03  0.7546771E-02  0.1235069E+00
         21   -1    0    0  502  501  0.00000000000E+00  0.00000000000E+00  0.91060305080E+02  0.91060305080E+02  0.00000000000E+00 0.  1.
         21   -1    0    0  501  502 -0.00000000000E+00 -0.00000000000E+00 -0.42897396363E+02  0.42897396363E+02  0.00000000000E+00 0.  1.
         25    1    1    2    0    0  0.00000000000E+00  0.00000000000E+00  0.48162908717E+02  0.13395770144E+03  0.12500000000E+03 0.  0.
<mgrwt>
<rscale>  0 0.12500000E+03</rscale>
<asrwt>0</asrwt>
<pdfrwt beam="1">  1       21 0.14009278E-01 0.12500000E+03</pdfrwt>
<pdfrwt beam="2">  1       21 0.65995995E-02 0.12500000E+03</pdfrwt>
<totfact> 0.72834778E+06</totfact>
</mgrwt>
</event>
<event>
 3    1  0.1619206E-001  0.1250000E+03  0.7546771E-02  0.1235069E+00
         21   -1    0    0  502  501  0.00000000000E+00  0.00000000000E+00  0.33125462224E+02  0.33125462224E+02  0.00000000000E+00 0.  1.
         21   -1    0    0  501  502 -0.00000000000E+00 -0.00000000000E+00 -0.11792288281E+03  0.11792288281E+03  0.00000000000E+00 0.  1.
         25    1    1    2    0    0  0.00000000000E+00  0.00000000000E+00 -0.84797420591E+02  0.15104834504E+03  0.12500000000E+03 0.  0.
<mgrwt>
<rscale>  0 0.12500000E+03</rscale>
<asrwt>0</asrwt>
<pdfrwt beam="1">  1       21 0.50962250E-02 0.12500000E+03</pdfrwt>
<pdfrwt beam="2">  1       21 0.18141982E-01 0.12500000E+03</pdfrwt>
<totfact> 0.70627757E+06</totfact>
</mgrwt>
</event>
<event>
 3    1  0.1619206E-001  0.1250000E+03  0.7546771E-02  0.1235069E+00
         21   -1    0    0  502  501  0.00000000000E+00  0.00000000000E+00  0.23945262179E+03  0.23945262179E+03  0.00000000000E+00 0.  1.
         21   -1    0    0  501  502 -0.00000000000E+00 -0.00000000000E+00 -0.16313247985E+02  0.16313247985E+02  0.00000000000E+00 0.  1.
         25    1    1    2    0    0  0.00000000000E+00  0.00000000000E+00  0.22313937381E+03  0.25576586978E+03  0.12500000000E+03 0.  0.
<mgrwt>
<rscale>  0 0.12500000E+03</rscale>
<asrwt>0</asrwt>
<pdfrwt beam="1">  1       21 0.36838862E-01 0.12500000E+03</pdfrwt>
<pdfrwt beam="2">  1       21 0.25097306E-02 0.12500000E+03</pdfrwt>
<totfact> 0.59339550E+06</totfact>
</mgrwt>
</event>
<event>
 3    1  0.1619206E-001  0.1250000E+03  0.7546771E-02  0.1235069E+00
         21   -1    0    0  502  501  0.00000000000E+00  0.00000000000E+00  0.18479401158E+03  0.18479401158E+03  0.00000000000E+00 0. -1.
         21   -1    0    0  501  502 -0.00000000000E+00 -0.00000000000E+00 -0.21138401437E+02  0.21138401437E+02  0.00000000000E+00 0. -1.
         25    1    1    2    0    0  0.00000000000E+00  0.00000000000E+00  0.16365561015E+03  0.20593241302E+03  0.12500000000E+03 0.  0.
<mgrwt>
<rscale>  0 0.12500000E+03</rscale>
<asrwt>0</asrwt>
<pdfrwt beam="1">  1       21 0.28429847E-01 0.12500000E+03</pdfrwt>
<pdfrwt beam="2">  1       21 0.32520619E-02 0.12500000E+03</pdfrwt>
<totfact> 0.64290050E+06</totfact>
</mgrwt>
</event>
<event>
 3    1  0.1619206E-001  0.1250000E+03  0.7546771E-02  0.1235069E+00
         21   -1    0    0  502  501  0.00000000000E+00  0.00000000000E+00  0.40150544112E+03  0.40150544112E+03  0.00000000000E+00 0.  1.
         21   -1    0    0  501  502 -0.00000000000E+00 -0.00000000000E+00 -0.97290088749E+01  0.97290088749E+01  0.00000000000E+00 0.  1.
         25    1    1    2    0    0  0.00000000000E+00  0.00000000000E+00  0.39177643225E+03  0.41123445000E+03  0.12500000000E+03 0.  0.
<mgrwt>
<rscale>  0 0.12500000E+03</rscale>
<asrwt>0</asrwt>
<pdfrwt beam="1">  1       21 0.61770055E-01 0.12500000E+03</pdfrwt>
<pdfrwt beam="2">  1       21 0.14967709E-02 0.12500000E+03</pdfrwt>
<totfact> 0.47305007E+06</totfact>
</mgrwt>
</event>
<event>
 3    1  0.1619206E-001  0.1250000E+03  0.7546771E-02  0.1235069E+00
         21   -1    0    0  502  501  0.00000000000E+00  0.00000000000E+00  0.20814567260E+02  0.20814567260E+02  0.00000000000E+00 0.  1.
         21   -1    0    0  501  502 -0.00000000000E+00 -0.00000000000E+00 -0.18766904693E+03  0.18766904693E+03  0.00000000000E+00 0.  1.
         25    1    1    2    0    0  0.00000000000E+00  0.00000000000E+00 -0.16685447967E+03  0.20848361419E+03  0.12500000000E+03 0.  0.
<mgrwt>
<rscale>  0 0.12500000E+03</rscale>
<asrwt>0</asrwt>
<pdfrwt beam="1">  1       21 0.32022409E-02 0.12500000E+03</pdfrwt>
<pdfrwt beam="2">  1       21 0.28872163E-01 0.12500000E+03</pdfrwt>
<totfact> 0.64019429E+06</totfact>
</mgrwt>
</event>
<event>
 3    1  0.1619206E-001  0.1250000E+03  0.7546771E-02  0.1235069E+00
         21   -1    0    0  502  501  0.00000000000E+00  0.00000000000E+00  0.51061702695E+03  0.51061702695E+03  0.00000000000E+00 0. -1.
         21   -1    0    0  501  502 -0.00000000000E+00 -0.00000000000E+00 -0.76500582507E+01  0.76500582507E+01  0.00000000000E+00 0. -1.
         25    1    1    2    0    0  0.00000000000E+00  0.00000000000E+00  0.50296696870E+03  0.51826708520E+03  0.12500000000E+03 0.  0.
<mgrwt>
<rscale>  0 0.12500000E+03</rscale>
<asrwt>0</asrwt>
<pdfrwt beam="1">  1       21 0.78556439E-01 0.12500000E+03</pdfrwt>
<pdfrwt beam="2">  1       21 0.11769324E-02 0.12500000E+03</pdfrwt>
<totfact> 0.41070431E+06</totfact>
</mgrwt>
</event>
<event>
 3    1  0.1619206E-001  0.1250000E+03  0.7546771E-02  0.1235069E+00
         21   -1    0    0  502  501  0.00000000000E+00  0.00000000000E+00  0.21355783446E+02  0.21355783446E+02  0.00000000000E+00 0. -1.
         21   -1    0    0  501  502 -0.00000000000E+00 -0.00000000000E+00 -0.18291298046E+03  0.18291298046E+03  0.00000000000E+00 0. -1.
         25    1    1    2    0    0  0.00000000000E+00  0.00000000000E+00 -0.16155719701E+03  0.20426876390E+03  0.12500000000E+03 0.  0.
<mgrwt>
<rscale>  0 0.12500000E+03</rscale>
<asrwt>0</asrwt>
<pdfrwt beam="1">  1       21 0.32855052E-02 0.12500000E+03</pdfrwt>
<pdfrwt beam="2">  1       21 0.28140458E-01 0.12500000E+03</pdfrwt>
<totfact> 0.64467618E+06</totfact>
</mgrwt>
</event>
<event>
 3    1  0.1619206E-001  0.1250000E+03  0.7546771E-02  0.1235069E+00
         21   -1    0    0  502  501  0.00000000000E+00  0.00000000000E+00  0.86984786432E+03  0.86984786432E+03  0.00000000000E+00 0.  1.
         21   -1    0    0  501  502 -0.00000000000E+00 -0.00000000000E+00 -0.44907278160E+01  0.44907278160E+01  0.00000000000E+00 0.  1.
         25    1    1    2    0    0  0.00000000000E+00  0.00000000000E+00  0.86535713651E+03  0.87433859214E+03  0.12500000000E+03 0.  0.
<mgrwt>
<rscale>  0 0.12500000E+03</rscale>
<asrwt>0</asrwt>
<pdfrwt beam="1">  1       21 0.13382262E+00 0.12500000E+03</pdfrwt>
<pdfrwt beam="2">  1       21 0.69088189E-03 0.12500000E+03</pdfrwt>
<totfact> 0.27042362E+06</totfact>
</mgrwt>
</event>
<event>
 3    1  0.1619206E-001  0.1250000E+03  0.7546771E-02  0.1235069E+00
         21   -1    0    0  502  501  0.00000000000E+00  0.00000000000E+00  0.46585855745E+02  0.46585855745E+02  0.00000000000E+00 0. -1.
         21   -1    0    0  501  502 -0.00000000000E+00 -0.00000000000E+00 -0.83850558019E+02  0.83850558019E+02  0.00000000000E+00 0. -1.
         25    1    1    2    0    0  0.00000000000E+00  0.00000000000E+00 -0.37264702274E+02  0.13043641376E+03  0.12500000000E+03 0.  0.
<mgrwt>
<rscale>  0 0.12500000E+03</rscale>
<asrwt>0</asrwt>
<pdfrwt beam="1">  1       21 0.71670548E-02 0.12500000E+03</pdfrwt>
<pdfrwt beam="2">  1       21 0.12900086E-01 0.12500000E+03</pdfrwt>
<totfact> 0.73306645E+06</totfact>
</mgrwt>
</event>
<event>
 3    1  0.1619206E-001  0.1250000E+03  0.7546771E-02  0.1235069E+00
         21   -1    0    0  502  501  0.00000000000E+00  0.00000000000E+00  0.68092529906E+02  0.68092529906E+02  0.00000000000E+00 0.  1.
         21   -1    0    0  501  502 -0.00000000000E+00 -0.00000000000E+00 -0.57366792002E+02  0.57366792002E+02  0.00000000000E+00 0.  1.
         25    1    1    2    0    0  0.00000000000E+00  0.00000000000E+00  0.10725737905E+02  0.12545932191E+03  0.12500000000E+03 0.  0.
<mgrwt>
<rscale>  0 0.12500000E+03</rscale>
<asrwt>0</asrwt>
<pdfrwt beam="1">  1       21 0.10475774E-01 0.12500000E+03</pdfrwt>
<pdfrwt beam="2">  1       21 0.88256604E-02 0.12500000E+03</pdfrwt>
<totfact> 0.73981089E+06</totfact>
</mgrwt>
</event>
<event>
 3    1  0.1619206E-001  0.1250000E+03  0.7546771E-02  0.1235069E+00
         21   -1    0    0  502  501  0.00000000000E+00  0.00000000000E+00  0.14945172248E+03  0.14945172248E+03  0.00000000000E+00 0.  1.
         21   -1    0    0  501  502 -0.00000000000E+00 -0.00000000000E+00 -0.26137202939E+02  0.26137202939E+02  0.00000000000E+00 0.  1.
         25    1    1    2    0    0  0.00000000000E+00  0.00000000000E+00  0.12331451954E+03  0.17558892542E+03  0.12500000000E+03 0.  0.
<mgrwt>
<rscale>  0 0.12500000E+03</rscale>
<asrwt>0</asrwt>
<pdfrwt beam="1">  1       21 0.22992572E-01 0.12500000E+03</pdfrwt>
<pdfrwt beam="2">  1       21 0.40211082E-02 0.12500000E+03</pdfrwt>
<totfact> 0.67661199E+06</totfact>
</mgrwt>
</event>
<event>
 3    1  0.1619206E-001  0.1250000E+03  0.7546771E-02  0.1235069E+00
         21   -1    0    0  502  501  0.00000000000E+00  0.00000000000E+00  0.13320708046E+02  0.13320708046E+02  0.00000000000E+00 0.  1.
         21   -1    0    0  501  502 -0.00000000000E+00 -0.00000000000E+00 -0.29324642402E+03  0.29324642402E+03  0.00000000000E+00 0.  1.
         25    1    1    2    0    0  0.00000000000E+00  0.00000000000E+00 -0.27992571598E+03  0.30656713207E+03  0.12500000000E+03 0.  0.
<mgrwt>
<rscale>  0 0.12500000E+03</rscale>
<asrwt>0</asrwt>
<pdfrwt beam="1">  1       21 0.20493397E-02 0.12500000E+03</pdfrwt>
<pdfrwt beam="2">  1       21 0.45114834E-01 0.12500000E+03</pdfrwt>
<totfact> 0.54914797E+06</totfact>
</mgrwt>
</event>
<event>
 3    1  0.1619206E-001  0.1250000E+03  0.7546771E-02  0.1235069E+00
         21   -1    0    0  502  501  0.00000000000E+00  0.00000000000E+00  0.41019659230E+01  0.41019659230E+01  0.00000000000E+00 0.  1.
         21   -1    0    0  501  502 -0.00000000000E+00 -0.00000000000E+00 -0.95228728697E+03  0.95228728697E+03  0.00000000000E+00 0.  1.
         25    1    1    2    0    0  0.00000000000E+00  0.00000000000E+00 -0.94818532104E+03  0.95638925289E+03  0.12500000000E+03 0.  0.
<mgrwt>
<rscale>  0 0.12500000E+03</rscale>
<asrwt>0</asrwt>
<pdfrwt beam="1">  1       21 0.63107153E-03 0.12500000E+03</pdfrwt>
<pdfrwt beam="2">  1       21 0.14650577E+00 0.12500000E+03</pdfrwt>
<totfact> 0.24741110E+06</totfact>
</mgrwt>
</event>
<event>
 3    1  0.1619206E-001  0.1250000E+03  0.7546771E-02  0.1235069E+00
         21   -1    0    0  502  501  0.00000000000E+00  0.00000000000E+00  0.23316724801E+02  0.23316724801E+02  0.00000000000E+00 0. -1.
         21   -1    0    0  501  502 -0.00000000000E+00 -0.00000000000E+00 -0.16752996114E+03  0.16752996114E+03  0.00000000000E+00 0. -1.
         25    1    1    2    0    0  0.00000000000E+00  0.00000000000E+00 -0.14421323634E+03  0.19084668595E+03  0.12500000000E+03 0.  0.
<mgrwt>
<rscale>  0 0.12500000E+03</rscale>
<asrwt>0</asrwt>
<pdfrwt beam="1">  1       21 0.35871885E-02 0.12500000E+03</pdfrwt>
<pdfrwt beam="2">  1       21 0.25773840E-01 0.12500000E+03</pdfrwt>
<totfact> 0.65928486E+06</totfact>
</mgrwt>
</event>
<event>
 3    1  0.1619206E-001  0.1250000E+03  0.7546771E-02  0.1235069E+00
         21   -1    0    0  502  501  0.00000000000E+00  0.00000000000E+00  0.12346350274E+02  0.12346350274E+02  0.00000000000E+00 0.  1.
         21   -1    0    0  501  502 -0.00000000000E+00 -0.00000000000E+00 -0.31638904724E+03  0.31638904724E+03  0.00000000000E+00 0.  1.
         25    1    1    2    0    0  0.00000000000E+00  0.00000000000E+00 -0.30404269697E+03  0.32873539752E+03  0.12500000000E+03 0.  0.
<mgrwt>
<rscale>  0 0.12500000E+03</rscale>
<asrwt>0</asrwt>
<pdfrwt beam="1">  1       21 0.18994387E-02 0.12500000E+03</pdfrwt>
<pdfrwt beam="2">  1       21 0.48675232E-01 0.12500000E+03</pdfrwt>
<totfact> 0.53148289E+06</totfact>
</mgrwt>
</event>
<event>
 3    1  0.1619206E-001  0.1250000E+03  0.7546771E-02  0.1235069E+00
         21   -1    0    0  502  501  0.00000000000E+00  0.00000000000E+00  0.27167734163E+01  0.27167734163E+01  0.00000000000E+00 0.  1.
         21   -1    0    0  501  502 -0.00000000000E+00 -0.00000000000E+00 -0.14378269371E+04  0.14378269371E+04  0.00000000000E+00 0.  1.
         25    1    1    2    0    0  0.00000000000E+00  0.00000000000E+00 -0.14351101637E+04  0.14405437105E+04  0.12500000000E+03 0.  0.
<mgrwt>
<rscale>  0 0.12500000E+03</rscale>
<asrwt>0</asrwt>
<pdfrwt beam="1">  1       21 0.41796329E-03 0.12500000E+03</pdfrwt>
<pdfrwt beam="2">  1       21 0.22120513E+00 0.12500000E+03</pdfrwt>
<totfact> 0.14897797E+06</totfact>
</mgrwt>
</event>
<event>
 3    1  0.1619206E-001  0.1250000E+03  0.7546771E-02  0.1235069E+00
         21   -1    0    0  502  501  0.00000000000E+00  0.00000000000E+00  0.35587075642E+02  0.35587075642E+02  0.00000000000E+00 0. -1.
         21   -1    0    0  501  502 -0.00000000000E+00 -0.00000000000E+00 -0.10976597345E+03  0.10976597345E+03  0.00000000000E+00 0. -1.
         25    1    1    2    0    0  0.00000000000E+00  0.00000000000E+00 -0.74178897806E+02  0.14535304909E+03  0.12500000000E+03 0.  0.
<mgrwt>
<rscale>  0 0.12500000E+03</rscale>
<asrwt>0</asrwt>
<pdfrwt beam="1">  1       21 0.54749348E-02 0.12500000E+03</pdfrwt>
<pdfrwt beam="2">  1       21 0.16887072E-01 0.12500000E+03</pdfrwt>
<totfact> 0.71347948E+06</totfact>
</mgrwt>
</event>
<event>
 3    1  0.1619206E-001  0.1250000E+03  0.7546771E-02  0.1235069E+00
         21   -1    0    0  502  501  0.00000000000E+00  0.00000000000E+00  0.12633357045E+03  0.12633357045E+03  0.00000000000E+00 0. -1.
         21   -1    0    0  501  502 -0.00000000000E+00 -0.00000000000E+00 -0.30920126662E+02  0.30920126662E+02  0.00000000000E+00 0. -1.
         25    1    1    2    0    0  0.00000000000E+00  0.00000000000E+00  0.95413443787E+02  0.15725369711E+03  0.12500000000E+03 0.  0.
<mgrwt>
<rscale>  0 0.12500000E+03</rscale>
<asrwt>0</asrwt>
<pdfrwt beam="1">  1       21 0.19435934E-01 0.12500000E+03</pdfrwt>
<pdfrwt beam="2">  1       21 0.47569426E-02 0.12500000E+03</pdfrwt>
<totfact> 0.69856631E+06</totfact>
</mgrwt>
</event>
<event>
 3    1  0.1619206E-001  0.1250000E+03  0.7546771E-02  0.1235069E+00
         21   -1    0    0  502  501  0.00000000000E+00  0.00000000000E+00  0.55411542014E+02  0.55411542014E+02  0.00000000000E+00 0. -1.
         21   -1    0    0  501  502 -0.00000000000E+00 -0.00000000000E+00 -0.70495240847E+02  0.70495240847E+02  0.00000000000E+00 0. -1.
         25    1    1    2    0    0  0.00000000000E+00  0.00000000000E+00 -0.15083698833E+02  0.12590678286E+03  0.12500000000E+03 0.  0.
<mgrwt>
<rscale>  0 0.12500000E+03</rscale>
<asrwt>0</asrwt>
<pdfrwt beam="1">  1       21 0.85248527E-02 0.12500000E+03</pdfrwt>
<pdfrwt beam="2">  1       21 0.10845422E-01 0.12500000E+03</pdfrwt>
<totfact> 0.73918903E+06</totfact>
</mgrwt>
</event>
<event>
 3    1  0.1619206E-001  0.1250000E+03  0.7546771E-02  0.1235069E+00
         21   -1    0    0  502  501  0.00000000000E+00  0.00000000000E+00  0.33139699264E+02  0.33139699264E+02  0.00000000000E+00 0.  1.
         21   -1    0    0  501  502 -0.00000000000E+00 -0.00000000000E+00 -0.11787222234E+03  0.11787222234E+03  0.00000000000E+00 0.  1.
         25    1    1    2    0    0  0.00000000000E+00  0.00000000000E+00 -0.84732523078E+02  0.15101192161E+03  0.12500000000E+03 0.  0.
<mgrwt>
<rscale>  0 0.12500000E+03</rscale>
<asrwt>0</asrwt>
<pdfrwt beam="1">  1       21 0.50984152E-02 0.12500000E+03</pdfrwt>
<pdfrwt beam="2">  1       21 0.18134188E-01 0.12500000E+03</pdfrwt>
<totfact> 0.70632316E+06</totfact>
</mgrwt>
</event>
<event>
 3    1  0.1619206E-001  0.1250000E+03  0.7546771E-02  0.1235069E+00
         21   -1    0    0  502  501  0.00000000000E+00  0.00000000000E+00  0.13245839677E+03  0.13245839677E+03  0.00000000000E+00 0.  1.
         21   -1    0    0  501  502 -0.00000000000E+00 -0.00000000000E+00 -0.29490391664E+02  0.29490391664E+02  0.00000000000E+00 0.  1.
         25    1    1    2    0    0  0.00000000000E+00  0.00000000000E+00  0.10296800511E+03  0.16194878844E+03  0.12500000000E+03 0.  0.
<mgrwt>
<rscale>  0 0.12500000E+03</rscale>
<asrwt>0</asrwt>
<pdfrwt beam="1">  1       21 0.20378215E-01 0.12500000E+03</pdfrwt>
<pdfrwt beam="2">  1       21 0.45369834E-02 0.12500000E+03</pdfrwt>
<totfact> 0.69282156E+06</totfact>
</mgrwt>
</event>
<event>
 3    1  0.1619206E-001  0.1250000E+03  0.7546771E-02  0.1235069E+00
         21   -1    0    0  502  501  0.00000000000E+00  0.00000000000E+00  0.64415907499E+02  0.64415907499E+02  0.00000000000E+00 0.  1.
         21   -1    0    0  501  502 -0.00000000000E+00 -0.00000000000E+00 -0.60641076897E+02  0.60641076897E+02  0.00000000000E+00 0.  1.
         25    1    1    2    0    0  0.00000000000E+00  0.00000000000E+00  0.37748306019E+01  0.12505698440E+03  0.12500000000E+03 0.  0.
<mgrwt>
<rscale>  0 0.12500000E+03</rscale>
<asrwt>0</asrwt>
<pdfrwt beam="1">  1       21 0.99101396E-02 0.12500000E+03</pdfrwt>
<pdfrwt beam="2">  1       21 0.93293964E-02 0.12500000E+03</pdfrwt>
<totfact> 0.74035885E+06</totfact>
</mgrwt>
</event>
<event>
 3    1  0.1619206E-001  0.1250000E+03  0.7546771E-02  0.1235069E+00
         21   -1    0    0  502  501  0.00000000000E+00  0.00000000000E+00  0.48193391223E+02  0.48193391223E+02  0.00000000000E+00 0. -1.
         21   -1    0    0  501  502 -0.00000000000E+00 -0.00000000000E+00 -0.81053644512E+02  0.81053644512E+02  0.00000000000E+00 0. -1.
         25    1    1    2    0    0  0.00000000000E+00  0.00000000000E+00 -0.32860253289E+02  0.12924703573E+03  0.12500000000E+03 0.  0.
<mgrwt>
<rscale>  0 0.12500000E+03</rscale>
<asrwt>0</asrwt>
<pdfrwt beam="1">  1       21 0.74143679E-02 0.12500000E+03</pdfrwt>
<pdfrwt beam="2">  1       21 0.12469791E-01 0.12500000E+03</pdfrwt>
<totfact> 0.73465725E+06</totfact>
</mgrwt>
</event>
<event>
 3    1  0.1619206E-001  0.1250000E+03  0.7546771E-02  0.1235069E+00
         21   -1    0    0  502  501  0.00000000000E+00  0.00000000000E+00  0.36439266651E+03  0.36439266651E+03  0.00000000000E+00 0. -1.
         21   -1    0    0  501  502 -0.00000000000E+00 -0.00000000000E+00 -0.10719891916E+02  0.10719891916E+02  0.00000000000E+00 0. -1.
         25    1    1    2    0    0  0.00000000000E+00  0.00000000000E+00  0.35367277459E+03  0.37511255842E+03  0.12500000000E+03 0.  0.
<mgrwt>
<rscale>  0 0.12500000E+03</rscale>
<asrwt>0</asrwt>
<pdfrwt beam="1">  1       21 0.56060401E-01 0.12500000E+03</pdfrwt>
<pdfrwt beam="2">  1       21 0.16492144E-02 0.12500000E+03</pdfrwt>
<totfact> 0.49735613E+06</totfact>
</mgrwt>
</event>
<event>
 3    1  0.1619206E-001  0.1250000E+03  0.7546771E-02  0.1235069E+00
         21   -1    0    0  502  501  0.00000000000E+00  0.00000000000E+00  0.24678666484E+03  0.24678666484E+03  0.00000000000E+00 0. -1.
         21   -1    0    0  501  502 -0.00000000000E+00 -0.00000000000E+00 -0.15828448439E+02  0.15828448439E+02  0.00000000000E+00 0. -1.
         25    1    1    2    0    0  0.00000000000E+00  0.00000000000E+00  0.23095821640E+03  0.26261511328E+03  0.12500000000E+03 0.  0.
<mgrwt>
<rscale>  0 0.12500000E+03</rscale>
<asrwt>0</asrwt>
<pdfrwt beam="1">  1       21 0.37967176E-01 0.12500000E+03</pdfrwt>
<pdfrwt beam="2">  1       21 0.24351461E-02 0.12500000E+03</pdfrwt>
<totfact> 0.58710409E+06</totfact>
</mgrwt>
</event>
<event>
 3    1  0.1619206E-001  0.1250000E+03  0.7546771E-02  0.1235069E+00
         21   -1    0    0  502  501  0.00000000000E+00  0.00000000000E+00  0.38056375534E+03  0.38056375534E+03  0.00000000000E+00 0. -1.
         21   -1    0    0  501  502 -0.00000000000E+00 -0.00000000000E+00 -0.10264377375E+02  0.10264377375E+02  0.00000000000E+00 0. -1.
         25    1    1    2    0    0  0.00000000000E+00  0.00000000000E+00  0.37029937796E+03  0.39082813271E+03  0.12500000000E+03 0.  0.
<mgrwt>
<rscale>  0 0.12500000E+03</rscale>
<asrwt>0</asrwt>
<pdfrwt beam="1">  1       21 0.58548259E-01 0.12500000E+03</pdfrwt>
<pdfrwt beam="2">  1       21 0.15791353E-02 0.12500000E+03</pdfrwt>
<totfact> 0.48655725E+06</totfact>
</mgrwt>
</event>
<event>
 3    1  0.1619206E-001  0.1250000E+03  0.7546771E-02  0.1235069E+00
         21   -1    0    0  502  501  0.00000000000E+00  0.00000000000E+00  0.18330283560E+03  0.18330283560E+03  0.00000000000E+00 0. -1.
         21   -1    0    0  501  502 -0.00000000000E+00 -0.00000000000E+00 -0.21310363188E+02  0.21310363188E+02  0.00000000000E+00 0. -1.
         25    1    1    2    0    0  0.00000000000E+00  0.00000000000E+00  0.16199247241E+03  0.20461319879E+03  0.12500000000E+03 0.  0.
<mgrwt>
<rscale>  0 0.12500000E+03</rscale>
<asrwt>0</asrwt>
<pdfrwt beam="1">  1       21 0.28200435E-01 0.12500000E+03</pdfrwt>
<pdfrwt beam="2">  1       21 0.32785175E-02 0.12500000E+03</pdfrwt>
<totfact> 0.64430784E+06</totfact>
</mgrwt>
</event>
<event>
 3    1  0.1619206E-001  0.1250000E+03  0.7546771E-02  0.1235069E+00
         21   -1    0    0  502  501  0.00000000000E+00  0.00000000000E+00  0.21029508967E+03  0.21029508967E+03  0.00000000000E+00 0.  1.
         21   -1    0    0  501  502 -0.00000000000E+00 -0.00000000000E+00 -0.18575088967E+02  0.18575088967E+02  0.00000000000E+00 0.  1.
         25    1    1    2    0    0  0.00000000000E+00  0.00000000000E+00  0.19172000070E+03  0.22887017864E+03  0.12500000000E+03 0.  0.
<mgrwt>
<rscale>  0 0.12500000E+03</rscale>
<asrwt>0</asrwt>
<pdfrwt beam="1">  1       21 0.32353089E-01 0.12500000E+03</pdfrwt>
<pdfrwt beam="2">  1       21 0.28577061E-02 0.12500000E+03</pdfrwt>
<totfact> 0.61926597E+06</totfact>
</mgrwt>
</event>
<event>
 3    1  0.1619206E-001  0.1250000E+03  0.7546771E-02  0.1235069E+00
         21   -1    0    0  502  501  0.00000000000E+00  0.00000000000E+00  0.26476762561E+02  0.26476762561E+02  0.00000000000E+00 0. -1.
         21   -1    0    0  501  502 -0.00000000000E+00 -0.00000000000E+00 -0.14753503156E+03  0.14753503156E+03  0.00000000000E+00 0. -1.
         25    1    1    2    0    0  0.00000000000E+00  0.00000000000E+00 -0.12105826900E+03  0.17401179412E+03  0.12500000000E+03 0.  0.
<mgrwt>
<rscale>  0 0.12500000E+03</rscale>
<asrwt>0</asrwt>
<pdfrwt beam="1">  1       21 0.40733481E-02 0.12500000E+03</pdfrwt>
<pdfrwt beam="2">  1       21 0.22697697E-01 0.12500000E+03</pdfrwt>
<totfact> 0.67845213E+06</totfact>
</mgrwt>
</event>
<event>
 3    1  0.1619206E-001  0.1250000E+03  0.7546771E-02  0.1235069E+00
         21   -1    0    0  502  501  0.00000000000E+00  0.00000000000E+00  0.15371184868E+03  0.15371184868E+03  0.00000000000E+00 0. -1.
         21   -1    0    0  501  502 -0.00000000000E+00 -0.00000000000E+00 -0.25412809966E+02  0.25412809966E+02  0.00000000000E+00 0. -1.
         25    1    1    2    0    0  0.00000000000E+00  0.00000000000E+00  0.12829903871E+03  0.17912465864E+03  0.12500000000E+03 0.  0.
<mgrwt>
<rscale>  0 0.12500000E+03</rscale>
<asrwt>0</asrwt>
<pdfrwt beam="1">  1       21 0.23647976E-01 0.12500000E+03</pdfrwt>
<pdfrwt beam="2">  1       21 0.39096631E-02 0.12500000E+03</pdfrwt>
<totfact> 0.67252095E+06</totfact>
</mgrwt>
</event>
<event>
 3    1  0.1619206E-001  0.1250000E+03  0.7546771E-02  0.1235069E+00
         21   -1    0    0  502  501  0.00000000000E+00  0.00000000000E+00  0.83142660077E+02  0.83142660077E+02  0.00000000000E+00 0. -1.
         21   -1    0    0  501  502 -0.00000000000E+00 -0.00000000000E+00 -0.46982499674E+02  0.46982499674E+02  0.00000000000E+00 0. -1.
         25    1    1    2    0    0  0.00000000000E+00  0.00000000000E+00  0.36160160403E+02  0.13012515975E+03  0.12500000000E+03 0.  0.
<mgrwt>
<rscale>  0 0.12500000E+03</rscale>
<asrwt>0</asrwt>
<pdfrwt beam="1">  1       21 0.12791178E-01 0.12500000E+03</pdfrwt>
<pdfrwt beam="2">  1       21 0.72280769E-02 0.12500000E+03</pdfrwt>
<totfact> 0.73348192E+06</totfact>
</mgrwt>
</event>
<event>
 3    1  0.1619206E-001  0.1250000E+03  0.7546771E-02  0.1235069E+00
         21   -1    0    0  502  501  0.00000000000E+00  0.00000000000E+00  0.17825324138E+04  0.17825324138E+04  0.00000000000E+00 0. -1.
         21   -1    0    0  501  502 -0.00000000000E+00 -0.00000000000E+00 -0.21914047507E+01  0.21914047507E+01  0.00000000000E+00 0. -1.
         25    1    1    2    0    0  0.00000000000E+00  0.00000000000E+00  0.17803410091E+04  0.17847238186E+04  0.12500000000E+03 0.  0.
<mgrwt>
<rscale>  0 0.12500000E+03</rscale>
<asrwt>0</asrwt>
<pdfrwt beam="1">  1       21 0.27423460E+00 0.12500000E+03</pdfrwt>
<pdfrwt beam="2">  1       21 0.33714062E-03 0.12500000E+03</pdfrwt>
<totfact> 0.10246914E+06</totfact>
</mgrwt>
</event>
<event>
 3    1  0.1619206E-001  0.1250000E+03  0.7546771E-02  0.1235069E+00
         21   -1    0    0  502  501  0.00000000000E+00  0.00000000000E+00  0.88432146356E+02  0.88432146356E+02  0.00000000000E+00 0. -1.
         21   -1    0    0  501  502 -0.00000000000E+00 -0.00000000000E+00 -0.44172285317E+02  0.44172285317E+02  0.00000000000E+00 0. -1.
         25    1    1    2    0    0  0.00000000000E+00  0.00000000000E+00  0.44259861039E+02  0.13260443167E+03  0.12500000000E+03 0.  0.
<mgrwt>
<rscale>  0 0.12500000E+03</rscale>
<asrwt>0</asrwt>
<pdfrwt beam="1">  1       21 0.13604946E-01 0.12500000E+03</pdfrwt>
<pdfrwt beam="2">  1       21 0.67957362E-02 0.12500000E+03</pdfrwt>
<totfact> 0.73015266E+06</totfact>
</mgrwt>
</event>
<event>
 3    1  0.1619206E-001  0.1250000E+03  0.7546771E-02  0.1235069E+00
         21   -1    0    0  502  501  0.00000000000E+00  0.00000000000E+00  0.11972022438E+04  0.11972022438E+04  0.00000000000E+00 0. -1.
         21   -1    0    0  501  502 -0.00000000000E+00 -0.00000000000E+00 -0.32628154685E+01  0.32628154685E+01  0.00000000000E+00 0. -1.
         25    1    1    2    0    0  0.00000000000E+00  0.00000000000E+00  0.11939394283E+04  0.12004650593E+04  0.12500000000E+03 0.  0.
<mgrwt>
<rscale>  0 0.12500000E+03</rscale>
<asrwt>0</asrwt>
<pdfrwt beam="1">  1       21 0.18418461E+00 0.12500000E+03</pdfrwt>
<pdfrwt beam="2">  1       21 0.50197256E-03 0.12500000E+03</pdfrwt>
<totfact> 0.19134143E+06</totfact>
</mgrwt>
</event>
<event>
 3    1  0.1619206E-001  0.1250000E+03  0.7546771E-02  0.1235069E+00
         21   -1    0    0  502  501  0.00000000000E+00  0.00000000000E+00  0.75962033606E+02  0.75962033606E+02  0.00000000000E+00 0.  1.
         21   -1    0    0  501  502 -0.00000000000E+00 -0.00000000000E+00 -0.51423715435E+02  0.51423715435E+02  0.00000000000E+00 0.  1.
         25    1    1    2    0    0  0.00000000000E+00  0.00000000000E+00  0.24538318171E+02  0.12738574904E+03  0.12500000000E+03 0.  0.
<mgrwt>
<rscale>  0 0.12500000E+03</rscale>
<asrwt>0</asrwt>
<pdfrwt beam="1">  1       21 0.11686467E-01 0.12500000E+03</pdfrwt>
<pdfrwt beam="2">  1       21 0.79113408E-02 0.12500000E+03</pdfrwt>
<totfact> 0.73716713E+06</totfact>
</mgrwt>
</event>
<event>
 3    1  0.1619206E-001  0.1250000E+03  0.7546771E-02  0.1235069E+00
         21   -1    0    0  502  501  0.00000000000E+00  0.00000000000E+00  0.87603600561E+01  0.87603600561E+01  0.00000000000E+00 0. -1.
         21   -1    0    0  501  502 -0.00000000000E+00 -0.00000000000E+00 -0.44590062223E+03  0.44590062223E+03  0.00000000000E+00 0. -1.
         25    1    1    2    0    0  0.00000000000E+00  0.00000000000E+00 -0.43714026218E+03  0.45466098229E+03  0.12500000000E+03 0.  0.
<mgrwt>
<rscale>  0 0.12500000E+03</rscale>
<asrwt>0</asrwt>
<pdfrwt beam="1">  1       21 0.13477473E-02 0.12500000E+03</pdfrwt>
<pdfrwt beam="2">  1       21 0.68600114E-01 0.12500000E+03</pdfrwt>
<totfact> 0.44614667E+06</totfact>
</mgrwt>
</event>
<event>
 3    1  0.1619206E-001  0.1250000E+03  0.7546771E-02  0.1235069E+00
         21   -1    0    0  502  501  0.00000000000E+00  0.00000000000E+00  0.14037350338E+03  0.14037350338E+03  0.00000000000E+00 0. -1.
         21   -1    0    0  501  502 -0.00000000000E+00 -0.00000000000E+00 -0.27827545128E+02  0.27827545128E+02  0.00000000000E+00 0. -1.
         25    1    1    2    0    0  0.00000000000E+00  0.00000000000E+00  0.11254595825E+03  0.16820104851E+03  0.12500000000E+03 0.  0.
<mgrwt>
<rscale>  0 0.12500000E+03</rscale>
<asrwt>0</asrwt>
<pdfrwt beam="1">  1       21 0.21595923E-01 0.12500000E+03</pdfrwt>
<pdfrwt beam="2">  1       21 0.42811609E-02 0.12500000E+03</pdfrwt>
<totfact> 0.68531042E+06</totfact>
</mgrwt>
</event>
<event>
 3    1  0.1619206E-001  0.1250000E+03  0.7546771E-02  0.1235069E+00
         21   -1    0    0  502  501  0.00000000000E+00  0.00000000000E+00  0.53760358682E+01  0.53760358682E+01  0.00000000000E+00 0. -1.
         21   -1    0    0  501  502 -0.00000000000E+00 -0.00000000000E+00 -0.72660415514E+03  0.72660415514E+03  0.00000000000E+00 0. -1.
         25    1    1    2    0    0  0.00000000000E+00  0.00000000000E+00 -0.72122811928E+03  0.73198019101E+03  0.12500000000E+03 0.  0.
<mgrwt>
<rscale>  0 0.12500000E+03</rscale>
<asrwt>0</asrwt>
<pdfrwt beam="1">  1       21 0.82708263E-03 0.12500000E+03</pdfrwt>
<pdfrwt beam="2">  1       21 0.11178523E+00 0.12500000E+03</pdfrwt>
<totfact> 0.31713036E+06</totfact>
</mgrwt>
</event>
<event>
 3    1  0.1619206E-001  0.1250000E+03  0.7546771E-02  0.1235069E+00
         21   -1    0    0  502  501  0.00000000000E+00  0.00000000000E+00  0.10737011652E+03  0.10737011652E+03  0.00000000000E+00 0. -1.
         21   -1    0    0  501  502 -0.00000000000E+00 -0.00000000000E+00 -0.36381165698E+02  0.36381165698E+02  0.00000000000E+00 0. -1.
         25    1    1    2    0    0  0.00000000000E+00  0.00000000000E+00  0.70988950820E+02  0.14375128222E+03  0.12500000000E+03 0.  0.
<mgrwt>
<rscale>  0 0.12500000E+03</rscale>
<asrwt>0</asrwt>
<pdfrwt beam="1">  1       21 0.16518479E-01 0.12500000E+03</pdfrwt>
<pdfrwt beam="2">  1       21 0.55971025E-02 0.12500000E+03</pdfrwt>
<totfact> 0.71553289E+06</totfact>
</mgrwt>
</event>
<event>
 3    1  0.1619206E-001  0.1250000E+03  0.7546771E-02  0.1235069E+00
         21   -1    0    0  502  501  0.00000000000E+00  0.00000000000E+00  0.42390751503E+02  0.42390751503E+02  0.00000000000E+00 0. -1.
         21   -1    0    0  501  502 -0.00000000000E+00 -0.00000000000E+00 -0.92148637651E+02  0.92148637651E+02  0.00000000000E+00 0. -1.
         25    1    1    2    0    0  0.00000000000E+00  0.00000000000E+00 -0.49757886148E+02  0.13453938915E+03  0.12500000000E+03 0.  0.
<mgrwt>
<rscale>  0 0.12500000E+03</rscale>
<asrwt>0</asrwt>
<pdfrwt beam="1">  1       21 0.65216541E-02 0.12500000E+03</pdfrwt>
<pdfrwt beam="2">  1       21 0.14176713E-01 0.12500000E+03</pdfrwt>
<totfact> 0.72757518E+06</totfact>
</mgrwt>
</event>
<event>
 3    1  0.1619206E-001  0.1250000E+03  0.7546771E-02  0.1235069E+00
         21   -1    0    0  502  501  0.00000000000E+00  0.00000000000E+00  0.61185721255E+01  0.61185721255E+01  0.00000000000E+00 0. -1.
         21   -1    0    0  501  502 -0.00000000000E+00 -0.00000000000E+00 -0.63842509656E+03  0.63842509656E+03  0.00000000000E+00 0. -1.
         25    1    1    2    0    0  0.00000000000E+00  0.00000000000E+00 -0.63230652443E+03  0.64454366868E+03  0.12500000000E+03 0.  0.
<mgrwt>
<rscale>  0 0.12500000E+03</rscale>
<asrwt>0</asrwt>
<pdfrwt beam="1">  1       21 0.94131911E-03 0.12500000E+03</pdfrwt>
<pdfrwt beam="2">  1       21 0.98219213E-01 0.12500000E+03</pdfrwt>
<totfact> 0.35152489E+06</totfact>
</mgrwt>
</event>
<event>
 3    1  0.1619206E-001  0.1250000E+03  0.7546771E-02  0.1235069E+00
         21   -1    0    0  502  501  0.00000000000E+00  0.00000000000E+00  0.72881438146E+03  0.72881438146E+03  0.00000000000E+00 0. -1.
         21   -1    0    0  501  502 -0.00000000000E+00 -0.00000000000E+00 -0.53597323260E+01  0.53597323260E+01  0.00000000000E+00 0. -1.
         25    1    1    2    0    0  0.00000000000E+00  0.00000000000E+00  0.72345464913E+03  0.73417411379E+03  0.12500000000E+03 0.  0.
<mgrwt>
<rscale>  0 0.12500000E+03</rscale>
<asrwt>0</asrwt>
<pdfrwt beam="1">  1       21 0.11212521E+00 0.12500000E+03</pdfrwt>
<pdfrwt beam="2">  1       21 0.82457478E-03 0.12500000E+03</pdfrwt>
<totfact> 0.31633487E+06</totfact>
</mgrwt>
</event>
<event>
 3    1  0.1619206E-001  0.1250000E+03  0.7546771E-02  0.1235069E+00
         21   -1    0    0  502  501  0.00000000000E+00  0.00000000000E+00  0.29990261388E+01  0.29990261388E+01  0.00000000000E+00 0. -1.
         21   -1    0    0  501  502 -0.00000000000E+00 -0.00000000000E+00 -0.13025061534E+04  0.13025061534E+04  0.00000000000E+00 0. -1.
         25    1    1    2    0    0  0.00000000000E+00  0.00000000000E+00 -0.12995071272E+04  0.13055051795E+04  0.12500000000E+03 0.  0.
<mgrwt>
<rscale>  0 0.12500000E+03</rscale>
<asrwt>0</asrwt>
<pdfrwt beam="1">  1       21 0.46138732E-03 0.12500000E+03</pdfrwt>
<pdfrwt beam="2">  1       21 0.20038614E+00 0.12500000E+03</pdfrwt>
<totfact> 0.17153712E+06</totfact>
</mgrwt>
</event>
<event>
 3    1  0.1619206E-001  0.1250000E+03  0.7546771E-02  0.1235069E+00
         21   -1    0    0  502  501  0.00000000000E+00  0.00000000000E+00  0.19644373504E+02  0.19644373504E+02  0.00000000000E+00 0. -1.
         21   -1    0    0  501  502 -0.00000000000E+00 -0.00000000000E+00 -0.19884828595E+03  0.19884828595E+03  0.00000000000E+00 0. -1.
         25    1    1    2    0    0  0.00000000000E+00  0.00000000000E+00 -0.17920391245E+03  0.21849265946E+03  0.12500000000E+03 0.  0.
<mgrwt>
<rscale>  0 0.12500000E+03</rscale>
<asrwt>0</asrwt>
<pdfrwt beam="1">  1       21 0.30222114E-02 0.12500000E+03</pdfrwt>
<pdfrwt beam="2">  1       21 0.30592043E-01 0.12500000E+03</pdfrwt>
<totfact> 0.62976939E+06</totfact>
</mgrwt>
</event>
<event>
 3    1  0.1619206E-001  0.1250000E+03  0.7546771E-02  0.1235069E+00
         21   -1    0    0  502  501  0.00000000000E+00  0.00000000000E+00  0.30793971526E+01  0.30793971526E+01  0.00000000000E+00 0.  1.
         21   -1    0    0  501  502 -0.00000000000E+00 -0.00000000000E+00 -0.12685112723E+04  0.12685112723E+04  0.00000000000E+00 0.  1.
         25    1    1    2    0    0  0.00000000000E+00  0.00000000000E+00 -0.12654318752E+04  0.12715906695E+04  0.12500000000E+03 0.  0.
<mgrwt>
<rscale>  0 0.12500000E+03</rscale>
<asrwt>0</asrwt>
<pdfrwt beam="1">  1       21 0.47375348E-03 0.12500000E+03</pdfrwt>
<pdfrwt beam="2">  1       21 0.19515555E+00 0.12500000E+03</pdfrwt>
<totfact> 0.17770282E+06</totfact>
</mgrwt>
</event>
<event>
 3    1  0.1619206E-001  0.1250000E+03  0.7546771E-02  0.1235069E+00
         21   -1    0    0  502  501  0.00000000000E+00  0.00000000000E+00  0.94799696574E+01  0.94799696574E+01  0.00000000000E+00 0.  1.
         21   -1    0    0  501  502 -0.00000000000E+00 -0.00000000000E+00 -0.41205300662E+03  0.41205300662E+03  0.00000000000E+00 0.  1.
         25    1    1    2    0    0  0.00000000000E+00  0.00000000000E+00 -0.40257303696E+03  0.42153297628E+03  0.12500000000E+03 0.  0.
<mgrwt>
<rscale>  0 0.12500000E+03</rscale>
<asrwt>0</asrwt>
<pdfrwt beam="1">  1       21 0.14584568E-02 0.12500000E+03</pdfrwt>
<pdfrwt beam="2">  1       21 0.63392775E-01 0.12500000E+03</pdfrwt>
<totfact> 0.46645133E+06</totfact>
</mgrwt>
</event>
<event>
 3    1  0.1619206E-001  0.1250000E+03  0.7546771E-02  0.1235069E+00
         21   -1    0    0  502  501  0.00000000000E+00  0.00000000000E+00  0.47873037585E+02  0.47873037585E+02  0.00000000000E+00 0. -1.
         21   -1    0    0  501  502 -0.00000000000E+00 -0.00000000000E+00 -0.81596033948E+02  0.81596033948E+02  0.00000000000E+00 0. -1.
         25    1    1    2    0    0  0.00000000000E+00  0.00000000000E+00 -0.33722996362E+02  0.12946907153E+03  0.12500000000E+03 0.  0.
<mgrwt>
<rscale>  0 0.12500000E+03</rscale>
<asrwt>0</asrwt>
<pdfrwt beam="1">  1       21 0.73650827E-02 0.12500000E+03</pdfrwt>
<pdfrwt beam="2">  1       21 0.12553236E-01 0.12500000E+03</pdfrwt>
<totfact> 0.73435960E+06</totfact>
</mgrwt>
</event>
<event>
 3    1  0.1619206E-001  0.1250000E+03  0.7546771E-02  0.1235069E+00
         21   -1    0    0  502  501  0.00000000000E+00  0.00000000000E+00  0.23836108583E+03  0.23836108583E+03  0.00000000000E+00 0. -1.
         21   -1    0    0  501  502 -0.00000000000E+00 -0.00000000000E+00 -0.16387951860E+02  0.16387951860E+02  0.00000000000E+00 0. -1.
         25    1    1    2    0    0  0.00000000000E+00  0.00000000000E+00  0.22197313397E+03  0.25474903769E+03  0.12500000000E+03 0.  0.
<mgrwt>
<rscale>  0 0.12500000E+03</rscale>
<asrwt>0</asrwt>
<pdfrwt beam="1">  1       21 0.36670934E-01 0.12500000E+03</pdfrwt>
<pdfrwt beam="2">  1       21 0.25212235E-02 0.12500000E+03</pdfrwt>
<totfact> 0.59433935E+06</totfact>
</mgrwt>
</event>
<event>
 3    1  0.1619206E-001  0.1250000E+03  0.7546771E-02  0.1235069E+00
         21   -1    0    0  502  501  0.00000000000E+00  0.00000000000E+00  0.15940260241E+03  0.15940260241E+03  0.00000000000E+00 0. -1.
         21   -1    0    0  501  502 -0.00000000000E+00 -0.00000000000E+00 -0.24505559764E+02  0.24505559764E+02  0.00000000000E+00 0. -1.
         25    1    1    2    0    0  0.00000000000E+00  0.00000000000E+00  0.13489704265E+03  0.18390816218E+03  0.12500000000E+03 0.  0.
<mgrwt>
<rscale>  0 0.12500000E+03</rscale>
<asrwt>0</asrwt>
<pdfrwt beam="1">  1       21 0.24523477E-01 0.12500000E+03</pdfrwt>
<pdfrwt beam="2">  1       21 0.37700862E-02 0.12500000E+03</pdfrwt>
<totfact> 0.66706009E+06</totfact>
</mgrwt>
</event>
<event>
 3    1  0.1619206E-001  0.1250000E+03  0.7546771E-02  0.1235069E+00
         21   -1    0    0  502  501  0.00000000000E+00  0.00000000000E+00  0.89461218537E+02  0.89461218537E+02  0.00000000000E+00 0. -1.
         21   -1    0    0  501  502 -0.00000000000E+00 -0.00000000000E+00 -0.43664171625E+02  0.43664171625E+02  0.00000000000E+00 0. -1.
         25    1    1    2    0    0  0.00000000000E+00  0.00000000000E+00  0.45797046911E+02  0.13312539016E+03  0.12500000000E+03 0.  0.
<mgrwt>
<rscale>  0 0.12500000E+03</rscale>
<asrwt>0</asrwt>
<pdfrwt beam="1">  1       21 0.13763264E-01 0.12500000E+03</pdfrwt>
<pdfrwt beam="2">  1       21 0.67175649E-02 0.12500000E+03</pdfrwt>
<totfact> 0.72945659E+06</totfact>
</mgrwt>
</event>
<event>
 3    1  0.1619206E-001  0.1250000E+03  0.7546771E-02  0.1235069E+00
         21   -1    0    0  502  501  0.00000000000E+00  0.00000000000E+00  0.62792425476E+03  0.62792425476E+03  0.00000000000E+00 0.  1.
         21   -1    0    0  501  502 -0.00000000000E+00 -0.00000000000E+00 -0.62208936354E+01  0.62208936354E+01  0.00000000000E+00 0.  1.
         25    1    1    2    0    0  0.00000000000E+00  0.00000000000E+00  0.62170336113E+03  0.63414514840E+03  0.12500000000E+03 0.  0.
<mgrwt>
<rscale>  0 0.12500000E+03</rscale>
<asrwt>0</asrwt>
<pdfrwt beam="1">  1       21 0.96603681E-01 0.12500000E+03</pdfrwt>
<pdfrwt beam="2">  1       21 0.95706106E-03 0.12500000E+03</pdfrwt>
<totfact> 0.35592625E+06</totfact>
</mgrwt>
</event>
<event>
 3    1  0.1619206E-001  0.1250000E+03  0.7546771E-02  0.1235069E+00
         21   -1    0    0  502  501  0.00000000000E+00  0.00000000000E+00  0.48548249972E+01  0.48548249972E+01  0.00000000000E+00 0.  1.
         21   -1    0    0  501  502 -0.00000000000E+00 -0.00000000000E+00 -0.80461190717E+03  0.80461190717E+03  0.00000000000E+00 0.  1.
         25    1    1    2    0    0  0.00000000000E+00  0.00000000000E+00 -0.79975708217E+03  0.80946673217E+03  0.12500000000E+03 0.  0.
<mgrwt>
<rscale>  0 0.12500000E+03</rscale>
<asrwt>0</asrwt>
<pdfrwt beam="1">  1       21 0.74689551E-03 0.12500000E+03</pdfrwt>
<pdfrwt beam="2">  1       21 0.12378655E+00 0.12500000E+03</pdfrwt>
<totfact> 0.29051526E+06</totfact>
</mgrwt>
</event>
<event>
 3    1  0.1619206E-001  0.1250000E+03  0.7546771E-02  0.1235069E+00
         21   -1    0    0  502  501  0.00000000000E+00  0.00000000000E+00  0.71376591953E+01  0.71376591953E+01  0.00000000000E+00 0.  1.
         21   -1    0    0  501  502 -0.00000000000E+00 -0.00000000000E+00 -0.54727325768E+03  0.54727325768E+03  0.00000000000E+00 0.  1.
         25    1    1    2    0    0  0.00000000000E+00  0.00000000000E+00 -0.54013559848E+03  0.55441091687E+03  0.12500000000E+03 0.  0.
<mgrwt>
<rscale>  0 0.12500000E+03</rscale>
<asrwt>0</asrwt>
<pdfrwt beam="1">  1       21 0.10981013E-02 0.12500000E+03</pdfrwt>
<pdfrwt beam="2">  1       21 0.84195895E-01 0.12500000E+03</pdfrwt>
<totfact> 0.39238993E+06</totfact>
</mgrwt>
</event>
<event>
 3    1  0.1619206E-001  0.1250000E+03  0.7546771E-02  0.1235069E+00
         21   -1    0    0  502  501  0.00000000000E+00  0.00000000000E+00  0.26848373007E+02  0.26848373007E+02  0.00000000000E+00 0.  1.
         21   -1    0    0  501  502 -0.00000000000E+00 -0.00000000000E+00 -0.14549298756E+03  0.14549298756E+03  0.00000000000E+00 0.  1.
         25    1    1    2    0    0  0.00000000000E+00  0.00000000000E+00 -0.11864461455E+03  0.17234136057E+03  0.12500000000E+03 0.  0.
<mgrwt>
<rscale>  0 0.12500000E+03</rscale>
<asrwt>0</asrwt>
<pdfrwt beam="1">  1       21 0.41305190E-02 0.12500000E+03</pdfrwt>
<pdfrwt beam="2">  1       21 0.22383536E-01 0.12500000E+03</pdfrwt>
<totfact> 0.68041159E+06</totfact>
</mgrwt>
</event>
<event>
 3    1  0.1619206E-001  0.1250000E+03  0.7546771E-02  0.1235069E+00
         21   -1    0    0  502  501  0.00000000000E+00  0.00000000000E+00  0.70593371214E+02  0.70593371214E+02  0.00000000000E+00 0.  1.
         21   -1    0    0  501  502 -0.00000000000E+00 -0.00000000000E+00 -0.55334515590E+02  0.55334515590E+02  0.00000000000E+00 0.  1.
         25    1    1    2    0    0  0.00000000000E+00  0.00000000000E+00  0.15258855623E+02  0.12592788680E+03  0.12500000000E+03 0.  0.
<mgrwt>
<rscale>  0 0.12500000E+03</rscale>
<asrwt>0</asrwt>
<pdfrwt beam="1">  1       21 0.10860519E-01 0.12500000E+03</pdfrwt>
<pdfrwt beam="2">  1       21 0.85130024E-02 0.12500000E+03</pdfrwt>
<totfact> 0.73915989E+06</totfact>
</mgrwt>
</event>
<event>
 3    1  0.1619206E-001  0.1250000E+03  0.7546771E-02  0.1235069E+00
         21   -1    0    0  502  501  0.00000000000E+00  0.00000000000E+00  0.28627970572E+01  0.28627970572E+01  0.00000000000E+00 0.  1.
         21   -1    0    0  501  502 -0.00000000000E+00 -0.00000000000E+00 -0.13644872207E+04  0.13644872207E+04  0.00000000000E+00 0.  1.
         25    1    1    2    0    0  0.00000000000E+00  0.00000000000E+00 -0.13616244237E+04  0.13673500178E+04  0.12500000000E+03 0.  0.
<mgrwt>
<rscale>  0 0.12500000E+03</rscale>
<asrwt>0</asrwt>
<pdfrwt beam="1">  1       21 0.44042980E-03 0.12500000E+03</pdfrwt>
<pdfrwt beam="2">  1       21 0.20992136E+00 0.12500000E+03</pdfrwt>
<totfact> 0.16084705E+06</totfact>
</mgrwt>
</event>
<event>
 3    1  0.1619206E-001  0.1250000E+03  0.7546771E-02  0.1235069E+00
         21   -1    0    0  502  501  0.00000000000E+00  0.00000000000E+00  0.29873168180E+01  0.29873168180E+01  0.00000000000E+00 0. -1.
         21   -1    0    0  501  502 -0.00000000000E+00 -0.00000000000E+00 -0.13076115585E+04  0.13076115585E+04  0.00000000000E+00 0. -1.
         25    1    1    2    0    0  0.00000000000E+00  0.00000000000E+00 -0.13046242417E+04  0.13105988753E+04  0.12500000000E+03 0.  0.
<mgrwt>
<rscale>  0 0.12500000E+03</rscale>
<asrwt>0</asrwt>
<pdfrwt beam="1">  1       21 0.45958750E-03 0.12500000E+03</pdfrwt>
<pdfrwt beam="2">  1       21 0.20117088E+00 0.12500000E+03</pdfrwt>
<totfact> 0.17063114E+06</totfact>
</mgrwt>
</event>
<event>
 3    1  0.1619206E-001  0.1250000E+03  0.7546771E-02  0.1235069E+00
         21   -1    0    0  502  501  0.00000000000E+00  0.00000000000E+00  0.60285480812E+02  0.60285480812E+02  0.00000000000E+00 0.  1.
         21   -1    0    0  501  502 -0.00000000000E+00 -0.00000000000E+00 -0.64795867054E+02  0.64795867054E+02  0.00000000000E+00 0.  1.
         25    1    1    2    0    0  0.00000000000E+00  0.00000000000E+00 -0.45103862424E+01  0.12508134787E+03  0.12500000000E+03 0.  0.
<mgrwt>
<rscale>  0 0.12500000E+03</rscale>
<asrwt>0</asrwt>
<pdfrwt beam="1">  1       21 0.92746894E-02 0.12500000E+03</pdfrwt>
<pdfrwt beam="2">  1       21 0.99685949E-02 0.12500000E+03</pdfrwt>
<totfact> 0.74032594E+06</totfact>
</mgrwt>
</event>
<event>
 3    1  0.1619206E-001  0.1250000E+03  0.7546771E-02  0.1235069E+00
         21   -1    0    0  502  501  0.00000000000E+00  0.00000000000E+00  0.66989502677E+02  0.66989502677E+02  0.00000000000E+00 0. -1.
         21   -1    0    0  501  502 -0.00000000000E+00 -0.00000000000E+00 -0.58311374826E+02  0.58311374826E+02  0.00000000000E+00 0. -1.
         25    1    1    2    0    0  0.00000000000E+00  0.00000000000E+00  0.86781278504E+01  0.12530087750E+03  0.12500000000E+03 0.  0.
<mgrwt>
<rscale>  0 0.12500000E+03</rscale>
<asrwt>0</asrwt>
<pdfrwt beam="1">  1       21 0.10306077E-01 0.12500000E+03</pdfrwt>
<pdfrwt beam="2">  1       21 0.89709807E-02 0.12500000E+03</pdfrwt>
<totfact> 0.74002953E+06</totfact>
</mgrwt>
</event>
<event>
 3    1  0.1619206E-001  0.1250000E+03  0.7546771E-02  0.1235069E+00
         21   -1    0    0  502  501  0.00000000000E+00  0.00000000000E+00  0.47243931834E+01  0.47243931834E+01  0.00000000000E+00 0. -1.
         21   -1    0    0  501  502 -0.00000000000E+00 -0.00000000000E+00 -0.82682576330E+03  0.82682576330E+03  0.00000000000E+00 0. -1.
         25    1    1    2    0    0  0.00000000000E+00  0.00000000000E+00 -0.82210137012E+03  0.83155015649E+03  0.12500000000E+03 0.  0.
<mgrwt>
<rscale>  0 0.12500000E+03</rscale>
<asrwt>0</asrwt>
<pdfrwt beam="1">  1       21 0.72682936E-03 0.12500000E+03</pdfrwt>
<pdfrwt beam="2">  1       21 0.12720403E+00 0.12500000E+03</pdfrwt>
<totfact> 0.28343811E+06</totfact>
</mgrwt>
</event>
<event>
 3    1  0.1619206E-001  0.1250000E+03  0.7546771E-02  0.1235069E+00
         21   -1    0    0  502  501  0.00000000000E+00  0.00000000000E+00  0.17560710029E+03  0.17560710029E+03  0.00000000000E+00 0.  1.
         21   -1    0    0  501  502 -0.00000000000E+00 -0.00000000000E+00 -0.22244260018E+02  0.22244260018E+02  0.00000000000E+00 0.  1.
         25    1    1    2    0    0  0.00000000000E+00  0.00000000000E+00  0.15336284027E+03  0.19785136031E+03  0.12500000000E+03 0.  0.
<mgrwt>
<rscale>  0 0.12500000E+03</rscale>
<asrwt>0</asrwt>
<pdfrwt beam="1">  1       21 0.27016476E-01 0.12500000E+03</pdfrwt>
<pdfrwt beam="2">  1       21 0.34221940E-02 0.12500000E+03</pdfrwt>
<totfact> 0.65160294E+06</totfact>
</mgrwt>
</event>
<event>
 3    1  0.1619206E-001  0.1250000E+03  0.7546771E-02  0.1235069E+00
         21   -1    0    0  502  501  0.00000000000E+00  0.00000000000E+00  0.41084008850E+02  0.41084008850E+02  0.00000000000E+00 0. -1.
         21   -1    0    0  501  502 -0.00000000000E+00 -0.00000000000E+00 -0.95079572548E+02  0.95079572548E+02  0.00000000000E+00 0. -1.
         25    1    1    2    0    0  0.00000000000E+00  0.00000000000E+00 -0.53995563698E+02  0.13616358140E+03  0.12500000000E+03 0.  0.
<mgrwt>
<rscale>  0 0.12500000E+03</rscale>
<asrwt>0</asrwt>
<pdfrwt beam="1">  1       21 0.63206168E-02 0.12500000E+03</pdfrwt>
<pdfrwt beam="2">  1       21 0.14627626E-01 0.12500000E+03</pdfrwt>
<totfact> 0.72542771E+06</totfact>
</mgrwt>
</event>
<event>
 3    1  0.1619206E-001  0.1250000E+03  0.7546771E-02  0.1235069E+00
         21   -1    0    0  502  501  0.00000000000E+00  0.00000000000E+00  0.90730861883E+02  0.90730861883E+02  0.00000000000E+00 0. -1.
         21   -1    0    0  501  502 -0.00000000000E+00 -0.00000000000E+00 -0.43053156544E+02  0.43053156544E+02  0.00000000000E+00 0. -1.
         25    1    1    2    0    0  0.00000000000E+00  0.00000000000E+00  0.47677705339E+02  0.13378401843E+03  0.12500000000E+03 0.  0.
<mgrwt>
<rscale>  0 0.12500000E+03</rscale>
<asrwt>0</asrwt>
<pdfrwt beam="1">  1       21 0.13958594E-01 0.12500000E+03</pdfrwt>
<pdfrwt beam="2">  1       21 0.66235626E-02 0.12500000E+03</pdfrwt>
<totfact> 0.72857883E+06</totfact>
</mgrwt>
</event>
<event>
 3    1  0.1619206E-001  0.1250000E+03  0.7546771E-02  0.1235069E+00
         21   -1    0    0  502  501  0.00000000000E+00  0.00000000000E+00  0.35081570978E+02  0.35081570978E+02  0.00000000000E+00 0.  1.
         21   -1    0    0  501  502 -0.00000000000E+00 -0.00000000000E+00 -0.11134763613E+03  0.11134763613E+03  0.00000000000E+00 0.  1.
         25    1    1    2    0    0  0.00000000000E+00  0.00000000000E+00 -0.76266065147E+02  0.14642920710E+03  0.12500000000E+03 0.  0.
<mgrwt>
<rscale>  0 0.12500000E+03</rscale>
<asrwt>0</asrwt>
<pdfrwt beam="1">  1       21 0.53971648E-02 0.12500000E+03</pdfrwt>
<pdfrwt beam="2">  1       21 0.17130405E-01 0.12500000E+03</pdfrwt>
<totfact> 0.71210695E+06</totfact>
</mgrwt>
</event>
<event>
 3    1  0.1619206E-001  0.1250000E+03  0.7546771E-02  0.1235069E+00
         21   -1    0    0  502  501  0.00000000000E+00  0.00000000000E+00  0.63828932488E+02  0.63828932488E+02  0.00000000000E+00 0.  1.
         21   -1    0    0  501  502 -0.00000000000E+00 -0.00000000000E+00 -0.61198736180E+02  0.61198736180E+02  0.00000000000E+00 0.  1.
         25    1    1    2    0    0  0.00000000000E+00  0.00000000000E+00  0.26301963074E+01  0.12502766867E+03  0.12500000000E+03 0.  0.
<mgrwt>
<rscale>  0 0.12500000E+03</rscale>
<asrwt>0</asrwt>
<pdfrwt beam="1">  1       21 0.98198358E-02 0.12500000E+03</pdfrwt>
<pdfrwt beam="2">  1       21 0.94151902E-02 0.12500000E+03</pdfrwt>
<totfact> 0.74039844E+06</totfact>
</mgrwt>
</event>
<event>
 3    1  0.1619206E-001  0.1250000E+03  0.7546771E-02  0.1235069E+00
         21   -1    0    0  502  501  0.00000000000E+00  0.00000000000E+00  0.14834755700E+02  0.14834755700E+02  0.00000000000E+00 0. -1.
         21   -1    0    0  501  502 -0.00000000000E+00 -0.00000000000E+00 -0.26331744716E+03  0.26331744716E+03  0.00000000000E+00 0. -1.
         25    1    1    2    0    0  0.00000000000E+00  0.00000000000E+00 -0.24848269146E+03  0.27815220286E+03  0.12500000000E+03 0.  0.
<mgrwt>
<rscale>  0 0.12500000E+03</rscale>
<asrwt>0</asrwt>
<pdfrwt beam="1">  1       21 0.22822703E-02 0.12500000E+03</pdfrwt>
<pdfrwt beam="2">  1       21 0.40510373E-01 0.12500000E+03</pdfrwt>
<totfact> 0.57322132E+06</totfact>
</mgrwt>
</event>
<event>
 3    1  0.1619206E-001  0.1250000E+03  0.7546771E-02  0.1235069E+00
         21   -1    0    0  502  501  0.00000000000E+00  0.00000000000E+00  0.21390376313E+02  0.21390376313E+02  0.00000000000E+00 0. -1.
         21   -1    0    0  501  502 -0.00000000000E+00 -0.00000000000E+00 -0.18261717058E+03  0.18261717058E+03  0.00000000000E+00 0. -1.
         25    1    1    2    0    0  0.00000000000E+00  0.00000000000E+00 -0.16122679427E+03  0.20400754690E+03  0.12500000000E+03 0.  0.
<mgrwt>
<rscale>  0 0.12500000E+03</rscale>
<asrwt>0</asrwt>
<pdfrwt beam="1">  1       21 0.32908271E-02 0.12500000E+03</pdfrwt>
<pdfrwt beam="2">  1       21 0.28094950E-01 0.12500000E+03</pdfrwt>
<totfact> 0.64495577E+06</totfact>
</mgrwt>
</event>
