<event>
 4    1  0.2299148E-001  0.1887300E+03  0.7546771E-02  0.1159612E+00
         21   -1    0    0  501  502  0.00000000000E+00  0.00000000000E+00  0.19371806688E+03  0.19371806688E+03  0.00000000000E+00 0.  1.
         21   -1    0    0  502  503 -0.00000000000E+00 -0.00000000000E+00 -0.24863667213E+03  0.24863667213E+03  0.00000000000E+00 0.  1.
          6    1    1    2  501    0  0.77646004191E+02  0.24743373951E+01  0.85424711658E+02  0.20716275166E+03  0.17200000000E+03 0.  1.
         -6    1    1    2    0  503 -0.77646004191E+02 -0.24743373951E+01 -0.14034331691E+03  0.23519198735E+03  0.17200000000E+03 0.  1.
<mgrwt>
<rscale>  2 0.18873003E+03</rscale>
<asrwt>0</asrwt>
<pdfrwt beam="1">  1       21 0.48429517E-01 0.18873003E+03</pdfrwt>
<pdfrwt beam="2">  1       21 0.62159168E-01 0.18873003E+03</pdfrwt>
<totfact> 0.98043674E+03</totfact>
</mgrwt>
</event>
<event>
 4    1  0.2299148E-001  0.1882384E+03  0.7546771E-02  0.1160060E+00
         21   -1    0    0  503  502  0.00000000000E+00  0.00000000000E+00  0.16559682913E+03  0.16559682913E+03  0.00000000000E+00 0.  1.
         21   -1    0    0  501  503 -0.00000000000E+00 -0.00000000000E+00 -0.26898987923E+03  0.26898987923E+03  0.00000000000E+00 0. -1.
          6    1    1    2  501    0 -0.65248393207E+01 -0.76204426749E+02 -0.14996540662E+03  0.24067262280E+03  0.17200000000E+03 0. -1.
         -6    1    1    2    0  502  0.65248393207E+01  0.76204426749E+02  0.46572356520E+02  0.19391408555E+03  0.17200000000E+03 0.  1.
<mgrwt>
<rscale>  2 0.18823838E+03</rscale>
<asrwt>0</asrwt>
<pdfrwt beam="1">  1       21 0.41399208E-01 0.18823838E+03</pdfrwt>
<pdfrwt beam="2">  1       21 0.67247469E-01 0.18823838E+03</pdfrwt>
<totfact> 0.11403213E+04</totfact>
</mgrwt>
</event>
<event>
 4    1  0.2299148E-001  0.2120512E+03  0.7546771E-02  0.1139952E+00
         21   -1    0    0  501  502  0.00000000000E+00  0.00000000000E+00  0.47933484588E+03  0.47933484588E+03  0.00000000000E+00 0. -1.
         21   -1    0    0  502  503 -0.00000000000E+00 -0.00000000000E+00 -0.98144227034E+02  0.98144227034E+02  0.00000000000E+00 0. -1.
          6    1    1    2  501    0 -0.41427229202E+02  0.11689947628E+03  0.12990731944E+03  0.24867974288E+03  0.17200000000E+03 0. -1.
         -6    1    1    2    0  503  0.41427229202E+02 -0.11689947628E+03  0.25128329941E+03  0.32879933004E+03  0.17200000000E+03 0. -1.
<mgrwt>
<rscale>  2 0.21205118E+03</rscale>
<asrwt>0</asrwt>
<pdfrwt beam="1">  1       21 0.11983371E+00 0.21205118E+03</pdfrwt>
<pdfrwt beam="2">  1       21 0.24536058E-01 0.21205118E+03</pdfrwt>
<totfact> 0.82011450E+03</totfact>
</mgrwt>
</event>
<event>
 4    1  0.2299148E-001  0.1777095E+03  0.7546771E-02  0.1170038E+00
         21   -1    0    0  501  502  0.00000000000E+00  0.00000000000E+00  0.51809310151E+03  0.51809310151E+03  0.00000000000E+00 0.  1.
         21   -1    0    0  502  503 -0.00000000000E+00 -0.00000000000E+00 -0.65232710612E+02  0.65232710612E+02  0.00000000000E+00 0.  1.
          6    1    1    2  501    0  0.38475844655E+02 -0.22722037905E+02  0.15174695359E+03  0.23368316061E+03  0.17200000000E+03 0.  1.
         -6    1    1    2    0  503 -0.38475844655E+02  0.22722037905E+02  0.30111343731E+03  0.34964265151E+03  0.17200000000E+03 0.  1.
<mgrwt>
<rscale>  2 0.17770954E+03</rscale>
<asrwt>0</asrwt>
<pdfrwt beam="1">  1       21 0.12952326E+00 0.17770954E+03</pdfrwt>
<pdfrwt beam="2">  1       21 0.16308179E-01 0.17770954E+03</pdfrwt>
<totfact> 0.14842310E+04</totfact>
</mgrwt>
</event>
<event>
 4    1  0.2299148E-001  0.1783661E+03  0.7546771E-02  0.1169394E+00
         21   -1    0    0  503  502  0.00000000000E+00  0.00000000000E+00  0.37967576226E+03  0.37967576226E+03  0.00000000000E+00 0. -1.
         21   -1    0    0  501  503 -0.00000000000E+00 -0.00000000000E+00 -0.99408722706E+02  0.99408722706E+02  0.00000000000E+00 0. -1.
          6    1    1    2  501    0  0.25444729569E+02 -0.39787373184E+02  0.23507149982E+03  0.29508147918E+03  0.17200000000E+03 0. -1.
         -6    1    1    2    0  502 -0.25444729569E+02  0.39787373184E+02  0.45195539741E+02  0.18400300579E+03  0.17200000000E+03 0. -1.
<mgrwt>
<rscale>  2 0.17836611E+03</rscale>
<asrwt>0</asrwt>
<pdfrwt beam="1">  1       21 0.94918937E-01 0.17836611E+03</pdfrwt>
<pdfrwt beam="2">  1       21 0.24852182E-01 0.17836611E+03</pdfrwt>
<totfact> 0.14354341E+04</totfact>
</mgrwt>
</event>
<event>
 4    1  0.2299148E-001  0.2581762E+03  0.7546771E-02  0.1108244E+00
         21   -1    0    0  501  502  0.00000000000E+00  0.00000000000E+00  0.96206173539E+02  0.96206173539E+02  0.00000000000E+00 0. -1.
         21   -1    0    0  502  503 -0.00000000000E+00 -0.00000000000E+00 -0.85037372706E+03  0.85037372706E+03  0.00000000000E+00 0.  1.
          6    1    1    2  501    0  0.94516129537E+02 -0.16774276095E+03 -0.17337156760E+03  0.31098654801E+03  0.17200000000E+03 0. -1.
         -6    1    1    2    0  503 -0.94516129537E+02  0.16774276095E+03 -0.58079598592E+03  0.63559335258E+03  0.17200000000E+03 0.  1.
<mgrwt>
<rscale>  2 0.25817617E+03</rscale>
<asrwt>0</asrwt>
<pdfrwt beam="1">  1       21 0.24051544E-01 0.25817617E+03</pdfrwt>
<pdfrwt beam="2">  1       21 0.21259343E+00 0.25817617E+03</pdfrwt>
<totfact> 0.17131831E+03</totfact>
</mgrwt>
</event>
<event>
 4    1  0.2299148E-001  0.1801804E+03  0.7546771E-02  0.1167629E+00
         21   -1    0    0  503  502  0.00000000000E+00  0.00000000000E+00  0.13232456170E+03  0.13232456170E+03  0.00000000000E+00 0. -1.
         21   -1    0    0  501  503 -0.00000000000E+00 -0.00000000000E+00 -0.42531794673E+03  0.42531794673E+03  0.00000000000E+00 0. -1.
          6    1    1    2  501    0 -0.12393803298E+02 -0.52224373312E+02 -0.32787037031E+03  0.37411759015E+03  0.17200000000E+03 0. -1.
         -6    1    1    2    0  502  0.12393803298E+02  0.52224373312E+02  0.34876985290E+02  0.18352491828E+03  0.17200000000E+03 0. -1.
<mgrwt>
<rscale>  2 0.18018044E+03</rscale>
<asrwt>0</asrwt>
<pdfrwt beam="1">  1       21 0.33081141E-01 0.18018044E+03</pdfrwt>
<pdfrwt beam="2">  1       21 0.10632949E+00 0.18018044E+03</pdfrwt>
<totfact> 0.62972800E+03</totfact>
</mgrwt>
</event>
<event>
 4    1  0.2299148E-001  0.1810893E+03  0.7546771E-02  0.1166753E+00
         21   -1    0    0  503  502  0.00000000000E+00  0.00000000000E+00  0.26028803810E+03  0.26028803810E+03  0.00000000000E+00 0.  1.
         21   -1    0    0  501  503 -0.00000000000E+00 -0.00000000000E+00 -0.12999322070E+03  0.12999322070E+03  0.00000000000E+00 0.  1.
          6    1    1    2  501    0 -0.10724477903E+02  0.55626608232E+02  0.30896958654E+02  0.18370616763E+03  0.17200000000E+03 0.  1.
         -6    1    1    2    0  502  0.10724477903E+02 -0.55626608232E+02  0.99397858753E+02  0.20657509118E+03  0.17200000000E+03 0.  1.
<mgrwt>
<rscale>  2 0.18108930E+03</rscale>
<asrwt>0</asrwt>
<pdfrwt beam="1">  1       21 0.65072009E-01 0.18108930E+03</pdfrwt>
<pdfrwt beam="2">  1       21 0.32498306E-01 0.18108930E+03</pdfrwt>
<totfact> 0.19947831E+04</totfact>
</mgrwt>
</event>
<event>
 4    1  0.2299148E-001  0.2639813E+03  0.7546771E-02  0.1104775E+00
         21   -1    0    0  503  502  0.00000000000E+00  0.00000000000E+00  0.73455019797E+03  0.73455019797E+03  0.00000000000E+00 0.  1.
         21   -1    0    0  501  503 -0.00000000000E+00 -0.00000000000E+00 -0.11292725094E+03  0.11292725094E+03  0.00000000000E+00 0. -1.
          6    1    1    2  501    0 -0.47034775433E+01 -0.20019990710E+03  0.14136393523E+03  0.29944930738E+03  0.17200000000E+03 0. -1.
         -6    1    1    2    0  502  0.47034775433E+01  0.20019990710E+03  0.48025901180E+03  0.54802814154E+03  0.17200000000E+03 0.  1.
<mgrwt>
<rscale>  2 0.26398130E+03</rscale>
<asrwt>0</asrwt>
<pdfrwt beam="1">  1       21 0.18363754E+00 0.26398130E+03</pdfrwt>
<pdfrwt beam="2">  1       21 0.28231815E-01 0.26398130E+03</pdfrwt>
<totfact> 0.19367336E+03</totfact>
</mgrwt>
</event>
<event>
 4    1  0.2299148E-001  0.1874155E+03  0.7546771E-02  0.1160813E+00
         21   -1    0    0  501  502  0.00000000000E+00  0.00000000000E+00  0.71442338371E+03  0.71442338371E+03  0.00000000000E+00 0. -1.
         21   -1    0    0  502  503 -0.00000000000E+00 -0.00000000000E+00 -0.74039245880E+02  0.74039245880E+02  0.00000000000E+00 0. -1.
          6    1    1    2  501    0 -0.57907017658E+01  0.74209387821E+02  0.54869712924E+03  0.57982161489E+03  0.17200000000E+03 0. -1.
         -6    1    1    2    0  503  0.57907017658E+01 -0.74209387821E+02  0.91687008593E+02  0.20864101469E+03  0.17200000000E+03 0. -1.
<mgrwt>
<rscale>  2 0.18741549E+03</rscale>
<asrwt>0</asrwt>
<pdfrwt beam="1">  1       21 0.17860583E+00 0.18741549E+03</pdfrwt>
<pdfrwt beam="2">  1       21 0.18509814E-01 0.18741549E+03</pdfrwt>
<totfact> 0.49819855E+03</totfact>
</mgrwt>
</event>
<event>
 4    1  0.2299148E-001  0.2189942E+03  0.7546771E-02  0.1134635E+00
         21   -1    0    0  503  502  0.00000000000E+00  0.00000000000E+00  0.22025019599E+03  0.22025019599E+03  0.00000000000E+00 0.  1.
         21   -1    0    0  501  503 -0.00000000000E+00 -0.00000000000E+00 -0.43243673386E+03  0.43243673386E+03  0.00000000000E+00 0.  1.
          6    1    1    2  501    0 -0.92015383865E+02 -0.99537144081E+02 -0.33603662015E+03  0.40109734978E+03  0.17200000000E+03 0.  1.
         -6    1    1    2    0  502  0.92015383865E+02  0.99537144081E+02  0.12385008227E+03  0.25158958007E+03  0.17200000000E+03 0.  1.
<mgrwt>
<rscale>  2 0.21899423E+03</rscale>
<asrwt>0</asrwt>
<pdfrwt beam="1">  1       21 0.55062549E-01 0.21899423E+03</pdfrwt>
<pdfrwt beam="2">  1       21 0.10810918E+00 0.21899423E+03</pdfrwt>
<totfact> 0.20708239E+03</totfact>
</mgrwt>
</event>
<event>
 4    1  0.2299148E-001  0.2296619E+03  0.7546771E-02  0.1126878E+00
         21   -1    0    0  503  502  0.00000000000E+00  0.00000000000E+00  0.55050635713E+02  0.55050635713E+02  0.00000000000E+00 0.  1.
         21   -1    0    0  501  503 -0.00000000000E+00 -0.00000000000E+00 -0.96384906580E+03  0.96384906580E+03  0.00000000000E+00 0.  1.
          6    1    1    2  501    0  0.10232291677E+03  0.11265254528E+03 -0.49370986201E+03  0.54451262896E+03  0.17200000000E+03 0.  1.
         -6    1    1    2    0  502 -0.10232291677E+03 -0.11265254528E+03 -0.41508856808E+03  0.47438707255E+03  0.17200000000E+03 0.  1.
<mgrwt>
<rscale>  2 0.22966187E+03</rscale>
<asrwt>0</asrwt>
<pdfrwt beam="1">  1       21 0.13762658E-01 0.22966187E+03</pdfrwt>
<pdfrwt beam="2">  1       21 0.24096227E+00 0.22966187E+03</pdfrwt>
<totfact> 0.33236891E+03</totfact>
</mgrwt>
</event>
<event>
 4    1  0.2299148E-001  0.2015587E+03  0.7546771E-02  0.1148431E+00
         21   -1    0    0  501  502  0.00000000000E+00  0.00000000000E+00  0.31599103117E+03  0.31599103117E+03  0.00000000000E+00 0.  1.
         21   -1    0    0  502  503 -0.00000000000E+00 -0.00000000000E+00 -0.12860749948E+03  0.12860749948E+03  0.00000000000E+00 0.  1.
          6    1    1    2  501    0 -0.84638986227E+02  0.62274698530E+02  0.89728036729E+02  0.22062868499E+03  0.17200000000E+03 0.  1.
         -6    1    1    2    0  503  0.84638986227E+02 -0.62274698530E+02  0.97655494967E+02  0.22396984566E+03  0.17200000000E+03 0.  1.
<mgrwt>
<rscale>  2 0.20155867E+03</rscale>
<asrwt>0</asrwt>
<pdfrwt beam="1">  1       21 0.78997756E-01 0.20155867E+03</pdfrwt>
<pdfrwt beam="2">  1       21 0.32151875E-01 0.20155867E+03</pdfrwt>
<totfact> 0.13090254E+04</totfact>
</mgrwt>
</event>
<event>
 4    1  0.2299148E-001  0.2295730E+03  0.7546771E-02  0.1126941E+00
         21   -1    0    0  503  502  0.00000000000E+00  0.00000000000E+00  0.18517919004E+03  0.18517919004E+03  0.00000000000E+00 0. -1.
         21   -1    0    0  501  503 -0.00000000000E+00 -0.00000000000E+00 -0.30952568892E+03  0.30952568892E+03  0.00000000000E+00 0. -1.
          6    1    1    2  501    0  0.11015437103E+03 -0.10481297815E+03 -0.13235257113E+03  0.26499235637E+03  0.17200000000E+03 0. -1.
         -6    1    1    2    0  502 -0.11015437103E+03  0.10481297815E+03  0.80060722535E+01  0.22971252260E+03  0.17200000000E+03 0. -1.
<mgrwt>
<rscale>  2 0.22957296E+03</rscale>
<asrwt>0</asrwt>
<pdfrwt beam="1">  1       21 0.46294798E-01 0.22957296E+03</pdfrwt>
<pdfrwt beam="2">  1       21 0.77381421E-01 0.22957296E+03</pdfrwt>
<totfact> 0.64554089E+03</totfact>
</mgrwt>
</event>
<event>
 4    1  0.2299148E-001  0.2735525E+03  0.7546771E-02  0.1099263E+00
         21   -1    0    0  501  502  0.00000000000E+00  0.00000000000E+00  0.76315470345E+02  0.76315470345E+02  0.00000000000E+00 0. -1.
         21   -1    0    0  502  503 -0.00000000000E+00 -0.00000000000E+00 -0.10364693512E+04  0.10364693512E+04  0.00000000000E+00 0.  1.
          6    1    1    2  501    0  0.21245507960E+03 -0.10478481977E+02 -0.35083813575E+03  0.44488016019E+03  0.17200000000E+03 0. -1.
         -6    1    1    2    0  503 -0.21245507960E+03  0.10478481977E+02 -0.60931574513E+03  0.66790466138E+03  0.17200000000E+03 0.  1.
<mgrwt>
<rscale>  2 0.27355248E+03</rscale>
<asrwt>0</asrwt>
<pdfrwt beam="1">  1       21 0.19078868E-01 0.27355248E+03</pdfrwt>
<pdfrwt beam="2">  1       21 0.25911733E+00 0.27355248E+03</pdfrwt>
<totfact> 0.13643642E+03</totfact>
</mgrwt>
</event>
<event>
 4    1  0.2299148E-001  0.1855897E+03  0.7546771E-02  0.1162500E+00
         21   -1    0    0  503  502  0.00000000000E+00  0.00000000000E+00  0.17995835400E+02  0.17995835400E+02  0.00000000000E+00 0.  1.
         21   -1    0    0  501  503 -0.00000000000E+00 -0.00000000000E+00 -0.19142165181E+04  0.19142165181E+04  0.00000000000E+00 0.  1.
          6    1    1    2  501    0  0.63961755941E+02  0.27720399337E+02 -0.95902729189E+03  0.97681977527E+03  0.17200000000E+03 0. -1.
         -6    1    1    2    0  502 -0.63961755941E+02 -0.27720399337E+02 -0.93719339078E+03  0.95539257820E+03  0.17200000000E+03 0. -1.
<mgrwt>
<rscale>  2 0.18558967E+03</rscale>
<asrwt>0</asrwt>
<pdfrwt beam="1">  1       21 0.44989583E-02 0.18558967E+03</pdfrwt>
<pdfrwt beam="2">  1       21 0.47855419E+00 0.18558967E+03</pdfrwt>
<totfact> 0.86874035E+02</totfact>
</mgrwt>
</event>
<event>
 4    1  0.2299148E-001  0.1831108E+03  0.7546771E-02  0.1164826E+00
         21   -1    0    0  503  502  0.00000000000E+00  0.00000000000E+00  0.17494535055E+03  0.17494535055E+03  0.00000000000E+00 0.  1.
         21   -1    0    0  501  503 -0.00000000000E+00 -0.00000000000E+00 -0.22513043550E+03  0.22513043550E+03  0.00000000000E+00 0.  1.
          6    1    1    2  501    0  0.24219751052E+02 -0.57956625618E+02 -0.10222601292E+03  0.20971343427E+03  0.17200000000E+03 0.  1.
         -6    1    1    2    0  502 -0.24219751052E+02  0.57956625618E+02  0.52040927961E+02  0.19036235178E+03  0.17200000000E+03 0.  1.
<mgrwt>
<rscale>  2 0.18311080E+03</rscale>
<asrwt>0</asrwt>
<pdfrwt beam="1">  1       21 0.43736338E-01 0.18311080E+03</pdfrwt>
<pdfrwt beam="2">  1       21 0.56282609E-01 0.18311080E+03</pdfrwt>
<totfact> 0.15012462E+04</totfact>
</mgrwt>
</event>
<event>
 4    1  0.2299148E-001  0.2061187E+03  0.7546771E-02  0.1144677E+00
         21   -1    0    0  501  502  0.00000000000E+00  0.00000000000E+00  0.10647751890E+03  0.10647751890E+03  0.00000000000E+00 0. -1.
         21   -1    0    0  502  503 -0.00000000000E+00 -0.00000000000E+00 -0.53230045871E+03  0.53230045871E+03  0.00000000000E+00 0. -1.
          6    1    1    2  501    0 -0.11166066737E+03  0.20804370504E+02 -0.53084054632E+02  0.21284464599E+03  0.17200000000E+03 0. -1.
         -6    1    1    2    0  503  0.11166066737E+03 -0.20804370504E+02 -0.37273888518E+03  0.42593333163E+03  0.17200000000E+03 0. -1.
<mgrwt>
<rscale>  2 0.20611872E+03</rscale>
<asrwt>0</asrwt>
<pdfrwt beam="1">  1       21 0.26619380E-01 0.20611872E+03</pdfrwt>
<pdfrwt beam="2">  1       21 0.13307511E+00 0.20611872E+03</pdfrwt>
<totfact> 0.54133138E+03</totfact>
</mgrwt>
</event>
<event>
 4    1  0.2299148E-001  0.1888190E+03  0.7546771E-02  0.1159531E+00
         21   -1    0    0  501  502  0.00000000000E+00  0.00000000000E+00  0.24868952346E+03  0.24868952346E+03  0.00000000000E+00 0. -1.
         21   -1    0    0  502  503 -0.00000000000E+00 -0.00000000000E+00 -0.14663759385E+03  0.14663759385E+03  0.00000000000E+00 0. -1.
          6    1    1    2  501    0 -0.77706289504E+02  0.55085207275E+01  0.80568876591E+02  0.20528992938E+03  0.17200000000E+03 0. -1.
         -6    1    1    2    0  503  0.77706289504E+02 -0.55085207275E+01  0.21483053013E+02  0.19003718793E+03  0.17200000000E+03 0. -1.
<mgrwt>
<rscale>  2 0.18881899E+03</rscale>
<asrwt>0</asrwt>
<pdfrwt beam="1">  1       21 0.62172380E-01 0.18881899E+03</pdfrwt>
<pdfrwt beam="2">  1       21 0.36659399E-01 0.18881899E+03</pdfrwt>
<totfact> 0.17264640E+04</totfact>
</mgrwt>
</event>
<event>
 4    1  0.2299148E-001  0.2555798E+03  0.7546771E-02  0.1109828E+00
         21   -1    0    0  503  502  0.00000000000E+00  0.00000000000E+00  0.40803836815E+03  0.40803836815E+03  0.00000000000E+00 0. -1.
         21   -1    0    0  501  503 -0.00000000000E+00 -0.00000000000E+00 -0.16440322650E+03  0.16440322650E+03  0.00000000000E+00 0.  1.
          6    1    1    2  501    0  0.14433730709E+03 -0.12208092449E+03  0.75432787080E+02  0.26647910933E+03  0.17200000000E+03 0.  1.
         -6    1    1    2    0  502 -0.14433730709E+03  0.12208092449E+03  0.16820235456E+03  0.30596248532E+03  0.17200000000E+03 0. -1.
<mgrwt>
<rscale>  2 0.25557975E+03</rscale>
<asrwt>0</asrwt>
<pdfrwt beam="1">  1       21 0.10200959E+00 0.25557975E+03</pdfrwt>
<pdfrwt beam="2">  1       21 0.41100807E-01 0.25557975E+03</pdfrwt>
<totfact> 0.42654013E+03</totfact>
</mgrwt>
</event>
<event>
 4    1  0.2299148E-001  0.2512610E+03  0.7546771E-02  0.1112510E+00
         21   -1    0    0  503  502  0.00000000000E+00  0.00000000000E+00  0.72415101951E+03  0.72415101951E+03  0.00000000000E+00 0. -1.
         21   -1    0    0  501  503 -0.00000000000E+00 -0.00000000000E+00 -0.88107861633E+02  0.88107861633E+02  0.00000000000E+00 0.  1.
          6    1    1    2  501    0  0.15402931039E+03 -0.99111379086E+02  0.27636322016E+03  0.37350866574E+03  0.17200000000E+03 0.  1.
         -6    1    1    2    0  502 -0.15402931039E+03  0.99111379086E+02  0.35967993771E+03  0.43875021540E+03  0.17200000000E+03 0. -1.
<mgrwt>
<rscale>  2 0.25126101E+03</rscale>
<asrwt>0</asrwt>
<pdfrwt beam="1">  1       21 0.18103774E+00 0.25126101E+03</pdfrwt>
<pdfrwt beam="2">  1       21 0.22026968E-01 0.25126101E+03</pdfrwt>
<totfact> 0.32820771E+03</totfact>
</mgrwt>
</event>
<event>
 4    1  0.2299148E-001  0.1806849E+03  0.7546771E-02  0.1167142E+00
         21   -1    0    0  503  502  0.00000000000E+00  0.00000000000E+00  0.78629808419E+03  0.78629808419E+03  0.00000000000E+00 0.  1.
         21   -1    0    0  501  503 -0.00000000000E+00 -0.00000000000E+00 -0.44968221211E+02  0.44968221211E+02  0.00000000000E+00 0.  1.
          6    1    1    2  501    0 -0.37473169714E+02 -0.40728212656E+02  0.25556884713E+03  0.31298955475E+03  0.17200000000E+03 0.  1.
         -6    1    1    2    0  502  0.37473169714E+02  0.40728212656E+02  0.48576101585E+03  0.51827675066E+03  0.17200000000E+03 0.  1.
<mgrwt>
<rscale>  2 0.18068488E+03</rscale>
<asrwt>0</asrwt>
<pdfrwt beam="1">  1       21 0.19657448E+00 0.18068488E+03</pdfrwt>
<pdfrwt beam="2">  1       21 0.11242058E-01 0.18068488E+03</pdfrwt>
<totfact> 0.94105372E+03</totfact>
</mgrwt>
</event>
<event>
 4    1  0.2299148E-001  0.2158071E+03  0.7546771E-02  0.1137048E+00
         21   -1    0    0  503  502  0.00000000000E+00  0.00000000000E+00  0.19374145288E+03  0.19374145288E+03  0.00000000000E+00 0. -1.
         21   -1    0    0  501  503 -0.00000000000E+00 -0.00000000000E+00 -0.30910906410E+03  0.30910906410E+03  0.00000000000E+00 0.  1.
          6    1    1    2  501    0 -0.49928850283E+02  0.12039863837E+03 -0.17623459955E+03  0.27862404112E+03  0.17200000000E+03 0.  1.
         -6    1    1    2    0  502  0.49928850283E+02 -0.12039863837E+03  0.60866988330E+02  0.22422647587E+03  0.17200000000E+03 0. -1.
<mgrwt>
<rscale>  2 0.21580714E+03</rscale>
<asrwt>0</asrwt>
<pdfrwt beam="1">  1       21 0.48435364E-01 0.21580714E+03</pdfrwt>
<pdfrwt beam="2">  1       21 0.77277265E-01 0.21580714E+03</pdfrwt>
<totfact> 0.59505177E+03</totfact>
</mgrwt>
</event>
<event>
 4    1  0.2299148E-001  0.1805631E+03  0.7546771E-02  0.1167259E+00
         21   -1    0    0  503  502  0.00000000000E+00  0.00000000000E+00  0.26597115030E+03  0.26597115030E+03  0.00000000000E+00 0.  1.
         21   -1    0    0  501  503 -0.00000000000E+00 -0.00000000000E+00 -0.18579243956E+03  0.18579243956E+03  0.00000000000E+00 0. -1.
          6    1    1    2  501    0 -0.54163118213E+02 -0.92402728912E+01 -0.91664957258E+02  0.20249812445E+03  0.17200000000E+03 0. -1.
         -6    1    1    2    0  502  0.54163118213E+02  0.92402728912E+01  0.17184366800E+03  0.24926546541E+03  0.17200000000E+03 0.  1.
<mgrwt>
<rscale>  2 0.18056308E+03</rscale>
<asrwt>0</asrwt>
<pdfrwt beam="1">  1       21 0.66492787E-01 0.18056308E+03</pdfrwt>
<pdfrwt beam="2">  1       21 0.46448110E-01 0.18056308E+03</pdfrwt>
<totfact> 0.92873490E+03</totfact>
</mgrwt>
</event>
<event>
 4    1  0.2299148E-001  0.2444648E+03  0.7546771E-02  0.1116854E+00
         21   -1    0    0  503  502  0.00000000000E+00  0.00000000000E+00  0.14007673451E+04  0.14007673451E+04  0.00000000000E+00 0. -1.
         21   -1    0    0  501  503 -0.00000000000E+00 -0.00000000000E+00 -0.66352656949E+02  0.66352656949E+02  0.00000000000E+00 0. -1.
          6    1    1    2  501    0  0.10011648736E+03  0.14197079263E+03  0.22890654805E+03  0.33490479952E+03  0.17200000000E+03 0. -1.
         -6    1    1    2    0  502 -0.10011648736E+03 -0.14197079263E+03  0.11055081401E+04  0.11322152025E+04  0.17200000000E+03 0. -1.
<mgrwt>
<rscale>  2 0.24446476E+03</rscale>
<asrwt>0</asrwt>
<pdfrwt beam="1">  1       21 0.35019174E+00 0.24446476E+03</pdfrwt>
<pdfrwt beam="2">  1       21 0.16588169E-01 0.24446476E+03</pdfrwt>
<totfact> 0.53033445E+02</totfact>
</mgrwt>
</event>
<event>
 4    1  0.2299148E-001  0.5939046E+03  0.7546771E-02  0.9918133E-01
         21   -1    0    0  503  502  0.00000000000E+00  0.00000000000E+00  0.10052873634E+04  0.10052873634E+04  0.00000000000E+00 0. -1.
         21   -1    0    0  501  503 -0.00000000000E+00 -0.00000000000E+00 -0.47227554029E+03  0.47227554029E+03  0.00000000000E+00 0.  1.
          6    1    1    2  501    0 -0.45564098830E+03 -0.33989706549E+03 -0.10807174810E+03  0.60365737641E+03  0.17200000000E+03 0.  1.
         -6    1    1    2    0  502  0.45564098830E+03  0.33989706549E+03  0.64108357124E+03  0.87390552731E+03  0.17200000000E+03 0. -1.
<mgrwt>
<rscale>  2 0.59390464E+03</rscale>
<asrwt>0</asrwt>
<pdfrwt beam="1">  1       21 0.25132184E+00 0.59390464E+03</pdfrwt>
<pdfrwt beam="2">  1       21 0.11806889E+00 0.59390464E+03</pdfrwt>
<totfact> 0.25140748E+01</totfact>
</mgrwt>
</event>
<event>
 4    1  0.2299148E-001  0.1983637E+03  0.7546771E-02  0.1151127E+00
         21   -1    0    0  501  502  0.00000000000E+00  0.00000000000E+00  0.62783875112E+02  0.62783875112E+02  0.00000000000E+00 0.  1.
         21   -1    0    0  502  503 -0.00000000000E+00 -0.00000000000E+00 -0.83058962869E+03  0.83058962869E+03  0.00000000000E+00 0. -1.
          6    1    1    2  501    0 -0.84808580679E+02 -0.50711537826E+02 -0.16260261585E+03  0.25649125932E+03  0.17200000000E+03 0.  1.
         -6    1    1    2    0  503  0.84808580679E+02  0.50711537826E+02 -0.60520313772E+03  0.63688224448E+03  0.17200000000E+03 0. -1.
<mgrwt>
<rscale>  2 0.19836369E+03</rscale>
<asrwt>0</asrwt>
<pdfrwt beam="1">  1       21 0.15695969E-01 0.19836369E+03</pdfrwt>
<pdfrwt beam="2">  1       21 0.20764741E+00 0.19836369E+03</pdfrwt>
<totfact> 0.43119430E+03</totfact>
</mgrwt>
</event>
<event>
 4    1  0.2299148E-001  0.1864769E+03  0.7546771E-02  0.1161678E+00
         21   -1    0    0  503  502  0.00000000000E+00  0.00000000000E+00  0.10656656786E+03  0.10656656786E+03  0.00000000000E+00 0.  1.
         21   -1    0    0  501  503 -0.00000000000E+00 -0.00000000000E+00 -0.32681636428E+03  0.32681636428E+03  0.00000000000E+00 0.  1.
          6    1    1    2  501    0  0.41372671301E+02 -0.58974033798E+02 -0.11866242702E+03  0.22103032864E+03  0.17200000000E+03 0.  1.
         -6    1    1    2    0  502 -0.41372671301E+02  0.58974033798E+02 -0.10158736939E+03  0.21235260350E+03  0.17200000000E+03 0.  1.
<mgrwt>
<rscale>  2 0.18647690E+03</rscale>
<asrwt>0</asrwt>
<pdfrwt beam="1">  1       21 0.26641642E-01 0.18647690E+03</pdfrwt>
<pdfrwt beam="2">  1       21 0.81704090E-01 0.18647690E+03</pdfrwt>
<totfact> 0.17650323E+04</totfact>
</mgrwt>
</event>
<event>
 4    1  0.2299148E-001  0.2625382E+03  0.7546771E-02  0.1105628E+00
         21   -1    0    0  503  502  0.00000000000E+00  0.00000000000E+00  0.94184020467E+02  0.94184020467E+02  0.00000000000E+00 0.  1.
         21   -1    0    0  501  503 -0.00000000000E+00 -0.00000000000E+00 -0.84431570285E+03  0.84431570285E+03  0.00000000000E+00 0. -1.
          6    1    1    2  501    0  0.74207996042E+02 -0.18394422452E+03 -0.20378518384E+03  0.33234726652E+03  0.17200000000E+03 0.  1.
         -6    1    1    2    0  502 -0.74207996042E+02  0.18394422452E+03 -0.54634649854E+03  0.60615245680E+03  0.17200000000E+03 0. -1.
<mgrwt>
<rscale>  2 0.26253820E+03</rscale>
<asrwt>0</asrwt>
<pdfrwt beam="1">  1       21 0.23546005E-01 0.26253820E+03</pdfrwt>
<pdfrwt beam="2">  1       21 0.21107892E+00 0.26253820E+03</pdfrwt>
<totfact> 0.18177188E+03</totfact>
</mgrwt>
</event>
<event>
 4    1  0.2299148E-001  0.2409474E+03  0.7546771E-02  0.1119163E+00
         21   -1    0    0  503  502  0.00000000000E+00  0.00000000000E+00  0.30351471246E+03  0.30351471246E+03  0.00000000000E+00 0. -1.
         21   -1    0    0  501  503 -0.00000000000E+00 -0.00000000000E+00 -0.20674488442E+03  0.20674488442E+03  0.00000000000E+00 0.  1.
          6    1    1    2  501    0 -0.12950344617E+03 -0.10816885093E+03 -0.21397705563E+02  0.24189564834E+03  0.17200000000E+03 0.  1.
         -6    1    1    2    0  502  0.12950344617E+03  0.10816885093E+03  0.11816753360E+03  0.26836394855E+03  0.17200000000E+03 0. -1.
<mgrwt>
<rscale>  2 0.24094739E+03</rscale>
<asrwt>0</asrwt>
<pdfrwt beam="1">  1       21 0.75878678E-01 0.24094739E+03</pdfrwt>
<pdfrwt beam="2">  1       21 0.51686221E-01 0.24094739E+03</pdfrwt>
<totfact> 0.53212733E+03</totfact>
</mgrwt>
</event>
<event>
 4    1  0.2299148E-001  0.1818731E+03  0.7546771E-02  0.1166002E+00
         21   -1    0    0  503  502  0.00000000000E+00  0.00000000000E+00  0.81279935214E+03  0.81279935214E+03  0.00000000000E+00 0. -1.
         21   -1    0    0  501  503 -0.00000000000E+00 -0.00000000000E+00 -0.89064672165E+02  0.89064672165E+02  0.00000000000E+00 0. -1.
          6    1    1    2  501    0  0.58816866254E+02  0.58659683353E+01  0.29560271175E+02  0.18425971609E+03  0.17200000000E+03 0. -1.
         -6    1    1    2    0  502 -0.58816866254E+02 -0.58659683353E+01  0.69417440880E+03  0.71760430822E+03  0.17200000000E+03 0. -1.
<mgrwt>
<rscale>  2 0.18187312E+03</rscale>
<asrwt>0</asrwt>
<pdfrwt beam="1">  1       21 0.20319982E+00 0.18187312E+03</pdfrwt>
<pdfrwt beam="2">  1       21 0.22266171E-01 0.18187312E+03</pdfrwt>
<totfact> 0.24445636E+03</totfact>
</mgrwt>
</event>
<event>
 4    1  0.2299148E-001  0.1802480E+03  0.7546771E-02  0.1167563E+00
         21   -1    0    0  501  502  0.00000000000E+00  0.00000000000E+00  0.33900714435E+03  0.33900714435E+03  0.00000000000E+00 0.  1.
         21   -1    0    0  502  503 -0.00000000000E+00 -0.00000000000E+00 -0.99722783104E+02  0.99722783104E+02  0.00000000000E+00 0.  1.
          6    1    1    2  501    0  0.24060329913E+02  0.48233321088E+02  0.76338809961E+02  0.19574720086E+03  0.17200000000E+03 0.  1.
         -6    1    1    2    0  503 -0.24060329913E+02 -0.48233321088E+02  0.16294555128E+03  0.24298272659E+03  0.17200000000E+03 0.  1.
<mgrwt>
<rscale>  2 0.18024803E+03</rscale>
<asrwt>0</asrwt>
<pdfrwt beam="1">  1       21 0.84751783E-01 0.18024803E+03</pdfrwt>
<pdfrwt beam="2">  1       21 0.24930697E-01 0.18024803E+03</pdfrwt>
<totfact> 0.18509967E+04</totfact>
</mgrwt>
</event>
<event>
 4    1  0.2299148E-001  0.2930467E+03  0.7546771E-02  0.1088769E+00
         21   -1    0    0  501  502  0.00000000000E+00  0.00000000000E+00  0.22206256159E+03  0.22206256159E+03  0.00000000000E+00 0. -1.
         21   -1    0    0  502  503 -0.00000000000E+00 -0.00000000000E+00 -0.47819686860E+03  0.47819686860E+03  0.00000000000E+00 0.  1.
          6    1    1    2  501    0  0.17006772622E+03 -0.16543680633E+03  0.25068979017E+02  0.29411702109E+03  0.17200000000E+03 0.  1.
         -6    1    1    2    0  503 -0.17006772622E+03  0.16543680633E+03 -0.28120328603E+03  0.40614240909E+03  0.17200000000E+03 0.  1.
<mgrwt>
<rscale>  2 0.29304670E+03</rscale>
<asrwt>0</asrwt>
<pdfrwt beam="1">  1       21 0.55515641E-01 0.29304670E+03</pdfrwt>
<pdfrwt beam="2">  1       21 0.11954922E+00 0.29304670E+03</pdfrwt>
<totfact> 0.15066586E+03</totfact>
</mgrwt>
</event>
<event>
 4    1  0.2299148E-001  0.1835592E+03  0.7546771E-02  0.1164402E+00
         21   -1    0    0  501  502  0.00000000000E+00  0.00000000000E+00  0.15721868597E+03  0.15721868597E+03  0.00000000000E+00 0. -1.
         21   -1    0    0  502  503 -0.00000000000E+00 -0.00000000000E+00 -0.21561685218E+03  0.21561685218E+03  0.00000000000E+00 0. -1.
          6    1    1    2  501    0 -0.56559902091E+01 -0.63859134162E+02 -0.43696507653E+02  0.18868853707E+03  0.17200000000E+03 0. -1.
         -6    1    1    2    0  503  0.56559902091E+01  0.63859134162E+02 -0.14701658558E+02  0.18414700108E+03  0.17200000000E+03 0. -1.
<mgrwt>
<rscale>  2 0.18355920E+03</rscale>
<asrwt>0</asrwt>
<pdfrwt beam="1">  1       21 0.39304672E-01 0.18355920E+03</pdfrwt>
<pdfrwt beam="2">  1       21 0.53904213E-01 0.18355920E+03</pdfrwt>
<totfact> 0.20419794E+04</totfact>
</mgrwt>
</event>
<event>
 4    1  0.2299148E-001  0.2060255E+03  0.7546771E-02  0.1144753E+00
         21   -1    0    0  501  502  0.00000000000E+00  0.00000000000E+00  0.42966115778E+03  0.42966115778E+03  0.00000000000E+00 0. -1.
         21   -1    0    0  502  503 -0.00000000000E+00 -0.00000000000E+00 -0.11498944935E+03  0.11498944935E+03  0.00000000000E+00 0. -1.
          6    1    1    2  501    0  0.11331319324E+03 -0.47570615426E+01  0.25954747545E+03  0.33137803398E+03  0.17200000000E+03 0. -1.
         -6    1    1    2    0  503 -0.11331319324E+03  0.47570615426E+01  0.55124232987E+02  0.21327257315E+03  0.17200000000E+03 0. -1.
<mgrwt>
<rscale>  2 0.20602551E+03</rscale>
<asrwt>0</asrwt>
<pdfrwt beam="1">  1       21 0.10741529E+00 0.20602551E+03</pdfrwt>
<pdfrwt beam="2">  1       21 0.28747363E-01 0.20602551E+03</pdfrwt>
<totfact> 0.79299882E+03</totfact>
</mgrwt>
</event>
<event>
 4    1  0.2299148E-001  0.1735360E+03  0.7546771E-02  0.1174210E+00
         21   -1    0    0  503  502  0.00000000000E+00  0.00000000000E+00  0.63108649063E+03  0.63108649063E+03  0.00000000000E+00 0.  1.
         21   -1    0    0  501  503 -0.00000000000E+00 -0.00000000000E+00 -0.47726159024E+02  0.47726159024E+02  0.00000000000E+00 0.  1.
          6    1    1    2  501    0  0.17685734833E+02  0.14763406555E+02  0.28748989238E+03  0.33580527335E+03  0.17200000000E+03 0. -1.
         -6    1    1    2    0  502 -0.17685734833E+02 -0.14763406555E+02  0.29587043922E+03  0.34300737630E+03  0.17200000000E+03 0. -1.
<mgrwt>
<rscale>  2 0.17353600E+03</rscale>
<asrwt>0</asrwt>
<pdfrwt beam="1">  1       21 0.15777160E+00 0.17353600E+03</pdfrwt>
<pdfrwt beam="2">  1       21 0.11931542E-01 0.17353600E+03</pdfrwt>
<totfact> 0.15714244E+04</totfact>
</mgrwt>
</event>
<event>
 4    1  0.2299148E-001  0.2014126E+03  0.7546771E-02  0.1148553E+00
         21   -1    0    0  503  502  0.00000000000E+00  0.00000000000E+00  0.29643133120E+02  0.29643133120E+02  0.00000000000E+00 0. -1.
         21   -1    0    0  501  503 -0.00000000000E+00 -0.00000000000E+00 -0.13814730873E+04  0.13814730873E+04  0.00000000000E+00 0.  1.
          6    1    1    2  501    0 -0.90304821733E+00 -0.10479618350E+03 -0.74424970889E+03  0.77102184454E+03  0.17200000000E+03 0. -1.
         -6    1    1    2    0  502  0.90304821733E+00  0.10479618350E+03 -0.60758024531E+03  0.64009437590E+03  0.17200000000E+03 0. -1.
<mgrwt>
<rscale>  2 0.20141265E+03</rscale>
<asrwt>0</asrwt>
<pdfrwt beam="1">  1       21 0.74107836E-02 0.20141265E+03</pdfrwt>
<pdfrwt beam="2">  1       21 0.34536826E+00 0.20141265E+03</pdfrwt>
<totfact> 0.25228966E+03</totfact>
</mgrwt>
</event>
<event>
 4    1  0.2299148E-001  0.2079393E+03  0.7546771E-02  0.1143208E+00
         21   -1    0    0  503  502  0.00000000000E+00  0.00000000000E+00  0.34950250854E+03  0.34950250854E+03  0.00000000000E+00 0. -1.
         21   -1    0    0  501  503 -0.00000000000E+00 -0.00000000000E+00 -0.12372860715E+03  0.12372860715E+03  0.00000000000E+00 0. -1.
          6    1    1    2  501    0 -0.18456725839E+02  0.11538673768E+03  0.11535599928E+03  0.23779351659E+03  0.17200000000E+03 0. -1.
         -6    1    1    2    0  502  0.18456725839E+02 -0.11538673768E+03  0.11041790211E+03  0.23543759910E+03  0.17200000000E+03 0. -1.
<mgrwt>
<rscale>  2 0.20793929E+03</rscale>
<asrwt>0</asrwt>
<pdfrwt beam="1">  1       21 0.87375625E-01 0.20793929E+03</pdfrwt>
<pdfrwt beam="2">  1       21 0.30932153E-01 0.20793929E+03</pdfrwt>
<totfact> 0.11174818E+04</totfact>
</mgrwt>
</event>
<event>
 4    1  0.2299148E-001  0.2841002E+03  0.7546771E-02  0.1093470E+00
         21   -1    0    0  503  502  0.00000000000E+00  0.00000000000E+00  0.76350298121E+03  0.76350298121E+03  0.00000000000E+00 0.  1.
         21   -1    0    0  501  503 -0.00000000000E+00 -0.00000000000E+00 -0.18486121998E+03  0.18486121998E+03  0.00000000000E+00 0.  1.
          6    1    1    2  501    0 -0.10604840026E+03  0.19970649143E+03 -0.20949351757E+02  0.28487158731E+03  0.17200000000E+03 0.  1.
         -6    1    1    2    0  502  0.10604840026E+03 -0.19970649143E+03  0.59959111299E+03  0.66349261389E+03  0.17200000000E+03 0.  1.
<mgrwt>
<rscale>  2 0.28410024E+03</rscale>
<asrwt>0</asrwt>
<pdfrwt beam="1">  1       21 0.19087574E+00 0.28410024E+03</pdfrwt>
<pdfrwt beam="2">  1       21 0.46215307E-01 0.28410024E+03</pdfrwt>
<totfact> 0.63212288E+02</totfact>
</mgrwt>
</event>
<event>
 4    1  0.2299148E-001  0.2230090E+03  0.7546771E-02  0.1131659E+00
         21   -1    0    0  501  502  0.00000000000E+00  0.00000000000E+00  0.33593229605E+03  0.33593229605E+03  0.00000000000E+00 0.  1.
         21   -1    0    0  502  503 -0.00000000000E+00 -0.00000000000E+00 -0.15064307473E+03  0.15064307473E+03  0.00000000000E+00 0. -1.
          6    1    1    2  501    0 -0.47032567074E+02  0.13392894162E+03  0.12459598339E+03  0.25545485481E+03  0.17200000000E+03 0.  1.
         -6    1    1    2    0  503  0.47032567074E+02 -0.13392894162E+03  0.60693237932E+02  0.23112051597E+03  0.17200000000E+03 0. -1.
<mgrwt>
<rscale>  2 0.22300902E+03</rscale>
<asrwt>0</asrwt>
<pdfrwt beam="1">  1       21 0.83983073E-01 0.22300902E+03</pdfrwt>
<pdfrwt beam="2">  1       21 0.37660769E-01 0.22300902E+03</pdfrwt>
<totfact> 0.82008330E+03</totfact>
</mgrwt>
</event>
<event>
 4    1  0.2299148E-001  0.1770496E+03  0.7546771E-02  0.1170689E+00
         21   -1    0    0  501  502  0.00000000000E+00  0.00000000000E+00  0.91910921592E+02  0.91910921592E+02  0.00000000000E+00 0. -1.
         21   -1    0    0  502  503 -0.00000000000E+00 -0.00000000000E+00 -0.49929850101E+03  0.49929850101E+03  0.00000000000E+00 0. -1.
          6    1    1    2  501    0  0.19203975014E+02 -0.37333415846E+02 -0.37011002616E+03  0.41027796439E+03  0.17200000000E+03 0. -1.
         -6    1    1    2    0  503 -0.19203975014E+02  0.37333415846E+02 -0.37277553255E+02  0.18093145821E+03  0.17200000000E+03 0. -1.
<mgrwt>
<rscale>  2 0.17704964E+03</rscale>
<asrwt>0</asrwt>
<pdfrwt beam="1">  1       21 0.22977731E-01 0.17704964E+03</pdfrwt>
<pdfrwt beam="2">  1       21 0.12482462E+00 0.17704964E+03</pdfrwt>
<totfact> 0.86133589E+03</totfact>
</mgrwt>
</event>
<event>
 4    1  0.2299148E-001  0.3717213E+03  0.7546771E-02  0.1054037E+00
         21   -1    0    0  503  502  0.00000000000E+00  0.00000000000E+00  0.42050430150E+03  0.42050430150E+03  0.00000000000E+00 0.  1.
         21   -1    0    0  501  503 -0.00000000000E+00 -0.00000000000E+00 -0.34490035284E+03  0.34490035284E+03  0.00000000000E+00 0.  1.
          6    1    1    2  501    0 -0.12991692641E+03  0.30284367371E+03 -0.45402166305E+02  0.37448371817E+03  0.17200000000E+03 0.  1.
         -6    1    1    2    0  502  0.12991692641E+03 -0.30284367371E+03  0.12100611497E+03  0.39092093616E+03  0.17200000000E+03 0.  1.
<mgrwt>
<rscale>  2 0.37172126E+03</rscale>
<asrwt>0</asrwt>
<pdfrwt beam="1">  1       21 0.10512608E+00 0.37172126E+03</pdfrwt>
<pdfrwt beam="2">  1       21 0.86225088E-01 0.37172126E+03</pdfrwt>
<totfact> 0.73987734E+02</totfact>
</mgrwt>
</event>
<event>
 4    1  0.2299148E-001  0.1756518E+03  0.7546771E-02  0.1172079E+00
         21   -1    0    0  501  502  0.00000000000E+00  0.00000000000E+00  0.55840078727E+03  0.55840078727E+03  0.00000000000E+00 0. -1.
         21   -1    0    0  502  503 -0.00000000000E+00 -0.00000000000E+00 -0.10783682295E+03  0.10783682295E+03  0.00000000000E+00 0. -1.
          6    1    1    2  501    0 -0.35599354217E+02  0.14979065132E+01  0.45789816163E+03  0.49043275194E+03  0.17200000000E+03 0. -1.
         -6    1    1    2    0  503  0.35599354217E+02 -0.14979065132E+01 -0.73341973078E+01  0.17580485828E+03  0.17200000000E+03 0. -1.
<mgrwt>
<rscale>  2 0.17565181E+03</rscale>
<asrwt>0</asrwt>
<pdfrwt beam="1">  1       21 0.13960019E+00 0.17565181E+03</pdfrwt>
<pdfrwt beam="2">  1       21 0.26959207E-01 0.17565181E+03</pdfrwt>
<totfact> 0.47945374E+03</totfact>
</mgrwt>
</event>
<event>
 4    1  0.2299148E-001  0.1725005E+03  0.7546771E-02  0.1175265E+00
         21   -1    0    0  501  502  0.00000000000E+00  0.00000000000E+00  0.93821448974E+02  0.93821448974E+02  0.00000000000E+00 0. -1.
         21   -1    0    0  502  503 -0.00000000000E+00 -0.00000000000E+00 -0.36703616352E+03  0.36703616352E+03  0.00000000000E+00 0. -1.
          6    1    1    2  501    0 -0.12461729440E+01  0.13071690868E+02 -0.22155050246E+03  0.28078647971E+03  0.17200000000E+03 0. -1.
         -6    1    1    2    0  503  0.12461729440E+01 -0.13071690868E+02 -0.51664212079E+02  0.18007113278E+03  0.17200000000E+03 0. -1.
<mgrwt>
<rscale>  2 0.17250050E+03</rscale>
<asrwt>0</asrwt>
<pdfrwt beam="1">  1       21 0.23455362E-01 0.17250050E+03</pdfrwt>
<pdfrwt beam="2">  1       21 0.91759040E-01 0.17250050E+03</pdfrwt>
<totfact> 0.17401444E+04</totfact>
</mgrwt>
</event>
<event>
 4    1  0.2299148E-001  0.1771033E+03  0.7546771E-02  0.1170636E+00
         21   -1    0    0  501  502  0.00000000000E+00  0.00000000000E+00  0.45156699369E+02  0.45156699369E+02  0.00000000000E+00 0.  1.
         21   -1    0    0  502  503 -0.00000000000E+00 -0.00000000000E+00 -0.75586579666E+03  0.75586579666E+03  0.00000000000E+00 0.  1.
          6    1    1    2  501    0 -0.23280892988E+02 -0.35207615969E+02 -0.46938540429E+03  0.50168539341E+03  0.17200000000E+03 0.  1.
         -6    1    1    2    0  503  0.23280892988E+02  0.35207615969E+02 -0.24132369300E+03  0.29933710262E+03  0.17200000000E+03 0.  1.
<mgrwt>
<rscale>  2 0.17710329E+03</rscale>
<asrwt>0</asrwt>
<pdfrwt beam="1">  1       21 0.11289175E-01 0.17710329E+03</pdfrwt>
<pdfrwt beam="2">  1       21 0.18896644E+00 0.17710329E+03</pdfrwt>
<totfact> 0.10503899E+04</totfact>
</mgrwt>
</event>
<event>
 4    1  0.2299148E-001  0.2206381E+03  0.7546771E-02  0.1133408E+00
         21   -1    0    0  503  502  0.00000000000E+00  0.00000000000E+00  0.27586749568E+03  0.27586749568E+03  0.00000000000E+00 0. -1.
         21   -1    0    0  501  503 -0.00000000000E+00 -0.00000000000E+00 -0.18131049824E+03  0.18131049824E+03  0.00000000000E+00 0. -1.
          6    1    1    2  501    0 -0.13188899270E+03  0.41260994220E+02  0.84644582433E+02  0.23631733194E+03  0.17200000000E+03 0. -1.
         -6    1    1    2    0  502  0.13188899270E+03 -0.41260994220E+02  0.99124150119E+01  0.22086066198E+03  0.17200000000E+03 0. -1.
<mgrwt>
<rscale>  2 0.22063811E+03</rscale>
<asrwt>0</asrwt>
<pdfrwt beam="1">  1       21 0.68966873E-01 0.22063811E+03</pdfrwt>
<pdfrwt beam="2">  1       21 0.45327625E-01 0.22063811E+03</pdfrwt>
<totfact> 0.87691060E+03</totfact>
</mgrwt>
</event>
<event>
 4    1  0.2299148E-001  0.2062366E+03  0.7546771E-02  0.1144581E+00
         21   -1    0    0  501  502  0.00000000000E+00  0.00000000000E+00  0.36182774814E+03  0.36182774814E+03  0.00000000000E+00 0. -1.
         21   -1    0    0  502  503 -0.00000000000E+00 -0.00000000000E+00 -0.15303118878E+03  0.15303118878E+03  0.00000000000E+00 0. -1.
          6    1    1    2  501    0 -0.88277472504E+02  0.71809625266E+02  0.22835093036E+03  0.30769738677E+03  0.17200000000E+03 0.  1.
         -6    1    1    2    0  503  0.88277472504E+02 -0.71809625266E+02 -0.19554370993E+02  0.20716155014E+03  0.17200000000E+03 0.  1.
<mgrwt>
<rscale>  2 0.20623660E+03</rscale>
<asrwt>0</asrwt>
<pdfrwt beam="1">  1       21 0.90456935E-01 0.20623660E+03</pdfrwt>
<pdfrwt beam="2">  1       21 0.38257798E-01 0.20623660E+03</pdfrwt>
<totfact> 0.67725034E+03</totfact>
</mgrwt>
</event>
<event>
 4    1  0.2299148E-001  0.2834674E+03  0.7546771E-02  0.1093810E+00
         21   -1    0    0  503  502  0.00000000000E+00  0.00000000000E+00  0.16263965689E+04  0.16263965689E+04  0.00000000000E+00 0. -1.
         21   -1    0    0  501  503 -0.00000000000E+00 -0.00000000000E+00 -0.50470356608E+02  0.50470356608E+02  0.00000000000E+00 0. -1.
          6    1    1    2  501    0  0.21901583155E+03  0.52932196206E+02  0.90972001749E+03  0.95286109276E+03  0.17200000000E+03 0. -1.
         -6    1    1    2    0  502 -0.21901583155E+03 -0.52932196206E+02  0.66620619476E+03  0.72400583271E+03  0.17200000000E+03 0. -1.
<mgrwt>
<rscale>  2 0.28346737E+03</rscale>
<asrwt>0</asrwt>
<pdfrwt beam="1">  1       21 0.40659897E+00 0.28346737E+03</pdfrwt>
<pdfrwt beam="2">  1       21 0.12617595E-01 0.28346737E+03</pdfrwt>
<totfact> 0.37569683E+02</totfact>
</mgrwt>
</event>
<event>
 4    1  0.2299148E-001  0.1954279E+03  0.7546771E-02  0.1153655E+00
         21   -1    0    0  501  502  0.00000000000E+00  0.00000000000E+00  0.68552159052E+03  0.68552159052E+03  0.00000000000E+00 0.  1.
         21   -1    0    0  502  503 -0.00000000000E+00 -0.00000000000E+00 -0.83474812979E+02  0.83474812979E+02  0.00000000000E+00 0. -1.
          6    1    1    2  501    0 -0.90882942569E+02  0.18663943248E+02  0.52276398071E+03  0.55809876506E+03  0.17200000000E+03 0.  1.
         -6    1    1    2    0  503  0.90882942569E+02 -0.18663943248E+02  0.79282796827E+02  0.21089763844E+03  0.17200000000E+03 0.  1.
<mgrwt>
<rscale>  2 0.19542787E+03</rscale>
<asrwt>0</asrwt>
<pdfrwt beam="1">  1       21 0.17138038E+00 0.19542787E+03</pdfrwt>
<pdfrwt beam="2">  1       21 0.20868705E-01 0.19542787E+03</pdfrwt>
<totfact> 0.44375686E+03</totfact>
</mgrwt>
</event>
<event>
 4    1  0.2299148E-001  0.1788613E+03  0.7546771E-02  0.1168910E+00
         21   -1    0    0  501  502  0.00000000000E+00  0.00000000000E+00  0.16399055387E+03  0.16399055387E+03  0.00000000000E+00 0. -1.
         21   -1    0    0  502  503 -0.00000000000E+00 -0.00000000000E+00 -0.19572637140E+03  0.19572637140E+03  0.00000000000E+00 0. -1.
          6    1    1    2  501    0 -0.16069642423E+02 -0.46358557055E+02 -0.55355427554E+01  0.17894689562E+03  0.17200000000E+03 0. -1.
         -6    1    1    2    0  503  0.16069642423E+02  0.46358557055E+02 -0.26200274778E+02  0.18077002965E+03  0.17200000000E+03 0. -1.
<mgrwt>
<rscale>  2 0.17886126E+03</rscale>
<asrwt>0</asrwt>
<pdfrwt beam="1">  1       21 0.40997639E-01 0.17886126E+03</pdfrwt>
<pdfrwt beam="2">  1       21 0.48931593E-01 0.17886126E+03</pdfrwt>
<totfact> 0.23022894E+04</totfact>
</mgrwt>
</event>
<event>
 4    1  0.2299148E-001  0.2167178E+03  0.7546771E-02  0.1136354E+00
         21   -1    0    0  503  502  0.00000000000E+00  0.00000000000E+00  0.22116030524E+03  0.22116030524E+03  0.00000000000E+00 0.  1.
         21   -1    0    0  501  503 -0.00000000000E+00 -0.00000000000E+00 -0.22048292845E+03  0.22048292845E+03  0.00000000000E+00 0. -1.
          6    1    1    2  501    0  0.12038200572E+03 -0.53766039904E+02 -0.42034199531E+02  0.22075662680E+03  0.17200000000E+03 0. -1.
         -6    1    1    2    0  502 -0.12038200572E+03  0.53766039904E+02  0.42711576321E+02  0.22088660688E+03  0.17200000000E+03 0. -1.
<mgrwt>
<rscale>  2 0.21671782E+03</rscale>
<asrwt>0</asrwt>
<pdfrwt beam="1">  1       21 0.55290076E-01 0.21671782E+03</pdfrwt>
<pdfrwt beam="2">  1       21 0.55120732E-01 0.21671782E+03</pdfrwt>
<totfact> 0.94220205E+03</totfact>
</mgrwt>
</event>
<event>
 4    1  0.2299148E-001  0.2541672E+03  0.7546771E-02  0.1110699E+00
         21   -1    0    0  503  502  0.00000000000E+00  0.00000000000E+00  0.27343629097E+03  0.27343629097E+03  0.00000000000E+00 0. -1.
         21   -1    0    0  501  503 -0.00000000000E+00 -0.00000000000E+00 -0.24226573470E+03  0.24226573470E+03  0.00000000000E+00 0. -1.
          6    1    1    2  501    0  0.14175904536E+03  0.12215295860E+03 -0.25026261488E+02  0.25539633122E+03  0.17200000000E+03 0. -1.
         -6    1    1    2    0  502 -0.14175904536E+03 -0.12215295860E+03  0.56196817765E+02  0.26030569445E+03  0.17200000000E+03 0. -1.
<mgrwt>
<rscale>  2 0.25416721E+03</rscale>
<asrwt>0</asrwt>
<pdfrwt beam="1">  1       21 0.68359073E-01 0.25416721E+03</pdfrwt>
<pdfrwt beam="2">  1       21 0.60566434E-01 0.25416721E+03</pdfrwt>
<totfact> 0.47480238E+03</totfact>
</mgrwt>
</event>
<event>
 4    1  0.2299148E-001  0.2572681E+03  0.7546771E-02  0.1108796E+00
         21   -1    0    0  501  502  0.00000000000E+00  0.00000000000E+00  0.37607212603E+03  0.37607212603E+03  0.00000000000E+00 0.  1.
         21   -1    0    0  502  503 -0.00000000000E+00 -0.00000000000E+00 -0.26712405950E+03  0.26712405950E+03  0.00000000000E+00 0.  1.
          6    1    1    2  501    0 -0.14860005758E+02  0.19074083686E+03  0.24231267721E+03  0.35341522343E+03  0.17200000000E+03 0.  1.
         -6    1    1    2    0  503  0.14860005758E+02 -0.19074083686E+03 -0.13336461067E+03  0.28978096210E+03  0.17200000000E+03 0.  1.
<mgrwt>
<rscale>  2 0.25726812E+03</rscale>
<asrwt>0</asrwt>
<pdfrwt beam="1">  1       21 0.94018031E-01 0.25726812E+03</pdfrwt>
<pdfrwt beam="2">  1       21 0.66781015E-01 0.25726812E+03</pdfrwt>
<totfact> 0.18508004E+03</totfact>
</mgrwt>
</event>
<event>
 4    1  0.2299148E-001  0.1901429E+03  0.7546771E-02  0.1158333E+00
         21   -1    0    0  501  502  0.00000000000E+00  0.00000000000E+00  0.26854056272E+03  0.26854056272E+03  0.00000000000E+00 0.  1.
         21   -1    0    0  502  503 -0.00000000000E+00 -0.00000000000E+00 -0.13853058688E+03  0.13853058688E+03  0.00000000000E+00 0.  1.
          6    1    1    2  501    0 -0.80365871082E+02 -0.10566318390E+02  0.30863188983E+02  0.19263140126E+03  0.17200000000E+03 0.  1.
         -6    1    1    2    0  503  0.80365871082E+02  0.10566318390E+02  0.99146786860E+02  0.21443974833E+03  0.17200000000E+03 0.  1.
<mgrwt>
<rscale>  2 0.19014289E+03</rscale>
<asrwt>0</asrwt>
<pdfrwt beam="1">  1       21 0.67135140E-01 0.19014289E+03</pdfrwt>
<pdfrwt beam="2">  1       21 0.34632647E-01 0.19014289E+03</pdfrwt>
<totfact> 0.16347056E+04</totfact>
</mgrwt>
</event>
<event>
 4    1  0.2299148E-001  0.2106240E+03  0.7546771E-02  0.1141073E+00
         21   -1    0    0  503  502  0.00000000000E+00  0.00000000000E+00  0.18788945089E+03  0.18788945089E+03  0.00000000000E+00 0. -1.
         21   -1    0    0  501  503 -0.00000000000E+00 -0.00000000000E+00 -0.24732523031E+03  0.24732523031E+03  0.00000000000E+00 0. -1.
          6    1    1    2  501    0  0.11356279918E+03  0.43381763714E+02 -0.76057550893E+02  0.22393578952E+03  0.17200000000E+03 0. -1.
         -6    1    1    2    0  502 -0.11356279918E+03 -0.43381763714E+02  0.16621771480E+02  0.21127889168E+03  0.17200000000E+03 0. -1.
<mgrwt>
<rscale>  2 0.21062404E+03</rscale>
<asrwt>0</asrwt>
<pdfrwt beam="1">  1       21 0.46972363E-01 0.21062404E+03</pdfrwt>
<pdfrwt beam="2">  1       21 0.61831307E-01 0.21062404E+03</pdfrwt>
<totfact> 0.10408930E+04</totfact>
</mgrwt>
</event>
<event>
 4    1  0.2299148E-001  0.1930682E+03  0.7546771E-02  0.1155723E+00
         21   -1    0    0  503  502  0.00000000000E+00  0.00000000000E+00  0.99719036391E+02  0.99719036391E+02  0.00000000000E+00 0.  1.
         21   -1    0    0  501  503 -0.00000000000E+00 -0.00000000000E+00 -0.37499871183E+03  0.37499871183E+03  0.00000000000E+00 0.  1.
          6    1    1    2  501    0  0.17278608286E+02 -0.85981185738E+02 -0.15104066581E+03  0.24512975612E+03  0.17200000000E+03 0.  1.
         -6    1    1    2    0  502 -0.17278608286E+02  0.85981185738E+02 -0.12423900962E+03  0.22958799210E+03  0.17200000000E+03 0.  1.
<mgrwt>
<rscale>  2 0.19306816E+03</rscale>
<asrwt>0</asrwt>
<pdfrwt beam="1">  1       21 0.24929759E-01 0.19306816E+03</pdfrwt>
<pdfrwt beam="2">  1       21 0.93749677E-01 0.19306816E+03</pdfrwt>
<totfact> 0.14547560E+04</totfact>
</mgrwt>
</event>
<event>
 4    1  0.2299148E-001  0.1760459E+03  0.7546771E-02  0.1171686E+00
         21   -1    0    0  501  502  0.00000000000E+00  0.00000000000E+00  0.18185584967E+03  0.18185584967E+03  0.00000000000E+00 0.  1.
         21   -1    0    0  502  503 -0.00000000000E+00 -0.00000000000E+00 -0.24797405444E+03  0.24797405444E+03  0.00000000000E+00 0.  1.
          6    1    1    2  501    0 -0.27670781231E+02 -0.25347148002E+02  0.87129009247E+02  0.19642712210E+03  0.17200000000E+03 0.  1.
         -6    1    1    2    0  503  0.27670781231E+02  0.25347148002E+02 -0.15324721401E+03  0.23340278201E+03  0.17200000000E+03 0.  1.
<mgrwt>
<rscale>  2 0.17604587E+03</rscale>
<asrwt>0</asrwt>
<pdfrwt beam="1">  1       21 0.45463963E-01 0.17604587E+03</pdfrwt>
<pdfrwt beam="2">  1       21 0.61993513E-01 0.17604587E+03</pdfrwt>
<totfact> 0.11333406E+04</totfact>
</mgrwt>
</event>
<event>
 4    1  0.2299148E-001  0.3780638E+03  0.7546771E-02  0.1051652E+00
         21   -1    0    0  501  502  0.00000000000E+00  0.00000000000E+00  0.66190168855E+03  0.66190168855E+03  0.00000000000E+00 0.  1.
         21   -1    0    0  502  503 -0.00000000000E+00 -0.00000000000E+00 -0.21688015282E+03  0.21688015282E+03  0.00000000000E+00 0.  1.
          6    1    1    2  501    0  0.64436794607E+02 -0.33044834554E+03  0.19360825461E+03  0.42475447711E+03  0.17200000000E+03 0.  1.
         -6    1    1    2    0  503 -0.64436794607E+02  0.33044834554E+03  0.25141328112E+03  0.45402736426E+03  0.17200000000E+03 0.  1.
<mgrwt>
<rscale>  2 0.37806376E+03</rscale>
<asrwt>0</asrwt>
<pdfrwt beam="1">  1       21 0.16547542E+00 0.37806376E+03</pdfrwt>
<pdfrwt beam="2">  1       21 0.54220040E-01 0.37806376E+03</pdfrwt>
<totfact> 0.63871815E+02</totfact>
</mgrwt>
</event>
<event>
 4    1  0.2299148E-001  0.1921017E+03  0.7546771E-02  0.1156579E+00
         21   -1    0    0  501  502  0.00000000000E+00  0.00000000000E+00  0.20564548049E+04  0.20564548049E+04  0.00000000000E+00 0.  1.
         21   -1    0    0  502  503 -0.00000000000E+00 -0.00000000000E+00 -0.34455061174E+02  0.34455061174E+02  0.00000000000E+00 0.  1.
          6    1    1    2  501    0 -0.65981309298E+02 -0.54456617206E+02  0.17346910949E+04  0.17452954624E+04  0.17200000000E+03 0.  1.
         -6    1    1    2    0  503  0.65981309298E+02  0.54456617206E+02  0.28730864878E+03  0.34561440363E+03  0.17200000000E+03 0.  1.
<mgrwt>
<rscale>  2 0.19210168E+03</rscale>
<asrwt>0</asrwt>
<pdfrwt beam="1">  1       21 0.51411329E+00 0.19210168E+03</pdfrwt>
<pdfrwt beam="2">  1       21 0.86137722E-02 0.19210168E+03</pdfrwt>
<totfact> 0.15864743E+02</totfact>
</mgrwt>
</event>
<event>
 4    1  0.2299148E-001  0.1762801E+03  0.7546771E-02  0.1171453E+00
         21   -1    0    0  503  502  0.00000000000E+00  0.00000000000E+00  0.73789694240E+03  0.73789694240E+03  0.00000000000E+00 0. -1.
         21   -1    0    0  501  503 -0.00000000000E+00 -0.00000000000E+00 -0.42312547004E+02  0.42312547004E+02  0.00000000000E+00 0. -1.
          6    1    1    2  501    0  0.26934106592E+02 -0.27662784385E+02  0.32096802850E+03  0.36619004773E+03  0.17200000000E+03 0.  1.
         -6    1    1    2    0  502 -0.26934106592E+02  0.27662784385E+02  0.37461636689E+03  0.41401944167E+03  0.17200000000E+03 0.  1.
<mgrwt>
<rscale>  2 0.17628011E+03</rscale>
<asrwt>0</asrwt>
<pdfrwt beam="1">  1       21 0.18447419E+00 0.17628011E+03</pdfrwt>
<pdfrwt beam="2">  1       21 0.10578139E-01 0.17628011E+03</pdfrwt>
<totfact> 0.12633902E+04</totfact>
</mgrwt>
</event>
<event>
 4    1  0.2299148E-001  0.1732956E+03  0.7546771E-02  0.1174454E+00
         21   -1    0    0  503  502  0.00000000000E+00  0.00000000000E+00  0.18281917383E+02  0.18281917383E+02  0.00000000000E+00 0. -1.
         21   -1    0    0  501  503 -0.00000000000E+00 -0.00000000000E+00 -0.17761475956E+04  0.17761475956E+04  0.00000000000E+00 0. -1.
          6    1    1    2  501    0  0.12284535956E+02 -0.17217805592E+02 -0.63298512623E+03  0.65627854809E+03  0.17200000000E+03 0. -1.
         -6    1    1    2    0  502 -0.12284535956E+02  0.17217805592E+02 -0.11248805520E+04  0.11381509649E+04  0.17200000000E+03 0. -1.
<mgrwt>
<rscale>  2 0.17329559E+03</rscale>
<asrwt>0</asrwt>
<pdfrwt beam="1">  1       21 0.45704802E-02 0.17329559E+03</pdfrwt>
<pdfrwt beam="2">  1       21 0.44403682E+00 0.17329559E+03</pdfrwt>
<totfact> 0.14727201E+03</totfact>
</mgrwt>
</event>
<event>
 4    1  0.2299148E-001  0.1771304E+03  0.7546771E-02  0.1170609E+00
         21   -1    0    0  503  502  0.00000000000E+00  0.00000000000E+00  0.33706209090E+03  0.33706209090E+03  0.00000000000E+00 0. -1.
         21   -1    0    0  501  503 -0.00000000000E+00 -0.00000000000E+00 -0.12424226812E+03  0.12424226812E+03  0.00000000000E+00 0. -1.
          6    1    1    2  501    0  0.26833574529E+02 -0.32728274601E+02  0.22191672650E+03  0.28394051170E+03  0.17200000000E+03 0. -1.
         -6    1    1    2    0  502 -0.26833574529E+02  0.32728274601E+02 -0.90969037176E+01  0.17736384732E+03  0.17200000000E+03 0. -1.
<mgrwt>
<rscale>  2 0.17713041E+03</rscale>
<asrwt>0</asrwt>
<pdfrwt beam="1">  1       21 0.84265521E-01 0.17713041E+03</pdfrwt>
<pdfrwt beam="2">  1       21 0.31060568E-01 0.17713041E+03</pdfrwt>
<totfact> 0.12298988E+04</totfact>
</mgrwt>
</event>
<event>
 4    1  0.2299148E-001  0.1805868E+03  0.7546771E-02  0.1167236E+00
         21   -1    0    0  501  502  0.00000000000E+00  0.00000000000E+00  0.64001527221E+02  0.64001527221E+02  0.00000000000E+00 0.  1.
         21   -1    0    0  502  503 -0.00000000000E+00 -0.00000000000E+00 -0.50956426897E+03  0.50956426897E+03  0.00000000000E+00 0.  1.
          6    1    1    2  501    0  0.52639255582E+02  0.16021721674E+02 -0.22459523017E+03  0.28819195722E+03  0.17200000000E+03 0.  1.
         -6    1    1    2    0  503 -0.52639255582E+02 -0.16021721674E+02 -0.22096751158E+03  0.28537383897E+03  0.17200000000E+03 0.  1.
<mgrwt>
<rscale>  2 0.18058678E+03</rscale>
<asrwt>0</asrwt>
<pdfrwt beam="1">  1       21 0.16000382E-01 0.18058678E+03</pdfrwt>
<pdfrwt beam="2">  1       21 0.12739107E+00 0.18058678E+03</pdfrwt>
<totfact> 0.15990198E+04</totfact>
</mgrwt>
</event>
<event>
 4    1  0.2299148E-001  0.1734655E+03  0.7546771E-02  0.1174281E+00
         21   -1    0    0  501  502  0.00000000000E+00  0.00000000000E+00  0.32485217104E+03  0.32485217104E+03  0.00000000000E+00 0. -1.
         21   -1    0    0  502  503 -0.00000000000E+00 -0.00000000000E+00 -0.93801340651E+02  0.93801340651E+02  0.00000000000E+00 0. -1.
          6    1    1    2  501    0  0.88160200193E+01 -0.20701529309E+02  0.92109717140E+02  0.19640385820E+03  0.17200000000E+03 0. -1.
         -6    1    1    2    0  503 -0.88160200193E+01  0.20701529309E+02  0.13894111324E+03  0.22224965349E+03  0.17200000000E+03 0. -1.
<mgrwt>
<rscale>  2 0.17346549E+03</rscale>
<asrwt>0</asrwt>
<pdfrwt beam="1">  1       21 0.81213040E-01 0.17346549E+03</pdfrwt>
<pdfrwt beam="2">  1       21 0.23450336E-01 0.17346549E+03</pdfrwt>
<totfact> 0.23003433E+04</totfact>
</mgrwt>
</event>
<event>
 4    1  0.2299148E-001  0.2130907E+03  0.7546771E-02  0.1139142E+00
         21   -1    0    0  503  502  0.00000000000E+00  0.00000000000E+00  0.98228062497E+02  0.98228062497E+02  0.00000000000E+00 0. -1.
         21   -1    0    0  501  503 -0.00000000000E+00 -0.00000000000E+00 -0.56903949079E+03  0.56903949079E+03  0.00000000000E+00 0. -1.
          6    1    1    2  501    0 -0.17135805862E+02 -0.12461952296E+03 -0.37992541519E+03  0.43560415799E+03  0.17200000000E+03 0.  1.
         -6    1    1    2    0  502  0.17135805862E+02  0.12461952296E+03 -0.90886013095E+02  0.23166339530E+03  0.17200000000E+03 0.  1.
<mgrwt>
<rscale>  2 0.21309074E+03</rscale>
<asrwt>0</asrwt>
<pdfrwt beam="1">  1       21 0.24557016E-01 0.21309074E+03</pdfrwt>
<pdfrwt beam="2">  1       21 0.14225987E+00 0.21309074E+03</pdfrwt>
<totfact> 0.52922573E+03</totfact>
</mgrwt>
</event>
<event>
 4    1  0.2299148E-001  0.2290728E+03  0.7546771E-02  0.1127294E+00
         21   -1    0    0  501  502  0.00000000000E+00  0.00000000000E+00  0.89286409361E+03  0.89286409361E+03  0.00000000000E+00 0.  1.
         21   -1    0    0  502  503 -0.00000000000E+00 -0.00000000000E+00 -0.90052636684E+02  0.90052636684E+02  0.00000000000E+00 0.  1.
          6    1    1    2  501    0 -0.10007028338E+03  0.11347364447E+03  0.69106317326E+03  0.72804027295E+03  0.17200000000E+03 0.  1.
         -6    1    1    2    0  503  0.10007028338E+03 -0.11347364447E+03  0.11174828367E+03  0.25487645734E+03  0.17200000000E+03 0.  1.
<mgrwt>
<rscale>  2 0.22907276E+03</rscale>
<asrwt>0</asrwt>
<pdfrwt beam="1">  1       21 0.22321600E+00 0.22907276E+03</pdfrwt>
<pdfrwt beam="2">  1       21 0.22513162E-01 0.22907276E+03</pdfrwt>
<totfact> 0.17111026E+03</totfact>
</mgrwt>
</event>
<event>
 4    1  0.2299148E-001  0.1725660E+03  0.7546771E-02  0.1175198E+00
         21   -1    0    0  503  502  0.00000000000E+00  0.00000000000E+00  0.42227934132E+02  0.42227934132E+02  0.00000000000E+00 0. -1.
         21   -1    0    0  501  503 -0.00000000000E+00 -0.00000000000E+00 -0.70944201065E+03  0.70944201065E+03  0.00000000000E+00 0. -1.
          6    1    1    2  501    0  0.32067151557E+01  0.13591813409E+02 -0.30453546716E+03  0.35002981469E+03  0.17200000000E+03 0.  1.
         -6    1    1    2    0  502 -0.32067151557E+01 -0.13591813409E+02 -0.36267860936E+03  0.40164013009E+03  0.17200000000E+03 0.  1.
<mgrwt>
<rscale>  2 0.17256599E+03</rscale>
<asrwt>0</asrwt>
<pdfrwt beam="1">  1       21 0.10556984E-01 0.17256599E+03</pdfrwt>
<pdfrwt beam="2">  1       21 0.17736050E+00 0.17256599E+03</pdfrwt>
<totfact> 0.14205121E+04</totfact>
</mgrwt>
</event>
<event>
 4    1  0.2299148E-001  0.2329798E+03  0.7546771E-02  0.1124560E+00
         21   -1    0    0  503  502  0.00000000000E+00  0.00000000000E+00  0.29855474784E+03  0.29855474784E+03  0.00000000000E+00 0.  1.
         21   -1    0    0  501  503 -0.00000000000E+00 -0.00000000000E+00 -0.20189933302E+03  0.20189933302E+03  0.00000000000E+00 0.  1.
          6    1    1    2  501    0  0.15624776044E+03  0.16800089296E+02 -0.30607812694E+02  0.23498179470E+03  0.17200000000E+03 0.  1.
         -6    1    1    2    0  502 -0.15624776044E+03 -0.16800089296E+02  0.12726322751E+03  0.26547228616E+03  0.17200000000E+03 0.  1.
<mgrwt>
<rscale>  2 0.23297984E+03</rscale>
<asrwt>0</asrwt>
<pdfrwt beam="1">  1       21 0.74638687E-01 0.23297984E+03</pdfrwt>
<pdfrwt beam="2">  1       21 0.50474834E-01 0.23297984E+03</pdfrwt>
<totfact> 0.58338041E+03</totfact>
</mgrwt>
</event>
<event>
 4    1  0.2299148E-001  0.1765836E+03  0.7546771E-02  0.1171151E+00
         21   -1    0    0  501  502  0.00000000000E+00  0.00000000000E+00  0.40747444331E+03  0.40747444331E+03  0.00000000000E+00 0. -1.
         21   -1    0    0  502  503 -0.00000000000E+00 -0.00000000000E+00 -0.76678713496E+02  0.76678713496E+02  0.00000000000E+00 0. -1.
          6    1    1    2  501    0 -0.66016047292E+01  0.39422954920E+02  0.17625640621E+03  0.24949563381E+03  0.17200000000E+03 0. -1.
         -6    1    1    2    0  503  0.66016047292E+01 -0.39422954920E+02  0.15453932361E+03  0.23465752300E+03  0.17200000000E+03 0. -1.
<mgrwt>
<rscale>  2 0.17658355E+03</rscale>
<asrwt>0</asrwt>
<pdfrwt beam="1">  1       21 0.10186860E+00 0.17658355E+03</pdfrwt>
<pdfrwt beam="2">  1       21 0.19169679E-01 0.17658355E+03</pdfrwt>
<totfact> 0.19822862E+04</totfact>
</mgrwt>
</event>
<event>
 4    1  0.2299148E-001  0.1856336E+03  0.7546771E-02  0.1162460E+00
         21   -1    0    0  501  502  0.00000000000E+00  0.00000000000E+00  0.88092597734E+02  0.88092597734E+02  0.00000000000E+00 0.  1.
         21   -1    0    0  502  503 -0.00000000000E+00 -0.00000000000E+00 -0.39137704755E+03  0.39137704755E+03  0.00000000000E+00 0.  1.
          6    1    1    2  501    0  0.65583409988E+02 -0.23971748738E+02 -0.15705757324E+03  0.24316025521E+03  0.17200000000E+03 0.  1.
         -6    1    1    2    0  503 -0.65583409988E+02  0.23971748738E+02 -0.14622687658E+03  0.23630939008E+03  0.17200000000E+03 0.  1.
<mgrwt>
<rscale>  2 0.18563359E+03</rscale>
<asrwt>0</asrwt>
<pdfrwt beam="1">  1       21 0.22023150E-01 0.18563359E+03</pdfrwt>
<pdfrwt beam="2">  1       21 0.97844261E-01 0.18563359E+03</pdfrwt>
<totfact> 0.16725867E+04</totfact>
</mgrwt>
</event>
<event>
 4    1  0.2299148E-001  0.1904277E+03  0.7546771E-02  0.1158076E+00
         21   -1    0    0  501  502  0.00000000000E+00  0.00000000000E+00  0.33213584266E+03  0.33213584266E+03  0.00000000000E+00 0.  1.
         21   -1    0    0  502  503 -0.00000000000E+00 -0.00000000000E+00 -0.11765633706E+03  0.11765633706E+03  0.00000000000E+00 0.  1.
          6    1    1    2  501    0 -0.80990050740E+02 -0.10923849128E+02  0.46877072221E+02  0.19611266838E+03  0.17200000000E+03 0.  1.
         -6    1    1    2    0  503  0.80990050740E+02  0.10923849128E+02  0.16760243339E+03  0.25367951134E+03  0.17200000000E+03 0.  1.
<mgrwt>
<rscale>  2 0.19042773E+03</rscale>
<asrwt>0</asrwt>
<pdfrwt beam="1">  1       21 0.83033959E-01 0.19042773E+03</pdfrwt>
<pdfrwt beam="2">  1       21 0.29414085E-01 0.19042773E+03</pdfrwt>
<totfact> 0.14017220E+04</totfact>
</mgrwt>
</event>
<event>
 4    1  0.2299148E-001  0.1773669E+03  0.7546771E-02  0.1170376E+00
         21   -1    0    0  503  502  0.00000000000E+00  0.00000000000E+00  0.15511069206E+03  0.15511069206E+03  0.00000000000E+00 0. -1.
         21   -1    0    0  501  503 -0.00000000000E+00 -0.00000000000E+00 -0.28489435750E+03  0.28489435750E+03  0.00000000000E+00 0.  1.
          6    1    1    2  501    0  0.33313779910E+02  0.27662251435E+02 -0.18297792189E+03  0.25483313753E+03  0.17200000000E+03 0.  1.
         -6    1    1    2    0  502 -0.33313779910E+02 -0.27662251435E+02  0.53194256445E+02  0.18517191203E+03  0.17200000000E+03 0. -1.
<mgrwt>
<rscale>  2 0.17736687E+03</rscale>
<asrwt>0</asrwt>
<pdfrwt beam="1">  1       21 0.38777673E-01 0.17736687E+03</pdfrwt>
<pdfrwt beam="2">  1       21 0.71223589E-01 0.17736687E+03</pdfrwt>
<totfact> 0.11554940E+04</totfact>
</mgrwt>
</event>
<event>
 4    1  0.2299148E-001  0.1868771E+03  0.7546771E-02  0.1161308E+00
         21   -1    0    0  501  502  0.00000000000E+00  0.00000000000E+00  0.36160989108E+02  0.36160989108E+02  0.00000000000E+00 0.  1.
         21   -1    0    0  502  503 -0.00000000000E+00 -0.00000000000E+00 -0.97279490677E+03  0.97279490677E+03  0.00000000000E+00 0.  1.
          6    1    1    2  501    0  0.50444749081E+02  0.52861963898E+02 -0.51119848141E+03  0.54428572215E+03  0.17200000000E+03 0.  1.
         -6    1    1    2    0  503 -0.50444749081E+02 -0.52861963898E+02 -0.42543543626E+03  0.46467017374E+03  0.17200000000E+03 0.  1.
<mgrwt>
<rscale>  2 0.18687713E+03</rscale>
<asrwt>0</asrwt>
<pdfrwt beam="1">  1       21 0.90402473E-02 0.18687713E+03</pdfrwt>
<pdfrwt beam="2">  1       21 0.24319873E+00 0.18687713E+03</pdfrwt>
<totfact> 0.71090708E+03</totfact>
</mgrwt>
</event>
<event>
 4    1  0.2299148E-001  0.1957172E+03  0.7546771E-02  0.1153404E+00
         21   -1    0    0  501  502  0.00000000000E+00  0.00000000000E+00  0.15312804996E+03  0.15312804996E+03  0.00000000000E+00 0. -1.
         21   -1    0    0  502  503 -0.00000000000E+00 -0.00000000000E+00 -0.34515990519E+03  0.34515990519E+03  0.00000000000E+00 0.  1.
          6    1    1    2  501    0  0.75613671185E+02 -0.54807037845E+02  0.34697688716E+02  0.19876913309E+03  0.17200000000E+03 0.  1.
         -6    1    1    2    0  503 -0.75613671185E+02  0.54807037845E+02 -0.22672954395E+03  0.29951882206E+03  0.17200000000E+03 0. -1.
<mgrwt>
<rscale>  2 0.19571724E+03</rscale>
<asrwt>0</asrwt>
<pdfrwt beam="1">  1       21 0.38282013E-01 0.19571724E+03</pdfrwt>
<pdfrwt beam="2">  1       21 0.86289976E-01 0.19571724E+03</pdfrwt>
<totfact> 0.76004543E+03</totfact>
</mgrwt>
</event>
<event>
 4    1  0.2299148E-001  0.1902552E+03  0.7546771E-02  0.1158231E+00
         21   -1    0    0  503  502  0.00000000000E+00  0.00000000000E+00  0.14275377589E+03  0.14275377589E+03  0.00000000000E+00 0.  1.
         21   -1    0    0  501  503 -0.00000000000E+00 -0.00000000000E+00 -0.33838445504E+03  0.33838445504E+03  0.00000000000E+00 0.  1.
          6    1    1    2  501    0  0.74175729471E+02  0.33331962493E+02 -0.21826007870E+03  0.28954191496E+03  0.17200000000E+03 0.  1.
         -6    1    1    2    0  502 -0.74175729471E+02 -0.33331962493E+02  0.22629399548E+02  0.19159631596E+03  0.17200000000E+03 0.  1.
<mgrwt>
<rscale>  2 0.19025525E+03</rscale>
<asrwt>0</asrwt>
<pdfrwt beam="1">  1       21 0.35688444E-01 0.19025525E+03</pdfrwt>
<pdfrwt beam="2">  1       21 0.84596113E-01 0.19025525E+03</pdfrwt>
<totfact> 0.91865817E+03</totfact>
</mgrwt>
</event>
<event>
 4    1  0.2299148E-001  0.1976385E+03  0.7546771E-02  0.1151747E+00
         21   -1    0    0  501  502  0.00000000000E+00  0.00000000000E+00  0.77060827456E+02  0.77060827456E+02  0.00000000000E+00 0. -1.
         21   -1    0    0  502  503 -0.00000000000E+00 -0.00000000000E+00 -0.50801955796E+03  0.50801955796E+03  0.00000000000E+00 0.  1.
          6    1    1    2  501    0  0.83551748177E+02  0.49960663907E+02 -0.20165338817E+03  0.28235624930E+03  0.17200000000E+03 0. -1.
         -6    1    1    2    0  503 -0.83551748177E+02 -0.49960663907E+02 -0.22930534234E+03  0.30272413612E+03  0.17200000000E+03 0. -1.
<mgrwt>
<rscale>  2 0.19763846E+03</rscale>
<asrwt>0</asrwt>
<pdfrwt beam="1">  1       21 0.19265207E-01 0.19763846E+03</pdfrwt>
<pdfrwt beam="2">  1       21 0.12700489E+00 0.19763846E+03</pdfrwt>
<totfact> 0.11305145E+04</totfact>
</mgrwt>
</event>
<event>
 4    1  0.2299148E-001  0.2382145E+03  0.7546771E-02  0.1120988E+00
         21   -1    0    0  503  502  0.00000000000E+00  0.00000000000E+00  0.22021681927E+03  0.22021681927E+03  0.00000000000E+00 0.  1.
         21   -1    0    0  501  503 -0.00000000000E+00 -0.00000000000E+00 -0.28898100898E+03  0.28898100898E+03  0.00000000000E+00 0. -1.
          6    1    1    2  501    0 -0.12581760586E+03 -0.10645221943E+03  0.49405514567E+02  0.24328388733E+03  0.17200000000E+03 0.  1.
         -6    1    1    2    0  502  0.12581760586E+03  0.10645221943E+03 -0.11816970427E+03  0.26591394092E+03  0.17200000000E+03 0. -1.
<mgrwt>
<rscale>  2 0.23821449E+03</rscale>
<asrwt>0</asrwt>
<pdfrwt beam="1">  1       21 0.55054205E-01 0.23821449E+03</pdfrwt>
<pdfrwt beam="2">  1       21 0.72245252E-01 0.23821449E+03</pdfrwt>
<totfact> 0.52055909E+03</totfact>
</mgrwt>
</event>
<event>
 4    1  0.2299148E-001  0.2020786E+03  0.7546771E-02  0.1147997E+00
         21   -1    0    0  503  502  0.00000000000E+00  0.00000000000E+00  0.16146252930E+03  0.16146252930E+03  0.00000000000E+00 0. -1.
         21   -1    0    0  501  503 -0.00000000000E+00 -0.00000000000E+00 -0.45701587757E+03  0.45701587757E+03  0.00000000000E+00 0.  1.
          6    1    1    2  501    0  0.10338068895E+03  0.23752417806E+02 -0.35443598221E+03  0.40799584518E+03  0.17200000000E+03 0.  1.
         -6    1    1    2    0  502 -0.10338068895E+03 -0.23752417806E+02  0.58882633936E+02  0.21048256170E+03  0.17200000000E+03 0. -1.
<mgrwt>
<rscale>  2 0.20207856E+03</rscale>
<asrwt>0</asrwt>
<pdfrwt beam="1">  1       21 0.40365633E-01 0.20207856E+03</pdfrwt>
<pdfrwt beam="2">  1       21 0.11425397E+00 0.20207856E+03</pdfrwt>
<totfact> 0.34944446E+03</totfact>
</mgrwt>
</event>
<event>
 4    1  0.2299148E-001  0.1953188E+03  0.7546771E-02  0.1153750E+00
         21   -1    0    0  503  502  0.00000000000E+00  0.00000000000E+00  0.67390035513E+03  0.67390035513E+03  0.00000000000E+00 0.  1.
         21   -1    0    0  501  503 -0.00000000000E+00 -0.00000000000E+00 -0.56629778963E+02  0.56629778963E+02  0.00000000000E+00 0.  1.
          6    1    1    2  501    0 -0.89995004878E+02 -0.21594576007E+02  0.31548015777E+03  0.37104872532E+03  0.17200000000E+03 0.  1.
         -6    1    1    2    0  502  0.89995004878E+02  0.21594576007E+02  0.30179041840E+03  0.35948140878E+03  0.17200000000E+03 0.  1.
<mgrwt>
<rscale>  2 0.19531878E+03</rscale>
<asrwt>0</asrwt>
<pdfrwt beam="1">  1       21 0.16847506E+00 0.19531878E+03</pdfrwt>
<pdfrwt beam="2">  1       21 0.14157447E-01 0.19531878E+03</pdfrwt>
<totfact> 0.95105457E+03</totfact>
</mgrwt>
</event>
<event>
 4    1  0.2299148E-001  0.1867910E+03  0.7546771E-02  0.1161388E+00
         21   -1    0    0  501  502  0.00000000000E+00  0.00000000000E+00  0.12893079453E+03  0.12893079453E+03  0.00000000000E+00 0.  1.
         21   -1    0    0  502  503 -0.00000000000E+00 -0.00000000000E+00 -0.30618155718E+03  0.30618155718E+03  0.00000000000E+00 0.  1.
          6    1    1    2  501    0  0.43722780840E+02 -0.58268172688E+02 -0.14478863113E+02  0.18735127165E+03  0.17200000000E+03 0.  1.
         -6    1    1    2    0  503 -0.43722780840E+02  0.58268172688E+02 -0.16277189954E+03  0.24776108006E+03  0.17200000000E+03 0.  1.
<mgrwt>
<rscale>  2 0.18679096E+03</rscale>
<asrwt>0</asrwt>
<pdfrwt beam="1">  1       21 0.32232699E-01 0.18679096E+03</pdfrwt>
<pdfrwt beam="2">  1       21 0.76545389E-01 0.18679096E+03</pdfrwt>
<totfact> 0.14118665E+04</totfact>
</mgrwt>
</event>
<event>
 4    1  0.2299148E-001  0.1891723E+03  0.7546771E-02  0.1159210E+00
         21   -1    0    0  501  502  0.00000000000E+00  0.00000000000E+00  0.90395752321E+02  0.90395752321E+02  0.00000000000E+00 0. -1.
         21   -1    0    0  502  503 -0.00000000000E+00 -0.00000000000E+00 -0.70496117470E+03  0.70496117470E+03  0.00000000000E+00 0. -1.
          6    1    1    2  501    0  0.37011604201E+02 -0.69514850547E+02 -0.43962984403E+02  0.19421358678E+03  0.17200000000E+03 0. -1.
         -6    1    1    2    0  503 -0.37011604201E+02  0.69514850547E+02 -0.57060243798E+03  0.60114334024E+03  0.17200000000E+03 0. -1.
<mgrwt>
<rscale>  2 0.18917234E+03</rscale>
<asrwt>0</asrwt>
<pdfrwt beam="1">  1       21 0.22598939E-01 0.18917234E+03</pdfrwt>
<pdfrwt beam="2">  1       21 0.17624029E+00 0.18917234E+03</pdfrwt>
<totfact> 0.35543107E+03</totfact>
</mgrwt>
</event>
<event>
 4    1  0.2299148E-001  0.1825855E+03  0.7546771E-02  0.1165324E+00
         21   -1    0    0  503  502  0.00000000000E+00  0.00000000000E+00  0.72102758352E+02  0.72102758352E+02  0.00000000000E+00 0.  1.
         21   -1    0    0  501  503 -0.00000000000E+00 -0.00000000000E+00 -0.57943887241E+03  0.57943887241E+03  0.00000000000E+00 0.  1.
          6    1    1    2  501    0  0.13687667870E+02  0.59716872270E+02 -0.40010375613E+03  0.43979594445E+03  0.17200000000E+03 0.  1.
         -6    1    1    2    0  502 -0.13687667870E+02 -0.59716872270E+02 -0.10723235793E+03  0.21174568631E+03  0.17200000000E+03 0.  1.
<mgrwt>
<rscale>  2 0.18258548E+03</rscale>
<asrwt>0</asrwt>
<pdfrwt beam="1">  1       21 0.18025690E-01 0.18258548E+03</pdfrwt>
<pdfrwt beam="2">  1       21 0.14485972E+00 0.18258548E+03</pdfrwt>
<totfact> 0.92414569E+03</totfact>
</mgrwt>
</event>
<event>
 4    1  0.2299148E-001  0.2118200E+03  0.7546771E-02  0.1140133E+00
         21   -1    0    0  503  502  0.00000000000E+00  0.00000000000E+00  0.13204455869E+03  0.13204455869E+03  0.00000000000E+00 0.  1.
         21   -1    0    0  501  503 -0.00000000000E+00 -0.00000000000E+00 -0.34029360094E+03  0.34029360094E+03  0.00000000000E+00 0.  1.
          6    1    1    2  501    0  0.12346622944E+03  0.63092583328E+01 -0.95059458429E+02  0.23217238679E+03  0.17200000000E+03 0.  1.
         -6    1    1    2    0  502 -0.12346622944E+03 -0.63092583328E+01 -0.11318958382E+03  0.24016577283E+03  0.17200000000E+03 0.  1.
<mgrwt>
<rscale>  2 0.21182001E+03</rscale>
<asrwt>0</asrwt>
<pdfrwt beam="1">  1       21 0.33011140E-01 0.21182001E+03</pdfrwt>
<pdfrwt beam="2">  1       21 0.85073399E-01 0.21182001E+03</pdfrwt>
<totfact> 0.10428489E+04</totfact>
</mgrwt>
</event>
<event>
 4    1  0.2299148E-001  0.1998328E+03  0.7546771E-02  0.1149880E+00
         21   -1    0    0  503  502  0.00000000000E+00  0.00000000000E+00  0.24068575614E+03  0.24068575614E+03  0.00000000000E+00 0. -1.
         21   -1    0    0  501  503 -0.00000000000E+00 -0.00000000000E+00 -0.16594347667E+03  0.16594347667E+03  0.00000000000E+00 0.  1.
          6    1    1    2  501    0  0.76844956934E+02  0.66663212455E+02  0.40081881267E+02  0.20381287621E+03  0.17200000000E+03 0.  1.
         -6    1    1    2    0  502 -0.76844956934E+02 -0.66663212455E+02  0.34660398209E+02  0.20281635660E+03  0.17200000000E+03 0. -1.
<mgrwt>
<rscale>  2 0.19983276E+03</rscale>
<asrwt>0</asrwt>
<pdfrwt beam="1">  1       21 0.60171439E-01 0.19983276E+03</pdfrwt>
<pdfrwt beam="2">  1       21 0.41485869E-01 0.19983276E+03</pdfrwt>
<totfact> 0.14341435E+04</totfact>
</mgrwt>
</event>
<event>
 4    1  0.2299148E-001  0.1760990E+03  0.7546771E-02  0.1171633E+00
         21   -1    0    0  501  502  0.00000000000E+00  0.00000000000E+00  0.16320250417E+03  0.16320250417E+03  0.00000000000E+00 0.  1.
         21   -1    0    0  502  503 -0.00000000000E+00 -0.00000000000E+00 -0.22060063576E+03  0.22060063576E+03  0.00000000000E+00 0.  1.
          6    1    1    2  501    0  0.36034883691E+02 -0.11329495634E+02  0.42756527913E+02  0.18121531666E+03  0.17200000000E+03 0.  1.
         -6    1    1    2    0  503 -0.36034883691E+02  0.11329495634E+02 -0.10015465951E+03  0.20258782326E+03  0.17200000000E+03 0.  1.
<mgrwt>
<rscale>  2 0.17609904E+03</rscale>
<asrwt>0</asrwt>
<pdfrwt beam="1">  1       21 0.40800626E-01 0.17609904E+03</pdfrwt>
<pdfrwt beam="2">  1       21 0.55150158E-01 0.17609904E+03</pdfrwt>
<totfact> 0.18129932E+04</totfact>
</mgrwt>
</event>
<event>
 4    1  0.2299148E-001  0.1720140E+03  0.7546771E-02  0.1175764E+00
         21   -1    0    0  503  502  0.00000000000E+00  0.00000000000E+00  0.13041779762E+03  0.13041779762E+03  0.00000000000E+00 0. -1.
         21   -1    0    0  501  503 -0.00000000000E+00 -0.00000000000E+00 -0.24844573034E+03  0.24844573034E+03  0.00000000000E+00 0. -1.
          6    1    1    2  501    0 -0.71470113543E+00  0.20723972520E+01 -0.11482869119E+03  0.20681981034E+03  0.17200000000E+03 0. -1.
         -6    1    1    2    0  502  0.71470113543E+00 -0.20723972520E+01 -0.31992415269E+01  0.17204371763E+03  0.17200000000E+03 0. -1.
<mgrwt>
<rscale>  2 0.17201397E+03</rscale>
<asrwt>0</asrwt>
<pdfrwt beam="1">  1       21 0.32604449E-01 0.17201397E+03</pdfrwt>
<pdfrwt beam="2">  1       21 0.62111432E-01 0.17201397E+03</pdfrwt>
<totfact> 0.22044228E+04</totfact>
</mgrwt>
</event>
<event>
 4    1  0.2299148E-001  0.2041067E+03  0.7546771E-02  0.1146320E+00
         21   -1    0    0  501  502  0.00000000000E+00  0.00000000000E+00  0.57115908084E+03  0.57115908084E+03  0.00000000000E+00 0. -1.
         21   -1    0    0  502  503 -0.00000000000E+00 -0.00000000000E+00 -0.74330805987E+02  0.74330805987E+02  0.00000000000E+00 0. -1.
          6    1    1    2  501    0 -0.10904072088E+03  0.13625548235E+02  0.20424394103E+03  0.28874750531E+03  0.17200000000E+03 0. -1.
         -6    1    1    2    0  503  0.10904072088E+03 -0.13625548235E+02  0.29258433383E+03  0.35674238152E+03  0.17200000000E+03 0. -1.
<mgrwt>
<rscale>  2 0.20410667E+03</rscale>
<asrwt>0</asrwt>
<pdfrwt beam="1">  1       21 0.14278976E+00 0.20410667E+03</pdfrwt>
<pdfrwt beam="2">  1       21 0.18582703E-01 0.20410667E+03</pdfrwt>
<totfact> 0.89210002E+03</totfact>
</mgrwt>
</event>
<event>
 4    1  0.2299148E-001  0.1874255E+03  0.7546771E-02  0.1160804E+00
         21   -1    0    0  503  502  0.00000000000E+00  0.00000000000E+00  0.52565852190E+03  0.52565852190E+03  0.00000000000E+00 0. -1.
         21   -1    0    0  501  503 -0.00000000000E+00 -0.00000000000E+00 -0.67115197913E+02  0.67115197913E+02  0.00000000000E+00 0. -1.
          6    1    1    2  501    0 -0.29417293241E+02  0.68402810201E+02  0.20985861009E+03  0.28136978838E+03  0.17200000000E+03 0. -1.
         -6    1    1    2    0  502  0.29417293241E+02 -0.68402810201E+02  0.24868471389E+03  0.31140393143E+03  0.17200000000E+03 0. -1.
<mgrwt>
<rscale>  2 0.18742551E+03</rscale>
<asrwt>0</asrwt>
<pdfrwt beam="1">  1       21 0.13141462E+00 0.18742551E+03</pdfrwt>
<pdfrwt beam="2">  1       21 0.16778801E-01 0.18742551E+03</pdfrwt>
<totfact> 0.13490133E+04</totfact>
</mgrwt>
</event>
<event>
 4    1  0.2299148E-001  0.1861870E+03  0.7546771E-02  0.1161946E+00
         21   -1    0    0  503  502  0.00000000000E+00  0.00000000000E+00  0.62664741224E+03  0.62664741224E+03  0.00000000000E+00 0. -1.
         21   -1    0    0  501  503 -0.00000000000E+00 -0.00000000000E+00 -0.88288581004E+02  0.88288581004E+02  0.00000000000E+00 0. -1.
          6    1    1    2  501    0 -0.18295995296E+02 -0.68897382111E+02  0.50735112170E+02  0.19297576095E+03  0.17200000000E+03 0. -1.
         -6    1    1    2    0  502  0.18295995296E+02  0.68897382111E+02  0.48762371907E+03  0.52196023230E+03  0.17200000000E+03 0. -1.
<mgrwt>
<rscale>  2 0.18618698E+03</rscale>
<asrwt>0</asrwt>
<pdfrwt beam="1">  1       21 0.15666184E+00 0.18618698E+03</pdfrwt>
<pdfrwt beam="2">  1       21 0.22072147E-01 0.18618698E+03</pdfrwt>
<totfact> 0.51385689E+03</totfact>
</mgrwt>
</event>
<event>
 4    1  0.2299148E-001  0.2618343E+03  0.7546771E-02  0.1106046E+00
         21   -1    0    0  501  502  0.00000000000E+00  0.00000000000E+00  0.64996274893E+02  0.64996274893E+02  0.00000000000E+00 0. -1.
         21   -1    0    0  502  503 -0.00000000000E+00 -0.00000000000E+00 -0.13508201528E+04  0.13508201528E+04  0.00000000000E+00 0.  1.
          6    1    1    2  501    0 -0.12464998710E+03 -0.15308689957E+03 -0.31151503401E+03  0.40693836697E+03  0.17200000000E+03 0. -1.
         -6    1    1    2    0  503  0.12464998710E+03  0.15308689957E+03 -0.97430884388E+03  0.10088780607E+04  0.17200000000E+03 0.  1.
<mgrwt>
<rscale>  2 0.26183433E+03</rscale>
<asrwt>0</asrwt>
<pdfrwt beam="1">  1       21 0.16249069E-01 0.26183433E+03</pdfrwt>
<pdfrwt beam="2">  1       21 0.33770504E+00 0.26183433E+03</pdfrwt>
<totfact> 0.64107568E+02</totfact>
</mgrwt>
</event>
<event>
 4    1  0.2299148E-001  0.3031959E+03  0.7546771E-02  0.1083654E+00
         21   -1    0    0  503  502  0.00000000000E+00  0.00000000000E+00  0.83787522539E+02  0.83787522539E+02  0.00000000000E+00 0.  1.
         21   -1    0    0  501  503 -0.00000000000E+00 -0.00000000000E+00 -0.11029756231E+04  0.11029756231E+04  0.00000000000E+00 0.  1.
          6    1    1    2  501    0 -0.24710348500E+03  0.35827425743E+02 -0.55270704632E+03  0.63040686528E+03  0.17200000000E+03 0.  1.
         -6    1    1    2    0  502  0.24710348500E+03 -0.35827425743E+02 -0.46648105425E+03  0.55635628037E+03  0.17200000000E+03 0.  1.
<mgrwt>
<rscale>  2 0.30319587E+03</rscale>
<asrwt>0</asrwt>
<pdfrwt beam="1">  1       21 0.20946881E-01 0.30319587E+03</pdfrwt>
<pdfrwt beam="2">  1       21 0.27574390E+00 0.30319587E+03</pdfrwt>
<totfact> 0.88957612E+02</totfact>
</mgrwt>
</event>
<event>
 4    1  0.2299148E-001  0.1731589E+03  0.7546771E-02  0.1174593E+00
         21   -1    0    0  501  502  0.00000000000E+00  0.00000000000E+00  0.49739608178E+02  0.49739608178E+02  0.00000000000E+00 0. -1.
         21   -1    0    0  502  503 -0.00000000000E+00 -0.00000000000E+00 -0.60307631186E+03  0.60307631186E+03  0.00000000000E+00 0. -1.
          6    1    1    2  501    0 -0.80689867557E+01  0.18300525144E+02 -0.26993583496E+03  0.32070137630E+03  0.17200000000E+03 0. -1.
         -6    1    1    2    0  503  0.80689867557E+01 -0.18300525144E+02 -0.28340086873E+03  0.33211454374E+03  0.17200000000E+03 0. -1.
<mgrwt>
<rscale>  2 0.17315894E+03</rscale>
<asrwt>0</asrwt>
<pdfrwt beam="1">  1       21 0.12434902E-01 0.17315894E+03</pdfrwt>
<pdfrwt beam="2">  1       21 0.15076908E+00 0.17315894E+03</pdfrwt>
<totfact> 0.16464215E+04</totfact>
</mgrwt>
</event>
<event>
 4    1  0.2299148E-001  0.1823932E+03  0.7546771E-02  0.1165507E+00
         21   -1    0    0  501  502  0.00000000000E+00  0.00000000000E+00  0.11250267408E+04  0.11250267408E+04  0.00000000000E+00 0.  1.
         21   -1    0    0  502  503 -0.00000000000E+00 -0.00000000000E+00 -0.29809286221E+02  0.29809286221E+02  0.00000000000E+00 0.  1.
          6    1    1    2  501    0 -0.53737622154E+02 -0.28205452834E+02  0.59931945057E+03  0.62645916342E+03  0.17200000000E+03 0.  1.
         -6    1    1    2    0  503  0.53737622154E+02  0.28205452834E+02  0.49589800397E+03  0.52837686356E+03  0.17200000000E+03 0.  1.
<mgrwt>
<rscale>  2 0.18239320E+03</rscale>
<asrwt>0</asrwt>
<pdfrwt beam="1">  1       21 0.28125654E+00 0.18239320E+03</pdfrwt>
<pdfrwt beam="2">  1       21 0.74523253E-02 0.18239320E+03</pdfrwt>
<totfact> 0.60091166E+03</totfact>
</mgrwt>
</event>
<event>
 4    1  0.2299148E-001  0.2310407E+03  0.7546771E-02  0.1125909E+00
         21   -1    0    0  501  502  0.00000000000E+00  0.00000000000E+00  0.18004026035E+03  0.18004026035E+03  0.00000000000E+00 0. -1.
         21   -1    0    0  502  503 -0.00000000000E+00 -0.00000000000E+00 -0.29675602040E+03  0.29675602040E+03  0.00000000000E+00 0.  1.
          6    1    1    2  501    0  0.15201834205E+03  0.26195968727E+02 -0.51195468904E+02  0.23664484176E+03  0.17200000000E+03 0. -1.
         -6    1    1    2    0  503 -0.15201834205E+03 -0.26195968727E+02 -0.65520291144E+02  0.24015143899E+03  0.17200000000E+03 0.  1.
<mgrwt>
<rscale>  2 0.23104070E+03</rscale>
<asrwt>0</asrwt>
<pdfrwt beam="1">  1       21 0.45010066E-01 0.23104070E+03</pdfrwt>
<pdfrwt beam="2">  1       21 0.74189004E-01 0.23104070E+03</pdfrwt>
<totfact> 0.75145445E+03</totfact>
</mgrwt>
</event>
<event>
 4    1  0.2299148E-001  0.1815596E+03  0.7546771E-02  0.1166302E+00
         21   -1    0    0  501  502  0.00000000000E+00  0.00000000000E+00  0.19614087132E+03  0.19614087132E+03  0.00000000000E+00 0.  1.
         21   -1    0    0  502  503 -0.00000000000E+00 -0.00000000000E+00 -0.19242867344E+03  0.19242867344E+03  0.00000000000E+00 0.  1.
          6    1    1    2  501    0  0.44399168779E+02  0.37531588361E+02  0.70991166739E+02  0.19494525403E+03  0.17200000000E+03 0.  1.
         -6    1    1    2    0  503 -0.44399168779E+02 -0.37531588361E+02 -0.67278968861E+02  0.19362429074E+03  0.17200000000E+03 0.  1.
<mgrwt>
<rscale>  2 0.18155965E+03</rscale>
<asrwt>0</asrwt>
<pdfrwt beam="1">  1       21 0.49035218E-01 0.18155965E+03</pdfrwt>
<pdfrwt beam="2">  1       21 0.48107168E-01 0.18155965E+03</pdfrwt>
<totfact> 0.16497019E+04</totfact>
</mgrwt>
</event>
<event>
 4    1  0.2299148E-001  0.1775934E+03  0.7546771E-02  0.1170153E+00
         21   -1    0    0  501  502  0.00000000000E+00  0.00000000000E+00  0.16157214508E+03  0.16157214508E+03  0.00000000000E+00 0.  1.
         21   -1    0    0  502  503 -0.00000000000E+00 -0.00000000000E+00 -0.44749186063E+03  0.44749186063E+03  0.00000000000E+00 0.  1.
          6    1    1    2  501    0 -0.42817749135E+02  0.11048441664E+02  0.85699555742E+02  0.19718986170E+03  0.17200000000E+03 0.  1.
         -6    1    1    2    0  503  0.42817749135E+02 -0.11048441664E+02 -0.37161927130E+03  0.41187414401E+03  0.17200000000E+03 0.  1.
<mgrwt>
<rscale>  2 0.17759343E+03</rscale>
<asrwt>0</asrwt>
<pdfrwt beam="1">  1       21 0.40393037E-01 0.17759343E+03</pdfrwt>
<pdfrwt beam="2">  1       21 0.11187296E+00 0.17759343E+03</pdfrwt>
<totfact> 0.37505880E+03</totfact>
</mgrwt>
</event>
<event>
 4    1  0.2299148E-001  0.3859482E+03  0.7546771E-02  0.1048757E+00
         21   -1    0    0  503  502  0.00000000000E+00  0.00000000000E+00  0.16067620400E+03  0.16067620400E+03  0.00000000000E+00 0. -1.
         21   -1    0    0  501  503 -0.00000000000E+00 -0.00000000000E+00 -0.92992011119E+03  0.92992011119E+03  0.00000000000E+00 0.  1.
          6    1    1    2  501    0 -0.24052326702E+03 -0.24803345635E+03 -0.41487802090E+03  0.56663904708E+03  0.17200000000E+03 0.  1.
         -6    1    1    2    0  502  0.24052326702E+03  0.24803345635E+03 -0.35436588629E+03  0.52395726812E+03  0.17200000000E+03 0. -1.
<mgrwt>
<rscale>  2 0.38594823E+03</rscale>
<asrwt>0</asrwt>
<pdfrwt beam="1">  1       21 0.40169051E-01 0.38594823E+03</pdfrwt>
<pdfrwt beam="2">  1       21 0.23248003E+00 0.38594823E+03</pdfrwt>
<totfact> 0.42513713E+02</totfact>
</mgrwt>
</event>
<event>
 4    1  0.2299148E-001  0.1862951E+03  0.7546771E-02  0.1161846E+00
         21   -1    0    0  501  502  0.00000000000E+00  0.00000000000E+00  0.42675016647E+03  0.42675016647E+03  0.00000000000E+00 0. -1.
         21   -1    0    0  502  503 -0.00000000000E+00 -0.00000000000E+00 -0.96355112763E+02  0.96355112763E+02  0.00000000000E+00 0.  1.
          6    1    1    2  501    0  0.61805047322E+02 -0.36083421572E+02  0.26849474569E+03  0.32679551045E+03  0.17200000000E+03 0. -1.
         -6    1    1    2    0  503 -0.61805047322E+02  0.36083421572E+02  0.61900308015E+02  0.19630976878E+03  0.17200000000E+03 0.  1.
<mgrwt>
<rscale>  2 0.18629513E+03</rscale>
<asrwt>0</asrwt>
<pdfrwt beam="1">  1       21 0.10668754E+00 0.18629513E+03</pdfrwt>
<pdfrwt beam="2">  1       21 0.24088779E-01 0.18629513E+03</pdfrwt>
<totfact> 0.11481422E+04</totfact>
</mgrwt>
</event>
<event>
 4    1  0.2299148E-001  0.1736413E+03  0.7546771E-02  0.1174103E+00
         21   -1    0    0  503  502  0.00000000000E+00  0.00000000000E+00  0.59875890290E+02  0.59875890290E+02  0.00000000000E+00 0.  1.
         21   -1    0    0  501  503 -0.00000000000E+00 -0.00000000000E+00 -0.52317804548E+03  0.52317804548E+03  0.00000000000E+00 0.  1.
          6    1    1    2  501    0  0.22459683315E+02 -0.79287444891E+01 -0.17520353384E+03  0.24667302373E+03  0.17200000000E+03 0.  1.
         -6    1    1    2    0  502 -0.22459683315E+02  0.79287444891E+01 -0.28809862135E+03  0.33638091204E+03  0.17200000000E+03 0.  1.
<mgrwt>
<rscale>  2 0.17364130E+03</rscale>
<asrwt>0</asrwt>
<pdfrwt beam="1">  1       21 0.14968972E-01 0.17364130E+03</pdfrwt>
<pdfrwt beam="2">  1       21 0.13079451E+00 0.17364130E+03</pdfrwt>
<totfact> 0.16979439E+04</totfact>
</mgrwt>
</event>
<event>
 4    1  0.2299148E-001  0.2801432E+03  0.7546771E-02  0.1095611E+00
         21   -1    0    0  501  502  0.00000000000E+00  0.00000000000E+00  0.37981520593E+03  0.37981520593E+03  0.00000000000E+00 0. -1.
         21   -1    0    0  502  503 -0.00000000000E+00 -0.00000000000E+00 -0.20853745940E+03  0.20853745940E+03  0.00000000000E+00 0.  1.
          6    1    1    2  501    0  0.18609562257E+03 -0.11943473483E+03  0.57485094696E+02  0.28598037124E+03  0.17200000000E+03 0.  1.
         -6    1    1    2    0  503 -0.18609562257E+03  0.11943473483E+03  0.11379265184E+03  0.30237229409E+03  0.17200000000E+03 0. -1.
<mgrwt>
<rscale>  2 0.28014324E+03</rscale>
<asrwt>0</asrwt>
<pdfrwt beam="1">  1       21 0.94953801E-01 0.28014324E+03</pdfrwt>
<pdfrwt beam="2">  1       21 0.52134365E-01 0.28014324E+03</pdfrwt>
<totfact> 0.30404874E+03</totfact>
</mgrwt>
</event>
<event>
 4    1  0.2299148E-001  0.1833535E+03  0.7546771E-02  0.1164596E+00
         21   -1    0    0  503  502  0.00000000000E+00  0.00000000000E+00  0.54804092379E+03  0.54804092379E+03  0.00000000000E+00 0. -1.
         21   -1    0    0  501  503 -0.00000000000E+00 -0.00000000000E+00 -0.11182112226E+03  0.11182112226E+03  0.00000000000E+00 0. -1.
          6    1    1    2  501    0 -0.70708063080E+01 -0.63123039754E+02 -0.35629525720E+01  0.18338813779E+03  0.17200000000E+03 0.  1.
         -6    1    1    2    0  502  0.70708063080E+01  0.63123039754E+02  0.43978275410E+03  0.47647390826E+03  0.17200000000E+03 0.  1.
<mgrwt>
<rscale>  2 0.18335352E+03</rscale>
<asrwt>0</asrwt>
<pdfrwt beam="1">  1       21 0.13701022E+00 0.18335352E+03</pdfrwt>
<pdfrwt beam="2">  1       21 0.27955282E-01 0.18335352E+03</pdfrwt>
<totfact> 0.46597971E+03</totfact>
</mgrwt>
</event>
<event>
 4    1  0.2299148E-001  0.1802098E+03  0.7546771E-02  0.1167600E+00
         21   -1    0    0  501  502  0.00000000000E+00  0.00000000000E+00  0.89539917435E+03  0.89539917435E+03  0.00000000000E+00 0.  1.
         21   -1    0    0  502  503 -0.00000000000E+00 -0.00000000000E+00 -0.41423206052E+02  0.41423206052E+02  0.00000000000E+00 0.  1.
          6    1    1    2  501    0  0.92354730508E+01 -0.52974252385E+02  0.59221103592E+03  0.61902300155E+03  0.17200000000E+03 0.  1.
         -6    1    1    2    0  503 -0.92354730508E+01  0.52974252385E+02  0.26176493238E+03  0.31779937885E+03  0.17200000000E+03 0.  1.
<mgrwt>
<rscale>  2 0.18020978E+03</rscale>
<asrwt>0</asrwt>
<pdfrwt beam="1">  1       21 0.22384973E+00 0.18020978E+03</pdfrwt>
<pdfrwt beam="2">  1       21 0.10355804E-01 0.18020978E+03</pdfrwt>
<totfact> 0.73554447E+03</totfact>
</mgrwt>
</event>
<event>
 4    1  0.2299148E-001  0.2330827E+03  0.7546771E-02  0.1124489E+00
         21   -1    0    0  501  502  0.00000000000E+00  0.00000000000E+00  0.95563360823E+02  0.95563360823E+02  0.00000000000E+00 0.  1.
         21   -1    0    0  502  503 -0.00000000000E+00 -0.00000000000E+00 -0.58495859874E+03  0.58495859874E+03  0.00000000000E+00 0.  1.
          6    1    1    2  501    0 -0.12570379940E+03  0.94562792230E+02 -0.18761890978E+03  0.29921300467E+03  0.17200000000E+03 0.  1.
         -6    1    1    2    0  503  0.12570379940E+03 -0.94562792230E+02 -0.30177632813E+03  0.38130895489E+03  0.17200000000E+03 0.  1.
<mgrwt>
<rscale>  2 0.23308275E+03</rscale>
<asrwt>0</asrwt>
<pdfrwt beam="1">  1       21 0.23890841E-01 0.23308275E+03</pdfrwt>
<pdfrwt beam="2">  1       21 0.14623965E+00 0.23308275E+03</pdfrwt>
<totfact> 0.51118345E+03</totfact>
</mgrwt>
</event>
<event>
 4    1  0.2299148E-001  0.2212951E+03  0.7546771E-02  0.1132921E+00
         21   -1    0    0  503  502  0.00000000000E+00  0.00000000000E+00  0.21862658486E+03  0.21862658486E+03  0.00000000000E+00 0.  1.
         21   -1    0    0  501  503 -0.00000000000E+00 -0.00000000000E+00 -0.26451999158E+03  0.26451999158E+03  0.00000000000E+00 0.  1.
          6    1    1    2  501    0  0.13881270648E+03 -0.10888410003E+02 -0.11749956546E+03  0.25055473022E+03  0.17200000000E+03 0.  1.
         -6    1    1    2    0  502 -0.13881270648E+03  0.10888410003E+02  0.71606158741E+02  0.23259184621E+03  0.17200000000E+03 0.  1.
<mgrwt>
<rscale>  2 0.22129511E+03</rscale>
<asrwt>0</asrwt>
<pdfrwt beam="1">  1       21 0.54656647E-01 0.22129511E+03</pdfrwt>
<pdfrwt beam="2">  1       21 0.66129997E-01 0.22129511E+03</pdfrwt>
<totfact> 0.64998917E+03</totfact>
</mgrwt>
</event>
<event>
 4    1  0.2299148E-001  0.1797225E+03  0.7546771E-02  0.1168072E+00
         21   -1    0    0  503  502  0.00000000000E+00  0.00000000000E+00  0.21487531750E+03  0.21487531750E+03  0.00000000000E+00 0. -1.
         21   -1    0    0  501  503 -0.00000000000E+00 -0.00000000000E+00 -0.16282285016E+03  0.16282285016E+03  0.00000000000E+00 0.  1.
          6    1    1    2  501    0 -0.35785402266E+02  0.37889099233E+02 -0.26303910164E+02  0.18163720584E+03  0.17200000000E+03 0.  1.
         -6    1    1    2    0  502  0.35785402266E+02 -0.37889099233E+02  0.78356377500E+02  0.19606096182E+03  0.17200000000E+03 0.  1.
<mgrwt>
<rscale>  2 0.17972251E+03</rscale>
<asrwt>0</asrwt>
<pdfrwt beam="1">  1       21 0.53718829E-01 0.17972251E+03</pdfrwt>
<pdfrwt beam="2">  1       21 0.40705713E-01 0.17972251E+03</pdfrwt>
<totfact> 0.19209864E+04</totfact>
</mgrwt>
</event>
<event>
 4    1  0.2299148E-001  0.2325185E+03  0.7546771E-02  0.1124880E+00
         21   -1    0    0  501  502  0.00000000000E+00  0.00000000000E+00  0.40408804074E+03  0.40408804074E+03  0.00000000000E+00 0. -1.
         21   -1    0    0  502  503 -0.00000000000E+00 -0.00000000000E+00 -0.15600684507E+03  0.15600684507E+03  0.00000000000E+00 0. -1.
          6    1    1    2  501    0 -0.14319957520E+03  0.63045667248E+02  0.22971119374E+03  0.32685181203E+03  0.17200000000E+03 0. -1.
         -6    1    1    2    0  503  0.14319957520E+03 -0.63045667248E+02  0.18370001931E+02  0.23324307378E+03  0.17200000000E+03 0. -1.
<mgrwt>
<rscale>  2 0.23251855E+03</rscale>
<asrwt>0</asrwt>
<pdfrwt beam="1">  1       21 0.10102201E+00 0.23251855E+03</pdfrwt>
<pdfrwt beam="2">  1       21 0.39001712E-01 0.23251855E+03</pdfrwt>
<totfact> 0.49303505E+03</totfact>
</mgrwt>
</event>
<event>
 4    1  0.2299148E-001  0.2142695E+03  0.7546771E-02  0.1138229E+00
         21   -1    0    0  501  502  0.00000000000E+00  0.00000000000E+00  0.54866018121E+03  0.54866018121E+03  0.00000000000E+00 0. -1.
         21   -1    0    0  502  503 -0.00000000000E+00 -0.00000000000E+00 -0.84706286318E+02  0.84706286318E+02  0.00000000000E+00 0. -1.
          6    1    1    2  501    0 -0.12770328512E+03 -0.43941074285E+01  0.19710519790E+03  0.29113896382E+03  0.17200000000E+03 0. -1.
         -6    1    1    2    0  503  0.12770328512E+03  0.43941074285E+01  0.26684869699E+03  0.34222750371E+03  0.17200000000E+03 0. -1.
<mgrwt>
<rscale>  2 0.21426954E+03</rscale>
<asrwt>0</asrwt>
<pdfrwt beam="1">  1       21 0.13716504E+00 0.21426954E+03</pdfrwt>
<pdfrwt beam="2">  1       21 0.21176573E-01 0.21426954E+03</pdfrwt>
<totfact> 0.76965074E+03</totfact>
</mgrwt>
</event>
<event>
 4    1  0.2299148E-001  0.2103514E+03  0.7546771E-02  0.1141288E+00
         21   -1    0    0  501  502  0.00000000000E+00  0.00000000000E+00  0.57624696363E+02  0.57624696363E+02  0.00000000000E+00 0. -1.
         21   -1    0    0  502  503 -0.00000000000E+00 -0.00000000000E+00 -0.83070899984E+03  0.83070899984E+03  0.00000000000E+00 0.  1.
          6    1    1    2  501    0 -0.11997273843E+03  0.16439377721E+02 -0.26437057944E+03  0.33784540011E+03  0.17200000000E+03 0. -1.
         -6    1    1    2    0  503  0.11997273843E+03 -0.16439377721E+02 -0.50871372404E+03  0.55048829609E+03  0.17200000000E+03 0.  1.
<mgrwt>
<rscale>  2 0.21035140E+03</rscale>
<asrwt>0</asrwt>
<pdfrwt beam="1">  1       21 0.14406174E-01 0.21035140E+03</pdfrwt>
<pdfrwt beam="2">  1       21 0.20767725E+00 0.21035140E+03</pdfrwt>
<totfact> 0.49844214E+03</totfact>
</mgrwt>
</event>
<event>
 4    1  0.2299148E-001  0.2576341E+03  0.7546771E-02  0.1108573E+00
         21   -1    0    0  503  502  0.00000000000E+00  0.00000000000E+00  0.22290374124E+03  0.22290374124E+03  0.00000000000E+00 0. -1.
         21   -1    0    0  501  503 -0.00000000000E+00 -0.00000000000E+00 -0.46306271840E+03  0.46306271840E+03  0.00000000000E+00 0.  1.
          6    1    1    2  501    0  0.81404720428E+00 -0.19180892090E+03  0.84834830570E+02  0.27124209350E+03  0.17200000000E+03 0. -1.
         -6    1    1    2    0  502 -0.81404720428E+00  0.19180892090E+03 -0.32499380773E+03  0.41472436614E+03  0.17200000000E+03 0.  1.
<mgrwt>
<rscale>  2 0.25763409E+03</rscale>
<asrwt>0</asrwt>
<pdfrwt beam="1">  1       21 0.55725936E-01 0.25763409E+03</pdfrwt>
<pdfrwt beam="2">  1       21 0.11576568E+00 0.25763409E+03</pdfrwt>
<totfact> 0.16579344E+03</totfact>
</mgrwt>
</event>
<event>
 4    1  0.2299148E-001  0.3342903E+03  0.7546771E-02  0.1069254E+00
         21   -1    0    0  503  502  0.00000000000E+00  0.00000000000E+00  0.23273596716E+03  0.23273596716E+03  0.00000000000E+00 0.  1.
         21   -1    0    0  501  503 -0.00000000000E+00 -0.00000000000E+00 -0.56369635589E+03  0.56369635589E+03  0.00000000000E+00 0.  1.
          6    1    1    2  501    0 -0.18612589625E+03 -0.21799811517E+03 -0.12181191104E+02  0.33451219543E+03  0.17200000000E+03 0.  1.
         -6    1    1    2    0  502  0.18612589625E+03  0.21799811517E+03 -0.31877919762E+03  0.46192012763E+03  0.17200000000E+03 0.  1.
<mgrwt>
<rscale>  2 0.33429033E+03</rscale>
<asrwt>0</asrwt>
<pdfrwt beam="1">  1       21 0.58183992E-01 0.33429033E+03</pdfrwt>
<pdfrwt beam="2">  1       21 0.14092409E+00 0.33429033E+03</pdfrwt>
<totfact> 0.87012809E+02</totfact>
</mgrwt>
</event>
<event>
 4    1  0.2299148E-001  0.1720626E+03  0.7546771E-02  0.1175714E+00
         21   -1    0    0  501  502  0.00000000000E+00  0.00000000000E+00  0.88677954574E+03  0.88677954574E+03  0.00000000000E+00 0. -1.
         21   -1    0    0  502  503 -0.00000000000E+00 -0.00000000000E+00 -0.35432023622E+02  0.35432023622E+02  0.00000000000E+00 0. -1.
          6    1    1    2  501    0 -0.27168133437E+01 -0.37619115265E+01  0.31485420302E+03  0.35880175893E+03  0.17200000000E+03 0. -1.
         -6    1    1    2    0  503  0.27168133437E+01  0.37619115265E+01  0.53649331910E+03  0.56340981043E+03  0.17200000000E+03 0. -1.
<mgrwt>
<rscale>  2 0.17206258E+03</rscale>
<asrwt>0</asrwt>
<pdfrwt beam="1">  1       21 0.22169481E+00 0.17206258E+03</pdfrwt>
<pdfrwt beam="2">  1       21 0.88580088E-02 0.17206258E+03</pdfrwt>
<totfact> 0.10055415E+04</totfact>
</mgrwt>
</event>
<event>
 4    1  0.2299148E-001  0.2095920E+03  0.7546771E-02  0.1141890E+00
         21   -1    0    0  503  502  0.00000000000E+00  0.00000000000E+00  0.89377440790E+02  0.89377440790E+02  0.00000000000E+00 0. -1.
         21   -1    0    0  501  503 -0.00000000000E+00 -0.00000000000E+00 -0.50509270114E+03  0.50509270114E+03  0.00000000000E+00 0.  1.
          6    1    1    2  501    0 -0.11928483909E+03  0.10766457429E+02 -0.25662251371E+03  0.33133654188E+03  0.17200000000E+03 0. -1.
         -6    1    1    2    0  502  0.11928483909E+03 -0.10766457429E+02 -0.15909274663E+03  0.26313360005E+03  0.17200000000E+03 0.  1.
<mgrwt>
<rscale>  2 0.20959196E+03</rscale>
<asrwt>0</asrwt>
<pdfrwt beam="1">  1       21 0.22344361E-01 0.20959196E+03</pdfrwt>
<pdfrwt beam="2">  1       21 0.12627317E+00 0.20959196E+03</pdfrwt>
<totfact> 0.86099493E+03</totfact>
</mgrwt>
</event>
<event>
 4    1  0.2299148E-001  0.2354853E+03  0.7546771E-02  0.1122837E+00
         21   -1    0    0  501  502  0.00000000000E+00  0.00000000000E+00  0.12376130711E+03  0.12376130711E+03  0.00000000000E+00 0.  1.
         21   -1    0    0  502  503 -0.00000000000E+00 -0.00000000000E+00 -0.50592313178E+03  0.50592313178E+03  0.00000000000E+00 0.  1.
          6    1    1    2  501    0 -0.13500461855E+03 -0.87424754497E+02 -0.84611198428E+02  0.25022467830E+03  0.17200000000E+03 0.  1.
         -6    1    1    2    0  503  0.13500461855E+03  0.87424754497E+02 -0.29755062624E+03  0.37945976059E+03  0.17200000000E+03 0.  1.
<mgrwt>
<rscale>  2 0.23548532E+03</rscale>
<asrwt>0</asrwt>
<pdfrwt beam="1">  1       21 0.30940327E-01 0.23548532E+03</pdfrwt>
<pdfrwt beam="2">  1       21 0.12648078E+00 0.23548532E+03</pdfrwt>
<totfact> 0.44959560E+03</totfact>
</mgrwt>
</event>
<event>
 4    1  0.2299148E-001  0.1861248E+03  0.7546771E-02  0.1162004E+00
         21   -1    0    0  503  502  0.00000000000E+00  0.00000000000E+00  0.14953260991E+04  0.14953260991E+04  0.00000000000E+00 0. -1.
         21   -1    0    0  501  503 -0.00000000000E+00 -0.00000000000E+00 -0.23198235430E+02  0.23198235430E+02  0.00000000000E+00 0. -1.
          6    1    1    2  501    0 -0.54424787542E+02 -0.45786181594E+02  0.76386101952E+03  0.78620995228E+03  0.17200000000E+03 0. -1.
         -6    1    1    2    0  502  0.54424787542E+02  0.45786181594E+02  0.70826684412E+03  0.73231438222E+03  0.17200000000E+03 0. -1.
<mgrwt>
<rscale>  2 0.18612478E+03</rscale>
<asrwt>0</asrwt>
<pdfrwt beam="1">  1       21 0.37383120E+00 0.18612478E+03</pdfrwt>
<pdfrwt beam="2">  1       21 0.57995639E-02 0.18612478E+03</pdfrwt>
<totfact> 0.26584937E+03</totfact>
</mgrwt>
</event>
<event>
 4    1  0.2299148E-001  0.2299054E+03  0.7546771E-02  0.1126706E+00
         21   -1    0    0  501  502  0.00000000000E+00  0.00000000000E+00  0.22459320296E+03  0.22459320296E+03  0.00000000000E+00 0. -1.
         21   -1    0    0  502  503 -0.00000000000E+00 -0.00000000000E+00 -0.24435323404E+03  0.24435323404E+03  0.00000000000E+00 0.  1.
          6    1    1    2  501    0  0.81646924282E+02  0.12886535194E+03 -0.54904182684E+02  0.23637040520E+03  0.17200000000E+03 0.  1.
         -6    1    1    2    0  503 -0.81646924282E+02 -0.12886535194E+03  0.35144151602E+02  0.23257603180E+03  0.17200000000E+03 0. -1.
<mgrwt>
<rscale>  2 0.22990541E+03</rscale>
<asrwt>0</asrwt>
<pdfrwt beam="1">  1       21 0.56148301E-01 0.22990541E+03</pdfrwt>
<pdfrwt beam="2">  1       21 0.61088308E-01 0.22990541E+03</pdfrwt>
<totfact> 0.72536904E+03</totfact>
</mgrwt>
</event>
<event>
 4    1  0.2299148E-001  0.1790624E+03  0.7546771E-02  0.1168714E+00
         21   -1    0    0  501  502  0.00000000000E+00  0.00000000000E+00  0.14889832863E+03  0.14889832863E+03  0.00000000000E+00 0. -1.
         21   -1    0    0  502  503 -0.00000000000E+00 -0.00000000000E+00 -0.25474830327E+03  0.25474830327E+03  0.00000000000E+00 0.  1.
          6    1    1    2  501    0 -0.18667532704E+02  0.46161418747E+02  0.26457523039E+02  0.18100650232E+03  0.17200000000E+03 0. -1.
         -6    1    1    2    0  503  0.18667532704E+02 -0.46161418747E+02 -0.13230749768E+03  0.22264012958E+03  0.17200000000E+03 0.  1.
<mgrwt>
<rscale>  2 0.17906243E+03</rscale>
<asrwt>0</asrwt>
<pdfrwt beam="1">  1       21 0.37224582E-01 0.17906243E+03</pdfrwt>
<pdfrwt beam="2">  1       21 0.63687075E-01 0.17906243E+03</pdfrwt>
<totfact> 0.15993724E+04</totfact>
</mgrwt>
</event>
<event>
 4    1  0.2299148E-001  0.2338140E+03  0.7546771E-02  0.1123984E+00
         21   -1    0    0  501  502  0.00000000000E+00  0.00000000000E+00  0.20029701689E+03  0.20029701689E+03  0.00000000000E+00 0. -1.
         21   -1    0    0  502  503 -0.00000000000E+00 -0.00000000000E+00 -0.31956210919E+03  0.31956210919E+03  0.00000000000E+00 0. -1.
          6    1    1    2  501    0 -0.14460679057E+03 -0.64605436394E+02 -0.15891577461E+03  0.28270693255E+03  0.17200000000E+03 0. -1.
         -6    1    1    2    0  503  0.14460679057E+03  0.64605436394E+02  0.39650682312E+02  0.23715219354E+03  0.17200000000E+03 0. -1.
<mgrwt>
<rscale>  2 0.23381400E+03</rscale>
<asrwt>0</asrwt>
<pdfrwt beam="1">  1       21 0.50074255E-01 0.23381400E+03</pdfrwt>
<pdfrwt beam="2">  1       21 0.79890527E-01 0.23381400E+03</pdfrwt>
<totfact> 0.50854606E+03</totfact>
</mgrwt>
</event>
<event>
 4    1  0.2299148E-001  0.4009168E+03  0.7546771E-02  0.1043463E+00
         21   -1    0    0  501  502  0.00000000000E+00  0.00000000000E+00  0.93520186738E+03  0.93520186738E+03  0.00000000000E+00 0. -1.
         21   -1    0    0  502  503 -0.00000000000E+00 -0.00000000000E+00 -0.24830229006E+03  0.24830229006E+03  0.00000000000E+00 0.  1.
          6    1    1    2  501    0 -0.19603502049E+03 -0.30450047712E+03  0.67176004368E+03  0.78230162093E+03  0.17200000000E+03 0. -1.
         -6    1    1    2    0  503  0.19603502049E+03  0.30450047712E+03  0.15139533648E+02  0.40120253651E+03  0.17200000000E+03 0.  1.
<mgrwt>
<rscale>  2 0.40091679E+03</rscale>
<asrwt>0</asrwt>
<pdfrwt beam="1">  1       21 0.23380046E+00 0.40091679E+03</pdfrwt>
<pdfrwt beam="2">  1       21 0.62075575E-01 0.40091679E+03</pdfrwt>
<totfact> 0.16400900E+02</totfact>
</mgrwt>
</event>
<event>
 4    1  0.2299148E-001  0.1932958E+03  0.7546771E-02  0.1155522E+00
         21   -1    0    0  503  502  0.00000000000E+00  0.00000000000E+00  0.93904894939E+03  0.93904894939E+03  0.00000000000E+00 0. -1.
         21   -1    0    0  501  503 -0.00000000000E+00 -0.00000000000E+00 -0.59967373960E+02  0.59967373960E+02  0.00000000000E+00 0. -1.
          6    1    1    2  501    0  0.32954702763E+02 -0.81812265729E+02  0.14978336714E+03  0.24453694267E+03  0.17200000000E+03 0. -1.
         -6    1    1    2    0  502 -0.32954702763E+02  0.81812265729E+02  0.72929820829E+03  0.75447938068E+03  0.17200000000E+03 0. -1.
<mgrwt>
<rscale>  2 0.19329578E+03</rscale>
<asrwt>0</asrwt>
<pdfrwt beam="1">  1       21 0.23476219E+00 0.19329578E+03</pdfrwt>
<pdfrwt beam="2">  1       21 0.14991846E-01 0.19329578E+03</pdfrwt>
<totfact> 0.32128152E+03</totfact>
</mgrwt>
</event>
<event>
 4    1  0.2299148E-001  0.1970057E+03  0.7546771E-02  0.1152290E+00
         21   -1    0    0  501  502  0.00000000000E+00  0.00000000000E+00  0.47682205326E+02  0.47682205326E+02  0.00000000000E+00 0.  1.
         21   -1    0    0  502  503 -0.00000000000E+00 -0.00000000000E+00 -0.91361633465E+03  0.91361633465E+03  0.00000000000E+00 0. -1.
          6    1    1    2  501    0  0.95590029456E+02  0.94761667970E+01 -0.27421990627E+03  0.33765042346E+03  0.17200000000E+03 0.  1.
         -6    1    1    2    0  503 -0.95590029456E+02 -0.94761667970E+01 -0.59171422305E+03  0.62364811651E+03  0.17200000000E+03 0. -1.
<mgrwt>
<rscale>  2 0.19700571E+03</rscale>
<asrwt>0</asrwt>
<pdfrwt beam="1">  1       21 0.11920551E-01 0.19700571E+03</pdfrwt>
<pdfrwt beam="2">  1       21 0.22840409E+00 0.19700571E+03</pdfrwt>
<totfact> 0.52874339E+03</totfact>
</mgrwt>
</event>
<event>
 4    1  0.2299148E-001  0.2364717E+03  0.7546771E-02  0.1122166E+00
         21   -1    0    0  503  502  0.00000000000E+00  0.00000000000E+00  0.27955212310E+03  0.27955212310E+03  0.00000000000E+00 0.  1.
         21   -1    0    0  501  503 -0.00000000000E+00 -0.00000000000E+00 -0.20019334010E+03  0.20019334010E+03  0.00000000000E+00 0.  1.
          6    1    1    2  501    0  0.14848326464E+03  0.65479706994E+02  0.32832183606E+02  0.23874007662E+03  0.17200000000E+03 0.  1.
         -6    1    1    2    0  502 -0.14848326464E+03 -0.65479706994E+02  0.46526599395E+02  0.24100538657E+03  0.17200000000E+03 0.  1.
<mgrwt>
<rscale>  2 0.23647171E+03</rscale>
<asrwt>0</asrwt>
<pdfrwt beam="1">  1       21 0.69888030E-01 0.23647171E+03</pdfrwt>
<pdfrwt beam="2">  1       21 0.50048335E-01 0.23647171E+03</pdfrwt>
<totfact> 0.68610272E+03</totfact>
</mgrwt>
</event>
<event>
 4    1  0.2299148E-001  0.1961447E+03  0.7546771E-02  0.1153033E+00
         21   -1    0    0  503  502  0.00000000000E+00  0.00000000000E+00  0.13998023196E+03  0.13998023196E+03  0.00000000000E+00 0. -1.
         21   -1    0    0  501  503 -0.00000000000E+00 -0.00000000000E+00 -0.33912870345E+03  0.33912870345E+03  0.00000000000E+00 0. -1.
          6    1    1    2  501    0  0.91625217006E+02 -0.22216623834E+02  0.47235414727E+01  0.19620160705E+03  0.17200000000E+03 0. -1.
         -6    1    1    2    0  502 -0.91625217006E+02  0.22216623834E+02 -0.20387201297E+03  0.28290732836E+03  0.17200000000E+03 0. -1.
<mgrwt>
<rscale>  2 0.19614474E+03</rscale>
<asrwt>0</asrwt>
<pdfrwt beam="1">  1       21 0.34995058E-01 0.19614474E+03</pdfrwt>
<pdfrwt beam="2">  1       21 0.84782175E-01 0.19614474E+03</pdfrwt>
<totfact> 0.94645586E+03</totfact>
</mgrwt>
</event>
<event>
 4    1  0.2299148E-001  0.1980640E+03  0.7546771E-02  0.1151383E+00
         21   -1    0    0  501  502  0.00000000000E+00  0.00000000000E+00  0.11329683248E+03  0.11329683248E+03  0.00000000000E+00 0.  1.
         21   -1    0    0  502  503 -0.00000000000E+00 -0.00000000000E+00 -0.38670652425E+03  0.38670652425E+03  0.00000000000E+00 0.  1.
          6    1    1    2  501    0  0.97547441220E+02 -0.11395270450E+02 -0.55845363700E+02  0.20578644300E+03  0.17200000000E+03 0.  1.
         -6    1    1    2    0  503 -0.97547441220E+02  0.11395270450E+02 -0.21756432807E+03  0.29421691373E+03  0.17200000000E+03 0.  1.
<mgrwt>
<rscale>  2 0.19806402E+03</rscale>
<asrwt>0</asrwt>
<pdfrwt beam="1">  1       21 0.28324208E-01 0.19806402E+03</pdfrwt>
<pdfrwt beam="2">  1       21 0.96676630E-01 0.19806402E+03</pdfrwt>
<totfact> 0.10553846E+04</totfact>
</mgrwt>
</event>
<event>
 4    1  0.2299148E-001  0.1784664E+03  0.7546771E-02  0.1169296E+00
         21   -1    0    0  503  502  0.00000000000E+00  0.00000000000E+00  0.13129797554E+03  0.13129797554E+03  0.00000000000E+00 0.  1.
         21   -1    0    0  501  503 -0.00000000000E+00 -0.00000000000E+00 -0.36848325368E+03  0.36848325368E+03  0.00000000000E+00 0.  1.
          6    1    1    2  501    0  0.26340088833E+02 -0.39654302872E+02 -0.26466213471E+03  0.31921201351E+03  0.17200000000E+03 0.  1.
         -6    1    1    2    0  502 -0.26340088833E+02  0.39654302872E+02  0.27476856571E+02  0.18056921571E+03  0.17200000000E+03 0.  1.
<mgrwt>
<rscale>  2 0.17846642E+03</rscale>
<asrwt>0</asrwt>
<pdfrwt beam="1">  1       21 0.32824494E-01 0.17846642E+03</pdfrwt>
<pdfrwt beam="2">  1       21 0.92120813E-01 0.17846642E+03</pdfrwt>
<totfact> 0.89838500E+03</totfact>
</mgrwt>
</event>
<event>
 4    1  0.2299148E-001  0.1810134E+03  0.7546771E-02  0.1166826E+00
         21   -1    0    0  503  502  0.00000000000E+00  0.00000000000E+00  0.43329240017E+02  0.43329240017E+02  0.00000000000E+00 0. -1.
         21   -1    0    0  501  503 -0.00000000000E+00 -0.00000000000E+00 -0.81310999243E+03  0.81310999243E+03  0.00000000000E+00 0. -1.
          6    1    1    2  501    0 -0.34664135765E+02 -0.44499850638E+02 -0.49817281659E+03  0.53003961569E+03  0.17200000000E+03 0. -1.
         -6    1    1    2    0  502  0.34664135765E+02  0.44499850638E+02 -0.27160793582E+03  0.32639961675E+03  0.17200000000E+03 0. -1.
<mgrwt>
<rscale>  2 0.18101337E+03</rscale>
<asrwt>0</asrwt>
<pdfrwt beam="1">  1       21 0.10832310E-01 0.18101337E+03</pdfrwt>
<pdfrwt beam="2">  1       21 0.20327750E+00 0.18101337E+03</pdfrwt>
<totfact> 0.91037746E+03</totfact>
</mgrwt>
</event>
<event>
 4    1  0.2299148E-001  0.3208207E+03  0.7546771E-02  0.1075272E+00
         21   -1    0    0  503  502  0.00000000000E+00  0.00000000000E+00  0.24023095839E+03  0.24023095839E+03  0.00000000000E+00 0.  1.
         21   -1    0    0  501  503 -0.00000000000E+00 -0.00000000000E+00 -0.65270921556E+03  0.65270921556E+03  0.00000000000E+00 0. -1.
          6    1    1    2  501    0  0.26715988759E+03  0.44356759292E+02 -0.46794398473E+03  0.56736011534E+03  0.17200000000E+03 0. -1.
         -6    1    1    2    0  502 -0.26715988759E+03 -0.44356759292E+02  0.55465727551E+02  0.32558005861E+03  0.17200000000E+03 0.  1.
<mgrwt>
<rscale>  2 0.32082071E+03</rscale>
<asrwt>0</asrwt>
<pdfrwt beam="1">  1       21 0.60057740E-01 0.32082071E+03</pdfrwt>
<pdfrwt beam="2">  1       21 0.16317730E+00 0.32082071E+03</pdfrwt>
<totfact> 0.55146867E+02</totfact>
</mgrwt>
</event>
<event>
 4    1  0.2299148E-001  0.1840064E+03  0.7546771E-02  0.1163981E+00
         21   -1    0    0  501  502  0.00000000000E+00  0.00000000000E+00  0.58643011691E+02  0.58643011691E+02  0.00000000000E+00 0. -1.
         21   -1    0    0  502  503 -0.00000000000E+00 -0.00000000000E+00 -0.57817701279E+03  0.57817701279E+03  0.00000000000E+00 0. -1.
          6    1    1    2  501    0  0.12233869411E+02  0.64223725021E+02 -0.27170819403E+03  0.32815194213E+03  0.17200000000E+03 0.  1.
         -6    1    1    2    0  503 -0.12233869411E+02 -0.64223725021E+02 -0.24782580706E+03  0.30866808235E+03  0.17200000000E+03 0.  1.
<mgrwt>
<rscale>  2 0.18400640E+03</rscale>
<asrwt>0</asrwt>
<pdfrwt beam="1">  1       21 0.14660753E-01 0.18400640E+03</pdfrwt>
<pdfrwt beam="2">  1       21 0.14454425E+00 0.18400640E+03</pdfrwt>
<totfact> 0.13552779E+04</totfact>
</mgrwt>
</event>
<event>
 4    1  0.2299148E-001  0.1769604E+03  0.7546771E-02  0.1170778E+00
         21   -1    0    0  501  502  0.00000000000E+00  0.00000000000E+00  0.35810287729E+02  0.35810287729E+02  0.00000000000E+00 0. -1.
         21   -1    0    0  502  503 -0.00000000000E+00 -0.00000000000E+00 -0.93001652444E+03  0.93001652444E+03  0.00000000000E+00 0. -1.
          6    1    1    2  501    0  0.39802123165E+02  0.12114766981E+02 -0.32908264128E+03  0.37364469939E+03  0.17200000000E+03 0. -1.
         -6    1    1    2    0  503 -0.39802123165E+02 -0.12114766981E+02 -0.56512359543E+03  0.59218211278E+03  0.17200000000E+03 0. -1.
<mgrwt>
<rscale>  2 0.17696038E+03</rscale>
<asrwt>0</asrwt>
<pdfrwt beam="1">  1       21 0.89525722E-02 0.17696038E+03</pdfrwt>
<pdfrwt beam="2">  1       21 0.23250412E+00 0.17696038E+03</pdfrwt>
<totfact> 0.84548289E+03</totfact>
</mgrwt>
</event>
<event>
 4    1  0.2299148E-001  0.1751432E+03  0.7546771E-02  0.1172588E+00
         21   -1    0    0  503  502  0.00000000000E+00  0.00000000000E+00  0.24923993454E+03  0.24923993454E+03  0.00000000000E+00 0.  1.
         21   -1    0    0  501  503 -0.00000000000E+00 -0.00000000000E+00 -0.12669565176E+03  0.12669565176E+03  0.00000000000E+00 0.  1.
          6    1    1    2  501    0 -0.18701427305E+02 -0.27228457257E+02  0.29495100513E+02  0.17760938382E+03  0.17200000000E+03 0.  1.
         -6    1    1    2    0  502  0.18701427305E+02  0.27228457257E+02  0.93049182272E+02  0.19832620248E+03  0.17200000000E+03 0.  1.
<mgrwt>
<rscale>  2 0.17514318E+03</rscale>
<asrwt>0</asrwt>
<pdfrwt beam="1">  1       21 0.62309983E-01 0.17514318E+03</pdfrwt>
<pdfrwt beam="2">  1       21 0.31673913E-01 0.17514318E+03</pdfrwt>
<totfact> 0.23126542E+04</totfact>
</mgrwt>
</event>
<event>
 4    1  0.2299148E-001  0.1946743E+03  0.7546771E-02  0.1154312E+00
         21   -1    0    0  503  502  0.00000000000E+00  0.00000000000E+00  0.47006268606E+03  0.47006268606E+03  0.00000000000E+00 0. -1.
         21   -1    0    0  501  503 -0.00000000000E+00 -0.00000000000E+00 -0.83735218156E+02  0.83735218156E+02  0.00000000000E+00 0. -1.
          6    1    1    2  501    0 -0.61560744911E+02 -0.67263352726E+02  0.13978483723E+03  0.23966202172E+03  0.17200000000E+03 0. -1.
         -6    1    1    2    0  502  0.61560744911E+02  0.67263352726E+02  0.24654263066E+03  0.31413588249E+03  0.17200000000E+03 0. -1.
<mgrwt>
<rscale>  2 0.19467430E+03</rscale>
<asrwt>0</asrwt>
<pdfrwt beam="1">  1       21 0.11751566E+00 0.19467430E+03</pdfrwt>
<pdfrwt beam="2">  1       21 0.20933806E-01 0.19467430E+03</pdfrwt>
<totfact> 0.11768698E+04</totfact>
</mgrwt>
</event>
<event>
 4    1  0.2299148E-001  0.1729625E+03  0.7546771E-02  0.1174793E+00
         21   -1    0    0  501  502  0.00000000000E+00  0.00000000000E+00  0.44757812829E+02  0.44757812829E+02  0.00000000000E+00 0. -1.
         21   -1    0    0  502  503 -0.00000000000E+00 -0.00000000000E+00 -0.67010972255E+03  0.67010972255E+03  0.00000000000E+00 0. -1.
          6    1    1    2  501    0 -0.18019953061E+02 -0.27054757225E+01 -0.33074033524E+03  0.37323612856E+03  0.17200000000E+03 0. -1.
         -6    1    1    2    0  503  0.18019953061E+02  0.27054757225E+01 -0.29461157448E+03  0.34163140682E+03  0.17200000000E+03 0. -1.
<mgrwt>
<rscale>  2 0.17296253E+03</rscale>
<asrwt>0</asrwt>
<pdfrwt beam="1">  1       21 0.11189453E-01 0.17296253E+03</pdfrwt>
<pdfrwt beam="2">  1       21 0.16752743E+00 0.17296253E+03</pdfrwt>
<totfact> 0.14989682E+04</totfact>
</mgrwt>
</event>
<event>
 4    1  0.2299148E-001  0.2291819E+03  0.7546771E-02  0.1127217E+00
         21   -1    0    0  503  502  0.00000000000E+00  0.00000000000E+00  0.28739369146E+03  0.28739369146E+03  0.00000000000E+00 0.  1.
         21   -1    0    0  501  503 -0.00000000000E+00 -0.00000000000E+00 -0.19930178093E+03  0.19930178093E+03  0.00000000000E+00 0.  1.
          6    1    1    2  501    0  0.12887762004E+03  0.79566894689E+02 -0.26059360281E+02  0.23065866976E+03  0.17200000000E+03 0.  1.
         -6    1    1    2    0  502 -0.12887762004E+03 -0.79566894689E+02  0.11415127081E+03  0.25603680263E+03  0.17200000000E+03 0.  1.
<mgrwt>
<rscale>  2 0.22918187E+03</rscale>
<asrwt>0</asrwt>
<pdfrwt beam="1">  1       21 0.71848423E-01 0.22918187E+03</pdfrwt>
<pdfrwt beam="2">  1       21 0.49825445E-01 0.22918187E+03</pdfrwt>
<totfact> 0.65430374E+03</totfact>
</mgrwt>
</event>
<event>
 4    1  0.2299148E-001  0.2023187E+03  0.7546771E-02  0.1147797E+00
         21   -1    0    0  501  502  0.00000000000E+00  0.00000000000E+00  0.51957853921E+03  0.51957853921E+03  0.00000000000E+00 0. -1.
         21   -1    0    0  502  503 -0.00000000000E+00 -0.00000000000E+00 -0.94128372396E+02  0.94128372396E+02  0.00000000000E+00 0. -1.
          6    1    1    2  501    0  0.60783455083E+02 -0.87488476660E+02  0.33663020427E+03  0.39275024683E+03  0.17200000000E+03 0. -1.
         -6    1    1    2    0  503 -0.60783455083E+02  0.87488476660E+02  0.88819962538E+02  0.22095666477E+03  0.17200000000E+03 0. -1.
<mgrwt>
<rscale>  2 0.20231871E+03</rscale>
<asrwt>0</asrwt>
<pdfrwt beam="1">  1       21 0.12989463E+00 0.20231871E+03</pdfrwt>
<pdfrwt beam="2">  1       21 0.23532095E-01 0.20231871E+03</pdfrwt>
<totfact> 0.73068799E+03</totfact>
</mgrwt>
</event>
<event>
 4    1  0.2299148E-001  0.1965005E+03  0.7546771E-02  0.1152726E+00
         21   -1    0    0  503  502  0.00000000000E+00  0.00000000000E+00  0.22167514083E+03  0.22167514083E+03  0.00000000000E+00 0.  1.
         21   -1    0    0  501  503 -0.00000000000E+00 -0.00000000000E+00 -0.17727615921E+03  0.17727615921E+03  0.00000000000E+00 0.  1.
          6    1    1    2  501    0  0.17757025461E+01  0.95001443643E+02 -0.41421891064E+01  0.19654410483E+03  0.17200000000E+03 0.  1.
         -6    1    1    2    0  502 -0.17757025461E+01 -0.95001443643E+02  0.48541170727E+02  0.20240719520E+03  0.17200000000E+03 0.  1.
<mgrwt>
<rscale>  2 0.19650045E+03</rscale>
<asrwt>0</asrwt>
<pdfrwt beam="1">  1       21 0.55418785E-01 0.19650045E+03</pdfrwt>
<pdfrwt beam="2">  1       21 0.44319040E-01 0.19650045E+03</pdfrwt>
<totfact> 0.14970874E+04</totfact>
</mgrwt>
</event>
<event>
 4    1  0.2299148E-001  0.2314139E+03  0.7546771E-02  0.1125649E+00
         21   -1    0    0  503  502  0.00000000000E+00  0.00000000000E+00  0.39059814469E+03  0.39059814469E+03  0.00000000000E+00 0.  1.
         21   -1    0    0  501  503 -0.00000000000E+00 -0.00000000000E+00 -0.13716050123E+03  0.13716050123E+03  0.00000000000E+00 0. -1.
          6    1    1    2  501    0  0.13789276618E+03  0.70384403227E+02  0.12134021215E+03  0.26129643370E+03  0.17200000000E+03 0. -1.
         -6    1    1    2    0  502 -0.13789276618E+03 -0.70384403227E+02  0.13209743131E+03  0.26646221222E+03  0.17200000000E+03 0.  1.
<mgrwt>
<rscale>  2 0.23141387E+03</rscale>
<asrwt>0</asrwt>
<pdfrwt beam="1">  1       21 0.97649534E-01 0.23141387E+03</pdfrwt>
<pdfrwt beam="2">  1       21 0.34290126E-01 0.23141387E+03</pdfrwt>
<totfact> 0.69247487E+03</totfact>
</mgrwt>
</event>
<event>
 4    1  0.2299148E-001  0.2456953E+03  0.7546771E-02  0.1116056E+00
         21   -1    0    0  501  502  0.00000000000E+00  0.00000000000E+00  0.81689818008E+02  0.81689818008E+02  0.00000000000E+00 0.  1.
         21   -1    0    0  502  503 -0.00000000000E+00 -0.00000000000E+00 -0.76439476913E+03  0.76439476913E+03  0.00000000000E+00 0.  1.
          6    1    1    2  501    0 -0.14323276522E+02  0.17486285885E+03 -0.26419659400E+03  0.36078527677E+03  0.17200000000E+03 0.  1.
         -6    1    1    2    0  503  0.14323276522E+02 -0.17486285885E+03 -0.41850835712E+03  0.48529931036E+03  0.17200000000E+03 0.  1.
<mgrwt>
<rscale>  2 0.24569529E+03</rscale>
<asrwt>0</asrwt>
<pdfrwt beam="1">  1       21 0.20422455E-01 0.24569529E+03</pdfrwt>
<pdfrwt beam="2">  1       21 0.19109869E+00 0.24569529E+03</pdfrwt>
<totfact> 0.32518822E+03</totfact>
</mgrwt>
</event>
<event>
 4    1  0.2299148E-001  0.2730360E+03  0.7546771E-02  0.1099555E+00
         21   -1    0    0  501  502  0.00000000000E+00  0.00000000000E+00  0.52481955549E+03  0.52481955549E+03  0.00000000000E+00 0.  1.
         21   -1    0    0  502  503 -0.00000000000E+00 -0.00000000000E+00 -0.17932577767E+03  0.17932577767E+03  0.00000000000E+00 0.  1.
          6    1    1    2  501    0  0.16198566258E+03  0.13684033021E+03  0.33327324922E+03  0.43083603552E+03  0.17200000000E+03 0.  1.
         -6    1    1    2    0  503 -0.16198566258E+03 -0.13684033021E+03  0.12220528602E+02  0.27330929764E+03  0.17200000000E+03 0.  1.
<mgrwt>
<rscale>  2 0.27303595E+03</rscale>
<asrwt>0</asrwt>
<pdfrwt beam="1">  1       21 0.13120489E+00 0.27303595E+03</pdfrwt>
<pdfrwt beam="2">  1       21 0.44831446E-01 0.27303595E+03</pdfrwt>
<totfact> 0.18905764E+03</totfact>
</mgrwt>
</event>
<event>
 4    1  0.2299148E-001  0.2435711E+03  0.7546771E-02  0.1117436E+00
         21   -1    0    0  503  502  0.00000000000E+00  0.00000000000E+00  0.96102230655E+03  0.96102230655E+03  0.00000000000E+00 0.  1.
         21   -1    0    0  501  503 -0.00000000000E+00 -0.00000000000E+00 -0.68887455409E+02  0.68887455409E+02  0.00000000000E+00 0.  1.
          6    1    1    2  501    0  0.16704245429E+03  0.42891836900E+02  0.28011477118E+03  0.37120233868E+03  0.17200000000E+03 0.  1.
         -6    1    1    2    0  502 -0.16704245429E+03 -0.42891836900E+02  0.61202007996E+03  0.65870742328E+03  0.17200000000E+03 0.  1.
<mgrwt>
<rscale>  2 0.24357112E+03</rscale>
<asrwt>0</asrwt>
<pdfrwt beam="1">  1       21 0.24025553E+00 0.24357112E+03</pdfrwt>
<pdfrwt beam="2">  1       21 0.17221867E-01 0.24357112E+03</pdfrwt>
<totfact> 0.21974550E+03</totfact>
</mgrwt>
</event>
<event>
 4    1  0.2299148E-001  0.1802161E+03  0.7546771E-02  0.1167594E+00
         21   -1    0    0  501  502  0.00000000000E+00  0.00000000000E+00  0.79035941232E+02  0.79035941232E+02  0.00000000000E+00 0.  1.
         21   -1    0    0  502  503 -0.00000000000E+00 -0.00000000000E+00 -0.53558216898E+03  0.53558216898E+03  0.00000000000E+00 0.  1.
          6    1    1    2  501    0 -0.26111099588E+02 -0.47032310834E+02 -0.37653219119E+03  0.41743780229E+03  0.17200000000E+03 0.  1.
         -6    1    1    2    0  503  0.26111099588E+02  0.47032310834E+02 -0.80014036562E+02  0.19718030792E+03  0.17200000000E+03 0.  1.
<mgrwt>
<rscale>  2 0.18021606E+03</rscale>
<asrwt>0</asrwt>
<pdfrwt beam="1">  1       21 0.19758986E-01 0.18021606E+03</pdfrwt>
<pdfrwt beam="2">  1       21 0.13389554E+00 0.18021606E+03</pdfrwt>
<totfact> 0.95600745E+03</totfact>
</mgrwt>
</event>
<event>
 4    1  0.2299148E-001  0.1989659E+03  0.7546771E-02  0.1150614E+00
         21   -1    0    0  501  502  0.00000000000E+00  0.00000000000E+00  0.12463531695E+03  0.12463531695E+03  0.00000000000E+00 0. -1.
         21   -1    0    0  502  503 -0.00000000000E+00 -0.00000000000E+00 -0.39098282265E+03  0.39098282265E+03  0.00000000000E+00 0.  1.
          6    1    1    2  501    0 -0.95854568926E+02  0.28553689514E+02 -0.21502923246E+02  0.20012442949E+03  0.17200000000E+03 0. -1.
         -6    1    1    2    0  503  0.95854568926E+02 -0.28553689514E+02 -0.24484458245E+03  0.31549371012E+03  0.17200000000E+03 0.  1.
<mgrwt>
<rscale>  2 0.19896586E+03</rscale>
<asrwt>0</asrwt>
<pdfrwt beam="1">  1       21 0.31158830E-01 0.19896586E+03</pdfrwt>
<pdfrwt beam="2">  1       21 0.97745705E-01 0.19896586E+03</pdfrwt>
<totfact> 0.85345254E+03</totfact>
</mgrwt>
</event>
<event>
 4    1  0.2299148E-001  0.1821928E+03  0.7546771E-02  0.1165698E+00
         21   -1    0    0  501  502  0.00000000000E+00  0.00000000000E+00  0.12523502714E+03  0.12523502714E+03  0.00000000000E+00 0.  1.
         21   -1    0    0  502  503 -0.00000000000E+00 -0.00000000000E+00 -0.26603896539E+03  0.26603896539E+03  0.00000000000E+00 0.  1.
          6    1    1    2  501    0  0.56976556182E+02  0.19076259383E+02 -0.82296843468E+02  0.19991748816E+03  0.17200000000E+03 0.  1.
         -6    1    1    2    0  503 -0.56976556182E+02 -0.19076259383E+02 -0.58507094776E+02  0.19135650437E+03  0.17200000000E+03 0.  1.
<mgrwt>
<rscale>  2 0.18219284E+03</rscale>
<asrwt>0</asrwt>
<pdfrwt beam="1">  1       21 0.31308757E-01 0.18219284E+03</pdfrwt>
<pdfrwt beam="2">  1       21 0.66509741E-01 0.18219284E+03</pdfrwt>
<totfact> 0.20449363E+04</totfact>
</mgrwt>
</event>
<event>
 4    1  0.2299148E-001  0.1778615E+03  0.7546771E-02  0.1169889E+00
         21   -1    0    0  501  502  0.00000000000E+00  0.00000000000E+00  0.17424421947E+03  0.17424421947E+03  0.00000000000E+00 0.  1.
         21   -1    0    0  502  503 -0.00000000000E+00 -0.00000000000E+00 -0.18635457461E+03  0.18635457461E+03  0.00000000000E+00 0.  1.
          6    1    1    2  501    0 -0.45154915781E+02  0.34276697899E+01 -0.34993674270E+02  0.18127126793E+03  0.17200000000E+03 0.  1.
         -6    1    1    2    0  503  0.45154915781E+02 -0.34276697899E+01  0.22883319132E+02  0.17932752615E+03  0.17200000000E+03 0.  1.
<mgrwt>
<rscale>  2 0.17786151E+03</rscale>
<asrwt>0</asrwt>
<pdfrwt beam="1">  1       21 0.43561055E-01 0.17786151E+03</pdfrwt>
<pdfrwt beam="2">  1       21 0.46588643E-01 0.17786151E+03</pdfrwt>
<totfact> 0.22539735E+04</totfact>
</mgrwt>
</event>
<event>
 4    1  0.2299148E-001  0.2192673E+03  0.7546771E-02  0.1134430E+00
         21   -1    0    0  503  502  0.00000000000E+00  0.00000000000E+00  0.20260925699E+03  0.20260925699E+03  0.00000000000E+00 0. -1.
         21   -1    0    0  501  503 -0.00000000000E+00 -0.00000000000E+00 -0.46953884650E+03  0.46953884650E+03  0.00000000000E+00 0.  1.
          6    1    1    2  501    0  0.44655774935E+02 -0.12845236323E+03 -0.36982338899E+03  0.42993893392E+03  0.17200000000E+03 0.  1.
         -6    1    1    2    0  502 -0.44655774935E+02  0.12845236323E+03  0.10289379948E+03  0.24220916957E+03  0.17200000000E+03 0. -1.
<mgrwt>
<rscale>  2 0.21926730E+03</rscale>
<asrwt>0</asrwt>
<pdfrwt beam="1">  1       21 0.50652315E-01 0.21926730E+03</pdfrwt>
<pdfrwt beam="2">  1       21 0.11738471E+00 0.21926730E+03</pdfrwt>
<totfact> 0.20197847E+03</totfact>
</mgrwt>
</event>
<event>
 4    1  0.2299148E-001  0.2010983E+03  0.7546771E-02  0.1148816E+00
         21   -1    0    0  503  502  0.00000000000E+00  0.00000000000E+00  0.11908525351E+04  0.11908525351E+04  0.00000000000E+00 0. -1.
         21   -1    0    0  501  503 -0.00000000000E+00 -0.00000000000E+00 -0.58091430596E+02  0.58091430596E+02  0.00000000000E+00 0.  1.
          6    1    1    2  501    0 -0.10321067353E+03  0.14286338620E+02  0.16389103498E+03  0.25942400418E+03  0.17200000000E+03 0. -1.
         -6    1    1    2    0  502  0.10321067353E+03 -0.14286338620E+02  0.96887006950E+03  0.98951996149E+03  0.17200000000E+03 0. -1.
<mgrwt>
<rscale>  2 0.20109834E+03</rscale>
<asrwt>0</asrwt>
<pdfrwt beam="1">  1       21 0.29771305E+00 0.20109834E+03</pdfrwt>
<pdfrwt beam="2">  1       21 0.14522862E-01 0.20109834E+03</pdfrwt>
<totfact> 0.14481575E+03</totfact>
</mgrwt>
</event>
<event>
 4    1  0.2299148E-001  0.1928498E+03  0.7546771E-02  0.1155916E+00
         21   -1    0    0  501  502  0.00000000000E+00  0.00000000000E+00  0.17961533377E+03  0.17961533377E+03  0.00000000000E+00 0.  1.
         21   -1    0    0  502  503 -0.00000000000E+00 -0.00000000000E+00 -0.25391788271E+03  0.25391788271E+03  0.00000000000E+00 0. -1.
          6    1    1    2  501    0  0.12840814081E+02  0.86267971777E+02  0.55968022550E+02  0.20080704422E+03  0.17200000000E+03 0.  1.
         -6    1    1    2    0  503 -0.12840814081E+02 -0.86267971777E+02 -0.13027057148E+03  0.23272617226E+03  0.17200000000E+03 0. -1.
<mgrwt>
<rscale>  2 0.19284981E+03</rscale>
<asrwt>0</asrwt>
<pdfrwt beam="1">  1       21 0.44903834E-01 0.19284981E+03</pdfrwt>
<pdfrwt beam="2">  1       21 0.63479470E-01 0.19284981E+03</pdfrwt>
<totfact> 0.10919901E+04</totfact>
</mgrwt>
</event>
<event>
 4    1  0.2299148E-001  0.2006894E+03  0.7546771E-02  0.1149159E+00
         21   -1    0    0  503  502  0.00000000000E+00  0.00000000000E+00  0.25066963287E+03  0.25066963287E+03  0.00000000000E+00 0.  1.
         21   -1    0    0  501  503 -0.00000000000E+00 -0.00000000000E+00 -0.17808283246E+03  0.17808283246E+03  0.00000000000E+00 0.  1.
          6    1    1    2  501    0 -0.95957128493E+02  0.38528541438E+02 -0.30732728985E+02  0.20302886407E+03  0.17200000000E+03 0.  1.
         -6    1    1    2    0  502  0.95957128493E+02 -0.38528541438E+02  0.10331952940E+03  0.22572360127E+03  0.17200000000E+03 0.  1.
<mgrwt>
<rscale>  2 0.20068936E+03</rscale>
<asrwt>0</asrwt>
<pdfrwt beam="1">  1       21 0.62667408E-01 0.20068936E+03</pdfrwt>
<pdfrwt beam="2">  1       21 0.44520708E-01 0.20068936E+03</pdfrwt>
<totfact> 0.11366715E+04</totfact>
</mgrwt>
</event>
<event>
 4    1  0.2299148E-001  0.1759581E+03  0.7546771E-02  0.1171773E+00
         21   -1    0    0  501  502  0.00000000000E+00  0.00000000000E+00  0.69662605912E+02  0.69662605912E+02  0.00000000000E+00 0.  1.
         21   -1    0    0  502  503 -0.00000000000E+00 -0.00000000000E+00 -0.67983952216E+03  0.67983952216E+03  0.00000000000E+00 0.  1.
          6    1    1    2  501    0 -0.32521812550E+02 -0.17877342938E+02 -0.84574081482E+02  0.19522818173E+03  0.17200000000E+03 0.  1.
         -6    1    1    2    0  503  0.32521812550E+02  0.17877342938E+02 -0.52560283477E+03  0.55427394634E+03  0.17200000000E+03 0.  1.
<mgrwt>
<rscale>  2 0.17595814E+03</rscale>
<asrwt>0</asrwt>
<pdfrwt beam="1">  1       21 0.17415652E-01 0.17595814E+03</pdfrwt>
<pdfrwt beam="2">  1       21 0.16995988E+00 0.17595814E+03</pdfrwt>
<totfact> 0.64640850E+03</totfact>
</mgrwt>
</event>
<event>
 4    1  0.2299148E-001  0.2029592E+03  0.7546771E-02  0.1147266E+00
         21   -1    0    0  501  502  0.00000000000E+00  0.00000000000E+00  0.94534981266E+02  0.94534981266E+02  0.00000000000E+00 0.  1.
         21   -1    0    0  502  503 -0.00000000000E+00 -0.00000000000E+00 -0.44843982504E+03  0.44843982504E+03  0.00000000000E+00 0.  1.
          6    1    1    2  501    0 -0.80542898007E+02 -0.71563062645E+02 -0.13126040799E+03  0.24170586476E+03  0.17200000000E+03 0.  1.
         -6    1    1    2    0  503  0.80542898007E+02  0.71563062645E+02 -0.22264443578E+03  0.30126894154E+03  0.17200000000E+03 0.  1.
<mgrwt>
<rscale>  2 0.20295918E+03</rscale>
<asrwt>0</asrwt>
<pdfrwt beam="1">  1       21 0.23633746E-01 0.20295918E+03</pdfrwt>
<pdfrwt beam="2">  1       21 0.11210995E+00 0.20295918E+03</pdfrwt>
<totfact> 0.10437362E+04</totfact>
</mgrwt>
</event>
<event>
 4    1  0.2299148E-001  0.2430326E+03  0.7546771E-02  0.1117789E+00
         21   -1    0    0  503  502  0.00000000000E+00  0.00000000000E+00  0.54739682486E+03  0.54739682486E+03  0.00000000000E+00 0. -1.
         21   -1    0    0  501  503 -0.00000000000E+00 -0.00000000000E+00 -0.12199486589E+03  0.12199486589E+03  0.00000000000E+00 0. -1.
          6    1    1    2  501    0  0.90429334719E+02  0.14595685531E+03  0.98941161888E+02  0.26240087977E+03  0.17200000000E+03 0. -1.
         -6    1    1    2    0  502 -0.90429334719E+02 -0.14595685531E+03  0.32646079708E+03  0.40699081097E+03  0.17200000000E+03 0. -1.
<mgrwt>
<rscale>  2 0.24303265E+03</rscale>
<asrwt>0</asrwt>
<pdfrwt beam="1">  1       21 0.13684920E+00 0.24303265E+03</pdfrwt>
<pdfrwt beam="2">  1       21 0.30498718E-01 0.24303265E+03</pdfrwt>
<totfact> 0.37634860E+03</totfact>
</mgrwt>
</event>
<event>
 4    1  0.2299148E-001  0.2033934E+03  0.7546771E-02  0.1146907E+00
         21   -1    0    0  501  502  0.00000000000E+00  0.00000000000E+00  0.18698743571E+03  0.18698743571E+03  0.00000000000E+00 0. -1.
         21   -1    0    0  502  503 -0.00000000000E+00 -0.00000000000E+00 -0.24074791540E+03  0.24074791540E+03  0.00000000000E+00 0. -1.
          6    1    1    2  501    0 -0.10783739609E+03 -0.12489024222E+02  0.34000853390E+02  0.20621575535E+03  0.17200000000E+03 0. -1.
         -6    1    1    2    0  503  0.10783739609E+03  0.12489024222E+02 -0.87761333076E+02  0.22151959576E+03  0.17200000000E+03 0. -1.
<mgrwt>
<rscale>  2 0.20339341E+03</rscale>
<asrwt>0</asrwt>
<pdfrwt beam="1">  1       21 0.46746859E-01 0.20339341E+03</pdfrwt>
<pdfrwt beam="2">  1       21 0.60186979E-01 0.20339341E+03</pdfrwt>
<totfact> 0.11195672E+04</totfact>
</mgrwt>
</event>
<event>
 4    1  0.2299148E-001  0.3808562E+03  0.7546771E-02  0.1050618E+00
         21   -1    0    0  503  502  0.00000000000E+00  0.00000000000E+00  0.48323198450E+03  0.48323198450E+03  0.00000000000E+00 0.  1.
         21   -1    0    0  501  503 -0.00000000000E+00 -0.00000000000E+00 -0.31457635018E+03  0.31457635018E+03  0.00000000000E+00 0.  1.
          6    1    1    2  501    0 -0.24450294539E+03  0.23597828436E+03 -0.10395717575E+01  0.38085761342E+03  0.17200000000E+03 0.  1.
         -6    1    1    2    0  502  0.24450294539E+03 -0.23597828436E+03  0.16969520607E+03  0.41695072126E+03  0.17200000000E+03 0.  1.
<mgrwt>
<rscale>  2 0.38085619E+03</rscale>
<asrwt>0</asrwt>
<pdfrwt beam="1">  1       21 0.12080800E+00 0.38085619E+03</pdfrwt>
<pdfrwt beam="2">  1       21 0.78644088E-01 0.38085619E+03</pdfrwt>
<totfact> 0.64501448E+02</totfact>
</mgrwt>
</event>
<event>
 4    1  0.2299148E-001  0.4721944E+03  0.7546771E-02  0.1021303E+00
         21   -1    0    0  501  502  0.00000000000E+00  0.00000000000E+00  0.44077243467E+03  0.44077243467E+03  0.00000000000E+00 0. -1.
         21   -1    0    0  502  503 -0.00000000000E+00 -0.00000000000E+00 -0.53168288687E+03  0.53168288687E+03  0.00000000000E+00 0.  1.
          6    1    1    2  501    0 -0.43876761028E+03  0.29437171192E+02  0.61708023766E+02  0.47620945295E+03  0.17200000000E+03 0.  1.
         -6    1    1    2    0  503  0.43876761028E+03 -0.29437171192E+02 -0.15261847597E+03  0.49624586858E+03  0.17200000000E+03 0. -1.
<mgrwt>
<rscale>  2 0.47219441E+03</rscale>
<asrwt>0</asrwt>
<pdfrwt beam="1">  1       21 0.11019311E+00 0.47219441E+03</pdfrwt>
<pdfrwt beam="2">  1       21 0.13292072E+00 0.47219441E+03</pdfrwt>
<totfact> 0.21532929E+02</totfact>
</mgrwt>
</event>
<event>
 4    1  0.2299148E-001  0.2478446E+03  0.7546771E-02  0.1114675E+00
         21   -1    0    0  503  502  0.00000000000E+00  0.00000000000E+00  0.54239965534E+03  0.54239965534E+03  0.00000000000E+00 0.  1.
         21   -1    0    0  501  503 -0.00000000000E+00 -0.00000000000E+00 -0.15498082690E+03  0.15498082690E+03  0.00000000000E+00 0. -1.
          6    1    1    2  501    0 -0.26143013736E+02  0.17652043893E+03  0.12772261755E+02  0.24817343371E+03  0.17200000000E+03 0.  1.
         -6    1    1    2    0  502  0.26143013736E+02 -0.17652043893E+03  0.37464656668E+03  0.44920704853E+03  0.17200000000E+03 0.  1.
<mgrwt>
<rscale>  2 0.24784455E+03</rscale>
<asrwt>0</asrwt>
<pdfrwt beam="1">  1       21 0.13559991E+00 0.24784455E+03</pdfrwt>
<pdfrwt beam="2">  1       21 0.38745208E-01 0.24784455E+03</pdfrwt>
<totfact> 0.23837880E+03</totfact>
</mgrwt>
</event>
<event>
 4    1  0.2299148E-001  0.1789068E+03  0.7546771E-02  0.1168865E+00
         21   -1    0    0  503  502  0.00000000000E+00  0.00000000000E+00  0.30658372567E+03  0.30658372567E+03  0.00000000000E+00 0.  1.
         21   -1    0    0  501  503 -0.00000000000E+00 -0.00000000000E+00 -0.12885536830E+03  0.12885536830E+03  0.00000000000E+00 0.  1.
          6    1    1    2  501    0 -0.48920407490E+02  0.55160781098E+01 -0.59830832488E+01  0.17900678946E+03  0.17200000000E+03 0.  1.
         -6    1    1    2    0  502  0.48920407490E+02 -0.55160781098E+01  0.18371144061E+03  0.25643230452E+03  0.17200000000E+03 0.  1.
<mgrwt>
<rscale>  2 0.17890677E+03</rscale>
<asrwt>0</asrwt>
<pdfrwt beam="1">  1       21 0.76645930E-01 0.17890677E+03</pdfrwt>
<pdfrwt beam="2">  1       21 0.32213843E-01 0.17890677E+03</pdfrwt>
<totfact> 0.14166582E+04</totfact>
</mgrwt>
</event>
<event>
 4    1  0.2299148E-001  0.2951424E+03  0.7546771E-02  0.1087694E+00
         21   -1    0    0  503  502  0.00000000000E+00  0.00000000000E+00  0.42135125037E+03  0.42135125037E+03  0.00000000000E+00 0. -1.
         21   -1    0    0  501  503 -0.00000000000E+00 -0.00000000000E+00 -0.20980924008E+03  0.20980924008E+03  0.00000000000E+00 0.  1.
          6    1    1    2  501    0  0.11679680275E+03 -0.20948403503E+03  0.14395647463E+03  0.32837862393E+03  0.17200000000E+03 0.  1.
         -6    1    1    2    0  502 -0.11679680275E+03  0.20948403503E+03  0.67585535659E+02  0.30278186653E+03  0.17200000000E+03 0. -1.
<mgrwt>
<rscale>  2 0.29514243E+03</rscale>
<asrwt>0</asrwt>
<pdfrwt beam="1">  1       21 0.10533781E+00 0.29514243E+03</pdfrwt>
<pdfrwt beam="2">  1       21 0.52452311E-01 0.29514243E+03</pdfrwt>
<totfact> 0.23191309E+03</totfact>
</mgrwt>
</event>
<event>
 4    1  0.2299148E-001  0.1912782E+03  0.7546771E-02  0.1157314E+00
         21   -1    0    0  503  502  0.00000000000E+00  0.00000000000E+00  0.19111265391E+04  0.19111265391E+04  0.00000000000E+00 0.  1.
         21   -1    0    0  501  503 -0.00000000000E+00 -0.00000000000E+00 -0.20075424051E+02  0.20075424051E+02  0.00000000000E+00 0.  1.
          6    1    1    2  501    0 -0.34317301616E+02  0.76326054816E+02  0.73758026661E+03  0.76197899809E+03  0.17200000000E+03 0.  1.
         -6    1    1    2    0  502  0.34317301616E+02 -0.76326054816E+02  0.11534708485E+04  0.11692229651E+04  0.17200000000E+03 0.  1.
<mgrwt>
<rscale>  2 0.19127818E+03</rscale>
<asrwt>0</asrwt>
<pdfrwt beam="1">  1       21 0.47778102E+00 0.19127818E+03</pdfrwt>
<pdfrwt beam="2">  1       21 0.50188625E-02 0.19127818E+03</pdfrwt>
<totfact> 0.72390108E+02</totfact>
</mgrwt>
</event>
<event>
 4    1  0.2299148E-001  0.4428030E+03  0.7546771E-02  0.1029890E+00
         21   -1    0    0  501  502  0.00000000000E+00  0.00000000000E+00  0.46588968965E+03  0.46588968965E+03  0.00000000000E+00 0. -1.
         21   -1    0    0  502  503 -0.00000000000E+00 -0.00000000000E+00 -0.44858077139E+03  0.44858077139E+03  0.00000000000E+00 0. -1.
          6    1    1    2  501    0 -0.39467758470E+03  0.10353782589E+03  0.12231759126E+03  0.45938662408E+03  0.17200000000E+03 0. -1.
         -6    1    1    2    0  503  0.39467758470E+03 -0.10353782589E+03 -0.10500867301E+03  0.45508383696E+03  0.17200000000E+03 0. -1.
<mgrwt>
<rscale>  2 0.44280298E+03</rscale>
<asrwt>0</asrwt>
<pdfrwt beam="1">  1       21 0.11647242E+00 0.44280298E+03</pdfrwt>
<pdfrwt beam="2">  1       21 0.11214519E+00 0.44280298E+03</pdfrwt>
<totfact> 0.29352683E+02</totfact>
</mgrwt>
</event>
<event>
 4    1  0.2299148E-001  0.1839693E+03  0.7546771E-02  0.1164016E+00
         21   -1    0    0  501  502  0.00000000000E+00  0.00000000000E+00  0.40553393625E+03  0.40553393625E+03  0.00000000000E+00 0.  1.
         21   -1    0    0  502  503 -0.00000000000E+00 -0.00000000000E+00 -0.83975273112E+02  0.83975273112E+02  0.00000000000E+00 0.  1.
          6    1    1    2  501    0  0.88181300186E-02 -0.65274092538E+02  0.18000453446E+03  0.25738364296E+03  0.17200000000E+03 0.  1.
         -6    1    1    2    0  503 -0.88181300186E-02  0.65274092538E+02  0.14155412868E+03  0.23212556641E+03  0.17200000000E+03 0.  1.
<mgrwt>
<rscale>  2 0.18396931E+03</rscale>
<asrwt>0</asrwt>
<pdfrwt beam="1">  1       21 0.10138348E+00 0.18396931E+03</pdfrwt>
<pdfrwt beam="2">  1       21 0.20993819E-01 0.18396931E+03</pdfrwt>
<totfact> 0.16841826E+04</totfact>
</mgrwt>
</event>
<event>
 4    1  0.2299148E-001  0.1774128E+03  0.7546771E-02  0.1170331E+00
         21   -1    0    0  501  502  0.00000000000E+00  0.00000000000E+00  0.23983081873E+03  0.23983081873E+03  0.00000000000E+00 0.  1.
         21   -1    0    0  502  503 -0.00000000000E+00 -0.00000000000E+00 -0.13168688699E+03  0.13168688699E+03  0.00000000000E+00 0. -1.
          6    1    1    2  501    0 -0.29305068333E+00 -0.43488278661E+02  0.43246666240E+02  0.18260775011E+03  0.17200000000E+03 0. -1.
         -6    1    1    2    0  503  0.29305068333E+00  0.43488278661E+02  0.64897265506E+02  0.18890995561E+03  0.17200000000E+03 0.  1.
<mgrwt>
<rscale>  2 0.17741284E+03</rscale>
<asrwt>0</asrwt>
<pdfrwt beam="1">  1       21 0.59957704E-01 0.17741284E+03</pdfrwt>
<pdfrwt beam="2">  1       21 0.32921722E-01 0.17741284E+03</pdfrwt>
<totfact> 0.23254908E+04</totfact>
</mgrwt>
</event>
<event>
 4    1  0.2299148E-001  0.2200945E+03  0.7546771E-02  0.1133813E+00
         21   -1    0    0  503  502  0.00000000000E+00  0.00000000000E+00  0.41933271101E+03  0.41933271101E+03  0.00000000000E+00 0.  1.
         21   -1    0    0  501  503 -0.00000000000E+00 -0.00000000000E+00 -0.12752501184E+03  0.12752501184E+03  0.00000000000E+00 0. -1.
          6    1    1    2  501    0 -0.67691058906E+02  0.11948010452E+03  0.62012584003E+02  0.22866380432E+03  0.17200000000E+03 0. -1.
         -6    1    1    2    0  502  0.67691058906E+02 -0.11948010452E+03  0.22979511516E+03  0.31819391852E+03  0.17200000000E+03 0.  1.
<mgrwt>
<rscale>  2 0.22009447E+03</rscale>
<asrwt>0</asrwt>
<pdfrwt beam="1">  1       21 0.10483317E+00 0.22009447E+03</pdfrwt>
<pdfrwt beam="2">  1       21 0.31881254E-01 0.22009447E+03</pdfrwt>
<totfact> 0.68010546E+03</totfact>
</mgrwt>
</event>
<event>
 4    1  0.2299148E-001  0.2004386E+03  0.7546771E-02  0.1149369E+00
         21   -1    0    0  501  502  0.00000000000E+00  0.00000000000E+00  0.11812111448E+03  0.11812111448E+03  0.00000000000E+00 0.  1.
         21   -1    0    0  502  503 -0.00000000000E+00 -0.00000000000E+00 -0.34570131388E+03  0.34570131388E+03  0.00000000000E+00 0.  1.
          6    1    1    2  501    0 -0.10243244740E+03 -0.99617292505E+01 -0.14325088304E+03  0.24636651116E+03  0.17200000000E+03 0.  1.
         -6    1    1    2    0  503  0.10243244740E+03  0.99617292505E+01 -0.84329316361E+02  0.21745591721E+03  0.17200000000E+03 0.  1.
<mgrwt>
<rscale>  2 0.20043862E+03</rscale>
<asrwt>0</asrwt>
<pdfrwt beam="1">  1       21 0.29530279E-01 0.20043862E+03</pdfrwt>
<pdfrwt beam="2">  1       21 0.86425328E-01 0.20043862E+03</pdfrwt>
<totfact> 0.12609037E+04</totfact>
</mgrwt>
</event>
<event>
 4    1  0.2299148E-001  0.2296920E+03  0.7546771E-02  0.1126857E+00
         21   -1    0    0  501  502  0.00000000000E+00  0.00000000000E+00  0.10596918108E+03  0.10596918108E+03  0.00000000000E+00 0.  1.
         21   -1    0    0  502  503 -0.00000000000E+00 -0.00000000000E+00 -0.52958852014E+03  0.52958852014E+03  0.00000000000E+00 0. -1.
          6    1    1    2  501    0  0.54340223022E+02  0.14220246396E+03 -0.13403415549E+03  0.26593900698E+03  0.17200000000E+03 0.  1.
         -6    1    1    2    0  503 -0.54340223022E+02 -0.14220246396E+03 -0.28958518356E+03  0.36961869424E+03  0.17200000000E+03 0. -1.
<mgrwt>
<rscale>  2 0.22969197E+03</rscale>
<asrwt>0</asrwt>
<pdfrwt beam="1">  1       21 0.26492295E-01 0.22969197E+03</pdfrwt>
<pdfrwt beam="2">  1       21 0.13239713E+00 0.22969197E+03</pdfrwt>
<totfact> 0.54384340E+03</totfact>
</mgrwt>
</event>
<event>
 4    1  0.2299148E-001  0.1948002E+03  0.7546771E-02  0.1154202E+00
         21   -1    0    0  501  502  0.00000000000E+00  0.00000000000E+00  0.13593333159E+03  0.13593333159E+03  0.00000000000E+00 0. -1.
         21   -1    0    0  502  503 -0.00000000000E+00 -0.00000000000E+00 -0.29706441762E+03  0.29706441762E+03  0.00000000000E+00 0. -1.
          6    1    1    2  501    0 -0.30737108383E+02  0.86129858855E+02 -0.27414378632E+02  0.19671977677E+03  0.17200000000E+03 0. -1.
         -6    1    1    2    0  503  0.30737108383E+02 -0.86129858855E+02 -0.13371670740E+03  0.23627797243E+03  0.17200000000E+03 0. -1.
<mgrwt>
<rscale>  2 0.19480021E+03</rscale>
<asrwt>0</asrwt>
<pdfrwt beam="1">  1       21 0.33983333E-01 0.19480021E+03</pdfrwt>
<pdfrwt beam="2">  1       21 0.74266104E-01 0.19480021E+03</pdfrwt>
<totfact> 0.13539869E+04</totfact>
</mgrwt>
</event>
<event>
 4    1  0.2299148E-001  0.1830205E+03  0.7546771E-02  0.1164911E+00
         21   -1    0    0  503  502  0.00000000000E+00  0.00000000000E+00  0.37194743149E+02  0.37194743149E+02  0.00000000000E+00 0. -1.
         21   -1    0    0  501  503 -0.00000000000E+00 -0.00000000000E+00 -0.92191573080E+03  0.92191573080E+03  0.00000000000E+00 0. -1.
          6    1    1    2  501    0  0.59842221261E+02  0.18204467613E+02 -0.51533008400E+03  0.54686523895E+03  0.17200000000E+03 0.  1.
         -6    1    1    2    0  502 -0.59842221261E+02 -0.18204467613E+02 -0.36939090365E+03  0.41224523500E+03  0.17200000000E+03 0.  1.
<mgrwt>
<rscale>  2 0.18302047E+03</rscale>
<asrwt>0</asrwt>
<pdfrwt beam="1">  1       21 0.92986859E-02 0.18302047E+03</pdfrwt>
<pdfrwt beam="2">  1       21 0.23047893E+00 0.18302047E+03</pdfrwt>
<totfact> 0.80870035E+03</totfact>
</mgrwt>
</event>
<event>
 4    1  0.2299148E-001  0.1832664E+03  0.7546771E-02  0.1164679E+00
         21   -1    0    0  501  502  0.00000000000E+00  0.00000000000E+00  0.44835394203E+03  0.44835394203E+03  0.00000000000E+00 0. -1.
         21   -1    0    0  502  503 -0.00000000000E+00 -0.00000000000E+00 -0.89198460318E+02  0.89198460318E+02  0.00000000000E+00 0.  1.
          6    1    1    2  501    0 -0.28907578089E+02 -0.56275390962E+02  0.72007491626E+02  0.19690517146E+03  0.17200000000E+03 0.  1.
         -6    1    1    2    0  503  0.28907578089E+02  0.56275390962E+02  0.28714799009E+03  0.34064723089E+03  0.17200000000E+03 0. -1.
<mgrwt>
<rscale>  2 0.18326638E+03</rscale>
<asrwt>0</asrwt>
<pdfrwt beam="1">  1       21 0.11208848E+00 0.18326638E+03</pdfrwt>
<pdfrwt beam="2">  1       21 0.22299616E-01 0.18326638E+03</pdfrwt>
<totfact> 0.11818627E+04</totfact>
</mgrwt>
</event>
<event>
 4    1  0.2299148E-001  0.2341979E+03  0.7546771E-02  0.1123719E+00
         21   -1    0    0  503  502  0.00000000000E+00  0.00000000000E+00  0.44655463925E+03  0.44655463925E+03  0.00000000000E+00 0.  1.
         21   -1    0    0  501  503 -0.00000000000E+00 -0.00000000000E+00 -0.12543982070E+03  0.12543982070E+03  0.00000000000E+00 0. -1.
          6    1    1    2  501    0  0.15894597988E+03 -0.91274692183E+00  0.11927581817E+03  0.26282195195E+03  0.17200000000E+03 0. -1.
         -6    1    1    2    0  502 -0.15894597988E+03  0.91274692183E+00  0.20183900039E+03  0.30917250800E+03  0.17200000000E+03 0.  1.
<mgrwt>
<rscale>  2 0.23419790E+03</rscale>
<asrwt>0</asrwt>
<pdfrwt beam="1">  1       21 0.11163866E+00 0.23419790E+03</pdfrwt>
<pdfrwt beam="2">  1       21 0.31359956E-01 0.23419790E+03</pdfrwt>
<totfact> 0.59738404E+03</totfact>
</mgrwt>
</event>
<event>
 4    1  0.2299148E-001  0.2787926E+03  0.7546771E-02  0.1096350E+00
         21   -1    0    0  501  502  0.00000000000E+00  0.00000000000E+00  0.94024718715E+03  0.94024718715E+03  0.00000000000E+00 0. -1.
         21   -1    0    0  502  503 -0.00000000000E+00 -0.00000000000E+00 -0.13613947481E+03  0.13613947481E+03  0.00000000000E+00 0.  1.
          6    1    1    2  501    0 -0.17902860312E+03  0.12684662144E+03  0.73935710441E+03  0.79017354672E+03  0.17200000000E+03 0. -1.
         -6    1    1    2    0  503  0.17902860312E+03 -0.12684662144E+03  0.64750607934E+02  0.28621311524E+03  0.17200000000E+03 0.  1.
<mgrwt>
<rscale>  2 0.27879259E+03</rscale>
<asrwt>0</asrwt>
<pdfrwt beam="1">  1       21 0.23506178E+00 0.27879259E+03</pdfrwt>
<pdfrwt beam="2">  1       21 0.34034871E-01 0.27879259E+03</pdfrwt>
<totfact> 0.61964371E+02</totfact>
</mgrwt>
</event>
<event>
 4    1  0.2299148E-001  0.1965626E+03  0.7546771E-02  0.1152672E+00
         21   -1    0    0  501  502  0.00000000000E+00  0.00000000000E+00  0.64827069085E+02  0.64827069085E+02  0.00000000000E+00 0. -1.
         21   -1    0    0  502  503 -0.00000000000E+00 -0.00000000000E+00 -0.10858266137E+04  0.10858266137E+04  0.00000000000E+00 0.  1.
          6    1    1    2  501    0 -0.33421752545E+02 -0.89083296513E+02 -0.89691672528E+03  0.91820284216E+03  0.17200000000E+03 0.  1.
         -6    1    1    2    0  503  0.33421752545E+02  0.89083296513E+02 -0.12408281937E+03  0.23245084066E+03  0.17200000000E+03 0. -1.
<mgrwt>
<rscale>  2 0.19656258E+03</rscale>
<asrwt>0</asrwt>
<pdfrwt beam="1">  1       21 0.16206768E-01 0.19656258E+03</pdfrwt>
<pdfrwt beam="2">  1       21 0.27145665E+00 0.19656258E+03</pdfrwt>
<totfact> 0.16899647E+03</totfact>
</mgrwt>
</event>
<event>
 4    1  0.2299148E-001  0.1805260E+03  0.7546771E-02  0.1167295E+00
         21   -1    0    0  503  502  0.00000000000E+00  0.00000000000E+00  0.47683342387E+03  0.47683342387E+03  0.00000000000E+00 0. -1.
         21   -1    0    0  501  503 -0.00000000000E+00 -0.00000000000E+00 -0.70464704282E+02  0.70464704282E+02  0.00000000000E+00 0.  1.
          6    1    1    2  501    0 -0.62736227572E+01  0.54463565970E+02  0.15573314129E+03  0.23841654653E+03  0.17200000000E+03 0.  1.
         -6    1    1    2    0  502  0.62736227572E+01 -0.54463565970E+02  0.25063557830E+03  0.30888158163E+03  0.17200000000E+03 0.  1.
<mgrwt>
<rscale>  2 0.18052600E+03</rscale>
<asrwt>0</asrwt>
<pdfrwt beam="1">  1       21 0.11920835E+00 0.18052600E+03</pdfrwt>
<pdfrwt beam="2">  1       21 0.17616177E-01 0.18052600E+03</pdfrwt>
<totfact> 0.15811633E+04</totfact>
</mgrwt>
</event>
<event>
 4    1  0.2299148E-001  0.1939830E+03  0.7546771E-02  0.1154917E+00
         21   -1    0    0  503  502  0.00000000000E+00  0.00000000000E+00  0.33609098543E+02  0.33609098543E+02  0.00000000000E+00 0. -1.
         21   -1    0    0  501  503 -0.00000000000E+00 -0.00000000000E+00 -0.11315675252E+04  0.11315675252E+04  0.00000000000E+00 0.  1.
          6    1    1    2  501    0 -0.77370485887E+02 -0.45378658304E+02 -0.60884280593E+03  0.63899841710E+03  0.17200000000E+03 0.  1.
         -6    1    1    2    0  502  0.77370485887E+02  0.45378658304E+02 -0.48911562075E+03  0.52617820667E+03  0.17200000000E+03 0. -1.
<mgrwt>
<rscale>  2 0.19398303E+03</rscale>
<asrwt>0</asrwt>
<pdfrwt beam="1">  1       21 0.84022745E-02 0.19398303E+03</pdfrwt>
<pdfrwt beam="2">  1       21 0.28289188E+00 0.19398303E+03</pdfrwt>
<totfact> 0.47108199E+03</totfact>
</mgrwt>
</event>
<event>
 4    1  0.2299148E-001  0.2127852E+03  0.7546771E-02  0.1139379E+00
         21   -1    0    0  503  502  0.00000000000E+00  0.00000000000E+00  0.11376847120E+04  0.11376847120E+04  0.00000000000E+00 0.  1.
         21   -1    0    0  501  503 -0.00000000000E+00 -0.00000000000E+00 -0.64475662232E+02  0.64475662232E+02  0.00000000000E+00 0.  1.
          6    1    1    2  501    0  0.91476774701E+02 -0.85589410972E+02  0.16473829897E+03  0.26910268435E+03  0.17200000000E+03 0.  1.
         -6    1    1    2    0  502 -0.91476774701E+02  0.85589410972E+02  0.90847075080E+03  0.93305768988E+03  0.17200000000E+03 0.  1.
<mgrwt>
<rscale>  2 0.21278521E+03</rscale>
<asrwt>0</asrwt>
<pdfrwt beam="1">  1       21 0.28442111E+00 0.21278521E+03</pdfrwt>
<pdfrwt beam="2">  1       21 0.16118919E-01 0.21278521E+03</pdfrwt>
<totfact> 0.14085254E+03</totfact>
</mgrwt>
</event>
<event>
 4    1  0.2299148E-001  0.1981244E+03  0.7546771E-02  0.1151331E+00
         21   -1    0    0  501  502  0.00000000000E+00  0.00000000000E+00  0.70760766152E+03  0.70760766152E+03  0.00000000000E+00 0.  1.
         21   -1    0    0  502  503 -0.00000000000E+00 -0.00000000000E+00 -0.55613439643E+02  0.55613439643E+02  0.00000000000E+00 0.  1.
          6    1    1    2  501    0  0.22211062868E+02 -0.95791135091E+02  0.34515910164E+03  0.39797999739E+03  0.17200000000E+03 0.  1.
         -6    1    1    2    0  503 -0.22211062868E+02  0.95791135091E+02  0.30683512023E+03  0.36524110377E+03  0.17200000000E+03 0.  1.
<mgrwt>
<rscale>  2 0.19812439E+03</rscale>
<asrwt>0</asrwt>
<pdfrwt beam="1">  1       21 0.17690189E+00 0.19812439E+03</pdfrwt>
<pdfrwt beam="2">  1       21 0.13903362E-01 0.19812439E+03</pdfrwt>
<totfact> 0.85641618E+03</totfact>
</mgrwt>
</event>
<event>
 4    1  0.2299148E-001  0.1827791E+03  0.7546771E-02  0.1165140E+00
         21   -1    0    0  503  502  0.00000000000E+00  0.00000000000E+00  0.45421149125E+02  0.45421149125E+02  0.00000000000E+00 0.  1.
         21   -1    0    0  501  503 -0.00000000000E+00 -0.00000000000E+00 -0.75101729428E+03  0.75101729428E+03  0.00000000000E+00 0.  1.
          6    1    1    2  501    0 -0.25364099459E+01  0.61788153683E+02 -0.29559608889E+03  0.34754173429E+03  0.17200000000E+03 0.  1.
         -6    1    1    2    0  502  0.25364099459E+01 -0.61788153683E+02 -0.41000005627E+03  0.44889670911E+03  0.17200000000E+03 0.  1.
<mgrwt>
<rscale>  2 0.18277913E+03</rscale>
<asrwt>0</asrwt>
<pdfrwt beam="1">  1       21 0.11355287E-01 0.18277913E+03</pdfrwt>
<pdfrwt beam="2">  1       21 0.18775433E+00 0.18277913E+03</pdfrwt>
<totfact> 0.10537610E+04</totfact>
</mgrwt>
</event>
<event>
 4    1  0.2299148E-001  0.1763215E+03  0.7546771E-02  0.1171411E+00
         21   -1    0    0  503  502  0.00000000000E+00  0.00000000000E+00  0.42673184231E+02  0.42673184231E+02  0.00000000000E+00 0.  1.
         21   -1    0    0  501  503 -0.00000000000E+00 -0.00000000000E+00 -0.84699161900E+03  0.84699161900E+03  0.00000000000E+00 0. -1.
          6    1    1    2  501    0  0.23175216644E+02  0.31115467783E+02 -0.56850863504E+03  0.59522376558E+03  0.17200000000E+03 0. -1.
         -6    1    1    2    0  502 -0.23175216644E+02 -0.31115467783E+02 -0.23580979973E+03  0.29444103765E+03  0.17200000000E+03 0.  1.
<mgrwt>
<rscale>  2 0.17632148E+03</rscale>
<asrwt>0</asrwt>
<pdfrwt beam="1">  1       21 0.10668296E-01 0.17632148E+03</pdfrwt>
<pdfrwt beam="2">  1       21 0.21174790E+00 0.17632148E+03</pdfrwt>
<totfact> 0.83118946E+03</totfact>
</mgrwt>
</event>
<event>
 4    1  0.2299148E-001  0.2262543E+03  0.7546771E-02  0.1129304E+00
         21   -1    0    0  501  502  0.00000000000E+00  0.00000000000E+00  0.83105083353E+02  0.83105083353E+02  0.00000000000E+00 0. -1.
         21   -1    0    0  502  503 -0.00000000000E+00 -0.00000000000E+00 -0.71808825352E+03  0.71808825352E+03  0.00000000000E+00 0.  1.
          6    1    1    2  501    0 -0.44877499738E+02  0.13997507265E+03 -0.16643128688E+03  0.28087432100E+03  0.17200000000E+03 0. -1.
         -6    1    1    2    0  503  0.44877499738E+02 -0.13997507265E+03 -0.46855188329E+03  0.52031901587E+03  0.17200000000E+03 0.  1.
<mgrwt>
<rscale>  2 0.22625431E+03</rscale>
<asrwt>0</asrwt>
<pdfrwt beam="1">  1       21 0.20776271E-01 0.22625431E+03</pdfrwt>
<pdfrwt beam="2">  1       21 0.17952206E+00 0.22625431E+03</pdfrwt>
<totfact> 0.38269280E+03</totfact>
</mgrwt>
</event>
<event>
 4    1  0.2299148E-001  0.1934008E+03  0.7546771E-02  0.1155429E+00
         21   -1    0    0  501  502  0.00000000000E+00  0.00000000000E+00  0.88369229074E+02  0.88369229074E+02  0.00000000000E+00 0.  1.
         21   -1    0    0  502  503 -0.00000000000E+00 -0.00000000000E+00 -0.43059308098E+03  0.43059308098E+03  0.00000000000E+00 0.  1.
          6    1    1    2  501    0 -0.72556333266E+02 -0.50551511237E+02 -0.13726843286E+03  0.23716344458E+03  0.17200000000E+03 0. -1.
         -6    1    1    2    0  503  0.72556333266E+02  0.50551511237E+02 -0.20495541904E+03  0.28179886547E+03  0.17200000000E+03 0. -1.
<mgrwt>
<rscale>  2 0.19340082E+03</rscale>
<asrwt>0</asrwt>
<pdfrwt beam="1">  1       21 0.22092308E-01 0.19340082E+03</pdfrwt>
<pdfrwt beam="2">  1       21 0.10764827E+00 0.19340082E+03</pdfrwt>
<totfact> 0.13172317E+04</totfact>
</mgrwt>
</event>
<event>
 4    1  0.2299148E-001  0.2424163E+03  0.7546771E-02  0.1118194E+00
         21   -1    0    0  503  502  0.00000000000E+00  0.00000000000E+00  0.39534562279E+03  0.39534562279E+03  0.00000000000E+00 0. -1.
         21   -1    0    0  501  503 -0.00000000000E+00 -0.00000000000E+00 -0.15074168776E+03  0.15074168776E+03  0.00000000000E+00 0. -1.
          6    1    1    2  501    0 -0.16599254238E+03 -0.40350330174E+02  0.15451318646E+03  0.28747173437E+03  0.17200000000E+03 0. -1.
         -6    1    1    2    0  502  0.16599254238E+03  0.40350330174E+02  0.90090748576E+02  0.25861557619E+03  0.17200000000E+03 0. -1.
<mgrwt>
<rscale>  2 0.24241632E+03</rscale>
<asrwt>0</asrwt>
<pdfrwt beam="1">  1       21 0.98836403E-01 0.24241632E+03</pdfrwt>
<pdfrwt beam="2">  1       21 0.37685423E-01 0.24241632E+03</pdfrwt>
<totfact> 0.55314440E+03</totfact>
</mgrwt>
</event>
<event>
 4    1  0.2299148E-001  0.2131112E+03  0.7546771E-02  0.1139126E+00
         21   -1    0    0  501  502  0.00000000000E+00  0.00000000000E+00  0.46087514369E+03  0.46087514369E+03  0.00000000000E+00 0. -1.
         21   -1    0    0  502  503 -0.00000000000E+00 -0.00000000000E+00 -0.14902834573E+03  0.14902834573E+03  0.00000000000E+00 0. -1.
          6    1    1    2  501    0  0.11974627310E+03 -0.38642327375E+02  0.33341418066E+03  0.39570369628E+03  0.17200000000E+03 0. -1.
         -6    1    1    2    0  503 -0.11974627310E+03  0.38642327375E+02 -0.21567382700E+02  0.21419979314E+03  0.17200000000E+03 0. -1.
<mgrwt>
<rscale>  2 0.21311124E+03</rscale>
<asrwt>0</asrwt>
<pdfrwt beam="1">  1       21 0.11521878E+00 0.21311124E+03</pdfrwt>
<pdfrwt beam="2">  1       21 0.37257087E-01 0.21311124E+03</pdfrwt>
<totfact> 0.39876367E+03</totfact>
</mgrwt>
</event>
<event>
 4    1  0.2299148E-001  0.2161885E+03  0.7546771E-02  0.1136757E+00
         21   -1    0    0  501  502  0.00000000000E+00  0.00000000000E+00  0.23856540797E+03  0.23856540797E+03  0.00000000000E+00 0. -1.
         21   -1    0    0  502  503 -0.00000000000E+00 -0.00000000000E+00 -0.19646635573E+03  0.19646635573E+03  0.00000000000E+00 0. -1.
          6    1    1    2  501    0  0.11741481093E+03  0.58027933161E+02  0.32618923445E+02  0.21863547978E+03  0.17200000000E+03 0. -1.
         -6    1    1    2    0  503 -0.11741481093E+03 -0.58027933161E+02  0.94801287985E+01  0.21639628392E+03  0.17200000000E+03 0. -1.
<mgrwt>
<rscale>  2 0.21618853E+03</rscale>
<asrwt>0</asrwt>
<pdfrwt beam="1">  1       21 0.59641352E-01 0.21618853E+03</pdfrwt>
<pdfrwt beam="2">  1       21 0.49116589E-01 0.21618853E+03</pdfrwt>
<totfact> 0.10217484E+04</totfact>
</mgrwt>
</event>
<event>
 4    1  0.2299148E-001  0.1911110E+03  0.7546771E-02  0.1157463E+00
         21   -1    0    0  501  502  0.00000000000E+00  0.00000000000E+00  0.12373098229E+03  0.12373098229E+03  0.00000000000E+00 0. -1.
         21   -1    0    0  502  503 -0.00000000000E+00 -0.00000000000E+00 -0.35195543230E+03  0.35195543230E+03  0.00000000000E+00 0. -1.
          6    1    1    2  501    0  0.23227854420E+02 -0.79999299576E+02 -0.18588470898E+02  0.19201289645E+03  0.17200000000E+03 0. -1.
         -6    1    1    2    0  503 -0.23227854420E+02  0.79999299576E+02 -0.20963597912E+03  0.28367351814E+03  0.17200000000E+03 0. -1.
<mgrwt>
<rscale>  2 0.19111102E+03</rscale>
<asrwt>0</asrwt>
<pdfrwt beam="1">  1       21 0.30932746E-01 0.19111102E+03</pdfrwt>
<pdfrwt beam="2">  1       21 0.87988857E-01 0.19111102E+03</pdfrwt>
<totfact> 0.11122621E+04</totfact>
</mgrwt>
</event>
<event>
 4    1  0.2299148E-001  0.1730132E+03  0.7546771E-02  0.1174742E+00
         21   -1    0    0  503  502  0.00000000000E+00  0.00000000000E+00  0.53891991140E+03  0.53891991140E+03  0.00000000000E+00 0. -1.
         21   -1    0    0  501  503 -0.00000000000E+00 -0.00000000000E+00 -0.55575073761E+02  0.55575073761E+02  0.00000000000E+00 0. -1.
          6    1    1    2  501    0 -0.66863502332E+01  0.17460189755E+02  0.23460144202E+03  0.29149854563E+03  0.17200000000E+03 0. -1.
         -6    1    1    2    0  502  0.66863502332E+01 -0.17460189755E+02  0.24874339562E+03  0.30299643954E+03  0.17200000000E+03 0. -1.
<mgrwt>
<rscale>  2 0.17301319E+03</rscale>
<asrwt>0</asrwt>
<pdfrwt beam="1">  1       21 0.13472996E+00 0.17301319E+03</pdfrwt>
<pdfrwt beam="2">  1       21 0.13893770E-01 0.17301319E+03</pdfrwt>
<totfact> 0.18039358E+04</totfact>
</mgrwt>
</event>
<event>
 4    1  0.2299148E-001  0.1820914E+03  0.7546771E-02  0.1165794E+00
         21   -1    0    0  501  502  0.00000000000E+00  0.00000000000E+00  0.16953444143E+03  0.16953444143E+03  0.00000000000E+00 0. -1.
         21   -1    0    0  502  503 -0.00000000000E+00 -0.00000000000E+00 -0.22674956075E+03  0.22674956075E+03  0.00000000000E+00 0.  1.
          6    1    1    2  501    0  0.47830466681E+01  0.59585106338E+02  0.44857411601E+02  0.18753519619E+03  0.17200000000E+03 0. -1.
         -6    1    1    2    0  503 -0.47830466681E+01 -0.59585106338E+02 -0.10207253093E+03  0.20874880599E+03  0.17200000000E+03 0.  1.
<mgrwt>
<rscale>  2 0.18209136E+03</rscale>
<asrwt>0</asrwt>
<pdfrwt beam="1">  1       21 0.42383611E-01 0.18209136E+03</pdfrwt>
<pdfrwt beam="2">  1       21 0.56687390E-01 0.18209136E+03</pdfrwt>
<totfact> 0.15774018E+04</totfact>
</mgrwt>
</event>
<event>
 4    1  0.2299148E-001  0.1741137E+03  0.7546771E-02  0.1173625E+00
         21   -1    0    0  503  502  0.00000000000E+00  0.00000000000E+00  0.46234291868E+03  0.46234291868E+03  0.00000000000E+00 0. -1.
         21   -1    0    0  501  503 -0.00000000000E+00 -0.00000000000E+00 -0.92519930181E+02  0.92519930181E+02  0.00000000000E+00 0. -1.
          6    1    1    2  501    0 -0.35068594552E+01  0.26819350367E+02  0.35177236230E+02  0.17763167951E+03  0.17200000000E+03 0.  1.
         -6    1    1    2    0  502  0.35068594552E+01 -0.26819350367E+02  0.33464575227E+03  0.37723116935E+03  0.17200000000E+03 0.  1.
<mgrwt>
<rscale>  2 0.17411369E+03</rscale>
<asrwt>0</asrwt>
<pdfrwt beam="1">  1       21 0.11558572E+00 0.17411369E+03</pdfrwt>
<pdfrwt beam="2">  1       21 0.23129984E-01 0.17411369E+03</pdfrwt>
<totfact> 0.10306738E+04</totfact>
</mgrwt>
</event>
<event>
 4    1  0.2299148E-001  0.1807395E+03  0.7546771E-02  0.1167089E+00
         21   -1    0    0  501  502  0.00000000000E+00  0.00000000000E+00  0.15905823431E+03  0.15905823431E+03  0.00000000000E+00 0.  1.
         21   -1    0    0  502  503 -0.00000000000E+00 -0.00000000000E+00 -0.21288623572E+03  0.21288623572E+03  0.00000000000E+00 0. -1.
          6    1    1    2  501    0 -0.29126932215E+02  0.47269240000E+02 -0.61843979482E+02  0.19102732011E+03  0.17200000000E+03 0.  1.
         -6    1    1    2    0  503  0.29126932215E+02 -0.47269240000E+02  0.80159780758E+01  0.18091714992E+03  0.17200000000E+03 0.  1.
<mgrwt>
<rscale>  2 0.18073948E+03</rscale>
<asrwt>0</asrwt>
<pdfrwt beam="1">  1       21 0.39764559E-01 0.18073948E+03</pdfrwt>
<pdfrwt beam="2">  1       21 0.53221559E-01 0.18073948E+03</pdfrwt>
<totfact> 0.20523730E+04</totfact>
</mgrwt>
</event>
<event>
 4    1  0.2299148E-001  0.1864933E+03  0.7546771E-02  0.1161663E+00
         21   -1    0    0  503  502  0.00000000000E+00  0.00000000000E+00  0.42595493366E+03  0.42595493366E+03  0.00000000000E+00 0.  1.
         21   -1    0    0  501  503 -0.00000000000E+00 -0.00000000000E+00 -0.81894860939E+02  0.81894860939E+02  0.00000000000E+00 0.  1.
          6    1    1    2  501    0 -0.72074591325E+02  0.10099727790E+01  0.18587832447E+03  0.26330688990E+03  0.17200000000E+03 0. -1.
         -6    1    1    2    0  502  0.72074591325E+02 -0.10099727790E+01  0.15818174825E+03  0.24454290470E+03  0.17200000000E+03 0. -1.
<mgrwt>
<rscale>  2 0.18649334E+03</rscale>
<asrwt>0</asrwt>
<pdfrwt beam="1">  1       21 0.10648873E+00 0.18649334E+03</pdfrwt>
<pdfrwt beam="2">  1       21 0.20473716E-01 0.18649334E+03</pdfrwt>
<totfact> 0.15667979E+04</totfact>
</mgrwt>
</event>
<event>
 4    1  0.2299148E-001  0.2075692E+03  0.7546771E-02  0.1143506E+00
         21   -1    0    0  501  502  0.00000000000E+00  0.00000000000E+00  0.33187539575E+03  0.33187539575E+03  0.00000000000E+00 0.  1.
         21   -1    0    0  502  503 -0.00000000000E+00 -0.00000000000E+00 -0.13447234081E+03  0.13447234081E+03  0.00000000000E+00 0. -1.
          6    1    1    2  501    0 -0.54761467415E+02 -0.10247996052E+03  0.14205990287E+03  0.25152728803E+03  0.17200000000E+03 0.  1.
         -6    1    1    2    0  503  0.54761467415E+02  0.10247996052E+03  0.55343152066E+02  0.21482044852E+03  0.17200000000E+03 0.  1.
<mgrwt>
<rscale>  2 0.20756917E+03</rscale>
<asrwt>0</asrwt>
<pdfrwt beam="1">  1       21 0.82968847E-01 0.20756917E+03</pdfrwt>
<pdfrwt beam="2">  1       21 0.33618086E-01 0.20756917E+03</pdfrwt>
<totfact> 0.10682774E+04</totfact>
</mgrwt>
</event>
<event>
 4    1  0.2299148E-001  0.2431802E+03  0.7546771E-02  0.1117692E+00
         21   -1    0    0  503  502  0.00000000000E+00  0.00000000000E+00  0.14411844909E+03  0.14411844909E+03  0.00000000000E+00 0.  1.
         21   -1    0    0  501  503 -0.00000000000E+00 -0.00000000000E+00 -0.42979560656E+03  0.42979560656E+03  0.00000000000E+00 0. -1.
          6    1    1    2  501    0  0.16496497311E+03 -0.48365045402E+02 -0.20390203689E+03  0.31735258092E+03  0.17200000000E+03 0. -1.
         -6    1    1    2    0  502 -0.16496497311E+03  0.48365045402E+02 -0.81775120577E+02  0.25656147473E+03  0.17200000000E+03 0.  1.
<mgrwt>
<rscale>  2 0.24318022E+03</rscale>
<asrwt>0</asrwt>
<pdfrwt beam="1">  1       21 0.36029613E-01 0.24318022E+03</pdfrwt>
<pdfrwt beam="2">  1       21 0.10744890E+00 0.24318022E+03</pdfrwt>
<totfact> 0.49484218E+03</totfact>
</mgrwt>
</event>
<event>
 4    1  0.2299148E-001  0.1742906E+03  0.7546771E-02  0.1173446E+00
         21   -1    0    0  503  502  0.00000000000E+00  0.00000000000E+00  0.12348614739E+03  0.12348614739E+03  0.00000000000E+00 0.  1.
         21   -1    0    0  501  503 -0.00000000000E+00 -0.00000000000E+00 -0.26125884185E+03  0.26125884185E+03  0.00000000000E+00 0.  1.
          6    1    1    2  501    0 -0.55080457064E+01  0.27620065749E+02 -0.22390656482E+02  0.17572292991E+03  0.17200000000E+03 0. -1.
         -6    1    1    2    0  502  0.55080457064E+01 -0.27620065749E+02 -0.11538203797E+03  0.20902205933E+03  0.17200000000E+03 0. -1.
<mgrwt>
<rscale>  2 0.17429058E+03</rscale>
<asrwt>0</asrwt>
<pdfrwt beam="1">  1       21 0.30871537E-01 0.17429058E+03</pdfrwt>
<pdfrwt beam="2">  1       21 0.65314710E-01 0.17429058E+03</pdfrwt>
<totfact> 0.21971021E+04</totfact>
</mgrwt>
</event>
<event>
 4    1  0.2299148E-001  0.2246059E+03  0.7546771E-02  0.1130495E+00
         21   -1    0    0  503  502  0.00000000000E+00  0.00000000000E+00  0.22958772726E+03  0.22958772726E+03  0.00000000000E+00 0.  1.
         21   -1    0    0  501  503 -0.00000000000E+00 -0.00000000000E+00 -0.28455210654E+03  0.28455210654E+03  0.00000000000E+00 0. -1.
          6    1    1    2  501    0 -0.38038514196E+02 -0.13934441836E+03  0.95212243945E+02  0.24395320635E+03  0.17200000000E+03 0.  1.
         -6    1    1    2    0  502  0.38038514196E+02  0.13934441836E+03 -0.15017662322E+03  0.27018662745E+03  0.17200000000E+03 0. -1.
<mgrwt>
<rscale>  2 0.22460587E+03</rscale>
<asrwt>0</asrwt>
<pdfrwt beam="1">  1       21 0.57396932E-01 0.22460587E+03</pdfrwt>
<pdfrwt beam="2">  1       21 0.71138026E-01 0.22460587E+03</pdfrwt>
<totfact> 0.49745600E+03</totfact>
</mgrwt>
</event>
<event>
 4    1  0.2299148E-001  0.2235364E+03  0.7546771E-02  0.1131274E+00
         21   -1    0    0  501  502  0.00000000000E+00  0.00000000000E+00  0.38151469468E+03  0.38151469468E+03  0.00000000000E+00 0. -1.
         21   -1    0    0  502  503 -0.00000000000E+00 -0.00000000000E+00 -0.15260028534E+03  0.15260028534E+03  0.00000000000E+00 0.  1.
          6    1    1    2  501    0  0.93561761870E+02  0.10784581807E+03  0.21499227291E+03  0.31014545163E+03  0.17200000000E+03 0. -1.
         -6    1    1    2    0  503 -0.93561761870E+02 -0.10784581807E+03  0.13922136431E+02  0.22396952838E+03  0.17200000000E+03 0.  1.
<mgrwt>
<rscale>  2 0.22353640E+03</rscale>
<asrwt>0</asrwt>
<pdfrwt beam="1">  1       21 0.95378672E-01 0.22353640E+03</pdfrwt>
<pdfrwt beam="2">  1       21 0.38150072E-01 0.22353640E+03</pdfrwt>
<totfact> 0.59445519E+03</totfact>
</mgrwt>
</event>
<event>
 4    1  0.2299148E-001  0.2821158E+03  0.7546771E-02  0.1094539E+00
         21   -1    0    0  503  502  0.00000000000E+00  0.00000000000E+00  0.32341847678E+03  0.32341847678E+03  0.00000000000E+00 0.  1.
         21   -1    0    0  501  503 -0.00000000000E+00 -0.00000000000E+00 -0.37156848465E+03  0.37156848465E+03  0.00000000000E+00 0. -1.
          6    1    1    2  501    0 -0.20189770785E+03  0.96138703263E+02 -0.22601191158E+03  0.36148405065E+03  0.17200000000E+03 0. -1.
         -6    1    1    2    0  502  0.20189770785E+03 -0.96138703263E+02  0.17786190372E+03  0.33350291077E+03  0.17200000000E+03 0.  1.
<mgrwt>
<rscale>  2 0.28211582E+03</rscale>
<asrwt>0</asrwt>
<pdfrwt beam="1">  1       21 0.80854619E-01 0.28211582E+03</pdfrwt>
<pdfrwt beam="2">  1       21 0.92892121E-01 0.28211582E+03</pdfrwt>
<totfact> 0.12185348E+03</totfact>
</mgrwt>
</event>
<event>
 4    1  0.2299148E-001  0.1734410E+03  0.7546771E-02  0.1174306E+00
         21   -1    0    0  503  502  0.00000000000E+00  0.00000000000E+00  0.74683164185E+02  0.74683164185E+02  0.00000000000E+00 0. -1.
         21   -1    0    0  501  503 -0.00000000000E+00 -0.00000000000E+00 -0.46927138722E+03  0.46927138722E+03  0.00000000000E+00 0. -1.
          6    1    1    2  501    0  0.36433700040E+01 -0.22011864025E+02 -0.94926299859E+02  0.19771898924E+03  0.17200000000E+03 0. -1.
         -6    1    1    2    0  502 -0.36433700040E+01  0.22011864025E+02 -0.29966192317E+03  0.34623556216E+03  0.17200000000E+03 0. -1.
<mgrwt>
<rscale>  2 0.17344105E+03</rscale>
<asrwt>0</asrwt>
<pdfrwt beam="1">  1       21 0.18670791E-01 0.17344105E+03</pdfrwt>
<pdfrwt beam="2">  1       21 0.11731784E+00 0.17344105E+03</pdfrwt>
<totfact> 0.14843568E+04</totfact>
</mgrwt>
</event>
<event>
 4    1  0.2299148E-001  0.1945227E+03  0.7546771E-02  0.1154444E+00
         21   -1    0    0  501  502  0.00000000000E+00  0.00000000000E+00  0.51984504598E+03  0.51984504598E+03  0.00000000000E+00 0.  1.
         21   -1    0    0  502  503 -0.00000000000E+00 -0.00000000000E+00 -0.72808331958E+02  0.72808331958E+02  0.00000000000E+00 0.  1.
          6    1    1    2  501    0  0.80226182490E+02  0.42648027887E+02  0.22832438694E+03  0.29995186333E+03  0.17200000000E+03 0.  1.
         -6    1    1    2    0  503 -0.80226182490E+02 -0.42648027887E+02  0.21871232708E+03  0.29270151461E+03  0.17200000000E+03 0.  1.
<mgrwt>
<rscale>  2 0.19452274E+03</rscale>
<asrwt>0</asrwt>
<pdfrwt beam="1">  1       21 0.12996125E+00 0.19452274E+03</pdfrwt>
<pdfrwt beam="2">  1       21 0.18202084E-01 0.19452274E+03</pdfrwt>
<totfact> 0.11881266E+04</totfact>
</mgrwt>
</event>
<event>
 4    1  0.2299148E-001  0.2003911E+03  0.7546771E-02  0.1149409E+00
         21   -1    0    0  501  502  0.00000000000E+00  0.00000000000E+00  0.58657020148E+02  0.58657020148E+02  0.00000000000E+00 0.  1.
         21   -1    0    0  502  503 -0.00000000000E+00 -0.00000000000E+00 -0.68503995313E+03  0.68503995313E+03  0.00000000000E+00 0.  1.
          6    1    1    2  501    0 -0.14840203103E+02  0.10174652384E+03 -0.30376629822E+03  0.36391008597E+03  0.17200000000E+03 0.  1.
         -6    1    1    2    0  503  0.14840203103E+02 -0.10174652384E+03 -0.32261663477E+03  0.37978688731E+03  0.17200000000E+03 0.  1.
<mgrwt>
<rscale>  2 0.20039108E+03</rscale>
<asrwt>0</asrwt>
<pdfrwt beam="1">  1       21 0.14664255E-01 0.20039108E+03</pdfrwt>
<pdfrwt beam="2">  1       21 0.17125999E+00 0.20039108E+03</pdfrwt>
<totfact> 0.84934977E+03</totfact>
</mgrwt>
</event>
<event>
 4    1  0.2299148E-001  0.1875712E+03  0.7546771E-02  0.1160670E+00
         21   -1    0    0  503  502  0.00000000000E+00  0.00000000000E+00  0.56641425129E+02  0.56641425129E+02  0.00000000000E+00 0.  1.
         21   -1    0    0  501  503 -0.00000000000E+00 -0.00000000000E+00 -0.74433427110E+03  0.74433427110E+03  0.00000000000E+00 0. -1.
          6    1    1    2  501    0 -0.68229282188E+02 -0.30720049493E+02 -0.50676805711E+03  0.54036730109E+03  0.17200000000E+03 0.  1.
         -6    1    1    2    0  502  0.68229282188E+02  0.30720049493E+02 -0.18092478887E+03  0.26060839514E+03  0.17200000000E+03 0.  1.
<mgrwt>
<rscale>  2 0.18757120E+03</rscale>
<asrwt>0</asrwt>
<pdfrwt beam="1">  1       21 0.14160357E-01 0.18757120E+03</pdfrwt>
<pdfrwt beam="2">  1       21 0.18608356E+00 0.18757120E+03</pdfrwt>
<totfact> 0.72434846E+03</totfact>
</mgrwt>
</event>
<event>
 4    1  0.2299148E-001  0.1782162E+03  0.7546771E-02  0.1169541E+00
         21   -1    0    0  501  502  0.00000000000E+00  0.00000000000E+00  0.10160566062E+03  0.10160566062E+03  0.00000000000E+00 0. -1.
         21   -1    0    0  502  503 -0.00000000000E+00 -0.00000000000E+00 -0.31322187507E+03  0.31322187507E+03  0.00000000000E+00 0. -1.
          6    1    1    2  501    0  0.46245058824E+02  0.61963347237E+01 -0.96498440513E+02  0.20266462210E+03  0.17200000000E+03 0. -1.
         -6    1    1    2    0  503 -0.46245058824E+02 -0.61963347237E+01 -0.11511777394E+03  0.21216291360E+03  0.17200000000E+03 0. -1.
<mgrwt>
<rscale>  2 0.17821616E+03</rscale>
<asrwt>0</asrwt>
<pdfrwt beam="1">  1       21 0.25401415E-01 0.17821616E+03</pdfrwt>
<pdfrwt beam="2">  1       21 0.78305468E-01 0.17821616E+03</pdfrwt>
<totfact> 0.21391260E+04</totfact>
</mgrwt>
</event>
<event>
 4    1  0.2299148E-001  0.1740842E+03  0.7546771E-02  0.1173654E+00
         21   -1    0    0  503  502  0.00000000000E+00  0.00000000000E+00  0.97057610577E+02  0.97057610577E+02  0.00000000000E+00 0. -1.
         21   -1    0    0  501  503 -0.00000000000E+00 -0.00000000000E+00 -0.31603527862E+03  0.31603527862E+03  0.00000000000E+00 0. -1.
          6    1    1    2  501    0  0.26837178127E+02 -0.10384665089E+01 -0.86855647284E+02  0.19454874969E+03  0.17200000000E+03 0.  1.
         -6    1    1    2    0  502 -0.26837178127E+02  0.10384665089E+01 -0.13212202076E+03  0.21854413951E+03  0.17200000000E+03 0.  1.
<mgrwt>
<rscale>  2 0.17408421E+03</rscale>
<asrwt>0</asrwt>
<pdfrwt beam="1">  1       21 0.24264403E-01 0.17408421E+03</pdfrwt>
<pdfrwt beam="2">  1       21 0.79008819E-01 0.17408421E+03</pdfrwt>
<totfact> 0.22933791E+04</totfact>
</mgrwt>
</event>
<event>
 4    1  0.2299148E-001  0.1752511E+03  0.7546771E-02  0.1172480E+00
         21   -1    0    0  503  502  0.00000000000E+00  0.00000000000E+00  0.50618522214E+03  0.50618522214E+03  0.00000000000E+00 0. -1.
         21   -1    0    0  501  503 -0.00000000000E+00 -0.00000000000E+00 -0.61706338963E+02  0.61706338963E+02  0.00000000000E+00 0. -1.
          6    1    1    2  501    0  0.23035845710E+02  0.24460341853E+02  0.18553653547E+03  0.25521905201E+03  0.17200000000E+03 0. -1.
         -6    1    1    2    0  502 -0.23035845710E+02 -0.24460341853E+02  0.25894234770E+03  0.31267250910E+03  0.17200000000E+03 0. -1.
<mgrwt>
<rscale>  2 0.17525113E+03</rscale>
<asrwt>0</asrwt>
<pdfrwt beam="1">  1       21 0.12654629E+00 0.17525113E+03</pdfrwt>
<pdfrwt beam="2">  1       21 0.15426586E-01 0.17525113E+03</pdfrwt>
<totfact> 0.17443246E+04</totfact>
</mgrwt>
</event>
<event>
 4    1  0.2299148E-001  0.1788959E+03  0.7546771E-02  0.1168876E+00
         21   -1    0    0  503  502  0.00000000000E+00  0.00000000000E+00  0.38640488032E+03  0.38640488032E+03  0.00000000000E+00 0.  1.
         21   -1    0    0  501  503 -0.00000000000E+00 -0.00000000000E+00 -0.82866229533E+02  0.82866229533E+02  0.00000000000E+00 0.  1.
          6    1    1    2  501    0  0.45126076940E+02  0.19580098485E+02  0.15704249030E+03  0.23804639640E+03  0.17200000000E+03 0.  1.
         -6    1    1    2    0  502 -0.45126076940E+02 -0.19580098485E+02  0.14649616048E+03  0.23122471346E+03  0.17200000000E+03 0.  1.
<mgrwt>
<rscale>  2 0.17889590E+03</rscale>
<asrwt>0</asrwt>
<pdfrwt beam="1">  1       21 0.96601215E-01 0.17889590E+03</pdfrwt>
<pdfrwt beam="2">  1       21 0.20716558E-01 0.17889590E+03</pdfrwt>
<totfact> 0.19415807E+04</totfact>
</mgrwt>
</event>
<event>
 4    1  0.2299148E-001  0.1756533E+03  0.7546771E-02  0.1172077E+00
         21   -1    0    0  501  502  0.00000000000E+00  0.00000000000E+00  0.65721584449E+02  0.65721584449E+02  0.00000000000E+00 0.  1.
         21   -1    0    0  502  503 -0.00000000000E+00 -0.00000000000E+00 -0.70272889495E+03  0.70272889495E+03  0.00000000000E+00 0.  1.
          6    1    1    2  501    0 -0.41509886386E+01  0.35395702826E+02 -0.97135936607E+02  0.20072238706E+03  0.17200000000E+03 0.  1.
         -6    1    1    2    0  503  0.41509886386E+01 -0.35395702826E+02 -0.53987137389E+03  0.56772809234E+03  0.17200000000E+03 0.  1.
<mgrwt>
<rscale>  2 0.17565331E+03</rscale>
<asrwt>0</asrwt>
<pdfrwt beam="1">  1       21 0.16430396E-01 0.17565331E+03</pdfrwt>
<pdfrwt beam="2">  1       21 0.17568222E+00 0.17565331E+03</pdfrwt>
<totfact> 0.65666324E+03</totfact>
</mgrwt>
</event>
<event>
 4    1  0.2299148E-001  0.2041969E+03  0.7546771E-02  0.1146246E+00
         21   -1    0    0  503  502  0.00000000000E+00  0.00000000000E+00  0.20501508833E+03  0.20501508833E+03  0.00000000000E+00 0. -1.
         21   -1    0    0  501  503 -0.00000000000E+00 -0.00000000000E+00 -0.30248252709E+03  0.30248252709E+03  0.00000000000E+00 0. -1.
          6    1    1    2  501    0  0.10948115070E+03 -0.11236314069E+02 -0.19397559982E+03  0.28164323255E+03  0.17200000000E+03 0. -1.
         -6    1    1    2    0  502 -0.10948115070E+03  0.11236314069E+02  0.96508161058E+02  0.22585438287E+03  0.17200000000E+03 0. -1.
<mgrwt>
<rscale>  2 0.20419691E+03</rscale>
<asrwt>0</asrwt>
<pdfrwt beam="1">  1       21 0.51253772E-01 0.20419691E+03</pdfrwt>
<pdfrwt beam="2">  1       21 0.75620631E-01 0.20419691E+03</pdfrwt>
<totfact> 0.55983097E+03</totfact>
</mgrwt>
</event>
<event>
 4    1  0.2299148E-001  0.2060258E+03  0.7546771E-02  0.1144752E+00
         21   -1    0    0  503  502  0.00000000000E+00  0.00000000000E+00  0.48624391370E+03  0.48624391370E+03  0.00000000000E+00 0.  1.
         21   -1    0    0  501  503 -0.00000000000E+00 -0.00000000000E+00 -0.12162056345E+03  0.12162056345E+03  0.00000000000E+00 0.  1.
          6    1    1    2  501    0  0.11507360617E+02  0.11282827941E+03  0.20845189455E+02  0.20707767119E+03  0.17200000000E+03 0.  1.
         -6    1    1    2    0  502 -0.11507360617E+02 -0.11282827941E+03  0.34377816079E+03  0.40078680595E+03  0.17200000000E+03 0.  1.
<mgrwt>
<rscale>  2 0.20602582E+03</rscale>
<asrwt>0</asrwt>
<pdfrwt beam="1">  1       21 0.12156097E+00 0.20602582E+03</pdfrwt>
<pdfrwt beam="2">  1       21 0.30405142E-01 0.20602582E+03</pdfrwt>
<totfact> 0.52527626E+03</totfact>
</mgrwt>
</event>
<event>
 4    1  0.2299148E-001  0.1984964E+03  0.7546771E-02  0.1151014E+00
         21   -1    0    0  503  502  0.00000000000E+00  0.00000000000E+00  0.89924820888E+02  0.89924820888E+02  0.00000000000E+00 0. -1.
         21   -1    0    0  501  503 -0.00000000000E+00 -0.00000000000E+00 -0.46789585778E+03  0.46789585778E+03  0.00000000000E+00 0. -1.
          6    1    1    2  501    0 -0.84514907701E+02 -0.51711150894E+02 -0.25930615045E+03  0.32655855893E+03  0.17200000000E+03 0. -1.
         -6    1    1    2    0  502  0.84514907701E+02  0.51711150894E+02 -0.11866488644E+03  0.23126211974E+03  0.17200000000E+03 0. -1.
<mgrwt>
<rscale>  2 0.19849638E+03</rscale>
<asrwt>0</asrwt>
<pdfrwt beam="1">  1       21 0.22481206E-01 0.19849638E+03</pdfrwt>
<pdfrwt beam="2">  1       21 0.11697396E+00 0.19849638E+03</pdfrwt>
<totfact> 0.10378197E+04</totfact>
</mgrwt>
</event>
<event>
 4    1  0.2299148E-001  0.2617752E+03  0.7546771E-02  0.1106081E+00
         21   -1    0    0  503  502  0.00000000000E+00  0.00000000000E+00  0.13556887764E+03  0.13556887764E+03  0.00000000000E+00 0. -1.
         21   -1    0    0  501  503 -0.00000000000E+00 -0.00000000000E+00 -0.55602775298E+03  0.55602775298E+03  0.00000000000E+00 0.  1.
          6    1    1    2  501    0  0.12986245488E+03  0.14858669603E+03 -0.31449963438E+03  0.40918978904E+03  0.17200000000E+03 0.  1.
         -6    1    1    2    0  502 -0.12986245488E+03 -0.14858669603E+03 -0.10595924096E+03  0.28240684158E+03  0.17200000000E+03 0. -1.
<mgrwt>
<rscale>  2 0.26177522E+03</rscale>
<asrwt>0</asrwt>
<pdfrwt beam="1">  1       21 0.33892220E-01 0.26177522E+03</pdfrwt>
<pdfrwt beam="2">  1       21 0.13900694E+00 0.26177522E+03</pdfrwt>
<totfact> 0.28957309E+03</totfact>
</mgrwt>
</event>
<event>
 4    1  0.2299148E-001  0.2270170E+03  0.7546771E-02  0.1128757E+00
         21   -1    0    0  501  502  0.00000000000E+00  0.00000000000E+00  0.21215840165E+03  0.21215840165E+03  0.00000000000E+00 0.  1.
         21   -1    0    0  502  503 -0.00000000000E+00 -0.00000000000E+00 -0.61464457466E+03  0.61464457466E+03  0.00000000000E+00 0.  1.
          6    1    1    2  501    0 -0.14342352287E+03 -0.37180780674E+02 -0.52273707233E+03  0.56990417103E+03  0.17200000000E+03 0.  1.
         -6    1    1    2    0  503  0.14342352287E+03  0.37180780674E+02  0.12025089932E+03  0.25689880527E+03  0.17200000000E+03 0.  1.
<mgrwt>
<rscale>  2 0.22701700E+03</rscale>
<asrwt>0</asrwt>
<pdfrwt beam="1">  1       21 0.53039601E-01 0.22701700E+03</pdfrwt>
<pdfrwt beam="2">  1       21 0.15366114E+00 0.22701700E+03</pdfrwt>
<totfact> 0.91246706E+02</totfact>
</mgrwt>
</event>
<event>
 4    1  0.2299148E-001  0.1825591E+03  0.7546771E-02  0.1165349E+00
         21   -1    0    0  503  502  0.00000000000E+00  0.00000000000E+00  0.33993732588E+03  0.33993732588E+03  0.00000000000E+00 0. -1.
         21   -1    0    0  501  503 -0.00000000000E+00 -0.00000000000E+00 -0.12449679894E+03  0.12449679894E+03  0.00000000000E+00 0. -1.
          6    1    1    2  501    0 -0.60800931529E+02  0.68612766521E+01  0.67323175402E+00  0.18256035614E+03  0.17200000000E+03 0. -1.
         -6    1    1    2    0  502  0.60800931529E+02 -0.68612766521E+01  0.21476729518E+03  0.28187376868E+03  0.17200000000E+03 0. -1.
<mgrwt>
<rscale>  2 0.18255911E+03</rscale>
<asrwt>0</asrwt>
<pdfrwt beam="1">  1       21 0.84984330E-01 0.18255911E+03</pdfrwt>
<pdfrwt beam="2">  1       21 0.31124200E-01 0.18255911E+03</pdfrwt>
<totfact> 0.11969757E+04</totfact>
</mgrwt>
</event>
<event>
 4    1  0.2299148E-001  0.1962856E+03  0.7546771E-02  0.1152911E+00
         21   -1    0    0  503  502  0.00000000000E+00  0.00000000000E+00  0.13430822827E+03  0.13430822827E+03  0.00000000000E+00 0.  1.
         21   -1    0    0  501  503 -0.00000000000E+00 -0.00000000000E+00 -0.31396053240E+03  0.31396053240E+03  0.00000000000E+00 0.  1.
          6    1    1    2  501    0 -0.69366044489E+02 -0.64283707902E+02 -0.15567328952E+03  0.25052388369E+03  0.17200000000E+03 0.  1.
         -6    1    1    2    0  502  0.69366044489E+02  0.64283707902E+02 -0.23979014608E+02  0.19774487698E+03  0.17200000000E+03 0.  1.
<mgrwt>
<rscale>  2 0.19628562E+03</rscale>
<asrwt>0</asrwt>
<pdfrwt beam="1">  1       21 0.33577057E-01 0.19628562E+03</pdfrwt>
<pdfrwt beam="2">  1       21 0.78490132E-01 0.19628562E+03</pdfrwt>
<totfact> 0.12236667E+04</totfact>
</mgrwt>
</event>
<event>
 4    1  0.2299148E-001  0.1939428E+03  0.7546771E-02  0.1154953E+00
         21   -1    0    0  503  502  0.00000000000E+00  0.00000000000E+00  0.55804658211E+03  0.55804658211E+03  0.00000000000E+00 0. -1.
         21   -1    0    0  501  503 -0.00000000000E+00 -0.00000000000E+00 -0.77578508955E+02  0.77578508955E+02  0.00000000000E+00 0. -1.
          6    1    1    2  501    0  0.72464633023E+02 -0.52713213910E+02  0.12513111692E+03  0.23080641755E+03  0.17200000000E+03 0. -1.
         -6    1    1    2    0  502 -0.72464633023E+02  0.52713213910E+02  0.35533695623E+03  0.40481867351E+03  0.17200000000E+03 0. -1.
<mgrwt>
<rscale>  2 0.19394279E+03</rscale>
<asrwt>0</asrwt>
<pdfrwt beam="1">  1       21 0.13951163E+00 0.19394279E+03</pdfrwt>
<pdfrwt beam="2">  1       21 0.19394629E-01 0.19394279E+03</pdfrwt>
<totfact> 0.88182361E+03</totfact>
</mgrwt>
</event>
<event>
 4    1  0.2299148E-001  0.1876124E+03  0.7546771E-02  0.1160633E+00
         21   -1    0    0  503  502  0.00000000000E+00  0.00000000000E+00  0.12150770443E+03  0.12150770443E+03  0.00000000000E+00 0. -1.
         21   -1    0    0  501  503 -0.00000000000E+00 -0.00000000000E+00 -0.32220713281E+03  0.32220713281E+03  0.00000000000E+00 0. -1.
          6    1    1    2  501    0  0.43754935965E+02 -0.60827058845E+02 -0.17083934293E+03  0.25374102270E+03  0.17200000000E+03 0. -1.
         -6    1    1    2    0  502 -0.43754935965E+02  0.60827058845E+02 -0.29860085457E+02  0.18997381454E+03  0.17200000000E+03 0. -1.
<mgrwt>
<rscale>  2 0.18761243E+03</rscale>
<asrwt>0</asrwt>
<pdfrwt beam="1">  1       21 0.30376926E-01 0.18761243E+03</pdfrwt>
<pdfrwt beam="2">  1       21 0.80551782E-01 0.18761243E+03</pdfrwt>
<totfact> 0.14128843E+04</totfact>
</mgrwt>
</event>
<event>
 4    1  0.2299148E-001  0.2028661E+03  0.7546771E-02  0.1147343E+00
         21   -1    0    0  501  502  0.00000000000E+00  0.00000000000E+00  0.18849528244E+03  0.18849528244E+03  0.00000000000E+00 0. -1.
         21   -1    0    0  502  503 -0.00000000000E+00 -0.00000000000E+00 -0.29903570378E+03  0.29903570378E+03  0.00000000000E+00 0. -1.
          6    1    1    2  501    0 -0.10519964384E+03  0.22442580583E+02  0.71365520281E+02  0.21505271905E+03  0.17200000000E+03 0. -1.
         -6    1    1    2    0  503  0.10519964384E+03 -0.22442580583E+02 -0.18190594162E+03  0.27247826718E+03  0.17200000000E+03 0. -1.
<mgrwt>
<rscale>  2 0.20286605E+03</rscale>
<asrwt>0</asrwt>
<pdfrwt beam="1">  1       21 0.47123821E-01 0.20286605E+03</pdfrwt>
<pdfrwt beam="2">  1       21 0.74758925E-01 0.20286605E+03</pdfrwt>
<totfact> 0.68486984E+03</totfact>
</mgrwt>
</event>
<event>
 4    1  0.2299148E-001  0.2797231E+03  0.7546771E-02  0.1095840E+00
         21   -1    0    0  501  502  0.00000000000E+00  0.00000000000E+00  0.13667748700E+04  0.13667748700E+04  0.00000000000E+00 0. -1.
         21   -1    0    0  502  503 -0.00000000000E+00 -0.00000000000E+00 -0.57299895062E+02  0.57299895062E+02  0.00000000000E+00 0. -1.
          6    1    1    2  501    0  0.21748626264E+03 -0.36887824516E+02  0.63328773151E+03  0.69231375612E+03  0.17200000000E+03 0. -1.
         -6    1    1    2    0  503 -0.21748626264E+03  0.36887824516E+02  0.67618724345E+03  0.73176100896E+03  0.17200000000E+03 0. -1.
<mgrwt>
<rscale>  2 0.27972305E+03</rscale>
<asrwt>0</asrwt>
<pdfrwt beam="1">  1       21 0.34169361E+00 0.27972305E+03</pdfrwt>
<pdfrwt beam="2">  1       21 0.14324978E-01 0.27972305E+03</pdfrwt>
<totfact> 0.75078527E+02</totfact>
</mgrwt>
</event>
<event>
 4    1  0.2299148E-001  0.2057750E+03  0.7546771E-02  0.1144956E+00
         21   -1    0    0  501  502  0.00000000000E+00  0.00000000000E+00  0.16989823603E+03  0.16989823603E+03  0.00000000000E+00 0.  1.
         21   -1    0    0  502  503 -0.00000000000E+00 -0.00000000000E+00 -0.31821300543E+03  0.31821300543E+03  0.00000000000E+00 0.  1.
          6    1    1    2  501    0  0.15120153566E+02 -0.11194067753E+03 -0.18779140565E+03  0.27858382287E+03  0.17200000000E+03 0. -1.
         -6    1    1    2    0  503 -0.15120153566E+02  0.11194067753E+03  0.39476636248E+02  0.20952741858E+03  0.17200000000E+03 0. -1.
<mgrwt>
<rscale>  2 0.20577496E+03</rscale>
<asrwt>0</asrwt>
<pdfrwt beam="1">  1       21 0.42474560E-01 0.20577496E+03</pdfrwt>
<pdfrwt beam="2">  1       21 0.79553250E-01 0.20577496E+03</pdfrwt>
<totfact> 0.73572847E+03</totfact>
</mgrwt>
</event>
<event>
 4    1  0.2299148E-001  0.2731832E+03  0.7546771E-02  0.1099471E+00
         21   -1    0    0  503  502  0.00000000000E+00  0.00000000000E+00  0.16987793171E+03  0.16987793171E+03  0.00000000000E+00 0.  1.
         21   -1    0    0  501  503 -0.00000000000E+00 -0.00000000000E+00 -0.43964375938E+03  0.43964375938E+03  0.00000000000E+00 0.  1.
          6    1    1    2  501    0 -0.75302715435E+02  0.19843030141E+03 -0.14327925104E+03  0.30847694767E+03  0.17200000000E+03 0.  1.
         -6    1    1    2    0  502  0.75302715435E+02 -0.19843030141E+03 -0.12648657663E+03  0.30104474341E+03  0.17200000000E+03 0.  1.
<mgrwt>
<rscale>  2 0.27318324E+03</rscale>
<asrwt>0</asrwt>
<pdfrwt beam="1">  1       21 0.42469483E-01 0.27318324E+03</pdfrwt>
<pdfrwt beam="2">  1       21 0.10991094E+00 0.27318324E+03</pdfrwt>
<totfact> 0.32916217E+03</totfact>
</mgrwt>
</event>
<event>
 4    1  0.2299148E-001  0.1737627E+03  0.7546771E-02  0.1173980E+00
         21   -1    0    0  503  502  0.00000000000E+00  0.00000000000E+00  0.53588269884E+03  0.53588269884E+03  0.00000000000E+00 0.  1.
         21   -1    0    0  501  503 -0.00000000000E+00 -0.00000000000E+00 -0.58596687434E+02  0.58596687434E+02  0.00000000000E+00 0.  1.
          6    1    1    2  501    0 -0.77702094127E+01 -0.23432523615E+02  0.18035523055E+03  0.25044254532E+03  0.17200000000E+03 0. -1.
         -6    1    1    2    0  502  0.77702094127E+01  0.23432523615E+02  0.29693078085E+03  0.34403684096E+03  0.17200000000E+03 0. -1.
<mgrwt>
<rscale>  2 0.17376265E+03</rscale>
<asrwt>0</asrwt>
<pdfrwt beam="1">  1       21 0.13397066E+00 0.17376265E+03</pdfrwt>
<pdfrwt beam="2">  1       21 0.14649173E-01 0.17376265E+03</pdfrwt>
<totfact> 0.16619106E+04</totfact>
</mgrwt>
</event>
<event>
 4    1  0.2299148E-001  0.2310613E+03  0.7546771E-02  0.1125895E+00
         21   -1    0    0  503  502  0.00000000000E+00  0.00000000000E+00  0.11787803366E+03  0.11787803366E+03  0.00000000000E+00 0. -1.
         21   -1    0    0  501  503 -0.00000000000E+00 -0.00000000000E+00 -0.46336561863E+03  0.46336561863E+03  0.00000000000E+00 0. -1.
          6    1    1    2  501    0  0.97771469860E+02 -0.11935689930E+03 -0.12910914056E+03  0.26468566245E+03  0.17200000000E+03 0. -1.
         -6    1    1    2    0  502 -0.97771469860E+02  0.11935689930E+03 -0.21637844441E+03  0.31655798984E+03  0.17200000000E+03 0. -1.
<mgrwt>
<rscale>  2 0.23106131E+03</rscale>
<asrwt>0</asrwt>
<pdfrwt beam="1">  1       21 0.29469509E-01 0.23106131E+03</pdfrwt>
<pdfrwt beam="2">  1       21 0.11584140E+00 0.23106131E+03</pdfrwt>
<totfact> 0.61776579E+03</totfact>
</mgrwt>
</event>
<event>
 4    1  0.2299148E-001  0.1784606E+03  0.7546771E-02  0.1169301E+00
         21   -1    0    0  503  502  0.00000000000E+00  0.00000000000E+00  0.73645184145E+02  0.73645184145E+02  0.00000000000E+00 0. -1.
         21   -1    0    0  501  503 -0.00000000000E+00 -0.00000000000E+00 -0.67259213231E+03  0.67259213231E+03  0.00000000000E+00 0. -1.
          6    1    1    2  501    0  0.14125575625E+02  0.45438464036E+02 -0.52242027954E+03  0.55206080677E+03  0.17200000000E+03 0. -1.
         -6    1    1    2    0  502 -0.14125575625E+02 -0.45438464036E+02 -0.76526668624E+02  0.19417650968E+03  0.17200000000E+03 0. -1.
<mgrwt>
<rscale>  2 0.17846060E+03</rscale>
<asrwt>0</asrwt>
<pdfrwt beam="1">  1       21 0.18411296E-01 0.17846060E+03</pdfrwt>
<pdfrwt beam="2">  1       21 0.16814803E+00 0.17846060E+03</pdfrwt>
<totfact> 0.59943158E+03</totfact>
</mgrwt>
</event>
<event>
 4    1  0.2299148E-001  0.2292452E+03  0.7546771E-02  0.1127172E+00
         21   -1    0    0  503  502  0.00000000000E+00  0.00000000000E+00  0.58149719137E+02  0.58149719137E+02  0.00000000000E+00 0.  1.
         21   -1    0    0  501  503 -0.00000000000E+00 -0.00000000000E+00 -0.12183005853E+04  0.12183005853E+04  0.00000000000E+00 0. -1.
          6    1    1    2  501    0  0.13819422805E+03 -0.62222977442E+02 -0.25578391673E+03  0.34348035700E+03  0.17200000000E+03 0.  1.
         -6    1    1    2    0  502 -0.13819422805E+03  0.62222977442E+02 -0.90436694946E+03  0.93296994746E+03  0.17200000000E+03 0. -1.
<mgrwt>
<rscale>  2 0.22924516E+03</rscale>
<asrwt>0</asrwt>
<pdfrwt beam="1">  1       21 0.14537429E-01 0.22924516E+03</pdfrwt>
<pdfrwt beam="2">  1       21 0.30457516E+00 0.22924516E+03</pdfrwt>
<totfact> 0.12751720E+03</totfact>
</mgrwt>
</event>
<event>
 4    1  0.2299148E-001  0.1742130E+03  0.7546771E-02  0.1173524E+00
         21   -1    0    0  503  502  0.00000000000E+00  0.00000000000E+00  0.47249019974E+03  0.47249019974E+03  0.00000000000E+00 0. -1.
         21   -1    0    0  501  503 -0.00000000000E+00 -0.00000000000E+00 -0.79531721618E+02  0.79531721618E+02  0.00000000000E+00 0. -1.
          6    1    1    2  501    0  0.16860789455E+02 -0.21951896777E+02  0.75429903940E+02  0.18984162452E+03  0.17200000000E+03 0. -1.
         -6    1    1    2    0  502 -0.16860789455E+02  0.21951896777E+02  0.31752857418E+03  0.36218029684E+03  0.17200000000E+03 0. -1.
<mgrwt>
<rscale>  2 0.17421301E+03</rscale>
<asrwt>0</asrwt>
<pdfrwt beam="1">  1       21 0.11812254E+00 0.17421301E+03</pdfrwt>
<pdfrwt beam="2">  1       21 0.19882932E-01 0.17421301E+03</pdfrwt>
<totfact> 0.12981675E+04</totfact>
</mgrwt>
</event>
<event>
 4    1  0.2299148E-001  0.2201562E+03  0.7546771E-02  0.1133767E+00
         21   -1    0    0  501  502  0.00000000000E+00  0.00000000000E+00  0.12239410143E+04  0.12239410143E+04  0.00000000000E+00 0. -1.
         21   -1    0    0  502  503 -0.00000000000E+00 -0.00000000000E+00 -0.44982039498E+02  0.44982039498E+02  0.00000000000E+00 0.  1.
          6    1    1    2  501    0 -0.13688033882E+03  0.12186203974E+02  0.80893029699E+03  0.83835371778E+03  0.17200000000E+03 0. -1.
         -6    1    1    2    0  503  0.13688033882E+03 -0.12186203974E+02  0.37002867783E+03  0.43056933604E+03  0.17200000000E+03 0.  1.
<mgrwt>
<rscale>  2 0.22015615E+03</rscale>
<asrwt>0</asrwt>
<pdfrwt beam="1">  1       21 0.30598514E+00 0.22015615E+03</pdfrwt>
<pdfrwt beam="2">  1       21 0.11245514E-01 0.22015615E+03</pdfrwt>
<totfact> 0.20097829E+03</totfact>
</mgrwt>
</event>
<event>
 4    1  0.2299148E-001  0.3276865E+03  0.7546771E-02  0.1072165E+00
         21   -1    0    0  503  502  0.00000000000E+00  0.00000000000E+00  0.27268338344E+03  0.27268338344E+03  0.00000000000E+00 0. -1.
         21   -1    0    0  501  503 -0.00000000000E+00 -0.00000000000E+00 -0.39378604107E+03  0.39378604107E+03  0.00000000000E+00 0.  1.
          6    1    1    2  501    0  0.27314677553E+03 -0.56438287919E+02 -0.61247542829E+02  0.33336121974E+03  0.17200000000E+03 0.  1.
         -6    1    1    2    0  502 -0.27314677553E+03  0.56438287919E+02 -0.59855114799E+02  0.33310820478E+03  0.17200000000E+03 0. -1.
<mgrwt>
<rscale>  2 0.32768650E+03</rscale>
<asrwt>0</asrwt>
<pdfrwt beam="1">  1       21 0.68170846E-01 0.32768650E+03</pdfrwt>
<pdfrwt beam="2">  1       21 0.98446510E-01 0.32768650E+03</pdfrwt>
<totfact> 0.15173199E+03</totfact>
</mgrwt>
</event>
<event>
 4    1  0.2299148E-001  0.3071435E+03  0.7546771E-02  0.1081723E+00
         21   -1    0    0  503  502  0.00000000000E+00  0.00000000000E+00  0.29351985159E+03  0.29351985159E+03  0.00000000000E+00 0.  1.
         21   -1    0    0  501  503 -0.00000000000E+00 -0.00000000000E+00 -0.33097285863E+03  0.33097285863E+03  0.00000000000E+00 0. -1.
          6    1    1    2  501    0  0.52532634093E+02 -0.24898488905E+03 -0.71831071100E+02  0.31543122134E+03  0.17200000000E+03 0.  1.
         -6    1    1    2    0  502 -0.52532634093E+02  0.24898488905E+03  0.34378064059E+02  0.30906148888E+03  0.17200000000E+03 0. -1.
<mgrwt>
<rscale>  2 0.30714354E+03</rscale>
<asrwt>0</asrwt>
<pdfrwt beam="1">  1       21 0.73379963E-01 0.30714354E+03</pdfrwt>
<pdfrwt beam="2">  1       21 0.82743214E-01 0.30714354E+03</pdfrwt>
<totfact> 0.19580492E+03</totfact>
</mgrwt>
</event>
<event>
 4    1  0.2299148E-001  0.1980328E+03  0.7546771E-02  0.1151409E+00
         21   -1    0    0  503  502  0.00000000000E+00  0.00000000000E+00  0.61592201924E+02  0.61592201924E+02  0.00000000000E+00 0. -1.
         21   -1    0    0  501  503 -0.00000000000E+00 -0.00000000000E+00 -0.67323071513E+03  0.67323071513E+03  0.00000000000E+00 0. -1.
          6    1    1    2  501    0 -0.19772290687E+02  0.96135555939E+02 -0.22025729493E+03  0.29619295158E+03  0.17200000000E+03 0. -1.
         -6    1    1    2    0  502  0.19772290687E+02 -0.96135555939E+02 -0.39138121828E+03  0.43862996548E+03  0.17200000000E+03 0. -1.
<mgrwt>
<rscale>  2 0.19803280E+03</rscale>
<asrwt>0</asrwt>
<pdfrwt beam="1">  1       21 0.15398050E-01 0.19803280E+03</pdfrwt>
<pdfrwt beam="2">  1       21 0.16830768E+00 0.19803280E+03</pdfrwt>
<totfact> 0.81670175E+03</totfact>
</mgrwt>
</event>
<event>
 4    1  0.2299148E-001  0.1782837E+03  0.7546771E-02  0.1169475E+00
         21   -1    0    0  501  502  0.00000000000E+00  0.00000000000E+00  0.13077355480E+03  0.13077355480E+03  0.00000000000E+00 0.  1.
         21   -1    0    0  502  503 -0.00000000000E+00 -0.00000000000E+00 -0.30920184779E+03  0.30920184779E+03  0.00000000000E+00 0.  1.
          6    1    1    2  501    0 -0.16252026361E+02 -0.44010586752E+02  0.12535897374E+02  0.17872383397E+03  0.17200000000E+03 0.  1.
         -6    1    1    2    0  503  0.16252026361E+02  0.44010586752E+02 -0.19096419036E+03  0.26125156862E+03  0.17200000000E+03 0.  1.
<mgrwt>
<rscale>  2 0.17828365E+03</rscale>
<asrwt>0</asrwt>
<pdfrwt beam="1">  1       21 0.32693389E-01 0.17828365E+03</pdfrwt>
<pdfrwt beam="2">  1       21 0.77300461E-01 0.17828365E+03</pdfrwt>
<totfact> 0.13507709E+04</totfact>
</mgrwt>
</event>
<event>
 4    1  0.2299148E-001  0.1843339E+03  0.7546771E-02  0.1163673E+00
         21   -1    0    0  503  502  0.00000000000E+00  0.00000000000E+00  0.90702044970E+02  0.90702044970E+02  0.00000000000E+00 0. -1.
         21   -1    0    0  501  503 -0.00000000000E+00 -0.00000000000E+00 -0.39319195470E+03  0.39319195470E+03  0.00000000000E+00 0. -1.
          6    1    1    2  501    0 -0.51020790556E+02 -0.42330354222E+02 -0.20382531419E+03  0.27481582680E+03  0.17200000000E+03 0. -1.
         -6    1    1    2    0  502  0.51020790556E+02  0.42330354222E+02 -0.98664595548E+02  0.20907817287E+03  0.17200000000E+03 0. -1.
<mgrwt>
<rscale>  2 0.18433388E+03</rscale>
<asrwt>0</asrwt>
<pdfrwt beam="1">  1       21 0.22675512E-01 0.18433388E+03</pdfrwt>
<pdfrwt beam="2">  1       21 0.98297987E-01 0.18433388E+03</pdfrwt>
<totfact> 0.15671605E+04</totfact>
</mgrwt>
</event>
<event>
 4    1  0.2299148E-001  0.1818143E+03  0.7546771E-02  0.1166059E+00
         21   -1    0    0  501  502  0.00000000000E+00  0.00000000000E+00  0.13240658920E+03  0.13240658920E+03  0.00000000000E+00 0.  1.
         21   -1    0    0  502  503 -0.00000000000E+00 -0.00000000000E+00 -0.26854601073E+03  0.26854601073E+03  0.00000000000E+00 0.  1.
          6    1    1    2  501    0  0.32119829258E+02  0.49403961166E+02 -0.14902892741E+02  0.18242404179E+03  0.17200000000E+03 0.  1.
         -6    1    1    2    0  503 -0.32119829258E+02 -0.49403961166E+02 -0.12123652879E+03  0.21852855814E+03  0.17200000000E+03 0.  1.
<mgrwt>
<rscale>  2 0.18181429E+03</rscale>
<asrwt>0</asrwt>
<pdfrwt beam="1">  1       21 0.33101648E-01 0.18181429E+03</pdfrwt>
<pdfrwt beam="2">  1       21 0.67136502E-01 0.18181429E+03</pdfrwt>
<totfact> 0.17965237E+04</totfact>
</mgrwt>
</event>
<event>
 4    1  0.2299148E-001  0.1731857E+03  0.7546771E-02  0.1174566E+00
         21   -1    0    0  503  502  0.00000000000E+00  0.00000000000E+00  0.11796292175E+03  0.11796292175E+03  0.00000000000E+00 0. -1.
         21   -1    0    0  501  503 -0.00000000000E+00 -0.00000000000E+00 -0.27871137367E+03  0.27871137367E+03  0.00000000000E+00 0. -1.
          6    1    1    2  501    0  0.14742376793E+02  0.13854593555E+02 -0.13911987650E+03  0.22214325889E+03  0.17200000000E+03 0. -1.
         -6    1    1    2    0  502 -0.14742376793E+02 -0.13854593555E+02 -0.21628575432E+02  0.17453103653E+03  0.17200000000E+03 0. -1.
<mgrwt>
<rscale>  2 0.17318570E+03</rscale>
<asrwt>0</asrwt>
<pdfrwt beam="1">  1       21 0.29490731E-01 0.17318570E+03</pdfrwt>
<pdfrwt beam="2">  1       21 0.69677843E-01 0.17318570E+03</pdfrwt>
<totfact> 0.20867058E+04</totfact>
</mgrwt>
</event>
<event>
 4    1  0.2299148E-001  0.2094036E+03  0.7546771E-02  0.1142039E+00
         21   -1    0    0  503  502  0.00000000000E+00  0.00000000000E+00  0.88520263369E+02  0.88520263369E+02  0.00000000000E+00 0. -1.
         21   -1    0    0  501  503 -0.00000000000E+00 -0.00000000000E+00 -0.49779848668E+03  0.49779848668E+03  0.00000000000E+00 0.  1.
          6    1    1    2  501    0  0.10844075694E+03  0.50064856651E+02 -0.22513391373E+03  0.30746571638E+03  0.17200000000E+03 0. -1.
         -6    1    1    2    0  502 -0.10844075694E+03 -0.50064856651E+02 -0.18414430958E+03  0.27885303367E+03  0.17200000000E+03 0.  1.
<mgrwt>
<rscale>  2 0.20940365E+03</rscale>
<asrwt>0</asrwt>
<pdfrwt beam="1">  1       21 0.22130066E-01 0.20940365E+03</pdfrwt>
<pdfrwt beam="2">  1       21 0.12444962E+00 0.20940365E+03</pdfrwt>
<totfact> 0.90957015E+03</totfact>
</mgrwt>
</event>
<event>
 4    1  0.2299148E-001  0.2315684E+03  0.7546771E-02  0.1125541E+00
         21   -1    0    0  501  502  0.00000000000E+00  0.00000000000E+00  0.39111705198E+03  0.39111705198E+03  0.00000000000E+00 0. -1.
         21   -1    0    0  502  503 -0.00000000000E+00 -0.00000000000E+00 -0.15195352819E+03  0.15195352819E+03  0.00000000000E+00 0.  1.
          6    1    1    2  501    0  0.71240640855E+02  0.13771228463E+03  0.20446464298E+03  0.30891696696E+03  0.17200000000E+03 0. -1.
         -6    1    1    2    0  503 -0.71240640855E+02 -0.13771228463E+03  0.34698880815E+02  0.23415361321E+03  0.17200000000E+03 0.  1.
<mgrwt>
<rscale>  2 0.23156835E+03</rscale>
<asrwt>0</asrwt>
<pdfrwt beam="1">  1       21 0.97779261E-01 0.23156835E+03</pdfrwt>
<pdfrwt beam="2">  1       21 0.37988383E-01 0.23156835E+03</pdfrwt>
<totfact> 0.56229759E+03</totfact>
</mgrwt>
</event>
<event>
 4    1  0.2299148E-001  0.1901676E+03  0.7546771E-02  0.1158310E+00
         21   -1    0    0  503  502  0.00000000000E+00  0.00000000000E+00  0.36971001110E+03  0.36971001110E+03  0.00000000000E+00 0. -1.
         21   -1    0    0  501  503 -0.00000000000E+00 -0.00000000000E+00 -0.11211657329E+03  0.11211657329E+03  0.00000000000E+00 0. -1.
          6    1    1    2  501    0  0.74775832710E+02 -0.31437123226E+02  0.21483582040E+03  0.28691139329E+03  0.17200000000E+03 0. -1.
         -6    1    1    2    0  502 -0.74775832710E+02  0.31437123226E+02  0.42757617415E+02  0.19491519110E+03  0.17200000000E+03 0. -1.
<mgrwt>
<rscale>  2 0.19016760E+03</rscale>
<asrwt>0</asrwt>
<pdfrwt beam="1">  1       21 0.92427500E-01 0.19016760E+03</pdfrwt>
<pdfrwt beam="2">  1       21 0.28029144E-01 0.19016760E+03</pdfrwt>
<totfact> 0.12029312E+04</totfact>
</mgrwt>
</event>
<event>
 4    1  0.2299148E-001  0.1760181E+03  0.7546771E-02  0.1171713E+00
         21   -1    0    0  503  502  0.00000000000E+00  0.00000000000E+00  0.69733296958E+03  0.69733296958E+03  0.00000000000E+00 0.  1.
         21   -1    0    0  501  503 -0.00000000000E+00 -0.00000000000E+00 -0.44755720882E+02  0.44755720882E+02  0.00000000000E+00 0.  1.
          6    1    1    2  501    0  0.33374648871E+02 -0.16867538592E+02  0.35795086906E+03  0.39888745995E+03  0.17200000000E+03 0. -1.
         -6    1    1    2    0  502 -0.33374648871E+02  0.16867538592E+02  0.29462637964E+03  0.34320123051E+03  0.17200000000E+03 0. -1.
<mgrwt>
<rscale>  2 0.17601813E+03</rscale>
<asrwt>0</asrwt>
<pdfrwt beam="1">  1       21 0.17433321E+00 0.17601813E+03</pdfrwt>
<pdfrwt beam="2">  1       21 0.11188932E-01 0.17601813E+03</pdfrwt>
<totfact> 0.13405513E+04</totfact>
</mgrwt>
</event>
<event>
 4    1  0.2299148E-001  0.1936245E+03  0.7546771E-02  0.1155232E+00
         21   -1    0    0  501  502  0.00000000000E+00  0.00000000000E+00  0.22167596498E+03  0.22167596498E+03  0.00000000000E+00 0. -1.
         21   -1    0    0  502  503 -0.00000000000E+00 -0.00000000000E+00 -0.26328530353E+03  0.26328530353E+03  0.00000000000E+00 0. -1.
          6    1    1    2  501    0  0.88730840180E+02  0.57693410114E+01  0.12420697596E+03  0.23003873624E+03  0.17200000000E+03 0. -1.
         -6    1    1    2    0  503 -0.88730840180E+02 -0.57693410114E+01 -0.16581631452E+03  0.25492253227E+03  0.17200000000E+03 0. -1.
<mgrwt>
<rscale>  2 0.19362450E+03</rscale>
<asrwt>0</asrwt>
<pdfrwt beam="1">  1       21 0.55418991E-01 0.19362450E+03</pdfrwt>
<pdfrwt beam="2">  1       21 0.65821326E-01 0.19362450E+03</pdfrwt>
<totfact> 0.65050265E+03</totfact>
</mgrwt>
</event>
<event>
 4    1  0.2299148E-001  0.2114333E+03  0.7546771E-02  0.1140436E+00
         21   -1    0    0  501  502  0.00000000000E+00  0.00000000000E+00  0.38553036020E+03  0.38553036020E+03  0.00000000000E+00 0. -1.
         21   -1    0    0  502  503 -0.00000000000E+00 -0.00000000000E+00 -0.12953055211E+03  0.12953055211E+03  0.00000000000E+00 0. -1.
          6    1    1    2  501    0 -0.92090292773E+02  0.81482632028E+02  0.21137314770E+03  0.29896931099E+03  0.17200000000E+03 0. -1.
         -6    1    1    2    0  503  0.92090292773E+02 -0.81482632028E+02  0.44626660394E+02  0.21609160132E+03  0.17200000000E+03 0. -1.
<mgrwt>
<rscale>  2 0.21143330E+03</rscale>
<asrwt>0</asrwt>
<pdfrwt beam="1">  1       21 0.96382588E-01 0.21143330E+03</pdfrwt>
<pdfrwt beam="2">  1       21 0.32382639E-01 0.21143330E+03</pdfrwt>
<totfact> 0.81065709E+03</totfact>
</mgrwt>
</event>
<event>
 4    1  0.2299148E-001  0.2413248E+03  0.7546771E-02  0.1118913E+00
         21   -1    0    0  501  502  0.00000000000E+00  0.00000000000E+00  0.87064281720E+02  0.87064281720E+02  0.00000000000E+00 0.  1.
         21   -1    0    0  502  503 -0.00000000000E+00 -0.00000000000E+00 -0.67820445932E+03  0.67820445932E+03  0.00000000000E+00 0.  1.
          6    1    1    2  501    0 -0.93687086176E+02 -0.14098368860E+03 -0.25076272963E+03  0.34802243770E+03  0.17200000000E+03 0.  1.
         -6    1    1    2    0  503  0.93687086176E+02  0.14098368860E+03 -0.34037744797E+03  0.41724630334E+03  0.17200000000E+03 0.  1.
<mgrwt>
<rscale>  2 0.24132482E+03</rscale>
<asrwt>0</asrwt>
<pdfrwt beam="1">  1       21 0.21766071E-01 0.24132482E+03</pdfrwt>
<pdfrwt beam="2">  1       21 0.16955111E+00 0.24132482E+03</pdfrwt>
<totfact> 0.40675795E+03</totfact>
</mgrwt>
</event>
<event>
 4    1  0.2299148E-001  0.1871061E+03  0.7546771E-02  0.1161098E+00
         21   -1    0    0  503  502  0.00000000000E+00  0.00000000000E+00  0.42312353519E+02  0.42312353519E+02  0.00000000000E+00 0. -1.
         21   -1    0    0  501  503 -0.00000000000E+00 -0.00000000000E+00 -0.82882553881E+03  0.82882553881E+03  0.00000000000E+00 0. -1.
          6    1    1    2  501    0  0.54284762477E+02  0.49778092556E+02 -0.41140240965E+03  0.45195202910E+03  0.17200000000E+03 0. -1.
         -6    1    1    2    0  502 -0.54284762477E+02 -0.49778092556E+02 -0.37511077564E+03  0.41918586324E+03  0.17200000000E+03 0. -1.
<mgrwt>
<rscale>  2 0.18710610E+03</rscale>
<asrwt>0</asrwt>
<pdfrwt beam="1">  1       21 0.10578088E-01 0.18710610E+03</pdfrwt>
<pdfrwt beam="2">  1       21 0.20720639E+00 0.18710610E+03</pdfrwt>
<totfact> 0.89193415E+03</totfact>
</mgrwt>
</event>
<event>
 4    1  0.2299148E-001  0.1822019E+03  0.7546771E-02  0.1165689E+00
         21   -1    0    0  503  502  0.00000000000E+00  0.00000000000E+00  0.44500868214E+03  0.44500868214E+03  0.00000000000E+00 0. -1.
         21   -1    0    0  501  503 -0.00000000000E+00 -0.00000000000E+00 -0.75364961519E+02  0.75364961519E+02  0.00000000000E+00 0. -1.
          6    1    1    2  501    0 -0.58948024607E+02 -0.11775252780E+02  0.15860396393E+03  0.24156312541E+03  0.17200000000E+03 0. -1.
         -6    1    1    2    0  502  0.58948024607E+02  0.11775252780E+02  0.21103975669E+03  0.27881051825E+03  0.17200000000E+03 0. -1.
<mgrwt>
<rscale>  2 0.18220188E+03</rscale>
<asrwt>0</asrwt>
<pdfrwt beam="1">  1       21 0.11125216E+00 0.18220188E+03</pdfrwt>
<pdfrwt beam="2">  1       21 0.18841242E-01 0.18220188E+03</pdfrwt>
<totfact> 0.16504834E+04</totfact>
</mgrwt>
</event>
<event>
 4    1  0.2299148E-001  0.1743538E+03  0.7546771E-02  0.1173382E+00
         21   -1    0    0  503  502  0.00000000000E+00  0.00000000000E+00  0.11665777724E+03  0.11665777724E+03  0.00000000000E+00 0. -1.
         21   -1    0    0  501  503 -0.00000000000E+00 -0.00000000000E+00 -0.28369499113E+03  0.28369499113E+03  0.00000000000E+00 0. -1.
          6    1    1    2  501    0  0.99519881666E+01  0.26761884387E+02 -0.14065186869E+03  0.22401381361E+03  0.17200000000E+03 0. -1.
         -6    1    1    2    0  502 -0.99519881666E+01 -0.26761884387E+02 -0.26385345206E+02  0.17633895476E+03  0.17200000000E+03 0. -1.
<mgrwt>
<rscale>  2 0.17435378E+03</rscale>
<asrwt>0</asrwt>
<pdfrwt beam="1">  1       21 0.29164444E-01 0.17435378E+03</pdfrwt>
<pdfrwt beam="2">  1       21 0.70923747E-01 0.17435378E+03</pdfrwt>
<totfact> 0.20491492E+04</totfact>
</mgrwt>
</event>
<event>
 4    1  0.2299148E-001  0.2026113E+03  0.7546771E-02  0.1147554E+00
         21   -1    0    0  501  502  0.00000000000E+00  0.00000000000E+00  0.52854200097E+03  0.52854200097E+03  0.00000000000E+00 0.  1.
         21   -1    0    0  502  503 -0.00000000000E+00 -0.00000000000E+00 -0.77669496328E+02  0.77669496328E+02  0.00000000000E+00 0.  1.
          6    1    1    2  501    0 -0.55779278046E+02  0.91411311142E+02  0.22471051975E+03  0.30256598181E+03  0.17200000000E+03 0.  1.
         -6    1    1    2    0  503  0.55779278046E+02 -0.91411311142E+02  0.22616198489E+03  0.30364551549E+03  0.17200000000E+03 0.  1.
<mgrwt>
<rscale>  2 0.20261134E+03</rscale>
<asrwt>0</asrwt>
<pdfrwt beam="1">  1       21 0.13213549E+00 0.20261134E+03</pdfrwt>
<pdfrwt beam="2">  1       21 0.19417376E-01 0.20261134E+03</pdfrwt>
<totfact> 0.10044419E+04</totfact>
</mgrwt>
</event>
<event>
 4    1  0.2299148E-001  0.1943968E+03  0.7546771E-02  0.1154554E+00
         21   -1    0    0  501  502  0.00000000000E+00  0.00000000000E+00  0.93145491961E+03  0.93145491961E+03  0.00000000000E+00 0.  1.
         21   -1    0    0  502  503 -0.00000000000E+00 -0.00000000000E+00 -0.42409829734E+02  0.42409829734E+02  0.00000000000E+00 0.  1.
          6    1    1    2  501    0  0.78635825845E+02 -0.44972493560E+02  0.54591332028E+03  0.57949242579E+03  0.17200000000E+03 0.  1.
         -6    1    1    2    0  503 -0.78635825845E+02  0.44972493560E+02  0.34313176959E+03  0.39437232356E+03  0.17200000000E+03 0.  1.
<mgrwt>
<rscale>  2 0.19439681E+03</rscale>
<asrwt>0</asrwt>
<pdfrwt beam="1">  1       21 0.23286366E+00 0.19439681E+03</pdfrwt>
<pdfrwt beam="2">  1       21 0.10602460E-01 0.19439681E+03</pdfrwt>
<totfact> 0.61389298E+03</totfact>
</mgrwt>
</event>
<event>
 4    1  0.2299148E-001  0.1985616E+03  0.7546771E-02  0.1150958E+00
         21   -1    0    0  503  502  0.00000000000E+00  0.00000000000E+00  0.22769549839E+03  0.22769549839E+03  0.00000000000E+00 0. -1.
         21   -1    0    0  501  503 -0.00000000000E+00 -0.00000000000E+00 -0.17343167675E+03  0.17343167675E+03  0.00000000000E+00 0. -1.
          6    1    1    2  501    0  0.36707962237E+02 -0.92169614351E+02  0.35136428946E+02  0.20164642556E+03  0.17200000000E+03 0. -1.
         -6    1    1    2    0  502 -0.36707962237E+02  0.92169614351E+02  0.19127392690E+02  0.19948074958E+03  0.17200000000E+03 0. -1.
<mgrwt>
<rscale>  2 0.19856161E+03</rscale>
<asrwt>0</asrwt>
<pdfrwt beam="1">  1       21 0.56923874E-01 0.19856161E+03</pdfrwt>
<pdfrwt beam="2">  1       21 0.43357919E-01 0.19856161E+03</pdfrwt>
<totfact> 0.14772174E+04</totfact>
</mgrwt>
</event>
<event>
 4    1  0.2299148E-001  0.2245679E+03  0.7546771E-02  0.1130523E+00
         21   -1    0    0  503  502  0.00000000000E+00  0.00000000000E+00  0.39385862612E+03  0.39385862612E+03  0.00000000000E+00 0.  1.
         21   -1    0    0  501  503 -0.00000000000E+00 -0.00000000000E+00 -0.12968042451E+03  0.12968042451E+03  0.00000000000E+00 0. -1.
          6    1    1    2  501    0  0.79854812193E+02  0.12029104249E+03  0.16150627433E+03  0.27661345336E+03  0.17200000000E+03 0.  1.
         -6    1    1    2    0  502 -0.79854812193E+02 -0.12029104249E+03  0.10267192728E+03  0.24692559727E+03  0.17200000000E+03 0. -1.
<mgrwt>
<rscale>  2 0.22456786E+03</rscale>
<asrwt>0</asrwt>
<pdfrwt beam="1">  1       21 0.98464654E-01 0.22456786E+03</pdfrwt>
<pdfrwt beam="2">  1       21 0.32420107E-01 0.22456786E+03</pdfrwt>
<totfact> 0.76218320E+03</totfact>
</mgrwt>
</event>
<event>
 4    1  0.2299148E-001  0.1813308E+03  0.7546771E-02  0.1166521E+00
         21   -1    0    0  503  502  0.00000000000E+00  0.00000000000E+00  0.11477308156E+04  0.11477308156E+04  0.00000000000E+00 0.  1.
         21   -1    0    0  501  503 -0.00000000000E+00 -0.00000000000E+00 -0.30737608837E+02  0.30737608837E+02  0.00000000000E+00 0.  1.
          6    1    1    2  501    0  0.23065756362E+02  0.52581672078E+02  0.40488471188E+03  0.44363553878E+03  0.17200000000E+03 0.  1.
         -6    1    1    2    0  502 -0.23065756362E+02 -0.52581672078E+02  0.71210849485E+03  0.73483288562E+03  0.17200000000E+03 0.  1.
<mgrwt>
<rscale>  2 0.18133081E+03</rscale>
<asrwt>0</asrwt>
<pdfrwt beam="1">  1       21 0.28693256E+00 0.18133081E+03</pdfrwt>
<pdfrwt beam="2">  1       21 0.76844060E-02 0.18133081E+03</pdfrwt>
<totfact> 0.52927266E+03</totfact>
</mgrwt>
</event>
<event>
 4    1  0.2299148E-001  0.1826568E+03  0.7546771E-02  0.1165256E+00
         21   -1    0    0  503  502  0.00000000000E+00  0.00000000000E+00  0.72939795810E+02  0.72939795810E+02  0.00000000000E+00 0.  1.
         21   -1    0    0  501  503 -0.00000000000E+00 -0.00000000000E+00 -0.48127115543E+03  0.48127115543E+03  0.00000000000E+00 0.  1.
          6    1    1    2  501    0  0.55258900620E+02  0.26943464946E+02 -0.26586535813E+03  0.32256454402E+03  0.17200000000E+03 0. -1.
         -6    1    1    2    0  502 -0.55258900620E+02 -0.26943464946E+02 -0.14246600149E+03  0.23164640723E+03  0.17200000000E+03 0. -1.
<mgrwt>
<rscale>  2 0.18265677E+03</rscale>
<asrwt>0</asrwt>
<pdfrwt beam="1">  1       21 0.18234949E-01 0.18265677E+03</pdfrwt>
<pdfrwt beam="2">  1       21 0.12031779E+00 0.18265677E+03</pdfrwt>
<totfact> 0.14478327E+04</totfact>
</mgrwt>
</event>
<event>
 4    1  0.2299148E-001  0.2083777E+03  0.7546771E-02  0.1142857E+00
         21   -1    0    0  501  502  0.00000000000E+00  0.00000000000E+00  0.35153706541E+03  0.35153706541E+03  0.00000000000E+00 0. -1.
         21   -1    0    0  502  503 -0.00000000000E+00 -0.00000000000E+00 -0.13139611254E+03  0.13139611254E+03  0.00000000000E+00 0.  1.
          6    1    1    2  501    0 -0.66415177792E+02  0.97089021409E+02  0.16919520258E+03  0.26841808898E+03  0.17200000000E+03 0. -1.
         -6    1    1    2    0  503  0.66415177792E+02 -0.97089021409E+02  0.50945750295E+02  0.21451508896E+03  0.17200000000E+03 0.  1.
<mgrwt>
<rscale>  2 0.20837767E+03</rscale>
<asrwt>0</asrwt>
<pdfrwt beam="1">  1       21 0.87884265E-01 0.20837767E+03</pdfrwt>
<pdfrwt beam="2">  1       21 0.32849029E-01 0.20837767E+03</pdfrwt>
<totfact> 0.97937779E+03</totfact>
</mgrwt>
</event>
<event>
 4    1  0.2299148E-001  0.2128946E+03  0.7546771E-02  0.1139294E+00
         21   -1    0    0  501  502  0.00000000000E+00  0.00000000000E+00  0.61454489860E+03  0.61454489860E+03  0.00000000000E+00 0.  1.
         21   -1    0    0  502  503 -0.00000000000E+00 -0.00000000000E+00 -0.82531896229E+02  0.82531896229E+02  0.00000000000E+00 0. -1.
          6    1    1    2  501    0  0.62598873559E+02 -0.10872672462E+03  0.15232856267E+03  0.26177874364E+03  0.17200000000E+03 0. -1.
         -6    1    1    2    0  503 -0.62598873559E+02  0.10872672462E+03  0.37968443970E+03  0.43529805119E+03  0.17200000000E+03 0.  1.
<mgrwt>
<rscale>  2 0.21289462E+03</rscale>
<asrwt>0</asrwt>
<pdfrwt beam="1">  1       21 0.15363621E+00 0.21289462E+03</pdfrwt>
<pdfrwt beam="2">  1       21 0.20632976E-01 0.21289462E+03</pdfrwt>
<totfact> 0.60111247E+03</totfact>
</mgrwt>
</event>
<event>
 4    1  0.2299148E-001  0.3475109E+03  0.7546771E-02  0.1063641E+00
         21   -1    0    0  501  502  0.00000000000E+00  0.00000000000E+00  0.17888131824E+03  0.17888131824E+03  0.00000000000E+00 0.  1.
         21   -1    0    0  502  503 -0.00000000000E+00 -0.00000000000E+00 -0.10840228416E+04  0.10840228416E+04  0.00000000000E+00 0. -1.
          6    1    1    2  501    0  0.27214879601E+03 -0.13082376830E+03 -0.64743122480E+02  0.35349044885E+03  0.17200000000E+03 0.  1.
         -6    1    1    2    0  503 -0.27214879601E+03  0.13082376830E+03 -0.84039840088E+03  0.90941371099E+03  0.17200000000E+03 0. -1.
<mgrwt>
<rscale>  2 0.34751090E+03</rscale>
<asrwt>0</asrwt>
<pdfrwt beam="1">  1       21 0.44720330E-01 0.34751090E+03</pdfrwt>
<pdfrwt beam="2">  1       21 0.27100571E+00 0.34751090E+03</pdfrwt>
<totfact> 0.20392673E+02</totfact>
</mgrwt>
</event>
<event>
 4    1  0.2299148E-001  0.1779277E+03  0.7546771E-02  0.1169824E+00
         21   -1    0    0  503  502  0.00000000000E+00  0.00000000000E+00  0.79651362644E+02  0.79651362644E+02  0.00000000000E+00 0.  1.
         21   -1    0    0  501  503 -0.00000000000E+00 -0.00000000000E+00 -0.40251459299E+03  0.40251459299E+03  0.00000000000E+00 0.  1.
          6    1    1    2  501    0  0.45540655990E+02  0.57488143766E+00 -0.18844575785E+03  0.25917192265E+03  0.17200000000E+03 0.  1.
         -6    1    1    2    0  502 -0.45540655990E+02 -0.57488143766E+00 -0.13441747250E+03  0.22299403299E+03  0.17200000000E+03 0.  1.
<mgrwt>
<rscale>  2 0.17792774E+03</rscale>
<asrwt>0</asrwt>
<pdfrwt beam="1">  1       21 0.19912841E-01 0.17792774E+03</pdfrwt>
<pdfrwt beam="2">  1       21 0.10062865E+00 0.17792774E+03</pdfrwt>
<totfact> 0.18998184E+04</totfact>
</mgrwt>
</event>
<event>
 4    1  0.2299148E-001  0.1964995E+03  0.7546771E-02  0.1152726E+00
         21   -1    0    0  501  502  0.00000000000E+00  0.00000000000E+00  0.64454451367E+03  0.64454451367E+03  0.00000000000E+00 0. -1.
         21   -1    0    0  502  503 -0.00000000000E+00 -0.00000000000E+00 -0.62446314609E+02  0.62446314609E+02  0.00000000000E+00 0. -1.
          6    1    1    2  501    0  0.90008089356E+02  0.30440203750E+02  0.36234703913E+03  0.41219830048E+03  0.17200000000E+03 0. -1.
         -6    1    1    2    0  503 -0.90008089356E+02 -0.30440203750E+02  0.21975115993E+03  0.29479252779E+03  0.17200000000E+03 0. -1.
<mgrwt>
<rscale>  2 0.19649952E+03</rscale>
<asrwt>0</asrwt>
<pdfrwt beam="1">  1       21 0.16113611E+00 0.19649952E+03</pdfrwt>
<pdfrwt beam="2">  1       21 0.15611581E-01 0.19649952E+03</pdfrwt>
<totfact> 0.89786326E+03</totfact>
</mgrwt>
</event>
<event>
 4    1  0.2299148E-001  0.1770456E+03  0.7546771E-02  0.1170693E+00
         21   -1    0    0  503  502  0.00000000000E+00  0.00000000000E+00  0.24702108470E+03  0.24702108470E+03  0.00000000000E+00 0.  1.
         21   -1    0    0  501  503 -0.00000000000E+00 -0.00000000000E+00 -0.13751172666E+03  0.13751172666E+03  0.00000000000E+00 0.  1.
          6    1    1    2  501    0 -0.16272184743E+02  0.38682743460E+02  0.13254767579E+01  0.17705054512E+03  0.17200000000E+03 0.  1.
         -6    1    1    2    0  502  0.16272184743E+02 -0.38682743460E+02  0.10818388127E+03  0.20748226624E+03  0.17200000000E+03 0.  1.
<mgrwt>
<rscale>  2 0.17704558E+03</rscale>
<asrwt>0</asrwt>
<pdfrwt beam="1">  1       21 0.61755271E-01 0.17704558E+03</pdfrwt>
<pdfrwt beam="2">  1       21 0.34377932E-01 0.17704558E+03</pdfrwt>
<totfact> 0.20045148E+04</totfact>
</mgrwt>
</event>
<event>
 4    1  0.2299148E-001  0.2522134E+03  0.7546771E-02  0.1111914E+00
         21   -1    0    0  501  502  0.00000000000E+00  0.00000000000E+00  0.30418686452E+03  0.30418686452E+03  0.00000000000E+00 0.  1.
         21   -1    0    0  502  503 -0.00000000000E+00 -0.00000000000E+00 -0.25264899597E+03  0.25264899597E+03  0.00000000000E+00 0.  1.
          6    1    1    2  501    0  0.12945606132E+03 -0.13141043591E+03  0.14133423463E+03  0.28911406115E+03  0.17200000000E+03 0.  1.
         -6    1    1    2    0  503 -0.12945606132E+03  0.13141043591E+03 -0.89796366082E+02  0.26772179933E+03  0.17200000000E+03 0.  1.
<mgrwt>
<rscale>  2 0.25221335E+03</rscale>
<asrwt>0</asrwt>
<pdfrwt beam="1">  1       21 0.76046716E-01 0.25221335E+03</pdfrwt>
<pdfrwt beam="2">  1       21 0.63162249E-01 0.25221335E+03</pdfrwt>
<totfact> 0.34205696E+03</totfact>
</mgrwt>
</event>
<event>
 4    1  0.2299148E-001  0.1782440E+03  0.7546771E-02  0.1169513E+00
         21   -1    0    0  503  502  0.00000000000E+00  0.00000000000E+00  0.52603557107E+02  0.52603557107E+02  0.00000000000E+00 0.  1.
         21   -1    0    0  501  503 -0.00000000000E+00 -0.00000000000E+00 -0.61675696723E+03  0.61675696723E+03  0.00000000000E+00 0.  1.
          6    1    1    2  501    0  0.20173528516E+02  0.42189399961E+02 -0.23388479185E+03  0.29406293983E+03  0.17200000000E+03 0.  1.
         -6    1    1    2    0  502 -0.20173528516E+02 -0.42189399961E+02 -0.33026861828E+03  0.37529758451E+03  0.17200000000E+03 0.  1.
<mgrwt>
<rscale>  2 0.17824398E+03</rscale>
<asrwt>0</asrwt>
<pdfrwt beam="1">  1       21 0.13150889E-01 0.17824398E+03</pdfrwt>
<pdfrwt beam="2">  1       21 0.15418924E+00 0.17824398E+03</pdfrwt>
<totfact> 0.13983263E+04</totfact>
</mgrwt>
</event>
<event>
 4    1  0.2299148E-001  0.1759632E+03  0.7546771E-02  0.1171768E+00
         21   -1    0    0  501  502  0.00000000000E+00  0.00000000000E+00  0.34047660084E+03  0.34047660084E+03  0.00000000000E+00 0.  1.
         21   -1    0    0  502  503 -0.00000000000E+00 -0.00000000000E+00 -0.95641667807E+02  0.95641667807E+02  0.00000000000E+00 0.  1.
          6    1    1    2  501    0 -0.30009042096E+02 -0.21874930645E+02  0.17076355460E+03  0.24520042165E+03  0.17200000000E+03 0.  1.
         -6    1    1    2    0  503  0.30009042096E+02  0.21874930645E+02  0.74071378431E+02  0.19091784699E+03  0.17200000000E+03 0.  1.
<mgrwt>
<rscale>  2 0.17596322E+03</rscale>
<asrwt>0</asrwt>
<pdfrwt beam="1">  1       21 0.85119147E-01 0.17596322E+03</pdfrwt>
<pdfrwt beam="2">  1       21 0.23910418E-01 0.17596322E+03</pdfrwt>
<totfact> 0.19897307E+04</totfact>
</mgrwt>
</event>
<event>
 4    1  0.2299148E-001  0.2176318E+03  0.7546771E-02  0.1135661E+00
         21   -1    0    0  503  502  0.00000000000E+00  0.00000000000E+00  0.19864737788E+03  0.19864737788E+03  0.00000000000E+00 0.  1.
         21   -1    0    0  501  503 -0.00000000000E+00 -0.00000000000E+00 -0.25367922046E+03  0.25367922046E+03  0.00000000000E+00 0.  1.
          6    1    1    2  501    0 -0.10489914014E+03 -0.82314983436E+02  0.27933488144E+02  0.21941710476E+03  0.17200000000E+03 0.  1.
         -6    1    1    2    0  502  0.10489914014E+03  0.82314983436E+02 -0.82965330727E+02  0.23290949359E+03  0.17200000000E+03 0.  1.
<mgrwt>
<rscale>  2 0.21763177E+03</rscale>
<asrwt>0</asrwt>
<pdfrwt beam="1">  1       21 0.49661845E-01 0.21763177E+03</pdfrwt>
<pdfrwt beam="2">  1       21 0.63419805E-01 0.21763177E+03</pdfrwt>
<totfact> 0.87344382E+03</totfact>
</mgrwt>
</event>
<event>
 4    1  0.2299148E-001  0.4041015E+03  0.7546771E-02  0.1042369E+00
         21   -1    0    0  503  502  0.00000000000E+00  0.00000000000E+00  0.48370891404E+03  0.48370891404E+03  0.00000000000E+00 0.  1.
         21   -1    0    0  501  503 -0.00000000000E+00 -0.00000000000E+00 -0.34109811489E+03  0.34109811489E+03  0.00000000000E+00 0.  1.
          6    1    1    2  501    0 -0.38666705002E+02  0.36361913654E+03  0.29515238773E+02  0.40517791136E+03  0.17200000000E+03 0.  1.
         -6    1    1    2    0  502  0.38666705002E+02 -0.36361913654E+03  0.11309556038E+03  0.41962911757E+03  0.17200000000E+03 0.  1.
<mgrwt>
<rscale>  2 0.40410146E+03</rscale>
<asrwt>0</asrwt>
<pdfrwt beam="1">  1       21 0.12092723E+00 0.40410146E+03</pdfrwt>
<pdfrwt beam="2">  1       21 0.85274529E-01 0.40410146E+03</pdfrwt>
<totfact> 0.52706270E+02</totfact>
</mgrwt>
</event>
<event>
 4    1  0.2299148E-001  0.2834562E+03  0.7546771E-02  0.1093816E+00
         21   -1    0    0  503  502  0.00000000000E+00  0.00000000000E+00  0.50698681357E+03  0.50698681357E+03  0.00000000000E+00 0. -1.
         21   -1    0    0  501  503 -0.00000000000E+00 -0.00000000000E+00 -0.21401048839E+03  0.21401048839E+03  0.00000000000E+00 0.  1.
          6    1    1    2  501    0 -0.21138734952E+03  0.77966759538E+02  0.33012112951E+03  0.43511767061E+03  0.17200000000E+03 0. -1.
         -6    1    1    2    0  502  0.21138734952E+03 -0.77966759538E+02 -0.37144804331E+02  0.28587963135E+03  0.17200000000E+03 0.  1.
<mgrwt>
<rscale>  2 0.28345622E+03</rscale>
<asrwt>0</asrwt>
<pdfrwt beam="1">  1       21 0.12674670E+00 0.28345622E+03</pdfrwt>
<pdfrwt beam="2">  1       21 0.53502623E-01 0.28345622E+03</pdfrwt>
<totfact> 0.14149322E+03</totfact>
</mgrwt>
</event>
<event>
 4    1  0.2299148E-001  0.1808373E+03  0.7546771E-02  0.1166995E+00
         21   -1    0    0  503  502  0.00000000000E+00  0.00000000000E+00  0.14009394990E+03  0.14009394990E+03  0.00000000000E+00 0.  1.
         21   -1    0    0  501  503 -0.00000000000E+00 -0.00000000000E+00 -0.24655997417E+03  0.24655997417E+03  0.00000000000E+00 0.  1.
          6    1    1    2  501    0 -0.55391601406E+02 -0.70649688709E+01 -0.97846028832E+02  0.20561125614E+03  0.17200000000E+03 0.  1.
         -6    1    1    2    0  502  0.55391601406E+02  0.70649688709E+01 -0.86199954385E+01  0.18104266793E+03  0.17200000000E+03 0.  1.
<mgrwt>
<rscale>  2 0.18083734E+03</rscale>
<asrwt>0</asrwt>
<pdfrwt beam="1">  1       21 0.35023488E-01 0.18083734E+03</pdfrwt>
<pdfrwt beam="2">  1       21 0.61639993E-01 0.18083734E+03</pdfrwt>
<totfact> 0.19352991E+04</totfact>
</mgrwt>
</event>
<event>
 4    1  0.2299148E-001  0.2125687E+03  0.7546771E-02  0.1139548E+00
         21   -1    0    0  501  502  0.00000000000E+00  0.00000000000E+00  0.10343961768E+04  0.10343961768E+04  0.00000000000E+00 0. -1.
         21   -1    0    0  502  503 -0.00000000000E+00 -0.00000000000E+00 -0.57757531826E+02  0.57757531826E+02  0.00000000000E+00 0.  1.
          6    1    1    2  501    0 -0.60771127117E+02 -0.10912527535E+03  0.75788681407E+03  0.78713269438E+03  0.17200000000E+03 0. -1.
         -6    1    1    2    0  503  0.60771127117E+02  0.10912527535E+03  0.21875183091E+03  0.30502101426E+03  0.17200000000E+03 0.  1.
<mgrwt>
<rscale>  2 0.21256871E+03</rscale>
<asrwt>0</asrwt>
<pdfrwt beam="1">  1       21 0.25859898E+00 0.21256871E+03</pdfrwt>
<pdfrwt beam="2">  1       21 0.14439386E-01 0.21256871E+03</pdfrwt>
<totfact> 0.24352918E+03</totfact>
</mgrwt>
</event>
<event>
 4    1  0.2299148E-001  0.2146497E+03  0.7546771E-02  0.1137936E+00
         21   -1    0    0  503  502  0.00000000000E+00  0.00000000000E+00  0.77214893957E+02  0.77214893957E+02  0.00000000000E+00 0. -1.
         21   -1    0    0  501  503 -0.00000000000E+00 -0.00000000000E+00 -0.60797172632E+03  0.60797172632E+03  0.00000000000E+00 0. -1.
          6    1    1    2  501    0  0.88515311267E+01 -0.12810996343E+03 -0.21874080467E+03  0.30646704873E+03  0.17200000000E+03 0. -1.
         -6    1    1    2    0  502 -0.88515311267E+01  0.12810996343E+03 -0.31201602769E+03  0.37871957154E+03  0.17200000000E+03 0. -1.
<mgrwt>
<rscale>  2 0.21464974E+03</rscale>
<asrwt>0</asrwt>
<pdfrwt beam="1">  1       21 0.19303724E-01 0.21464974E+03</pdfrwt>
<pdfrwt beam="2">  1       21 0.15199293E+00 0.21464974E+03</pdfrwt>
<totfact> 0.69972304E+03</totfact>
</mgrwt>
</event>
<event>
 4    1  0.2299148E-001  0.1770690E+03  0.7546771E-02  0.1170670E+00
         21   -1    0    0  503  502  0.00000000000E+00  0.00000000000E+00  0.39088180640E+03  0.39088180640E+03  0.00000000000E+00 0. -1.
         21   -1    0    0  501  503 -0.00000000000E+00 -0.00000000000E+00 -0.13817951744E+03  0.13817951744E+03  0.00000000000E+00 0. -1.
          6    1    1    2  501    0  0.36912507981E+02 -0.20171632817E+02 -0.44983968299E+02  0.18269369288E+03  0.17200000000E+03 0. -1.
         -6    1    1    2    0  502 -0.36912507981E+02  0.20171632817E+02  0.29768625726E+03  0.34636763096E+03  0.17200000000E+03 0. -1.
<mgrwt>
<rscale>  2 0.17706899E+03</rscale>
<asrwt>0</asrwt>
<pdfrwt beam="1">  1       21 0.97720449E-01 0.17706899E+03</pdfrwt>
<pdfrwt beam="2">  1       21 0.34544880E-01 0.17706899E+03</pdfrwt>
<totfact> 0.70851748E+03</totfact>
</mgrwt>
</event>
<event>
 4    1  0.2299148E-001  0.3001217E+03  0.7546771E-02  0.1085180E+00
         21   -1    0    0  503  502  0.00000000000E+00  0.00000000000E+00  0.88219028251E+03  0.88219028251E+03  0.00000000000E+00 0.  1.
         21   -1    0    0  501  503 -0.00000000000E+00 -0.00000000000E+00 -0.10210268380E+03  0.10210268380E+03  0.00000000000E+00 0.  1.
          6    1    1    2  501    0  0.12148200973E+03  0.21384847572E+03  0.38844869320E+03  0.49088230412E+03  0.17200000000E+03 0.  1.
         -6    1    1    2    0  502 -0.12148200973E+03 -0.21384847572E+03  0.39163890551E+03  0.49341066219E+03  0.17200000000E+03 0.  1.
<mgrwt>
<rscale>  2 0.30012172E+03</rscale>
<asrwt>0</asrwt>
<pdfrwt beam="1">  1       21 0.22054755E+00 0.30012172E+03</pdfrwt>
<pdfrwt beam="2">  1       21 0.25525674E-01 0.30012172E+03</pdfrwt>
<totfact> 0.13184039E+03</totfact>
</mgrwt>
</event>
<event>
 4    1  0.2299148E-001  0.2936534E+03  0.7546771E-02  0.1088457E+00
         21   -1    0    0  503  502  0.00000000000E+00  0.00000000000E+00  0.42076039189E+03  0.42076039189E+03  0.00000000000E+00 0. -1.
         21   -1    0    0  501  503 -0.00000000000E+00 -0.00000000000E+00 -0.22178646936E+03  0.22178646936E+03  0.00000000000E+00 0.  1.
          6    1    1    2  501    0 -0.59329598507E+02  0.23049581337E+03  0.18802095660E+03  0.34868926189E+03  0.17200000000E+03 0. -1.
         -6    1    1    2    0  502  0.59329598507E+02 -0.23049581337E+03  0.10952965921E+02  0.29385759936E+03  0.17200000000E+03 0.  1.
<mgrwt>
<rscale>  2 0.29365340E+03</rscale>
<asrwt>0</asrwt>
<pdfrwt beam="1">  1       21 0.10519010E+00 0.29365340E+03</pdfrwt>
<pdfrwt beam="2">  1       21 0.55446618E-01 0.29365340E+03</pdfrwt>
<totfact> 0.20692019E+03</totfact>
</mgrwt>
</event>
<event>
 4    1  0.2299148E-001  0.2159990E+03  0.7546771E-02  0.1136902E+00
         21   -1    0    0  503  502  0.00000000000E+00  0.00000000000E+00  0.11244088924E+03  0.11244088924E+03  0.00000000000E+00 0. -1.
         21   -1    0    0  501  503 -0.00000000000E+00 -0.00000000000E+00 -0.41713992288E+03  0.41713992288E+03  0.00000000000E+00 0.  1.
          6    1    1    2  501    0 -0.87586401653E+02 -0.96954640666E+02 -0.17160384501E+03  0.27586855516E+03  0.17200000000E+03 0. -1.
         -6    1    1    2    0  502  0.87586401653E+02  0.96954640666E+02 -0.13309518863E+03  0.25371225697E+03  0.17200000000E+03 0.  1.
<mgrwt>
<rscale>  2 0.21599903E+03</rscale>
<asrwt>0</asrwt>
<pdfrwt beam="1">  1       21 0.28110223E-01 0.21599903E+03</pdfrwt>
<pdfrwt beam="2">  1       21 0.10428498E+00 0.21599903E+03</pdfrwt>
<totfact> 0.88333296E+03</totfact>
</mgrwt>
</event>
<event>
 4    1  0.2299148E-001  0.4116930E+03  0.7546771E-02  0.1039804E+00
         21   -1    0    0  503  502  0.00000000000E+00  0.00000000000E+00  0.50272518040E+03  0.50272518040E+03  0.00000000000E+00 0. -1.
         21   -1    0    0  501  503 -0.00000000000E+00 -0.00000000000E+00 -0.33849812179E+03  0.33849812179E+03  0.00000000000E+00 0.  1.
          6    1    1    2  501    0 -0.32746611021E+03  0.18075703654E+03  0.10870916313E+03  0.42580375966E+03  0.17200000000E+03 0.  1.
         -6    1    1    2    0  502  0.32746611021E+03 -0.18075703654E+03  0.55517895492E+02  0.41541954253E+03  0.17200000000E+03 0. -1.
<mgrwt>
<rscale>  2 0.41169304E+03</rscale>
<asrwt>0</asrwt>
<pdfrwt beam="1">  1       21 0.12568129E+00 0.41169304E+03</pdfrwt>
<pdfrwt beam="2">  1       21 0.84624531E-01 0.41169304E+03</pdfrwt>
<totfact> 0.48431721E+02</totfact>
</mgrwt>
</event>
<event>
 4    1  0.2299148E-001  0.1786258E+03  0.7546771E-02  0.1169140E+00
         21   -1    0    0  501  502  0.00000000000E+00  0.00000000000E+00  0.21677611433E+03  0.21677611433E+03  0.00000000000E+00 0. -1.
         21   -1    0    0  502  503 -0.00000000000E+00 -0.00000000000E+00 -0.15765236917E+03  0.15765236917E+03  0.00000000000E+00 0. -1.
          6    1    1    2  501    0 -0.48006789772E+02  0.43025601345E+01 -0.18667810943E+02  0.17959858311E+03  0.17200000000E+03 0. -1.
         -6    1    1    2    0  503  0.48006789772E+02 -0.43025601345E+01  0.77791556107E+02  0.19482990040E+03  0.17200000000E+03 0. -1.
<mgrwt>
<rscale>  2 0.17862576E+03</rscale>
<asrwt>0</asrwt>
<pdfrwt beam="1">  1       21 0.54194028E-01 0.17862576E+03</pdfrwt>
<pdfrwt beam="2">  1       21 0.39413092E-01 0.17862576E+03</pdfrwt>
<totfact> 0.20138931E+04</totfact>
</mgrwt>
</event>
<event>
 4    1  0.2299148E-001  0.2493069E+03  0.7546771E-02  0.1113744E+00
         21   -1    0    0  503  502  0.00000000000E+00  0.00000000000E+00  0.45725178916E+03  0.45725178916E+03  0.00000000000E+00 0.  1.
         21   -1    0    0  501  503 -0.00000000000E+00 -0.00000000000E+00 -0.14095478021E+03  0.14095478021E+03  0.00000000000E+00 0.  1.
          6    1    1    2  501    0  0.15031437540E+02  0.17984431939E+03  0.10167180174E+03  0.26924167322E+03  0.17200000000E+03 0.  1.
         -6    1    1    2    0  502 -0.15031437540E+02 -0.17984431939E+03  0.21462520721E+03  0.32896489615E+03  0.17200000000E+03 0.  1.
<mgrwt>
<rscale>  2 0.24930689E+03</rscale>
<asrwt>0</asrwt>
<pdfrwt beam="1">  1       21 0.11431294E+00 0.24930689E+03</pdfrwt>
<pdfrwt beam="2">  1       21 0.35238696E-01 0.24930689E+03</pdfrwt>
<totfact> 0.44297089E+03</totfact>
</mgrwt>
</event>
<event>
 4    1  0.2299148E-001  0.3530573E+03  0.7546771E-02  0.1061367E+00
         21   -1    0    0  503  502  0.00000000000E+00  0.00000000000E+00  0.27854313379E+03  0.27854313379E+03  0.00000000000E+00 0. -1.
         21   -1    0    0  501  503 -0.00000000000E+00 -0.00000000000E+00 -0.55512012833E+03  0.55512012833E+03  0.00000000000E+00 0.  1.
          6    1    1    2  501    0 -0.29892103086E+03 -0.75575516442E+02  0.45240153189E+02  0.35594397430E+03  0.17200000000E+03 0.  1.
         -6    1    1    2    0  502  0.29892103086E+03  0.75575516442E+02 -0.32181714773E+03  0.47771928782E+03  0.17200000000E+03 0. -1.
<mgrwt>
<rscale>  2 0.35305728E+03</rscale>
<asrwt>0</asrwt>
<pdfrwt beam="1">  1       21 0.69635784E-01 0.35305728E+03</pdfrwt>
<pdfrwt beam="2">  1       21 0.13878003E+00 0.35305728E+03</pdfrwt>
<totfact> 0.60342946E+02</totfact>
</mgrwt>
</event>
<event>
 4    1  0.2299148E-001  0.2083244E+03  0.7546771E-02  0.1142900E+00
         21   -1    0    0  503  502  0.00000000000E+00  0.00000000000E+00  0.99284360257E+02  0.99284360257E+02  0.00000000000E+00 0.  1.
         21   -1    0    0  501  503 -0.00000000000E+00 -0.00000000000E+00 -0.43712244892E+03  0.43712244892E+03  0.00000000000E+00 0.  1.
          6    1    1    2  501    0  0.96056284376E+02  0.67736600516E+02 -0.16814030919E+03  0.26771294402E+03  0.17200000000E+03 0.  1.
         -6    1    1    2    0  502 -0.96056284376E+02 -0.67736600516E+02 -0.16969777947E+03  0.26869386516E+03  0.17200000000E+03 0.  1.
<mgrwt>
<rscale>  2 0.20832440E+03</rscale>
<asrwt>0</asrwt>
<pdfrwt beam="1">  1       21 0.24821091E-01 0.20832440E+03</pdfrwt>
<pdfrwt beam="2">  1       21 0.10928061E+00 0.20832440E+03</pdfrwt>
<totfact> 0.10077455E+04</totfact>
</mgrwt>
</event>
<event>
 4    1  0.2299148E-001  0.2058963E+03  0.7546771E-02  0.1144858E+00
         21   -1    0    0  503  502  0.00000000000E+00  0.00000000000E+00  0.82428986782E+03  0.82428986782E+03  0.00000000000E+00 0.  1.
         21   -1    0    0  501  503 -0.00000000000E+00 -0.00000000000E+00 -0.62944385763E+02  0.62944385763E+02  0.00000000000E+00 0.  1.
          6    1    1    2  501    0 -0.10897573813E+03 -0.30554272845E+02  0.19093701528E+03  0.28080281141E+03  0.17200000000E+03 0.  1.
         -6    1    1    2    0  502  0.10897573813E+03  0.30554272845E+02  0.57040846677E+03  0.60643144217E+03  0.17200000000E+03 0.  1.
<mgrwt>
<rscale>  2 0.20589627E+03</rscale>
<asrwt>0</asrwt>
<pdfrwt beam="1">  1       21 0.20607243E+00 0.20589627E+03</pdfrwt>
<pdfrwt beam="2">  1       21 0.15736099E-01 0.20589627E+03</pdfrwt>
<totfact> 0.43605694E+03</totfact>
</mgrwt>
</event>
<event>
 4    1  0.2299148E-001  0.2118555E+03  0.7546771E-02  0.1140105E+00
         21   -1    0    0  503  502  0.00000000000E+00  0.00000000000E+00  0.19997649006E+03  0.19997649006E+03  0.00000000000E+00 0. -1.
         21   -1    0    0  501  503 -0.00000000000E+00 -0.00000000000E+00 -0.22594412374E+03  0.22594412374E+03  0.00000000000E+00 0. -1.
          6    1    1    2  501    0 -0.17241971837E+00  0.12368795760E+03  0.43912920959E+01  0.21190097695E+03  0.17200000000E+03 0. -1.
         -6    1    1    2    0  502  0.17241971837E+00 -0.12368795760E+03 -0.30358925770E+02  0.21401963685E+03  0.17200000000E+03 0. -1.
<mgrwt>
<rscale>  2 0.21185547E+03</rscale>
<asrwt>0</asrwt>
<pdfrwt beam="1">  1       21 0.49994123E-01 0.21185547E+03</pdfrwt>
<pdfrwt beam="2">  1       21 0.56486031E-01 0.21185547E+03</pdfrwt>
<totfact> 0.11092498E+04</totfact>
</mgrwt>
</event>
<event>
 4    1  0.2299148E-001  0.1777109E+03  0.7546771E-02  0.1170037E+00
         21   -1    0    0  503  502  0.00000000000E+00  0.00000000000E+00  0.27817418959E+02  0.27817418959E+02  0.00000000000E+00 0.  1.
         21   -1    0    0  501  503 -0.00000000000E+00 -0.00000000000E+00 -0.14414082533E+04  0.14414082533E+04  0.00000000000E+00 0.  1.
          6    1    1    2  501    0  0.31408198209E+02  0.31791589570E+02 -0.36826251113E+03  0.40889907946E+03  0.17200000000E+03 0.  1.
         -6    1    1    2    0  502 -0.31408198209E+02 -0.31791589570E+02 -0.10453283232E+04  0.10603265928E+04  0.17200000000E+03 0.  1.
<mgrwt>
<rscale>  2 0.17771095E+03</rscale>
<asrwt>0</asrwt>
<pdfrwt beam="1">  1       21 0.69543549E-02 0.17771095E+03</pdfrwt>
<pdfrwt beam="2">  1       21 0.36035205E+00 0.17771095E+03</pdfrwt>
<totfact> 0.23733488E+03</totfact>
</mgrwt>
</event>
<event>
 4    1  0.2299148E-001  0.2110654E+03  0.7546771E-02  0.1140725E+00
         21   -1    0    0  501  502  0.00000000000E+00  0.00000000000E+00  0.92648063192E+02  0.92648063192E+02  0.00000000000E+00 0. -1.
         21   -1    0    0  502  503 -0.00000000000E+00 -0.00000000000E+00 -0.48721723636E+03  0.48721723636E+03  0.00000000000E+00 0.  1.
          6    1    1    2  501    0 -0.14168159929E+02 -0.12150672567E+03 -0.23046276803E+03  0.31250873362E+03  0.17200000000E+03 0.  1.
         -6    1    1    2    0  503  0.14168159929E+02  0.12150672567E+03 -0.16410640513E+03  0.26735656593E+03  0.17200000000E+03 0.  1.
<mgrwt>
<rscale>  2 0.21106544E+03</rscale>
<asrwt>0</asrwt>
<pdfrwt beam="1">  1       21 0.23162016E-01 0.21106544E+03</pdfrwt>
<pdfrwt beam="2">  1       21 0.12180431E+00 0.21106544E+03</pdfrwt>
<totfact> 0.87938983E+03</totfact>
</mgrwt>
</event>
<event>
 4    1  0.2299148E-001  0.2156145E+03  0.7546771E-02  0.1137195E+00
         21   -1    0    0  501  502  0.00000000000E+00  0.00000000000E+00  0.40343448673E+03  0.40343448673E+03  0.00000000000E+00 0.  1.
         21   -1    0    0  502  503 -0.00000000000E+00 -0.00000000000E+00 -0.11719421257E+03  0.11719421257E+03  0.00000000000E+00 0. -1.
          6    1    1    2  501    0 -0.88359762670E+02  0.95384338600E+02  0.17678120856E+03  0.27882111722E+03  0.17200000000E+03 0. -1.
         -6    1    1    2    0  503  0.88359762670E+02 -0.95384338600E+02  0.10945906559E+03  0.24180758208E+03  0.17200000000E+03 0. -1.
<mgrwt>
<rscale>  2 0.21561452E+03</rscale>
<asrwt>0</asrwt>
<pdfrwt beam="1">  1       21 0.10085862E+00 0.21561452E+03</pdfrwt>
<pdfrwt beam="2">  1       21 0.29298554E-01 0.21561452E+03</pdfrwt>
<totfact> 0.88322666E+03</totfact>
</mgrwt>
</event>
<event>
 4    1  0.2299148E-001  0.2773860E+03  0.7546771E-02  0.1097125E+00
         21   -1    0    0  503  502  0.00000000000E+00  0.00000000000E+00  0.59832582921E+02  0.59832582921E+02  0.00000000000E+00 0.  1.
         21   -1    0    0  501  503 -0.00000000000E+00 -0.00000000000E+00 -0.14490500207E+04  0.14490500207E+04  0.00000000000E+00 0.  1.
          6    1    1    2  501    0  0.21041086934E+03  0.55554084715E+02 -0.94770297286E+03  0.98746337403E+03  0.17200000000E+03 0.  1.
         -6    1    1    2    0  502 -0.21041086934E+03 -0.55554084715E+02 -0.44151446493E+03  0.52141922961E+03  0.17200000000E+03 0.  1.
<mgrwt>
<rscale>  2 0.27738600E+03</rscale>
<asrwt>0</asrwt>
<pdfrwt beam="1">  1       21 0.14958145E-01 0.27738600E+03</pdfrwt>
<pdfrwt beam="2">  1       21 0.36226251E+00 0.27738600E+03</pdfrwt>
<totfact> 0.52277617E+02</totfact>
</mgrwt>
</event>
<event>
 4    1  0.2299148E-001  0.2336828E+03  0.7546771E-02  0.1124074E+00
         21   -1    0    0  501  502  0.00000000000E+00  0.00000000000E+00  0.11182620870E+04  0.11182620870E+04  0.00000000000E+00 0. -1.
         21   -1    0    0  502  503 -0.00000000000E+00 -0.00000000000E+00 -0.56274319069E+02  0.56274319069E+02  0.00000000000E+00 0.  1.
          6    1    1    2  501    0  0.12101240469E+03 -0.10188054009E+03  0.74455292552E+03  0.78036318816E+03  0.17200000000E+03 0. -1.
         -6    1    1    2    0  503 -0.12101240469E+03  0.10188054009E+03  0.31743484243E+03  0.39417321792E+03  0.17200000000E+03 0.  1.
<mgrwt>
<rscale>  2 0.23368279E+03</rscale>
<asrwt>0</asrwt>
<pdfrwt beam="1">  1       21 0.27956545E+00 0.23368279E+03</pdfrwt>
<pdfrwt beam="2">  1       21 0.14068583E-01 0.23368279E+03</pdfrwt>
<totfact> 0.18832582E+03</totfact>
</mgrwt>
</event>
<event>
 4    1  0.2299148E-001  0.1738763E+03  0.7546771E-02  0.1173865E+00
         21   -1    0    0  503  502  0.00000000000E+00  0.00000000000E+00  0.81325983911E+02  0.81325983911E+02  0.00000000000E+00 0.  1.
         21   -1    0    0  501  503 -0.00000000000E+00 -0.00000000000E+00 -0.37864021380E+03  0.37864021380E+03  0.00000000000E+00 0.  1.
          6    1    1    2  501    0 -0.15284054945E+02 -0.20380347247E+02 -0.17968046425E+03  0.25003605764E+03  0.17200000000E+03 0.  1.
         -6    1    1    2    0  502  0.15284054945E+02  0.20380347247E+02 -0.11763376564E+03  0.20993014007E+03  0.17200000000E+03 0.  1.
<mgrwt>
<rscale>  2 0.17387628E+03</rscale>
<asrwt>0</asrwt>
<pdfrwt beam="1">  1       21 0.20331496E-01 0.17387628E+03</pdfrwt>
<pdfrwt beam="2">  1       21 0.94660054E-01 0.17387628E+03</pdfrwt>
<totfact> 0.21153817E+04</totfact>
</mgrwt>
</event>
<event>
 4    1  0.2299148E-001  0.1885522E+03  0.7546771E-02  0.1159774E+00
         21   -1    0    0  503  502  0.00000000000E+00  0.00000000000E+00  0.39811639930E+03  0.39811639930E+03  0.00000000000E+00 0.  1.
         21   -1    0    0  501  503 -0.00000000000E+00 -0.00000000000E+00 -0.91306684023E+02  0.91306684023E+02  0.00000000000E+00 0.  1.
          6    1    1    2  501    0 -0.29271687904E+02 -0.71491903488E+02  0.11712985469E+03  0.22197145500E+03  0.17200000000E+03 0.  1.
         -6    1    1    2    0  502  0.29271687904E+02  0.71491903488E+02  0.18967986058E+03  0.26745162831E+03  0.17200000000E+03 0.  1.
<mgrwt>
<rscale>  2 0.18855218E+03</rscale>
<asrwt>0</asrwt>
<pdfrwt beam="1">  1       21 0.99529095E-01 0.18855218E+03</pdfrwt>
<pdfrwt beam="2">  1       21 0.22826672E-01 0.18855218E+03</pdfrwt>
<totfact> 0.14987184E+04</totfact>
</mgrwt>
</event>
<event>
 4    1  0.2299148E-001  0.2890796E+03  0.7546771E-02  0.1090831E+00
         21   -1    0    0  501  502  0.00000000000E+00  0.00000000000E+00  0.53703288727E+03  0.53703288727E+03  0.00000000000E+00 0. -1.
         21   -1    0    0  502  503 -0.00000000000E+00 -0.00000000000E+00 -0.17071877646E+03  0.17071877646E+03  0.00000000000E+00 0.  1.
          6    1    1    2  501    0  0.16989568631E+03  0.15848815522E+03  0.28843617589E+03  0.40836560474E+03  0.17200000000E+03 0. -1.
         -6    1    1    2    0  503 -0.16989568631E+03 -0.15848815522E+03  0.77877934916E+02  0.29938605899E+03  0.17200000000E+03 0. -1.
<mgrwt>
<rscale>  2 0.28907964E+03</rscale>
<asrwt>0</asrwt>
<pdfrwt beam="1">  1       21 0.13425822E+00 0.28907964E+03</pdfrwt>
<pdfrwt beam="2">  1       21 0.42679695E-01 0.28907964E+03</pdfrwt>
<totfact> 0.19520920E+03</totfact>
</mgrwt>
</event>
<event>
 4    1  0.2299148E-001  0.2578788E+03  0.7546771E-02  0.1108424E+00
         21   -1    0    0  501  502  0.00000000000E+00  0.00000000000E+00  0.15623546420E+04  0.15623546420E+04  0.00000000000E+00 0.  1.
         21   -1    0    0  502  503 -0.00000000000E+00 -0.00000000000E+00 -0.72518055138E+02  0.72518055138E+02  0.00000000000E+00 0. -1.
          6    1    1    2  501    0 -0.70792727323E+02 -0.17862219040E+03  0.12702722762E+04  0.12961840737E+04  0.17200000000E+03 0.  1.
         -6    1    1    2    0  503  0.70792727323E+02  0.17862219040E+03  0.21956431063E+03  0.33868862344E+03  0.17200000000E+03 0. -1.
<mgrwt>
<rscale>  2 0.25787884E+03</rscale>
<asrwt>0</asrwt>
<pdfrwt beam="1">  1       21 0.39058855E+00 0.25787884E+03</pdfrwt>
<pdfrwt beam="2">  1       21 0.18129519E-01 0.25787884E+03</pdfrwt>
<totfact> 0.25102462E+02</totfact>
</mgrwt>
</event>
<event>
 4    1  0.2299148E-001  0.2190115E+03  0.7546771E-02  0.1134622E+00
         21   -1    0    0  503  502  0.00000000000E+00  0.00000000000E+00  0.21017726381E+03  0.21017726381E+03  0.00000000000E+00 0.  1.
         21   -1    0    0  501  503 -0.00000000000E+00 -0.00000000000E+00 -0.23459681272E+03  0.23459681272E+03  0.00000000000E+00 0.  1.
          6    1    1    2  501    0  0.79180759277E+02  0.11005663626E+03 -0.48882849604E+02  0.22440050982E+03  0.17200000000E+03 0.  1.
         -6    1    1    2    0  502 -0.79180759277E+02 -0.11005663626E+03  0.24463300693E+02  0.22037356671E+03  0.17200000000E+03 0.  1.
<mgrwt>
<rscale>  2 0.21901154E+03</rscale>
<asrwt>0</asrwt>
<pdfrwt beam="1">  1       21 0.52544316E-01 0.21901154E+03</pdfrwt>
<pdfrwt beam="2">  1       21 0.58649203E-01 0.21901154E+03</pdfrwt>
<totfact> 0.91789357E+03</totfact>
</mgrwt>
</event>
<event>
 4    1  0.2299148E-001  0.1953211E+03  0.7546771E-02  0.1153748E+00
         21   -1    0    0  503  502  0.00000000000E+00  0.00000000000E+00  0.23505995094E+03  0.23505995094E+03  0.00000000000E+00 0.  1.
         21   -1    0    0  501  503 -0.00000000000E+00 -0.00000000000E+00 -0.24593013119E+03  0.24593013119E+03  0.00000000000E+00 0.  1.
          6    1    1    2  501    0 -0.18273419579E+02  0.90732747058E+02 -0.14567781042E+03  0.24366446951E+03  0.17200000000E+03 0.  1.
         -6    1    1    2    0  502  0.18273419579E+02 -0.90732747058E+02  0.13480763017E+03  0.23732561261E+03  0.17200000000E+03 0.  1.
<mgrwt>
<rscale>  2 0.19532114E+03</rscale>
<asrwt>0</asrwt>
<pdfrwt beam="1">  1       21 0.58764988E-01 0.19532114E+03</pdfrwt>
<pdfrwt beam="2">  1       21 0.61482533E-01 0.19532114E+03</pdfrwt>
<totfact> 0.66482657E+03</totfact>
</mgrwt>
</event>
<event>
 4    1  0.2299148E-001  0.2031708E+03  0.7546771E-02  0.1147091E+00
         21   -1    0    0  501  502  0.00000000000E+00  0.00000000000E+00  0.72834265335E+02  0.72834265335E+02  0.00000000000E+00 0. -1.
         21   -1    0    0  502  503 -0.00000000000E+00 -0.00000000000E+00 -0.58113455264E+03  0.58113455264E+03  0.00000000000E+00 0. -1.
          6    1    1    2  501    0  0.69191772409E+02  0.83107513509E+02 -0.20269460417E+03  0.28699035302E+03  0.17200000000E+03 0. -1.
         -6    1    1    2    0  503 -0.69191772409E+02 -0.83107513509E+02 -0.30560568313E+03  0.36697846495E+03  0.17200000000E+03 0. -1.
<mgrwt>
<rscale>  2 0.20317077E+03</rscale>
<asrwt>0</asrwt>
<pdfrwt beam="1">  1       21 0.18208567E-01 0.20317077E+03</pdfrwt>
<pdfrwt beam="2">  1       21 0.14528363E+00 0.20317077E+03</pdfrwt>
<totfact> 0.88609593E+03</totfact>
</mgrwt>
</event>
<event>
 4    1  0.2299148E-001  0.1824269E+03  0.7546771E-02  0.1165475E+00
         21   -1    0    0  501  502  0.00000000000E+00  0.00000000000E+00  0.30940941568E+02  0.30940941568E+02  0.00000000000E+00 0. -1.
         21   -1    0    0  502  503 -0.00000000000E+00 -0.00000000000E+00 -0.12002930548E+04  0.12002930548E+04  0.00000000000E+00 0.  1.
          6    1    1    2  501    0  0.60313200271E+02  0.76086833616E+01 -0.38624192609E+03  0.42715617712E+03  0.17200000000E+03 0. -1.
         -6    1    1    2    0  503 -0.60313200271E+02 -0.76086833616E+01 -0.78311018718E+03  0.80407781928E+03  0.17200000000E+03 0.  1.
<mgrwt>
<rscale>  2 0.18242690E+03</rscale>
<asrwt>0</asrwt>
<pdfrwt beam="1">  1       21 0.77352351E-02 0.18242690E+03</pdfrwt>
<pdfrwt beam="2">  1       21 0.30007328E+00 0.18242690E+03</pdfrwt>
<totfact> 0.43930138E+03</totfact>
</mgrwt>
</event>
<event>
 4    1  0.2299148E-001  0.2563891E+03  0.7546771E-02  0.1109332E+00
         21   -1    0    0  501  502  0.00000000000E+00  0.00000000000E+00  0.22576848408E+03  0.22576848408E+03  0.00000000000E+00 0.  1.
         21   -1    0    0  502  503 -0.00000000000E+00 -0.00000000000E+00 -0.42718404847E+03  0.42718404847E+03  0.00000000000E+00 0. -1.
          6    1    1    2  501    0  0.18688039432E+03  0.35029813020E+02  0.83516800533E+02  0.26964870768E+03  0.17200000000E+03 0.  1.
         -6    1    1    2    0  503 -0.18688039432E+03 -0.35029813020E+02 -0.28493236492E+03  0.38330382487E+03  0.17200000000E+03 0. -1.
<mgrwt>
<rscale>  2 0.25638910E+03</rscale>
<asrwt>0</asrwt>
<pdfrwt beam="1">  1       21 0.56442121E-01 0.25638910E+03</pdfrwt>
<pdfrwt beam="2">  1       21 0.10679601E+00 0.25638910E+03</pdfrwt>
<totfact> 0.19668522E+03</totfact>
</mgrwt>
</event>
<event>
 4    1  0.2299148E-001  0.2002851E+03  0.7546771E-02  0.1149499E+00
         21   -1    0    0  503  502  0.00000000000E+00  0.00000000000E+00  0.63537171866E+02  0.63537171866E+02  0.00000000000E+00 0. -1.
         21   -1    0    0  501  503 -0.00000000000E+00 -0.00000000000E+00 -0.66102277256E+03  0.66102277256E+03  0.00000000000E+00 0. -1.
          6    1    1    2  501    0 -0.11948757908E+02 -0.10191840318E+03 -0.37550051908E+03  0.42557581410E+03  0.17200000000E+03 0. -1.
         -6    1    1    2    0  502  0.11948757908E+02  0.10191840318E+03 -0.22198508161E+03  0.29898413032E+03  0.17200000000E+03 0. -1.
<mgrwt>
<rscale>  2 0.20028513E+03</rscale>
<asrwt>0</asrwt>
<pdfrwt beam="1">  1       21 0.15884293E-01 0.20028513E+03</pdfrwt>
<pdfrwt beam="2">  1       21 0.16525569E+00 0.20028513E+03</pdfrwt>
<totfact> 0.80973942E+03</totfact>
</mgrwt>
</event>
<event>
 4    1  0.2299148E-001  0.2548311E+03  0.7546771E-02  0.1110289E+00
         21   -1    0    0  503  502  0.00000000000E+00  0.00000000000E+00  0.76278461399E+02  0.76278461399E+02  0.00000000000E+00 0. -1.
         21   -1    0    0  501  503 -0.00000000000E+00 -0.00000000000E+00 -0.11029435498E+04  0.11029435498E+04  0.00000000000E+00 0.  1.
          6    1    1    2  501    0 -0.18236907456E+03 -0.45786473632E+02 -0.79494223874E+03  0.83478862202E+03  0.17200000000E+03 0.  1.
         -6    1    1    2    0  502  0.18236907456E+03  0.45786473632E+02 -0.23172284965E+03  0.34443338916E+03  0.17200000000E+03 0. -1.
<mgrwt>
<rscale>  2 0.25483108E+03</rscale>
<asrwt>0</asrwt>
<pdfrwt beam="1">  1       21 0.19069615E-01 0.25483108E+03</pdfrwt>
<pdfrwt beam="2">  1       21 0.27573589E+00 0.25483108E+03</pdfrwt>
<totfact> 0.11083186E+03</totfact>
</mgrwt>
</event>
<event>
 4    1  0.2299148E-001  0.2146795E+03  0.7546771E-02  0.1137913E+00
         21   -1    0    0  501  502  0.00000000000E+00  0.00000000000E+00  0.58705436747E+03  0.58705436747E+03  0.00000000000E+00 0.  1.
         21   -1    0    0  502  503 -0.00000000000E+00 -0.00000000000E+00 -0.98740474320E+02  0.98740474320E+02  0.00000000000E+00 0.  1.
          6    1    1    2  501    0  0.36012125010E+02  0.12331431069E+03  0.39938225697E+03  0.45342417178E+03  0.17200000000E+03 0.  1.
         -6    1    1    2    0  503 -0.36012125010E+02 -0.12331431069E+03  0.88931636180E+02  0.23237067001E+03  0.17200000000E+03 0.  1.
<mgrwt>
<rscale>  2 0.21467951E+03</rscale>
<asrwt>0</asrwt>
<pdfrwt beam="1">  1       21 0.14676358E+00 0.21467951E+03</pdfrwt>
<pdfrwt beam="2">  1       21 0.24685120E-01 0.21467951E+03</pdfrwt>
<totfact> 0.48235918E+03</totfact>
</mgrwt>
</event>
<event>
 4    1  0.2299148E-001  0.1872170E+03  0.7546771E-02  0.1160996E+00
         21   -1    0    0  501  502  0.00000000000E+00  0.00000000000E+00  0.12958884134E+03  0.12958884134E+03  0.00000000000E+00 0.  1.
         21   -1    0    0  502  503 -0.00000000000E+00 -0.00000000000E+00 -0.27047314234E+03  0.27047314234E+03  0.00000000000E+00 0.  1.
          6    1    1    2  501    0  0.15940009382E+02  0.72194988676E+02 -0.70781436879E+02  0.20015047363E+03  0.17200000000E+03 0.  1.
         -6    1    1    2    0  503 -0.15940009382E+02 -0.72194988676E+02 -0.70102864121E+02  0.19991151004E+03  0.17200000000E+03 0.  1.
<mgrwt>
<rscale>  2 0.18721699E+03</rscale>
<asrwt>0</asrwt>
<pdfrwt beam="1">  1       21 0.32397211E-01 0.18721699E+03</pdfrwt>
<pdfrwt beam="2">  1       21 0.67618285E-01 0.18721699E+03</pdfrwt>
<totfact> 0.18389748E+04</totfact>
</mgrwt>
</event>
<event>
 4    1  0.2299148E-001  0.2352715E+03  0.7546771E-02  0.1122984E+00
         21   -1    0    0  503  502  0.00000000000E+00  0.00000000000E+00  0.14504266434E+03  0.14504266434E+03  0.00000000000E+00 0.  1.
         21   -1    0    0  501  503 -0.00000000000E+00 -0.00000000000E+00 -0.38168534561E+03  0.38168534561E+03  0.00000000000E+00 0. -1.
          6    1    1    2  501    0  0.15746353048E+03 -0.31207503106E+02 -0.12148484885E+03  0.26478527184E+03  0.17200000000E+03 0. -1.
         -6    1    1    2    0  502 -0.15746353048E+03  0.31207503106E+02 -0.11515783243E+03  0.26194273812E+03  0.17200000000E+03 0. -1.
<mgrwt>
<rscale>  2 0.23527149E+03</rscale>
<asrwt>0</asrwt>
<pdfrwt beam="1">  1       21 0.36260666E-01 0.23527149E+03</pdfrwt>
<pdfrwt beam="2">  1       21 0.95421336E-01 0.23527149E+03</pdfrwt>
<totfact> 0.65249547E+03</totfact>
</mgrwt>
</event>
<event>
 4    1  0.2299148E-001  0.2574974E+03  0.7546771E-02  0.1108656E+00
         21   -1    0    0  503  502  0.00000000000E+00  0.00000000000E+00  0.40276271156E+03  0.40276271156E+03  0.00000000000E+00 0. -1.
         21   -1    0    0  501  503 -0.00000000000E+00 -0.00000000000E+00 -0.24549543326E+03  0.24549543326E+03  0.00000000000E+00 0. -1.
          6    1    1    2  501    0 -0.85636554100E+02 -0.17142725092E+03 -0.10739954804E+03  0.27899746356E+03  0.17200000000E+03 0. -1.
         -6    1    1    2    0  502  0.85636554100E+02  0.17142725092E+03  0.26466682634E+03  0.36926068126E+03  0.17200000000E+03 0. -1.
<mgrwt>
<rscale>  2 0.25749742E+03</rscale>
<asrwt>0</asrwt>
<pdfrwt beam="1">  1       21 0.10069068E+00 0.25749742E+03</pdfrwt>
<pdfrwt beam="2">  1       21 0.61373859E-01 0.25749742E+03</pdfrwt>
<totfact> 0.18913787E+03</totfact>
</mgrwt>
</event>
<event>
 4    1  0.2299148E-001  0.2436454E+03  0.7546771E-02  0.1117388E+00
         21   -1    0    0  503  502  0.00000000000E+00  0.00000000000E+00  0.80747698529E+03  0.80747698529E+03  0.00000000000E+00 0.  1.
         21   -1    0    0  501  503 -0.00000000000E+00 -0.00000000000E+00 -0.86744265695E+02  0.86744265695E+02  0.00000000000E+00 0.  1.
          6    1    1    2  501    0 -0.94070639381E+02 -0.14467138839E+03  0.18577067769E+03  0.30638838180E+03  0.17200000000E+03 0.  1.
         -6    1    1    2    0  502  0.94070639381E+02  0.14467138839E+03  0.53496204190E+03  0.58783286918E+03  0.17200000000E+03 0.  1.
<mgrwt>
<rscale>  2 0.24364543E+03</rscale>
<asrwt>0</asrwt>
<pdfrwt beam="1">  1       21 0.20186922E+00 0.24364543E+03</pdfrwt>
<pdfrwt beam="2">  1       21 0.21686069E-01 0.24364543E+03</pdfrwt>
<totfact> 0.24718193E+03</totfact>
</mgrwt>
</event>
<event>
 4    1  0.2299148E-001  0.1747838E+03  0.7546771E-02  0.1172949E+00
         21   -1    0    0  501  502  0.00000000000E+00  0.00000000000E+00  0.81744262702E+03  0.81744262702E+03  0.00000000000E+00 0. -1.
         21   -1    0    0  502  503 -0.00000000000E+00 -0.00000000000E+00 -0.38065656523E+02  0.38065656523E+02  0.00000000000E+00 0. -1.
          6    1    1    2  501    0 -0.17463215235E+02  0.25698661606E+02  0.33194131271E+03  0.37514586520E+03  0.17200000000E+03 0. -1.
         -6    1    1    2    0  503  0.17463215235E+02 -0.25698661606E+02  0.44743565779E+03  0.48036241835E+03  0.17200000000E+03 0. -1.
<mgrwt>
<rscale>  2 0.17478382E+03</rscale>
<asrwt>0</asrwt>
<pdfrwt beam="1">  1       21 0.20436060E+00 0.17478382E+03</pdfrwt>
<pdfrwt beam="2">  1       21 0.95164168E-02 0.17478382E+03</pdfrwt>
<totfact> 0.11325980E+04</totfact>
</mgrwt>
</event>
<event>
 4    1  0.2299148E-001  0.2576967E+03  0.7546771E-02  0.1108535E+00
         21   -1    0    0  501  502  0.00000000000E+00  0.00000000000E+00  0.50450894565E+03  0.50450894565E+03  0.00000000000E+00 0. -1.
         21   -1    0    0  502  503 -0.00000000000E+00 -0.00000000000E+00 -0.15314573203E+03  0.15314573203E+03  0.00000000000E+00 0.  1.
          6    1    1    2  501    0  0.19153050268E+03 -0.11818071546E+02  0.52424553652E+02  0.26297515871E+03  0.17200000000E+03 0.  1.
         -6    1    1    2    0  503 -0.19153050268E+03  0.11818071546E+02  0.29893865997E+03  0.39467951897E+03  0.17200000000E+03 0. -1.
<mgrwt>
<rscale>  2 0.25769672E+03</rscale>
<asrwt>0</asrwt>
<pdfrwt beam="1">  1       21 0.12612723E+00 0.25769672E+03</pdfrwt>
<pdfrwt beam="2">  1       21 0.38286434E-01 0.25769672E+03</pdfrwt>
<totfact> 0.29171123E+03</totfact>
</mgrwt>
</event>
<event>
 4    1  0.2299148E-001  0.1901988E+03  0.7546771E-02  0.1158282E+00
         21   -1    0    0  501  502  0.00000000000E+00  0.00000000000E+00  0.50121719221E+03  0.50121719221E+03  0.00000000000E+00 0.  1.
         21   -1    0    0  502  503 -0.00000000000E+00 -0.00000000000E+00 -0.12566616377E+03  0.12566616377E+03  0.00000000000E+00 0. -1.
          6    1    1    2  501    0 -0.65674192370E+02 -0.47733389158E+02  0.39227243112E+03  0.43595095619E+03  0.17200000000E+03 0.  1.
         -6    1    1    2    0  503  0.65674192370E+02  0.47733389158E+02 -0.16721402684E+02  0.19093239980E+03  0.17200000000E+03 0. -1.
<mgrwt>
<rscale>  2 0.19019878E+03</rscale>
<asrwt>0</asrwt>
<pdfrwt beam="1">  1       21 0.12530429E+00 0.19019878E+03</pdfrwt>
<pdfrwt beam="2">  1       21 0.31416542E-01 0.19019878E+03</pdfrwt>
<totfact> 0.46263164E+03</totfact>
</mgrwt>
</event>
<event>
 4    1  0.2299148E-001  0.2492169E+03  0.7546771E-02  0.1113801E+00
         21   -1    0    0  501  502  0.00000000000E+00  0.00000000000E+00  0.27734259286E+03  0.27734259286E+03  0.00000000000E+00 0.  1.
         21   -1    0    0  502  503 -0.00000000000E+00 -0.00000000000E+00 -0.24074547050E+03  0.24074547050E+03  0.00000000000E+00 0.  1.
          6    1    1    2  501    0 -0.45524684326E+02 -0.17450659948E+03  0.86733141202E+02  0.26387816872E+03  0.17200000000E+03 0.  1.
         -6    1    1    2    0  503  0.45524684326E+02  0.17450659948E+03 -0.50136018842E+02  0.25420989464E+03  0.17200000000E+03 0.  1.
<mgrwt>
<rscale>  2 0.24921687E+03</rscale>
<asrwt>0</asrwt>
<pdfrwt beam="1">  1       21 0.69335648E-01 0.24921687E+03</pdfrwt>
<pdfrwt beam="2">  1       21 0.60186368E-01 0.24921687E+03</pdfrwt>
<totfact> 0.46786255E+03</totfact>
</mgrwt>
</event>
<event>
 4    1  0.2299148E-001  0.1863252E+03  0.7546771E-02  0.1161818E+00
         21   -1    0    0  503  502  0.00000000000E+00  0.00000000000E+00  0.78159912855E+02  0.78159912855E+02  0.00000000000E+00 0. -1.
         21   -1    0    0  501  503 -0.00000000000E+00 -0.00000000000E+00 -0.45235314763E+03  0.45235314763E+03  0.00000000000E+00 0. -1.
          6    1    1    2  501    0 -0.12621913306E+02  0.70524994500E+02 -0.22275125405E+03  0.29040524913E+03  0.17200000000E+03 0. -1.
         -6    1    1    2    0  502  0.12621913306E+02 -0.70524994500E+02 -0.15144198072E+03  0.24010781135E+03  0.17200000000E+03 0. -1.
<mgrwt>
<rscale>  2 0.18632522E+03</rscale>
<asrwt>0</asrwt>
<pdfrwt beam="1">  1       21 0.19539979E-01 0.18632522E+03</pdfrwt>
<pdfrwt beam="2">  1       21 0.11308829E+00 0.18632522E+03</pdfrwt>
<totfact> 0.14784001E+04</totfact>
</mgrwt>
</event>
<event>
 4    1  0.2299148E-001  0.2775400E+03  0.7546771E-02  0.1097040E+00
         21   -1    0    0  501  502  0.00000000000E+00  0.00000000000E+00  0.30276051552E+03  0.30276051552E+03  0.00000000000E+00 0.  1.
         21   -1    0    0  502  503 -0.00000000000E+00 -0.00000000000E+00 -0.27228460635E+03  0.27228460635E+03  0.00000000000E+00 0. -1.
          6    1    1    2  501    0 -0.21631699859E+03  0.25522737709E+02  0.88884460000E+02  0.29142563588E+03  0.17200000000E+03 0.  1.
         -6    1    1    2    0  503  0.21631699859E+03 -0.25522737709E+02 -0.58408550823E+02  0.28361948599E+03  0.17200000000E+03 0. -1.
<mgrwt>
<rscale>  2 0.27754000E+03</rscale>
<asrwt>0</asrwt>
<pdfrwt beam="1">  1       21 0.75690129E-01 0.27754000E+03</pdfrwt>
<pdfrwt beam="2">  1       21 0.68071152E-01 0.27754000E+03</pdfrwt>
<totfact> 0.28865024E+03</totfact>
</mgrwt>
</event>
<event>
 4    1  0.2299148E-001  0.2115247E+03  0.7546771E-02  0.1140364E+00
         21   -1    0    0  501  502  0.00000000000E+00  0.00000000000E+00  0.38762756115E+03  0.38762756115E+03  0.00000000000E+00 0. -1.
         21   -1    0    0  502  503 -0.00000000000E+00 -0.00000000000E+00 -0.14504381078E+03  0.14504381078E+03  0.00000000000E+00 0. -1.
          6    1    1    2  501    0  0.12298524068E+03  0.57728181331E+01  0.24164261032E+03  0.32114458734E+03  0.17200000000E+03 0. -1.
         -6    1    1    2    0  503 -0.12298524068E+03 -0.57728181331E+01  0.94114004252E+00  0.21152678459E+03  0.17200000000E+03 0. -1.
<mgrwt>
<rscale>  2 0.21152469E+03</rscale>
<asrwt>0</asrwt>
<pdfrwt beam="1">  1       21 0.96906888E-01 0.21152469E+03</pdfrwt>
<pdfrwt beam="2">  1       21 0.36260954E-01 0.21152469E+03</pdfrwt>
<totfact> 0.63940293E+03</totfact>
</mgrwt>
</event>
<event>
 4    1  0.2299148E-001  0.2310225E+03  0.7546771E-02  0.1125922E+00
         21   -1    0    0  501  502  0.00000000000E+00  0.00000000000E+00  0.14234870049E+03  0.14234870049E+03  0.00000000000E+00 0.  1.
         21   -1    0    0  502  503 -0.00000000000E+00 -0.00000000000E+00 -0.38765546440E+03  0.38765546440E+03  0.00000000000E+00 0.  1.
          6    1    1    2  501    0 -0.14538625655E+03 -0.51480333458E+02 -0.74647726058E+02  0.24278317762E+03  0.17200000000E+03 0.  1.
         -6    1    1    2    0  503  0.14538625655E+03  0.51480333458E+02 -0.17065903785E+03  0.28722098727E+03  0.17200000000E+03 0.  1.
<mgrwt>
<rscale>  2 0.23102248E+03</rscale>
<asrwt>0</asrwt>
<pdfrwt beam="1">  1       21 0.35587175E-01 0.23102248E+03</pdfrwt>
<pdfrwt beam="2">  1       21 0.96913866E-01 0.23102248E+03</pdfrwt>
<totfact> 0.65485662E+03</totfact>
</mgrwt>
</event>
<event>
 4    1  0.2299148E-001  0.1954501E+03  0.7546771E-02  0.1153636E+00
         21   -1    0    0  503  502  0.00000000000E+00  0.00000000000E+00  0.55771135969E+02  0.55771135969E+02  0.00000000000E+00 0.  1.
         21   -1    0    0  501  503 -0.00000000000E+00 -0.00000000000E+00 -0.10991728248E+04  0.10991728248E+04  0.00000000000E+00 0.  1.
          6    1    1    2  501    0 -0.91095283345E+02  0.17843581435E+02 -0.87619744622E+03  0.89773198050E+03  0.17200000000E+03 0.  1.
         -6    1    1    2    0  502  0.91095283345E+02 -0.17843581435E+02 -0.16720424260E+03  0.25721198026E+03  0.17200000000E+03 0.  1.
<mgrwt>
<rscale>  2 0.19545011E+03</rscale>
<asrwt>0</asrwt>
<pdfrwt beam="1">  1       21 0.13942784E-01 0.19545011E+03</pdfrwt>
<pdfrwt beam="2">  1       21 0.27479320E+00 0.19545011E+03</pdfrwt>
<totfact> 0.21291232E+03</totfact>
</mgrwt>
</event>
<event>
 4    1  0.2299148E-001  0.2262300E+03  0.7546771E-02  0.1129322E+00
         21   -1    0    0  501  502  0.00000000000E+00  0.00000000000E+00  0.10793349835E+04  0.10793349835E+04  0.00000000000E+00 0.  1.
         21   -1    0    0  502  503 -0.00000000000E+00 -0.00000000000E+00 -0.47603239808E+02  0.47603239808E+02  0.00000000000E+00 0.  1.
          6    1    1    2  501    0  0.94644850576E+02  0.11242051190E+03  0.55100542781E+03  0.59563999254E+03  0.17200000000E+03 0.  1.
         -6    1    1    2    0  503 -0.94644850576E+02 -0.11242051190E+03  0.48072631587E+03  0.53129823076E+03  0.17200000000E+03 0.  1.
<mgrwt>
<rscale>  2 0.22623001E+03</rscale>
<asrwt>0</asrwt>
<pdfrwt beam="1">  1       21 0.26983367E+00 0.22623001E+03</pdfrwt>
<pdfrwt beam="2">  1       21 0.11900813E-01 0.22623001E+03</pdfrwt>
<totfact> 0.29266234E+03</totfact>
</mgrwt>
</event>
<event>
 4    1  0.2299148E-001  0.2207281E+03  0.7546771E-02  0.1133341E+00
         21   -1    0    0  503  502  0.00000000000E+00  0.00000000000E+00  0.17851990888E+03  0.17851990888E+03  0.00000000000E+00 0. -1.
         21   -1    0    0  501  503 -0.00000000000E+00 -0.00000000000E+00 -0.27342788591E+03  0.27342788591E+03  0.00000000000E+00 0. -1.
          6    1    1    2  501    0  0.59205323553E+02 -0.12502653147E+03 -0.37674685453E+02  0.22392026669E+03  0.17200000000E+03 0. -1.
         -6    1    1    2    0  502 -0.59205323553E+02  0.12502653147E+03 -0.57233291573E+02  0.22802752810E+03  0.17200000000E+03 0. -1.
<mgrwt>
<rscale>  2 0.22072812E+03</rscale>
<asrwt>0</asrwt>
<pdfrwt beam="1">  1       21 0.44629978E-01 0.22072812E+03</pdfrwt>
<pdfrwt beam="2">  1       21 0.68356971E-01 0.22072812E+03</pdfrwt>
<totfact> 0.92324427E+03</totfact>
</mgrwt>
</event>
<event>
 4    1  0.2299148E-001  0.2577739E+03  0.7546771E-02  0.1108488E+00
         21   -1    0    0  501  502  0.00000000000E+00  0.00000000000E+00  0.12346324040E+03  0.12346324040E+03  0.00000000000E+00 0.  1.
         21   -1    0    0  502  503 -0.00000000000E+00 -0.00000000000E+00 -0.81577735396E+03  0.81577735396E+03  0.00000000000E+00 0.  1.
          6    1    1    2  501    0 -0.11905673781E+03  0.15062833040E+03 -0.72216510838E+02  0.26769875826E+03  0.17200000000E+03 0.  1.
         -6    1    1    2    0  503  0.11905673781E+03 -0.15062833040E+03 -0.62009760272E+03  0.67154183610E+03  0.17200000000E+03 0.  1.
<mgrwt>
<rscale>  2 0.25777393E+03</rscale>
<asrwt>0</asrwt>
<pdfrwt beam="1">  1       21 0.30865811E-01 0.25777393E+03</pdfrwt>
<pdfrwt beam="2">  1       21 0.20394434E+00 0.25777393E+03</pdfrwt>
<totfact> 0.11990362E+03</totfact>
</mgrwt>
</event>
<event>
 4    1  0.2299148E-001  0.1878404E+03  0.7546771E-02  0.1160424E+00
         21   -1    0    0  501  502  0.00000000000E+00  0.00000000000E+00  0.19309038843E+03  0.19309038843E+03  0.00000000000E+00 0. -1.
         21   -1    0    0  502  503 -0.00000000000E+00 -0.00000000000E+00 -0.19175512706E+03  0.19175512706E+03  0.00000000000E+00 0. -1.
          6    1    1    2  501    0 -0.67907767537E+02  0.32993050590E+02  0.42405942325E+02  0.19256757314E+03  0.17200000000E+03 0. -1.
         -6    1    1    2    0  503  0.67907767537E+02 -0.32993050590E+02 -0.41070680957E+02  0.19227794235E+03  0.17200000000E+03 0. -1.
<mgrwt>
<rscale>  2 0.18784037E+03</rscale>
<asrwt>0</asrwt>
<pdfrwt beam="1">  1       21 0.48272597E-01 0.18784037E+03</pdfrwt>
<pdfrwt beam="2">  1       21 0.47938782E-01 0.18784037E+03</pdfrwt>
<totfact> 0.17099745E+04</totfact>
</mgrwt>
</event>
<event>
 4    1  0.2299148E-001  0.1761621E+03  0.7546771E-02  0.1171570E+00
         21   -1    0    0  503  502  0.00000000000E+00  0.00000000000E+00  0.44961515535E+02  0.44961515535E+02  0.00000000000E+00 0.  1.
         21   -1    0    0  501  503 -0.00000000000E+00 -0.00000000000E+00 -0.79827872123E+03  0.79827872123E+03  0.00000000000E+00 0.  1.
          6    1    1    2  501    0 -0.32956753329E+02  0.19051212807E+02 -0.53178465147E+03  0.56020354501E+03  0.17200000000E+03 0.  1.
         -6    1    1    2    0  502  0.32956753329E+02 -0.19051212807E+02 -0.22153255422E+03  0.28303669175E+03  0.17200000000E+03 0.  1.
<mgrwt>
<rscale>  2 0.17616213E+03</rscale>
<asrwt>0</asrwt>
<pdfrwt beam="1">  1       21 0.11240379E-01 0.17616213E+03</pdfrwt>
<pdfrwt beam="2">  1       21 0.19956968E+00 0.17616213E+03</pdfrwt>
<totfact> 0.90413598E+03</totfact>
</mgrwt>
</event>
<event>
 4    1  0.2299148E-001  0.1904092E+03  0.7546771E-02  0.1158093E+00
         21   -1    0    0  501  502  0.00000000000E+00  0.00000000000E+00  0.22853109191E+03  0.22853109191E+03  0.00000000000E+00 0. -1.
         21   -1    0    0  502  503 -0.00000000000E+00 -0.00000000000E+00 -0.19169089184E+03  0.19169089184E+03  0.00000000000E+00 0.  1.
          6    1    1    2  501    0  0.52783682846E+02  0.62334021498E+02  0.10565639584E+03  0.21775886065E+03  0.17200000000E+03 0.  1.
         -6    1    1    2    0  503 -0.52783682846E+02 -0.62334021498E+02 -0.68816195775E+02  0.20246312309E+03  0.17200000000E+03 0.  1.
<mgrwt>
<rscale>  2 0.19040916E+03</rscale>
<asrwt>0</asrwt>
<pdfrwt beam="1">  1       21 0.57132773E-01 0.19040916E+03</pdfrwt>
<pdfrwt beam="2">  1       21 0.47922723E-01 0.19040916E+03</pdfrwt>
<totfact> 0.11992666E+04</totfact>
</mgrwt>
</event>
<event>
 4    1  0.2299148E-001  0.2465829E+03  0.7546771E-02  0.1115484E+00
         21   -1    0    0  501  502  0.00000000000E+00  0.00000000000E+00  0.10254143596E+04  0.10254143596E+04  0.00000000000E+00 0. -1.
         21   -1    0    0  502  503 -0.00000000000E+00 -0.00000000000E+00 -0.70419102877E+02  0.70419102877E+02  0.00000000000E+00 0.  1.
          6    1    1    2  501    0  0.96913707183E+02  0.14773918891E+03  0.69525815563E+03  0.73769033988E+03  0.17200000000E+03 0. -1.
         -6    1    1    2    0  503 -0.96913707183E+02 -0.14773918891E+03  0.25973710109E+03  0.35814312259E+03  0.17200000000E+03 0.  1.
<mgrwt>
<rscale>  2 0.24658292E+03</rscale>
<asrwt>0</asrwt>
<pdfrwt beam="1">  1       21 0.25635354E+00 0.24658292E+03</pdfrwt>
<pdfrwt beam="2">  1       21 0.17604779E-01 0.24658292E+03</pdfrwt>
<totfact> 0.16862865E+03</totfact>
</mgrwt>
</event>
<event>
 4    1  0.2299148E-001  0.2835115E+03  0.7546771E-02  0.1093786E+00
         21   -1    0    0  501  502  0.00000000000E+00  0.00000000000E+00  0.33264112250E+03  0.33264112250E+03  0.00000000000E+00 0. -1.
         21   -1    0    0  502  503 -0.00000000000E+00 -0.00000000000E+00 -0.32380447601E+03  0.32380447601E+03  0.00000000000E+00 0. -1.
          6    1    1    2  501    0 -0.13111368583E+03  0.18331387491E+03  0.16975695359E+03  0.33044848107E+03  0.17200000000E+03 0. -1.
         -6    1    1    2    0  503  0.13111368583E+03 -0.18331387491E+03 -0.16092030710E+03  0.32599711744E+03  0.17200000000E+03 0. -1.
<mgrwt>
<rscale>  2 0.28351151E+03</rscale>
<asrwt>0</asrwt>
<pdfrwt beam="1">  1       21 0.83160281E-01 0.28351151E+03</pdfrwt>
<pdfrwt beam="2">  1       21 0.80951119E-01 0.28351151E+03</pdfrwt>
<totfact> 0.15709655E+03</totfact>
</mgrwt>
</event>
<event>
 4    1  0.2299148E-001  0.2022262E+03  0.7546771E-02  0.1147874E+00
         21   -1    0    0  503  502  0.00000000000E+00  0.00000000000E+00  0.35883601309E+03  0.35883601309E+03  0.00000000000E+00 0. -1.
         21   -1    0    0  501  503 -0.00000000000E+00 -0.00000000000E+00 -0.11410206711E+03  0.11410206711E+03  0.00000000000E+00 0. -1.
          6    1    1    2  501    0 -0.10582382182E+03 -0.10618410362E+02  0.11422844859E+03  0.23225755180E+03  0.17200000000E+03 0. -1.
         -6    1    1    2    0  502  0.10582382182E+03  0.10618410362E+02  0.13050549739E+03  0.24068052840E+03  0.17200000000E+03 0. -1.
<mgrwt>
<rscale>  2 0.20222619E+03</rscale>
<asrwt>0</asrwt>
<pdfrwt beam="1">  1       21 0.89709001E-01 0.20222619E+03</pdfrwt>
<pdfrwt beam="2">  1       21 0.28525518E-01 0.20222619E+03</pdfrwt>
<totfact> 0.12360174E+04</totfact>
</mgrwt>
</event>
<event>
 4    1  0.2299148E-001  0.3311460E+03  0.7546771E-02  0.1070631E+00
         21   -1    0    0  501  502  0.00000000000E+00  0.00000000000E+00  0.10395786521E+04  0.10395786521E+04  0.00000000000E+00 0. -1.
         21   -1    0    0  502  503 -0.00000000000E+00 -0.00000000000E+00 -0.12721130175E+03  0.12721130175E+03  0.00000000000E+00 0.  1.
          6    1    1    2  501    0  0.25464418378E+03 -0.12340988592E+03  0.69729343634E+03  0.77192991692E+03  0.17200000000E+03 0. -1.
         -6    1    1    2    0  503 -0.25464418378E+03  0.12340988592E+03  0.21507391402E+03  0.39486003693E+03  0.17200000000E+03 0.  1.
<mgrwt>
<rscale>  2 0.33114598E+03</rscale>
<asrwt>0</asrwt>
<pdfrwt beam="1">  1       21 0.25989464E+00 0.33114598E+03</pdfrwt>
<pdfrwt beam="2">  1       21 0.31802829E-01 0.33114598E+03</pdfrwt>
<totfact> 0.48119274E+02</totfact>
</mgrwt>
</event>
<event>
 4    1  0.2299148E-001  0.3535375E+03  0.7546771E-02  0.1061172E+00
         21   -1    0    0  503  502  0.00000000000E+00  0.00000000000E+00  0.97547232889E+03  0.97547232889E+03  0.00000000000E+00 0. -1.
         21   -1    0    0  501  503 -0.00000000000E+00 -0.00000000000E+00 -0.18412023887E+03  0.18412023887E+03  0.00000000000E+00 0. -1.
          6    1    1    2  501    0 -0.15360181409E+03  0.26797625292E+03  0.75952382110E+02  0.36160413959E+03  0.17200000000E+03 0. -1.
         -6    1    1    2    0  502  0.15360181409E+03 -0.26797625292E+03  0.71539970791E+03  0.79798842817E+03  0.17200000000E+03 0. -1.
<mgrwt>
<rscale>  2 0.35353754E+03</rscale>
<asrwt>0</asrwt>
<pdfrwt beam="1">  1       21 0.24386807E+00 0.35353754E+03</pdfrwt>
<pdfrwt beam="2">  1       21 0.46030062E-01 0.35353754E+03</pdfrwt>
<totfact> 0.27869988E+02</totfact>
</mgrwt>
</event>
<event>
 4    1  0.2299148E-001  0.1812977E+03  0.7546771E-02  0.1166553E+00
         21   -1    0    0  503  502  0.00000000000E+00  0.00000000000E+00  0.45238833165E+02  0.45238833165E+02  0.00000000000E+00 0. -1.
         21   -1    0    0  501  503 -0.00000000000E+00 -0.00000000000E+00 -0.92282630642E+03  0.92282630642E+03  0.00000000000E+00 0. -1.
          6    1    1    2  501    0  0.39059995865E+02 -0.41942298246E+02 -0.66201456363E+03  0.68639064833E+03  0.17200000000E+03 0. -1.
         -6    1    1    2    0  502 -0.39059995865E+02  0.41942298246E+02 -0.21557290963E+03  0.28167449126E+03  0.17200000000E+03 0. -1.
<mgrwt>
<rscale>  2 0.18129765E+03</rscale>
<asrwt>0</asrwt>
<pdfrwt beam="1">  1       21 0.11309709E-01 0.18129765E+03</pdfrwt>
<pdfrwt beam="2">  1       21 0.23070657E+00 0.18129765E+03</pdfrwt>
<totfact> 0.57133367E+03</totfact>
</mgrwt>
</event>
<event>
 4    1  0.2299148E-001  0.1822686E+03  0.7546771E-02  0.1165625E+00
         21   -1    0    0  501  502  0.00000000000E+00  0.00000000000E+00  0.38185299063E+02  0.38185299063E+02  0.00000000000E+00 0.  1.
         21   -1    0    0  502  503 -0.00000000000E+00 -0.00000000000E+00 -0.88666430785E+03  0.88666430785E+03  0.00000000000E+00 0.  1.
          6    1    1    2  501    0 -0.48638856591E+02 -0.35666773096E+02 -0.48760229340E+03  0.52055533193E+03  0.17200000000E+03 0.  1.
         -6    1    1    2    0  503  0.48638856591E+02  0.35666773096E+02 -0.36087671539E+03  0.40429427498E+03  0.17200000000E+03 0.  1.
<mgrwt>
<rscale>  2 0.18226864E+03</rscale>
<asrwt>0</asrwt>
<pdfrwt beam="1">  1       21 0.95463247E-02 0.18226864E+03</pdfrwt>
<pdfrwt beam="2">  1       21 0.22166608E+00 0.18226864E+03</pdfrwt>
<totfact> 0.87370758E+03</totfact>
</mgrwt>
</event>
<event>
 4    1  0.2299148E-001  0.2174145E+03  0.7546771E-02  0.1135825E+00
         21   -1    0    0  501  502  0.00000000000E+00  0.00000000000E+00  0.17725624853E+03  0.17725624853E+03  0.00000000000E+00 0.  1.
         21   -1    0    0  502  503 -0.00000000000E+00 -0.00000000000E+00 -0.41245709745E+03  0.41245709745E+03  0.00000000000E+00 0. -1.
          6    1    1    2  501    0  0.12358558583E+03 -0.49108931575E+02  0.57698708160E+02  0.22494049237E+03  0.17200000000E+03 0.  1.
         -6    1    1    2    0  503 -0.12358558583E+03  0.49108931575E+02 -0.29289955708E+03  0.36477285360E+03  0.17200000000E+03 0. -1.
<mgrwt>
<rscale>  2 0.21741454E+03</rscale>
<asrwt>0</asrwt>
<pdfrwt beam="1">  1       21 0.44314062E-01 0.21741454E+03</pdfrwt>
<pdfrwt beam="2">  1       21 0.10311427E+00 0.21741454E+03</pdfrwt>
<totfact> 0.36576979E+03</totfact>
</mgrwt>
</event>
<event>
 4    1  0.2299148E-001  0.1844680E+03  0.7546771E-02  0.1163548E+00
         21   -1    0    0  501  502  0.00000000000E+00  0.00000000000E+00  0.62910439092E+03  0.62910439092E+03  0.00000000000E+00 0.  1.
         21   -1    0    0  502  503 -0.00000000000E+00 -0.00000000000E+00 -0.54137557677E+02  0.54137557677E+02  0.00000000000E+00 0.  1.
          6    1    1    2  501    0  0.59393525061E+02 -0.30279816390E+02  0.27739234230E+03  0.33312905858E+03  0.17200000000E+03 0.  1.
         -6    1    1    2    0  503 -0.59393525061E+02  0.30279816390E+02  0.29757449094E+03  0.35011289002E+03  0.17200000000E+03 0.  1.
<mgrwt>
<rscale>  2 0.18446804E+03</rscale>
<asrwt>0</asrwt>
<pdfrwt beam="1">  1       21 0.15727607E+00 0.18446804E+03</pdfrwt>
<pdfrwt beam="2">  1       21 0.13534391E-01 0.18446804E+03</pdfrwt>
<totfact> 0.12535856E+04</totfact>
</mgrwt>
</event>
<event>
 4    1  0.2299148E-001  0.2033627E+03  0.7546771E-02  0.1146932E+00
         21   -1    0    0  501  502  0.00000000000E+00  0.00000000000E+00  0.14540149559E+03  0.14540149559E+03  0.00000000000E+00 0.  1.
         21   -1    0    0  502  503 -0.00000000000E+00 -0.00000000000E+00 -0.51253826989E+03  0.51253826989E+03  0.00000000000E+00 0. -1.
          6    1    1    2  501    0 -0.95558039847E+02 -0.51391238024E+02  0.35896214939E+02  0.20650650491E+03  0.17200000000E+03 0.  1.
         -6    1    1    2    0  503  0.95558039847E+02  0.51391238024E+02 -0.40303298925E+03  0.45143326057E+03  0.17200000000E+03 0. -1.
<mgrwt>
<rscale>  2 0.20336273E+03</rscale>
<asrwt>0</asrwt>
<pdfrwt beam="1">  1       21 0.36350374E-01 0.20336273E+03</pdfrwt>
<pdfrwt beam="2">  1       21 0.12813457E+00 0.20336273E+03</pdfrwt>
<totfact> 0.32416000E+03</totfact>
</mgrwt>
</event>
<event>
 4    1  0.2299148E-001  0.2189498E+03  0.7546771E-02  0.1134668E+00
         21   -1    0    0  503  502  0.00000000000E+00  0.00000000000E+00  0.20005022564E+03  0.20005022564E+03  0.00000000000E+00 0. -1.
         21   -1    0    0  501  503 -0.00000000000E+00 -0.00000000000E+00 -0.23978724958E+03  0.23978724958E+03  0.00000000000E+00 0. -1.
          6    1    1    2  501    0  0.40704849654E+02  0.12922122858E+03 -0.14324728421E+02  0.21941788565E+03  0.17200000000E+03 0. -1.
         -6    1    1    2    0  502 -0.40704849654E+02 -0.12922122858E+03 -0.25412295518E+02  0.22041958957E+03  0.17200000000E+03 0. -1.
<mgrwt>
<rscale>  2 0.21894979E+03</rscale>
<asrwt>0</asrwt>
<pdfrwt beam="1">  1       21 0.50012557E-01 0.21894979E+03</pdfrwt>
<pdfrwt beam="2">  1       21 0.59946812E-01 0.21894979E+03</pdfrwt>
<totfact> 0.97141646E+03</totfact>
</mgrwt>
</event>
<event>
 4    1  0.2299148E-001  0.3106866E+03  0.7546771E-02  0.1080017E+00
         21   -1    0    0  501  502  0.00000000000E+00  0.00000000000E+00  0.89790950680E+03  0.89790950680E+03  0.00000000000E+00 0. -1.
         21   -1    0    0  502  503 -0.00000000000E+00 -0.00000000000E+00 -0.15940204995E+03  0.15940204995E+03  0.00000000000E+00 0.  1.
          6    1    1    2  501    0  0.23818796153E+03 -0.10103796585E+03  0.67091119393E+03  0.73935648080E+03  0.17200000000E+03 0. -1.
         -6    1    1    2    0  503 -0.23818796153E+03  0.10103796585E+03  0.67596262914E+02  0.31795507594E+03  0.17200000000E+03 0.  1.
<mgrwt>
<rscale>  2 0.31068662E+03</rscale>
<asrwt>0</asrwt>
<pdfrwt beam="1">  1       21 0.22447736E+00 0.31068662E+03</pdfrwt>
<pdfrwt beam="2">  1       21 0.39850515E-01 0.31068662E+03</pdfrwt>
<totfact> 0.51052354E+02</totfact>
</mgrwt>
</event>
<event>
 4    1  0.2299148E-001  0.1790877E+03  0.7546771E-02  0.1168689E+00
         21   -1    0    0  501  502  0.00000000000E+00  0.00000000000E+00  0.11301865886E+04  0.11301865886E+04  0.00000000000E+00 0.  1.
         21   -1    0    0  502  503 -0.00000000000E+00 -0.00000000000E+00 -0.41492728470E+02  0.41492728470E+02  0.00000000000E+00 0. -1.
          6    1    1    2  501    0 -0.10894606606E+02  0.48679796070E+02  0.87370834203E+03  0.89187369170E+03  0.17200000000E+03 0.  1.
         -6    1    1    2    0  503  0.10894606606E+02 -0.48679796070E+02  0.21498551808E+03  0.27980562536E+03  0.17200000000E+03 0. -1.
<mgrwt>
<rscale>  2 0.17908773E+03</rscale>
<asrwt>0</asrwt>
<pdfrwt beam="1">  1       21 0.28254655E+00 0.17908773E+03</pdfrwt>
<pdfrwt beam="2">  1       21 0.10373186E-01 0.17908773E+03</pdfrwt>
<totfact> 0.33260227E+03</totfact>
</mgrwt>
</event>
<event>
 4    1  0.2299148E-001  0.2152821E+03  0.7546771E-02  0.1137450E+00
         21   -1    0    0  503  502  0.00000000000E+00  0.00000000000E+00  0.45431700300E+03  0.45431700300E+03  0.00000000000E+00 0. -1.
         21   -1    0    0  501  503 -0.00000000000E+00 -0.00000000000E+00 -0.11408423321E+03  0.11408423321E+03  0.00000000000E+00 0. -1.
          6    1    1    2  501    0  0.10457468668E+03 -0.76331658976E+02  0.26256112601E+03  0.33953605427E+03  0.17200000000E+03 0. -1.
         -6    1    1    2    0  502 -0.10457468668E+03  0.76331658976E+02  0.77671643779E+02  0.22886518194E+03  0.17200000000E+03 0. -1.
<mgrwt>
<rscale>  2 0.21528211E+03</rscale>
<asrwt>0</asrwt>
<pdfrwt beam="1">  1       21 0.11357925E+00 0.21528211E+03</pdfrwt>
<pdfrwt beam="2">  1       21 0.28521059E-01 0.21528211E+03</pdfrwt>
<totfact> 0.69859270E+03</totfact>
</mgrwt>
</event>
<event>
 4    1  0.2299148E-001  0.1936806E+03  0.7546771E-02  0.1155183E+00
         21   -1    0    0  501  502  0.00000000000E+00  0.00000000000E+00  0.88100346669E+02  0.88100346669E+02  0.00000000000E+00 0.  1.
         21   -1    0    0  502  503 -0.00000000000E+00 -0.00000000000E+00 -0.44981113725E+03  0.44981113725E+03  0.00000000000E+00 0.  1.
          6    1    1    2  501    0  0.77583118295E+02  0.43692303209E+02 -0.11870103040E+03  0.22716093903E+03  0.17200000000E+03 0.  1.
         -6    1    1    2    0  503 -0.77583118295E+02 -0.43692303209E+02 -0.24300976019E+03  0.31075054489E+03  0.17200000000E+03 0.  1.
<mgrwt>
<rscale>  2 0.19368056E+03</rscale>
<asrwt>0</asrwt>
<pdfrwt beam="1">  1       21 0.22025087E-01 0.19368056E+03</pdfrwt>
<pdfrwt beam="2">  1       21 0.11245278E+00 0.19368056E+03</pdfrwt>
<totfact> 0.11917097E+04</totfact>
</mgrwt>
</event>
<event>
 4    1  0.2299148E-001  0.2172522E+03  0.7546771E-02  0.1135948E+00
         21   -1    0    0  503  502  0.00000000000E+00  0.00000000000E+00  0.32052948017E+03  0.32052948017E+03  0.00000000000E+00 0. -1.
         21   -1    0    0  501  503 -0.00000000000E+00 -0.00000000000E+00 -0.15369473078E+03  0.15369473078E+03  0.00000000000E+00 0.  1.
          6    1    1    2  501    0 -0.13261576285E+03 -0.52494709892E+01  0.13196530780E+03  0.25419154188E+03  0.17200000000E+03 0. -1.
         -6    1    1    2    0  502  0.13261576285E+03  0.52494709892E+01  0.34869441586E+02  0.22003266907E+03  0.17200000000E+03 0.  1.
<mgrwt>
<rscale>  2 0.21725215E+03</rscale>
<asrwt>0</asrwt>
<pdfrwt beam="1">  1       21 0.80132369E-01 0.21725215E+03</pdfrwt>
<pdfrwt beam="2">  1       21 0.38423683E-01 0.21725215E+03</pdfrwt>
<totfact> 0.87990212E+03</totfact>
</mgrwt>
</event>
<event>
 4    1  0.2299148E-001  0.3103734E+03  0.7546771E-02  0.1080167E+00
         21   -1    0    0  501  502  0.00000000000E+00  0.00000000000E+00  0.10159641407E+04  0.10159641407E+04  0.00000000000E+00 0. -1.
         21   -1    0    0  502  503 -0.00000000000E+00 -0.00000000000E+00 -0.96055247311E+02  0.96055247311E+02  0.00000000000E+00 0.  1.
          6    1    1    2  501    0  0.19474592672E+03 -0.16976937857E+03  0.52305921414E+03  0.60821259390E+03  0.17200000000E+03 0.  1.
         -6    1    1    2    0  503 -0.19474592672E+03  0.16976937857E+03  0.39684967922E+03  0.50380679409E+03  0.17200000000E+03 0. -1.
<mgrwt>
<rscale>  2 0.31037335E+03</rscale>
<asrwt>0</asrwt>
<pdfrwt beam="1">  1       21 0.25399100E+00 0.31037335E+03</pdfrwt>
<pdfrwt beam="2">  1       21 0.24013815E-01 0.31037335E+03</pdfrwt>
<totfact> 0.91854649E+02</totfact>
</mgrwt>
</event>
<event>
 4    1  0.2299148E-001  0.1954006E+03  0.7546771E-02  0.1153679E+00
         21   -1    0    0  501  502  0.00000000000E+00  0.00000000000E+00  0.13484869713E+03  0.13484869713E+03  0.00000000000E+00 0.  1.
         21   -1    0    0  502  503 -0.00000000000E+00 -0.00000000000E+00 -0.28616911629E+03  0.28616911629E+03  0.00000000000E+00 0.  1.
          6    1    1    2  501    0  0.70681200586E+02  0.60013098679E+02 -0.54011395764E+02  0.20272798278E+03  0.17200000000E+03 0.  1.
         -6    1    1    2    0  503 -0.70681200586E+02 -0.60013098679E+02 -0.97309023394E+02  0.21828983065E+03  0.17200000000E+03 0.  1.
<mgrwt>
<rscale>  2 0.19540062E+03</rscale>
<asrwt>0</asrwt>
<pdfrwt beam="1">  1       21 0.33712174E-01 0.19540062E+03</pdfrwt>
<pdfrwt beam="2">  1       21 0.71542279E-01 0.19540062E+03</pdfrwt>
<totfact> 0.14940863E+04</totfact>
</mgrwt>
</event>
<event>
 4    1  0.2299148E-001  0.1935412E+03  0.7546771E-02  0.1155306E+00
         21   -1    0    0  501  502  0.00000000000E+00  0.00000000000E+00  0.56943320601E+02  0.56943320601E+02  0.00000000000E+00 0.  1.
         21   -1    0    0  502  503 -0.00000000000E+00 -0.00000000000E+00 -0.70542024753E+03  0.70542024753E+03  0.00000000000E+00 0. -1.
          6    1    1    2  501    0 -0.31152796624E+02  0.83088447368E+02 -0.22521587391E+03  0.29695180869E+03  0.17200000000E+03 0.  1.
         -6    1    1    2    0  503  0.31152796624E+02 -0.83088447368E+02 -0.42326105302E+03  0.46541175944E+03  0.17200000000E+03 0.  1.
<mgrwt>
<rscale>  2 0.19354118E+03</rscale>
<asrwt>0</asrwt>
<pdfrwt beam="1">  1       21 0.14235830E-01 0.19354118E+03</pdfrwt>
<pdfrwt beam="2">  1       21 0.17635506E+00 0.19354118E+03</pdfrwt>
<totfact> 0.83080697E+03</totfact>
</mgrwt>
</event>
<event>
 4    1  0.2299148E-001  0.1728166E+03  0.7546771E-02  0.1174942E+00
         21   -1    0    0  501  502  0.00000000000E+00  0.00000000000E+00  0.59039689440E+02  0.59039689440E+02  0.00000000000E+00 0. -1.
         21   -1    0    0  502  503 -0.00000000000E+00 -0.00000000000E+00 -0.55957686427E+03  0.55957686427E+03  0.00000000000E+00 0.  1.
          6    1    1    2  501    0  0.26297998875E+01 -0.16573215504E+02 -0.15443169147E+03  0.23176439470E+03  0.17200000000E+03 0. -1.
         -6    1    1    2    0  503 -0.26297998875E+01  0.16573215504E+02 -0.34610548336E+03  0.38685215901E+03  0.17200000000E+03 0.  1.
<mgrwt>
<rscale>  2 0.17281663E+03</rscale>
<asrwt>0</asrwt>
<pdfrwt beam="1">  1       21 0.14759922E-01 0.17281663E+03</pdfrwt>
<pdfrwt beam="2">  1       21 0.13989422E+00 0.17281663E+03</pdfrwt>
<totfact> 0.14690317E+04</totfact>
</mgrwt>
</event>
<event>
 4    1  0.2299148E-001  0.1796378E+03  0.7546771E-02  0.1168154E+00
         21   -1    0    0  503  502  0.00000000000E+00  0.00000000000E+00  0.11529256659E+04  0.11529256659E+04  0.00000000000E+00 0.  1.
         21   -1    0    0  501  503 -0.00000000000E+00 -0.00000000000E+00 -0.28002571077E+02  0.28002571077E+02  0.00000000000E+00 0.  1.
          6    1    1    2  501    0  0.28620821725E+02 -0.43203954126E+02  0.57525234353E+03  0.60264831521E+03  0.17200000000E+03 0.  1.
         -6    1    1    2    0  502 -0.28620821725E+02  0.43203954126E+02  0.54967075125E+03  0.57827992172E+03  0.17200000000E+03 0.  1.
<mgrwt>
<rscale>  2 0.17963778E+03</rscale>
<asrwt>0</asrwt>
<pdfrwt beam="1">  1       21 0.28823126E+00 0.17963778E+03</pdfrwt>
<pdfrwt beam="2">  1       21 0.70006466E-02 0.17963778E+03</pdfrwt>
<totfact> 0.61246224E+03</totfact>
</mgrwt>
</event>
<event>
 4    1  0.2299148E-001  0.1983606E+03  0.7546771E-02  0.1151130E+00
         21   -1    0    0  503  502  0.00000000000E+00  0.00000000000E+00  0.17649362367E+03  0.17649362367E+03  0.00000000000E+00 0. -1.
         21   -1    0    0  501  503 -0.00000000000E+00 -0.00000000000E+00 -0.22677914020E+03  0.22677914020E+03  0.00000000000E+00 0.  1.
          6    1    1    2  501    0  0.37093513854E+01  0.98737973450E+02  0.11029250460E+01  0.19836371425E+03  0.17200000000E+03 0. -1.
         -6    1    1    2    0  502 -0.37093513854E+01 -0.98737973450E+02 -0.51388441569E+02  0.20490904962E+03  0.17200000000E+03 0.  1.
<mgrwt>
<rscale>  2 0.19836065E+03</rscale>
<asrwt>0</asrwt>
<pdfrwt beam="1">  1       21 0.44123406E-01 0.19836065E+03</pdfrwt>
<pdfrwt beam="2">  1       21 0.56694785E-01 0.19836065E+03</pdfrwt>
<totfact> 0.14377046E+04</totfact>
</mgrwt>
</event>
<event>
 4    1  0.2299148E-001  0.2059129E+03  0.7546771E-02  0.1144844E+00
         21   -1    0    0  501  502  0.00000000000E+00  0.00000000000E+00  0.34173955343E+03  0.34173955343E+03  0.00000000000E+00 0.  1.
         21   -1    0    0  502  503 -0.00000000000E+00 -0.00000000000E+00 -0.22428902573E+03  0.22428902573E+03  0.00000000000E+00 0.  1.
          6    1    1    2  501    0  0.11315025848E+03 -0.36272449762E+01  0.24790568885E+03  0.32226909325E+03  0.17200000000E+03 0.  1.
         -6    1    1    2    0  503 -0.11315025848E+03  0.36272449762E+01 -0.13045516115E+03  0.24375948591E+03  0.17200000000E+03 0.  1.
<mgrwt>
<rscale>  2 0.20591294E+03</rscale>
<asrwt>0</asrwt>
<pdfrwt beam="1">  1       21 0.85434888E-01 0.20591294E+03</pdfrwt>
<pdfrwt beam="2">  1       21 0.56072257E-01 0.20591294E+03</pdfrwt>
<totfact> 0.35076109E+03</totfact>
</mgrwt>
</event>
<event>
 4    1  0.2299148E-001  0.2738898E+03  0.7546771E-02  0.1099074E+00
         21   -1    0    0  501  502  0.00000000000E+00  0.00000000000E+00  0.70370418017E+03  0.70370418017E+03  0.00000000000E+00 0. -1.
         21   -1    0    0  502  503 -0.00000000000E+00 -0.00000000000E+00 -0.19333785751E+03  0.19333785751E+03  0.00000000000E+00 0.  1.
          6    1    1    2  501    0 -0.12474510390E+03  0.17283025233E+03  0.55560116091E+03  0.61944191581E+03  0.17200000000E+03 0. -1.
         -6    1    1    2    0  503  0.12474510390E+03 -0.17283025233E+03 -0.45234838242E+02  0.27760012186E+03  0.17200000000E+03 0.  1.
<mgrwt>
<rscale>  2 0.27388983E+03</rscale>
<asrwt>0</asrwt>
<pdfrwt beam="1">  1       21 0.17592604E+00 0.27388983E+03</pdfrwt>
<pdfrwt beam="2">  1       21 0.48334466E-01 0.27388983E+03</pdfrwt>
<totfact> 0.73448231E+02</totfact>
</mgrwt>
</event>
<event>
 4    1  0.2299148E-001  0.2827983E+03  0.7546771E-02  0.1094170E+00
         21   -1    0    0  503  502  0.00000000000E+00  0.00000000000E+00  0.13909939418E+03  0.13909939418E+03  0.00000000000E+00 0. -1.
         21   -1    0    0  501  503 -0.00000000000E+00 -0.00000000000E+00 -0.62294703588E+03  0.62294703588E+03  0.00000000000E+00 0.  1.
          6    1    1    2  501    0  0.59903038346E+02 -0.21633887126E+03 -0.34768915466E+03  0.44817700687E+03  0.17200000000E+03 0.  1.
         -6    1    1    2    0  502 -0.59903038346E+02  0.21633887126E+03 -0.13615848703E+03  0.31386942319E+03  0.17200000000E+03 0. -1.
<mgrwt>
<rscale>  2 0.28279830E+03</rscale>
<asrwt>0</asrwt>
<pdfrwt beam="1">  1       21 0.34774849E-01 0.28279830E+03</pdfrwt>
<pdfrwt beam="2">  1       21 0.15573676E+00 0.28279830E+03</pdfrwt>
<totfact> 0.20060864E+03</totfact>
</mgrwt>
</event>
<event>
 4    1  0.2299148E-001  0.1782687E+03  0.7546771E-02  0.1169489E+00
         21   -1    0    0  503  502  0.00000000000E+00  0.00000000000E+00  0.13375748521E+03  0.13375748521E+03  0.00000000000E+00 0. -1.
         21   -1    0    0  501  503 -0.00000000000E+00 -0.00000000000E+00 -0.27626104225E+03  0.27626104225E+03  0.00000000000E+00 0.  1.
          6    1    1    2  501    0  0.15431814542E+01  0.46833383045E+02 -0.14795149241E+03  0.23166655193E+03  0.17200000000E+03 0.  1.
         -6    1    1    2    0  502 -0.15431814542E+01 -0.46833383045E+02  0.54479353677E+01  0.17835197553E+03  0.17200000000E+03 0. -1.
<mgrwt>
<rscale>  2 0.17826875E+03</rscale>
<asrwt>0</asrwt>
<pdfrwt beam="1">  1       21 0.33439372E-01 0.17826875E+03</pdfrwt>
<pdfrwt beam="2">  1       21 0.69065260E-01 0.17826875E+03</pdfrwt>
<totfact> 0.16587827E+04</totfact>
</mgrwt>
</event>
<event>
 4    1  0.2299148E-001  0.2292194E+03  0.7546771E-02  0.1127190E+00
         21   -1    0    0  503  502  0.00000000000E+00  0.00000000000E+00  0.53063138476E+03  0.53063138476E+03  0.00000000000E+00 0.  1.
         21   -1    0    0  501  503 -0.00000000000E+00 -0.00000000000E+00 -0.11777271436E+03  0.11777271436E+03  0.00000000000E+00 0.  1.
          6    1    1    2  501    0  0.10975057874E+03  0.10446220455E+03  0.77051489352E+02  0.24182322825E+03  0.17200000000E+03 0.  1.
         -6    1    1    2    0  502 -0.10975057874E+03 -0.10446220455E+03  0.33580718105E+03  0.40658087086E+03  0.17200000000E+03 0.  1.
<mgrwt>
<rscale>  2 0.22921942E+03</rscale>
<asrwt>0</asrwt>
<pdfrwt beam="1">  1       21 0.13265784E+00 0.22921942E+03</pdfrwt>
<pdfrwt beam="2">  1       21 0.29443180E-01 0.22921942E+03</pdfrwt>
<totfact> 0.44097132E+03</totfact>
</mgrwt>
</event>
<event>
 4    1  0.2299148E-001  0.1896922E+03  0.7546771E-02  0.1158739E+00
         21   -1    0    0  501  502  0.00000000000E+00  0.00000000000E+00  0.25220277553E+03  0.25220277553E+03  0.00000000000E+00 0. -1.
         21   -1    0    0  502  503 -0.00000000000E+00 -0.00000000000E+00 -0.14493664669E+03  0.14493664669E+03  0.00000000000E+00 0.  1.
          6    1    1    2  501    0 -0.79259689397E+02  0.10818504764E+02  0.28830568575E+02  0.19187063374E+03  0.17200000000E+03 0. -1.
         -6    1    1    2    0  503  0.79259689397E+02 -0.10818504764E+02  0.78435560268E+02  0.20526878848E+03  0.17200000000E+03 0.  1.
<mgrwt>
<rscale>  2 0.18969222E+03</rscale>
<asrwt>0</asrwt>
<pdfrwt beam="1">  1       21 0.63050693E-01 0.18969222E+03</pdfrwt>
<pdfrwt beam="2">  1       21 0.36234162E-01 0.18969222E+03</pdfrwt>
<totfact> 0.17134176E+04</totfact>
</mgrwt>
</event>
<event>
 4    1  0.2299148E-001  0.4310047E+03  0.7546771E-02  0.1033543E+00
         21   -1    0    0  503  502  0.00000000000E+00  0.00000000000E+00  0.13424666259E+04  0.13424666259E+04  0.00000000000E+00 0. -1.
         21   -1    0    0  501  503 -0.00000000000E+00 -0.00000000000E+00 -0.13965014867E+03  0.13965014867E+03  0.00000000000E+00 0.  1.
          6    1    1    2  501    0 -0.15611302526E+03 -0.36305617893E+03  0.53062116197E+03  0.68361091511E+03  0.17200000000E+03 0.  1.
         -6    1    1    2    0  502  0.15611302526E+03  0.36305617893E+03  0.67219531523E+03  0.79850585942E+03  0.17200000000E+03 0. -1.
<mgrwt>
<rscale>  2 0.43100472E+03</rscale>
<asrwt>0</asrwt>
<pdfrwt beam="1">  1       21 0.33561662E+00 0.43100472E+03</pdfrwt>
<pdfrwt beam="2">  1       21 0.34912541E-01 0.43100472E+03</pdfrwt>
<totfact> 0.13070367E+02</totfact>
</mgrwt>
</event>
<event>
 4    1  0.2299148E-001  0.1768479E+03  0.7546771E-02  0.1170889E+00
         21   -1    0    0  501  502  0.00000000000E+00  0.00000000000E+00  0.81160482932E+02  0.81160482932E+02  0.00000000000E+00 0. -1.
         21   -1    0    0  502  503 -0.00000000000E+00 -0.00000000000E+00 -0.40323473810E+03  0.40323473810E+03  0.00000000000E+00 0. -1.
          6    1    1    2  501    0  0.40827339514E+02  0.49310636511E+01 -0.11002975731E+03  0.20828282343E+03  0.17200000000E+03 0. -1.
         -6    1    1    2    0  503 -0.40827339514E+02 -0.49310636511E+01 -0.21204449785E+03  0.27611239760E+03  0.17200000000E+03 0. -1.
<mgrwt>
<rscale>  2 0.17684792E+03</rscale>
<asrwt>0</asrwt>
<pdfrwt beam="1">  1       21 0.20290121E-01 0.17684792E+03</pdfrwt>
<pdfrwt beam="2">  1       21 0.10080868E+00 0.17684792E+03</pdfrwt>
<totfact> 0.18279825E+04</totfact>
</mgrwt>
</event>
<event>
 4    1  0.2299148E-001  0.4375100E+03  0.7546771E-02  0.1031514E+00
         21   -1    0    0  501  502  0.00000000000E+00  0.00000000000E+00  0.53635840206E+03  0.53635840206E+03  0.00000000000E+00 0. -1.
         21   -1    0    0  502  503 -0.00000000000E+00 -0.00000000000E+00 -0.48204461146E+03  0.48204461146E+03  0.00000000000E+00 0.  1.
          6    1    1    2  501    0 -0.35893635174E+03 -0.18164710025E+03  0.28662789440E+03  0.52303969589E+03  0.17200000000E+03 0. -1.
         -6    1    1    2    0  503  0.35893635174E+03  0.18164710025E+03 -0.23231410379E+03  0.49536331763E+03  0.17200000000E+03 0.  1.
<mgrwt>
<rscale>  2 0.43750997E+03</rscale>
<asrwt>0</asrwt>
<pdfrwt beam="1">  1       21 0.13408960E+00 0.43750997E+03</pdfrwt>
<pdfrwt beam="2">  1       21 0.12051115E+00 0.43750997E+03</pdfrwt>
<totfact> 0.17113441E+02</totfact>
</mgrwt>
</event>
<event>
 4    1  0.2299148E-001  0.2213463E+03  0.7546771E-02  0.1132883E+00
         21   -1    0    0  501  502  0.00000000000E+00  0.00000000000E+00  0.95652758204E+02  0.95652758204E+02  0.00000000000E+00 0. -1.
         21   -1    0    0  502  503 -0.00000000000E+00 -0.00000000000E+00 -0.55143620611E+03  0.55143620611E+03  0.00000000000E+00 0. -1.
          6    1    1    2  501    0 -0.11534803580E+03 -0.78134718956E+02 -0.14159783429E+03  0.26276253604E+03  0.17200000000E+03 0. -1.
         -6    1    1    2    0  503  0.11534803580E+03  0.78134718956E+02 -0.31418561362E+03  0.38432642828E+03  0.17200000000E+03 0. -1.
<mgrwt>
<rscale>  2 0.22134634E+03</rscale>
<asrwt>0</asrwt>
<pdfrwt beam="1">  1       21 0.23913190E-01 0.22134634E+03</pdfrwt>
<pdfrwt beam="2">  1       21 0.13785905E+00 0.22134634E+03</pdfrwt>
<totfact> 0.60033948E+03</totfact>
</mgrwt>
</event>
<event>
 4    1  0.2299148E-001  0.1825605E+03  0.7546771E-02  0.1165348E+00
         21   -1    0    0  503  502  0.00000000000E+00  0.00000000000E+00  0.25106158419E+03  0.25106158419E+03  0.00000000000E+00 0.  1.
         21   -1    0    0  501  503 -0.00000000000E+00 -0.00000000000E+00 -0.14611993666E+03  0.14611993666E+03  0.00000000000E+00 0.  1.
          6    1    1    2  501    0 -0.47574375045E+02  0.38483839703E+02  0.11254327175E+03  0.21446285248E+03  0.17200000000E+03 0.  1.
         -6    1    1    2    0  502  0.47574375045E+02 -0.38483839703E+02 -0.76016242249E+01  0.18271866837E+03  0.17200000000E+03 0.  1.
<mgrwt>
<rscale>  2 0.18256048E+03</rscale>
<asrwt>0</asrwt>
<pdfrwt beam="1">  1       21 0.62765396E-01 0.18256048E+03</pdfrwt>
<pdfrwt beam="2">  1       21 0.36529984E-01 0.18256048E+03</pdfrwt>
<totfact> 0.17099726E+04</totfact>
</mgrwt>
</event>
<event>
 4    1  0.2299148E-001  0.1856045E+03  0.7546771E-02  0.1162487E+00
         21   -1    0    0  501  502  0.00000000000E+00  0.00000000000E+00  0.23558954342E+03  0.23558954342E+03  0.00000000000E+00 0.  1.
         21   -1    0    0  502  503 -0.00000000000E+00 -0.00000000000E+00 -0.14993612050E+03  0.14993612050E+03  0.00000000000E+00 0.  1.
          6    1    1    2  501    0  0.66669936049E+02 -0.20497239704E+02  0.12499077369E+02  0.18602484819E+03  0.17200000000E+03 0.  1.
         -6    1    1    2    0  503 -0.66669936049E+02  0.20497239704E+02  0.73154345549E+02  0.19950081574E+03  0.17200000000E+03 0.  1.
<mgrwt>
<rscale>  2 0.18560446E+03</rscale>
<asrwt>0</asrwt>
<pdfrwt beam="1">  1       21 0.58897385E-01 0.18560446E+03</pdfrwt>
<pdfrwt beam="2">  1       21 0.37484030E-01 0.18560446E+03</pdfrwt>
<totfact> 0.18586520E+04</totfact>
</mgrwt>
</event>
<event>
 4    1  0.2299148E-001  0.2771380E+03  0.7546771E-02  0.1097262E+00
         21   -1    0    0  501  502  0.00000000000E+00  0.00000000000E+00  0.77601117174E+03  0.77601117174E+03  0.00000000000E+00 0.  1.
         21   -1    0    0  502  503 -0.00000000000E+00 -0.00000000000E+00 -0.10246343752E+03  0.10246343752E+03  0.00000000000E+00 0. -1.
          6    1    1    2  501    0 -0.86664564838E+00 -0.21730324297E+03  0.25572429903E+03  0.37709464011E+03  0.17200000000E+03 0.  1.
         -6    1    1    2    0  503  0.86664564838E+00  0.21730324297E+03  0.41782343519E+03  0.50137996916E+03  0.17200000000E+03 0. -1.
<mgrwt>
<rscale>  2 0.27713796E+03</rscale>
<asrwt>0</asrwt>
<pdfrwt beam="1">  1       21 0.19400278E+00 0.27713796E+03</pdfrwt>
<pdfrwt beam="2">  1       21 0.25615862E-01 0.27713796E+03</pdfrwt>
<totfact> 0.19729383E+03</totfact>
</mgrwt>
</event>
<event>
 4    1  0.2299148E-001  0.2069379E+03  0.7546771E-02  0.1144014E+00
         21   -1    0    0  501  502  0.00000000000E+00  0.00000000000E+00  0.75764740268E+03  0.75764740268E+03  0.00000000000E+00 0.  1.
         21   -1    0    0  502  503 -0.00000000000E+00 -0.00000000000E+00 -0.57215306253E+02  0.57215306253E+02  0.00000000000E+00 0.  1.
          6    1    1    2  501    0  0.66132600290E+02 -0.94158151622E+02  0.39508586940E+03  0.44600013737E+03  0.17200000000E+03 0. -1.
         -6    1    1    2    0  503 -0.66132600290E+02  0.94158151622E+02  0.30534622703E+03  0.36886257157E+03  0.17200000000E+03 0. -1.
<mgrwt>
<rscale>  2 0.20693786E+03</rscale>
<asrwt>0</asrwt>
<pdfrwt beam="1">  1       21 0.18941182E+00 0.20693786E+03</pdfrwt>
<pdfrwt beam="2">  1       21 0.14303829E-01 0.20693786E+03</pdfrwt>
<totfact> 0.66481764E+03</totfact>
</mgrwt>
</event>
<event>
 4    1  0.2299148E-001  0.2167759E+03  0.7546771E-02  0.1136310E+00
         21   -1    0    0  503  502  0.00000000000E+00  0.00000000000E+00  0.25938160091E+03  0.25938160091E+03  0.00000000000E+00 0. -1.
         21   -1    0    0  501  503 -0.00000000000E+00 -0.00000000000E+00 -0.19183322440E+03  0.19183322440E+03  0.00000000000E+00 0. -1.
          6    1    1    2  501    0 -0.11074417514E+03 -0.71718473126E+02  0.86968284172E+02  0.23357074767E+03  0.17200000000E+03 0. -1.
         -6    1    1    2    0  502  0.11074417514E+03  0.71718473126E+02 -0.19419907665E+02  0.21764407763E+03  0.17200000000E+03 0. -1.
<mgrwt>
<rscale>  2 0.21677595E+03</rscale>
<asrwt>0</asrwt>
<pdfrwt beam="1">  1       21 0.64845400E-01 0.21677595E+03</pdfrwt>
<pdfrwt beam="2">  1       21 0.47958306E-01 0.21677595E+03</pdfrwt>
<totfact> 0.89544562E+03</totfact>
</mgrwt>
</event>
<event>
 4    1  0.2299148E-001  0.1836161E+03  0.7546771E-02  0.1164349E+00
         21   -1    0    0  501  502  0.00000000000E+00  0.00000000000E+00  0.42962821850E+03  0.42962821850E+03  0.00000000000E+00 0.  1.
         21   -1    0    0  502  503 -0.00000000000E+00 -0.00000000000E+00 -0.86213717986E+02  0.86213717986E+02  0.00000000000E+00 0. -1.
          6    1    1    2  501    0  0.27098237886E+02 -0.58279893164E+02  0.24898366238E+03  0.30936665071E+03  0.17200000000E+03 0.  1.
         -6    1    1    2    0  503 -0.27098237886E+02  0.58279893164E+02  0.94430838139E+02  0.20647528577E+03  0.17200000000E+03 0. -1.
<mgrwt>
<rscale>  2 0.18361607E+03</rscale>
<asrwt>0</asrwt>
<pdfrwt beam="1">  1       21 0.10740705E+00 0.18361607E+03</pdfrwt>
<pdfrwt beam="2">  1       21 0.21553431E-01 0.18361607E+03</pdfrwt>
<totfact> 0.13964632E+04</totfact>
</mgrwt>
</event>
<event>
 4    1  0.2299148E-001  0.1750043E+03  0.7546771E-02  0.1172727E+00
         21   -1    0    0  501  502  0.00000000000E+00  0.00000000000E+00  0.10333156663E+04  0.10333156663E+04  0.00000000000E+00 0.  1.
         21   -1    0    0  502  503 -0.00000000000E+00 -0.00000000000E+00 -0.31247088983E+02  0.31247088983E+02  0.00000000000E+00 0.  1.
          6    1    1    2  501    0  0.32274813908E+02 -0.90944110746E+00  0.38028480014E+03  0.41862037685E+03  0.17200000000E+03 0.  1.
         -6    1    1    2    0  503 -0.32274813908E+02  0.90944110746E+00  0.62178377718E+03  0.64594237844E+03  0.17200000000E+03 0.  1.
<mgrwt>
<rscale>  2 0.17500426E+03</rscale>
<asrwt>0</asrwt>
<pdfrwt beam="1">  1       21 0.25832880E+00 0.17500426E+03</pdfrwt>
<pdfrwt beam="2">  1       21 0.78117757E-02 0.17500426E+03</pdfrwt>
<totfact> 0.75717989E+03</totfact>
</mgrwt>
</event>
<event>
 4    1  0.2299148E-001  0.2720994E+03  0.7546771E-02  0.1100084E+00
         21   -1    0    0  503  502  0.00000000000E+00  0.00000000000E+00  0.27070494722E+03  0.27070494722E+03  0.00000000000E+00 0.  1.
         21   -1    0    0  501  503 -0.00000000000E+00 -0.00000000000E+00 -0.27982260345E+03  0.27982260345E+03  0.00000000000E+00 0. -1.
          6    1    1    2  501    0 -0.15912386918E+02 -0.21024007287E+03 -0.45932011600E+02  0.27594898440E+03  0.17200000000E+03 0.  1.
         -6    1    1    2    0  502  0.15912386918E+02  0.21024007287E+03  0.36814355369E+02  0.27457856628E+03  0.17200000000E+03 0. -1.
<mgrwt>
<rscale>  2 0.27209942E+03</rscale>
<asrwt>0</asrwt>
<pdfrwt beam="1">  1       21 0.67676237E-01 0.27209942E+03</pdfrwt>
<pdfrwt beam="2">  1       21 0.69955651E-01 0.27209942E+03</pdfrwt>
<totfact> 0.35000618E+03</totfact>
</mgrwt>
</event>
<event>
 4    1  0.2299148E-001  0.1795333E+03  0.7546771E-02  0.1168255E+00
         21   -1    0    0  501  502  0.00000000000E+00  0.00000000000E+00  0.26806132699E+03  0.26806132699E+03  0.00000000000E+00 0.  1.
         21   -1    0    0  502  503 -0.00000000000E+00 -0.00000000000E+00 -0.13233840517E+03  0.13233840517E+03  0.00000000000E+00 0. -1.
          6    1    1    2  501    0  0.22647913528E+02 -0.46209188136E+02  0.12838856129E+03  0.22071665031E+03  0.17200000000E+03 0. -1.
         -6    1    1    2    0  503 -0.22647913528E+02  0.46209188136E+02  0.73343605253E+01  0.17968308184E+03  0.17200000000E+03 0.  1.
<mgrwt>
<rscale>  2 0.17953333E+03</rscale>
<asrwt>0</asrwt>
<pdfrwt beam="1">  1       21 0.67015331E-01 0.17953333E+03</pdfrwt>
<pdfrwt beam="2">  1       21 0.33084602E-01 0.17953333E+03</pdfrwt>
<totfact> 0.18080389E+04</totfact>
</mgrwt>
</event>
<event>
 4    1  0.2299148E-001  0.2387867E+03  0.7546771E-02  0.1120604E+00
         21   -1    0    0  503  502  0.00000000000E+00  0.00000000000E+00  0.91549749421E+03  0.91549749421E+03  0.00000000000E+00 0. -1.
         21   -1    0    0  501  503 -0.00000000000E+00 -0.00000000000E+00 -0.10262786882E+03  0.10262786882E+03  0.00000000000E+00 0. -1.
          6    1    1    2  501    0 -0.70315267359E+02 -0.14996947421E+03  0.87253277612E+02  0.25422866572E+03  0.17200000000E+03 0. -1.
         -6    1    1    2    0  502  0.70315267359E+02  0.14996947421E+03  0.72561634778E+03  0.76389669732E+03  0.17200000000E+03 0. -1.
<mgrwt>
<rscale>  2 0.23878668E+03</rscale>
<asrwt>0</asrwt>
<pdfrwt beam="1">  1       21 0.22887435E+00 0.23878668E+03</pdfrwt>
<pdfrwt beam="2">  1       21 0.25656970E-01 0.23878668E+03</pdfrwt>
<totfact> 0.12194316E+03</totfact>
</mgrwt>
</event>
<event>
 4    1  0.2299148E-001  0.1895976E+03  0.7546771E-02  0.1158825E+00
         21   -1    0    0  503  502  0.00000000000E+00  0.00000000000E+00  0.35353502504E+02  0.35353502504E+02  0.00000000000E+00 0. -1.
         21   -1    0    0  501  503 -0.00000000000E+00 -0.00000000000E+00 -0.12563413102E+04  0.12563413102E+04  0.00000000000E+00 0. -1.
          6    1    1    2  501    0  0.76456076761E+02  0.22753612749E+02 -0.89250811704E+03  0.91242424208E+03  0.17200000000E+03 0. -1.
         -6    1    1    2    0  502 -0.76456076761E+02 -0.22753612749E+02 -0.32847969070E+03  0.37927057066E+03  0.17200000000E+03 0. -1.
<mgrwt>
<rscale>  2 0.18959762E+03</rscale>
<asrwt>0</asrwt>
<pdfrwt beam="1">  1       21 0.88383762E-02 0.18959762E+03</pdfrwt>
<pdfrwt beam="2">  1       21 0.31408531E+00 0.18959762E+03</pdfrwt>
<totfact> 0.28663450E+03</totfact>
</mgrwt>
</event>
<event>
 4    1  0.2299148E-001  0.3084009E+03  0.7546771E-02  0.1081115E+00
         21   -1    0    0  501  502  0.00000000000E+00  0.00000000000E+00  0.64808108566E+03  0.64808108566E+03  0.00000000000E+00 0. -1.
         21   -1    0    0  502  503 -0.00000000000E+00 -0.00000000000E+00 -0.15455739056E+03  0.15455739056E+03  0.00000000000E+00 0.  1.
          6    1    1    2  501    0 -0.32356433024E+02  0.25392946438E+03  0.33691361307E+03  0.45675145792E+03  0.17200000000E+03 0.  1.
         -6    1    1    2    0  503  0.32356433024E+02 -0.25392946438E+03  0.15661008204E+03  0.34588701831E+03  0.17200000000E+03 0.  1.
<mgrwt>
<rscale>  2 0.30840089E+03</rscale>
<asrwt>0</asrwt>
<pdfrwt beam="1">  1       21 0.16202026E+00 0.30840089E+03</pdfrwt>
<pdfrwt beam="2">  1       21 0.38639349E-01 0.30840089E+03</pdfrwt>
<totfact> 0.14318643E+03</totfact>
</mgrwt>
</event>
<event>
 4    1  0.2299148E-001  0.2057455E+03  0.7546771E-02  0.1144980E+00
         21   -1    0    0  501  502  0.00000000000E+00  0.00000000000E+00  0.89587343733E+02  0.89587343733E+02  0.00000000000E+00 0.  1.
         21   -1    0    0  502  503 -0.00000000000E+00 -0.00000000000E+00 -0.47274688889E+03  0.47274688889E+03  0.00000000000E+00 0.  1.
          6    1    1    2  501    0  0.68441569295E+02 -0.89794044147E+02 -0.18533092347E+03  0.27690931722E+03  0.17200000000E+03 0.  1.
         -6    1    1    2    0  503 -0.68441569295E+02  0.89794044147E+02 -0.19782862169E+03  0.28542491540E+03  0.17200000000E+03 0.  1.
<mgrwt>
<rscale>  2 0.20574552E+03</rscale>
<asrwt>0</asrwt>
<pdfrwt beam="1">  1       21 0.22396837E-01 0.20574552E+03</pdfrwt>
<pdfrwt beam="2">  1       21 0.11818672E+00 0.20574552E+03</pdfrwt>
<totfact> 0.10138960E+04</totfact>
</mgrwt>
</event>
<event>
 4    1  0.2299148E-001  0.2002802E+03  0.7546771E-02  0.1149503E+00
         21   -1    0    0  503  502  0.00000000000E+00  0.00000000000E+00  0.94294933910E+02  0.94294933910E+02  0.00000000000E+00 0.  1.
         21   -1    0    0  501  503 -0.00000000000E+00 -0.00000000000E+00 -0.42822661303E+03  0.42822661303E+03  0.00000000000E+00 0.  1.
          6    1    1    2  501    0 -0.10155706297E+03 -0.14639047979E+02 -0.14570287743E+03  0.24767209624E+03  0.17200000000E+03 0.  1.
         -6    1    1    2    0  502  0.10155706297E+03  0.14639047979E+02 -0.18822880170E+03  0.27484945071E+03  0.17200000000E+03 0.  1.
<mgrwt>
<rscale>  2 0.20028015E+03</rscale>
<asrwt>0</asrwt>
<pdfrwt beam="1">  1       21 0.23573734E-01 0.20028015E+03</pdfrwt>
<pdfrwt beam="2">  1       21 0.10705665E+00 0.20028015E+03</pdfrwt>
<totfact> 0.11749223E+04</totfact>
</mgrwt>
</event>
<event>
 4    1  0.2299148E-001  0.1967834E+03  0.7546771E-02  0.1152482E+00
         21   -1    0    0  501  502  0.00000000000E+00  0.00000000000E+00  0.14188005349E+03  0.14188005349E+03  0.00000000000E+00 0.  1.
         21   -1    0    0  502  503 -0.00000000000E+00 -0.00000000000E+00 -0.27295944108E+03  0.27295944108E+03  0.00000000000E+00 0.  1.
          6    1    1    2  501    0 -0.24384532011E+02 -0.92439642291E+02 -0.63483116476E+02  0.20676991789E+03  0.17200000000E+03 0.  1.
         -6    1    1    2    0  503  0.24384532011E+02  0.92439642291E+02 -0.67596271110E+02  0.20806957667E+03  0.17200000000E+03 0.  1.
<mgrwt>
<rscale>  2 0.19678337E+03</rscale>
<asrwt>0</asrwt>
<pdfrwt beam="1">  1       21 0.35470014E-01 0.19678337E+03</pdfrwt>
<pdfrwt beam="2">  1       21 0.68239860E-01 0.19678337E+03</pdfrwt>
<totfact> 0.14978675E+04</totfact>
</mgrwt>
</event>
<event>
 4    1  0.2299148E-001  0.2731627E+03  0.7546771E-02  0.1099483E+00
         21   -1    0    0  501  502  0.00000000000E+00  0.00000000000E+00  0.69953362497E+03  0.69953362497E+03  0.00000000000E+00 0. -1.
         21   -1    0    0  502  503 -0.00000000000E+00 -0.00000000000E+00 -0.11753556992E+03  0.11753556992E+03  0.00000000000E+00 0.  1.
          6    1    1    2  501    0 -0.11203324684E+03 -0.18022880520E+03  0.41522428129E+03  0.49702019515E+03  0.17200000000E+03 0. -1.
         -6    1    1    2    0  503  0.11203324684E+03  0.18022880520E+03  0.16677377376E+03  0.32004899974E+03  0.17200000000E+03 0.  1.
<mgrwt>
<rscale>  2 0.27316272E+03</rscale>
<asrwt>0</asrwt>
<pdfrwt beam="1">  1       21 0.17488339E+00 0.27316272E+03</pdfrwt>
<pdfrwt beam="2">  1       21 0.29383894E-01 0.27316272E+03</pdfrwt>
<totfact> 0.20454554E+03</totfact>
</mgrwt>
</event>
<event>
 4    1  0.2299148E-001  0.2148824E+03  0.7546771E-02  0.1137757E+00
         21   -1    0    0  503  502  0.00000000000E+00  0.00000000000E+00  0.65334230419E+02  0.65334230419E+02  0.00000000000E+00 0.  1.
         21   -1    0    0  501  503 -0.00000000000E+00 -0.00000000000E+00 -0.70877659032E+03  0.70877659032E+03  0.00000000000E+00 0.  1.
          6    1    1    2  501    0  0.11606575568E+03  0.55849495741E+02 -0.34246017718E+03  0.40429370360E+03  0.17200000000E+03 0.  1.
         -6    1    1    2    0  502 -0.11606575568E+03 -0.55849495741E+02 -0.30098218272E+03  0.36981711714E+03  0.17200000000E+03 0.  1.
<mgrwt>
<rscale>  2 0.21488235E+03</rscale>
<asrwt>0</asrwt>
<pdfrwt beam="1">  1       21 0.16333558E-01 0.21488235E+03</pdfrwt>
<pdfrwt beam="2">  1       21 0.17719414E+00 0.21488235E+03</pdfrwt>
<totfact> 0.62682402E+03</totfact>
</mgrwt>
</event>
<event>
 4    1  0.2299148E-001  0.1746714E+03  0.7546771E-02  0.1173062E+00
         21   -1    0    0  503  502  0.00000000000E+00  0.00000000000E+00  0.60114485431E+03  0.60114485431E+03  0.00000000000E+00 0. -1.
         21   -1    0    0  501  503 -0.00000000000E+00 -0.00000000000E+00 -0.51411203555E+02  0.51411203555E+02  0.00000000000E+00 0. -1.
          6    1    1    2  501    0  0.22843718049E+02  0.20106078907E+02  0.23795738464E+03  0.29518436065E+03  0.17200000000E+03 0. -1.
         -6    1    1    2    0  502 -0.22843718049E+02 -0.20106078907E+02  0.31177626612E+03  0.35737169722E+03  0.17200000000E+03 0. -1.
<mgrwt>
<rscale>  2 0.17467138E+03</rscale>
<asrwt>0</asrwt>
<pdfrwt beam="1">  1       21 0.15028619E+00 0.17467138E+03</pdfrwt>
<pdfrwt beam="2">  1       21 0.12852803E-01 0.17467138E+03</pdfrwt>
<totfact> 0.15631060E+04</totfact>
</mgrwt>
</event>
<event>
 4    1  0.2299148E-001  0.2555749E+03  0.7546771E-02  0.1109831E+00
         21   -1    0    0  501  502  0.00000000000E+00  0.00000000000E+00  0.67543795527E+03  0.67543795527E+03  0.00000000000E+00 0.  1.
         21   -1    0    0  502  503 -0.00000000000E+00 -0.00000000000E+00 -0.11891970938E+03  0.11891970938E+03  0.00000000000E+00 0. -1.
          6    1    1    2  501    0  0.10355426984E+03 -0.15814887173E+03  0.44992136880E+03  0.51744351434E+03  0.17200000000E+03 0.  1.
         -6    1    1    2    0  503 -0.10355426984E+03  0.15814887173E+03  0.10659687708E+03  0.27691415030E+03  0.17200000000E+03 0. -1.
<mgrwt>
<rscale>  2 0.25557494E+03</rscale>
<asrwt>0</asrwt>
<pdfrwt beam="1">  1       21 0.16885948E+00 0.25557494E+03</pdfrwt>
<pdfrwt beam="2">  1       21 0.29729929E-01 0.25557494E+03</pdfrwt>
<totfact> 0.22337390E+03</totfact>
</mgrwt>
</event>
<event>
 4    1  0.2299148E-001  0.1824218E+03  0.7546771E-02  0.1165480E+00
         21   -1    0    0  503  502  0.00000000000E+00  0.00000000000E+00  0.96313042266E+02  0.96313042266E+02  0.00000000000E+00 0. -1.
         21   -1    0    0  501  503 -0.00000000000E+00 -0.00000000000E+00 -0.42603657362E+03  0.42603657362E+03  0.00000000000E+00 0. -1.
          6    1    1    2  501    0  0.41652225538E+02 -0.44258221920E+02 -0.27840499573E+03  0.33284687132E+03  0.17200000000E+03 0. -1.
         -6    1    1    2    0  502 -0.41652225538E+02  0.44258221920E+02 -0.51318535623E+02  0.18950274457E+03  0.17200000000E+03 0. -1.
<mgrwt>
<rscale>  2 0.18242176E+03</rscale>
<asrwt>0</asrwt>
<pdfrwt beam="1">  1       21 0.24078261E-01 0.18242176E+03</pdfrwt>
<pdfrwt beam="2">  1       21 0.10650914E+00 0.18242176E+03</pdfrwt>
<totfact> 0.11568589E+04</totfact>
</mgrwt>
</event>
<event>
 4    1  0.2299148E-001  0.3208436E+03  0.7546771E-02  0.1075262E+00
         21   -1    0    0  501  502  0.00000000000E+00  0.00000000000E+00  0.11978506331E+03  0.11978506331E+03  0.00000000000E+00 0. -1.
         21   -1    0    0  502  503 -0.00000000000E+00 -0.00000000000E+00 -0.91410885209E+03  0.91410885209E+03  0.00000000000E+00 0.  1.
          6    1    1    2  501    0  0.19514178736E+03  0.18781979213E+03 -0.27066932702E+03  0.41976478661E+03  0.17200000000E+03 0. -1.
         -6    1    1    2    0  503 -0.19514178736E+03 -0.18781979213E+03 -0.52365446177E+03  0.61412912878E+03  0.17200000000E+03 0.  1.
<mgrwt>
<rscale>  2 0.32084356E+03</rscale>
<asrwt>0</asrwt>
<pdfrwt beam="1">  1       21 0.29946266E-01 0.32084356E+03</pdfrwt>
<pdfrwt beam="2">  1       21 0.22852721E+00 0.32084356E+03</pdfrwt>
<totfact> 0.84807567E+02</totfact>
</mgrwt>
</event>
<event>
 4    1  0.2299148E-001  0.1756775E+03  0.7546771E-02  0.1172053E+00
         21   -1    0    0  503  502  0.00000000000E+00  0.00000000000E+00  0.46220151244E+03  0.46220151244E+03  0.00000000000E+00 0. -1.
         21   -1    0    0  501  503 -0.00000000000E+00 -0.00000000000E+00 -0.66828859679E+02  0.66828859679E+02  0.00000000000E+00 0. -1.
          6    1    1    2  501    0 -0.19012106966E+02 -0.30284099953E+02  0.20533300721E+03  0.27022995905E+03  0.17200000000E+03 0.  1.
         -6    1    1    2    0  502  0.19012106966E+02  0.30284099953E+02  0.19003964555E+03  0.25880041307E+03  0.17200000000E+03 0.  1.
<mgrwt>
<rscale>  2 0.17567751E+03</rscale>
<asrwt>0</asrwt>
<pdfrwt beam="1">  1       21 0.11555037E+00 0.17567751E+03</pdfrwt>
<pdfrwt beam="2">  1       21 0.16707216E-01 0.17567751E+03</pdfrwt>
<totfact> 0.18870703E+04</totfact>
</mgrwt>
</event>
<event>
 4    1  0.2299148E-001  0.1782398E+03  0.7546771E-02  0.1169518E+00
         21   -1    0    0  501  502  0.00000000000E+00  0.00000000000E+00  0.76050248816E+03  0.76050248816E+03  0.00000000000E+00 0. -1.
         21   -1    0    0  502  503 -0.00000000000E+00 -0.00000000000E+00 -0.43482198291E+02  0.43482198291E+02  0.00000000000E+00 0. -1.
          6    1    1    2  501    0  0.45976801392E+02 -0.84587398826E+01  0.43818112316E+03  0.47304557206E+03  0.17200000000E+03 0.  1.
         -6    1    1    2    0  503 -0.45976801392E+02  0.84587398826E+01  0.27883916671E+03  0.33093911440E+03  0.17200000000E+03 0.  1.
<mgrwt>
<rscale>  2 0.17823977E+03</rscale>
<asrwt>0</asrwt>
<pdfrwt beam="1">  1       21 0.19012558E+00 0.17823977E+03</pdfrwt>
<pdfrwt beam="2">  1       21 0.10870552E-01 0.17823977E+03</pdfrwt>
<totfact> 0.11026757E+04</totfact>
</mgrwt>
</event>
<event>
 4    1  0.2299148E-001  0.1885855E+03  0.7546771E-02  0.1159743E+00
         21   -1    0    0  503  502  0.00000000000E+00  0.00000000000E+00  0.31430176509E+03  0.31430176509E+03  0.00000000000E+00 0.  1.
         21   -1    0    0  501  503 -0.00000000000E+00 -0.00000000000E+00 -0.13080680091E+03  0.13080680091E+03  0.00000000000E+00 0.  1.
          6    1    1    2  501    0 -0.72828529082E+02  0.26009598599E+02  0.17350504204E+03  0.25625864567E+03  0.17200000000E+03 0. -1.
         -6    1    1    2    0  502  0.72828529082E+02 -0.26009598599E+02  0.99899221399E+01  0.18884992034E+03  0.17200000000E+03 0. -1.
<mgrwt>
<rscale>  2 0.18858551E+03</rscale>
<asrwt>0</asrwt>
<pdfrwt beam="1">  1       21 0.78575440E-01 0.18858551E+03</pdfrwt>
<pdfrwt beam="2">  1       21 0.32701701E-01 0.18858551E+03</pdfrwt>
<totfact> 0.12925139E+04</totfact>
</mgrwt>
</event>
<event>
 4    1  0.2299148E-001  0.2058055E+03  0.7546771E-02  0.1144931E+00
         21   -1    0    0  503  502  0.00000000000E+00  0.00000000000E+00  0.31673671570E+03  0.31673671570E+03  0.00000000000E+00 0.  1.
         21   -1    0    0  501  503 -0.00000000000E+00 -0.00000000000E+00 -0.20130434720E+03  0.20130434720E+03  0.00000000000E+00 0.  1.
          6    1    1    2  501    0 -0.45383708194E+02  0.10349982418E+03 -0.92360006068E+02  0.22557984240E+03  0.17200000000E+03 0.  1.
         -6    1    1    2    0  502  0.45383708194E+02 -0.10349982418E+03  0.20779237456E+03  0.29246122051E+03  0.17200000000E+03 0.  1.
<mgrwt>
<rscale>  2 0.20580548E+03</rscale>
<asrwt>0</asrwt>
<pdfrwt beam="1">  1       21 0.79184178E-01 0.20580548E+03</pdfrwt>
<pdfrwt beam="2">  1       21 0.50326087E-01 0.20580548E+03</pdfrwt>
<totfact> 0.52377973E+03</totfact>
</mgrwt>
</event>
<event>
 4    1  0.2299148E-001  0.1854560E+03  0.7546771E-02  0.1162625E+00
         21   -1    0    0  501  502  0.00000000000E+00  0.00000000000E+00  0.13481623146E+03  0.13481623146E+03  0.00000000000E+00 0.  1.
         21   -1    0    0  502  503 -0.00000000000E+00 -0.00000000000E+00 -0.27568010753E+03  0.27568010753E+03  0.00000000000E+00 0.  1.
          6    1    1    2  501    0  0.33459826535E+02  0.60748330443E+02 -0.14376158917E+02  0.18601234795E+03  0.17200000000E+03 0.  1.
         -6    1    1    2    0  503 -0.33459826535E+02 -0.60748330443E+02 -0.12648771716E+03  0.22448399104E+03  0.17200000000E+03 0.  1.
<mgrwt>
<rscale>  2 0.18545598E+03</rscale>
<asrwt>0</asrwt>
<pdfrwt beam="1">  1       21 0.33704058E-01 0.18545598E+03</pdfrwt>
<pdfrwt beam="2">  1       21 0.68920026E-01 0.18545598E+03</pdfrwt>
<totfact> 0.16332758E+04</totfact>
</mgrwt>
</event>
<event>
 4    1  0.2299148E-001  0.2303284E+03  0.7546771E-02  0.1126409E+00
         21   -1    0    0  501  502  0.00000000000E+00  0.00000000000E+00  0.30587958692E+03  0.30587958692E+03  0.00000000000E+00 0. -1.
         21   -1    0    0  502  503 -0.00000000000E+00 -0.00000000000E+00 -0.18181358268E+03  0.18181358268E+03  0.00000000000E+00 0.  1.
          6    1    1    2  501    0  0.78061376148E+02  0.13180891122E+03  0.96959787043E+01  0.23053238281E+03  0.17200000000E+03 0. -1.
         -6    1    1    2    0  503 -0.78061376148E+02 -0.13180891122E+03  0.11437002553E+03  0.25716078679E+03  0.17200000000E+03 0.  1.
<mgrwt>
<rscale>  2 0.23032839E+03</rscale>
<asrwt>0</asrwt>
<pdfrwt beam="1">  1       21 0.76469896E-01 0.23032839E+03</pdfrwt>
<pdfrwt beam="2">  1       21 0.45453396E-01 0.23032839E+03</pdfrwt>
<totfact> 0.68831237E+03</totfact>
</mgrwt>
</event>
<event>
 4    1  0.2299148E-001  0.2019895E+03  0.7546771E-02  0.1148071E+00
         21   -1    0    0  501  502  0.00000000000E+00  0.00000000000E+00  0.87332448766E+02  0.87332448766E+02  0.00000000000E+00 0. -1.
         21   -1    0    0  502  503 -0.00000000000E+00 -0.00000000000E+00 -0.47657502565E+03  0.47657502565E+03  0.00000000000E+00 0. -1.
          6    1    1    2  501    0 -0.91689043511E+02  0.52998684805E+02 -0.23421467268E+03  0.30928345283E+03  0.17200000000E+03 0. -1.
         -6    1    1    2    0  503  0.91689043511E+02 -0.52998684805E+02 -0.15502790420E+03  0.25462402159E+03  0.17200000000E+03 0. -1.
<mgrwt>
<rscale>  2 0.20198946E+03</rscale>
<asrwt>0</asrwt>
<pdfrwt beam="1">  1       21 0.21833113E-01 0.20198946E+03</pdfrwt>
<pdfrwt beam="2">  1       21 0.11914375E+00 0.20198946E+03</pdfrwt>
<totfact> 0.10456355E+04</totfact>
</mgrwt>
</event>
<event>
 4    1  0.2299148E-001  0.1735050E+03  0.7546771E-02  0.1174241E+00
         21   -1    0    0  501  502  0.00000000000E+00  0.00000000000E+00  0.37529283743E+03  0.37529283743E+03  0.00000000000E+00 0. -1.
         21   -1    0    0  502  503 -0.00000000000E+00 -0.00000000000E+00 -0.89249842967E+02  0.89249842967E+02  0.00000000000E+00 0. -1.
          6    1    1    2  501    0 -0.14787965091E+01 -0.22755119004E+02  0.69118730715E+02  0.18676557824E+03  0.17200000000E+03 0. -1.
         -6    1    1    2    0  503  0.14787965091E+01  0.22755119004E+02  0.21692426375E+03  0.27777710216E+03  0.17200000000E+03 0. -1.
<mgrwt>
<rscale>  2 0.17350499E+03</rscale>
<asrwt>0</asrwt>
<pdfrwt beam="1">  1       21 0.93823205E-01 0.17350499E+03</pdfrwt>
<pdfrwt beam="2">  1       21 0.22312462E-01 0.17350499E+03</pdfrwt>
<totfact> 0.18146824E+04</totfact>
</mgrwt>
</event>
<event>
 4    1  0.2299148E-001  0.2161453E+03  0.7546771E-02  0.1136790E+00
         21   -1    0    0  503  502  0.00000000000E+00  0.00000000000E+00  0.87098164461E+02  0.87098164461E+02  0.00000000000E+00 0. -1.
         21   -1    0    0  501  503 -0.00000000000E+00 -0.00000000000E+00 -0.80834221972E+03  0.80834221972E+03  0.00000000000E+00 0. -1.
          6    1    1    2  501    0  0.31090971860E+02  0.12715393804E+03 -0.62031107312E+03  0.65689009730E+03  0.17200000000E+03 0. -1.
         -6    1    1    2    0  502 -0.31090971860E+02 -0.12715393804E+03 -0.10093298214E+03  0.23855028688E+03  0.17200000000E+03 0. -1.
<mgrwt>
<rscale>  2 0.21614526E+03</rscale>
<asrwt>0</asrwt>
<pdfrwt beam="1">  1       21 0.21774541E-01 0.21614526E+03</pdfrwt>
<pdfrwt beam="2">  1       21 0.20208555E+00 0.21614526E+03</pdfrwt>
<totfact> 0.25044174E+03</totfact>
</mgrwt>
</event>
<event>
 4    1  0.2299148E-001  0.2126854E+03  0.7546771E-02  0.1139457E+00
         21   -1    0    0  503  502  0.00000000000E+00  0.00000000000E+00  0.16907664311E+03  0.16907664311E+03  0.00000000000E+00 0.  1.
         21   -1    0    0  501  503 -0.00000000000E+00 -0.00000000000E+00 -0.48080234654E+03  0.48080234654E+03  0.00000000000E+00 0.  1.
          6    1    1    2  501    0  0.60902158910E+02 -0.10927957229E+03 -0.37227134400E+03  0.42874357306E+03  0.17200000000E+03 0.  1.
         -6    1    1    2    0  502 -0.60902158910E+02  0.10927957229E+03  0.60545640572E+02  0.22113541659E+03  0.17200000000E+03 0.  1.
<mgrwt>
<rscale>  2 0.21268544E+03</rscale>
<asrwt>0</asrwt>
<pdfrwt beam="1">  1       21 0.42269161E-01 0.21268544E+03</pdfrwt>
<pdfrwt beam="2">  1       21 0.12020059E+00 0.21268544E+03</pdfrwt>
<totfact> 0.27840299E+03</totfact>
</mgrwt>
</event>
<event>
 4    1  0.2299148E-001  0.2837214E+03  0.7546771E-02  0.1093674E+00
         21   -1    0    0  503  502  0.00000000000E+00  0.00000000000E+00  0.18313857623E+03  0.18313857623E+03  0.00000000000E+00 0.  1.
         21   -1    0    0  501  503 -0.00000000000E+00 -0.00000000000E+00 -0.53425206262E+03  0.53425206262E+03  0.00000000000E+00 0. -1.
          6    1    1    2  501    0 -0.28933779827E+02 -0.22377822055E+03 -0.32657907055E+03  0.43261038468E+03  0.17200000000E+03 0. -1.
         -6    1    1    2    0  502  0.28933779827E+02  0.22377822055E+03 -0.24534415838E+02  0.28478025418E+03  0.17200000000E+03 0.  1.
<mgrwt>
<rscale>  2 0.28372144E+03</rscale>
<asrwt>0</asrwt>
<pdfrwt beam="1">  1       21 0.45784644E-01 0.28372144E+03</pdfrwt>
<pdfrwt beam="2">  1       21 0.13356301E+00 0.28372144E+03</pdfrwt>
<totfact> 0.17167167E+03</totfact>
</mgrwt>
</event>
<event>
 4    1  0.2299148E-001  0.1812676E+03  0.7546771E-02  0.1166582E+00
         21   -1    0    0  503  502  0.00000000000E+00  0.00000000000E+00  0.99232901036E+03  0.99232901036E+03  0.00000000000E+00 0. -1.
         21   -1    0    0  501  503 -0.00000000000E+00 -0.00000000000E+00 -0.38961012631E+02  0.38961012631E+02  0.00000000000E+00 0. -1.
          6    1    1    2  501    0  0.43363304902E+02 -0.37330611032E+02  0.27689169369E+03  0.33094857722E+03  0.17200000000E+03 0. -1.
         -6    1    1    2    0  502 -0.43363304902E+02  0.37330611032E+02  0.67647630405E+03  0.70034144578E+03  0.17200000000E+03 0. -1.
<mgrwt>
<rscale>  2 0.18126762E+03</rscale>
<asrwt>0</asrwt>
<pdfrwt beam="1">  1       21 0.24808217E+00 0.18126762E+03</pdfrwt>
<pdfrwt beam="2">  1       21 0.97402564E-02 0.18126762E+03</pdfrwt>
<totfact> 0.58701783E+03</totfact>
</mgrwt>
</event>
<event>
 4    1  0.2299148E-001  0.1992992E+03  0.7546771E-02  0.1150332E+00
         21   -1    0    0  501  502  0.00000000000E+00  0.00000000000E+00  0.68230648813E+03  0.68230648813E+03  0.00000000000E+00 0. -1.
         21   -1    0    0  502  503 -0.00000000000E+00 -0.00000000000E+00 -0.98978309469E+02  0.98978309469E+02  0.00000000000E+00 0.  1.
          6    1    1    2  501    0  0.10052715838E+03  0.55187860164E+01  0.54235954777E+03  0.57781835002E+03  0.17200000000E+03 0. -1.
         -6    1    1    2    0  503 -0.10052715838E+03 -0.55187860164E+01  0.40968630898E+02  0.20346644758E+03  0.17200000000E+03 0.  1.
<mgrwt>
<rscale>  2 0.19929919E+03</rscale>
<asrwt>0</asrwt>
<pdfrwt beam="1">  1       21 0.17057661E+00 0.19929919E+03</pdfrwt>
<pdfrwt beam="2">  1       21 0.24744579E-01 0.19929919E+03</pdfrwt>
<totfact> 0.32453978E+03</totfact>
</mgrwt>
</event>
<event>
 4    1  0.2299148E-001  0.2558202E+03  0.7546771E-02  0.1109681E+00
         21   -1    0    0  501  502  0.00000000000E+00  0.00000000000E+00  0.26743148456E+03  0.26743148456E+03  0.00000000000E+00 0.  1.
         21   -1    0    0  502  503 -0.00000000000E+00 -0.00000000000E+00 -0.24591470648E+03  0.24591470648E+03  0.00000000000E+00 0. -1.
          6    1    1    2  501    0  0.11151159771E+03 -0.15305277917E+03 -0.71834877249E+01  0.25592106621E+03  0.17200000000E+03 0.  1.
         -6    1    1    2    0  503 -0.11151159771E+03  0.15305277917E+03  0.28700265800E+02  0.25742512483E+03  0.17200000000E+03 0.  1.
<mgrwt>
<rscale>  2 0.25582023E+03</rscale>
<asrwt>0</asrwt>
<pdfrwt beam="1">  1       21 0.66857871E-01 0.25582023E+03</pdfrwt>
<pdfrwt beam="2">  1       21 0.61478677E-01 0.25582023E+03</pdfrwt>
<totfact> 0.48226138E+03</totfact>
</mgrwt>
</event>
<event>
 4    1  0.2299148E-001  0.1950675E+03  0.7546771E-02  0.1153969E+00
         21   -1    0    0  503  502  0.00000000000E+00  0.00000000000E+00  0.12679815370E+03  0.12679815370E+03  0.00000000000E+00 0.  1.
         21   -1    0    0  501  503 -0.00000000000E+00 -0.00000000000E+00 -0.47406868344E+03  0.47406868344E+03  0.00000000000E+00 0.  1.
          6    1    1    2  501    0  0.76620577613E+01 -0.91698637050E+02 -0.35563502280E+03  0.40562003970E+03  0.17200000000E+03 0.  1.
         -6    1    1    2    0  502 -0.76620577613E+01  0.91698637050E+02  0.83644930516E+01  0.19524679744E+03  0.17200000000E+03 0.  1.
<mgrwt>
<rscale>  2 0.19506755E+03</rscale>
<asrwt>0</asrwt>
<pdfrwt beam="1">  1       21 0.31699539E-01 0.19506755E+03</pdfrwt>
<pdfrwt beam="2">  1       21 0.11851717E+00 0.19506755E+03</pdfrwt>
<totfact> 0.52008435E+03</totfact>
</mgrwt>
</event>
<event>
 4    1  0.2299148E-001  0.2116815E+03  0.7546771E-02  0.1140241E+00
         21   -1    0    0  501  502  0.00000000000E+00  0.00000000000E+00  0.94752477855E+03  0.94752477855E+03  0.00000000000E+00 0.  1.
         21   -1    0    0  502  503 -0.00000000000E+00 -0.00000000000E+00 -0.49443488110E+02  0.49443488110E+02  0.00000000000E+00 0. -1.
          6    1    1    2  501    0 -0.92687368768E+02 -0.81450006103E+02  0.55305747890E+03  0.59218377788E+03  0.17200000000E+03 0. -1.
         -6    1    1    2    0  503  0.92687368768E+02  0.81450006103E+02  0.34502381154E+03  0.40478448877E+03  0.17200000000E+03 0. -1.
<mgrwt>
<rscale>  2 0.21168149E+03</rscale>
<asrwt>0</asrwt>
<pdfrwt beam="1">  1       21 0.23688114E+00 0.21168149E+03</pdfrwt>
<pdfrwt beam="2">  1       21 0.12360875E-01 0.21168149E+03</pdfrwt>
<totfact> 0.43424587E+03</totfact>
</mgrwt>
</event>
<event>
 4    1  0.2299148E-001  0.2952149E+03  0.7546771E-02  0.1087657E+00
         21   -1    0    0  503  502  0.00000000000E+00  0.00000000000E+00  0.25036661240E+03  0.25036661240E+03  0.00000000000E+00 0. -1.
         21   -1    0    0  501  503 -0.00000000000E+00 -0.00000000000E+00 -0.38907189329E+03  0.38907189329E+03  0.00000000000E+00 0.  1.
          6    1    1    2  501    0 -0.19659353459E+03  0.13754560916E+03 -0.17310880848E+03  0.34222576177E+03  0.17200000000E+03 0.  1.
         -6    1    1    2    0  502  0.19659353459E+03 -0.13754560916E+03  0.34403527588E+02  0.29721274393E+03  0.17200000000E+03 0. -1.
<mgrwt>
<rscale>  2 0.29521486E+03</rscale>
<asrwt>0</asrwt>
<pdfrwt beam="1">  1       21 0.62591653E-01 0.29521486E+03</pdfrwt>
<pdfrwt beam="2">  1       21 0.97267973E-01 0.29521486E+03</pdfrwt>
<totfact> 0.19207285E+03</totfact>
</mgrwt>
</event>
<event>
 4    1  0.2299148E-001  0.1781925E+03  0.7546771E-02  0.1169564E+00
         21   -1    0    0  503  502  0.00000000000E+00  0.00000000000E+00  0.13428975423E+04  0.13428975423E+04  0.00000000000E+00 0.  1.
         21   -1    0    0  501  503 -0.00000000000E+00 -0.00000000000E+00 -0.31072932636E+02  0.31072932636E+02  0.00000000000E+00 0. -1.
          6    1    1    2  501    0  0.21994018005E+02 -0.41046812755E+02  0.32002362238E+03  0.36628908876E+03  0.17200000000E+03 0. -1.
         -6    1    1    2    0  502 -0.21994018005E+02  0.41046812755E+02  0.99180098731E+03  0.10076813862E+04  0.17200000000E+03 0.  1.
<mgrwt>
<rscale>  2 0.17819253E+03</rscale>
<asrwt>0</asrwt>
<pdfrwt beam="1">  1       21 0.33572419E+00 0.17819253E+03</pdfrwt>
<pdfrwt beam="2">  1       21 0.77682377E-02 0.17819253E+03</pdfrwt>
<totfact> 0.27320368E+03</totfact>
</mgrwt>
</event>
<event>
 4    1  0.2299148E-001  0.1836683E+03  0.7546771E-02  0.1164299E+00
         21   -1    0    0  503  502  0.00000000000E+00  0.00000000000E+00  0.23878954797E+03  0.23878954797E+03  0.00000000000E+00 0.  1.
         21   -1    0    0  501  503 -0.00000000000E+00 -0.00000000000E+00 -0.21533251112E+03  0.21533251112E+03  0.00000000000E+00 0.  1.
          6    1    1    2  501    0  0.10351626677E+01 -0.64412456218E+02 -0.12143464728E+03  0.22018267334E+03  0.17200000000E+03 0.  1.
         -6    1    1    2    0  502 -0.10351626677E+01  0.64412456218E+02  0.14489168413E+03  0.23393938575E+03  0.17200000000E+03 0.  1.
<mgrwt>
<rscale>  2 0.18366828E+03</rscale>
<asrwt>0</asrwt>
<pdfrwt beam="1">  1       21 0.59697387E-01 0.18366828E+03</pdfrwt>
<pdfrwt beam="2">  1       21 0.53833128E-01 0.18366828E+03</pdfrwt>
<totfact> 0.86038845E+03</totfact>
</mgrwt>
</event>
<event>
 4    1  0.2299148E-001  0.3096373E+03  0.7546771E-02  0.1080520E+00
         21   -1    0    0  503  502  0.00000000000E+00  0.00000000000E+00  0.39799675083E+03  0.39799675083E+03  0.00000000000E+00 0. -1.
         21   -1    0    0  501  503 -0.00000000000E+00 -0.00000000000E+00 -0.25781264378E+03  0.25781264378E+03  0.00000000000E+00 0. -1.
          6    1    1    2  501    0 -0.18003042900E+03 -0.18406603068E+03 -0.13906323848E+02  0.30994942307E+03  0.17200000000E+03 0. -1.
         -6    1    1    2    0  502  0.18003042900E+03  0.18406603068E+03  0.15409043090E+03  0.34585997154E+03  0.17200000000E+03 0. -1.
<mgrwt>
<rscale>  2 0.30963730E+03</rscale>
<asrwt>0</asrwt>
<pdfrwt beam="1">  1       21 0.99499187E-01 0.30963730E+03</pdfrwt>
<pdfrwt beam="2">  1       21 0.64453161E-01 0.30963730E+03</pdfrwt>
<totfact> 0.16917432E+03</totfact>
</mgrwt>
</event>
<event>
 4    1  0.2299148E-001  0.1819550E+03  0.7546771E-02  0.1165924E+00
         21   -1    0    0  501  502  0.00000000000E+00  0.00000000000E+00  0.14619323987E+03  0.14619323987E+03  0.00000000000E+00 0.  1.
         21   -1    0    0  502  503 -0.00000000000E+00 -0.00000000000E+00 -0.22843416844E+03  0.22843416844E+03  0.00000000000E+00 0.  1.
          6    1    1    2  501    0  0.54735759235E+02  0.22970185938E+02 -0.23728645531E+02  0.18349572584E+03  0.17200000000E+03 0.  1.
         -6    1    1    2    0  503 -0.54735759235E+02 -0.22970185938E+02 -0.58512283040E+02  0.19113168248E+03  0.17200000000E+03 0.  1.
<mgrwt>
<rscale>  2 0.18195503E+03</rscale>
<asrwt>0</asrwt>
<pdfrwt beam="1">  1       21 0.36548310E-01 0.18195503E+03</pdfrwt>
<pdfrwt beam="2">  1       21 0.57108542E-01 0.18195503E+03</pdfrwt>
<totfact> 0.20923496E+04</totfact>
</mgrwt>
</event>
<event>
 4    1  0.2299148E-001  0.2190046E+03  0.7546771E-02  0.1134627E+00
         21   -1    0    0  503  502  0.00000000000E+00  0.00000000000E+00  0.18077541776E+03  0.18077541776E+03  0.00000000000E+00 0. -1.
         21   -1    0    0  501  503 -0.00000000000E+00 -0.00000000000E+00 -0.27715147125E+03  0.27715147125E+03  0.00000000000E+00 0.  1.
          6    1    1    2  501    0 -0.12756496921E+03 -0.45893484996E+02 -0.95498515955E+02  0.23892048863E+03  0.17200000000E+03 0. -1.
         -6    1    1    2    0  502  0.12756496921E+03  0.45893484996E+02 -0.87753753389E+00  0.21900640038E+03  0.17200000000E+03 0. -1.
<mgrwt>
<rscale>  2 0.21900464E+03</rscale>
<asrwt>0</asrwt>
<pdfrwt beam="1">  1       21 0.45193855E-01 0.21900464E+03</pdfrwt>
<pdfrwt beam="2">  1       21 0.69287868E-01 0.21900464E+03</pdfrwt>
<totfact> 0.87419690E+03</totfact>
</mgrwt>
</event>
<event>
 4    1  0.2299148E-001  0.1991644E+03  0.7546771E-02  0.1150446E+00
         21   -1    0    0  503  502  0.00000000000E+00  0.00000000000E+00  0.25717685340E+03  0.25717685340E+03  0.00000000000E+00 0. -1.
         21   -1    0    0  501  503 -0.00000000000E+00 -0.00000000000E+00 -0.15725359942E+03  0.15725359942E+03  0.00000000000E+00 0. -1.
          6    1    1    2  501    0  0.93872840835E+02 -0.35641829288E+02  0.78656632298E+02  0.21413387412E+03  0.17200000000E+03 0. -1.
         -6    1    1    2    0  502 -0.93872840835E+02  0.35641829288E+02  0.21266621684E+02  0.20029657870E+03  0.17200000000E+03 0. -1.
<mgrwt>
<rscale>  2 0.19916438E+03</rscale>
<asrwt>0</asrwt>
<pdfrwt beam="1">  1       21 0.64294213E-01 0.19916438E+03</pdfrwt>
<pdfrwt beam="2">  1       21 0.39313400E-01 0.19916438E+03</pdfrwt>
<totfact> 0.13862843E+04</totfact>
</mgrwt>
</event>
<event>
 4    1  0.2299148E-001  0.1915134E+03  0.7546771E-02  0.1157103E+00
         21   -1    0    0  501  502  0.00000000000E+00  0.00000000000E+00  0.10008636064E+03  0.10008636064E+03  0.00000000000E+00 0. -1.
         21   -1    0    0  502  503 -0.00000000000E+00 -0.00000000000E+00 -0.45614854748E+03  0.45614854748E+03  0.00000000000E+00 0. -1.
          6    1    1    2  501    0  0.62163927904E+02  0.56824399801E+02 -0.54706299400E+02  0.19917365674E+03  0.17200000000E+03 0. -1.
         -6    1    1    2    0  503 -0.62163927904E+02 -0.56824399801E+02 -0.30135588744E+03  0.35706125139E+03  0.17200000000E+03 0. -1.
<mgrwt>
<rscale>  2 0.19151336E+03</rscale>
<asrwt>0</asrwt>
<pdfrwt beam="1">  1       21 0.25021591E-01 0.19151336E+03</pdfrwt>
<pdfrwt beam="2">  1       21 0.11403713E+00 0.19151336E+03</pdfrwt>
<totfact> 0.90566610E+03</totfact>
</mgrwt>
</event>
<event>
 4    1  0.2299148E-001  0.2546861E+03  0.7546771E-02  0.1110379E+00
         21   -1    0    0  501  502  0.00000000000E+00  0.00000000000E+00  0.33355927330E+03  0.33355927330E+03  0.00000000000E+00 0. -1.
         21   -1    0    0  502  503 -0.00000000000E+00 -0.00000000000E+00 -0.19489969647E+03  0.19489969647E+03  0.00000000000E+00 0.  1.
          6    1    1    2  501    0 -0.14655968444E+03  0.11747886791E+03  0.56826233644E+02  0.26094874274E+03  0.17200000000E+03 0.  1.
         -6    1    1    2    0  503  0.14655968444E+03 -0.11747886791E+03  0.81833343186E+02  0.26751022703E+03  0.17200000000E+03 0. -1.
<mgrwt>
<rscale>  2 0.25468613E+03</rscale>
<asrwt>0</asrwt>
<pdfrwt beam="1">  1       21 0.83389818E-01 0.25468613E+03</pdfrwt>
<pdfrwt beam="2">  1       21 0.48724925E-01 0.25468613E+03</pdfrwt>
<totfact> 0.48185578E+03</totfact>
</mgrwt>
</event>
<event>
 4    1  0.2299148E-001  0.1842688E+03  0.7546771E-02  0.1163734E+00
         21   -1    0    0  501  502  0.00000000000E+00  0.00000000000E+00  0.20166876090E+03  0.20166876090E+03  0.00000000000E+00 0.  1.
         21   -1    0    0  502  503 -0.00000000000E+00 -0.00000000000E+00 -0.23290076661E+03  0.23290076661E+03  0.00000000000E+00 0.  1.
          6    1    1    2  501    0 -0.56852002617E+02 -0.33746721235E+02  0.98757878188E+02  0.20906484616E+03  0.17200000000E+03 0.  1.
         -6    1    1    2    0  503  0.56852002617E+02  0.33746721235E+02 -0.12998988390E+03  0.22550468135E+03  0.17200000000E+03 0.  1.
<mgrwt>
<rscale>  2 0.18426880E+03</rscale>
<asrwt>0</asrwt>
<pdfrwt beam="1">  1       21 0.50417190E-01 0.18426880E+03</pdfrwt>
<pdfrwt beam="2">  1       21 0.58225192E-01 0.18426880E+03</pdfrwt>
<totfact> 0.10407885E+04</totfact>
</mgrwt>
</event>
<event>
 4    1  0.2299148E-001  0.2328990E+03  0.7546771E-02  0.1124616E+00
         21   -1    0    0  503  502  0.00000000000E+00  0.00000000000E+00  0.38229402211E+03  0.38229402211E+03  0.00000000000E+00 0.  1.
         21   -1    0    0  501  503 -0.00000000000E+00 -0.00000000000E+00 -0.31758236782E+03  0.31758236782E+03  0.00000000000E+00 0. -1.
          6    1    1    2  501    0 -0.11092976476E+03 -0.11114199560E+03 -0.22792683427E+03  0.32587205722E+03  0.17200000000E+03 0. -1.
         -6    1    1    2    0  502  0.11092976476E+03  0.11114199560E+03  0.29263848857E+03  0.37400433271E+03  0.17200000000E+03 0.  1.
<mgrwt>
<rscale>  2 0.23289903E+03</rscale>
<asrwt>0</asrwt>
<pdfrwt beam="1">  1       21 0.95573505E-01 0.23289903E+03</pdfrwt>
<pdfrwt beam="2">  1       21 0.79395592E-01 0.23289903E+03</pdfrwt>
<totfact> 0.12319659E+03</totfact>
</mgrwt>
</event>
<event>
 4    1  0.2299148E-001  0.2210435E+03  0.7546771E-02  0.1133107E+00
         21   -1    0    0  503  502  0.00000000000E+00  0.00000000000E+00  0.63639047284E+03  0.63639047284E+03  0.00000000000E+00 0. -1.
         21   -1    0    0  501  503 -0.00000000000E+00 -0.00000000000E+00 -0.90251212146E+02  0.90251212146E+02  0.00000000000E+00 0. -1.
          6    1    1    2  501    0 -0.12825681425E+03  0.53163980856E+02  0.13268687538E+03  0.25781005830E+03  0.17200000000E+03 0. -1.
         -6    1    1    2    0  502  0.12825681425E+03 -0.53163980856E+02  0.41345238531E+03  0.46883162669E+03  0.17200000000E+03 0. -1.
<mgrwt>
<rscale>  2 0.22104348E+03</rscale>
<asrwt>0</asrwt>
<pdfrwt beam="1">  1       21 0.15909761E+00 0.22104348E+03</pdfrwt>
<pdfrwt beam="2">  1       21 0.22562805E-01 0.22104348E+03</pdfrwt>
<totfact> 0.45938646E+03</totfact>
</mgrwt>
</event>
<event>
 4    1  0.2299148E-001  0.1734835E+03  0.7546771E-02  0.1174263E+00
         21   -1    0    0  503  502  0.00000000000E+00  0.00000000000E+00  0.28687687220E+03  0.28687687220E+03  0.00000000000E+00 0.  1.
         21   -1    0    0  501  503 -0.00000000000E+00 -0.00000000000E+00 -0.10501794294E+03  0.10501794294E+03  0.00000000000E+00 0.  1.
          6    1    1    2  501    0  0.21529148744E+02  0.70015666287E+01  0.84675169586E+02  0.19304509972E+03  0.17200000000E+03 0. -1.
         -6    1    1    2    0  502 -0.21529148744E+02 -0.70015666287E+01  0.97183759669E+02  0.19884971542E+03  0.17200000000E+03 0. -1.
<mgrwt>
<rscale>  2 0.17348350E+03</rscale>
<asrwt>0</asrwt>
<pdfrwt beam="1">  1       21 0.71719216E-01 0.17348350E+03</pdfrwt>
<pdfrwt beam="2">  1       21 0.26254486E-01 0.17348350E+03</pdfrwt>
<totfact> 0.24493137E+04</totfact>
</mgrwt>
</event>
<event>
 4    1  0.2299148E-001  0.1778829E+03  0.7546771E-02  0.1169868E+00
         21   -1    0    0  503  502  0.00000000000E+00  0.00000000000E+00  0.34449154386E+03  0.34449154386E+03  0.00000000000E+00 0. -1.
         21   -1    0    0  501  503 -0.00000000000E+00 -0.00000000000E+00 -0.92381080658E+02  0.92381080658E+02  0.00000000000E+00 0. -1.
          6    1    1    2  501    0  0.13919983768E+02  0.43180707440E+02  0.10952905015E+03  0.20889938313E+03  0.17200000000E+03 0.  1.
         -6    1    1    2    0  502 -0.13919983768E+02 -0.43180707440E+02  0.14258141304E+03  0.22797324139E+03  0.17200000000E+03 0.  1.
<mgrwt>
<rscale>  2 0.17788294E+03</rscale>
<asrwt>0</asrwt>
<pdfrwt beam="1">  1       21 0.86122883E-01 0.17788294E+03</pdfrwt>
<pdfrwt beam="2">  1       21 0.23095271E-01 0.17788294E+03</pdfrwt>
<totfact> 0.20660994E+04</totfact>
</mgrwt>
</event>
<event>
 4    1  0.2299148E-001  0.1994357E+03  0.7546771E-02  0.1150216E+00
         21   -1    0    0  503  502  0.00000000000E+00  0.00000000000E+00  0.19569992603E+03  0.19569992603E+03  0.00000000000E+00 0.  1.
         21   -1    0    0  501  503 -0.00000000000E+00 -0.00000000000E+00 -0.21623659270E+03  0.21623659270E+03  0.00000000000E+00 0.  1.
          6    1    1    2  501    0 -0.99606408761E+02 -0.16406602464E+02 -0.60758013183E+02  0.20848536984E+03  0.17200000000E+03 0.  1.
         -6    1    1    2    0  502  0.99606408761E+02  0.16406602464E+02  0.40221346518E+02  0.20345114889E+03  0.17200000000E+03 0.  1.
<mgrwt>
<rscale>  2 0.19943574E+03</rscale>
<asrwt>0</asrwt>
<pdfrwt beam="1">  1       21 0.48924982E-01 0.19943574E+03</pdfrwt>
<pdfrwt beam="2">  1       21 0.54059148E-01 0.19943574E+03</pdfrwt>
<totfact> 0.12839768E+04</totfact>
</mgrwt>
</event>
<event>
 4    1  0.2299148E-001  0.1769498E+03  0.7546771E-02  0.1170788E+00
         21   -1    0    0  503  502  0.00000000000E+00  0.00000000000E+00  0.20888430537E+03  0.20888430537E+03  0.00000000000E+00 0.  1.
         21   -1    0    0  501  503 -0.00000000000E+00 -0.00000000000E+00 -0.15177079907E+03  0.15177079907E+03  0.00000000000E+00 0.  1.
          6    1    1    2  501    0 -0.35731423966E+02  0.21225048642E+02  0.85226307033E+01  0.17715493948E+03  0.17200000000E+03 0.  1.
         -6    1    1    2    0  502  0.35731423966E+02 -0.21225048642E+02  0.48590875598E+02  0.18350016496E+03  0.17200000000E+03 0.  1.
<mgrwt>
<rscale>  2 0.17694982E+03</rscale>
<asrwt>0</asrwt>
<pdfrwt beam="1">  1       21 0.52221076E-01 0.17694982E+03</pdfrwt>
<pdfrwt beam="2">  1       21 0.37942700E-01 0.17694982E+03</pdfrwt>
<totfact> 0.23519453E+04</totfact>
</mgrwt>
</event>
<event>
 4    1  0.2299148E-001  0.1796863E+03  0.7546771E-02  0.1168107E+00
         21   -1    0    0  501  502  0.00000000000E+00  0.00000000000E+00  0.60334405821E+02  0.60334405821E+02  0.00000000000E+00 0.  1.
         21   -1    0    0  502  503 -0.00000000000E+00 -0.00000000000E+00 -0.87049265325E+03  0.87049265325E+03  0.00000000000E+00 0.  1.
          6    1    1    2  501    0 -0.16386892573E+02  0.49342208677E+02 -0.11620466271E+03  0.21398763385E+03  0.17200000000E+03 0.  1.
         -6    1    1    2    0  503  0.16386892573E+02 -0.49342208677E+02 -0.69395358472E+03  0.71683942522E+03  0.17200000000E+03 0.  1.
<mgrwt>
<rscale>  2 0.17968635E+03</rscale>
<asrwt>0</asrwt>
<pdfrwt beam="1">  1       21 0.15083602E-01 0.17968635E+03</pdfrwt>
<pdfrwt beam="2">  1       21 0.21762316E+00 0.17968635E+03</pdfrwt>
<totfact> 0.40938489E+03</totfact>
</mgrwt>
</event>
<event>
 4    1  0.2299148E-001  0.2217839E+03  0.7546771E-02  0.1132560E+00
         21   -1    0    0  503  502  0.00000000000E+00  0.00000000000E+00  0.31895818469E+02  0.31895818469E+02  0.00000000000E+00 0.  1.
         21   -1    0    0  501  503 -0.00000000000E+00 -0.00000000000E+00 -0.15820909441E+04  0.15820909441E+04  0.00000000000E+00 0. -1.
          6    1    1    2  501    0  0.33609461631E+02 -0.13592098041E+03 -0.64687391663E+03  0.68383768018E+03  0.17200000000E+03 0.  1.
         -6    1    1    2    0  502 -0.33609461631E+02  0.13592098041E+03 -0.90332120899E+03  0.93014908237E+03  0.17200000000E+03 0.  1.
<mgrwt>
<rscale>  2 0.22178392E+03</rscale>
<asrwt>0</asrwt>
<pdfrwt beam="1">  1       21 0.79739548E-02 0.22178392E+03</pdfrwt>
<pdfrwt beam="2">  1       21 0.39552273E+00 0.22178392E+03</pdfrwt>
<totfact> 0.10750905E+03</totfact>
</mgrwt>
</event>
<event>
 4    1  0.2299148E-001  0.2217428E+03  0.7546771E-02  0.1132590E+00
         21   -1    0    0  503  502  0.00000000000E+00  0.00000000000E+00  0.50025085656E+03  0.50025085656E+03  0.00000000000E+00 0.  1.
         21   -1    0    0  501  503 -0.00000000000E+00 -0.00000000000E+00 -0.23278243466E+03  0.23278243466E+03  0.00000000000E+00 0.  1.
          6    1    1    2  501    0 -0.12601048683E+03 -0.60887127200E+02 -0.14485660214E+03  0.26486472063E+03  0.17200000000E+03 0.  1.
         -6    1    1    2    0  502  0.12601048683E+03  0.60887127200E+02  0.41232502403E+03  0.46816857059E+03  0.17200000000E+03 0.  1.
<mgrwt>
<rscale>  2 0.22174284E+03</rscale>
<asrwt>0</asrwt>
<pdfrwt beam="1">  1       21 0.12506271E+00 0.22174284E+03</pdfrwt>
<pdfrwt beam="2">  1       21 0.58195610E-01 0.22174284E+03</pdfrwt>
<totfact> 0.12823188E+03</totfact>
</mgrwt>
</event>
<event>
 4    1  0.2299148E-001  0.2736988E+03  0.7546771E-02  0.1099181E+00
         21   -1    0    0  503  502  0.00000000000E+00  0.00000000000E+00  0.63803241220E+03  0.63803241220E+03  0.00000000000E+00 0.  1.
         21   -1    0    0  501  503 -0.00000000000E+00 -0.00000000000E+00 -0.12409616829E+03  0.12409616829E+03  0.00000000000E+00 0. -1.
          6    1    1    2  501    0 -0.17218690696E+02  0.21220400261E+03  0.16851234129E+03  0.32141473395E+03  0.17200000000E+03 0. -1.
         -6    1    1    2    0  502  0.17218690696E+02 -0.21220400261E+03  0.34542390263E+03  0.44071384654E+03  0.17200000000E+03 0.  1.
<mgrwt>
<rscale>  2 0.27369878E+03</rscale>
<asrwt>0</asrwt>
<pdfrwt beam="1">  1       21 0.15950809E+00 0.27369878E+03</pdfrwt>
<pdfrwt beam="2">  1       21 0.31024044E-01 0.27369878E+03</pdfrwt>
<totfact> 0.23724972E+03</totfact>
</mgrwt>
</event>
<event>
 4    1  0.2299148E-001  0.2607732E+03  0.7546771E-02  0.1106680E+00
         21   -1    0    0  503  502  0.00000000000E+00  0.00000000000E+00  0.30931720403E+03  0.30931720403E+03  0.00000000000E+00 0. -1.
         21   -1    0    0  501  503 -0.00000000000E+00 -0.00000000000E+00 -0.25252076211E+03  0.25252076211E+03  0.00000000000E+00 0. -1.
          6    1    1    2  501    0 -0.16812136331E+03 -0.10076639101E+03 -0.72649805870E+02  0.27070399452E+03  0.17200000000E+03 0. -1.
         -6    1    1    2    0  502  0.16812136331E+03  0.10076639101E+03  0.12944624779E+03  0.29113397161E+03  0.17200000000E+03 0. -1.
<mgrwt>
<rscale>  2 0.26077319E+03</rscale>
<asrwt>0</asrwt>
<pdfrwt beam="1">  1       21 0.77329301E-01 0.26077319E+03</pdfrwt>
<pdfrwt beam="2">  1       21 0.63130191E-01 0.26077319E+03</pdfrwt>
<totfact> 0.32793759E+03</totfact>
</mgrwt>
</event>
<event>
 4    1  0.2299148E-001  0.1753826E+03  0.7546771E-02  0.1172348E+00
         21   -1    0    0  501  502  0.00000000000E+00  0.00000000000E+00  0.82117073211E+03  0.82117073211E+03  0.00000000000E+00 0. -1.
         21   -1    0    0  502  503 -0.00000000000E+00 -0.00000000000E+00 -0.44261172484E+02  0.44261172484E+02  0.00000000000E+00 0. -1.
          6    1    1    2  501    0  0.31499774795E+02  0.13521158068E+02  0.55810757422E+03  0.58501548863E+03  0.17200000000E+03 0. -1.
         -6    1    1    2    0  503 -0.31499774795E+02 -0.13521158068E+02  0.21880198540E+03  0.28041641596E+03  0.17200000000E+03 0. -1.
<mgrwt>
<rscale>  2 0.17538260E+03</rscale>
<asrwt>0</asrwt>
<pdfrwt beam="1">  1       21 0.20529263E+00 0.17538260E+03</pdfrwt>
<pdfrwt beam="2">  1       21 0.11065296E-01 0.17538260E+03</pdfrwt>
<totfact> 0.85570743E+03</totfact>
</mgrwt>
</event>
<event>
 4    1  0.2299148E-001  0.1879886E+03  0.7546771E-02  0.1160288E+00
         21   -1    0    0  503  502  0.00000000000E+00  0.00000000000E+00  0.26652761608E+03  0.26652761608E+03  0.00000000000E+00 0. -1.
         21   -1    0    0  501  503 -0.00000000000E+00 -0.00000000000E+00 -0.13577311314E+03  0.13577311314E+03  0.00000000000E+00 0. -1.
          6    1    1    2  501    0 -0.54543903965E+02 -0.52732153696E+02  0.34592917222E+02  0.19114493824E+03  0.17200000000E+03 0.  1.
         -6    1    1    2    0  502  0.54543903965E+02  0.52732153696E+02  0.96161585718E+02  0.21115579097E+03  0.17200000000E+03 0.  1.
<mgrwt>
<rscale>  2 0.18798861E+03</rscale>
<asrwt>0</asrwt>
<pdfrwt beam="1">  1       21 0.66631903E-01 0.18798861E+03</pdfrwt>
<pdfrwt beam="2">  1       21 0.33943279E-01 0.18798861E+03</pdfrwt>
<totfact> 0.17315403E+04</totfact>
</mgrwt>
</event>
<event>
 4    1  0.2299148E-001  0.1981479E+03  0.7546771E-02  0.1151311E+00
         21   -1    0    0  501  502  0.00000000000E+00  0.00000000000E+00  0.22076695630E+03  0.22076695630E+03  0.00000000000E+00 0.  1.
         21   -1    0    0  502  503 -0.00000000000E+00 -0.00000000000E+00 -0.20774955969E+03  0.20774955969E+03  0.00000000000E+00 0.  1.
          6    1    1    2  501    0 -0.50561495059E+02  0.84392688510E+02  0.87796735652E+02  0.21672761118E+03  0.17200000000E+03 0.  1.
         -6    1    1    2    0  503  0.50561495059E+02 -0.84392688510E+02 -0.74779339042E+02  0.21178890482E+03  0.17200000000E+03 0.  1.
<mgrwt>
<rscale>  2 0.19814790E+03</rscale>
<asrwt>0</asrwt>
<pdfrwt beam="1">  1       21 0.55191739E-01 0.19814790E+03</pdfrwt>
<pdfrwt beam="2">  1       21 0.51937390E-01 0.19814790E+03</pdfrwt>
<totfact> 0.10856041E+04</totfact>
</mgrwt>
</event>
<event>
 4    1  0.2299148E-001  0.1783711E+03  0.7546771E-02  0.1169389E+00
         21   -1    0    0  503  502  0.00000000000E+00  0.00000000000E+00  0.20729391234E+03  0.20729391234E+03  0.00000000000E+00 0.  1.
         21   -1    0    0  501  503 -0.00000000000E+00 -0.00000000000E+00 -0.20986168236E+03  0.20986168236E+03  0.00000000000E+00 0.  1.
          6    1    1    2  501    0 -0.47229185244E+02  0.12878806804E+01  0.10682364217E+03  0.20791234957E+03  0.17200000000E+03 0.  1.
         -6    1    1    2    0  502  0.47229185244E+02 -0.12878806804E+01 -0.10939141219E+03  0.20924324514E+03  0.17200000000E+03 0.  1.
<mgrwt>
<rscale>  2 0.17837111E+03</rscale>
<asrwt>0</asrwt>
<pdfrwt beam="1">  1       21 0.51823478E-01 0.17837111E+03</pdfrwt>
<pdfrwt beam="2">  1       21 0.52465421E-01 0.17837111E+03</pdfrwt>
<totfact> 0.12297393E+04</totfact>
</mgrwt>
</event>
<event>
 4    1  0.2299148E-001  0.1943161E+03  0.7546771E-02  0.1154625E+00
         21   -1    0    0  501  502  0.00000000000E+00  0.00000000000E+00  0.28685314103E+03  0.28685314103E+03  0.00000000000E+00 0.  1.
         21   -1    0    0  502  503 -0.00000000000E+00 -0.00000000000E+00 -0.15819794920E+03  0.15819794920E+03  0.00000000000E+00 0.  1.
          6    1    1    2  501    0  0.35371545432E+02  0.83208082641E+02  0.15551844857E+03  0.24888696047E+03  0.17200000000E+03 0.  1.
         -6    1    1    2    0  503 -0.35371545432E+02 -0.83208082641E+02 -0.26863256746E+02  0.19616412976E+03  0.17200000000E+03 0.  1.
<mgrwt>
<rscale>  2 0.19431606E+03</rscale>
<asrwt>0</asrwt>
<pdfrwt beam="1">  1       21 0.71713285E-01 0.19431606E+03</pdfrwt>
<pdfrwt beam="2">  1       21 0.39549488E-01 0.19431606E+03</pdfrwt>
<totfact> 0.10813363E+04</totfact>
</mgrwt>
</event>
<event>
 4    1  0.2299148E-001  0.1962216E+03  0.7546771E-02  0.1152967E+00
         21   -1    0    0  501  502  0.00000000000E+00  0.00000000000E+00  0.39745474446E+03  0.39745474446E+03  0.00000000000E+00 0.  1.
         21   -1    0    0  502  503 -0.00000000000E+00 -0.00000000000E+00 -0.10935186191E+03  0.10935186191E+03  0.00000000000E+00 0.  1.
          6    1    1    2  501    0  0.56395931801E+02  0.75752319125E+02  0.22965155559E+03  0.30206415206E+03  0.17200000000E+03 0.  1.
         -6    1    1    2    0  503 -0.56395931801E+02 -0.75752319125E+02  0.58451326964E+02  0.20474245432E+03  0.17200000000E+03 0.  1.
<mgrwt>
<rscale>  2 0.19622160E+03</rscale>
<asrwt>0</asrwt>
<pdfrwt beam="1">  1       21 0.99363683E-01 0.19622160E+03</pdfrwt>
<pdfrwt beam="2">  1       21 0.27337966E-01 0.19622160E+03</pdfrwt>
<totfact> 0.10608515E+04</totfact>
</mgrwt>
</event>
<event>
 4    1  0.2299148E-001  0.1793853E+03  0.7546771E-02  0.1168399E+00
         21   -1    0    0  503  502  0.00000000000E+00  0.00000000000E+00  0.10923016236E+03  0.10923016236E+03  0.00000000000E+00 0.  1.
         21   -1    0    0  501  503 -0.00000000000E+00 -0.00000000000E+00 -0.37736771576E+03  0.37736771576E+03  0.00000000000E+00 0.  1.
          6    1    1    2  501    0 -0.44116824119E+02 -0.25471100238E+02 -0.24801280367E+03  0.30608727824E+03  0.17200000000E+03 0.  1.
         -6    1    1    2    0  502  0.44116824119E+02  0.25471100238E+02 -0.20124749729E+02  0.18051059988E+03  0.17200000000E+03 0.  1.
<mgrwt>
<rscale>  2 0.17938526E+03</rscale>
<asrwt>0</asrwt>
<pdfrwt beam="1">  1       21 0.27307541E-01 0.17938526E+03</pdfrwt>
<pdfrwt beam="2">  1       21 0.94341927E-01 0.17938526E+03</pdfrwt>
<totfact> 0.12149076E+04</totfact>
</mgrwt>
</event>
<event>
 4    1  0.2299148E-001  0.2239440E+03  0.7546771E-02  0.1130976E+00
         21   -1    0    0  501  502  0.00000000000E+00  0.00000000000E+00  0.29485302181E+03  0.29485302181E+03  0.00000000000E+00 0.  1.
         21   -1    0    0  502  503 -0.00000000000E+00 -0.00000000000E+00 -0.19455569224E+03  0.19455569224E+03  0.00000000000E+00 0. -1.
          6    1    1    2  501    0 -0.97074447855E+02  0.10556271859E+03 -0.36630802941E+02  0.22692014390E+03  0.17200000000E+03 0. -1.
         -6    1    1    2    0  503  0.97074447855E+02 -0.10556271859E+03  0.13692813251E+03  0.26248857015E+03  0.17200000000E+03 0.  1.
<mgrwt>
<rscale>  2 0.22394405E+03</rscale>
<asrwt>0</asrwt>
<pdfrwt beam="1">  1       21 0.73713255E-01 0.22394405E+03</pdfrwt>
<pdfrwt beam="2">  1       21 0.48638923E-01 0.22394405E+03</pdfrwt>
<totfact> 0.65212876E+03</totfact>
</mgrwt>
</event>
<event>
 4    1  0.2299148E-001  0.2715972E+03  0.7546771E-02  0.1100369E+00
         21   -1    0    0  503  502  0.00000000000E+00  0.00000000000E+00  0.13184891339E+03  0.13184891339E+03  0.00000000000E+00 0. -1.
         21   -1    0    0  501  503 -0.00000000000E+00 -0.00000000000E+00 -0.59181483901E+03  0.59181483901E+03  0.00000000000E+00 0.  1.
          6    1    1    2  501    0 -0.17668997013E+03  0.11384933293E+03 -0.31457736395E+03  0.41560069064E+03  0.17200000000E+03 0.  1.
         -6    1    1    2    0  502  0.17668997013E+03 -0.11384933293E+03 -0.14538856167E+03  0.30806306175E+03  0.17200000000E+03 0. -1.
<mgrwt>
<rscale>  2 0.27159716E+03</rscale>
<asrwt>0</asrwt>
<pdfrwt beam="1">  1       21 0.32962229E-01 0.27159716E+03</pdfrwt>
<pdfrwt beam="2">  1       21 0.14795371E+00 0.27159716E+03</pdfrwt>
<totfact> 0.25799904E+03</totfact>
</mgrwt>
</event>
<event>
 4    1  0.2299148E-001  0.2150782E+03  0.7546771E-02  0.1137607E+00
         21   -1    0    0  501  502  0.00000000000E+00  0.00000000000E+00  0.30084696465E+03  0.30084696465E+03  0.00000000000E+00 0.  1.
         21   -1    0    0  502  503 -0.00000000000E+00 -0.00000000000E+00 -0.17794321943E+03  0.17794321943E+03  0.00000000000E+00 0.  1.
          6    1    1    2  501    0  0.11077219641E+03 -0.66363893161E+02 -0.26799028089E+02  0.21674139826E+03  0.17200000000E+03 0.  1.
         -6    1    1    2    0  503 -0.11077219641E+03  0.66363893161E+02  0.14970277331E+03  0.26204878582E+03  0.17200000000E+03 0.  1.
<mgrwt>
<rscale>  2 0.21507823E+03</rscale>
<asrwt>0</asrwt>
<pdfrwt beam="1">  1       21 0.75211741E-01 0.21507823E+03</pdfrwt>
<pdfrwt beam="2">  1       21 0.44485805E-01 0.21507823E+03</pdfrwt>
<totfact> 0.75442432E+03</totfact>
</mgrwt>
</event>
<event>
 4    1  0.2299148E-001  0.1799032E+03  0.7546771E-02  0.1167897E+00
         21   -1    0    0  501  502  0.00000000000E+00  0.00000000000E+00  0.21490692995E+03  0.21490692995E+03  0.00000000000E+00 0. -1.
         21   -1    0    0  502  503 -0.00000000000E+00 -0.00000000000E+00 -0.16319969423E+03  0.16319969423E+03  0.00000000000E+00 0. -1.
          6    1    1    2  501    0  0.21456397162E+02 -0.48174638385E+02  0.78381447470E+02  0.19623665323E+03  0.17200000000E+03 0. -1.
         -6    1    1    2    0  503 -0.21456397162E+02  0.48174638385E+02 -0.26674211745E+02  0.18186997095E+03  0.17200000000E+03 0. -1.
<mgrwt>
<rscale>  2 0.17990323E+03</rscale>
<asrwt>0</asrwt>
<pdfrwt beam="1">  1       21 0.53726732E-01 0.17990323E+03</pdfrwt>
<pdfrwt beam="2">  1       21 0.40799924E-01 0.17990323E+03</pdfrwt>
<totfact> 0.19112222E+04</totfact>
</mgrwt>
</event>
<event>
 4    1  0.2299148E-001  0.1740857E+03  0.7546771E-02  0.1173653E+00
         21   -1    0    0  503  502  0.00000000000E+00  0.00000000000E+00  0.93810736043E+02  0.93810736043E+02  0.00000000000E+00 0.  1.
         21   -1    0    0  501  503 -0.00000000000E+00 -0.00000000000E+00 -0.35580978463E+03  0.35580978463E+03  0.00000000000E+00 0.  1.
          6    1    1    2  501    0 -0.13401019021E+02  0.23286394359E+02 -0.19921101675E+03  0.26455788151E+03  0.17200000000E+03 0. -1.
         -6    1    1    2    0  502  0.13401019021E+02 -0.23286394359E+02 -0.62788031838E+02  0.18506263917E+03  0.17200000000E+03 0. -1.
<mgrwt>
<rscale>  2 0.17408574E+03</rscale>
<asrwt>0</asrwt>
<pdfrwt beam="1">  1       21 0.23452684E-01 0.17408574E+03</pdfrwt>
<pdfrwt beam="2">  1       21 0.88952446E-01 0.17408574E+03</pdfrwt>
<totfact> 0.18679837E+04</totfact>
</mgrwt>
</event>
<event>
 4    1  0.2299148E-001  0.1817591E+03  0.7546771E-02  0.1166111E+00
         21   -1    0    0  501  502  0.00000000000E+00  0.00000000000E+00  0.94088279292E+02  0.94088279292E+02  0.00000000000E+00 0.  1.
         21   -1    0    0  502  503 -0.00000000000E+00 -0.00000000000E+00 -0.35114688810E+03  0.35114688810E+03  0.00000000000E+00 0.  1.
          6    1    1    2  501    0  0.22821063931E+02  0.54143902842E+02 -0.12661488879E+03  0.22151228687E+03  0.17200000000E+03 0.  1.
         -6    1    1    2    0  503 -0.22821063931E+02 -0.54143902842E+02 -0.13044372002E+03  0.22372288052E+03  0.17200000000E+03 0.  1.
<mgrwt>
<rscale>  2 0.18175908E+03</rscale>
<asrwt>0</asrwt>
<pdfrwt beam="1">  1       21 0.23522070E-01 0.18175908E+03</pdfrwt>
<pdfrwt beam="2">  1       21 0.87786721E-01 0.18175908E+03</pdfrwt>
<totfact> 0.19054132E+04</totfact>
</mgrwt>
</event>
<event>
 4    1  0.2299148E-001  0.2042722E+03  0.7546771E-02  0.1146184E+00
         21   -1    0    0  503  502  0.00000000000E+00  0.00000000000E+00  0.19528736684E+04  0.19528736684E+04  0.00000000000E+00 0.  1.
         21   -1    0    0  501  503 -0.00000000000E+00 -0.00000000000E+00 -0.22500258127E+02  0.22500258127E+02  0.00000000000E+00 0. -1.
          6    1    1    2  501    0 -0.10777416604E+03 -0.22975650692E+02  0.74353033952E+03  0.77108009777E+03  0.17200000000E+03 0.  1.
         -6    1    1    2    0  502  0.10777416604E+03  0.22975650692E+02  0.11868430707E+04  0.12042938287E+04  0.17200000000E+03 0.  1.
<mgrwt>
<rscale>  2 0.20427225E+03</rscale>
<asrwt>0</asrwt>
<pdfrwt beam="1">  1       21 0.48821784E+00 0.20427225E+03</pdfrwt>
<pdfrwt beam="2">  1       21 0.56250712E-02 0.20427225E+03</pdfrwt>
<totfact> 0.49458133E+02</totfact>
</mgrwt>
</event>
<event>
 4    1  0.2299148E-001  0.1885336E+03  0.7546771E-02  0.1159791E+00
         21   -1    0    0  501  502  0.00000000000E+00  0.00000000000E+00  0.54899488325E+03  0.54899488325E+03  0.00000000000E+00 0. -1.
         21   -1    0    0  502  503 -0.00000000000E+00 -0.00000000000E+00 -0.88907144202E+02  0.88907144202E+02  0.00000000000E+00 0. -1.
          6    1    1    2  501    0 -0.75387960445E+01  0.76838029902E+02  0.39631598473E+03  0.43887501187E+03  0.17200000000E+03 0. -1.
         -6    1    1    2    0  503  0.75387960445E+01 -0.76838029902E+02  0.63771754316E+02  0.19902701559E+03  0.17200000000E+03 0. -1.
<mgrwt>
<rscale>  2 0.18853359E+03</rscale>
<asrwt>0</asrwt>
<pdfrwt beam="1">  1       21 0.13724871E+00 0.18853359E+03</pdfrwt>
<pdfrwt beam="2">  1       21 0.22226788E-01 0.18853359E+03</pdfrwt>
<totfact> 0.71536873E+03</totfact>
</mgrwt>
</event>
<event>
 4    1  0.2299148E-001  0.2117768E+03  0.7546771E-02  0.1140167E+00
         21   -1    0    0  503  502  0.00000000000E+00  0.00000000000E+00  0.62730635660E+03  0.62730635660E+03  0.00000000000E+00 0.  1.
         21   -1    0    0  501  503 -0.00000000000E+00 -0.00000000000E+00 -0.71867714735E+02  0.71867714735E+02  0.00000000000E+00 0. -1.
          6    1    1    2  501    0 -0.11560343922E+03  0.43603483398E+02  0.30288660986E+03  0.36958046128E+03  0.17200000000E+03 0.  1.
         -6    1    1    2    0  502  0.11560343922E+03 -0.43603483398E+02  0.25255203200E+03  0.32959361006E+03  0.17200000000E+03 0. -1.
<mgrwt>
<rscale>  2 0.21177681E+03</rscale>
<asrwt>0</asrwt>
<pdfrwt beam="1">  1       21 0.15682657E+00 0.21177681E+03</pdfrwt>
<pdfrwt beam="2">  1       21 0.17966931E-01 0.21177681E+03</pdfrwt>
<totfact> 0.73710628E+03</totfact>
</mgrwt>
</event>
<event>
 4    1  0.2299148E-001  0.2120928E+03  0.7546771E-02  0.1139919E+00
         21   -1    0    0  503  502  0.00000000000E+00  0.00000000000E+00  0.41275925160E+03  0.41275925160E+03  0.00000000000E+00 0.  1.
         21   -1    0    0  501  503 -0.00000000000E+00 -0.00000000000E+00 -0.10911288315E+03  0.10911288315E+03  0.00000000000E+00 0.  1.
          6    1    1    2  501    0 -0.88390204116E+02  0.87100796615E+02  0.14278993172E+03  0.25568015479E+03  0.17200000000E+03 0.  1.
         -6    1    1    2    0  502  0.88390204116E+02 -0.87100796615E+02  0.16085643674E+03  0.26619197996E+03  0.17200000000E+03 0.  1.
<mgrwt>
<rscale>  2 0.21209285E+03</rscale>
<asrwt>0</asrwt>
<pdfrwt beam="1">  1       21 0.10318981E+00 0.21209285E+03</pdfrwt>
<pdfrwt beam="2">  1       21 0.27278222E-01 0.21209285E+03</pdfrwt>
<totfact> 0.96284024E+03</totfact>
</mgrwt>
</event>
<event>
 4    1  0.2299148E-001  0.1892236E+03  0.7546771E-02  0.1159163E+00
         21   -1    0    0  503  502  0.00000000000E+00  0.00000000000E+00  0.30001126589E+03  0.30001126589E+03  0.00000000000E+00 0.  1.
         21   -1    0    0  501  503 -0.00000000000E+00 -0.00000000000E+00 -0.14450209221E+03  0.14450209221E+03  0.00000000000E+00 0. -1.
          6    1    1    2  501    0 -0.56131311703E+02  0.55415387572E+02 -0.14976755000E+02  0.18981541698E+03  0.17200000000E+03 0. -1.
         -6    1    1    2    0  502  0.56131311703E+02 -0.55415387572E+02  0.17048592868E+03  0.25469794112E+03  0.17200000000E+03 0.  1.
<mgrwt>
<rscale>  2 0.18922365E+03</rscale>
<asrwt>0</asrwt>
<pdfrwt beam="1">  1       21 0.75002816E-01 0.18922365E+03</pdfrwt>
<pdfrwt beam="2">  1       21 0.36125523E-01 0.18922365E+03</pdfrwt>
<totfact> 0.11774555E+04</totfact>
</mgrwt>
</event>
<event>
 4    1  0.2299148E-001  0.2026652E+03  0.7546771E-02  0.1147510E+00
         21   -1    0    0  503  502  0.00000000000E+00  0.00000000000E+00  0.59829195958E+03  0.59829195958E+03  0.00000000000E+00 0. -1.
         21   -1    0    0  501  503 -0.00000000000E+00 -0.00000000000E+00 -0.68973682087E+02  0.68973682087E+02  0.00000000000E+00 0.  1.
          6    1    1    2  501    0  0.10677885679E+03 -0.93508775654E+01  0.24182867276E+03  0.31552221813E+03  0.17200000000E+03 0.  1.
         -6    1    1    2    0  502 -0.10677885679E+03  0.93508775654E+01  0.28748960474E+03  0.35174342354E+03  0.17200000000E+03 0.  1.
<mgrwt>
<rscale>  2 0.20266515E+03</rscale>
<asrwt>0</asrwt>
<pdfrwt beam="1">  1       21 0.14957297E+00 0.20266515E+03</pdfrwt>
<pdfrwt beam="2">  1       21 0.17243422E-01 0.20266515E+03</pdfrwt>
<totfact> 0.90823742E+03</totfact>
</mgrwt>
</event>
<event>
 4    1  0.2299148E-001  0.2163242E+03  0.7546771E-02  0.1136654E+00
         21   -1    0    0  503  502  0.00000000000E+00  0.00000000000E+00  0.13381617928E+03  0.13381617928E+03  0.00000000000E+00 0.  1.
         21   -1    0    0  501  503 -0.00000000000E+00 -0.00000000000E+00 -0.40722260043E+03  0.40722260043E+03  0.00000000000E+00 0.  1.
          6    1    1    2  501    0  0.11647459834E+03  0.60380633936E+02 -0.23837109831E+03  0.32189584266E+03  0.17200000000E+03 0.  1.
         -6    1    1    2    0  502 -0.11647459834E+03 -0.60380633936E+02 -0.35035322850E+02  0.21914293705E+03  0.17200000000E+03 0.  1.
<mgrwt>
<rscale>  2 0.21632418E+03</rscale>
<asrwt>0</asrwt>
<pdfrwt beam="1">  1       21 0.33454045E-01 0.21632418E+03</pdfrwt>
<pdfrwt beam="2">  1       21 0.10180565E+00 0.21632418E+03</pdfrwt>
<totfact> 0.66528758E+03</totfact>
</mgrwt>
</event>
<event>
 4    1  0.2299148E-001  0.2710414E+03  0.7546771E-02  0.1100685E+00
         21   -1    0    0  501  502  0.00000000000E+00  0.00000000000E+00  0.15617855077E+03  0.15617855077E+03  0.00000000000E+00 0.  1.
         21   -1    0    0  502  503 -0.00000000000E+00 -0.00000000000E+00 -0.48123335946E+03  0.48123335946E+03  0.00000000000E+00 0.  1.
          6    1    1    2  501    0 -0.14837084373E+03  0.14787007877E+03 -0.11466784558E+03  0.29429947719E+03  0.17200000000E+03 0.  1.
         -6    1    1    2    0  503  0.14837084373E+03 -0.14787007877E+03 -0.21038696311E+03  0.34311243305E+03  0.17200000000E+03 0.  1.
<mgrwt>
<rscale>  2 0.27104145E+03</rscale>
<asrwt>0</asrwt>
<pdfrwt beam="1">  1       21 0.39044638E-01 0.27104145E+03</pdfrwt>
<pdfrwt beam="2">  1       21 0.12030834E+00 0.27104145E+03</pdfrwt>
<totfact> 0.31307165E+03</totfact>
</mgrwt>
</event>
<event>
 4    1  0.2299148E-001  0.1774947E+03  0.7546771E-02  0.1170250E+00
         21   -1    0    0  501  502  0.00000000000E+00  0.00000000000E+00  0.28357765906E+03  0.28357765906E+03  0.00000000000E+00 0. -1.
         21   -1    0    0  502  503 -0.00000000000E+00 -0.00000000000E+00 -0.11189850204E+03  0.11189850204E+03  0.00000000000E+00 0. -1.
          6    1    1    2  501    0  0.43426744965E+02 -0.58720062976E+01  0.69094657778E+02  0.19046898532E+03  0.17200000000E+03 0. -1.
         -6    1    1    2    0  503 -0.43426744965E+02  0.58720062976E+01  0.10258449924E+03  0.20500717578E+03  0.17200000000E+03 0. -1.
<mgrwt>
<rscale>  2 0.17749468E+03</rscale>
<asrwt>0</asrwt>
<pdfrwt beam="1">  1       21 0.70894413E-01 0.17749468E+03</pdfrwt>
<pdfrwt beam="2">  1       21 0.27974626E-01 0.17749468E+03</pdfrwt>
<totfact> 0.22187299E+04</totfact>
</mgrwt>
</event>
<event>
 4    1  0.2299148E-001  0.2071217E+03  0.7546771E-02  0.1143866E+00
         21   -1    0    0  501  502  0.00000000000E+00  0.00000000000E+00  0.73536776956E+02  0.73536776956E+02  0.00000000000E+00 0. -1.
         21   -1    0    0  502  503 -0.00000000000E+00 -0.00000000000E+00 -0.69859999335E+03  0.69859999335E+03  0.00000000000E+00 0.  1.
          6    1    1    2  501    0  0.51208656004E+02 -0.10340740130E+03 -0.15573889939E+03  0.25914093053E+03  0.17200000000E+03 0. -1.
         -6    1    1    2    0  503 -0.51208656004E+02  0.10340740130E+03 -0.46932431701E+03  0.51299583978E+03  0.17200000000E+03 0.  1.
<mgrwt>
<rscale>  2 0.20712174E+03</rscale>
<asrwt>0</asrwt>
<pdfrwt beam="1">  1       21 0.18384194E-01 0.20712174E+03</pdfrwt>
<pdfrwt beam="2">  1       21 0.17465000E+00 0.20712174E+03</pdfrwt>
<totfact> 0.52804620E+03</totfact>
</mgrwt>
</event>
<event>
 4    1  0.2299148E-001  0.1902840E+03  0.7546771E-02  0.1158205E+00
         21   -1    0    0  503  502  0.00000000000E+00  0.00000000000E+00  0.58081992341E+03  0.58081992341E+03  0.00000000000E+00 0. -1.
         21   -1    0    0  501  503 -0.00000000000E+00 -0.00000000000E+00 -0.63734021740E+02  0.63734021740E+02  0.00000000000E+00 0. -1.
          6    1    1    2  501    0  0.81196829377E+02 -0.55737308163E+01  0.30621511272E+03  0.36052140967E+03  0.17200000000E+03 0.  1.
         -6    1    1    2    0  502 -0.81196829377E+02  0.55737308163E+01  0.21087078896E+03  0.28403253548E+03  0.17200000000E+03 0.  1.
<mgrwt>
<rscale>  2 0.19028398E+03</rscale>
<asrwt>0</asrwt>
<pdfrwt beam="1">  1       21 0.14520496E+00 0.19028398E+03</pdfrwt>
<pdfrwt beam="2">  1       21 0.15933507E-01 0.19028398E+03</pdfrwt>
<totfact> 0.11455317E+04</totfact>
</mgrwt>
</event>
<event>
 4    1  0.2299148E-001  0.2607200E+03  0.7546771E-02  0.1106711E+00
         21   -1    0    0  503  502  0.00000000000E+00  0.00000000000E+00  0.86223086279E+02  0.86223086279E+02  0.00000000000E+00 0. -1.
         21   -1    0    0  501  503 -0.00000000000E+00 -0.00000000000E+00 -0.87554149610E+03  0.87554149610E+03  0.00000000000E+00 0. -1.
          6    1    1    2  501    0  0.75083737409E+02 -0.18097884370E+03 -0.54640279194E+03  0.60541797176E+03  0.17200000000E+03 0. -1.
         -6    1    1    2    0  502 -0.75083737409E+02  0.18097884370E+03 -0.24291561788E+03  0.35634661062E+03  0.17200000000E+03 0. -1.
<mgrwt>
<rscale>  2 0.26071998E+03</rscale>
<asrwt>0</asrwt>
<pdfrwt beam="1">  1       21 0.21555772E-01 0.26071998E+03</pdfrwt>
<pdfrwt beam="2">  1       21 0.21888537E+00 0.26071998E+03</pdfrwt>
<totfact> 0.19229571E+03</totfact>
</mgrwt>
</event>
<event>
 4    1  0.2299148E-001  0.1808690E+03  0.7546771E-02  0.1166965E+00
         21   -1    0    0  501  502  0.00000000000E+00  0.00000000000E+00  0.18632556143E+03  0.18632556143E+03  0.00000000000E+00 0. -1.
         21   -1    0    0  502  503 -0.00000000000E+00 -0.00000000000E+00 -0.20370844473E+03  0.20370844473E+03  0.00000000000E+00 0. -1.
          6    1    1    2  501    0 -0.14980770175E+02  0.53899544346E+02  0.63785725389E+02  0.19178686900E+03  0.17200000000E+03 0. -1.
         -6    1    1    2    0  503  0.14980770175E+02 -0.53899544346E+02 -0.81168608691E+02  0.19824713716E+03  0.17200000000E+03 0. -1.
<mgrwt>
<rscale>  2 0.18086897E+03</rscale>
<asrwt>0</asrwt>
<pdfrwt beam="1">  1       21 0.46581390E-01 0.18086897E+03</pdfrwt>
<pdfrwt beam="2">  1       21 0.50927111E-01 0.18086897E+03</pdfrwt>
<totfact> 0.16303447E+04</totfact>
</mgrwt>
</event>
<event>
 4    1  0.2299148E-001  0.1838660E+03  0.7546771E-02  0.1164113E+00
         21   -1    0    0  503  502  0.00000000000E+00  0.00000000000E+00  0.65087092028E+02  0.65087092028E+02  0.00000000000E+00 0.  1.
         21   -1    0    0  501  503 -0.00000000000E+00 -0.00000000000E+00 -0.52139176628E+03  0.52139176628E+03  0.00000000000E+00 0.  1.
          6    1    1    2  501    0 -0.22979332994E+02  0.60783633734E+02 -0.21006059452E+03  0.27916330928E+03  0.17200000000E+03 0.  1.
         -6    1    1    2    0  502  0.22979332994E+02 -0.60783633734E+02 -0.24624407973E+03  0.30731554903E+03  0.17200000000E+03 0.  1.
<mgrwt>
<rscale>  2 0.18386598E+03</rscale>
<asrwt>0</asrwt>
<pdfrwt beam="1">  1       21 0.16271773E-01 0.18386598E+03</pdfrwt>
<pdfrwt beam="2">  1       21 0.13034794E+00 0.18386598E+03</pdfrwt>
<totfact> 0.14603527E+04</totfact>
</mgrwt>
</event>
<event>
 4    1  0.2299148E-001  0.1752478E+03  0.7546771E-02  0.1172483E+00
         21   -1    0    0  501  502  0.00000000000E+00  0.00000000000E+00  0.32609143829E+03  0.32609143829E+03  0.00000000000E+00 0. -1.
         21   -1    0    0  502  503 -0.00000000000E+00 -0.00000000000E+00 -0.17624528237E+03  0.17624528237E+03  0.00000000000E+00 0. -1.
          6    1    1    2  501    0  0.29381692321E+02  0.16263671213E+02  0.24631165122E+03  0.30229326882E+03  0.17200000000E+03 0. -1.
         -6    1    1    2    0  503 -0.29381692321E+02 -0.16263671213E+02 -0.96465495298E+02  0.20004345185E+03  0.17200000000E+03 0. -1.
<mgrwt>
<rscale>  2 0.17524780E+03</rscale>
<asrwt>0</asrwt>
<pdfrwt beam="1">  1       21 0.81522859E-01 0.17524780E+03</pdfrwt>
<pdfrwt beam="2">  1       21 0.44061321E-01 0.17524780E+03</pdfrwt>
<totfact> 0.66082364E+03</totfact>
</mgrwt>
</event>
<event>
 4    1  0.2299148E-001  0.1868702E+03  0.7546771E-02  0.1161315E+00
         21   -1    0    0  501  502  0.00000000000E+00  0.00000000000E+00  0.22891781340E+03  0.22891781340E+03  0.00000000000E+00 0. -1.
         21   -1    0    0  502  503 -0.00000000000E+00 -0.00000000000E+00 -0.28624370780E+03  0.28624370780E+03  0.00000000000E+00 0.  1.
          6    1    1    2  501    0  0.46511960274E+02  0.56330354363E+02  0.14737553218E+03  0.23799163590E+03  0.17200000000E+03 0.  1.
         -6    1    1    2    0  503 -0.46511960274E+02 -0.56330354363E+02 -0.20470142658E+03  0.27716988530E+03  0.17200000000E+03 0.  1.
<mgrwt>
<rscale>  2 0.18687020E+03</rscale>
<asrwt>0</asrwt>
<pdfrwt beam="1">  1       21 0.57229454E-01 0.18687020E+03</pdfrwt>
<pdfrwt beam="2">  1       21 0.71560927E-01 0.18687020E+03</pdfrwt>
<totfact> 0.50824984E+03</totfact>
</mgrwt>
</event>
<event>
 4    1  0.2299148E-001  0.2025856E+03  0.7546771E-02  0.1147576E+00
         21   -1    0    0  503  502  0.00000000000E+00  0.00000000000E+00  0.83171506197E+03  0.83171506197E+03  0.00000000000E+00 0.  1.
         21   -1    0    0  501  503 -0.00000000000E+00 -0.00000000000E+00 -0.53842179948E+02  0.53842179948E+02  0.00000000000E+00 0. -1.
          6    1    1    2  501    0  0.94033392193E+02  0.51133453097E+02  0.26096897440E+03  0.33037208489E+03  0.17200000000E+03 0. -1.
         -6    1    1    2    0  502 -0.94033392193E+02 -0.51133453097E+02  0.51690390762E+03  0.55518515703E+03  0.17200000000E+03 0.  1.
<mgrwt>
<rscale>  2 0.20258556E+03</rscale>
<asrwt>0</asrwt>
<pdfrwt beam="1">  1       21 0.20792872E+00 0.20258556E+03</pdfrwt>
<pdfrwt beam="2">  1       21 0.13460548E-01 0.20258556E+03</pdfrwt>
<totfact> 0.56560282E+03</totfact>
</mgrwt>
</event>
<event>
 4    1  0.2299148E-001  0.1968088E+03  0.7546771E-02  0.1152460E+00
         21   -1    0    0  501  502  0.00000000000E+00  0.00000000000E+00  0.88699918284E+02  0.88699918284E+02  0.00000000000E+00 0.  1.
         21   -1    0    0  502  503 -0.00000000000E+00 -0.00000000000E+00 -0.47115319116E+03  0.47115319116E+03  0.00000000000E+00 0. -1.
          6    1    1    2  501    0  0.95445312875E+02 -0.63167527025E+01 -0.11551066032E+03  0.22820258930E+03  0.17200000000E+03 0. -1.
         -6    1    1    2    0  503 -0.95445312875E+02  0.63167527025E+01 -0.26694261256E+03  0.33165052015E+03  0.17200000000E+03 0.  1.
<mgrwt>
<rscale>  2 0.19680881E+03</rscale>
<asrwt>0</asrwt>
<pdfrwt beam="1">  1       21 0.22174980E-01 0.19680881E+03</pdfrwt>
<pdfrwt beam="2">  1       21 0.11778830E+00 0.19680881E+03</pdfrwt>
<totfact> 0.10483860E+04</totfact>
</mgrwt>
</event>
<event>
 4    1  0.2299148E-001  0.2221722E+03  0.7546771E-02  0.1132274E+00
         21   -1    0    0  501  502  0.00000000000E+00  0.00000000000E+00  0.15198434302E+03  0.15198434302E+03  0.00000000000E+00 0.  1.
         21   -1    0    0  502  503 -0.00000000000E+00 -0.00000000000E+00 -0.32604750773E+03  0.32604750773E+03  0.00000000000E+00 0.  1.
          6    1    1    2  501    0 -0.14058918254E+03 -0.33389703562E+01 -0.72090057602E+02  0.23357534839E+03  0.17200000000E+03 0.  1.
         -6    1    1    2    0  503  0.14058918254E+03  0.33389703562E+01 -0.10197310711E+03  0.24445650236E+03  0.17200000000E+03 0.  1.
<mgrwt>
<rscale>  2 0.22217216E+03</rscale>
<asrwt>0</asrwt>
<pdfrwt beam="1">  1       21 0.37996086E-01 0.22217216E+03</pdfrwt>
<pdfrwt beam="2">  1       21 0.81511877E-01 0.22217216E+03</pdfrwt>
<totfact> 0.86293862E+03</totfact>
</mgrwt>
</event>
<event>
 4    1  0.2299148E-001  0.1771389E+03  0.7546771E-02  0.1170601E+00
         21   -1    0    0  503  502  0.00000000000E+00  0.00000000000E+00  0.20380657769E+03  0.20380657769E+03  0.00000000000E+00 0. -1.
         21   -1    0    0  501  503 -0.00000000000E+00 -0.00000000000E+00 -0.23426647508E+03  0.23426647508E+03  0.00000000000E+00 0. -1.
          6    1    1    2  501    0 -0.37346263727E+02 -0.19986201456E+02 -0.14347334658E+03  0.22795348833E+03  0.17200000000E+03 0. -1.
         -6    1    1    2    0  502  0.37346263727E+02  0.19986201456E+02  0.11301344919E+03  0.21011956444E+03  0.17200000000E+03 0. -1.
<mgrwt>
<rscale>  2 0.17713890E+03</rscale>
<asrwt>0</asrwt>
<pdfrwt beam="1">  1       21 0.50951645E-01 0.17713890E+03</pdfrwt>
<pdfrwt beam="2">  1       21 0.58566619E-01 0.17713890E+03</pdfrwt>
<totfact> 0.10105847E+04</totfact>
</mgrwt>
</event>
<event>
 4    1  0.2299148E-001  0.2022749E+03  0.7546771E-02  0.1147834E+00
         21   -1    0    0  503  502  0.00000000000E+00  0.00000000000E+00  0.10219172927E+03  0.10219172927E+03  0.00000000000E+00 0. -1.
         21   -1    0    0  501  503 -0.00000000000E+00 -0.00000000000E+00 -0.43089472605E+03  0.43089472605E+03  0.00000000000E+00 0. -1.
          6    1    1    2  501    0  0.10581388266E+03 -0.11599767219E+02 -0.93415920661E+02  0.22280409915E+03  0.17200000000E+03 0. -1.
         -6    1    1    2    0  502 -0.10581388266E+03  0.11599767219E+02 -0.23528707612E+03  0.31028235617E+03  0.17200000000E+03 0. -1.
<mgrwt>
<rscale>  2 0.20227489E+03</rscale>
<asrwt>0</asrwt>
<pdfrwt beam="1">  1       21 0.25547933E-01 0.20227489E+03</pdfrwt>
<pdfrwt beam="2">  1       21 0.10772368E+00 0.20227489E+03</pdfrwt>
<totfact> 0.99144591E+03</totfact>
</mgrwt>
</event>
<event>
 4    1  0.2299148E-001  0.1734630E+03  0.7546771E-02  0.1174284E+00
         21   -1    0    0  501  502  0.00000000000E+00  0.00000000000E+00  0.10665540895E+04  0.10665540895E+04  0.00000000000E+00 0.  1.
         21   -1    0    0  502  503 -0.00000000000E+00 -0.00000000000E+00 -0.28551470765E+02  0.28551470765E+02  0.00000000000E+00 0.  1.
          6    1    1    2  501    0  0.81632456114E+01 -0.20947165534E+02  0.45927937841E+03  0.49094497630E+03  0.17200000000E+03 0.  1.
         -6    1    1    2    0  503 -0.81632456114E+01  0.20947165534E+02  0.57872324032E+03  0.60416058396E+03  0.17200000000E+03 0.  1.
<mgrwt>
<rscale>  2 0.17346303E+03</rscale>
<asrwt>0</asrwt>
<pdfrwt beam="1">  1       21 0.26663839E+00 0.17346303E+03</pdfrwt>
<pdfrwt beam="2">  1       21 0.71378713E-02 0.17346303E+03</pdfrwt>
<totfact> 0.79369804E+03</totfact>
</mgrwt>
</event>
<event>
 4    1  0.2299148E-001  0.2019852E+03  0.7546771E-02  0.1148075E+00
         21   -1    0    0  501  502  0.00000000000E+00  0.00000000000E+00  0.39115607922E+03  0.39115607922E+03  0.00000000000E+00 0.  1.
         21   -1    0    0  502  503 -0.00000000000E+00 -0.00000000000E+00 -0.13605743958E+03  0.13605743958E+03  0.00000000000E+00 0.  1.
          6    1    1    2  501    0  0.72966771081E+02 -0.76745369695E+02  0.25490278076E+03  0.32522827228E+03  0.17200000000E+03 0.  1.
         -6    1    1    2    0  503 -0.72966771081E+02  0.76745369695E+02  0.19585888185E+00  0.20198524652E+03  0.17200000000E+03 0.  1.
<mgrwt>
<rscale>  2 0.20198515E+03</rscale>
<asrwt>0</asrwt>
<pdfrwt beam="1">  1       21 0.97789017E-01 0.20198515E+03</pdfrwt>
<pdfrwt beam="2">  1       21 0.34014361E-01 0.20198515E+03</pdfrwt>
<totfact> 0.71575174E+03</totfact>
</mgrwt>
</event>
<event>
 4    1  0.2299148E-001  0.1784409E+03  0.7546771E-02  0.1169321E+00
         21   -1    0    0  503  502  0.00000000000E+00  0.00000000000E+00  0.59334706922E+03  0.59334706922E+03  0.00000000000E+00 0. -1.
         21   -1    0    0  501  503 -0.00000000000E+00 -0.00000000000E+00 -0.57030989321E+02  0.57030989321E+02  0.00000000000E+00 0. -1.
          6    1    1    2  501    0  0.33116671754E+02  0.34065404004E+02  0.18914035864E+03  0.26002930789E+03  0.17200000000E+03 0.  1.
         -6    1    1    2    0  502 -0.33116671754E+02 -0.34065404004E+02  0.34717572126E+03  0.39034875065E+03  0.17200000000E+03 0.  1.
<mgrwt>
<rscale>  2 0.17844093E+03</rscale>
<asrwt>0</asrwt>
<pdfrwt beam="1">  1       21 0.14833675E+00 0.17844093E+03</pdfrwt>
<pdfrwt beam="2">  1       21 0.14257749E-01 0.17844093E+03</pdfrwt>
<totfact> 0.13378625E+04</totfact>
</mgrwt>
</event>
<event>
 4    1  0.2299148E-001  0.1865947E+03  0.7546771E-02  0.1161569E+00
         21   -1    0    0  503  502  0.00000000000E+00  0.00000000000E+00  0.25104411409E+03  0.25104411409E+03  0.00000000000E+00 0. -1.
         21   -1    0    0  501  503 -0.00000000000E+00 -0.00000000000E+00 -0.22015254620E+03  0.22015254620E+03  0.00000000000E+00 0.  1.
          6    1    1    2  501    0 -0.52279176039E+02 -0.50004710068E+02 -0.12786749111E+03  0.22620273774E+03  0.17200000000E+03 0.  1.
         -6    1    1    2    0  502  0.52279176039E+02  0.50004710068E+02  0.15875905900E+03  0.24499392256E+03  0.17200000000E+03 0. -1.
<mgrwt>
<rscale>  2 0.18659470E+03</rscale>
<asrwt>0</asrwt>
<pdfrwt beam="1">  1       21 0.62761028E-01 0.18659470E+03</pdfrwt>
<pdfrwt beam="2">  1       21 0.55038137E-01 0.18659470E+03</pdfrwt>
<totfact> 0.73572059E+03</totfact>
</mgrwt>
</event>
<event>
 4    1  0.2299148E-001  0.2376399E+03  0.7546771E-02  0.1121375E+00
         21   -1    0    0  503  502  0.00000000000E+00  0.00000000000E+00  0.49955747922E+02  0.49955747922E+02  0.00000000000E+00 0.  1.
         21   -1    0    0  501  503 -0.00000000000E+00 -0.00000000000E+00 -0.17132117202E+04  0.17132117202E+04  0.00000000000E+00 0.  1.
          6    1    1    2  501    0  0.12613055183E+03 -0.10478463538E+03 -0.31746404719E+03  0.39655536458E+03  0.17200000000E+03 0.  1.
         -6    1    1    2    0  502 -0.12613055183E+03  0.10478463538E+03 -0.13457919251E+04  0.13666121035E+04  0.17200000000E+03 0.  1.
<mgrwt>
<rscale>  2 0.23763993E+03</rscale>
<asrwt>0</asrwt>
<pdfrwt beam="1">  1       21 0.12488937E-01 0.23763993E+03</pdfrwt>
<pdfrwt beam="2">  1       21 0.42830294E+00 0.23763993E+03</pdfrwt>
<totfact> 0.29378245E+02</totfact>
</mgrwt>
</event>
<event>
 4    1  0.2299148E-001  0.2684506E+03  0.7546771E-02  0.1102170E+00
         21   -1    0    0  501  502  0.00000000000E+00  0.00000000000E+00  0.11037082539E+03  0.11037082539E+03  0.00000000000E+00 0. -1.
         21   -1    0    0  502  503 -0.00000000000E+00 -0.00000000000E+00 -0.92773616559E+03  0.92773616559E+03  0.00000000000E+00 0. -1.
          6    1    1    2  501    0  0.18951201504E+03 -0.81036505456E+02 -0.12619217886E+03  0.29663139596E+03  0.17200000000E+03 0. -1.
         -6    1    1    2    0  503 -0.18951201504E+03  0.81036505456E+02 -0.69117316134E+03  0.74147559502E+03  0.17200000000E+03 0. -1.
<mgrwt>
<rscale>  2 0.26845059E+03</rscale>
<asrwt>0</asrwt>
<pdfrwt beam="1">  1       21 0.27592707E-01 0.26845059E+03</pdfrwt>
<pdfrwt beam="2">  1       21 0.23193404E+00 0.26845059E+03</pdfrwt>
<totfact> 0.98800014E+02</totfact>
</mgrwt>
</event>
<event>
 4    1  0.2299148E-001  0.2409865E+03  0.7546771E-02  0.1119137E+00
         21   -1    0    0  503  502  0.00000000000E+00  0.00000000000E+00  0.21493508305E+03  0.21493508305E+03  0.00000000000E+00 0.  1.
         21   -1    0    0  501  503 -0.00000000000E+00 -0.00000000000E+00 -0.30663239929E+03  0.30663239929E+03  0.00000000000E+00 0. -1.
          6    1    1    2  501    0  0.16354828422E+03 -0.41742591112E+02 -0.13574507718E+03  0.27658852319E+03  0.17200000000E+03 0.  1.
         -6    1    1    2    0  502 -0.16354828422E+03  0.41742591112E+02  0.44047760940E+02  0.24497895915E+03  0.17200000000E+03 0.  1.
<mgrwt>
<rscale>  2 0.24098648E+03</rscale>
<asrwt>0</asrwt>
<pdfrwt beam="1">  1       21 0.53733771E-01 0.24098648E+03</pdfrwt>
<pdfrwt beam="2">  1       21 0.76658099E-01 0.24098648E+03</pdfrwt>
<totfact> 0.47901020E+03</totfact>
</mgrwt>
</event>
<event>
 4    1  0.2299148E-001  0.2019156E+03  0.7546771E-02  0.1148133E+00
         21   -1    0    0  501  502  0.00000000000E+00  0.00000000000E+00  0.66240560724E+03  0.66240560724E+03  0.00000000000E+00 0.  1.
         21   -1    0    0  502  503 -0.00000000000E+00 -0.00000000000E+00 -0.65456407633E+02  0.65456407633E+02  0.00000000000E+00 0.  1.
          6    1    1    2  501    0 -0.95341872313E+02  0.45780275816E+02  0.20954855371E+03  0.29099914541E+03  0.17200000000E+03 0.  1.
         -6    1    1    2    0  503  0.95341872313E+02 -0.45780275816E+02  0.38740064590E+03  0.43686286946E+03  0.17200000000E+03 0.  1.
<mgrwt>
<rscale>  2 0.20191559E+03</rscale>
<asrwt>0</asrwt>
<pdfrwt beam="1">  1       21 0.16560138E+00 0.20191559E+03</pdfrwt>
<pdfrwt beam="2">  1       21 0.16364104E-01 0.20191559E+03</pdfrwt>
<totfact> 0.76138366E+03</totfact>
</mgrwt>
</event>
<event>
 4    1  0.2299148E-001  0.3573299E+03  0.7546771E-02  0.1059646E+00
         21   -1    0    0  503  502  0.00000000000E+00  0.00000000000E+00  0.78505637135E+03  0.78505637135E+03  0.00000000000E+00 0.  1.
         21   -1    0    0  501  503 -0.00000000000E+00 -0.00000000000E+00 -0.28642191689E+03  0.28642191689E+03  0.00000000000E+00 0. -1.
          6    1    1    2  501    0  0.16935412507E+03  0.26347638812E+03 -0.10286872032E+03  0.37184217135E+03  0.17200000000E+03 0. -1.
         -6    1    1    2    0  502 -0.16935412507E+03 -0.26347638812E+03  0.60150317479E+03  0.69963611689E+03  0.17200000000E+03 0.  1.
<mgrwt>
<rscale>  2 0.35732986E+03</rscale>
<asrwt>0</asrwt>
<pdfrwt beam="1">  1       21 0.19626409E+00 0.35732986E+03</pdfrwt>
<pdfrwt beam="2">  1       21 0.71605481E-01 0.35732986E+03</pdfrwt>
<totfact> 0.21408848E+02</totfact>
</mgrwt>
</event>
<event>
 4    1  0.2299148E-001  0.1939651E+03  0.7546771E-02  0.1154933E+00
         21   -1    0    0  501  502  0.00000000000E+00  0.00000000000E+00  0.52780936284E+03  0.52780936284E+03  0.00000000000E+00 0. -1.
         21   -1    0    0  502  503 -0.00000000000E+00 -0.00000000000E+00 -0.85076714016E+02  0.85076714016E+02  0.00000000000E+00 0. -1.
          6    1    1    2  501    0  0.59927625240E+02 -0.66686809557E+02  0.34476948685E+03  0.39558621045E+03  0.17200000000E+03 0. -1.
         -6    1    1    2    0  503 -0.59927625240E+02  0.66686809557E+02  0.97963161974E+02  0.21729986641E+03  0.17200000000E+03 0. -1.
<mgrwt>
<rscale>  2 0.19396508E+03</rscale>
<asrwt>0</asrwt>
<pdfrwt beam="1">  1       21 0.13195233E+00 0.19396508E+03</pdfrwt>
<pdfrwt beam="2">  1       21 0.21269180E-01 0.19396508E+03</pdfrwt>
<totfact> 0.85546837E+03</totfact>
</mgrwt>
</event>
<event>
 4    1  0.2299148E-001  0.2720310E+03  0.7546771E-02  0.1100123E+00
         21   -1    0    0  501  502  0.00000000000E+00  0.00000000000E+00  0.69469960625E+02  0.69469960625E+02  0.00000000000E+00 0. -1.
         21   -1    0    0  502  503 -0.00000000000E+00 -0.00000000000E+00 -0.12777611131E+04  0.12777611131E+04  0.00000000000E+00 0.  1.
          6    1    1    2  501    0  0.20365191194E+03  0.54247059487E+02 -0.32941439437E+03  0.42721737783E+03  0.17200000000E+03 0. -1.
         -6    1    1    2    0  503 -0.20365191194E+03 -0.54247059487E+02 -0.87887675810E+03  0.92001369589E+03  0.17200000000E+03 0.  1.
<mgrwt>
<rscale>  2 0.27203096E+03</rscale>
<asrwt>0</asrwt>
<pdfrwt beam="1">  1       21 0.17367490E-01 0.27203096E+03</pdfrwt>
<pdfrwt beam="2">  1       21 0.31944029E+00 0.27203096E+03</pdfrwt>
<totfact> 0.71895610E+02</totfact>
</mgrwt>
</event>
<event>
 4    1  0.2299148E-001  0.1842005E+03  0.7546771E-02  0.1163799E+00
         21   -1    0    0  501  502  0.00000000000E+00  0.00000000000E+00  0.24672653942E+03  0.24672653942E+03  0.00000000000E+00 0. -1.
         21   -1    0    0  502  503 -0.00000000000E+00 -0.00000000000E+00 -0.23305414751E+03  0.23305414751E+03  0.00000000000E+00 0. -1.
          6    1    1    2  501    0  0.65802812781E+02 -0.39753656358E+01  0.16042651718E+03  0.24426723300E+03  0.17200000000E+03 0. -1.
         -6    1    1    2    0  503 -0.65802812781E+02  0.39753656358E+01 -0.14675412526E+03  0.23551345393E+03  0.17200000000E+03 0. -1.
<mgrwt>
<rscale>  2 0.18420047E+03</rscale>
<asrwt>0</asrwt>
<pdfrwt beam="1">  1       21 0.61681635E-01 0.18420047E+03</pdfrwt>
<pdfrwt beam="2">  1       21 0.58263537E-01 0.18420047E+03</pdfrwt>
<totfact> 0.67797510E+03</totfact>
</mgrwt>
</event>
<event>
 4    1  0.2299148E-001  0.1862781E+03  0.7546771E-02  0.1161862E+00
         21   -1    0    0  503  502  0.00000000000E+00  0.00000000000E+00  0.57369295232E+02  0.57369295232E+02  0.00000000000E+00 0. -1.
         21   -1    0    0  501  503 -0.00000000000E+00 -0.00000000000E+00 -0.63000514539E+03  0.63000514539E+03  0.00000000000E+00 0. -1.
          6    1    1    2  501    0  0.50222972720E+02  0.50923171346E+02 -0.35500106893E+03  0.40090556907E+03  0.17200000000E+03 0.  1.
         -6    1    1    2    0  502 -0.50222972720E+02 -0.50923171346E+02 -0.21763478122E+03  0.28646887155E+03  0.17200000000E+03 0.  1.
<mgrwt>
<rscale>  2 0.18627806E+03</rscale>
<asrwt>0</asrwt>
<pdfrwt beam="1">  1       21 0.14342324E-01 0.18627806E+03</pdfrwt>
<pdfrwt beam="2">  1       21 0.15750128E+00 0.18627806E+03</pdfrwt>
<totfact> 0.11229304E+04</totfact>
</mgrwt>
</event>
<event>
 4    1  0.2299148E-001  0.2527658E+03  0.7546771E-02  0.1111569E+00
         21   -1    0    0  503  502  0.00000000000E+00  0.00000000000E+00  0.46961501384E+03  0.46961501384E+03  0.00000000000E+00 0. -1.
         21   -1    0    0  501  503 -0.00000000000E+00 -0.00000000000E+00 -0.13632308701E+03  0.13632308701E+03  0.00000000000E+00 0.  1.
          6    1    1    2  501    0  0.13389886527E+03 -0.12797513135E+03  0.18023684893E+03  0.31044461998E+03  0.17200000000E+03 0. -1.
         -6    1    1    2    0  502 -0.13389886527E+03  0.12797513135E+03  0.15305507789E+03  0.29549348086E+03  0.17200000000E+03 0.  1.
<mgrwt>
<rscale>  2 0.25276578E+03</rscale>
<asrwt>0</asrwt>
<pdfrwt beam="1">  1       21 0.11740375E+00 0.25276578E+03</pdfrwt>
<pdfrwt beam="2">  1       21 0.34080773E-01 0.25276578E+03</pdfrwt>
<totfact> 0.44242196E+03</totfact>
</mgrwt>
</event>
<event>
 4    1  0.2299148E-001  0.1795340E+03  0.7546771E-02  0.1168255E+00
         21   -1    0    0  503  502  0.00000000000E+00  0.00000000000E+00  0.26173295501E+02  0.26173295501E+02  0.00000000000E+00 0. -1.
         21   -1    0    0  501  503 -0.00000000000E+00 -0.00000000000E+00 -0.12322213823E+04  0.12322213823E+04  0.00000000000E+00 0. -1.
          6    1    1    2  501    0  0.44677874308E+02  0.25540913927E+02 -0.61823286355E+03  0.64377350389E+03  0.17200000000E+03 0. -1.
         -6    1    1    2    0  502 -0.44677874308E+02 -0.25540913927E+02 -0.58781522324E+03  0.61462117390E+03  0.17200000000E+03 0. -1.
<mgrwt>
<rscale>  2 0.17953398E+03</rscale>
<asrwt>0</asrwt>
<pdfrwt beam="1">  1       21 0.65433238E-02 0.17953398E+03</pdfrwt>
<pdfrwt beam="2">  1       21 0.30805535E+00 0.17953398E+03</pdfrwt>
<totfact> 0.52963312E+03</totfact>
</mgrwt>
</event>
<event>
 4    1  0.2299148E-001  0.1906278E+03  0.7546771E-02  0.1157896E+00
         21   -1    0    0  501  502  0.00000000000E+00  0.00000000000E+00  0.74354320884E+02  0.74354320884E+02  0.00000000000E+00 0.  1.
         21   -1    0    0  502  503 -0.00000000000E+00 -0.00000000000E+00 -0.92408629338E+03  0.92408629338E+03  0.00000000000E+00 0. -1.
          6    1    1    2  501    0  0.74605908277E+02 -0.34480608580E+02 -0.82208710724E+02  0.20759871396E+03  0.17200000000E+03 0.  1.
         -6    1    1    2    0  503 -0.74605908277E+02  0.34480608580E+02 -0.76752326177E+03  0.79084190031E+03  0.17200000000E+03 0. -1.
<mgrwt>
<rscale>  2 0.19062779E+03</rscale>
<asrwt>0</asrwt>
<pdfrwt beam="1">  1       21 0.18588580E-01 0.19062779E+03</pdfrwt>
<pdfrwt beam="2">  1       21 0.23102157E+00 0.19062779E+03</pdfrwt>
<totfact> 0.22858592E+03</totfact>
</mgrwt>
</event>
<event>
 4    1  0.2299148E-001  0.1890462E+03  0.7546771E-02  0.1159324E+00
         21   -1    0    0  503  502  0.00000000000E+00  0.00000000000E+00  0.25763434531E+02  0.25763434531E+02  0.00000000000E+00 0. -1.
         21   -1    0    0  501  503 -0.00000000000E+00 -0.00000000000E+00 -0.14945665183E+04  0.14945665183E+04  0.00000000000E+00 0. -1.
          6    1    1    2  501    0  0.12652202122E+02 -0.77423431238E+02 -0.93816647414E+03  0.95702392819E+03  0.17200000000E+03 0. -1.
         -6    1    1    2    0  502 -0.12652202122E+02  0.77423431238E+02 -0.53063660965E+03  0.56330602466E+03  0.17200000000E+03 0. -1.
<mgrwt>
<rscale>  2 0.18904620E+03</rscale>
<asrwt>0</asrwt>
<pdfrwt beam="1">  1       21 0.64408592E-02 0.18904620E+03</pdfrwt>
<pdfrwt beam="2">  1       21 0.37364160E+00 0.18904620E+03</pdfrwt>
<totfact> 0.22177762E+03</totfact>
</mgrwt>
</event>
<event>
 4    1  0.2299148E-001  0.1730505E+03  0.7546771E-02  0.1174703E+00
         21   -1    0    0  503  502  0.00000000000E+00  0.00000000000E+00  0.44004397690E+02  0.44004397690E+02  0.00000000000E+00 0.  1.
         21   -1    0    0  501  503 -0.00000000000E+00 -0.00000000000E+00 -0.95753800392E+03  0.95753800392E+03  0.00000000000E+00 0.  1.
          6    1    1    2  501    0 -0.16722728183E+02  0.91012727860E+01 -0.72610904123E+03  0.74644545853E+03  0.17200000000E+03 0.  1.
         -6    1    1    2    0  502  0.16722728183E+02 -0.91012727860E+01 -0.18742456501E+03  0.25509694309E+03  0.17200000000E+03 0.  1.
<mgrwt>
<rscale>  2 0.17305052E+03</rscale>
<asrwt>0</asrwt>
<pdfrwt beam="1">  1       21 0.11001100E-01 0.17305052E+03</pdfrwt>
<pdfrwt beam="2">  1       21 0.23938449E+00 0.17305052E+03</pdfrwt>
<totfact> 0.53739832E+03</totfact>
</mgrwt>
</event>
<event>
 4    1  0.2299148E-001  0.2614212E+03  0.7546771E-02  0.1106292E+00
         21   -1    0    0  503  502  0.00000000000E+00  0.00000000000E+00  0.21243155052E+03  0.21243155052E+03  0.00000000000E+00 0.  1.
         21   -1    0    0  501  503 -0.00000000000E+00 -0.00000000000E+00 -0.55967601459E+03  0.55967601459E+03  0.00000000000E+00 0.  1.
          6    1    1    2  501    0 -0.14352538005E+03 -0.13474987293E+03 -0.42535409138E+03  0.49926662820E+03  0.17200000000E+03 0.  1.
         -6    1    1    2    0  502  0.14352538005E+03  0.13474987293E+03  0.78109627316E+02  0.27284093691E+03  0.17200000000E+03 0.  1.
<mgrwt>
<rscale>  2 0.26142124E+03</rscale>
<asrwt>0</asrwt>
<pdfrwt beam="1">  1       21 0.53107888E-01 0.26142124E+03</pdfrwt>
<pdfrwt beam="2">  1       21 0.13991900E+00 0.26142124E+03</pdfrwt>
<totfact> 0.11323660E+03</totfact>
</mgrwt>
</event>
<event>
 4    1  0.2299148E-001  0.2157641E+03  0.7546771E-02  0.1137081E+00
         21   -1    0    0  503  502  0.00000000000E+00  0.00000000000E+00  0.19639231749E+03  0.19639231749E+03  0.00000000000E+00 0.  1.
         21   -1    0    0  501  503 -0.00000000000E+00 -0.00000000000E+00 -0.25652724991E+03  0.25652724991E+03  0.00000000000E+00 0.  1.
          6    1    1    2  501    0 -0.89790282049E+02  0.94381345569E+02 -0.92473408029E+02  0.23474553102E+03  0.17200000000E+03 0.  1.
         -6    1    1    2    0  502  0.89790282049E+02 -0.94381345569E+02  0.32338475609E+02  0.21817403637E+03  0.17200000000E+03 0.  1.
<mgrwt>
<rscale>  2 0.21576407E+03</rscale>
<asrwt>0</asrwt>
<pdfrwt beam="1">  1       21 0.49098080E-01 0.21576407E+03</pdfrwt>
<pdfrwt beam="2">  1       21 0.64131812E-01 0.21576407E+03</pdfrwt>
<totfact> 0.87411004E+03</totfact>
</mgrwt>
</event>
<event>
 4    1  0.2299148E-001  0.2706965E+03  0.7546771E-02  0.1100882E+00
         21   -1    0    0  503  502  0.00000000000E+00  0.00000000000E+00  0.10281578366E+04  0.10281578366E+04  0.00000000000E+00 0. -1.
         21   -1    0    0  501  503 -0.00000000000E+00 -0.00000000000E+00 -0.82244423116E+02  0.82244423116E+02  0.00000000000E+00 0. -1.
          6    1    1    2  501    0  0.11258841480E+03 -0.17611483970E+03  0.27014537486E+03  0.38243314640E+03  0.17200000000E+03 0. -1.
         -6    1    1    2    0  502 -0.11258841480E+03  0.17611483970E+03  0.67576803866E+03  0.72796911334E+03  0.17200000000E+03 0. -1.
<mgrwt>
<rscale>  2 0.27069649E+03</rscale>
<asrwt>0</asrwt>
<pdfrwt beam="1">  1       21 0.25703942E+00 0.27069649E+03</pdfrwt>
<pdfrwt beam="2">  1       21 0.20561109E-01 0.27069649E+03</pdfrwt>
<totfact> 0.12224835E+03</totfact>
</mgrwt>
</event>
<event>
 4    1  0.2299148E-001  0.1769944E+03  0.7546771E-02  0.1170744E+00
         21   -1    0    0  501  502  0.00000000000E+00  0.00000000000E+00  0.26158085098E+03  0.26158085098E+03  0.00000000000E+00 0.  1.
         21   -1    0    0  502  503 -0.00000000000E+00 -0.00000000000E+00 -0.13573018360E+03  0.13573018360E+03  0.00000000000E+00 0.  1.
          6    1    1    2  501    0  0.30934504613E+02 -0.28036818400E+02  0.13106703910E+03  0.22023981361E+03  0.17200000000E+03 0.  1.
         -6    1    1    2    0  503 -0.30934504613E+02  0.28036818400E+02 -0.52163717178E+01  0.17707122097E+03  0.17200000000E+03 0.  1.
<mgrwt>
<rscale>  2 0.17699437E+03</rscale>
<asrwt>0</asrwt>
<pdfrwt beam="1">  1       21 0.65395212E-01 0.17699437E+03</pdfrwt>
<pdfrwt beam="2">  1       21 0.33932546E-01 0.17699437E+03</pdfrwt>
<totfact> 0.18172112E+04</totfact>
</mgrwt>
</event>
<event>
 4    1  0.2299148E-001  0.2079204E+03  0.7546771E-02  0.1143223E+00
         21   -1    0    0  501  502  0.00000000000E+00  0.00000000000E+00  0.23628821043E+03  0.23628821043E+03  0.00000000000E+00 0.  1.
         21   -1    0    0  502  503 -0.00000000000E+00 -0.00000000000E+00 -0.20749565855E+03  0.20749565855E+03  0.00000000000E+00 0.  1.
          6    1    1    2  501    0  0.97226232524E+02 -0.64760687225E+02  0.90700925706E+02  0.22684255514E+03  0.17200000000E+03 0.  1.
         -6    1    1    2    0  503 -0.97226232524E+02  0.64760687225E+02 -0.61908373829E+02  0.21694131384E+03  0.17200000000E+03 0.  1.
<mgrwt>
<rscale>  2 0.20792039E+03</rscale>
<asrwt>0</asrwt>
<pdfrwt beam="1">  1       21 0.59072053E-01 0.20792039E+03</pdfrwt>
<pdfrwt beam="2">  1       21 0.51873915E-01 0.20792039E+03</pdfrwt>
<totfact> 0.93539877E+03</totfact>
</mgrwt>
</event>
<event>
 4    1  0.2299148E-001  0.1917875E+03  0.7546771E-02  0.1156859E+00
         21   -1    0    0  501  502  0.00000000000E+00  0.00000000000E+00  0.22112844104E+03  0.22112844104E+03  0.00000000000E+00 0. -1.
         21   -1    0    0  502  503 -0.00000000000E+00 -0.00000000000E+00 -0.24403577718E+03  0.24403577718E+03  0.00000000000E+00 0. -1.
          6    1    1    2  501    0 -0.84801072500E+02 -0.26852745965E+01  0.11978118068E+03  0.22611935751E+03  0.17200000000E+03 0. -1.
         -6    1    1    2    0  503  0.84801072500E+02  0.26852745965E+01 -0.14268851682E+03  0.23904486070E+03  0.17200000000E+03 0. -1.
<mgrwt>
<rscale>  2 0.19178747E+03</rscale>
<asrwt>0</asrwt>
<pdfrwt beam="1">  1       21 0.55282110E-01 0.19178747E+03</pdfrwt>
<pdfrwt beam="2">  1       21 0.61008944E-01 0.19178747E+03</pdfrwt>
<totfact> 0.77189599E+03</totfact>
</mgrwt>
</event>
<event>
 4    1  0.2299148E-001  0.2642186E+03  0.7546771E-02  0.1104635E+00
         21   -1    0    0  501  502  0.00000000000E+00  0.00000000000E+00  0.52464247940E+03  0.52464247940E+03  0.00000000000E+00 0. -1.
         21   -1    0    0  502  503 -0.00000000000E+00 -0.00000000000E+00 -0.14807912124E+03  0.14807912124E+03  0.00000000000E+00 0. -1.
          6    1    1    2  501    0  0.82306860196E+02 -0.18290177558E+03  0.29538684748E+03  0.39631410322E+03  0.17200000000E+03 0. -1.
         -6    1    1    2    0  503 -0.82306860196E+02  0.18290177558E+03  0.81176510673E+02  0.27640749742E+03  0.17200000000E+03 0. -1.
<mgrwt>
<rscale>  2 0.26421862E+03</rscale>
<asrwt>0</asrwt>
<pdfrwt beam="1">  1       21 0.13116062E+00 0.26421862E+03</pdfrwt>
<pdfrwt beam="2">  1       21 0.37019782E-01 0.26421862E+03</pdfrwt>
<totfact> 0.28139257E+03</totfact>
</mgrwt>
</event>
<event>
 4    1  0.2299148E-001  0.2020848E+03  0.7546771E-02  0.1147992E+00
         21   -1    0    0  501  502  0.00000000000E+00  0.00000000000E+00  0.13973729339E+03  0.13973729339E+03  0.00000000000E+00 0. -1.
         21   -1    0    0  502  503 -0.00000000000E+00 -0.00000000000E+00 -0.29900598369E+03  0.29900598369E+03  0.00000000000E+00 0. -1.
          6    1    1    2  501    0 -0.71814337551E+02 -0.78083046801E+02 -0.46659993907E+02  0.20740158222E+03  0.17200000000E+03 0. -1.
         -6    1    1    2    0  503  0.71814337551E+02  0.78083046801E+02 -0.11260869640E+03  0.23134169486E+03  0.17200000000E+03 0. -1.
<mgrwt>
<rscale>  2 0.20208479E+03</rscale>
<asrwt>0</asrwt>
<pdfrwt beam="1">  1       21 0.34934324E-01 0.20208479E+03</pdfrwt>
<pdfrwt beam="2">  1       21 0.74751495E-01 0.20208479E+03</pdfrwt>
<totfact> 0.12572778E+04</totfact>
</mgrwt>
</event>
<event>
 4    1  0.2299148E-001  0.2068937E+03  0.7546771E-02  0.1144050E+00
         21   -1    0    0  503  502  0.00000000000E+00  0.00000000000E+00  0.10085009749E+04  0.10085009749E+04  0.00000000000E+00 0. -1.
         21   -1    0    0  501  503 -0.00000000000E+00 -0.00000000000E+00 -0.42669884735E+02  0.42669884735E+02  0.00000000000E+00 0. -1.
          6    1    1    2  501    0  0.10765188830E+03 -0.40398755819E+02  0.52114172646E+03  0.56070820181E+03  0.17200000000E+03 0. -1.
         -6    1    1    2    0  502 -0.10765188830E+03  0.40398755819E+02  0.44468936375E+03  0.49046265787E+03  0.17200000000E+03 0. -1.
<mgrwt>
<rscale>  2 0.20689366E+03</rscale>
<asrwt>0</asrwt>
<pdfrwt beam="1">  1       21 0.25212517E+00 0.20689366E+03</pdfrwt>
<pdfrwt beam="2">  1       21 0.10667474E-01 0.20689366E+03</pdfrwt>
<totfact> 0.46080744E+03</totfact>
</mgrwt>
</event>
<event>
 4    1  0.2299148E-001  0.1857311E+03  0.7546771E-02  0.1162369E+00
         21   -1    0    0  501  502  0.00000000000E+00  0.00000000000E+00  0.28326558901E+03  0.28326558901E+03  0.00000000000E+00 0. -1.
         21   -1    0    0  502  503 -0.00000000000E+00 -0.00000000000E+00 -0.12463429133E+03  0.12463429133E+03  0.00000000000E+00 0.  1.
          6    1    1    2  501    0 -0.50382335284E+02 -0.48720064923E+02  0.11018089899E+03  0.21595336287E+03  0.17200000000E+03 0. -1.
         -6    1    1    2    0  503  0.50382335284E+02  0.48720064923E+02  0.48450398683E+02  0.19194651747E+03  0.17200000000E+03 0. -1.
<mgrwt>
<rscale>  2 0.18573105E+03</rscale>
<asrwt>0</asrwt>
<pdfrwt beam="1">  1       21 0.70816396E-01 0.18573105E+03</pdfrwt>
<pdfrwt beam="2">  1       21 0.31158573E-01 0.18573105E+03</pdfrwt>
<totfact> 0.17948809E+04</totfact>
</mgrwt>
</event>
<event>
 4    1  0.2299148E-001  0.1838586E+03  0.7546771E-02  0.1164120E+00
         21   -1    0    0  503  502  0.00000000000E+00  0.00000000000E+00  0.59130336049E+02  0.59130336049E+02  0.00000000000E+00 0.  1.
         21   -1    0    0  501  503 -0.00000000000E+00 -0.00000000000E+00 -0.60755646221E+03  0.60755646221E+03  0.00000000000E+00 0.  1.
          6    1    1    2  501    0  0.56747239018E+02  0.31618800321E+02 -0.19321665557E+03  0.26671459213E+03  0.17200000000E+03 0.  1.
         -6    1    1    2    0  502 -0.56747239018E+02 -0.31618800321E+02 -0.35520947059E+03  0.39997220612E+03  0.17200000000E+03 0.  1.
<mgrwt>
<rscale>  2 0.18385864E+03</rscale>
<asrwt>0</asrwt>
<pdfrwt beam="1">  1       21 0.14782584E-01 0.18385864E+03</pdfrwt>
<pdfrwt beam="2">  1       21 0.15188911E+00 0.18385864E+03</pdfrwt>
<totfact> 0.11726811E+04</totfact>
</mgrwt>
</event>
<event>
 4    1  0.2299148E-001  0.1807308E+03  0.7546771E-02  0.1167098E+00
         21   -1    0    0  503  502  0.00000000000E+00  0.00000000000E+00  0.99740419302E+02  0.99740419302E+02  0.00000000000E+00 0.  1.
         21   -1    0    0  501  503 -0.00000000000E+00 -0.00000000000E+00 -0.49354328870E+03  0.49354328870E+03  0.00000000000E+00 0.  1.
          6    1    1    2  501    0  0.54636894821E+02 -0.97166736219E+01 -0.36896883671E+03  0.41085472674E+03  0.17200000000E+03 0.  1.
         -6    1    1    2    0  502 -0.54636894821E+02  0.97166736219E+01 -0.24834032681E+02  0.18242898125E+03  0.17200000000E+03 0.  1.
<mgrwt>
<rscale>  2 0.18073075E+03</rscale>
<asrwt>0</asrwt>
<pdfrwt beam="1">  1       21 0.24935105E-01 0.18073075E+03</pdfrwt>
<pdfrwt beam="2">  1       21 0.12338582E+00 0.18073075E+03</pdfrwt>
<totfact> 0.75701790E+03</totfact>
</mgrwt>
</event>
<event>
 4    1  0.2299148E-001  0.3548617E+03  0.7546771E-02  0.1060637E+00
         21   -1    0    0  503  502  0.00000000000E+00  0.00000000000E+00  0.12504894817E+03  0.12504894817E+03  0.00000000000E+00 0. -1.
         21   -1    0    0  501  503 -0.00000000000E+00 -0.00000000000E+00 -0.10220023016E+04  0.10220023016E+04  0.00000000000E+00 0. -1.
          6    1    1    2  501    0 -0.18197511243E+03  0.25145161399E+03 -0.37903683108E+03  0.51922613093E+03  0.17200000000E+03 0. -1.
         -6    1    1    2    0  502  0.18197511243E+03 -0.25145161399E+03 -0.51791652239E+03  0.62782511887E+03  0.17200000000E+03 0. -1.
<mgrwt>
<rscale>  2 0.35486174E+03</rscale>
<asrwt>0</asrwt>
<pdfrwt beam="1">  1       21 0.31262237E-01 0.35486174E+03</pdfrwt>
<pdfrwt beam="2">  1       21 0.25550057E+00 0.35486174E+03</pdfrwt>
<totfact> 0.52014812E+02</totfact>
</mgrwt>
</event>
<event>
 4    1  0.2299148E-001  0.1998436E+03  0.7546771E-02  0.1149871E+00
         21   -1    0    0  501  502  0.00000000000E+00  0.00000000000E+00  0.79803540833E+03  0.79803540833E+03  0.00000000000E+00 0.  1.
         21   -1    0    0  502  503 -0.00000000000E+00 -0.00000000000E+00 -0.52386063081E+02  0.52386063081E+02  0.00000000000E+00 0.  1.
          6    1    1    2  501    0 -0.54530279444E+02 -0.85906443602E+02  0.46271805495E+03  0.50402923209E+03  0.17200000000E+03 0. -1.
         -6    1    1    2    0  503  0.54530279444E+02  0.85906443602E+02  0.28293129030E+03  0.34639223932E+03  0.17200000000E+03 0. -1.
<mgrwt>
<rscale>  2 0.19984361E+03</rscale>
<asrwt>0</asrwt>
<pdfrwt beam="1">  1       21 0.19950881E+00 0.19984361E+03</pdfrwt>
<pdfrwt beam="2">  1       21 0.13096518E-01 0.19984361E+03</pdfrwt>
<totfact> 0.67407297E+03</totfact>
</mgrwt>
</event>
<event>
 4    1  0.2299148E-001  0.1803223E+03  0.7546771E-02  0.1167491E+00
         21   -1    0    0  503  502  0.00000000000E+00  0.00000000000E+00  0.16831373844E+03  0.16831373844E+03  0.00000000000E+00 0. -1.
         21   -1    0    0  501  503 -0.00000000000E+00 -0.00000000000E+00 -0.20360251306E+03  0.20360251306E+03  0.00000000000E+00 0. -1.
          6    1    1    2  501    0 -0.53367311769E+02 -0.91692527948E+01 -0.59702442798E+02  0.18994874792E+03  0.17200000000E+03 0. -1.
         -6    1    1    2    0  502  0.53367311769E+02  0.91692527948E+01  0.24413668183E+02  0.18196750357E+03  0.17200000000E+03 0. -1.
<mgrwt>
<rscale>  2 0.18032234E+03</rscale>
<asrwt>0</asrwt>
<pdfrwt beam="1">  1       21 0.42078435E-01 0.18032234E+03</pdfrwt>
<pdfrwt beam="2">  1       21 0.50900628E-01 0.18032234E+03</pdfrwt>
<totfact> 0.20100977E+04</totfact>
</mgrwt>
</event>
<event>
 4    1  0.2299148E-001  0.1888188E+03  0.7546771E-02  0.1159531E+00
         21   -1    0    0  501  502  0.00000000000E+00  0.00000000000E+00  0.15547379482E+03  0.15547379482E+03  0.00000000000E+00 0. -1.
         21   -1    0    0  502  503 -0.00000000000E+00 -0.00000000000E+00 -0.23699572307E+03  0.23699572307E+03  0.00000000000E+00 0.  1.
          6    1    1    2  501    0 -0.15749074956E+02 -0.76292255616E+02 -0.76086950949E+02  0.20357250731E+03  0.17200000000E+03 0. -1.
         -6    1    1    2    0  503  0.15749074956E+02  0.76292255616E+02 -0.54349772976E+01  0.18889701058E+03  0.17200000000E+03 0. -1.
<mgrwt>
<rscale>  2 0.18881881E+03</rscale>
<asrwt>0</asrwt>
<pdfrwt beam="1">  1       21 0.38868449E-01 0.18881881E+03</pdfrwt>
<pdfrwt beam="2">  1       21 0.59248930E-01 0.18881881E+03</pdfrwt>
<totfact> 0.17030950E+04</totfact>
</mgrwt>
</event>
<event>
 4    1  0.2299148E-001  0.1812981E+03  0.7546771E-02  0.1166553E+00
         21   -1    0    0  503  502  0.00000000000E+00  0.00000000000E+00  0.44016341361E+02  0.44016341361E+02  0.00000000000E+00 0. -1.
         21   -1    0    0  501  503 -0.00000000000E+00 -0.00000000000E+00 -0.13710081845E+04  0.13710081845E+04  0.00000000000E+00 0.  1.
          6    1    1    2  501    0  0.47077538351E+02  0.32691027810E+02 -0.11409127138E+04  0.11552276046E+04  0.17200000000E+03 0.  1.
         -6    1    1    2    0  502 -0.47077538351E+02 -0.32691027810E+02 -0.18607912930E+03  0.25979692122E+03  0.17200000000E+03 0. -1.
<mgrwt>
<rscale>  2 0.18129809E+03</rscale>
<asrwt>0</asrwt>
<pdfrwt beam="1">  1       21 0.11004086E-01 0.18129809E+03</pdfrwt>
<pdfrwt beam="2">  1       21 0.34275202E+00 0.18129809E+03</pdfrwt>
<totfact> 0.13434117E+03</totfact>
</mgrwt>
</event>
<event>
 4    1  0.2299148E-001  0.2176796E+03  0.7546771E-02  0.1135625E+00
         21   -1    0    0  501  502  0.00000000000E+00  0.00000000000E+00  0.33550738123E+02  0.33550738123E+02  0.00000000000E+00 0.  1.
         21   -1    0    0  502  503 -0.00000000000E+00 -0.00000000000E+00 -0.14880677557E+04  0.14880677557E+04  0.00000000000E+00 0.  1.
          6    1    1    2  501    0 -0.13301358842E+03 -0.10383396181E+02 -0.55560806000E+03  0.59672836865E+03  0.17200000000E+03 0. -1.
         -6    1    1    2    0  503  0.13301358842E+03  0.10383396181E+02 -0.89890895758E+03  0.92489012518E+03  0.17200000000E+03 0. -1.
<mgrwt>
<rscale>  2 0.21767965E+03</rscale>
<asrwt>0</asrwt>
<pdfrwt beam="1">  1       21 0.83876851E-02 0.21767965E+03</pdfrwt>
<pdfrwt beam="2">  1       21 0.37201691E+00 0.21767965E+03</pdfrwt>
<totfact> 0.13796911E+03</totfact>
</mgrwt>
</event>
<event>
 4    1  0.2299148E-001  0.2472397E+03  0.7546771E-02  0.1115062E+00
         21   -1    0    0  501  502  0.00000000000E+00  0.00000000000E+00  0.23626076562E+03  0.23626076562E+03  0.00000000000E+00 0.  1.
         21   -1    0    0  502  503 -0.00000000000E+00 -0.00000000000E+00 -0.29754195499E+03  0.29754195499E+03  0.00000000000E+00 0.  1.
          6    1    1    2  501    0  0.17546951258E+03  0.27457422730E+02  0.65757013903E+02  0.25583479979E+03  0.17200000000E+03 0.  1.
         -6    1    1    2    0  503 -0.17546951258E+03 -0.27457422730E+02 -0.12703820327E+03  0.27796792081E+03  0.17200000000E+03 0.  1.
<mgrwt>
<rscale>  2 0.24723968E+03</rscale>
<asrwt>0</asrwt>
<pdfrwt beam="1">  1       21 0.59065192E-01 0.24723968E+03</pdfrwt>
<pdfrwt beam="2">  1       21 0.74385489E-01 0.24723968E+03</pdfrwt>
<totfact> 0.41707028E+03</totfact>
</mgrwt>
</event>
<event>
 4    1  0.2299148E-001  0.2519480E+03  0.7546771E-02  0.1112080E+00
         21   -1    0    0  501  502  0.00000000000E+00  0.00000000000E+00  0.44333879214E+03  0.44333879214E+03  0.00000000000E+00 0. -1.
         21   -1    0    0  502  503 -0.00000000000E+00 -0.00000000000E+00 -0.14429772051E+03  0.14429772051E+03  0.00000000000E+00 0.  1.
          6    1    1    2  501    0  0.12455894525E+03  0.13556865395E+03  0.17536560997E+03  0.30697050011E+03  0.17200000000E+03 0. -1.
         -6    1    1    2    0  503 -0.12455894525E+03 -0.13556865395E+03  0.12367546166E+03  0.28066601254E+03  0.17200000000E+03 0.  1.
<mgrwt>
<rscale>  2 0.25194799E+03</rscale>
<asrwt>0</asrwt>
<pdfrwt beam="1">  1       21 0.11083470E+00 0.25194799E+03</pdfrwt>
<pdfrwt beam="2">  1       21 0.36074431E-01 0.25194799E+03</pdfrwt>
<totfact> 0.45512212E+03</totfact>
</mgrwt>
</event>
<event>
 4    1  0.2299148E-001  0.1876640E+03  0.7546771E-02  0.1160585E+00
         21   -1    0    0  503  502  0.00000000000E+00  0.00000000000E+00  0.47121204846E+03  0.47121204846E+03  0.00000000000E+00 0. -1.
         21   -1    0    0  501  503 -0.00000000000E+00 -0.00000000000E+00 -0.79027368441E+02  0.79027368441E+02  0.00000000000E+00 0. -1.
          6    1    1    2  501    0  0.31480051769E+02 -0.68137887670E+02  0.13200159648E+03  0.22943885214E+03  0.17200000000E+03 0. -1.
         -6    1    1    2    0  502 -0.31480051769E+02  0.68137887670E+02  0.26018308353E+03  0.32080056476E+03  0.17200000000E+03 0. -1.
<mgrwt>
<rscale>  2 0.18766397E+03</rscale>
<asrwt>0</asrwt>
<pdfrwt beam="1">  1       21 0.11780300E+00 0.18766397E+03</pdfrwt>
<pdfrwt beam="2">  1       21 0.19756843E-01 0.18766397E+03</pdfrwt>
<totfact> 0.13098772E+04</totfact>
</mgrwt>
</event>
<event>
 4    1  0.2299148E-001  0.2298138E+03  0.7546771E-02  0.1126771E+00
         21   -1    0    0  501  502  0.00000000000E+00  0.00000000000E+00  0.33202469822E+03  0.33202469822E+03  0.00000000000E+00 0. -1.
         21   -1    0    0  502  503 -0.00000000000E+00 -0.00000000000E+00 -0.20905535669E+03  0.20905535669E+03  0.00000000000E+00 0. -1.
          6    1    1    2  501    0 -0.11025917922E+03  0.10522963760E+03  0.19377643755E+03  0.30060550724E+03  0.17200000000E+03 0. -1.
         -6    1    1    2    0  503  0.11025917922E+03 -0.10522963760E+03 -0.70807096024E+02  0.24047454767E+03  0.17200000000E+03 0. -1.
<mgrwt>
<rscale>  2 0.22981376E+03</rscale>
<asrwt>0</asrwt>
<pdfrwt beam="1">  1       21 0.83006174E-01 0.22981376E+03</pdfrwt>
<pdfrwt beam="2">  1       21 0.52263840E-01 0.22981376E+03</pdfrwt>
<totfact> 0.42714317E+03</totfact>
</mgrwt>
</event>
<event>
 4    1  0.2299148E-001  0.2090366E+03  0.7546771E-02  0.1142331E+00
         21   -1    0    0  501  502  0.00000000000E+00  0.00000000000E+00  0.24090860843E+03  0.24090860843E+03  0.00000000000E+00 0.  1.
         21   -1    0    0  502  503 -0.00000000000E+00 -0.00000000000E+00 -0.19505564141E+03  0.19505564141E+03  0.00000000000E+00 0. -1.
          6    1    1    2  501    0 -0.74842691223E+02 -0.92254318293E+02 -0.34789584811E+02  0.21191178090E+03  0.17200000000E+03 0.  1.
         -6    1    1    2    0  503  0.74842691223E+02  0.92254318293E+02  0.80642551830E+02  0.22405246894E+03  0.17200000000E+03 0.  1.
<mgrwt>
<rscale>  2 0.20903657E+03</rscale>
<asrwt>0</asrwt>
<pdfrwt beam="1">  1       21 0.60227152E-01 0.20903657E+03</pdfrwt>
<pdfrwt beam="2">  1       21 0.48763910E-01 0.20903657E+03</pdfrwt>
<totfact> 0.10203360E+04</totfact>
</mgrwt>
</event>
<event>
 4    1  0.2299148E-001  0.1732560E+03  0.7546771E-02  0.1174494E+00
         21   -1    0    0  501  502  0.00000000000E+00  0.00000000000E+00  0.42202208320E+03  0.42202208320E+03  0.00000000000E+00 0. -1.
         21   -1    0    0  502  503 -0.00000000000E+00 -0.00000000000E+00 -0.75912707060E+02  0.75912707060E+02  0.00000000000E+00 0. -1.
          6    1    1    2  501    0 -0.20499048135E+02  0.36651893090E+01  0.11055084926E+03  0.20552161652E+03  0.17200000000E+03 0.  1.
         -6    1    1    2    0  503  0.20499048135E+02 -0.36651893090E+01  0.23555852688E+03  0.29241317373E+03  0.17200000000E+03 0.  1.
<mgrwt>
<rscale>  2 0.17325601E+03</rscale>
<asrwt>0</asrwt>
<pdfrwt beam="1">  1       21 0.10550551E+00 0.17325601E+03</pdfrwt>
<pdfrwt beam="2">  1       21 0.18978178E-01 0.17325601E+03</pdfrwt>
<totfact> 0.18613533E+04</totfact>
</mgrwt>
</event>
<event>
 4    1  0.2299148E-001  0.2083715E+03  0.7546771E-02  0.1142862E+00
         21   -1    0    0  501  502  0.00000000000E+00  0.00000000000E+00  0.78189093998E+03  0.78189093998E+03  0.00000000000E+00 0. -1.
         21   -1    0    0  502  503 -0.00000000000E+00 -0.00000000000E+00 -0.67064964058E+02  0.67064964058E+02  0.00000000000E+00 0.  1.
          6    1    1    2  501    0  0.10105551309E+03  0.60187084801E+02  0.53345172210E+03  0.57270362468E+03  0.17200000000E+03 0. -1.
         -6    1    1    2    0  503 -0.10105551309E+03 -0.60187084801E+02  0.18137425382E+03  0.27625227936E+03  0.17200000000E+03 0. -1.
<mgrwt>
<rscale>  2 0.20837155E+03</rscale>
<asrwt>0</asrwt>
<pdfrwt beam="1">  1       21 0.19547271E+00 0.20837155E+03</pdfrwt>
<pdfrwt beam="2">  1       21 0.16766243E-01 0.20837155E+03</pdfrwt>
<totfact> 0.45307029E+03</totfact>
</mgrwt>
</event>
<event>
 4    1  0.2299148E-001  0.2149733E+03  0.7546771E-02  0.1137687E+00
         21   -1    0    0  501  502  0.00000000000E+00  0.00000000000E+00  0.40493150480E+02  0.40493150480E+02  0.00000000000E+00 0. -1.
         21   -1    0    0  502  503 -0.00000000000E+00 -0.00000000000E+00 -0.13854610518E+04  0.13854610518E+04  0.00000000000E+00 0. -1.
          6    1    1    2  501    0  0.11214235020E+03  0.63667901396E+02 -0.37315708514E+03  0.43065034374E+03  0.17200000000E+03 0. -1.
         -6    1    1    2    0  503 -0.11214235020E+03 -0.63667901396E+02 -0.97181081617E+03  0.99530385853E+03  0.17200000000E+03 0. -1.
<mgrwt>
<rscale>  2 0.21497327E+03</rscale>
<asrwt>0</asrwt>
<pdfrwt beam="1">  1       21 0.10123288E-01 0.21497327E+03</pdfrwt>
<pdfrwt beam="2">  1       21 0.34636525E+00 0.21497327E+03</pdfrwt>
<totfact> 0.14157500E+03</totfact>
</mgrwt>
</event>
<event>
 4    1  0.2299148E-001  0.1824599E+03  0.7546771E-02  0.1165443E+00
         21   -1    0    0  501  502  0.00000000000E+00  0.00000000000E+00  0.15476317644E+03  0.15476317644E+03  0.00000000000E+00 0. -1.
         21   -1    0    0  502  503 -0.00000000000E+00 -0.00000000000E+00 -0.21619435008E+03  0.21619435008E+03  0.00000000000E+00 0. -1.
          6    1    1    2  501    0  0.10281945439E+02 -0.60015689713E+02 -0.43832025691E+02  0.18765086701E+03  0.17200000000E+03 0. -1.
         -6    1    1    2    0  503 -0.10281945439E+02  0.60015689713E+02 -0.17599147947E+02  0.18330665951E+03  0.17200000000E+03 0. -1.
<mgrwt>
<rscale>  2 0.18245986E+03</rscale>
<asrwt>0</asrwt>
<pdfrwt beam="1">  1       21 0.38690794E-01 0.18245986E+03</pdfrwt>
<pdfrwt beam="2">  1       21 0.54048587E-01 0.18245986E+03</pdfrwt>
<totfact> 0.20971416E+04</totfact>
</mgrwt>
</event>
<event>
 4    1  0.2299148E-001  0.1939225E+03  0.7546771E-02  0.1154970E+00
         21   -1    0    0  501  502  0.00000000000E+00  0.00000000000E+00  0.20068299907E+03  0.20068299907E+03  0.00000000000E+00 0. -1.
         21   -1    0    0  502  503 -0.00000000000E+00 -0.00000000000E+00 -0.32695616258E+03  0.32695616258E+03  0.00000000000E+00 0. -1.
          6    1    1    2  501    0 -0.66335659503E+02  0.60178929939E+02  0.10922990357E+03  0.22256930418E+03  0.17200000000E+03 0. -1.
         -6    1    1    2    0  503  0.66335659503E+02 -0.60178929939E+02 -0.23550306708E+03  0.30506985747E+03  0.17200000000E+03 0. -1.
<mgrwt>
<rscale>  2 0.19392247E+03</rscale>
<asrwt>0</asrwt>
<pdfrwt beam="1">  1       21 0.50170750E-01 0.19392247E+03</pdfrwt>
<pdfrwt beam="2">  1       21 0.81739041E-01 0.19392247E+03</pdfrwt>
<totfact> 0.49515035E+03</totfact>
</mgrwt>
</event>
<event>
 4    1  0.2299148E-001  0.2017235E+03  0.7546771E-02  0.1148293E+00
         21   -1    0    0  503  502  0.00000000000E+00  0.00000000000E+00  0.34800658870E+03  0.34800658870E+03  0.00000000000E+00 0.  1.
         21   -1    0    0  501  503 -0.00000000000E+00 -0.00000000000E+00 -0.11852518858E+03  0.11852518858E+03  0.00000000000E+00 0. -1.
          6    1    1    2  501    0 -0.66281686569E+02  0.81945777263E+02  0.14180313061E+03  0.24657757448E+03  0.17200000000E+03 0.  1.
         -6    1    1    2    0  502  0.66281686569E+02 -0.81945777263E+02  0.87678269514E+02  0.21995420280E+03  0.17200000000E+03 0. -1.
<mgrwt>
<rscale>  2 0.20172350E+03</rscale>
<asrwt>0</asrwt>
<pdfrwt beam="1">  1       21 0.87001645E-01 0.20172350E+03</pdfrwt>
<pdfrwt beam="2">  1       21 0.29631298E-01 0.20172350E+03</pdfrwt>
<totfact> 0.12324873E+04</totfact>
</mgrwt>
</event>
<event>
 4    1  0.2299148E-001  0.2015609E+03  0.7546771E-02  0.1148429E+00
         21   -1    0    0  503  502  0.00000000000E+00  0.00000000000E+00  0.18043444433E+03  0.18043444433E+03  0.00000000000E+00 0.  1.
         21   -1    0    0  501  503 -0.00000000000E+00 -0.00000000000E+00 -0.22753403490E+03  0.22753403490E+03  0.00000000000E+00 0.  1.
          6    1    1    2  501    0 -0.63360576943E+02 -0.83834601763E+02 -0.27181368096E+01  0.20157924355E+03  0.17200000000E+03 0.  1.
         -6    1    1    2    0  502  0.63360576943E+02  0.83834601763E+02 -0.44381453764E+02  0.20638923567E+03  0.17200000000E+03 0.  1.
<mgrwt>
<rscale>  2 0.20156092E+03</rscale>
<asrwt>0</asrwt>
<pdfrwt beam="1">  1       21 0.45108611E-01 0.20156092E+03</pdfrwt>
<pdfrwt beam="2">  1       21 0.56883508E-01 0.20156092E+03</pdfrwt>
<totfact> 0.13614685E+04</totfact>
</mgrwt>
</event>
<event>
 4    1  0.2299148E-001  0.1788714E+03  0.7546771E-02  0.1168900E+00
         21   -1    0    0  503  502  0.00000000000E+00  0.00000000000E+00  0.11059172317E+03  0.11059172317E+03  0.00000000000E+00 0. -1.
         21   -1    0    0  501  503 -0.00000000000E+00 -0.00000000000E+00 -0.37566070731E+03  0.37566070731E+03  0.00000000000E+00 0. -1.
          6    1    1    2  501    0  0.45981354638E+02 -0.17225274774E+02 -0.24910094789E+03  0.30666965501E+03  0.17200000000E+03 0. -1.
         -6    1    1    2    0  502 -0.45981354638E+02  0.17225274774E+02 -0.15968036251E+02  0.17958277547E+03  0.17200000000E+03 0. -1.
<mgrwt>
<rscale>  2 0.17887145E+03</rscale>
<asrwt>0</asrwt>
<pdfrwt beam="1">  1       21 0.27647931E-01 0.17887145E+03</pdfrwt>
<pdfrwt beam="2">  1       21 0.93915176E-01 0.17887145E+03</pdfrwt>
<totfact> 0.11992964E+04</totfact>
</mgrwt>
</event>
<event>
 4    1  0.2299148E-001  0.1824043E+03  0.7546771E-02  0.1165496E+00
         21   -1    0    0  503  502  0.00000000000E+00  0.00000000000E+00  0.14539498813E+03  0.14539498813E+03  0.00000000000E+00 0. -1.
         21   -1    0    0  501  503 -0.00000000000E+00 -0.00000000000E+00 -0.25108689219E+03  0.25108689219E+03  0.00000000000E+00 0.  1.
          6    1    1    2  501    0  0.60417789763E+02 -0.60841529863E+01 -0.11186251601E+03  0.21397324301E+03  0.17200000000E+03 0.  1.
         -6    1    1    2    0  502 -0.60417789763E+02  0.60841529863E+01  0.61706119456E+01  0.18250863730E+03  0.17200000000E+03 0. -1.
<mgrwt>
<rscale>  2 0.18240429E+03</rscale>
<asrwt>0</asrwt>
<pdfrwt beam="1">  1       21 0.36348747E-01 0.18240429E+03</pdfrwt>
<pdfrwt beam="2">  1       21 0.62771723E-01 0.18240429E+03</pdfrwt>
<totfact> 0.17267920E+04</totfact>
</mgrwt>
</event>
<event>
 4    1  0.2299148E-001  0.2349450E+03  0.7546771E-02  0.1123207E+00
         21   -1    0    0  501  502  0.00000000000E+00  0.00000000000E+00  0.72091756127E+02  0.72091756127E+02  0.00000000000E+00 0.  1.
         21   -1    0    0  502  503 -0.00000000000E+00 -0.00000000000E+00 -0.77364712889E+03  0.77364712889E+03  0.00000000000E+00 0.  1.
          6    1    1    2  501    0 -0.15988041890E+03  0.73082504788E+01 -0.30786286602E+03  0.38727083952E+03  0.17200000000E+03 0.  1.
         -6    1    1    2    0  503  0.15988041890E+03 -0.73082504788E+01 -0.39369250675E+03  0.45846804549E+03  0.17200000000E+03 0.  1.
<mgrwt>
<rscale>  2 0.23494501E+03</rscale>
<asrwt>0</asrwt>
<pdfrwt beam="1">  1       21 0.18022939E-01 0.23494501E+03</pdfrwt>
<pdfrwt beam="2">  1       21 0.19341178E+00 0.23494501E+03</pdfrwt>
<totfact> 0.39987007E+03</totfact>
</mgrwt>
</event>
<event>
 4    1  0.2299148E-001  0.2131264E+03  0.7546771E-02  0.1139114E+00
         21   -1    0    0  501  502  0.00000000000E+00  0.00000000000E+00  0.73499557562E+02  0.73499557562E+02  0.00000000000E+00 0. -1.
         21   -1    0    0  502  503 -0.00000000000E+00 -0.00000000000E+00 -0.61980230181E+03  0.61980230181E+03  0.00000000000E+00 0.  1.
          6    1    1    2  501    0  0.11779785132E+03  0.44300424251E+02 -0.29183488208E+03  0.36137302025E+03  0.17200000000E+03 0. -1.
         -6    1    1    2    0  503 -0.11779785132E+03 -0.44300424251E+02 -0.25446786217E+03  0.33192883912E+03  0.17200000000E+03 0.  1.
<mgrwt>
<rscale>  2 0.21312640E+03</rscale>
<asrwt>0</asrwt>
<pdfrwt beam="1">  1       21 0.18374890E-01 0.21312640E+03</pdfrwt>
<pdfrwt beam="2">  1       21 0.15495057E+00 0.21312640E+03</pdfrwt>
<totfact> 0.72950771E+03</totfact>
</mgrwt>
</event>
<event>
 4    1  0.2299148E-001  0.2365958E+03  0.7546771E-02  0.1122082E+00
         21   -1    0    0  501  502  0.00000000000E+00  0.00000000000E+00  0.71364240969E+02  0.71364240969E+02  0.00000000000E+00 0.  1.
         21   -1    0    0  502  503 -0.00000000000E+00 -0.00000000000E+00 -0.12252976516E+04  0.12252976516E+04  0.00000000000E+00 0. -1.
          6    1    1    2  501    0  0.35841899973E+02 -0.15845804866E+03 -0.96587607179E+03  0.99443158690E+03  0.17200000000E+03 0.  1.
         -6    1    1    2    0  503 -0.35841899973E+02  0.15845804866E+03 -0.18805733888E+03  0.30223030570E+03  0.17200000000E+03 0. -1.
<mgrwt>
<rscale>  2 0.23659585E+03</rscale>
<asrwt>0</asrwt>
<pdfrwt beam="1">  1       21 0.17841060E-01 0.23659585E+03</pdfrwt>
<pdfrwt beam="2">  1       21 0.30632442E+00 0.23659585E+03</pdfrwt>
<totfact> 0.84753129E+02</totfact>
</mgrwt>
</event>
<event>
 4    1  0.2299148E-001  0.1879477E+03  0.7546771E-02  0.1160326E+00
         21   -1    0    0  503  502  0.00000000000E+00  0.00000000000E+00  0.22495996281E+03  0.22495996281E+03  0.00000000000E+00 0.  1.
         21   -1    0    0  501  503 -0.00000000000E+00 -0.00000000000E+00 -0.17793371618E+03  0.17793371618E+03  0.00000000000E+00 0.  1.
          6    1    1    2  501    0  0.51716575824E+02 -0.55369045791E+02 -0.45541878737E+02  0.19338665457E+03  0.17200000000E+03 0.  1.
         -6    1    1    2    0  502 -0.51716575824E+02  0.55369045791E+02  0.92568125372E+02  0.20950702442E+03  0.17200000000E+03 0.  1.
<mgrwt>
<rscale>  2 0.18794769E+03</rscale>
<asrwt>0</asrwt>
<pdfrwt beam="1">  1       21 0.56239990E-01 0.18794769E+03</pdfrwt>
<pdfrwt beam="2">  1       21 0.44483429E-01 0.18794769E+03</pdfrwt>
<totfact> 0.14479887E+04</totfact>
</mgrwt>
</event>
<event>
 4    1  0.2299148E-001  0.1786347E+03  0.7546771E-02  0.1169131E+00
         21   -1    0    0  501  502  0.00000000000E+00  0.00000000000E+00  0.23832360803E+03  0.23832360803E+03  0.00000000000E+00 0.  1.
         21   -1    0    0  502  503 -0.00000000000E+00 -0.00000000000E+00 -0.14075383910E+03  0.14075383910E+03  0.00000000000E+00 0.  1.
          6    1    1    2  501    0  0.33783205083E+02 -0.34424323549E+02  0.90625031385E+02  0.20030785135E+03  0.17200000000E+03 0.  1.
         -6    1    1    2    0  503 -0.33783205083E+02  0.34424323549E+02  0.69447375405E+01  0.17876959578E+03  0.17200000000E+03 0.  1.
<mgrwt>
<rscale>  2 0.17863465E+03</rscale>
<asrwt>0</asrwt>
<pdfrwt beam="1">  1       21 0.59580901E-01 0.17863465E+03</pdfrwt>
<pdfrwt beam="2">  1       21 0.35188460E-01 0.17863465E+03</pdfrwt>
<totfact> 0.20652224E+04</totfact>
</mgrwt>
</event>
<event>
 4    1  0.2299148E-001  0.1939097E+03  0.7546771E-02  0.1154982E+00
         21   -1    0    0  501  502  0.00000000000E+00  0.00000000000E+00  0.28040194571E+03  0.28040194571E+03  0.00000000000E+00 0.  1.
         21   -1    0    0  502  503 -0.00000000000E+00 -0.00000000000E+00 -0.13409789952E+03  0.13409789952E+03  0.00000000000E+00 0.  1.
          6    1    1    2  501    0  0.86763723850E+02  0.22113857924E+02  0.72523839340E+02  0.20702819557E+03  0.17200000000E+03 0.  1.
         -6    1    1    2    0  503 -0.86763723850E+02 -0.22113857924E+02  0.73780206853E+02  0.20747164966E+03  0.17200000000E+03 0.  1.
<mgrwt>
<rscale>  2 0.19390969E+03</rscale>
<asrwt>0</asrwt>
<pdfrwt beam="1">  1       21 0.70100485E-01 0.19390969E+03</pdfrwt>
<pdfrwt beam="2">  1       21 0.33524475E-01 0.19390969E+03</pdfrwt>
<totfact> 0.15817290E+04</totfact>
</mgrwt>
</event>
<event>
 4    1  0.2299148E-001  0.1744128E+03  0.7546771E-02  0.1173323E+00
         21   -1    0    0  501  502  0.00000000000E+00  0.00000000000E+00  0.14018517025E+03  0.14018517025E+03  0.00000000000E+00 0.  1.
         21   -1    0    0  502  503 -0.00000000000E+00 -0.00000000000E+00 -0.25260216712E+03  0.25260216712E+03  0.00000000000E+00 0.  1.
          6    1    1    2  501    0  0.65384746257E+01  0.28161436392E+02  0.17524686153E+02  0.17529099456E+03  0.17200000000E+03 0.  1.
         -6    1    1    2    0  503 -0.65384746257E+01 -0.28161436392E+02 -0.12994168302E+03  0.21749634281E+03  0.17200000000E+03 0.  1.
<mgrwt>
<rscale>  2 0.17441278E+03</rscale>
<asrwt>0</asrwt>
<pdfrwt beam="1">  1       21 0.35046293E-01 0.17441278E+03</pdfrwt>
<pdfrwt beam="2">  1       21 0.63150541E-01 0.17441278E+03</pdfrwt>
<totfact> 0.18419057E+04</totfact>
</mgrwt>
</event>
<event>
 4    1  0.2299148E-001  0.1849777E+03  0.7546771E-02  0.1163071E+00
         21   -1    0    0  503  502  0.00000000000E+00  0.00000000000E+00  0.14429667269E+04  0.14429667269E+04  0.00000000000E+00 0. -1.
         21   -1    0    0  501  503 -0.00000000000E+00 -0.00000000000E+00 -0.35667512877E+02  0.35667512877E+02  0.00000000000E+00 0.  1.
          6    1    1    2  501    0 -0.52349109694E+02 -0.43500795522E+02  0.27562933489E+03  0.33194619857E+03  0.17200000000E+03 0.  1.
         -6    1    1    2    0  502  0.52349109694E+02  0.43500795522E+02  0.11316698791E+04  0.11466880412E+04  0.17200000000E+03 0. -1.
<mgrwt>
<rscale>  2 0.18497770E+03</rscale>
<asrwt>0</asrwt>
<pdfrwt beam="1">  1       21 0.36074149E+00 0.18497770E+03</pdfrwt>
<pdfrwt beam="2">  1       21 0.89168830E-02 0.18497770E+03</pdfrwt>
<totfact> 0.15164242E+03</totfact>
</mgrwt>
</event>
<event>
 4    1  0.2299148E-001  0.2624487E+03  0.7546771E-02  0.1105681E+00
         21   -1    0    0  503  502  0.00000000000E+00  0.00000000000E+00  0.16070608191E+03  0.16070608191E+03  0.00000000000E+00 0.  1.
         21   -1    0    0  501  503 -0.00000000000E+00 -0.00000000000E+00 -0.59625071792E+03  0.59625071792E+03  0.00000000000E+00 0. -1.
          6    1    1    2  501    0  0.18428933955E+03 -0.73025583598E+02 -0.41846149486E+03  0.49395274998E+03  0.17200000000E+03 0. -1.
         -6    1    1    2    0  502 -0.18428933955E+03  0.73025583598E+02 -0.17083141145E+02  0.26300404986E+03  0.17200000000E+03 0.  1.
<mgrwt>
<rscale>  2 0.26244866E+03</rscale>
<asrwt>0</asrwt>
<pdfrwt beam="1">  1       21 0.40176521E-01 0.26244866E+03</pdfrwt>
<pdfrwt beam="2">  1       21 0.14906268E+00 0.26244866E+03</pdfrwt>
<totfact> 0.17098194E+03</totfact>
</mgrwt>
</event>
<event>
 4    1  0.2299148E-001  0.2181018E+03  0.7546771E-02  0.1135306E+00
         21   -1    0    0  503  502  0.00000000000E+00  0.00000000000E+00  0.44176989820E+03  0.44176989820E+03  0.00000000000E+00 0.  1.
         21   -1    0    0  501  503 -0.00000000000E+00 -0.00000000000E+00 -0.23657917308E+03  0.23657917308E+03  0.00000000000E+00 0.  1.
          6    1    1    2  501    0  0.12766743682E+03 -0.41053648420E+02 -0.14776490795E+03  0.26344419617E+03  0.17200000000E+03 0.  1.
         -6    1    1    2    0  502 -0.12766743682E+03  0.41053648420E+02  0.35295563308E+03  0.41490487511E+03  0.17200000000E+03 0.  1.
<mgrwt>
<rscale>  2 0.21810176E+03</rscale>
<asrwt>0</asrwt>
<pdfrwt beam="1">  1       21 0.11044247E+00 0.21810176E+03</pdfrwt>
<pdfrwt beam="2">  1       21 0.59144794E-01 0.21810176E+03</pdfrwt>
<totfact> 0.16890003E+03</totfact>
</mgrwt>
</event>
<event>
 4    1  0.2299148E-001  0.1886494E+03  0.7546771E-02  0.1159685E+00
         21   -1    0    0  501  502  0.00000000000E+00  0.00000000000E+00  0.51023961980E+03  0.51023961980E+03  0.00000000000E+00 0. -1.
         21   -1    0    0  502  503 -0.00000000000E+00 -0.00000000000E+00 -0.93726244172E+02  0.93726244172E+02  0.00000000000E+00 0. -1.
          6    1    1    2  501    0  0.48607551266E+02 -0.60348227697E+02  0.36099683654E+03  0.40731722111E+03  0.17200000000E+03 0. -1.
         -6    1    1    2    0  503 -0.48607551266E+02  0.60348227697E+02  0.55516539094E+02  0.19664864286E+03  0.17200000000E+03 0. -1.
<mgrwt>
<rscale>  2 0.18864942E+03</rscale>
<asrwt>0</asrwt>
<pdfrwt beam="1">  1       21 0.12755990E+00 0.18864942E+03</pdfrwt>
<pdfrwt beam="2">  1       21 0.23431562E-01 0.18864942E+03</pdfrwt>
<totfact> 0.77920495E+03</totfact>
</mgrwt>
</event>
<event>
 4    1  0.2299148E-001  0.1903823E+03  0.7546771E-02  0.1158117E+00
         21   -1    0    0  503  502  0.00000000000E+00  0.00000000000E+00  0.41634507045E+03  0.41634507045E+03  0.00000000000E+00 0.  1.
         21   -1    0    0  501  503 -0.00000000000E+00 -0.00000000000E+00 -0.10938541243E+03  0.10938541243E+03  0.00000000000E+00 0.  1.
          6    1    1    2  501    0  0.60292155324E+02 -0.55011632413E+02  0.34714392583E+02  0.19352134959E+03  0.17200000000E+03 0.  1.
         -6    1    1    2    0  502 -0.60292155324E+02  0.55011632413E+02  0.27224526544E+03  0.33220913330E+03  0.17200000000E+03 0.  1.
<mgrwt>
<rscale>  2 0.19038231E+03</rscale>
<asrwt>0</asrwt>
<pdfrwt beam="1">  1       21 0.10408626E+00 0.19038231E+03</pdfrwt>
<pdfrwt beam="2">  1       21 0.27346354E-01 0.19038231E+03</pdfrwt>
<totfact> 0.95300230E+03</totfact>
</mgrwt>
</event>
<event>
 4    1  0.2299148E-001  0.2967985E+03  0.7546771E-02  0.1086852E+00
         21   -1    0    0  503  502  0.00000000000E+00  0.00000000000E+00  0.35075143590E+03  0.35075143590E+03  0.00000000000E+00 0. -1.
         21   -1    0    0  501  503 -0.00000000000E+00 -0.00000000000E+00 -0.27839047423E+03  0.27839047423E+03  0.00000000000E+00 0. -1.
          6    1    1    2  501    0 -0.62831278069E+02 -0.23357560562E+03 -0.62230082745E+02  0.30325223205E+03  0.17200000000E+03 0. -1.
         -6    1    1    2    0  502  0.62831278069E+02  0.23357560562E+03  0.13459104441E+03  0.32588967808E+03  0.17200000000E+03 0. -1.
<mgrwt>
<rscale>  2 0.29679847E+03</rscale>
<asrwt>0</asrwt>
<pdfrwt beam="1">  1       21 0.87687859E-01 0.29679847E+03</pdfrwt>
<pdfrwt beam="2">  1       21 0.69597619E-01 0.29679847E+03</pdfrwt>
<totfact> 0.19385501E+03</totfact>
</mgrwt>
</event>
<event>
 4    1  0.2299148E-001  0.1826514E+03  0.7546771E-02  0.1165261E+00
         21   -1    0    0  503  502  0.00000000000E+00  0.00000000000E+00  0.18146473906E+03  0.18146473906E+03  0.00000000000E+00 0.  1.
         21   -1    0    0  501  503 -0.00000000000E+00 -0.00000000000E+00 -0.24347387393E+03  0.24347387393E+03  0.00000000000E+00 0.  1.
          6    1    1    2  501    0  0.61438164378E+02 -0.17013148096E+01 -0.13615114938E+03  0.22781281349E+03  0.17200000000E+03 0.  1.
         -6    1    1    2    0  502 -0.61438164378E+02  0.17013148096E+01  0.74142014505E+02  0.19712579950E+03  0.17200000000E+03 0.  1.
<mgrwt>
<rscale>  2 0.18265142E+03</rscale>
<asrwt>0</asrwt>
<pdfrwt beam="1">  1       21 0.45366185E-01 0.18265142E+03</pdfrwt>
<pdfrwt beam="2">  1       21 0.60868468E-01 0.18265142E+03</pdfrwt>
<totfact> 0.11787054E+04</totfact>
</mgrwt>
</event>
<event>
 4    1  0.2299148E-001  0.2103461E+03  0.7546771E-02  0.1141292E+00
         21   -1    0    0  501  502  0.00000000000E+00  0.00000000000E+00  0.68439046104E+03  0.68439046104E+03  0.00000000000E+00 0. -1.
         21   -1    0    0  502  503 -0.00000000000E+00 -0.00000000000E+00 -0.71812112176E+02  0.71812112176E+02  0.00000000000E+00 0.  1.
          6    1    1    2  501    0 -0.12057425762E+03  0.11106237409E+02  0.18687797311E+03  0.28136964468E+03  0.17200000000E+03 0. -1.
         -6    1    1    2    0  503  0.12057425762E+03 -0.11106237409E+02  0.42570037575E+03  0.47483292854E+03  0.17200000000E+03 0. -1.
<mgrwt>
<rscale>  2 0.21034614E+03</rscale>
<asrwt>0</asrwt>
<pdfrwt beam="1">  1       21 0.17109760E+00 0.21034614E+03</pdfrwt>
<pdfrwt beam="2">  1       21 0.17953030E-01 0.21034614E+03</pdfrwt>
<totfact> 0.58269571E+03</totfact>
</mgrwt>
</event>
<event>
 4    1  0.2299148E-001  0.1817843E+03  0.7546771E-02  0.1166087E+00
         21   -1    0    0  501  502  0.00000000000E+00  0.00000000000E+00  0.85404619699E+02  0.85404619699E+02  0.00000000000E+00 0. -1.
         21   -1    0    0  502  503 -0.00000000000E+00 -0.00000000000E+00 -0.40325183177E+03  0.40325183177E+03  0.00000000000E+00 0. -1.
          6    1    1    2  501    0 -0.52488083709E+02  0.26580684529E+02 -0.10976698400E+03  0.21235423824E+03  0.17200000000E+03 0. -1.
         -6    1    1    2    0  503  0.52488083709E+02 -0.26580684529E+02 -0.20808022807E+03  0.27630221323E+03  0.17200000000E+03 0. -1.
<mgrwt>
<rscale>  2 0.18178430E+03</rscale>
<asrwt>0</asrwt>
<pdfrwt beam="1">  1       21 0.21351155E-01 0.18178430E+03</pdfrwt>
<pdfrwt beam="2">  1       21 0.10081296E+00 0.18178430E+03</pdfrwt>
<totfact> 0.16561167E+04</totfact>
</mgrwt>
</event>
<event>
 4    1  0.2299148E-001  0.3291345E+03  0.7546771E-02  0.1071520E+00
         21   -1    0    0  503  502  0.00000000000E+00  0.00000000000E+00  0.13948907372E+03  0.13948907372E+03  0.00000000000E+00 0. -1.
         21   -1    0    0  501  503 -0.00000000000E+00 -0.00000000000E+00 -0.77661729330E+03  0.77661729330E+03  0.00000000000E+00 0.  1.
          6    1    1    2  501    0  0.18566500798E+03 -0.21041393625E+03 -0.31901960894E+03  0.45836997136E+03  0.17200000000E+03 0. -1.
         -6    1    1    2    0  502 -0.18566500798E+03  0.21041393625E+03 -0.31810861064E+03  0.45773639567E+03  0.17200000000E+03 0.  1.
<mgrwt>
<rscale>  2 0.32913450E+03</rscale>
<asrwt>0</asrwt>
<pdfrwt beam="1">  1       21 0.34872269E-01 0.32913450E+03</pdfrwt>
<pdfrwt beam="2">  1       21 0.19415432E+00 0.32913450E+03</pdfrwt>
<totfact> 0.10351788E+03</totfact>
</mgrwt>
</event>
<event>
 4    1  0.2299148E-001  0.1723407E+03  0.7546771E-02  0.1175429E+00
         21   -1    0    0  503  502  0.00000000000E+00  0.00000000000E+00  0.16825114944E+03  0.16825114944E+03  0.00000000000E+00 0.  1.
         21   -1    0    0  501  503 -0.00000000000E+00 -0.00000000000E+00 -0.20854077522E+03  0.20854077522E+03  0.00000000000E+00 0.  1.
          6    1    1    2  501    0 -0.16376647328E+01 -0.10706284203E+02 -0.93956813137E+02  0.19628853559E+03  0.17200000000E+03 0.  1.
         -6    1    1    2    0  502  0.16376647328E+01  0.10706284203E+02  0.53667187354E+02  0.18050338907E+03  0.17200000000E+03 0.  1.
<mgrwt>
<rscale>  2 0.17234067E+03</rscale>
<asrwt>0</asrwt>
<pdfrwt beam="1">  1       21 0.42062788E-01 0.17234067E+03</pdfrwt>
<pdfrwt beam="2">  1       21 0.52135194E-01 0.17234067E+03</pdfrwt>
<totfact> 0.19229355E+04</totfact>
</mgrwt>
</event>
<event>
 4    1  0.2299148E-001  0.2665621E+03  0.7546771E-02  0.1103263E+00
         21   -1    0    0  503  502  0.00000000000E+00  0.00000000000E+00  0.57188324345E+03  0.57188324345E+03  0.00000000000E+00 0. -1.
         21   -1    0    0  501  503 -0.00000000000E+00 -0.00000000000E+00 -0.12431544414E+03  0.12431544414E+03  0.00000000000E+00 0. -1.
          6    1    1    2  501    0  0.19891930693E+03 -0.43617480490E+02  0.21567865548E+03  0.34288869580E+03  0.17200000000E+03 0. -1.
         -6    1    1    2    0  502 -0.19891930693E+03  0.43617480490E+02  0.23188914382E+03  0.35330999179E+03  0.17200000000E+03 0. -1.
<mgrwt>
<rscale>  2 0.26656214E+03</rscale>
<asrwt>0</asrwt>
<pdfrwt beam="1">  1       21 0.14297080E+00 0.26656214E+03</pdfrwt>
<pdfrwt beam="2">  1       21 0.31078863E-01 0.26656214E+03</pdfrwt>
<totfact> 0.31840175E+03</totfact>
</mgrwt>
</event>
<event>
 4    1  0.2299148E-001  0.2609300E+03  0.7546771E-02  0.1106586E+00
         21   -1    0    0  503  502  0.00000000000E+00  0.00000000000E+00  0.26197981146E+03  0.26197981146E+03  0.00000000000E+00 0. -1.
         21   -1    0    0  501  503 -0.00000000000E+00 -0.00000000000E+00 -0.26746622084E+03  0.26746622084E+03  0.00000000000E+00 0. -1.
          6    1    1    2  501    0  0.18539091812E+03  0.64270215289E+02  0.41827080564E+02  0.26426115447E+03  0.17200000000E+03 0. -1.
         -6    1    1    2    0  502 -0.18539091812E+03 -0.64270215289E+02 -0.47313489949E+02  0.26518487782E+03  0.17200000000E+03 0. -1.
<mgrwt>
<rscale>  2 0.26092998E+03</rscale>
<asrwt>0</asrwt>
<pdfrwt beam="1">  1       21 0.65494953E-01 0.26092998E+03</pdfrwt>
<pdfrwt beam="2">  1       21 0.66866555E-01 0.26092998E+03</pdfrwt>
<totfact> 0.41859406E+03</totfact>
</mgrwt>
</event>
<event>
 4    1  0.2299148E-001  0.1815534E+03  0.7546771E-02  0.1166308E+00
         21   -1    0    0  503  502  0.00000000000E+00  0.00000000000E+00  0.30529810052E+03  0.30529810052E+03  0.00000000000E+00 0.  1.
         21   -1    0    0  501  503 -0.00000000000E+00 -0.00000000000E+00 -0.14010368478E+03  0.14010368478E+03  0.00000000000E+00 0.  1.
          6    1    1    2  501    0 -0.53999069132E+02  0.21487770663E+02 -0.24064540620E+02  0.18314127298E+03  0.17200000000E+03 0.  1.
         -6    1    1    2    0  502  0.53999069132E+02 -0.21487770663E+02  0.18925895636E+03  0.26226051231E+03  0.17200000000E+03 0.  1.
<mgrwt>
<rscale>  2 0.18155336E+03</rscale>
<asrwt>0</asrwt>
<pdfrwt beam="1">  1       21 0.76324524E-01 0.18155336E+03</pdfrwt>
<pdfrwt beam="2">  1       21 0.35025922E-01 0.18155336E+03</pdfrwt>
<totfact> 0.12103319E+04</totfact>
</mgrwt>
</event>
<event>
 4    1  0.2299148E-001  0.1766713E+03  0.7546771E-02  0.1171064E+00
         21   -1    0    0  503  502  0.00000000000E+00  0.00000000000E+00  0.63488673612E+02  0.63488673612E+02  0.00000000000E+00 0. -1.
         21   -1    0    0  501  503 -0.00000000000E+00 -0.00000000000E+00 -0.63762654094E+03  0.63762654094E+03  0.00000000000E+00 0. -1.
          6    1    1    2  501    0  0.27956959568E+02 -0.29105825743E+02 -0.45481489621E+03  0.48792348836E+03  0.17200000000E+03 0. -1.
         -6    1    1    2    0  502 -0.27956959568E+02  0.29105825743E+02 -0.11932297113E+03  0.21319172620E+03  0.17200000000E+03 0. -1.
<mgrwt>
<rscale>  2 0.17667128E+03</rscale>
<asrwt>0</asrwt>
<pdfrwt beam="1">  1       21 0.15872168E-01 0.17667128E+03</pdfrwt>
<pdfrwt beam="2">  1       21 0.15940663E+00 0.17667128E+03</pdfrwt>
<totfact> 0.91114511E+03</totfact>
</mgrwt>
</event>
<event>
 4    1  0.2299148E-001  0.2183935E+03  0.7546771E-02  0.1135086E+00
         21   -1    0    0  501  502  0.00000000000E+00  0.00000000000E+00  0.24491924769E+03  0.24491924769E+03  0.00000000000E+00 0. -1.
         21   -1    0    0  502  503 -0.00000000000E+00 -0.00000000000E+00 -0.19504047991E+03  0.19504047991E+03  0.00000000000E+00 0.  1.
          6    1    1    2  501    0  0.94672528606E+02  0.95649480956E+02  0.33565690449E+02  0.22095783864E+03  0.17200000000E+03 0. -1.
         -6    1    1    2    0  503 -0.94672528606E+02 -0.95649480956E+02  0.16313077335E+02  0.21900188897E+03  0.17200000000E+03 0.  1.
<mgrwt>
<rscale>  2 0.21839348E+03</rscale>
<asrwt>0</asrwt>
<pdfrwt beam="1">  1       21 0.61229812E-01 0.21839348E+03</pdfrwt>
<pdfrwt beam="2">  1       21 0.48760120E-01 0.21839348E+03</pdfrwt>
<totfact> 0.97884025E+03</totfact>
</mgrwt>
</event>
<event>
 4    1  0.2299148E-001  0.1885847E+03  0.7546771E-02  0.1159744E+00
         21   -1    0    0  503  502  0.00000000000E+00  0.00000000000E+00  0.23266417552E+03  0.23266417552E+03  0.00000000000E+00 0. -1.
         21   -1    0    0  501  503 -0.00000000000E+00 -0.00000000000E+00 -0.20551417275E+03  0.20551417275E+03  0.00000000000E+00 0. -1.
          6    1    1    2  501    0  0.77082402217E+02  0.62042808002E+01 -0.97325012262E+02  0.21221768975E+03  0.17200000000E+03 0. -1.
         -6    1    1    2    0  502 -0.77082402217E+02 -0.62042808002E+01  0.12447501503E+03  0.22596065852E+03  0.17200000000E+03 0. -1.
<mgrwt>
<rscale>  2 0.18858470E+03</rscale>
<asrwt>0</asrwt>
<pdfrwt beam="1">  1       21 0.58166044E-01 0.18858470E+03</pdfrwt>
<pdfrwt beam="2">  1       21 0.51378543E-01 0.18858470E+03</pdfrwt>
<totfact> 0.99973949E+03</totfact>
</mgrwt>
</event>
<event>
 4    1  0.2299148E-001  0.1947524E+03  0.7546771E-02  0.1154243E+00
         21   -1    0    0  501  502  0.00000000000E+00  0.00000000000E+00  0.95097435271E+03  0.95097435271E+03  0.00000000000E+00 0.  1.
         21   -1    0    0  502  503 -0.00000000000E+00 -0.00000000000E+00 -0.49597130002E+02  0.49597130002E+02  0.00000000000E+00 0.  1.
          6    1    1    2  501    0  0.82947118957E+02  0.38265817251E+02  0.67208641226E+03  0.69973469462E+03  0.17200000000E+03 0.  1.
         -6    1    1    2    0  503 -0.82947118957E+02 -0.38265817251E+02  0.22929081045E+03  0.30083678809E+03  0.17200000000E+03 0.  1.
<mgrwt>
<rscale>  2 0.19475240E+03</rscale>
<asrwt>0</asrwt>
<pdfrwt beam="1">  1       21 0.23774353E+00 0.19475240E+03</pdfrwt>
<pdfrwt beam="2">  1       21 0.12399286E-01 0.19475240E+03</pdfrwt>
<totfact> 0.43394370E+03</totfact>
</mgrwt>
</event>
<event>
 4    1  0.2299148E-001  0.2019114E+03  0.7546771E-02  0.1148136E+00
         21   -1    0    0  501  502  0.00000000000E+00  0.00000000000E+00  0.31074072078E+03  0.31074072078E+03  0.00000000000E+00 0.  1.
         21   -1    0    0  502  503 -0.00000000000E+00 -0.00000000000E+00 -0.20001717988E+03  0.20001717988E+03  0.00000000000E+00 0.  1.
          6    1    1    2  501    0 -0.10500716503E+03  0.12557939698E+02  0.20516107394E+03  0.28785286661E+03  0.17200000000E+03 0.  1.
         -6    1    1    2    0  503  0.10500716503E+03 -0.12557939698E+02 -0.94437533044E+02  0.22290503405E+03  0.17200000000E+03 0.  1.
<mgrwt>
<rscale>  2 0.20191138E+03</rscale>
<asrwt>0</asrwt>
<pdfrwt beam="1">  1       21 0.77685180E-01 0.20191138E+03</pdfrwt>
<pdfrwt beam="2">  1       21 0.50004295E-01 0.20191138E+03</pdfrwt>
<totfact> 0.55585978E+03</totfact>
</mgrwt>
</event>
<event>
 4    1  0.2299148E-001  0.1727906E+03  0.7546771E-02  0.1174969E+00
         21   -1    0    0  503  502  0.00000000000E+00  0.00000000000E+00  0.82745203638E+02  0.82745203638E+02  0.00000000000E+00 0. -1.
         21   -1    0    0  501  503 -0.00000000000E+00 -0.00000000000E+00 -0.38505539535E+03  0.38505539535E+03  0.00000000000E+00 0. -1.
          6    1    1    2  501    0 -0.16137034083E+02  0.34903067307E+01 -0.20982889664E+03  0.27181749755E+03  0.17200000000E+03 0.  1.
         -6    1    1    2    0  502  0.16137034083E+02 -0.34903067307E+01 -0.92481295071E+02  0.19598310143E+03  0.17200000000E+03 0.  1.
<mgrwt>
<rscale>  2 0.17279058E+03</rscale>
<asrwt>0</asrwt>
<pdfrwt beam="1">  1       21 0.20686301E-01 0.17279058E+03</pdfrwt>
<pdfrwt beam="2">  1       21 0.96263847E-01 0.17279058E+03</pdfrwt>
<totfact> 0.19706957E+04</totfact>
</mgrwt>
</event>
<event>
 4    1  0.2299148E-001  0.1735425E+03  0.7546771E-02  0.1174203E+00
         21   -1    0    0  501  502  0.00000000000E+00  0.00000000000E+00  0.56913977925E+02  0.56913977925E+02  0.00000000000E+00 0.  1.
         21   -1    0    0  502  503 -0.00000000000E+00 -0.00000000000E+00 -0.58512036264E+03  0.58512036264E+03  0.00000000000E+00 0.  1.
          6    1    1    2  501    0  0.21070749466E+02  0.94347650848E+01 -0.16483290577E+03  0.23934677374E+03  0.17200000000E+03 0.  1.
         -6    1    1    2    0  503 -0.21070749466E+02 -0.94347650848E+01 -0.36337347894E+03  0.40268756682E+03  0.17200000000E+03 0.  1.
<mgrwt>
<rscale>  2 0.17354248E+03</rscale>
<asrwt>0</asrwt>
<pdfrwt beam="1">  1       21 0.14228495E-01 0.17354248E+03</pdfrwt>
<pdfrwt beam="2">  1       21 0.14628009E+00 0.17354248E+03</pdfrwt>
<totfact> 0.13978433E+04</totfact>
</mgrwt>
</event>
<event>
 4    1  0.2299148E-001  0.1721516E+03  0.7546771E-02  0.1175622E+00
         21   -1    0    0  501  502  0.00000000000E+00  0.00000000000E+00  0.13707647565E+03  0.13707647565E+03  0.00000000000E+00 0.  1.
         21   -1    0    0  502  503 -0.00000000000E+00 -0.00000000000E+00 -0.36435171205E+03  0.36435171205E+03  0.00000000000E+00 0.  1.
          6    1    1    2  501    0 -0.30381045723E+00 -0.72172547515E+01  0.46233140872E+02  0.17825174440E+03  0.17200000000E+03 0.  1.
         -6    1    1    2    0  503  0.30381045723E+00  0.72172547515E+01 -0.27350837727E+03  0.32317644330E+03  0.17200000000E+03 0.  1.
<mgrwt>
<rscale>  2 0.17215162E+03</rscale>
<asrwt>0</asrwt>
<pdfrwt beam="1">  1       21 0.34269119E-01 0.17215162E+03</pdfrwt>
<pdfrwt beam="2">  1       21 0.91087927E-01 0.17215162E+03</pdfrwt>
<totfact> 0.85122918E+03</totfact>
</mgrwt>
</event>
<event>
 4    1  0.2299148E-001  0.1885908E+03  0.7546771E-02  0.1159739E+00
         21   -1    0    0  501  502  0.00000000000E+00  0.00000000000E+00  0.44627192865E+03  0.44627192865E+03  0.00000000000E+00 0.  1.
         21   -1    0    0  502  503 -0.00000000000E+00 -0.00000000000E+00 -0.82472216149E+02  0.82472216149E+02  0.00000000000E+00 0.  1.
          6    1    1    2  501    0 -0.46293980309E+02 -0.61962553241E+02  0.23039717608E+03  0.29774040600E+03  0.17200000000E+03 0. -1.
         -6    1    1    2    0  503  0.46293980309E+02  0.61962553241E+02  0.13340253642E+03  0.23100373880E+03  0.17200000000E+03 0. -1.
<mgrwt>
<rscale>  2 0.18859080E+03</rscale>
<asrwt>0</asrwt>
<pdfrwt beam="1">  1       21 0.11156798E+00 0.18859080E+03</pdfrwt>
<pdfrwt beam="2">  1       21 0.20618055E-01 0.18859080E+03</pdfrwt>
<totfact> 0.13798989E+04</totfact>
</mgrwt>
</event>
<event>
 4    1  0.2299148E-001  0.2529398E+03  0.7546771E-02  0.1111461E+00
         21   -1    0    0  503  502  0.00000000000E+00  0.00000000000E+00  0.60554458910E+03  0.60554458910E+03  0.00000000000E+00 0.  1.
         21   -1    0    0  501  503 -0.00000000000E+00 -0.00000000000E+00 -0.17384477362E+03  0.17384477362E+03  0.00000000000E+00 0. -1.
          6    1    1    2  501    0 -0.18323046871E+03 -0.28655706172E+02 -0.28214610875E+02  0.25450858223E+03  0.17200000000E+03 0. -1.
         -6    1    1    2    0  502  0.18323046871E+03  0.28655706172E+02  0.45991442636E+03  0.52488078049E+03  0.17200000000E+03 0.  1.
<mgrwt>
<rscale>  2 0.25293982E+03</rscale>
<asrwt>0</asrwt>
<pdfrwt beam="1">  1       21 0.15138614E+00 0.25293982E+03</pdfrwt>
<pdfrwt beam="2">  1       21 0.43461195E-01 0.25293982E+03</pdfrwt>
<totfact> 0.14070126E+03</totfact>
</mgrwt>
</event>
<event>
 4    1  0.2299148E-001  0.1758799E+03  0.7546771E-02  0.1171851E+00
         21   -1    0    0  503  502  0.00000000000E+00  0.00000000000E+00  0.79439594624E+03  0.79439594624E+03  0.00000000000E+00 0.  1.
         21   -1    0    0  501  503 -0.00000000000E+00 -0.00000000000E+00 -0.38967052972E+02  0.38967052972E+02  0.00000000000E+00 0.  1.
          6    1    1    2  501    0 -0.21346029308E+02  0.29901014006E+02  0.38870737308E+03  0.42664639397E+03  0.17200000000E+03 0.  1.
         -6    1    1    2    0  502  0.21346029308E+02 -0.29901014006E+02  0.36672152019E+03  0.40671660524E+03  0.17200000000E+03 0.  1.
<mgrwt>
<rscale>  2 0.17587986E+03</rscale>
<asrwt>0</asrwt>
<pdfrwt beam="1">  1       21 0.19859893E+00 0.17587986E+03</pdfrwt>
<pdfrwt beam="2">  1       21 0.97417658E-02 0.17587986E+03</pdfrwt>
<totfact> 0.11815336E+04</totfact>
</mgrwt>
</event>
<event>
 4    1  0.2299148E-001  0.1754963E+03  0.7546771E-02  0.1172234E+00
         21   -1    0    0  503  502  0.00000000000E+00  0.00000000000E+00  0.16094534102E+03  0.16094534102E+03  0.00000000000E+00 0. -1.
         21   -1    0    0  501  503 -0.00000000000E+00 -0.00000000000E+00 -0.19260795327E+03  0.19260795327E+03  0.00000000000E+00 0. -1.
          6    1    1    2  501    0 -0.27651522584E+02 -0.21221264025E+02 -0.16177829074E+01  0.17550374916E+03  0.17200000000E+03 0.  1.
         -6    1    1    2    0  502  0.27651522584E+02  0.21221264025E+02 -0.30044829346E+02  0.17804954512E+03  0.17200000000E+03 0.  1.
<mgrwt>
<rscale>  2 0.17549629E+03</rscale>
<asrwt>0</asrwt>
<pdfrwt beam="1">  1       21 0.40236335E-01 0.17549629E+03</pdfrwt>
<pdfrwt beam="2">  1       21 0.48151988E-01 0.17549629E+03</pdfrwt>
<totfact> 0.24769931E+04</totfact>
</mgrwt>
</event>
<event>
 4    1  0.2299148E-001  0.2131639E+03  0.7546771E-02  0.1139085E+00
         21   -1    0    0  501  502  0.00000000000E+00  0.00000000000E+00  0.16413749591E+03  0.16413749591E+03  0.00000000000E+00 0. -1.
         21   -1    0    0  502  503 -0.00000000000E+00 -0.00000000000E+00 -0.34190656564E+03  0.34190656564E+03  0.00000000000E+00 0.  1.
          6    1    1    2  501    0  0.11756333383E+03 -0.45096756740E+02  0.21498738589E+02  0.21424530494E+03  0.17200000000E+03 0.  1.
         -6    1    1    2    0  503 -0.11756333383E+03  0.45096756740E+02 -0.19926780832E+03  0.29179875661E+03  0.17200000000E+03 0. -1.
<mgrwt>
<rscale>  2 0.21316392E+03</rscale>
<asrwt>0</asrwt>
<pdfrwt beam="1">  1       21 0.41034374E-01 0.21316392E+03</pdfrwt>
<pdfrwt beam="2">  1       21 0.85476641E-01 0.21316392E+03</pdfrwt>
<totfact> 0.66661405E+03</totfact>
</mgrwt>
</event>
<event>
 4    1  0.2299148E-001  0.1899845E+03  0.7546771E-02  0.1158475E+00
         21   -1    0    0  501  502  0.00000000000E+00  0.00000000000E+00  0.29604438639E+03  0.29604438639E+03  0.00000000000E+00 0. -1.
         21   -1    0    0  502  503 -0.00000000000E+00 -0.00000000000E+00 -0.17070621736E+03  0.17070621736E+03  0.00000000000E+00 0. -1.
          6    1    1    2  501    0  0.61288608573E+02  0.52477001433E+02  0.18742835253E+03  0.26687734365E+03  0.17200000000E+03 0. -1.
         -6    1    1    2    0  503 -0.61288608573E+02 -0.52477001433E+02 -0.62090183495E+02  0.19987326011E+03  0.17200000000E+03 0. -1.
<mgrwt>
<rscale>  2 0.18998455E+03</rscale>
<asrwt>0</asrwt>
<pdfrwt beam="1">  1       21 0.74011096E-01 0.18998455E+03</pdfrwt>
<pdfrwt beam="2">  1       21 0.42676555E-01 0.18998455E+03</pdfrwt>
<totfact> 0.86660800E+03</totfact>
</mgrwt>
</event>
<event>
 4    1  0.2299148E-001  0.2313753E+03  0.7546771E-02  0.1125676E+00
         21   -1    0    0  503  502  0.00000000000E+00  0.00000000000E+00  0.25656166074E+03  0.25656166074E+03  0.00000000000E+00 0. -1.
         21   -1    0    0  501  503 -0.00000000000E+00 -0.00000000000E+00 -0.20904179719E+03  0.20904179719E+03  0.00000000000E+00 0.  1.
          6    1    1    2  501    0  0.31999824817E+02 -0.15141505671E+03  0.33691187228E+02  0.23381532089E+03  0.17200000000E+03 0.  1.
         -6    1    1    2    0  502 -0.31999824817E+02  0.15141505671E+03  0.13828676323E+02  0.23178813704E+03  0.17200000000E+03 0. -1.
<mgrwt>
<rscale>  2 0.23137525E+03</rscale>
<asrwt>0</asrwt>
<pdfrwt beam="1">  1       21 0.64140415E-01 0.23137525E+03</pdfrwt>
<pdfrwt beam="2">  1       21 0.52260449E-01 0.23137525E+03</pdfrwt>
<totfact> 0.75897166E+03</totfact>
</mgrwt>
</event>
<event>
 4    1  0.2299148E-001  0.2189634E+03  0.7546771E-02  0.1134658E+00
         21   -1    0    0  501  502  0.00000000000E+00  0.00000000000E+00  0.67792684544E+03  0.67792684544E+03  0.00000000000E+00 0. -1.
         21   -1    0    0  502  503 -0.00000000000E+00 -0.00000000000E+00 -0.76233149680E+02  0.76233149680E+02  0.00000000000E+00 0.  1.
          6    1    1    2  501    0 -0.12917703728E+03  0.40917740170E+02  0.40222544502E+03  0.45796318306E+03  0.17200000000E+03 0.  1.
         -6    1    1    2    0  503  0.12917703728E+03 -0.40917740170E+02  0.19946825074E+03  0.29619681206E+03  0.17200000000E+03 0.  1.
<mgrwt>
<rscale>  2 0.21896340E+03</rscale>
<asrwt>0</asrwt>
<pdfrwt beam="1">  1       21 0.16948169E+00 0.21896340E+03</pdfrwt>
<pdfrwt beam="2">  1       21 0.19058289E-01 0.21896340E+03</pdfrwt>
<totfact> 0.53165026E+03</totfact>
</mgrwt>
</event>
<event>
 4    1  0.2299148E-001  0.2553197E+03  0.7546771E-02  0.1109988E+00
         21   -1    0    0  503  502  0.00000000000E+00  0.00000000000E+00  0.70636721526E+02  0.70636721526E+02  0.00000000000E+00 0. -1.
         21   -1    0    0  501  503 -0.00000000000E+00 -0.00000000000E+00 -0.10152999344E+04  0.10152999344E+04  0.00000000000E+00 0.  1.
          6    1    1    2  501    0  0.18825697690E+03 -0.12785633667E+02 -0.63616229688E+03  0.68548568895E+03  0.17200000000E+03 0.  1.
         -6    1    1    2    0  502 -0.18825697690E+03  0.12785633667E+02 -0.30850091598E+03  0.40045096696E+03  0.17200000000E+03 0. -1.
<mgrwt>
<rscale>  2 0.25531972E+03</rscale>
<asrwt>0</asrwt>
<pdfrwt beam="1">  1       21 0.17659180E-01 0.25531972E+03</pdfrwt>
<pdfrwt beam="2">  1       21 0.25382498E+00 0.25531972E+03</pdfrwt>
<totfact> 0.17219732E+03</totfact>
</mgrwt>
</event>
<event>
 4    1  0.2299148E-001  0.2557353E+03  0.7546771E-02  0.1109733E+00
         21   -1    0    0  501  502  0.00000000000E+00  0.00000000000E+00  0.75090275484E+02  0.75090275484E+02  0.00000000000E+00 0. -1.
         21   -1    0    0  502  503 -0.00000000000E+00 -0.00000000000E+00 -0.87107259915E+03  0.87107259915E+03  0.00000000000E+00 0.  1.
          6    1    1    2  501    0 -0.14962356817E+03 -0.11588491184E+03 -0.40340200315E+03  0.47763343799E+03  0.17200000000E+03 0.  1.
         -6    1    1    2    0  503  0.14962356817E+03  0.11588491184E+03 -0.39258032051E+03  0.46852943664E+03  0.17200000000E+03 0. -1.
<mgrwt>
<rscale>  2 0.25573526E+03</rscale>
<asrwt>0</asrwt>
<pdfrwt beam="1">  1       21 0.18772569E-01 0.25573526E+03</pdfrwt>
<pdfrwt beam="2">  1       21 0.21776815E+00 0.25573526E+03</pdfrwt>
<totfact> 0.25449343E+03</totfact>
</mgrwt>
</event>
<event>
 4    1  0.2299148E-001  0.2162990E+03  0.7546771E-02  0.1136673E+00
         21   -1    0    0  501  502  0.00000000000E+00  0.00000000000E+00  0.17895649933E+03  0.17895649933E+03  0.00000000000E+00 0. -1.
         21   -1    0    0  502  503 -0.00000000000E+00 -0.00000000000E+00 -0.26231416840E+03  0.26231416840E+03  0.00000000000E+00 0.  1.
          6    1    1    2  501    0  0.85389097435E+02 -0.99548713432E+02 -0.54462116545E+02  0.22305014334E+03  0.17200000000E+03 0.  1.
         -6    1    1    2    0  503 -0.85389097435E+02  0.99548713432E+02 -0.28895552528E+02  0.21822052438E+03  0.17200000000E+03 0. -1.
<mgrwt>
<rscale>  2 0.21629897E+03</rscale>
<asrwt>0</asrwt>
<pdfrwt beam="1">  1       21 0.44739125E-01 0.21629897E+03</pdfrwt>
<pdfrwt beam="2">  1       21 0.65578542E-01 0.21629897E+03</pdfrwt>
<totfact> 0.10090577E+04</totfact>
</mgrwt>
</event>
<event>
 4    1  0.2299148E-001  0.1813948E+03  0.7546771E-02  0.1166460E+00
         21   -1    0    0  503  502  0.00000000000E+00  0.00000000000E+00  0.44753253847E+02  0.44753253847E+02  0.00000000000E+00 0. -1.
         21   -1    0    0  501  503 -0.00000000000E+00 -0.00000000000E+00 -0.82508904929E+03  0.82508904929E+03  0.00000000000E+00 0. -1.
          6    1    1    2  501    0 -0.16437167151E+01  0.57596566366E+02 -0.24664079102E+03  0.30616294037E+03  0.17200000000E+03 0. -1.
         -6    1    1    2    0  502  0.16437167151E+01 -0.57596566366E+02 -0.53369500442E+03  0.56367936276E+03  0.17200000000E+03 0. -1.
<mgrwt>
<rscale>  2 0.18139478E+03</rscale>
<asrwt>0</asrwt>
<pdfrwt beam="1">  1       21 0.11188313E-01 0.18139478E+03</pdfrwt>
<pdfrwt beam="2">  1       21 0.20627227E+00 0.18139478E+03</pdfrwt>
<totfact> 0.82264520E+03</totfact>
</mgrwt>
</event>
<event>
 4    1  0.2299148E-001  0.2796445E+03  0.7546771E-02  0.1095883E+00
         21   -1    0    0  501  502  0.00000000000E+00  0.00000000000E+00  0.65694453138E+03  0.65694453138E+03  0.00000000000E+00 0. -1.
         21   -1    0    0  502  503 -0.00000000000E+00 -0.00000000000E+00 -0.12967432579E+03  0.12967432579E+03  0.00000000000E+00 0.  1.
          6    1    1    2  501    0 -0.17942756567E+03 -0.12815142620E+03  0.37628044410E+03  0.46881554152E+03  0.17200000000E+03 0. -1.
         -6    1    1    2    0  503  0.17942756567E+03  0.12815142620E+03  0.15098976149E+03  0.31780331564E+03  0.17200000000E+03 0.  1.
<mgrwt>
<rscale>  2 0.27964449E+03</rscale>
<asrwt>0</asrwt>
<pdfrwt beam="1">  1       21 0.16423612E+00 0.27964449E+03</pdfrwt>
<pdfrwt beam="2">  1       21 0.32418583E-01 0.27964449E+03</pdfrwt>
<totfact> 0.19989364E+03</totfact>
</mgrwt>
</event>
<event>
 4    1  0.2299148E-001  0.1753549E+03  0.7546771E-02  0.1172376E+00
         21   -1    0    0  503  502  0.00000000000E+00  0.00000000000E+00  0.41917722546E+03  0.41917722546E+03  0.00000000000E+00 0.  1.
         21   -1    0    0  501  503 -0.00000000000E+00 -0.00000000000E+00 -0.12847448326E+03  0.12847448326E+03  0.00000000000E+00 0.  1.
          6    1    1    2  501    0 -0.90847554534E+01 -0.32906251554E+02 -0.34003368822E+02  0.17862134045E+03  0.17200000000E+03 0.  1.
         -6    1    1    2    0  502  0.90847554534E+01  0.32906251554E+02  0.32470611102E+03  0.36903036827E+03  0.17200000000E+03 0.  1.
<mgrwt>
<rscale>  2 0.17535494E+03</rscale>
<asrwt>0</asrwt>
<pdfrwt beam="1">  1       21 0.10479430E+00 0.17535494E+03</pdfrwt>
<pdfrwt beam="2">  1       21 0.32118622E-01 0.17535494E+03</pdfrwt>
<totfact> 0.69367657E+03</totfact>
</mgrwt>
</event>
<event>
 4    1  0.2299148E-001  0.1978215E+03  0.7546771E-02  0.1151590E+00
         21   -1    0    0  503  502  0.00000000000E+00  0.00000000000E+00  0.31779810265E+03  0.31779810265E+03  0.00000000000E+00 0.  1.
         21   -1    0    0  501  503 -0.00000000000E+00 -0.00000000000E+00 -0.15460862058E+03  0.15460862058E+03  0.00000000000E+00 0.  1.
          6    1    1    2  501    0 -0.96527478428E+02 -0.15224518298E+02 -0.24970356301E+02  0.19939122033E+03  0.17200000000E+03 0.  1.
         -6    1    1    2    0  502  0.96527478428E+02  0.15224518298E+02  0.18815983837E+03  0.27301550290E+03  0.17200000000E+03 0.  1.
<mgrwt>
<rscale>  2 0.19782149E+03</rscale>
<asrwt>0</asrwt>
<pdfrwt beam="1">  1       21 0.79449525E-01 0.19782149E+03</pdfrwt>
<pdfrwt beam="2">  1       21 0.38652156E-01 0.19782149E+03</pdfrwt>
<totfact> 0.89835318E+03</totfact>
</mgrwt>
</event>
<event>
 4    1  0.2299148E-001  0.2637177E+03  0.7546771E-02  0.1104930E+00
         21   -1    0    0  503  502  0.00000000000E+00  0.00000000000E+00  0.11160456066E+04  0.11160456066E+04  0.00000000000E+00 0.  1.
         21   -1    0    0  501  503 -0.00000000000E+00 -0.00000000000E+00 -0.86012209310E+02  0.86012209310E+02  0.00000000000E+00 0.  1.
          6    1    1    2  501    0  0.10990958561E+03 -0.16698174211E+03  0.19954625280E+03  0.33070489294E+03  0.17200000000E+03 0.  1.
         -6    1    1    2    0  502 -0.10990958561E+03  0.16698174211E+03  0.83048714447E+03  0.87135292295E+03  0.17200000000E+03 0.  1.
<mgrwt>
<rscale>  2 0.26371769E+03</rscale>
<asrwt>0</asrwt>
<pdfrwt beam="1">  1       21 0.27901136E+00 0.26371769E+03</pdfrwt>
<pdfrwt beam="2">  1       21 0.21503056E-01 0.26371769E+03</pdfrwt>
<totfact> 0.83847332E+02</totfact>
</mgrwt>
</event>
<event>
 4    1  0.2299148E-001  0.3808662E+03  0.7546771E-02  0.1050614E+00
         21   -1    0    0  503  502  0.00000000000E+00  0.00000000000E+00  0.33158050023E+03  0.33158050023E+03  0.00000000000E+00 0. -1.
         21   -1    0    0  501  503 -0.00000000000E+00 -0.00000000000E+00 -0.82896909573E+03  0.82896909573E+03  0.00000000000E+00 0.  1.
          6    1    1    2  501    0 -0.21382507274E+02 -0.33914277116E+03 -0.64746727695E+03  0.75118100719E+03  0.17200000000E+03 0.  1.
         -6    1    1    2    0  502  0.21382507274E+02  0.33914277116E+03  0.15007868145E+03  0.40936858877E+03  0.17200000000E+03 0. -1.
<mgrwt>
<rscale>  2 0.38086616E+03</rscale>
<asrwt>0</asrwt>
<pdfrwt beam="1">  1       21 0.82895126E-01 0.38086616E+03</pdfrwt>
<pdfrwt beam="2">  1       21 0.20724227E+00 0.38086616E+03</pdfrwt>
<totfact> 0.12769748E+02</totfact>
</mgrwt>
</event>
<event>
 4    1  0.2299148E-001  0.1726931E+03  0.7546771E-02  0.1175068E+00
         21   -1    0    0  501  502  0.00000000000E+00  0.00000000000E+00  0.18920954454E+03  0.18920954454E+03  0.00000000000E+00 0. -1.
         21   -1    0    0  502  503 -0.00000000000E+00 -0.00000000000E+00 -0.21593904526E+03  0.21593904526E+03  0.00000000000E+00 0. -1.
          6    1    1    2  501    0  0.32546310560E+01  0.15109659700E+02  0.91911432270E+02  0.19562874488E+03  0.17200000000E+03 0. -1.
         -6    1    1    2    0  503 -0.32546310560E+01 -0.15109659700E+02 -0.11864093299E+03  0.20951984493E+03  0.17200000000E+03 0. -1.
<mgrwt>
<rscale>  2 0.17269306E+03</rscale>
<asrwt>0</asrwt>
<pdfrwt beam="1">  1       21 0.47302386E-01 0.17269306E+03</pdfrwt>
<pdfrwt beam="2">  1       21 0.53984761E-01 0.17269306E+03</pdfrwt>
<totfact> 0.14054658E+04</totfact>
</mgrwt>
</event>
<event>
 4    1  0.2299148E-001  0.1885732E+03  0.7546771E-02  0.1159755E+00
         21   -1    0    0  501  502  0.00000000000E+00  0.00000000000E+00  0.15874159109E+03  0.15874159109E+03  0.00000000000E+00 0. -1.
         21   -1    0    0  502  503 -0.00000000000E+00 -0.00000000000E+00 -0.28221110246E+03  0.28221110246E+03  0.00000000000E+00 0. -1.
          6    1    1    2  501    0  0.75514167029E+02 -0.16536410330E+02  0.38389040531E+02  0.19244105779E+03  0.17200000000E+03 0. -1.
         -6    1    1    2    0  503 -0.75514167029E+02  0.16536410330E+02 -0.16185855190E+03  0.24851163576E+03  0.17200000000E+03 0. -1.
<mgrwt>
<rscale>  2 0.18857317E+03</rscale>
<asrwt>0</asrwt>
<pdfrwt beam="1">  1       21 0.39685398E-01 0.18857317E+03</pdfrwt>
<pdfrwt beam="2">  1       21 0.70552775E-01 0.18857317E+03</pdfrwt>
<totfact> 0.11176126E+04</totfact>
</mgrwt>
</event>
<event>
 4    1  0.2299148E-001  0.4328074E+03  0.7546771E-02  0.1032977E+00
         21   -1    0    0  501  502  0.00000000000E+00  0.00000000000E+00  0.22699304601E+03  0.22699304601E+03  0.00000000000E+00 0. -1.
         21   -1    0    0  502  503 -0.00000000000E+00 -0.00000000000E+00 -0.10327834240E+04  0.10327834240E+04  0.00000000000E+00 0. -1.
          6    1    1    2  501    0 -0.35602513644E+03  0.17602365850E+03 -0.12052402795E+03  0.44927526912E+03  0.17200000000E+03 0. -1.
         -6    1    1    2    0  503  0.35602513644E+03 -0.17602365850E+03 -0.68526635000E+03  0.81050120084E+03  0.17200000000E+03 0. -1.
<mgrwt>
<rscale>  2 0.43280738E+03</rscale>
<asrwt>0</asrwt>
<pdfrwt beam="1">  1       21 0.56748263E-01 0.43280738E+03</pdfrwt>
<pdfrwt beam="2">  1       21 0.25819585E+00 0.43280738E+03</pdfrwt>
<totfact> 0.13841952E+02</totfact>
</mgrwt>
</event>
<event>
 4    1  0.2299148E-001  0.1839052E+03  0.7546771E-02  0.1164076E+00
         21   -1    0    0  501  502  0.00000000000E+00  0.00000000000E+00  0.29420343608E+02  0.29420343608E+02  0.00000000000E+00 0.  1.
         21   -1    0    0  502  503 -0.00000000000E+00 -0.00000000000E+00 -0.11569797598E+04  0.11569797598E+04  0.00000000000E+00 0.  1.
          6    1    1    2  501    0  0.58899977921E+02  0.27711420289E+02 -0.61120999139E+03  0.63827798316E+03  0.17200000000E+03 0. -1.
         -6    1    1    2    0  503 -0.58899977921E+02 -0.27711420289E+02 -0.51634942485E+03  0.54812212029E+03  0.17200000000E+03 0. -1.
<mgrwt>
<rscale>  2 0.18390522E+03</rscale>
<asrwt>0</asrwt>
<pdfrwt beam="1">  1       21 0.73550857E-02 0.18390522E+03</pdfrwt>
<pdfrwt beam="2">  1       21 0.28924495E+00 0.18390522E+03</pdfrwt>
<totfact> 0.55212927E+03</totfact>
</mgrwt>
</event>
<event>
 4    1  0.2299148E-001  0.1837855E+03  0.7546771E-02  0.1164189E+00
         21   -1    0    0  503  502  0.00000000000E+00  0.00000000000E+00  0.92497915153E+02  0.92497915153E+02  0.00000000000E+00 0.  1.
         21   -1    0    0  501  503 -0.00000000000E+00 -0.00000000000E+00 -0.37007774043E+03  0.37007774043E+03  0.00000000000E+00 0. -1.
          6    1    1    2  501    0  0.63895819277E+02  0.10508077382E+02 -0.11214445559E+03  0.21529857020E+03  0.17200000000E+03 0.  1.
         -6    1    1    2    0  502 -0.63895819277E+02 -0.10508077382E+02 -0.16543536969E+03  0.24727708539E+03  0.17200000000E+03 0. -1.
<mgrwt>
<rscale>  2 0.18378546E+03</rscale>
<asrwt>0</asrwt>
<pdfrwt beam="1">  1       21 0.23124479E-01 0.18378546E+03</pdfrwt>
<pdfrwt beam="2">  1       21 0.92519434E-01 0.18378546E+03</pdfrwt>
<totfact> 0.17407586E+04</totfact>
</mgrwt>
</event>
<event>
 4    1  0.2299148E-001  0.1743273E+03  0.7546771E-02  0.1173409E+00
         21   -1    0    0  503  502  0.00000000000E+00  0.00000000000E+00  0.76551412958E+03  0.76551412958E+03  0.00000000000E+00 0. -1.
         21   -1    0    0  501  503 -0.00000000000E+00 -0.00000000000E+00 -0.59934711405E+02  0.59934711405E+02  0.00000000000E+00 0. -1.
          6    1    1    2  501    0  0.27244567758E+02  0.79832312399E+01  0.11297144448E+03  0.20773190829E+03  0.17200000000E+03 0. -1.
         -6    1    1    2    0  502 -0.27244567758E+02 -0.79832312399E+01  0.59260797369E+03  0.61771693269E+03  0.17200000000E+03 0. -1.
<mgrwt>
<rscale>  2 0.17432727E+03</rscale>
<asrwt>0</asrwt>
<pdfrwt beam="1">  1       21 0.19137850E+00 0.17432727E+03</pdfrwt>
<pdfrwt beam="2">  1       21 0.14983680E-01 0.17432727E+03</pdfrwt>
<totfact> 0.61057983E+03</totfact>
</mgrwt>
</event>
<event>
 4    1  0.2299148E-001  0.1813617E+03  0.7546771E-02  0.1166492E+00
         21   -1    0    0  501  502  0.00000000000E+00  0.00000000000E+00  0.17095274586E+03  0.17095274586E+03  0.00000000000E+00 0.  1.
         21   -1    0    0  502  503 -0.00000000000E+00 -0.00000000000E+00 -0.28717613309E+03  0.28717613309E+03  0.00000000000E+00 0. -1.
          6    1    1    2  501    0 -0.40984301112E+02  0.40352921696E+02  0.73478270748E+02  0.19568118841E+03  0.17200000000E+03 0. -1.
         -6    1    1    2    0  503  0.40984301112E+02 -0.40352921696E+02 -0.18970165798E+03  0.26244769053E+03  0.17200000000E+03 0. -1.
<mgrwt>
<rscale>  2 0.18136171E+03</rscale>
<asrwt>0</asrwt>
<pdfrwt beam="1">  1       21 0.42738187E-01 0.18136171E+03</pdfrwt>
<pdfrwt beam="2">  1       21 0.71794033E-01 0.18136171E+03</pdfrwt>
<totfact> 0.93004566E+03</totfact>
</mgrwt>
</event>
<event>
 4    1  0.2299148E-001  0.2084035E+03  0.7546771E-02  0.1142837E+00
         21   -1    0    0  501  502  0.00000000000E+00  0.00000000000E+00  0.26752261534E+03  0.26752261534E+03  0.00000000000E+00 0. -1.
         21   -1    0    0  502  503 -0.00000000000E+00 -0.00000000000E+00 -0.17316459665E+03  0.17316459665E+03  0.00000000000E+00 0. -1.
          6    1    1    2  501    0  0.96257106072E+02 -0.67694783014E+02 -0.78887319983E+01  0.20855274203E+03  0.17200000000E+03 0. -1.
         -6    1    1    2    0  503 -0.96257106072E+02  0.67694783014E+02  0.10224675068E+03  0.23213446996E+03  0.17200000000E+03 0. -1.
<mgrwt>
<rscale>  2 0.20840349E+03</rscale>
<asrwt>0</asrwt>
<pdfrwt beam="1">  1       21 0.66880653E-01 0.20840349E+03</pdfrwt>
<pdfrwt beam="2">  1       21 0.43291149E-01 0.20840349E+03</pdfrwt>
<totfact> 0.10393822E+04</totfact>
</mgrwt>
</event>
<event>
 4    1  0.2299148E-001  0.1972131E+03  0.7546771E-02  0.1152112E+00
         21   -1    0    0  501  502  0.00000000000E+00  0.00000000000E+00  0.54580599789E+03  0.54580599789E+03  0.00000000000E+00 0. -1.
         21   -1    0    0  502  503 -0.00000000000E+00 -0.00000000000E+00 -0.85945785636E+02  0.85945785636E+02  0.00000000000E+00 0. -1.
          6    1    1    2  501    0 -0.91616644594E+02 -0.30255318178E+02  0.99347989492E+02  0.22082349708E+03  0.17200000000E+03 0. -1.
         -6    1    1    2    0  503  0.91616644594E+02  0.30255318178E+02  0.36051222276E+03  0.41092828645E+03  0.17200000000E+03 0. -1.
<mgrwt>
<rscale>  2 0.19721307E+03</rscale>
<asrwt>0</asrwt>
<pdfrwt beam="1">  1       21 0.13645149E+00 0.19721307E+03</pdfrwt>
<pdfrwt beam="2">  1       21 0.21486448E-01 0.19721307E+03</pdfrwt>
<totfact> 0.76876298E+03</totfact>
</mgrwt>
</event>
<event>
 4    1  0.2299148E-001  0.1833291E+03  0.7546771E-02  0.1164619E+00
         21   -1    0    0  503  502  0.00000000000E+00  0.00000000000E+00  0.51600278161E+03  0.51600278161E+03  0.00000000000E+00 0. -1.
         21   -1    0    0  501  503 -0.00000000000E+00 -0.00000000000E+00 -0.65134952035E+02  0.65134952035E+02  0.00000000000E+00 0.  1.
          6    1    1    2  501    0  0.63447331297E+02 -0.66423872902E-01  0.22464434614E+03  0.28995629070E+03  0.17200000000E+03 0. -1.
         -6    1    1    2    0  502 -0.63447331297E+02  0.66423872902E-01  0.22622348344E+03  0.29118144295E+03  0.17200000000E+03 0.  1.
<mgrwt>
<rscale>  2 0.18332913E+03</rscale>
<asrwt>0</asrwt>
<pdfrwt beam="1">  1       21 0.12900068E+00 0.18332913E+03</pdfrwt>
<pdfrwt beam="2">  1       21 0.16283740E-01 0.18332913E+03</pdfrwt>
<totfact> 0.14975943E+04</totfact>
</mgrwt>
</event>
<event>
 4    1  0.2299148E-001  0.1912323E+03  0.7546771E-02  0.1157355E+00
         21   -1    0    0  503  502  0.00000000000E+00  0.00000000000E+00  0.94657532273E+02  0.94657532273E+02  0.00000000000E+00 0.  1.
         21   -1    0    0  501  503 -0.00000000000E+00 -0.00000000000E+00 -0.39769540820E+03  0.39769540820E+03  0.00000000000E+00 0.  1.
          6    1    1    2  501    0  0.23540560209E+02  0.80197403553E+02 -0.10991686723E+03  0.22057084851E+03  0.17200000000E+03 0.  1.
         -6    1    1    2    0  502 -0.23540560209E+02 -0.80197403553E+02 -0.19312100870E+03  0.27178209196E+03  0.17200000000E+03 0.  1.
<mgrwt>
<rscale>  2 0.19123227E+03</rscale>
<asrwt>0</asrwt>
<pdfrwt beam="1">  1       21 0.23664383E-01 0.19123227E+03</pdfrwt>
<pdfrwt beam="2">  1       21 0.99423851E-01 0.19123227E+03</pdfrwt>
<totfact> 0.14008889E+04</totfact>
</mgrwt>
</event>
<event>
 4    1  0.2299148E-001  0.2103701E+03  0.7546771E-02  0.1141273E+00
         21   -1    0    0  501  502  0.00000000000E+00  0.00000000000E+00  0.97424521682E+02  0.97424521682E+02  0.00000000000E+00 0. -1.
         21   -1    0    0  502  503 -0.00000000000E+00 -0.00000000000E+00 -0.45437116272E+03  0.45437116272E+03  0.00000000000E+00 0. -1.
          6    1    1    2  501    0 -0.86792672175E+02 -0.84490302085E+02 -0.17406250531E+03  0.27304456568E+03  0.17200000000E+03 0. -1.
         -6    1    1    2    0  503  0.86792672175E+02  0.84490302085E+02 -0.18288413572E+03  0.27875111872E+03  0.17200000000E+03 0. -1.
<mgrwt>
<rscale>  2 0.21037010E+03</rscale>
<asrwt>0</asrwt>
<pdfrwt beam="1">  1       21 0.24356131E-01 0.21037010E+03</pdfrwt>
<pdfrwt beam="2">  1       21 0.11359279E+00 0.21037010E+03</pdfrwt>
<totfact> 0.94963396E+03</totfact>
</mgrwt>
</event>
<event>
 4    1  0.2299148E-001  0.2351834E+03  0.7546771E-02  0.1123044E+00
         21   -1    0    0  503  502  0.00000000000E+00  0.00000000000E+00  0.11865294687E+04  0.11865294687E+04  0.00000000000E+00 0.  1.
         21   -1    0    0  501  503 -0.00000000000E+00 -0.00000000000E+00 -0.54387285554E+02  0.54387285554E+02  0.00000000000E+00 0.  1.
          6    1    1    2  501    0  0.63634674546E+02  0.14723401677E+03  0.80060795126E+03  0.83443652792E+03  0.17200000000E+03 0.  1.
         -6    1    1    2    0  502 -0.63634674546E+02 -0.14723401677E+03  0.33153423193E+03  0.40648022639E+03  0.17200000000E+03 0.  1.
<mgrwt>
<rscale>  2 0.23518339E+03</rscale>
<asrwt>0</asrwt>
<pdfrwt beam="1">  1       21 0.29663228E+00 0.23518339E+03</pdfrwt>
<pdfrwt beam="2">  1       21 0.13596825E-01 0.23518339E+03</pdfrwt>
<totfact> 0.15914184E+03</totfact>
</mgrwt>
</event>
<event>
 4    1  0.2299148E-001  0.1840828E+03  0.7546771E-02  0.1163909E+00
         21   -1    0    0  501  502  0.00000000000E+00  0.00000000000E+00  0.74349532691E+02  0.74349532691E+02  0.00000000000E+00 0.  1.
         21   -1    0    0  502  503 -0.00000000000E+00 -0.00000000000E+00 -0.64696397735E+03  0.64696397735E+03  0.00000000000E+00 0.  1.
          6    1    1    2  501    0 -0.20803051960E+02  0.62207031588E+02 -0.90247608747E+02  0.20501490832E+03  0.17200000000E+03 0.  1.
         -6    1    1    2    0  503  0.20803051960E+02 -0.62207031588E+02 -0.48236683592E+03  0.51629860172E+03  0.17200000000E+03 0.  1.
<mgrwt>
<rscale>  2 0.18408281E+03</rscale>
<asrwt>0</asrwt>
<pdfrwt beam="1">  1       21 0.18587383E-01 0.18408281E+03</pdfrwt>
<pdfrwt beam="2">  1       21 0.16174099E+00 0.18408281E+03</pdfrwt>
<totfact> 0.65132486E+03</totfact>
</mgrwt>
</event>
<event>
 4    1  0.2299148E-001  0.1803746E+03  0.7546771E-02  0.1167441E+00
         21   -1    0    0  501  502  0.00000000000E+00  0.00000000000E+00  0.63030907559E+02  0.63030907559E+02  0.00000000000E+00 0. -1.
         21   -1    0    0  502  503 -0.00000000000E+00 -0.00000000000E+00 -0.83011158704E+03  0.83011158704E+03  0.00000000000E+00 0. -1.
          6    1    1    2  501    0  0.53453859976E+02  0.96781981240E+01 -0.10891320725E+03  0.21070612089E+03  0.17200000000E+03 0. -1.
         -6    1    1    2    0  503 -0.53453859976E+02 -0.96781981240E+01 -0.65816747222E+03  0.68243637371E+03  0.17200000000E+03 0. -1.
<mgrwt>
<rscale>  2 0.18037456E+03</rscale>
<asrwt>0</asrwt>
<pdfrwt beam="1">  1       21 0.15757727E-01 0.18037456E+03</pdfrwt>
<pdfrwt beam="2">  1       21 0.20752790E+00 0.18037456E+03</pdfrwt>
<totfact> 0.43643621E+03</totfact>
</mgrwt>
</event>
<event>
 4    1  0.2299148E-001  0.2648286E+03  0.7546771E-02  0.1104276E+00
         21   -1    0    0  501  502  0.00000000000E+00  0.00000000000E+00  0.70591888921E+03  0.70591888921E+03  0.00000000000E+00 0.  1.
         21   -1    0    0  502  503 -0.00000000000E+00 -0.00000000000E+00 -0.99460399974E+02  0.99460399974E+02  0.00000000000E+00 0.  1.
          6    1    1    2  501    0 -0.17395605095E+03 -0.10143707660E+03  0.28991208742E+03  0.39266169485E+03  0.17200000000E+03 0.  1.
         -6    1    1    2    0  503  0.17395605095E+03  0.10143707660E+03  0.31654640181E+03  0.41271759433E+03  0.17200000000E+03 0.  1.
<mgrwt>
<rscale>  2 0.26482860E+03</rscale>
<asrwt>0</asrwt>
<pdfrwt beam="1">  1       21 0.17647971E+00 0.26482860E+03</pdfrwt>
<pdfrwt beam="2">  1       21 0.24865102E-01 0.26482860E+03</pdfrwt>
<totfact> 0.27729599E+03</totfact>
</mgrwt>
</event>
<event>
 4    1  0.2299148E-001  0.2258857E+03  0.7546771E-02  0.1129570E+00
         21   -1    0    0  501  502  0.00000000000E+00  0.00000000000E+00  0.42382063452E+03  0.42382063452E+03  0.00000000000E+00 0.  1.
         21   -1    0    0  502  503 -0.00000000000E+00 -0.00000000000E+00 -0.12880911355E+03  0.12880911355E+03  0.00000000000E+00 0. -1.
          6    1    1    2  501    0  0.90710323204E+02  0.11494342819E+03  0.21814212691E+03  0.31402283667E+03  0.17200000000E+03 0. -1.
         -6    1    1    2    0  503 -0.90710323204E+02 -0.11494342819E+03  0.76869394064E+02  0.23860691139E+03  0.17200000000E+03 0. -1.
<mgrwt>
<rscale>  2 0.22588571E+03</rscale>
<asrwt>0</asrwt>
<pdfrwt beam="1">  1       21 0.10595516E+00 0.22588571E+03</pdfrwt>
<pdfrwt beam="2">  1       21 0.32202279E-01 0.22588571E+03</pdfrwt>
<totfact> 0.64731777E+03</totfact>
</mgrwt>
</event>
<event>
 4    1  0.2299148E-001  0.2255098E+03  0.7546771E-02  0.1129841E+00
         21   -1    0    0  503  502  0.00000000000E+00  0.00000000000E+00  0.71332638157E+03  0.71332638157E+03  0.00000000000E+00 0.  1.
         21   -1    0    0  501  503 -0.00000000000E+00 -0.00000000000E+00 -0.13016148949E+03  0.13016148949E+03  0.00000000000E+00 0. -1.
          6    1    1    2  501    0  0.79494951240E+01 -0.14562788046E+03  0.79527874192E+01  0.22564999639E+03  0.17200000000E+03 0. -1.
         -6    1    1    2    0  502 -0.79494951240E+01  0.14562788046E+03  0.57521210466E+03  0.61783787468E+03  0.17200000000E+03 0.  1.
<mgrwt>
<rscale>  2 0.22550981E+03</rscale>
<asrwt>0</asrwt>
<pdfrwt beam="1">  1       21 0.17833158E+00 0.22550981E+03</pdfrwt>
<pdfrwt beam="2">  1       21 0.32540374E-01 0.22550981E+03</pdfrwt>
<totfact> 0.16444339E+03</totfact>
</mgrwt>
</event>
<event>
 4    1  0.2299148E-001  0.1810593E+03  0.7546771E-02  0.1166782E+00
         21   -1    0    0  501  502  0.00000000000E+00  0.00000000000E+00  0.10002473482E+03  0.10002473482E+03  0.00000000000E+00 0.  1.
         21   -1    0    0  502  503 -0.00000000000E+00 -0.00000000000E+00 -0.32814870750E+03  0.32814870750E+03  0.00000000000E+00 0.  1.
          6    1    1    2  501    0 -0.47352325507E+02  0.30922881371E+02 -0.12158403371E+03  0.21809434788E+03  0.17200000000E+03 0.  1.
         -6    1    1    2    0  503  0.47352325507E+02 -0.30922881371E+02 -0.10653993898E+03  0.21007909444E+03  0.17200000000E+03 0.  1.
<mgrwt>
<rscale>  2 0.18105929E+03</rscale>
<asrwt>0</asrwt>
<pdfrwt beam="1">  1       21 0.25006184E-01 0.18105929E+03</pdfrwt>
<pdfrwt beam="2">  1       21 0.82037176E-01 0.18105929E+03</pdfrwt>
<totfact> 0.19808016E+04</totfact>
</mgrwt>
</event>
<event>
 4    1  0.2299148E-001  0.1767899E+03  0.7546771E-02  0.1170946E+00
         21   -1    0    0  501  502  0.00000000000E+00  0.00000000000E+00  0.53620723243E+02  0.53620723243E+02  0.00000000000E+00 0.  1.
         21   -1    0    0  502  503 -0.00000000000E+00 -0.00000000000E+00 -0.70452275845E+03  0.70452275845E+03  0.00000000000E+00 0.  1.
          6    1    1    2  501    0  0.22091376249E+02 -0.34389311613E+02 -0.16794028494E+03  0.24384132743E+03  0.17200000000E+03 0.  1.
         -6    1    1    2    0  503 -0.22091376249E+02  0.34389311613E+02 -0.48296175027E+03  0.51430215426E+03  0.17200000000E+03 0.  1.
<mgrwt>
<rscale>  2 0.17678986E+03</rscale>
<asrwt>0</asrwt>
<pdfrwt beam="1">  1       21 0.13405181E-01 0.17678986E+03</pdfrwt>
<pdfrwt beam="2">  1       21 0.17613069E+00 0.17678986E+03</pdfrwt>
<totfact> 0.94247898E+03</totfact>
</mgrwt>
</event>
<event>
 4    1  0.2299148E-001  0.2468976E+03  0.7546771E-02  0.1115281E+00
         21   -1    0    0  503  502  0.00000000000E+00  0.00000000000E+00  0.42791632100E+03  0.42791632100E+03  0.00000000000E+00 0.  1.
         21   -1    0    0  501  503 -0.00000000000E+00 -0.00000000000E+00 -0.14651400126E+03  0.14651400126E+03  0.00000000000E+00 0.  1.
          6    1    1    2  501    0 -0.44792100108E+02  0.17137119662E+03  0.92890204472E+02  0.26379349755E+03  0.17200000000E+03 0.  1.
         -6    1    1    2    0  502  0.44792100108E+02 -0.17137119662E+03  0.18851211527E+03  0.31063682471E+03  0.17200000000E+03 0.  1.
<mgrwt>
<rscale>  2 0.24689759E+03</rscale>
<asrwt>0</asrwt>
<pdfrwt beam="1">  1       21 0.10697908E+00 0.24689759E+03</pdfrwt>
<pdfrwt beam="2">  1       21 0.36628501E-01 0.24689759E+03</pdfrwt>
<totfact> 0.48271334E+03</totfact>
</mgrwt>
</event>
<event>
 4    1  0.2299148E-001  0.1856843E+03  0.7546771E-02  0.1162412E+00
         21   -1    0    0  501  502  0.00000000000E+00  0.00000000000E+00  0.25576970768E+03  0.25576970768E+03  0.00000000000E+00 0. -1.
         21   -1    0    0  502  503 -0.00000000000E+00 -0.00000000000E+00 -0.14353217194E+03  0.14353217194E+03  0.00000000000E+00 0. -1.
          6    1    1    2  501    0  0.69847116692E+02  0.40048945354E+01  0.10535333516E+03  0.21349000941E+03  0.17200000000E+03 0. -1.
         -6    1    1    2    0  503 -0.69847116692E+02 -0.40048945354E+01  0.68842005841E+01  0.18581187020E+03  0.17200000000E+03 0. -1.
<mgrwt>
<rscale>  2 0.18568430E+03</rscale>
<asrwt>0</asrwt>
<pdfrwt beam="1">  1       21 0.63942426E-01 0.18568430E+03</pdfrwt>
<pdfrwt beam="2">  1       21 0.35883043E-01 0.18568430E+03</pdfrwt>
<totfact> 0.16987626E+04</totfact>
</mgrwt>
</event>
<event>
 4    1  0.2299148E-001  0.1789615E+03  0.7546771E-02  0.1168812E+00
         21   -1    0    0  503  502  0.00000000000E+00  0.00000000000E+00  0.30876496852E+03  0.30876496852E+03  0.00000000000E+00 0. -1.
         21   -1    0    0  501  503 -0.00000000000E+00 -0.00000000000E+00 -0.10686513797E+03  0.10686513797E+03  0.00000000000E+00 0. -1.
          6    1    1    2  501    0  0.33348481702E+02  0.36484022074E+02  0.65336947310E+02  0.19051541088E+03  0.17200000000E+03 0. -1.
         -6    1    1    2    0  502 -0.33348481702E+02 -0.36484022074E+02  0.13656288324E+03  0.22511469560E+03  0.17200000000E+03 0. -1.
<mgrwt>
<rscale>  2 0.17896146E+03</rscale>
<asrwt>0</asrwt>
<pdfrwt beam="1">  1       21 0.77191240E-01 0.17896146E+03</pdfrwt>
<pdfrwt beam="2">  1       21 0.26716285E-01 0.17896146E+03</pdfrwt>
<totfact> 0.20047078E+04</totfact>
</mgrwt>
</event>
<event>
 4    1  0.2299148E-001  0.3073281E+03  0.7546771E-02  0.1081634E+00
         21   -1    0    0  501  502  0.00000000000E+00  0.00000000000E+00  0.17708013019E+03  0.17708013019E+03  0.00000000000E+00 0.  1.
         21   -1    0    0  502  503 -0.00000000000E+00 -0.00000000000E+00 -0.53378082300E+03  0.53378082300E+03  0.00000000000E+00 0. -1.
          6    1    1    2  501    0  0.96731934375E+02 -0.23560458690E+03 -0.18811831649E+03  0.36033191573E+03  0.17200000000E+03 0.  1.
         -6    1    1    2    0  503 -0.96731934375E+02  0.23560458690E+03 -0.16858237632E+03  0.35052903746E+03  0.17200000000E+03 0. -1.
<mgrwt>
<rscale>  2 0.30732814E+03</rscale>
<asrwt>0</asrwt>
<pdfrwt beam="1">  1       21 0.44270033E-01 0.30732814E+03</pdfrwt>
<pdfrwt beam="2">  1       21 0.13344520E+00 0.30732814E+03</pdfrwt>
<totfact> 0.18182623E+03</totfact>
</mgrwt>
</event>
<event>
 4    1  0.2299148E-001  0.2094547E+03  0.7546771E-02  0.1141999E+00
         21   -1    0    0  501  502  0.00000000000E+00  0.00000000000E+00  0.89714275628E+03  0.89714275628E+03  0.00000000000E+00 0.  1.
         21   -1    0    0  502  503 -0.00000000000E+00 -0.00000000000E+00 -0.48950102263E+02  0.48950102263E+02  0.00000000000E+00 0.  1.
          6    1    1    2  501    0  0.11951537908E+03  0.18300460376E+01  0.40913055419E+03  0.45962929114E+03  0.17200000000E+03 0.  1.
         -6    1    1    2    0  503 -0.11951537908E+03 -0.18300460376E+01  0.43906209983E+03  0.48646356740E+03  0.17200000000E+03 0.  1.
<mgrwt>
<rscale>  2 0.20945471E+03</rscale>
<asrwt>0</asrwt>
<pdfrwt beam="1">  1       21 0.22428564E+00 0.20945471E+03</pdfrwt>
<pdfrwt beam="2">  1       21 0.12237528E-01 0.20945471E+03</pdfrwt>
<totfact> 0.52814350E+03</totfact>
</mgrwt>
</event>
<event>
 4    1  0.2299148E-001  0.1727133E+03  0.7546771E-02  0.1175048E+00
         21   -1    0    0  503  502  0.00000000000E+00  0.00000000000E+00  0.65256334097E+02  0.65256334097E+02  0.00000000000E+00 0.  1.
         21   -1    0    0  501  503 -0.00000000000E+00 -0.00000000000E+00 -0.47150361166E+03  0.47150361166E+03  0.00000000000E+00 0.  1.
          6    1    1    2  501    0 -0.31659268006E+01 -0.15357401406E+02 -0.25000123089E+03  0.30385932323E+03  0.17200000000E+03 0.  1.
         -6    1    1    2    0  502  0.31659268006E+01  0.15357401406E+02 -0.15624604668E+03  0.23290062253E+03  0.17200000000E+03 0.  1.
<mgrwt>
<rscale>  2 0.17271327E+03</rscale>
<asrwt>0</asrwt>
<pdfrwt beam="1">  1       21 0.16314084E-01 0.17271327E+03</pdfrwt>
<pdfrwt beam="2">  1       21 0.11787590E+00 0.17271327E+03</pdfrwt>
<totfact> 0.18815147E+04</totfact>
</mgrwt>
</event>
<event>
 4    1  0.2299148E-001  0.2504816E+03  0.7546771E-02  0.1113001E+00
         21   -1    0    0  503  502  0.00000000000E+00  0.00000000000E+00  0.17191235749E+03  0.17191235749E+03  0.00000000000E+00 0.  1.
         21   -1    0    0  501  503 -0.00000000000E+00 -0.00000000000E+00 -0.44430608009E+03  0.44430608009E+03  0.00000000000E+00 0.  1.
          6    1    1    2  501    0 -0.10524043642E+03 -0.14859836815E+03 -0.26640197651E+03  0.36566519873E+03  0.17200000000E+03 0.  1.
         -6    1    1    2    0  502  0.10524043642E+03  0.14859836815E+03 -0.59917460858E+01  0.25055323884E+03  0.17200000000E+03 0.  1.
<mgrwt>
<rscale>  2 0.25048159E+03</rscale>
<asrwt>0</asrwt>
<pdfrwt beam="1">  1       21 0.42978090E-01 0.25048159E+03</pdfrwt>
<pdfrwt beam="2">  1       21 0.11107652E+00 0.25048159E+03</pdfrwt>
<totfact> 0.31764136E+03</totfact>
</mgrwt>
</event>
<event>
 4    1  0.2299148E-001  0.2158653E+03  0.7546771E-02  0.1137004E+00
         21   -1    0    0  501  502  0.00000000000E+00  0.00000000000E+00  0.34311196982E+03  0.34311196982E+03  0.00000000000E+00 0.  1.
         21   -1    0    0  502  503 -0.00000000000E+00 -0.00000000000E+00 -0.13921069648E+03  0.13921069648E+03  0.00000000000E+00 0. -1.
          6    1    1    2  501    0  0.12853254422E+03  0.22208279608E+02  0.13964662493E+03  0.25709726265E+03  0.17200000000E+03 0.  1.
         -6    1    1    2    0  503 -0.12853254422E+03 -0.22208279608E+02  0.64254648403E+02  0.22522540365E+03  0.17200000000E+03 0. -1.
<mgrwt>
<rscale>  2 0.21586529E+03</rscale>
<asrwt>0</asrwt>
<pdfrwt beam="1">  1       21 0.85777991E-01 0.21586529E+03</pdfrwt>
<pdfrwt beam="2">  1       21 0.34802675E-01 0.21586529E+03</pdfrwt>
<totfact> 0.91906362E+03</totfact>
</mgrwt>
</event>
<event>
 4    1  0.2299148E-001  0.1766294E+03  0.7546771E-02  0.1171106E+00
         21   -1    0    0  503  502  0.00000000000E+00  0.00000000000E+00  0.10553766249E+04  0.10553766249E+04  0.00000000000E+00 0.  1.
         21   -1    0    0  501  503 -0.00000000000E+00 -0.00000000000E+00 -0.32621316885E+02  0.32621316885E+02  0.00000000000E+00 0.  1.
          6    1    1    2  501    0 -0.29580661363E+02  0.27183538805E+02  0.34475562371E+03  0.38736855885E+03  0.17200000000E+03 0.  1.
         -6    1    1    2    0  502  0.29580661363E+02 -0.27183538805E+02  0.67799968431E+03  0.70062938293E+03  0.17200000000E+03 0.  1.
<mgrwt>
<rscale>  2 0.17662944E+03</rscale>
<asrwt>0</asrwt>
<pdfrwt beam="1">  1       21 0.26384404E+00 0.17662944E+03</pdfrwt>
<pdfrwt beam="2">  1       21 0.81553327E-02 0.17662944E+03</pdfrwt>
<totfact> 0.65166303E+03</totfact>
</mgrwt>
</event>
<event>
 4    1  0.2299148E-001  0.1904050E+03  0.7546771E-02  0.1158097E+00
         21   -1    0    0  503  502  0.00000000000E+00  0.00000000000E+00  0.96626694845E+02  0.96626694845E+02  0.00000000000E+00 0.  1.
         21   -1    0    0  501  503 -0.00000000000E+00 -0.00000000000E+00 -0.38012363646E+03  0.38012363646E+03  0.00000000000E+00 0.  1.
          6    1    1    2  501    0  0.17648881070E+02 -0.79740662541E+02 -0.16888592839E+03  0.25451230436E+03  0.17200000000E+03 0.  1.
         -6    1    1    2    0  502 -0.17648881070E+02  0.79740662541E+02 -0.11461101323E+03  0.22223802694E+03  0.17200000000E+03 0.  1.
<mgrwt>
<rscale>  2 0.19040498E+03</rscale>
<asrwt>0</asrwt>
<pdfrwt beam="1">  1       21 0.24156674E-01 0.19040498E+03</pdfrwt>
<pdfrwt beam="2">  1       21 0.95030908E-01 0.19040498E+03</pdfrwt>
<totfact> 0.14990198E+04</totfact>
</mgrwt>
</event>
<event>
 4    1  0.2299148E-001  0.1882688E+03  0.7546771E-02  0.1160032E+00
         21   -1    0    0  501  502  0.00000000000E+00  0.00000000000E+00  0.27631087130E+03  0.27631087130E+03  0.00000000000E+00 0. -1.
         21   -1    0    0  502  503 -0.00000000000E+00 -0.00000000000E+00 -0.14985945229E+03  0.14985945229E+03  0.00000000000E+00 0.  1.
          6    1    1    2  501    0 -0.20962121946E+01  0.76529439114E+02 -0.17633909321E+02  0.18909284469E+03  0.17200000000E+03 0.  1.
         -6    1    1    2    0  503  0.20962121946E+01 -0.76529439114E+02  0.14408532834E+03  0.23707747889E+03  0.17200000000E+03 0.  1.
<mgrwt>
<rscale>  2 0.18826882E+03</rscale>
<asrwt>0</asrwt>
<pdfrwt beam="1">  1       21 0.69077717E-01 0.18826882E+03</pdfrwt>
<pdfrwt beam="2">  1       21 0.37464863E-01 0.18826882E+03</pdfrwt>
<totfact> 0.13146499E+04</totfact>
</mgrwt>
</event>
<event>
 4    1  0.2299148E-001  0.1938370E+03  0.7546771E-02  0.1155045E+00
         21   -1    0    0  503  502  0.00000000000E+00  0.00000000000E+00  0.14061785459E+04  0.14061785459E+04  0.00000000000E+00 0. -1.
         21   -1    0    0  501  503 -0.00000000000E+00 -0.00000000000E+00 -0.27679873145E+02  0.27679873145E+02  0.00000000000E+00 0.  1.
          6    1    1    2  501    0 -0.85419176758E+02  0.26312189217E+02  0.82277145540E+03  0.84529618175E+03  0.17200000000E+03 0. -1.
         -6    1    1    2    0  502  0.85419176758E+02 -0.26312189217E+02  0.55572721733E+03  0.58856223727E+03  0.17200000000E+03 0. -1.
<mgrwt>
<rscale>  2 0.19383696E+03</rscale>
<asrwt>0</asrwt>
<pdfrwt beam="1">  1       21 0.35154440E+00 0.19383696E+03</pdfrwt>
<pdfrwt beam="2">  1       21 0.69199730E-02 0.19383696E+03</pdfrwt>
<totfact> 0.26377492E+03</totfact>
</mgrwt>
</event>
<event>
 4    1  0.2299148E-001  0.1938111E+03  0.7546771E-02  0.1155068E+00
         21   -1    0    0  503  502  0.00000000000E+00  0.00000000000E+00  0.11178897977E+03  0.11178897977E+03  0.00000000000E+00 0.  1.
         21   -1    0    0  501  503 -0.00000000000E+00 -0.00000000000E+00 -0.34477627758E+03  0.34477627758E+03  0.00000000000E+00 0.  1.
          6    1    1    2  501    0  0.74113587856E+02 -0.49858833430E+02 -0.80102288887E+02  0.20971195450E+03  0.17200000000E+03 0.  1.
         -6    1    1    2    0  502 -0.74113587856E+02  0.49858833430E+02 -0.15288500892E+03  0.24685330285E+03  0.17200000000E+03 0.  1.
<mgrwt>
<rscale>  2 0.19381106E+03</rscale>
<asrwt>0</asrwt>
<pdfrwt beam="1">  1       21 0.27947245E-01 0.19381106E+03</pdfrwt>
<pdfrwt beam="2">  1       21 0.86194068E-01 0.19381106E+03</pdfrwt>
<totfact> 0.14181491E+04</totfact>
</mgrwt>
</event>
<event>
 4    1  0.2299148E-001  0.2408722E+03  0.7546771E-02  0.1119213E+00
         21   -1    0    0  503  502  0.00000000000E+00  0.00000000000E+00  0.19429504482E+03  0.19429504482E+03  0.00000000000E+00 0. -1.
         21   -1    0    0  501  503 -0.00000000000E+00 -0.00000000000E+00 -0.41478544926E+03  0.41478544926E+03  0.00000000000E+00 0.  1.
          6    1    1    2  501    0 -0.16702733314E+03 -0.23179109210E+02 -0.27141397738E+03  0.36288420775E+03  0.17200000000E+03 0.  1.
         -6    1    1    2    0  502  0.16702733314E+03  0.23179109210E+02  0.50923572941E+02  0.24619628632E+03  0.17200000000E+03 0. -1.
<mgrwt>
<rscale>  2 0.24087217E+03</rscale>
<asrwt>0</asrwt>
<pdfrwt beam="1">  1       21 0.48573762E-01 0.24087217E+03</pdfrwt>
<pdfrwt beam="2">  1       21 0.10369636E+00 0.24087217E+03</pdfrwt>
<totfact> 0.29325432E+03</totfact>
</mgrwt>
</event>
<event>
 4    1  0.2299148E-001  0.2126391E+03  0.7546771E-02  0.1139493E+00
         21   -1    0    0  501  502  0.00000000000E+00  0.00000000000E+00  0.91467606471E+03  0.91467606471E+03  0.00000000000E+00 0.  1.
         21   -1    0    0  502  503 -0.00000000000E+00 -0.00000000000E+00 -0.66121156719E+02  0.66121156719E+02  0.00000000000E+00 0.  1.
          6    1    1    2  501    0 -0.27393438894E+02 -0.12198773483E+03  0.67064300402E+03  0.70354633592E+03  0.17200000000E+03 0.  1.
         -6    1    1    2    0  503  0.27393438894E+02  0.12198773483E+03  0.17791190397E+03  0.27725088551E+03  0.17200000000E+03 0.  1.
<mgrwt>
<rscale>  2 0.21263915E+03</rscale>
<asrwt>0</asrwt>
<pdfrwt beam="1">  1       21 0.22866898E+00 0.21263915E+03</pdfrwt>
<pdfrwt beam="2">  1       21 0.16530292E-01 0.21263915E+03</pdfrwt>
<totfact> 0.28671085E+03</totfact>
</mgrwt>
</event>
<event>
 4    1  0.2299148E-001  0.1916668E+03  0.7546771E-02  0.1156967E+00
         21   -1    0    0  501  502  0.00000000000E+00  0.00000000000E+00  0.13455416144E+03  0.13455416144E+03  0.00000000000E+00 0. -1.
         21   -1    0    0  502  503 -0.00000000000E+00 -0.00000000000E+00 -0.30595105968E+03  0.30595105968E+03  0.00000000000E+00 0.  1.
          6    1    1    2  501    0 -0.84569459617E+02  0.39080645421E+00 -0.13439831154E+02  0.19213738650E+03  0.17200000000E+03 0.  1.
         -6    1    1    2    0  503  0.84569459617E+02 -0.39080645421E+00 -0.15795706709E+03  0.24836783462E+03  0.17200000000E+03 0. -1.
<mgrwt>
<rscale>  2 0.19166676E+03</rscale>
<asrwt>0</asrwt>
<pdfrwt beam="1">  1       21 0.33638541E-01 0.19166676E+03</pdfrwt>
<pdfrwt beam="2">  1       21 0.76487764E-01 0.19166676E+03</pdfrwt>
<totfact> 0.12961487E+04</totfact>
</mgrwt>
</event>
<event>
 4    1  0.2299148E-001  0.1882569E+03  0.7546771E-02  0.1160043E+00
         21   -1    0    0  501  502  0.00000000000E+00  0.00000000000E+00  0.33838778570E+03  0.33838778570E+03  0.00000000000E+00 0.  1.
         21   -1    0    0  502  503 -0.00000000000E+00 -0.00000000000E+00 -0.14730383789E+03  0.14730383789E+03  0.00000000000E+00 0.  1.
          6    1    1    2  501    0  0.71325833554E+02 -0.27736037413E+02  0.22609148474E+03  0.29420744684E+03  0.17200000000E+03 0.  1.
         -6    1    1    2    0  503 -0.71325833554E+02  0.27736037413E+02 -0.35007536929E+02  0.19148417675E+03  0.17200000000E+03 0.  1.
<mgrwt>
<rscale>  2 0.18825691E+03</rscale>
<asrwt>0</asrwt>
<pdfrwt beam="1">  1       21 0.84596945E-01 0.18825691E+03</pdfrwt>
<pdfrwt beam="2">  1       21 0.36825960E-01 0.18825691E+03</pdfrwt>
<totfact> 0.86417129E+03</totfact>
</mgrwt>
</event>
<event>
 4    1  0.2299148E-001  0.2161129E+03  0.7546771E-02  0.1136815E+00
         21   -1    0    0  503  502  0.00000000000E+00  0.00000000000E+00  0.18034760046E+03  0.18034760046E+03  0.00000000000E+00 0.  1.
         21   -1    0    0  501  503 -0.00000000000E+00 -0.00000000000E+00 -0.28898839539E+03  0.28898839539E+03  0.00000000000E+00 0.  1.
          6    1    1    2  501    0 -0.10945726190E+03  0.71693182725E+02 -0.12995141107E+03  0.25217488747E+03  0.17200000000E+03 0.  1.
         -6    1    1    2    0  502  0.10945726190E+03 -0.71693182725E+02  0.21310616145E+02  0.21716110838E+03  0.17200000000E+03 0.  1.
<mgrwt>
<rscale>  2 0.21611294E+03</rscale>
<asrwt>0</asrwt>
<pdfrwt beam="1">  1       21 0.45086900E-01 0.21611294E+03</pdfrwt>
<pdfrwt beam="2">  1       21 0.72247098E-01 0.21611294E+03</pdfrwt>
<totfact> 0.80224007E+03</totfact>
</mgrwt>
</event>
<event>
 4    1  0.2299148E-001  0.2192027E+03  0.7546771E-02  0.1134479E+00
         21   -1    0    0  503  502  0.00000000000E+00  0.00000000000E+00  0.11362012880E+03  0.11362012880E+03  0.00000000000E+00 0.  1.
         21   -1    0    0  501  503 -0.00000000000E+00 -0.00000000000E+00 -0.42778753084E+03  0.42778753084E+03  0.00000000000E+00 0.  1.
          6    1    1    2  501    0 -0.17274138086E+02  0.13478658345E+03 -0.18602228712E+03  0.28749627864E+03  0.17200000000E+03 0.  1.
         -6    1    1    2    0  502  0.17274138086E+02 -0.13478658345E+03 -0.12814511492E+03  0.25391138100E+03  0.17200000000E+03 0.  1.
<mgrwt>
<rscale>  2 0.21920269E+03</rscale>
<asrwt>0</asrwt>
<pdfrwt beam="1">  1       21 0.28405032E-01 0.21920269E+03</pdfrwt>
<pdfrwt beam="2">  1       21 0.10694688E+00 0.21920269E+03</pdfrwt>
<totfact> 0.81279522E+03</totfact>
</mgrwt>
</event>
<event>
 4    1  0.2299148E-001  0.1990102E+03  0.7546771E-02  0.1150577E+00
         21   -1    0    0  501  502  0.00000000000E+00  0.00000000000E+00  0.50358223941E+03  0.50358223941E+03  0.00000000000E+00 0. -1.
         21   -1    0    0  502  503 -0.00000000000E+00 -0.00000000000E+00 -0.78824190242E+02  0.78824190242E+02  0.00000000000E+00 0.  1.
          6    1    1    2  501    0 -0.81636931904E+02 -0.57935037583E+02  0.22619915481E+03  0.30128245031E+03  0.17200000000E+03 0. -1.
         -6    1    1    2    0  503  0.81636931904E+02  0.57935037583E+02  0.19855889436E+03  0.28112397934E+03  0.17200000000E+03 0. -1.
<mgrwt>
<rscale>  2 0.19901019E+03</rscale>
<asrwt>0</asrwt>
<pdfrwt beam="1">  1       21 0.12589555E+00 0.19901019E+03</pdfrwt>
<pdfrwt beam="2">  1       21 0.19706049E-01 0.19901019E+03</pdfrwt>
<totfact> 0.11068614E+04</totfact>
</mgrwt>
</event>
<event>
 4    1  0.2299148E-001  0.2073320E+03  0.7546771E-02  0.1143696E+00
         21   -1    0    0  503  502  0.00000000000E+00  0.00000000000E+00  0.58638332462E+02  0.58638332462E+02  0.00000000000E+00 0. -1.
         21   -1    0    0  501  503 -0.00000000000E+00 -0.00000000000E+00 -0.10586771128E+04  0.10586771128E+04  0.00000000000E+00 0.  1.
          6    1    1    2  501    0 -0.43251732103E+02  0.10738646026E+03 -0.80983592820E+03  0.83595501960E+03  0.17200000000E+03 0.  1.
         -6    1    1    2    0  502  0.43251732103E+02 -0.10738646026E+03 -0.19020285217E+03  0.28136042570E+03  0.17200000000E+03 0. -1.
<mgrwt>
<rscale>  2 0.20733201E+03</rscale>
<asrwt>0</asrwt>
<pdfrwt beam="1">  1       21 0.14659583E-01 0.20733201E+03</pdfrwt>
<pdfrwt beam="2">  1       21 0.26466928E+00 0.20733201E+03</pdfrwt>
<totfact> 0.21956209E+03</totfact>
</mgrwt>
</event>
<event>
 4    1  0.2299148E-001  0.2780730E+03  0.7546771E-02  0.1096746E+00
         21   -1    0    0  503  502  0.00000000000E+00  0.00000000000E+00  0.25092383363E+03  0.25092383363E+03  0.00000000000E+00 0.  1.
         21   -1    0    0  501  503 -0.00000000000E+00 -0.00000000000E+00 -0.31905289377E+03  0.31905289377E+03  0.00000000000E+00 0. -1.
          6    1    1    2  501    0 -0.82171969198E+02  0.20245584937E+03 -0.86723720650E+02  0.29128269291E+03  0.17200000000E+03 0.  1.
         -6    1    1    2    0  502  0.82171969198E+02 -0.20245584937E+03  0.18594660506E+02  0.27869403450E+03  0.17200000000E+03 0.  1.
<mgrwt>
<rscale>  2 0.27807302E+03</rscale>
<asrwt>0</asrwt>
<pdfrwt beam="1">  1       21 0.62730959E-01 0.27807302E+03</pdfrwt>
<pdfrwt beam="2">  1       21 0.79763223E-01 0.27807302E+03</pdfrwt>
<totfact> 0.30661329E+03</totfact>
</mgrwt>
</event>
<event>
 4    1  0.2299148E-001  0.2002208E+03  0.7546771E-02  0.1149553E+00
         21   -1    0    0  503  502  0.00000000000E+00  0.00000000000E+00  0.20815742828E+03  0.20815742828E+03  0.00000000000E+00 0.  1.
         21   -1    0    0  501  503 -0.00000000000E+00 -0.00000000000E+00 -0.33671593053E+03  0.33671593053E+03  0.00000000000E+00 0.  1.
          6    1    1    2  501    0  0.15840054995E+02  0.10125943130E+03 -0.24252105990E+03  0.31449140571E+03  0.17200000000E+03 0.  1.
         -6    1    1    2    0  502 -0.15840054995E+02 -0.10125943130E+03  0.11396255766E+03  0.23038195311E+03  0.17200000000E+03 0.  1.
<mgrwt>
<rscale>  2 0.20022083E+03</rscale>
<asrwt>0</asrwt>
<pdfrwt beam="1">  1       21 0.52039357E-01 0.20022083E+03</pdfrwt>
<pdfrwt beam="2">  1       21 0.84178982E-01 0.20022083E+03</pdfrwt>
<totfact> 0.42677882E+03</totfact>
</mgrwt>
</event>
<event>
 4    1  0.2299148E-001  0.2462146E+03  0.7546771E-02  0.1115721E+00
         21   -1    0    0  503  502  0.00000000000E+00  0.00000000000E+00  0.13012257452E+04  0.13012257452E+04  0.00000000000E+00 0.  1.
         21   -1    0    0  501  503 -0.00000000000E+00 -0.00000000000E+00 -0.46973198670E+02  0.46973198670E+02  0.00000000000E+00 0. -1.
          6    1    1    2  501    0  0.17106474556E+03  0.42124699994E+02  0.68816196864E+03  0.73088202372E+03  0.17200000000E+03 0.  1.
         -6    1    1    2    0  502 -0.17106474556E+03 -0.42124699994E+02  0.56609057791E+03  0.61731692016E+03  0.17200000000E+03 0. -1.
<mgrwt>
<rscale>  2 0.24621462E+03</rscale>
<asrwt>0</asrwt>
<pdfrwt beam="1">  1       21 0.32530632E+00 0.24621462E+03</pdfrwt>
<pdfrwt beam="2">  1       21 0.11743304E-01 0.24621462E+03</pdfrwt>
<totfact> 0.13937568E+03</totfact>
</mgrwt>
</event>
<event>
 4    1  0.2299148E-001  0.2014890E+03  0.7546771E-02  0.1148489E+00
         21   -1    0    0  501  502  0.00000000000E+00  0.00000000000E+00  0.86678349390E+03  0.86678349390E+03  0.00000000000E+00 0. -1.
         21   -1    0    0  502  503 -0.00000000000E+00 -0.00000000000E+00 -0.54590377161E+02  0.54590377161E+02  0.00000000000E+00 0.  1.
          6    1    1    2  501    0 -0.45468058921E+02  0.94585840086E+02  0.57971027329E+03  0.61372781140E+03  0.17200000000E+03 0.  1.
         -6    1    1    2    0  503  0.45468058921E+02 -0.94585840086E+02  0.23248284344E+03  0.30764605966E+03  0.17200000000E+03 0. -1.
<mgrwt>
<rscale>  2 0.20148902E+03</rscale>
<asrwt>0</asrwt>
<pdfrwt beam="1">  1       21 0.21669583E+00 0.20148902E+03</pdfrwt>
<pdfrwt beam="2">  1       21 0.13647597E-01 0.20148902E+03</pdfrwt>
<totfact> 0.48675290E+03</totfact>
</mgrwt>
</event>
<event>
 4    1  0.2299148E-001  0.1736254E+03  0.7546771E-02  0.1174119E+00
         21   -1    0    0  503  502  0.00000000000E+00  0.00000000000E+00  0.51215303507E+03  0.51215303507E+03  0.00000000000E+00 0.  1.
         21   -1    0    0  501  503 -0.00000000000E+00 -0.00000000000E+00 -0.63301460805E+02  0.63301460805E+02  0.00000000000E+00 0.  1.
          6    1    1    2  501    0  0.22423556788E+02 -0.76781354645E+01  0.14821879111E+03  0.22828617939E+03  0.17200000000E+03 0.  1.
         -6    1    1    2    0  502 -0.22423556788E+02  0.76781354645E+01  0.30063278315E+03  0.34716831648E+03  0.17200000000E+03 0.  1.
<mgrwt>
<rscale>  2 0.17362537E+03</rscale>
<asrwt>0</asrwt>
<pdfrwt beam="1">  1       21 0.12803825E+00 0.17362537E+03</pdfrwt>
<pdfrwt beam="2">  1       21 0.15825367E-01 0.17362537E+03</pdfrwt>
<totfact> 0.16187597E+04</totfact>
</mgrwt>
</event>
<event>
 4    1  0.2299148E-001  0.2420538E+03  0.7546771E-02  0.1118432E+00
         21   -1    0    0  503  502  0.00000000000E+00  0.00000000000E+00  0.12304483642E+03  0.12304483642E+03  0.00000000000E+00 0. -1.
         21   -1    0    0  501  503 -0.00000000000E+00 -0.00000000000E+00 -0.47635589688E+03  0.47635589688E+03  0.00000000000E+00 0. -1.
          6    1    1    2  501    0  0.15733512447E+03  0.65205228033E+02 -0.18260140803E+03  0.30320510775E+03  0.17200000000E+03 0. -1.
         -6    1    1    2    0  502 -0.15733512447E+03 -0.65205228033E+02 -0.17070965244E+03  0.29619562554E+03  0.17200000000E+03 0. -1.
<mgrwt>
<rscale>  2 0.24205384E+03</rscale>
<asrwt>0</asrwt>
<pdfrwt beam="1">  1       21 0.30761209E-01 0.24205384E+03</pdfrwt>
<pdfrwt beam="2">  1       21 0.11908897E+00 0.24205384E+03</pdfrwt>
<totfact> 0.52666188E+03</totfact>
</mgrwt>
</event>
<event>
 4    1  0.2299148E-001  0.1747536E+03  0.7546771E-02  0.1172979E+00
         21   -1    0    0  503  502  0.00000000000E+00  0.00000000000E+00  0.35208619236E+02  0.35208619236E+02  0.00000000000E+00 0. -1.
         21   -1    0    0  501  503 -0.00000000000E+00 -0.00000000000E+00 -0.90872966765E+03  0.90872966765E+03  0.00000000000E+00 0. -1.
          6    1    1    2  501    0  0.26749014914E+02 -0.15469657544E+02 -0.33606812326E+03  0.37878833611E+03  0.17200000000E+03 0. -1.
         -6    1    1    2    0  502 -0.26749014914E+02  0.15469657544E+02 -0.53745292515E+03  0.56514995077E+03  0.17200000000E+03 0. -1.
<mgrwt>
<rscale>  2 0.17475360E+03</rscale>
<asrwt>0</asrwt>
<pdfrwt beam="1">  1       21 0.88021548E-02 0.17475360E+03</pdfrwt>
<pdfrwt beam="2">  1       21 0.22718242E+00 0.17475360E+03</pdfrwt>
<totfact> 0.93944153E+03</totfact>
</mgrwt>
</event>
<event>
 4    1  0.2299148E-001  0.2339370E+03  0.7546771E-02  0.1123899E+00
         21   -1    0    0  501  502  0.00000000000E+00  0.00000000000E+00  0.21074806752E+03  0.21074806752E+03  0.00000000000E+00 0. -1.
         21   -1    0    0  502  503 -0.00000000000E+00 -0.00000000000E+00 -0.26040871721E+03  0.26040871721E+03  0.00000000000E+00 0.  1.
          6    1    1    2  501    0 -0.30578690735E+02 -0.15558742727E+03 -0.12345870245E+02  0.23426251165E+03  0.17200000000E+03 0.  1.
         -6    1    1    2    0  503  0.30578690735E+02  0.15558742727E+03 -0.37314779453E+02  0.23689427308E+03  0.17200000000E+03 0. -1.
<mgrwt>
<rscale>  2 0.23393697E+03</rscale>
<asrwt>0</asrwt>
<pdfrwt beam="1">  1       21 0.52687017E-01 0.23393697E+03</pdfrwt>
<pdfrwt beam="2">  1       21 0.65102179E-01 0.23393697E+03</pdfrwt>
<totfact> 0.72103520E+03</totfact>
</mgrwt>
</event>
<event>
 4    1  0.2299148E-001  0.3244840E+03  0.7546771E-02  0.1073604E+00
         21   -1    0    0  503  502  0.00000000000E+00  0.00000000000E+00  0.82212490046E+03  0.82212490046E+03  0.00000000000E+00 0.  1.
         21   -1    0    0  501  503 -0.00000000000E+00 -0.00000000000E+00 -0.13624980398E+03  0.13624980398E+03  0.00000000000E+00 0. -1.
          6    1    1    2  501    0 -0.92968221692E+02  0.25896482808E+03  0.22552946762E+03  0.39516251491E+03  0.17200000000E+03 0. -1.
         -6    1    1    2    0  502  0.92968221692E+02 -0.25896482808E+03  0.46034562886E+03  0.56321218953E+03  0.17200000000E+03 0.  1.
<mgrwt>
<rscale>  2 0.32448401E+03</rscale>
<asrwt>0</asrwt>
<pdfrwt beam="1">  1       21 0.20553121E+00 0.32448401E+03</pdfrwt>
<pdfrwt beam="2">  1       21 0.34062453E-01 0.32448401E+03</pdfrwt>
<totfact> 0.91605011E+02</totfact>
</mgrwt>
</event>
<event>
 4    1  0.2299148E-001  0.2151539E+03  0.7546771E-02  0.1137548E+00
         21   -1    0    0  501  502  0.00000000000E+00  0.00000000000E+00  0.33871467200E+03  0.33871467200E+03  0.00000000000E+00 0.  1.
         21   -1    0    0  502  503 -0.00000000000E+00 -0.00000000000E+00 -0.14773169482E+03  0.14773169482E+03  0.00000000000E+00 0.  1.
          6    1    1    2  501    0 -0.12908103779E+03  0.67281648178E+01  0.28928300524E+02  0.21708991015E+03  0.17200000000E+03 0.  1.
         -6    1    1    2    0  503  0.12908103779E+03 -0.67281648178E+01  0.16205467666E+03  0.26935645666E+03  0.17200000000E+03 0.  1.
<mgrwt>
<rscale>  2 0.21515386E+03</rscale>
<asrwt>0</asrwt>
<pdfrwt beam="1">  1       21 0.84678667E-01 0.21515386E+03</pdfrwt>
<pdfrwt beam="2">  1       21 0.36932924E-01 0.21515386E+03</pdfrwt>
<totfact> 0.84121728E+03</totfact>
</mgrwt>
</event>
<event>
 4    1  0.2299148E-001  0.2587070E+03  0.7546771E-02  0.1107923E+00
         21   -1    0    0  501  502  0.00000000000E+00  0.00000000000E+00  0.22386396383E+03  0.22386396383E+03  0.00000000000E+00 0.  1.
         21   -1    0    0  502  503 -0.00000000000E+00 -0.00000000000E+00 -0.32119427258E+03  0.32119427258E+03  0.00000000000E+00 0.  1.
          6    1    1    2  501    0  0.12538802703E+03 -0.14704807908E+03  0.23017299827E+02  0.25972887975E+03  0.17200000000E+03 0.  1.
         -6    1    1    2    0  503 -0.12538802703E+03  0.14704807908E+03 -0.12034760857E+03  0.28532935666E+03  0.17200000000E+03 0.  1.
<mgrwt>
<rscale>  2 0.25870697E+03</rscale>
<asrwt>0</asrwt>
<pdfrwt beam="1">  1       21 0.55965991E-01 0.25870697E+03</pdfrwt>
<pdfrwt beam="2">  1       21 0.80298568E-01 0.25870697E+03</pdfrwt>
<totfact> 0.39099853E+03</totfact>
</mgrwt>
</event>
<event>
 4    1  0.2299148E-001  0.2808149E+03  0.7546771E-02  0.1095245E+00
         21   -1    0    0  501  502  0.00000000000E+00  0.00000000000E+00  0.46151766359E+03  0.46151766359E+03  0.00000000000E+00 0.  1.
         21   -1    0    0  502  503 -0.00000000000E+00 -0.00000000000E+00 -0.17098492018E+03  0.17098492018E+03  0.00000000000E+00 0.  1.
          6    1    1    2  501    0  0.59871482175E+02  0.21374848361E+03  0.15365730100E+03  0.32010556817E+03  0.17200000000E+03 0.  1.
         -6    1    1    2    0  503 -0.59871482175E+02 -0.21374848361E+03  0.13687544241E+03  0.31239701560E+03  0.17200000000E+03 0.  1.
<mgrwt>
<rscale>  2 0.28081490E+03</rscale>
<asrwt>0</asrwt>
<pdfrwt beam="1">  1       21 0.11537941E+00 0.28081490E+03</pdfrwt>
<pdfrwt beam="2">  1       21 0.42746231E-01 0.28081490E+03</pdfrwt>
<totfact> 0.28691721E+03</totfact>
</mgrwt>
</event>
<event>
 4    1  0.2299148E-001  0.1777277E+03  0.7546771E-02  0.1170021E+00
         21   -1    0    0  501  502  0.00000000000E+00  0.00000000000E+00  0.35254644699E+03  0.35254644699E+03  0.00000000000E+00 0.  1.
         21   -1    0    0  502  503 -0.00000000000E+00 -0.00000000000E+00 -0.89803736596E+02  0.89803736596E+02  0.00000000000E+00 0.  1.
          6    1    1    2  501    0 -0.27651264548E+02  0.35192800259E+02  0.14198179285E+03  0.22747737277E+03  0.17200000000E+03 0.  1.
         -6    1    1    2    0  503  0.27651264548E+02 -0.35192800259E+02  0.12076091754E+03  0.21487281081E+03  0.17200000000E+03 0.  1.
<mgrwt>
<rscale>  2 0.17772767E+03</rscale>
<asrwt>0</asrwt>
<pdfrwt beam="1">  1       21 0.88136608E-01 0.17772767E+03</pdfrwt>
<pdfrwt beam="2">  1       21 0.22450935E-01 0.17772767E+03</pdfrwt>
<totfact> 0.20671154E+04</totfact>
</mgrwt>
</event>
<event>
 4    1  0.2299148E-001  0.1975253E+03  0.7546771E-02  0.1151844E+00
         21   -1    0    0  503  502  0.00000000000E+00  0.00000000000E+00  0.41001195991E+03  0.41001195991E+03  0.00000000000E+00 0.  1.
         21   -1    0    0  501  503 -0.00000000000E+00 -0.00000000000E+00 -0.10148545146E+03  0.10148545146E+03  0.00000000000E+00 0.  1.
          6    1    1    2  501    0 -0.20610551510E+00 -0.97119531574E+02  0.90407723042E+02  0.21723213915E+03  0.17200000000E+03 0.  1.
         -6    1    1    2    0  502  0.20610551510E+00  0.97119531574E+02  0.21811878541E+03  0.29426527223E+03  0.17200000000E+03 0.  1.
<mgrwt>
<rscale>  2 0.19752530E+03</rscale>
<asrwt>0</asrwt>
<pdfrwt beam="1">  1       21 0.10250299E+00 0.19752530E+03</pdfrwt>
<pdfrwt beam="2">  1       21 0.25371364E-01 0.19752530E+03</pdfrwt>
<totfact> 0.11359236E+04</totfact>
</mgrwt>
</event>
<event>
 4    1  0.2299148E-001  0.1879731E+03  0.7546771E-02  0.1160302E+00
         21   -1    0    0  501  502  0.00000000000E+00  0.00000000000E+00  0.66291845723E+02  0.66291845723E+02  0.00000000000E+00 0. -1.
         21   -1    0    0  502  503 -0.00000000000E+00 -0.00000000000E+00 -0.53994594651E+03  0.53994594651E+03  0.00000000000E+00 0. -1.
          6    1    1    2  501    0 -0.74674915599E+02 -0.13173565766E+02 -0.27119446971E+03  0.32997018995E+03  0.17200000000E+03 0. -1.
         -6    1    1    2    0  503  0.74674915599E+02  0.13173565766E+02 -0.20245963108E+03  0.27626760228E+03  0.17200000000E+03 0. -1.
<mgrwt>
<rscale>  2 0.18797310E+03</rscale>
<asrwt>0</asrwt>
<pdfrwt beam="1">  1       21 0.16572961E-01 0.18797310E+03</pdfrwt>
<pdfrwt beam="2">  1       21 0.13498649E+00 0.18797310E+03</pdfrwt>
<totfact> 0.12887745E+04</totfact>
</mgrwt>
</event>
<event>
 4    1  0.2299148E-001  0.2017487E+03  0.7546771E-02  0.1148272E+00
         21   -1    0    0  503  502  0.00000000000E+00  0.00000000000E+00  0.41042249173E+03  0.41042249173E+03  0.00000000000E+00 0.  1.
         21   -1    0    0  501  503 -0.00000000000E+00 -0.00000000000E+00 -0.10630919665E+03  0.10630919665E+03  0.00000000000E+00 0.  1.
          6    1    1    2  501    0  0.10497643995E+03 -0.99242161110E+01  0.85113774748E+02  0.21896780051E+03  0.17200000000E+03 0.  1.
         -6    1    1    2    0  502 -0.10497643995E+03  0.99242161110E+01  0.21899952033E+03  0.29776388787E+03  0.17200000000E+03 0.  1.
<mgrwt>
<rscale>  2 0.20174871E+03</rscale>
<asrwt>0</asrwt>
<pdfrwt beam="1">  1       21 0.10260562E+00 0.20174871E+03</pdfrwt>
<pdfrwt beam="2">  1       21 0.26577300E-01 0.20174871E+03</pdfrwt>
<totfact> 0.10335682E+04</totfact>
</mgrwt>
</event>
<event>
 4    1  0.2299148E-001  0.1934335E+03  0.7546771E-02  0.1155401E+00
         21   -1    0    0  503  502  0.00000000000E+00  0.00000000000E+00  0.94198315395E+02  0.94198315395E+02  0.00000000000E+00 0. -1.
         21   -1    0    0  501  503 -0.00000000000E+00 -0.00000000000E+00 -0.43630573471E+03  0.43630573471E+03  0.00000000000E+00 0.  1.
          6    1    1    2  501    0 -0.51017003588E+02 -0.72317124027E+02 -0.25045519585E+03  0.31645585192E+03  0.17200000000E+03 0.  1.
         -6    1    1    2    0  502  0.51017003588E+02  0.72317124027E+02 -0.91652223463E+02  0.21404819819E+03  0.17200000000E+03 0. -1.
<mgrwt>
<rscale>  2 0.19343345E+03</rscale>
<asrwt>0</asrwt>
<pdfrwt beam="1">  1       21 0.23549579E-01 0.19343345E+03</pdfrwt>
<pdfrwt beam="2">  1       21 0.10907643E+00 0.19343345E+03</pdfrwt>
<totfact> 0.11307101E+04</totfact>
</mgrwt>
</event>
<event>
 4    1  0.2299148E-001  0.1840668E+03  0.7546771E-02  0.1163924E+00
         21   -1    0    0  503  502  0.00000000000E+00  0.00000000000E+00  0.18832190011E+03  0.18832190011E+03  0.00000000000E+00 0.  1.
         21   -1    0    0  501  503 -0.00000000000E+00 -0.00000000000E+00 -0.18215505156E+03  0.18215505156E+03  0.00000000000E+00 0. -1.
          6    1    1    2  501    0 -0.59221958329E+02 -0.28095613696E+02 -0.17490803664E+02  0.18489600339E+03  0.17200000000E+03 0. -1.
         -6    1    1    2    0  502  0.59221958329E+02  0.28095613696E+02  0.23657652218E+02  0.18558094828E+03  0.17200000000E+03 0.  1.
<mgrwt>
<rscale>  2 0.18406685E+03</rscale>
<asrwt>0</asrwt>
<pdfrwt beam="1">  1       21 0.47080475E-01 0.18406685E+03</pdfrwt>
<pdfrwt beam="2">  1       21 0.45538763E-01 0.18406685E+03</pdfrwt>
<totfact> 0.20065653E+04</totfact>
</mgrwt>
</event>
<event>
 4    1  0.2299148E-001  0.2099427E+03  0.7546771E-02  0.1141611E+00
         21   -1    0    0  503  502  0.00000000000E+00  0.00000000000E+00  0.20068845893E+03  0.20068845893E+03  0.00000000000E+00 0.  1.
         21   -1    0    0  501  503 -0.00000000000E+00 -0.00000000000E+00 -0.26185854274E+03  0.26185854274E+03  0.00000000000E+00 0. -1.
          6    1    1    2  501    0  0.10481871395E+03 -0.59202894038E+02 -0.12346624894E+03  0.24355668762E+03  0.17200000000E+03 0. -1.
         -6    1    1    2    0  502 -0.10481871395E+03  0.59202894038E+02  0.62296165137E+02  0.21899031405E+03  0.17200000000E+03 0.  1.
<mgrwt>
<rscale>  2 0.20994272E+03</rscale>
<asrwt>0</asrwt>
<pdfrwt beam="1">  1       21 0.50172115E-01 0.20994272E+03</pdfrwt>
<pdfrwt beam="2">  1       21 0.65464636E-01 0.20994272E+03</pdfrwt>
<totfact> 0.80197163E+03</totfact>
</mgrwt>
</event>
<event>
 4    1  0.2299148E-001  0.1782948E+03  0.7546771E-02  0.1169464E+00
         21   -1    0    0  503  502  0.00000000000E+00  0.00000000000E+00  0.31684478620E+02  0.31684478620E+02  0.00000000000E+00 0. -1.
         21   -1    0    0  501  503 -0.00000000000E+00 -0.00000000000E+00 -0.10707570587E+04  0.10707570587E+04  0.00000000000E+00 0. -1.
          6    1    1    2  501    0 -0.23261915282E+02 -0.40791122416E+02 -0.65789111556E+03  0.68162288129E+03  0.17200000000E+03 0. -1.
         -6    1    1    2    0  502  0.23261915282E+02  0.40791122416E+02 -0.38118146457E+03  0.42081865608E+03  0.17200000000E+03 0. -1.
<mgrwt>
<rscale>  2 0.17829479E+03</rscale>
<asrwt>0</asrwt>
<pdfrwt beam="1">  1       21 0.79211201E-02 0.17829479E+03</pdfrwt>
<pdfrwt beam="2">  1       21 0.26768925E+00 0.17829479E+03</pdfrwt>
<totfact> 0.65012139E+03</totfact>
</mgrwt>
</event>
<event>
 4    1  0.2299148E-001  0.2183803E+03  0.7546771E-02  0.1135096E+00
         21   -1    0    0  503  502  0.00000000000E+00  0.00000000000E+00  0.90866325318E+02  0.90866325318E+02  0.00000000000E+00 0. -1.
         21   -1    0    0  501  503 -0.00000000000E+00 -0.00000000000E+00 -0.66682024997E+03  0.66682024997E+03  0.00000000000E+00 0.  1.
          6    1    1    2  501    0 -0.61041975739E+02 -0.11991601197E+03 -0.46279022703E+03  0.51172723883E+03  0.17200000000E+03 0.  1.
         -6    1    1    2    0  502  0.61041975739E+02  0.11991601197E+03 -0.11316369762E+03  0.24595933645E+03  0.17200000000E+03 0. -1.
<mgrwt>
<rscale>  2 0.21838034E+03</rscale>
<asrwt>0</asrwt>
<pdfrwt beam="1">  1       21 0.22716582E-01 0.21838034E+03</pdfrwt>
<pdfrwt beam="2">  1       21 0.16670506E+00 0.21838034E+03</pdfrwt>
<totfact> 0.40011476E+03</totfact>
</mgrwt>
</event>
<event>
 4    1  0.2299148E-001  0.1896924E+03  0.7546771E-02  0.1158739E+00
         21   -1    0    0  501  502  0.00000000000E+00  0.00000000000E+00  0.49514677597E+03  0.49514677597E+03  0.00000000000E+00 0.  1.
         21   -1    0    0  502  503 -0.00000000000E+00 -0.00000000000E+00 -0.74063209983E+02  0.74063209983E+02  0.00000000000E+00 0.  1.
          6    1    1    2  501    0  0.11690251340E+02 -0.79136183313E+02  0.24955142413E+03  0.31346309316E+03  0.17200000000E+03 0.  1.
         -6    1    1    2    0  503 -0.11690251340E+02  0.79136183313E+02  0.17153214186E+03  0.25574689280E+03  0.17200000000E+03 0.  1.
<mgrwt>
<rscale>  2 0.18969238E+03</rscale>
<asrwt>0</asrwt>
<pdfrwt beam="1">  1       21 0.12378668E+00 0.18969238E+03</pdfrwt>
<pdfrwt beam="2">  1       21 0.18515804E-01 0.18969238E+03</pdfrwt>
<totfact> 0.13050963E+04</totfact>
</mgrwt>
</event>
<event>
 4    1  0.2299148E-001  0.1735800E+03  0.7546771E-02  0.1174165E+00
         21   -1    0    0  501  502  0.00000000000E+00  0.00000000000E+00  0.27700724366E+03  0.27700724366E+03  0.00000000000E+00 0.  1.
         21   -1    0    0  502  503 -0.00000000000E+00 -0.00000000000E+00 -0.11046949804E+03  0.11046949804E+03  0.00000000000E+00 0.  1.
          6    1    1    2  501    0  0.19743195592E+02 -0.12498436926E+02  0.10730079706E+03  0.20406730690E+03  0.17200000000E+03 0.  1.
         -6    1    1    2    0  503 -0.19743195592E+02  0.12498436926E+02  0.59236948566E+02  0.18340943480E+03  0.17200000000E+03 0.  1.
<mgrwt>
<rscale>  2 0.17357997E+03</rscale>
<asrwt>0</asrwt>
<pdfrwt beam="1">  1       21 0.69251810E-01 0.17357997E+03</pdfrwt>
<pdfrwt beam="2">  1       21 0.27617375E-01 0.17357997E+03</pdfrwt>
<totfact> 0.24004700E+04</totfact>
</mgrwt>
</event>
<event>
 4    1  0.2299148E-001  0.2055573E+03  0.7546771E-02  0.1145133E+00
         21   -1    0    0  501  502  0.00000000000E+00  0.00000000000E+00  0.95199364715E+02  0.95199364715E+02  0.00000000000E+00 0. -1.
         21   -1    0    0  502  503 -0.00000000000E+00 -0.00000000000E+00 -0.55090524255E+03  0.55090524255E+03  0.00000000000E+00 0. -1.
          6    1    1    2  501    0  0.10324842614E+03  0.44828199202E+02 -0.85440610587E+02  0.22260705937E+03  0.17200000000E+03 0. -1.
         -6    1    1    2    0  503 -0.10324842614E+03 -0.44828199202E+02 -0.37026526725E+03  0.42349754789E+03  0.17200000000E+03 0. -1.
<mgrwt>
<rscale>  2 0.20555730E+03</rscale>
<asrwt>0</asrwt>
<pdfrwt beam="1">  1       21 0.23799842E-01 0.20555730E+03</pdfrwt>
<pdfrwt beam="2">  1       21 0.13772631E+00 0.20555730E+03</pdfrwt>
<totfact> 0.61456768E+03</totfact>
</mgrwt>
</event>
<event>
 4    1  0.2299148E-001  0.1855893E+03  0.7546771E-02  0.1162501E+00
         21   -1    0    0  501  502  0.00000000000E+00  0.00000000000E+00  0.43876921342E+03  0.43876921342E+03  0.00000000000E+00 0. -1.
         21   -1    0    0  502  503 -0.00000000000E+00 -0.00000000000E+00 -0.82964250052E+02  0.82964250052E+02  0.00000000000E+00 0. -1.
          6    1    1    2  501    0 -0.62667348361E+02  0.30531805208E+02  0.23841524240E+03  0.30213443281E+03  0.17200000000E+03 0. -1.
         -6    1    1    2    0  503  0.62667348361E+02 -0.30531805208E+02  0.11738972097E+03  0.21959903067E+03  0.17200000000E+03 0. -1.
<mgrwt>
<rscale>  2 0.18558930E+03</rscale>
<asrwt>0</asrwt>
<pdfrwt beam="1">  1       21 0.10969230E+00 0.18558930E+03</pdfrwt>
<pdfrwt beam="2">  1       21 0.20741064E-01 0.18558930E+03</pdfrwt>
<totfact> 0.14246255E+04</totfact>
</mgrwt>
</event>
<event>
 4    1  0.2299148E-001  0.1788783E+03  0.7546771E-02  0.1168893E+00
         21   -1    0    0  501  502  0.00000000000E+00  0.00000000000E+00  0.44756381787E+02  0.44756381787E+02  0.00000000000E+00 0. -1.
         21   -1    0    0  502  503 -0.00000000000E+00 -0.00000000000E+00 -0.75478167542E+03  0.75478167542E+03  0.00000000000E+00 0. -1.
          6    1    1    2  501    0 -0.57154609581E+01 -0.48793218195E+02 -0.26314757485E+03  0.31818876596E+03  0.17200000000E+03 0. -1.
         -6    1    1    2    0  503  0.57154609581E+01  0.48793218195E+02 -0.44687771878E+03  0.48134929124E+03  0.17200000000E+03 0. -1.
<mgrwt>
<rscale>  2 0.17887830E+03</rscale>
<asrwt>0</asrwt>
<pdfrwt beam="1">  1       21 0.11189096E-01 0.17887830E+03</pdfrwt>
<pdfrwt beam="2">  1       21 0.18869542E+00 0.17887830E+03</pdfrwt>
<totfact> 0.10699105E+04</totfact>
</mgrwt>
</event>
<event>
 4    1  0.2299148E-001  0.1939566E+03  0.7546771E-02  0.1154940E+00
         21   -1    0    0  501  502  0.00000000000E+00  0.00000000000E+00  0.44190293313E+02  0.44190293313E+02  0.00000000000E+00 0. -1.
         21   -1    0    0  502  503 -0.00000000000E+00 -0.00000000000E+00 -0.85215551754E+03  0.85215551754E+03  0.00000000000E+00 0. -1.
          6    1    1    2  501    0  0.14198828212E+02 -0.88507287638E+02 -0.38977282132E+03  0.43536421411E+03  0.17200000000E+03 0. -1.
         -6    1    1    2    0  503 -0.14198828212E+02  0.88507287638E+02 -0.41819240291E+03  0.46098159675E+03  0.17200000000E+03 0. -1.
<mgrwt>
<rscale>  2 0.19395656E+03</rscale>
<asrwt>0</asrwt>
<pdfrwt beam="1">  1       21 0.11047574E-01 0.19395656E+03</pdfrwt>
<pdfrwt beam="2">  1       21 0.21303887E+00 0.19395656E+03</pdfrwt>
<totfact> 0.75454766E+03</totfact>
</mgrwt>
</event>
<event>
 4    1  0.2299148E-001  0.2406989E+03  0.7546771E-02  0.1119328E+00
         21   -1    0    0  503  502  0.00000000000E+00  0.00000000000E+00  0.90340812374E+02  0.90340812374E+02  0.00000000000E+00 0.  1.
         21   -1    0    0  501  503 -0.00000000000E+00 -0.00000000000E+00 -0.68507836343E+03  0.68507836343E+03  0.00000000000E+00 0. -1.
          6    1    1    2  501    0 -0.98568941896E+01  0.16809160845E+03 -0.39537306399E+03  0.46287774512E+03  0.17200000000E+03 0. -1.
         -6    1    1    2    0  502  0.98568941896E+01 -0.16809160845E+03 -0.19936448706E+03  0.31254143069E+03  0.17200000000E+03 0.  1.
<mgrwt>
<rscale>  2 0.24069887E+03</rscale>
<asrwt>0</asrwt>
<pdfrwt beam="1">  1       21 0.22585203E-01 0.24069887E+03</pdfrwt>
<pdfrwt beam="2">  1       21 0.17126959E+00 0.24069887E+03</pdfrwt>
<totfact> 0.36892164E+03</totfact>
</mgrwt>
</event>
<event>
 4    1  0.2299148E-001  0.2005334E+03  0.7546771E-02  0.1149290E+00
         21   -1    0    0  503  502  0.00000000000E+00  0.00000000000E+00  0.10521561702E+04  0.10521561702E+04  0.00000000000E+00 0.  1.
         21   -1    0    0  501  503 -0.00000000000E+00 -0.00000000000E+00 -0.41869555303E+02  0.41869555303E+02  0.00000000000E+00 0. -1.
          6    1    1    2  501    0  0.18347301037E+02 -0.10145451584E+03  0.34364977323E+03  0.39788039519E+03  0.17200000000E+03 0.  1.
         -6    1    1    2    0  502 -0.18347301037E+02  0.10145451584E+03  0.66663684166E+03  0.69614533030E+03  0.17200000000E+03 0.  1.
<mgrwt>
<rscale>  2 0.20053339E+03</rscale>
<asrwt>0</asrwt>
<pdfrwt beam="1">  1       21 0.26303896E+00 0.20053339E+03</pdfrwt>
<pdfrwt beam="2">  1       21 0.10467392E-01 0.20053339E+03</pdfrwt>
<totfact> 0.41402807E+03</totfact>
</mgrwt>
</event>
<event>
 4    1  0.2299148E-001  0.2923091E+03  0.7546771E-02  0.1089150E+00
         21   -1    0    0  503  502  0.00000000000E+00  0.00000000000E+00  0.16667867233E+04  0.16667867233E+04  0.00000000000E+00 0.  1.
         21   -1    0    0  501  503 -0.00000000000E+00 -0.00000000000E+00 -0.58311258787E+02  0.58311258787E+02  0.00000000000E+00 0.  1.
          6    1    1    2  501    0  0.58798180145E+02  0.22891782228E+03  0.50435842712E+03  0.58294255151E+03  0.17200000000E+03 0.  1.
         -6    1    1    2    0  502 -0.58798180145E+02 -0.22891782228E+03  0.11041170374E+04  0.11421554306E+04  0.17200000000E+03 0.  1.
<mgrwt>
<rscale>  2 0.29230908E+03</rscale>
<asrwt>0</asrwt>
<pdfrwt beam="1">  1       21 0.41669652E+00 0.29230908E+03</pdfrwt>
<pdfrwt beam="2">  1       21 0.14577820E-01 0.29230908E+03</pdfrwt>
<totfact> 0.24646972E+02</totfact>
</mgrwt>
</event>
<event>
 4    1  0.2299148E-001  0.2770838E+03  0.7546771E-02  0.1097292E+00
         21   -1    0    0  501  502  0.00000000000E+00  0.00000000000E+00  0.21824104630E+03  0.21824104630E+03  0.00000000000E+00 0. -1.
         21   -1    0    0  502  503 -0.00000000000E+00 -0.00000000000E+00 -0.36051038093E+03  0.36051038093E+03  0.00000000000E+00 0. -1.
          6    1    1    2  501    0  0.73925984924E+02  0.20427036809E+03 -0.26133544164E+02  0.27831348630E+03  0.17200000000E+03 0. -1.
         -6    1    1    2    0  503 -0.73925984924E+02 -0.20427036809E+03 -0.11613579046E+03  0.30043794093E+03  0.17200000000E+03 0. -1.
<mgrwt>
<rscale>  2 0.27708380E+03</rscale>
<asrwt>0</asrwt>
<pdfrwt beam="1">  1       21 0.54560262E-01 0.27708380E+03</pdfrwt>
<pdfrwt beam="2">  1       21 0.90127595E-01 0.27708380E+03</pdfrwt>
<totfact> 0.31265874E+03</totfact>
</mgrwt>
</event>
<event>
 4    1  0.2299148E-001  0.2516776E+03  0.7546771E-02  0.1112249E+00
         21   -1    0    0  503  502  0.00000000000E+00  0.00000000000E+00  0.55324774936E+02  0.55324774936E+02  0.00000000000E+00 0. -1.
         21   -1    0    0  501  503 -0.00000000000E+00 -0.00000000000E+00 -0.11849261664E+04  0.11849261664E+04  0.00000000000E+00 0.  1.
          6    1    1    2  501    0  0.17823089407E+03 -0.44624860865E+02 -0.45083425247E+03  0.51632659529E+03  0.17200000000E+03 0. -1.
         -6    1    1    2    0  502 -0.17823089407E+03  0.44624860865E+02 -0.67876713898E+03  0.72392434602E+03  0.17200000000E+03 0.  1.
<mgrwt>
<rscale>  2 0.25167763E+03</rscale>
<asrwt>0</asrwt>
<pdfrwt beam="1">  1       21 0.13831194E-01 0.25167763E+03</pdfrwt>
<pdfrwt beam="2">  1       21 0.29623154E+00 0.25167763E+03</pdfrwt>
<totfact> 0.15255495E+03</totfact>
</mgrwt>
</event>
<event>
 4    1  0.2299148E-001  0.1834872E+03  0.7546771E-02  0.1164470E+00
         21   -1    0    0  503  502  0.00000000000E+00  0.00000000000E+00  0.12795514635E+04  0.12795514635E+04  0.00000000000E+00 0. -1.
         21   -1    0    0  501  503 -0.00000000000E+00 -0.00000000000E+00 -0.29358049458E+02  0.29358049458E+02  0.00000000000E+00 0. -1.
          6    1    1    2  501    0  0.50183953614E+02 -0.39561429035E+02  0.83590405463E+03  0.85580554124E+03  0.17200000000E+03 0.  1.
         -6    1    1    2    0  502 -0.50183953614E+02  0.39561429035E+02  0.41428935944E+03  0.45310397175E+03  0.17200000000E+03 0.  1.
<mgrwt>
<rscale>  2 0.18348715E+03</rscale>
<asrwt>0</asrwt>
<pdfrwt beam="1">  1       21 0.31988768E+00 0.18348715E+03</pdfrwt>
<pdfrwt beam="2">  1       21 0.73395167E-02 0.18348715E+03</pdfrwt>
<totfact> 0.36961672E+03</totfact>
</mgrwt>
</event>
<event>
 4    1  0.2299148E-001  0.2035113E+03  0.7546771E-02  0.1146810E+00
         21   -1    0    0  503  502  0.00000000000E+00  0.00000000000E+00  0.25296081562E+03  0.25296081562E+03  0.00000000000E+00 0.  1.
         21   -1    0    0  501  503 -0.00000000000E+00 -0.00000000000E+00 -0.16519409044E+03  0.16519409044E+03  0.00000000000E+00 0.  1.
          6    1    1    2  501    0 -0.31881339777E+02  0.10400198540E+03  0.63578210560E+02  0.21321121371E+03  0.17200000000E+03 0. -1.
         -6    1    1    2    0  502  0.31881339777E+02 -0.10400198540E+03  0.24188514622E+02  0.20494369235E+03  0.17200000000E+03 0. -1.
<mgrwt>
<rscale>  2 0.20351126E+03</rscale>
<asrwt>0</asrwt>
<pdfrwt beam="1">  1       21 0.63240203E-01 0.20351126E+03</pdfrwt>
<pdfrwt beam="2">  1       21 0.41298523E-01 0.20351126E+03</pdfrwt>
<totfact> 0.12968736E+04</totfact>
</mgrwt>
</event>
<event>
 4    1  0.2299148E-001  0.1821689E+03  0.7546771E-02  0.1165720E+00
         21   -1    0    0  503  502  0.00000000000E+00  0.00000000000E+00  0.34664018772E+03  0.34664018772E+03  0.00000000000E+00 0. -1.
         21   -1    0    0  501  503 -0.00000000000E+00 -0.00000000000E+00 -0.97354337278E+02  0.97354337278E+02  0.00000000000E+00 0. -1.
          6    1    1    2  501    0  0.42160435614E+02 -0.42708238212E+02  0.96009174210E+02  0.20592051252E+03  0.17200000000E+03 0. -1.
         -6    1    1    2    0  502 -0.42160435614E+02  0.42708238212E+02  0.15327667623E+03  0.23807401248E+03  0.17200000000E+03 0. -1.
<mgrwt>
<rscale>  2 0.18216887E+03</rscale>
<asrwt>0</asrwt>
<pdfrwt beam="1">  1       21 0.86660044E-01 0.18216887E+03</pdfrwt>
<pdfrwt beam="2">  1       21 0.24338585E-01 0.18216887E+03</pdfrwt>
<totfact> 0.18392046E+04</totfact>
</mgrwt>
</event>
<event>
 4    1  0.2299148E-001  0.1765390E+03  0.7546771E-02  0.1171195E+00
         21   -1    0    0  501  502  0.00000000000E+00  0.00000000000E+00  0.15266925864E+03  0.15266925864E+03  0.00000000000E+00 0. -1.
         21   -1    0    0  502  503 -0.00000000000E+00 -0.00000000000E+00 -0.24558540145E+03  0.24558540145E+03  0.00000000000E+00 0. -1.
          6    1    1    2  501    0  0.73247725406E+01  0.39094368305E+02  0.35343881600E+02  0.18004225030E+03  0.17200000000E+03 0. -1.
         -6    1    1    2    0  503 -0.73247725406E+01 -0.39094368305E+02 -0.12826002440E+03  0.21821240979E+03  0.17200000000E+03 0. -1.
<mgrwt>
<rscale>  2 0.17653901E+03</rscale>
<asrwt>0</asrwt>
<pdfrwt beam="1">  1       21 0.38167315E-01 0.17653901E+03</pdfrwt>
<pdfrwt beam="2">  1       21 0.61396350E-01 0.17653901E+03</pdfrwt>
<totfact> 0.16491797E+04</totfact>
</mgrwt>
</event>
<event>
 4    1  0.2299148E-001  0.2713047E+03  0.7546771E-02  0.1100535E+00
         21   -1    0    0  503  502  0.00000000000E+00  0.00000000000E+00  0.78328075085E+02  0.78328075085E+02  0.00000000000E+00 0.  1.
         21   -1    0    0  501  503 -0.00000000000E+00 -0.00000000000E+00 -0.94256791482E+03  0.94256791482E+03  0.00000000000E+00 0. -1.
          6    1    1    2  501    0 -0.20852078552E+03  0.23266898151E+02 -0.40404970969E+03  0.48668514919E+03  0.17200000000E+03 0.  1.
         -6    1    1    2    0  502  0.20852078552E+03 -0.23266898151E+02 -0.46019013004E+03  0.53421084071E+03  0.17200000000E+03 0. -1.
<mgrwt>
<rscale>  2 0.27130475E+03</rscale>
<asrwt>0</asrwt>
<pdfrwt beam="1">  1       21 0.19582019E-01 0.27130475E+03</pdfrwt>
<pdfrwt beam="2">  1       21 0.23564198E+00 0.27130475E+03</pdfrwt>
<totfact> 0.18015651E+03</totfact>
</mgrwt>
</event>
<event>
 4    1  0.2299148E-001  0.1834400E+03  0.7546771E-02  0.1164515E+00
         21   -1    0    0  503  502  0.00000000000E+00  0.00000000000E+00  0.12666728767E+03  0.12666728767E+03  0.00000000000E+00 0. -1.
         21   -1    0    0  501  503 -0.00000000000E+00 -0.00000000000E+00 -0.28333909776E+03  0.28333909776E+03  0.00000000000E+00 0.  1.
          6    1    1    2  501    0  0.46095000723E+02  0.44062257869E+02 -0.27125665044E+02  0.18543471456E+03  0.17200000000E+03 0. -1.
         -6    1    1    2    0  502 -0.46095000723E+02 -0.44062257869E+02 -0.12954614504E+03  0.22457167087E+03  0.17200000000E+03 0.  1.
<mgrwt>
<rscale>  2 0.18343999E+03</rscale>
<asrwt>0</asrwt>
<pdfrwt beam="1">  1       21 0.31666822E-01 0.18343999E+03</pdfrwt>
<pdfrwt beam="2">  1       21 0.70834774E-01 0.18343999E+03</pdfrwt>
<totfact> 0.17403970E+04</totfact>
</mgrwt>
</event>
<event>
 4    1  0.2299148E-001  0.1932666E+03  0.7546771E-02  0.1155548E+00
         21   -1    0    0  503  502  0.00000000000E+00  0.00000000000E+00  0.52990597861E+03  0.52990597861E+03  0.00000000000E+00 0.  1.
         21   -1    0    0  501  503 -0.00000000000E+00 -0.00000000000E+00 -0.72627725093E+02  0.72627725093E+02  0.00000000000E+00 0.  1.
          6    1    1    2  501    0  0.55512516526E+02 -0.68456972459E+02  0.17692821533E+03  0.26202211729E+03  0.17200000000E+03 0.  1.
         -6    1    1    2    0  502 -0.55512516526E+02  0.68456972459E+02  0.28035003819E+03  0.34051158642E+03  0.17200000000E+03 0.  1.
<mgrwt>
<rscale>  2 0.19326665E+03</rscale>
<asrwt>0</asrwt>
<pdfrwt beam="1">  1       21 0.13247648E+00 0.19326665E+03</pdfrwt>
<pdfrwt beam="2">  1       21 0.18156933E-01 0.19326665E+03</pdfrwt>
<totfact> 0.11381721E+04</totfact>
</mgrwt>
</event>
<event>
 4    1  0.2299148E-001  0.2085052E+03  0.7546771E-02  0.1142755E+00
         21   -1    0    0  501  502  0.00000000000E+00  0.00000000000E+00  0.32113065137E+03  0.32113065137E+03  0.00000000000E+00 0. -1.
         21   -1    0    0  502  503 -0.00000000000E+00 -0.00000000000E+00 -0.14461065110E+03  0.14461065110E+03  0.00000000000E+00 0. -1.
          6    1    1    2  501    0  0.81392542012E+02 -0.85238910986E+02  0.29423195443E+02  0.21057099105E+03  0.17200000000E+03 0. -1.
         -6    1    1    2    0  503 -0.81392542012E+02  0.85238910986E+02  0.14709680483E+03  0.25517031143E+03  0.17200000000E+03 0. -1.
<mgrwt>
<rscale>  2 0.20850520E+03</rscale>
<asrwt>0</asrwt>
<pdfrwt beam="1">  1       21 0.80282662E-01 0.20850520E+03</pdfrwt>
<pdfrwt beam="2">  1       21 0.36152663E-01 0.20850520E+03</pdfrwt>
<totfact> 0.99578954E+03</totfact>
</mgrwt>
</event>
<event>
 4    1  0.2299148E-001  0.2934666E+03  0.7546771E-02  0.1088553E+00
         21   -1    0    0  501  502  0.00000000000E+00  0.00000000000E+00  0.77536394078E+02  0.77536394078E+02  0.00000000000E+00 0.  1.
         21   -1    0    0  502  503 -0.00000000000E+00 -0.00000000000E+00 -0.11195075030E+04  0.11195075030E+04  0.00000000000E+00 0.  1.
          6    1    1    2  501    0 -0.21800042344E+03 -0.94944633931E+02 -0.57395659050E+03  0.64463077487E+03  0.17200000000E+03 0.  1.
         -6    1    1    2    0  503  0.21800042344E+03  0.94944633931E+02 -0.46801451843E+03  0.55241312222E+03  0.17200000000E+03 0.  1.
<mgrwt>
<rscale>  2 0.29346664E+03</rscale>
<asrwt>0</asrwt>
<pdfrwt beam="1">  1       21 0.19384098E-01 0.29346664E+03</pdfrwt>
<pdfrwt beam="2">  1       21 0.27987688E+00 0.29346664E+03</pdfrwt>
<totfact> 0.98129684E+02</totfact>
</mgrwt>
</event>
<event>
 4    1  0.2299148E-001  0.2439673E+03  0.7546771E-02  0.1117178E+00
         21   -1    0    0  503  502  0.00000000000E+00  0.00000000000E+00  0.21922190371E+03  0.21922190371E+03  0.00000000000E+00 0.  1.
         21   -1    0    0  501  503 -0.00000000000E+00 -0.00000000000E+00 -0.31808541931E+03  0.31808541931E+03  0.00000000000E+00 0. -1.
          6    1    1    2  501    0  0.16691519552E+03 -0.45556332636E+02 -0.15223763033E+03  0.28756974463E+03  0.17200000000E+03 0. -1.
         -6    1    1    2    0  502 -0.16691519552E+03  0.45556332636E+02  0.53374114733E+02  0.24973757839E+03  0.17200000000E+03 0.  1.
<mgrwt>
<rscale>  2 0.24396734E+03</rscale>
<asrwt>0</asrwt>
<pdfrwt beam="1">  1       21 0.54805477E-01 0.24396734E+03</pdfrwt>
<pdfrwt beam="2">  1       21 0.79521354E-01 0.24396734E+03</pdfrwt>
<totfact> 0.42193782E+03</totfact>
</mgrwt>
</event>
<event>
 4    1  0.2299148E-001  0.1862962E+03  0.7546771E-02  0.1161845E+00
         21   -1    0    0  503  502  0.00000000000E+00  0.00000000000E+00  0.47985212506E+03  0.47985212506E+03  0.00000000000E+00 0.  1.
         21   -1    0    0  501  503 -0.00000000000E+00 -0.00000000000E+00 -0.87131867893E+02  0.87131867893E+02  0.00000000000E+00 0.  1.
          6    1    1    2  501    0  0.70488030087E+02 -0.12398759507E+02  0.79503397315E+02  0.20255143003E+03  0.17200000000E+03 0.  1.
         -6    1    1    2    0  502 -0.70488030087E+02  0.12398759507E+02  0.31321685986E+03  0.36443256293E+03  0.17200000000E+03 0.  1.
<mgrwt>
<rscale>  2 0.18629625E+03</rscale>
<asrwt>0</asrwt>
<pdfrwt beam="1">  1       21 0.11996302E+00 0.18629625E+03</pdfrwt>
<pdfrwt beam="2">  1       21 0.21782968E-01 0.18629625E+03</pdfrwt>
<totfact> 0.10441572E+04</totfact>
</mgrwt>
</event>
<event>
 4    1  0.2299148E-001  0.1883779E+03  0.7546771E-02  0.1159933E+00
         21   -1    0    0  503  502  0.00000000000E+00  0.00000000000E+00  0.24215775789E+03  0.24215775789E+03  0.00000000000E+00 0. -1.
         21   -1    0    0  501  503 -0.00000000000E+00 -0.00000000000E+00 -0.19371397926E+03  0.19371397926E+03  0.00000000000E+00 0. -1.
          6    1    1    2  501    0 -0.33473201523E+02 -0.69150467597E+02 -0.83323312245E+02  0.20598304967E+03  0.17200000000E+03 0. -1.
         -6    1    1    2    0  502  0.33473201523E+02  0.69150467597E+02  0.13176709087E+03  0.22988868747E+03  0.17200000000E+03 0. -1.
<mgrwt>
<rscale>  2 0.18837792E+03</rscale>
<asrwt>0</asrwt>
<pdfrwt beam="1">  1       21 0.60539439E-01 0.18837792E+03</pdfrwt>
<pdfrwt beam="2">  1       21 0.48428495E-01 0.18837792E+03</pdfrwt>
<totfact> 0.10381046E+04</totfact>
</mgrwt>
</event>
<event>
 4    1  0.2299148E-001  0.1832410E+03  0.7546771E-02  0.1164703E+00
         21   -1    0    0  503  502  0.00000000000E+00  0.00000000000E+00  0.35118959348E+02  0.35118959348E+02  0.00000000000E+00 0.  1.
         21   -1    0    0  501  503 -0.00000000000E+00 -0.00000000000E+00 -0.99126757810E+03  0.99126757810E+03  0.00000000000E+00 0.  1.
          6    1    1    2  501    0 -0.31081545324E+02 -0.55019865914E+02 -0.57473608841E+03  0.60324026675E+03  0.17200000000E+03 0. -1.
         -6    1    1    2    0  502  0.31081545324E+02  0.55019865914E+02 -0.38141253034E+03  0.42314627069E+03  0.17200000000E+03 0. -1.
<mgrwt>
<rscale>  2 0.18324096E+03</rscale>
<asrwt>0</asrwt>
<pdfrwt beam="1">  1       21 0.87797399E-02 0.18324096E+03</pdfrwt>
<pdfrwt beam="2">  1       21 0.24781689E+00 0.18324096E+03</pdfrwt>
<totfact> 0.70542172E+03</totfact>
</mgrwt>
</event>
<event>
 4    1  0.2299148E-001  0.3393823E+03  0.7546771E-02  0.1067059E+00
         21   -1    0    0  501  502  0.00000000000E+00  0.00000000000E+00  0.44428607263E+03  0.44428607263E+03  0.00000000000E+00 0.  1.
         21   -1    0    0  502  503 -0.00000000000E+00 -0.00000000000E+00 -0.57362050282E+03  0.57362050282E+03  0.00000000000E+00 0. -1.
          6    1    1    2  501    0 -0.86164390551E+01 -0.29244158953E+03  0.31211273908E+03  0.46107991520E+03  0.17200000000E+03 0.  1.
         -6    1    1    2    0  503  0.86164390551E+01  0.29244158953E+03 -0.44144716927E+03  0.55682666024E+03  0.17200000000E+03 0. -1.
<mgrwt>
<rscale>  2 0.33938227E+03</rscale>
<asrwt>0</asrwt>
<pdfrwt beam="1">  1       21 0.11107152E+00 0.33938227E+03</pdfrwt>
<pdfrwt beam="2">  1       21 0.14340513E+00 0.33938227E+03</pdfrwt>
<totfact> 0.18665532E+02</totfact>
</mgrwt>
</event>
<event>
 4    1  0.2299148E-001  0.1724230E+03  0.7546771E-02  0.1175344E+00
         21   -1    0    0  501  502  0.00000000000E+00  0.00000000000E+00  0.23773952817E+02  0.23773952817E+02  0.00000000000E+00 0. -1.
         21   -1    0    0  502  503 -0.00000000000E+00 -0.00000000000E+00 -0.13052921887E+04  0.13052921887E+04  0.00000000000E+00 0. -1.
          6    1    1    2  501    0  0.56695284119E+01  0.10656120325E+02 -0.50462699296E+03  0.53327113036E+03  0.17200000000E+03 0. -1.
         -6    1    1    2    0  503 -0.56695284119E+01 -0.10656120325E+02 -0.77689124295E+03  0.79579501119E+03  0.17200000000E+03 0. -1.
<mgrwt>
<rscale>  2 0.17242302E+03</rscale>
<asrwt>0</asrwt>
<pdfrwt beam="1">  1       21 0.59434888E-02 0.17242302E+03</pdfrwt>
<pdfrwt beam="2">  1       21 0.32632301E+00 0.17242302E+03</pdfrwt>
<totfact> 0.49477945E+03</totfact>
</mgrwt>
</event>
<event>
 4    1  0.2299148E-001  0.2457402E+03  0.7546771E-02  0.1116027E+00
         21   -1    0    0  503  502  0.00000000000E+00  0.00000000000E+00  0.93142320227E+02  0.93142320227E+02  0.00000000000E+00 0. -1.
         21   -1    0    0  501  503 -0.00000000000E+00 -0.00000000000E+00 -0.64886623438E+03  0.64886623438E+03  0.00000000000E+00 0. -1.
          6    1    1    2  501    0 -0.12051116685E+03 -0.12759812217E+03 -0.26733208642E+03  0.36311797882E+03  0.17200000000E+03 0. -1.
         -6    1    1    2    0  502  0.12051116685E+03  0.12759812217E+03 -0.28839182773E+03  0.37889057579E+03  0.17200000000E+03 0. -1.
<mgrwt>
<rscale>  2 0.24574015E+03</rscale>
<asrwt>0</asrwt>
<pdfrwt beam="1">  1       21 0.23285580E-01 0.24574015E+03</pdfrwt>
<pdfrwt beam="2">  1       21 0.16221656E+00 0.24574015E+03</pdfrwt>
<totfact> 0.40291467E+03</totfact>
</mgrwt>
</event>
<event>
 4    1  0.2299148E-001  0.1922461E+03  0.7546771E-02  0.1156451E+00
         21   -1    0    0  501  502  0.00000000000E+00  0.00000000000E+00  0.11147314281E+03  0.11147314281E+03  0.00000000000E+00 0.  1.
         21   -1    0    0  502  503 -0.00000000000E+00 -0.00000000000E+00 -0.59539817792E+03  0.59539817792E+03  0.00000000000E+00 0.  1.
          6    1    1    2  501    0 -0.21508471920E+02 -0.83138084770E+02 -0.66817870551E+01  0.19236216307E+03  0.17200000000E+03 0.  1.
         -6    1    1    2    0  503  0.21508471920E+02  0.83138084770E+02 -0.47724324806E+03  0.51450915766E+03  0.17200000000E+03 0.  1.
<mgrwt>
<rscale>  2 0.19224608E+03</rscale>
<asrwt>0</asrwt>
<pdfrwt beam="1">  1       21 0.27868286E-01 0.19224608E+03</pdfrwt>
<pdfrwt beam="2">  1       21 0.14884954E+00 0.19224608E+03</pdfrwt>
<totfact> 0.37516910E+03</totfact>
</mgrwt>
</event>
<event>
 4    1  0.2299148E-001  0.1865440E+03  0.7546771E-02  0.1161616E+00
         21   -1    0    0  503  502  0.00000000000E+00  0.00000000000E+00  0.47518431785E+03  0.47518431785E+03  0.00000000000E+00 0. -1.
         21   -1    0    0  501  503 -0.00000000000E+00 -0.00000000000E+00 -0.12647578184E+03  0.12647578184E+03  0.00000000000E+00 0. -1.
          6    1    1    2  501    0  0.61208119031E+02 -0.38317533685E+02 -0.20833339498E+02  0.18770374332E+03  0.17200000000E+03 0. -1.
         -6    1    1    2    0  502 -0.61208119031E+02  0.38317533685E+02  0.36954187551E+03  0.41395635637E+03  0.17200000000E+03 0. -1.
<mgrwt>
<rscale>  2 0.18654401E+03</rscale>
<asrwt>0</asrwt>
<pdfrwt beam="1">  1       21 0.11879608E+00 0.18654401E+03</pdfrwt>
<pdfrwt beam="2">  1       21 0.31618947E-01 0.18654401E+03</pdfrwt>
<totfact> 0.52322180E+03</totfact>
</mgrwt>
</event>
<event>
 4    1  0.2299148E-001  0.2668513E+03  0.7546771E-02  0.1103095E+00
         21   -1    0    0  503  502  0.00000000000E+00  0.00000000000E+00  0.12559479031E+03  0.12559479031E+03  0.00000000000E+00 0. -1.
         21   -1    0    0  501  503 -0.00000000000E+00 -0.00000000000E+00 -0.57195654808E+03  0.57195654808E+03  0.00000000000E+00 0. -1.
          6    1    1    2  501    0 -0.19471977010E+03 -0.60908558686E+02 -0.19064511483E+03  0.32795609645E+03  0.17200000000E+03 0. -1.
         -6    1    1    2    0  502  0.19471977010E+03  0.60908558686E+02 -0.25571664295E+03  0.36959524195E+03  0.17200000000E+03 0. -1.
<mgrwt>
<rscale>  2 0.26685135E+03</rscale>
<asrwt>0</asrwt>
<pdfrwt beam="1">  1       21 0.31398698E-01 0.26685135E+03</pdfrwt>
<pdfrwt beam="2">  1       21 0.14298913E+00 0.26685135E+03</pdfrwt>
<totfact> 0.31186866E+03</totfact>
</mgrwt>
</event>
<event>
 4    1  0.2299148E-001  0.1977074E+03  0.7546771E-02  0.1151688E+00
         21   -1    0    0  503  502  0.00000000000E+00  0.00000000000E+00  0.95247105663E+03  0.95247105663E+03  0.00000000000E+00 0.  1.
         21   -1    0    0  501  503 -0.00000000000E+00 -0.00000000000E+00 -0.41094668091E+02  0.41094668091E+02  0.00000000000E+00 0. -1.
          6    1    1    2  501    0  0.89432787402E+02  0.38806955253E+02  0.43735978460E+03  0.47997060788E+03  0.17200000000E+03 0. -1.
         -6    1    1    2    0  502 -0.89432787402E+02 -0.38806955253E+02  0.47401660393E+03  0.51359511684E+03  0.17200000000E+03 0.  1.
<mgrwt>
<rscale>  2 0.19770737E+03</rscale>
<asrwt>0</asrwt>
<pdfrwt beam="1">  1       21 0.23811769E+00 0.19770737E+03</pdfrwt>
<pdfrwt beam="2">  1       21 0.10273670E-01 0.19770737E+03</pdfrwt>
<totfact> 0.60181545E+03</totfact>
</mgrwt>
</event>
<event>
 4    1  0.2299148E-001  0.1736882E+03  0.7546771E-02  0.1174055E+00
         21   -1    0    0  503  502  0.00000000000E+00  0.00000000000E+00  0.10621746717E+03  0.10621746717E+03  0.00000000000E+00 0.  1.
         21   -1    0    0  501  503 -0.00000000000E+00 -0.00000000000E+00 -0.30996598258E+03  0.30996598258E+03  0.00000000000E+00 0.  1.
          6    1    1    2  501    0 -0.17523134773E+02 -0.16629727353E+02 -0.16208232326E+03  0.23756743800E+03  0.17200000000E+03 0.  1.
         -6    1    1    2    0  502  0.17523134773E+02  0.16629727353E+02 -0.41666192146E+02  0.17861601175E+03  0.17200000000E+03 0.  1.
<mgrwt>
<rscale>  2 0.17368825E+03</rscale>
<asrwt>0</asrwt>
<pdfrwt beam="1">  1       21 0.26554367E-01 0.17368825E+03</pdfrwt>
<pdfrwt beam="2">  1       21 0.77491495E-01 0.17368825E+03</pdfrwt>
<totfact> 0.20173447E+04</totfact>
</mgrwt>
</event>
<event>
 4    1  0.2299148E-001  0.2964869E+03  0.7546771E-02  0.1087010E+00
         21   -1    0    0  503  502  0.00000000000E+00  0.00000000000E+00  0.38697426436E+03  0.38697426436E+03  0.00000000000E+00 0. -1.
         21   -1    0    0  501  503 -0.00000000000E+00 -0.00000000000E+00 -0.26527816513E+03  0.26527816513E+03  0.00000000000E+00 0. -1.
          6    1    1    2  501    0  0.14085680400E+02 -0.24108517046E+03  0.18447407372E+03  0.34919213864E+03  0.17200000000E+03 0. -1.
         -6    1    1    2    0  502 -0.14085680400E+02  0.24108517046E+03 -0.62777974494E+02  0.30306029085E+03  0.17200000000E+03 0. -1.
<mgrwt>
<rscale>  2 0.29648687E+03</rscale>
<asrwt>0</asrwt>
<pdfrwt beam="1">  1       21 0.96743566E-01 0.29648687E+03</pdfrwt>
<pdfrwt beam="2">  1       21 0.66319542E-01 0.29648687E+03</pdfrwt>
<totfact> 0.17120904E+03</totfact>
</mgrwt>
</event>
<event>
 4    1  0.2299148E-001  0.2240532E+03  0.7546771E-02  0.1130897E+00
         21   -1    0    0  503  502  0.00000000000E+00  0.00000000000E+00  0.12455105042E+03  0.12455105042E+03  0.00000000000E+00 0.  1.
         21   -1    0    0  501  503 -0.00000000000E+00 -0.00000000000E+00 -0.42098594470E+03  0.42098594470E+03  0.00000000000E+00 0.  1.
          6    1    1    2  501    0  0.12452146046E+03 -0.71486008932E+02 -0.20452504322E+03  0.30336502253E+03  0.17200000000E+03 0.  1.
         -6    1    1    2    0  502 -0.12452146046E+03  0.71486008932E+02 -0.91909851051E+02  0.24217197259E+03  0.17200000000E+03 0.  1.
<mgrwt>
<rscale>  2 0.22405322E+03</rscale>
<asrwt>0</asrwt>
<pdfrwt beam="1">  1       21 0.31137763E-01 0.22405322E+03</pdfrwt>
<pdfrwt beam="2">  1       21 0.10524648E+00 0.22405322E+03</pdfrwt>
<totfact> 0.70377790E+03</totfact>
</mgrwt>
</event>
<event>
 4    1  0.2299148E-001  0.2280137E+03  0.7546771E-02  0.1128046E+00
         21   -1    0    0  501  502  0.00000000000E+00  0.00000000000E+00  0.13033128955E+03  0.13033128955E+03  0.00000000000E+00 0. -1.
         21   -1    0    0  502  503 -0.00000000000E+00 -0.00000000000E+00 -0.41846985887E+03  0.41846985887E+03  0.00000000000E+00 0.  1.
          6    1    1    2  501    0 -0.35264524719E+02 -0.14547397721E+03 -0.20339622671E+03  0.30554916100E+03  0.17200000000E+03 0.  1.
         -6    1    1    2    0  503  0.35264524719E+02  0.14547397721E+03 -0.84742342604E+02  0.24325198741E+03  0.17200000000E+03 0. -1.
<mgrwt>
<rscale>  2 0.22801374E+03</rscale>
<asrwt>0</asrwt>
<pdfrwt beam="1">  1       21 0.32582823E-01 0.22801374E+03</pdfrwt>
<pdfrwt beam="2">  1       21 0.10461746E+00 0.22801374E+03</pdfrwt>
<totfact> 0.65123992E+03</totfact>
</mgrwt>
</event>
<event>
 4    1  0.2299148E-001  0.2230519E+03  0.7546771E-02  0.1131628E+00
         21   -1    0    0  503  502  0.00000000000E+00  0.00000000000E+00  0.21340508390E+03  0.21340508390E+03  0.00000000000E+00 0.  1.
         21   -1    0    0  501  503 -0.00000000000E+00 -0.00000000000E+00 -0.46800357109E+03  0.46800357109E+03  0.00000000000E+00 0.  1.
          6    1    1    2  501    0 -0.10669477146E+03  0.93725054306E+02 -0.36865944925E+03  0.43088507700E+03  0.17200000000E+03 0.  1.
         -6    1    1    2    0  502  0.10669477146E+03 -0.93725054306E+02  0.11406096206E+03  0.25052357799E+03  0.17200000000E+03 0.  1.
<mgrwt>
<rscale>  2 0.22305192E+03</rscale>
<asrwt>0</asrwt>
<pdfrwt beam="1">  1       21 0.53351271E-01 0.22305192E+03</pdfrwt>
<pdfrwt beam="2">  1       21 0.11700089E+00 0.22305192E+03</pdfrwt>
<totfact> 0.18195908E+03</totfact>
</mgrwt>
</event>
<event>
 4    1  0.2299148E-001  0.2056583E+03  0.7546771E-02  0.1145051E+00
         21   -1    0    0  501  502  0.00000000000E+00  0.00000000000E+00  0.72471510955E+03  0.72471510955E+03  0.00000000000E+00 0.  1.
         21   -1    0    0  502  503 -0.00000000000E+00 -0.00000000000E+00 -0.61147167054E+02  0.61147167054E+02  0.00000000000E+00 0. -1.
          6    1    1    2  501    0 -0.51595112691E+02  0.10024609858E+03  0.24791403413E+03  0.32211287502E+03  0.17200000000E+03 0. -1.
         -6    1    1    2    0  503  0.51595112691E+02 -0.10024609858E+03  0.41565390836E+03  0.46374940158E+03  0.17200000000E+03 0.  1.
<mgrwt>
<rscale>  2 0.20565830E+03</rscale>
<asrwt>0</asrwt>
<pdfrwt beam="1">  1       21 0.18117875E+00 0.20565830E+03</pdfrwt>
<pdfrwt beam="2">  1       21 0.15286794E-01 0.20565830E+03</pdfrwt>
<totfact> 0.66958360E+03</totfact>
</mgrwt>
</event>
<event>
 4    1  0.2299148E-001  0.1921775E+03  0.7546771E-02  0.1156512E+00
         21   -1    0    0  503  502  0.00000000000E+00  0.00000000000E+00  0.60324671428E+02  0.60324671428E+02  0.00000000000E+00 0.  1.
         21   -1    0    0  501  503 -0.00000000000E+00 -0.00000000000E+00 -0.82112284199E+03  0.82112284199E+03  0.00000000000E+00 0.  1.
          6    1    1    2  501    0 -0.10212121869E+02  0.85111169640E+02 -0.60269456673E+03  0.63259223786E+03  0.17200000000E+03 0.  1.
         -6    1    1    2    0  502  0.10212121869E+02 -0.85111169640E+02 -0.15810360383E+03  0.24885527556E+03  0.17200000000E+03 0.  1.
<mgrwt>
<rscale>  2 0.19217752E+03</rscale>
<asrwt>0</asrwt>
<pdfrwt beam="1">  1       21 0.15081168E-01 0.19217752E+03</pdfrwt>
<pdfrwt beam="2">  1       21 0.20528071E+00 0.19217752E+03</pdfrwt>
<totfact> 0.48289431E+03</totfact>
</mgrwt>
</event>
<event>
 4    1  0.2299148E-001  0.2357385E+03  0.7546771E-02  0.1122665E+00
         21   -1    0    0  501  502  0.00000000000E+00  0.00000000000E+00  0.39232359830E+02  0.39232359830E+02  0.00000000000E+00 0. -1.
         21   -1    0    0  502  503 -0.00000000000E+00 -0.00000000000E+00 -0.22174918401E+04  0.22174918401E+04  0.00000000000E+00 0.  1.
          6    1    1    2  501    0  0.15455492831E+03  0.45841153996E+02 -0.41097074890E+03  0.47378222182E+03  0.17200000000E+03 0. -1.
         -6    1    1    2    0  503 -0.15455492831E+03 -0.45841153996E+02 -0.17672887314E+04  0.17829419781E+04  0.17200000000E+03 0.  1.
<mgrwt>
<rscale>  2 0.23573849E+03</rscale>
<asrwt>0</asrwt>
<pdfrwt beam="1">  1       21 0.98080907E-02 0.23573849E+03</pdfrwt>
<pdfrwt beam="2">  1       21 0.55437292E+00 0.23573849E+03</pdfrwt>
<totfact> 0.59458898E+01</totfact>
</mgrwt>
</event>
<event>
 4    1  0.2299148E-001  0.2237843E+03  0.7546771E-02  0.1131093E+00
         21   -1    0    0  501  502  0.00000000000E+00  0.00000000000E+00  0.19899331730E+03  0.19899331730E+03  0.00000000000E+00 0.  1.
         21   -1    0    0  502  503 -0.00000000000E+00 -0.00000000000E+00 -0.25178196150E+03  0.25178196150E+03  0.00000000000E+00 0.  1.
          6    1    1    2  501    0  0.12826953766E+03 -0.63579380594E+02 -0.21511412545E+02  0.22481581972E+03  0.17200000000E+03 0.  1.
         -6    1    1    2    0  503 -0.12826953766E+03  0.63579380594E+02 -0.31277231659E+02  0.22595945908E+03  0.17200000000E+03 0.  1.
<mgrwt>
<rscale>  2 0.22378430E+03</rscale>
<asrwt>0</asrwt>
<pdfrwt beam="1">  1       21 0.49748330E-01 0.22378430E+03</pdfrwt>
<pdfrwt beam="2">  1       21 0.62945490E-01 0.22378430E+03</pdfrwt>
<totfact> 0.88109471E+03</totfact>
</mgrwt>
</event>
<event>
 4    1  0.2299148E-001  0.1767669E+03  0.7546771E-02  0.1170969E+00
         21   -1    0    0  503  502  0.00000000000E+00  0.00000000000E+00  0.29993844198E+03  0.29993844198E+03  0.00000000000E+00 0.  1.
         21   -1    0    0  501  503 -0.00000000000E+00 -0.00000000000E+00 -0.11291653727E+03  0.11291653727E+03  0.00000000000E+00 0.  1.
          6    1    1    2  501    0  0.10689058612E+02 -0.39348231776E+02  0.15094179838E+03  0.23244346800E+03  0.17200000000E+03 0.  1.
         -6    1    1    2    0  502 -0.10689058612E+02  0.39348231776E+02  0.36080106327E+02  0.18041151125E+03  0.17200000000E+03 0.  1.
<mgrwt>
<rscale>  2 0.17676691E+03</rscale>
<asrwt>0</asrwt>
<pdfrwt beam="1">  1       21 0.74984609E-01 0.17676691E+03</pdfrwt>
<pdfrwt beam="2">  1       21 0.28229135E-01 0.17676691E+03</pdfrwt>
<totfact> 0.19263044E+04</totfact>
</mgrwt>
</event>
<event>
 4    1  0.2299148E-001  0.1980024E+03  0.7546771E-02  0.1151435E+00
         21   -1    0    0  503  502  0.00000000000E+00  0.00000000000E+00  0.73955991173E+02  0.73955991173E+02  0.00000000000E+00 0.  1.
         21   -1    0    0  501  503 -0.00000000000E+00 -0.00000000000E+00 -0.55643010941E+03  0.55643010941E+03  0.00000000000E+00 0.  1.
          6    1    1    2  501    0 -0.96200123998E+02 -0.19143552550E+02 -0.30978600456E+03  0.36765786825E+03  0.17200000000E+03 0.  1.
         -6    1    1    2    0  502  0.96200123998E+02  0.19143552550E+02 -0.17268811367E+03  0.26272823233E+03  0.17200000000E+03 0.  1.
<mgrwt>
<rscale>  2 0.19800237E+03</rscale>
<asrwt>0</asrwt>
<pdfrwt beam="1">  1       21 0.18488998E-01 0.19800237E+03</pdfrwt>
<pdfrwt beam="2">  1       21 0.13910753E+00 0.19800237E+03</pdfrwt>
<totfact> 0.96804170E+03</totfact>
</mgrwt>
</event>
<event>
 4    1  0.2299148E-001  0.1720019E+03  0.7546771E-02  0.1175776E+00
         21   -1    0    0  503  502  0.00000000000E+00  0.00000000000E+00  0.12713321631E+03  0.12713321631E+03  0.00000000000E+00 0. -1.
         21   -1    0    0  501  503 -0.00000000000E+00 -0.00000000000E+00 -0.25338891325E+03  0.25338891325E+03  0.00000000000E+00 0. -1.
          6    1    1    2  501    0  0.80525670089E+00 -0.44187547136E-01 -0.11748578367E+03  0.20829680688E+03  0.17200000000E+03 0. -1.
         -6    1    1    2    0  502 -0.80525670089E+00  0.44187547136E-01 -0.87699132669E+01  0.17222532267E+03  0.17200000000E+03 0. -1.
<mgrwt>
<rscale>  2 0.17200189E+03</rscale>
<asrwt>0</asrwt>
<pdfrwt beam="1">  1       21 0.31783304E-01 0.17200189E+03</pdfrwt>
<pdfrwt beam="2">  1       21 0.63347228E-01 0.17200189E+03</pdfrwt>
<totfact> 0.22210132E+04</totfact>
</mgrwt>
</event>
<event>
 4    1  0.2299148E-001  0.2397918E+03  0.7546771E-02  0.1119932E+00
         21   -1    0    0  503  502  0.00000000000E+00  0.00000000000E+00  0.15666775384E+03  0.15666775384E+03  0.00000000000E+00 0. -1.
         21   -1    0    0  501  503 -0.00000000000E+00 -0.00000000000E+00 -0.37060872394E+03  0.37060872394E+03  0.00000000000E+00 0. -1.
          6    1    1    2  501    0  0.16702158945E+03  0.44630506273E+01 -0.81025871973E+02  0.25311128401E+03  0.17200000000E+03 0. -1.
         -6    1    1    2    0  502 -0.16702158945E+03 -0.44630506273E+01 -0.13291509813E+03  0.27416519377E+03  0.17200000000E+03 0. -1.
<mgrwt>
<rscale>  2 0.23979185E+03</rscale>
<asrwt>0</asrwt>
<pdfrwt beam="1">  1       21 0.39166939E-01 0.23979185E+03</pdfrwt>
<pdfrwt beam="2">  1       21 0.92652181E-01 0.23979185E+03</pdfrwt>
<totfact> 0.59700075E+03</totfact>
</mgrwt>
</event>
<event>
 4    1  0.2299148E-001  0.2072060E+03  0.7546771E-02  0.1143798E+00
         21   -1    0    0  503  502  0.00000000000E+00  0.00000000000E+00  0.28754279180E+03  0.28754279180E+03  0.00000000000E+00 0. -1.
         21   -1    0    0  501  503 -0.00000000000E+00 -0.00000000000E+00 -0.15245929835E+03  0.15245929835E+03  0.00000000000E+00 0. -1.
          6    1    1    2  501    0  0.73385835272E+02  0.89245981815E+02  0.35945180492E+02  0.21030069446E+03  0.17200000000E+03 0. -1.
         -6    1    1    2    0  502 -0.73385835272E+02 -0.89245981815E+02  0.99138312953E+02  0.22970139569E+03  0.17200000000E+03 0. -1.
<mgrwt>
<rscale>  2 0.20720600E+03</rscale>
<asrwt>0</asrwt>
<pdfrwt beam="1">  1       21 0.71885697E-01 0.20720600E+03</pdfrwt>
<pdfrwt beam="2">  1       21 0.38114825E-01 0.20720600E+03</pdfrwt>
<totfact> 0.11485922E+04</totfact>
</mgrwt>
</event>
