<event>
 4    1  0.2417478E-001  0.2087096E+03  0.7546771E-02  0.1142592E+00
         21   -1    0    0  501  502  0.00000000000E+00  0.00000000000E+00  0.22589202956E+03  0.22589202956E+03  0.00000000000E+00 0. -1.
         21   -1    0    0  502  503 -0.00000000000E+00 -0.00000000000E+00 -0.19286659818E+03  0.19286659818E+03  0.00000000000E+00 0. -1.
          6    1    1    2  501    0  0.11234477247E+03 -0.36801247435E+02  0.19231827692E+02  0.20959375685E+03  0.17200000000E+03 0. -1.
         -6    1    1    2    0  503 -0.11234477247E+03  0.36801247435E+02  0.13793603685E+02  0.20916487090E+03  0.17200000000E+03 0. -1.
<mgrwt>
<rscale>  2 0.20870956E+03</rscale>
<asrwt>0</asrwt>
<pdfrwt beam="1">  1       21 0.56473007E-01 0.20870956E+03</pdfrwt>
<pdfrwt beam="2">  1       21 0.48216650E-01 0.20870956E+03</pdfrwt>
<totfact> 0.11991771E+04</totfact>
</mgrwt>
</event>
<event>
 4    1  0.2417478E-001  0.2013639E+03  0.7546771E-02  0.1148593E+00
         21   -1    0    0  503  502  0.00000000000E+00  0.00000000000E+00  0.20139662425E+03  0.20139662425E+03  0.00000000000E+00 0. -1.
         21   -1    0    0  501  503 -0.00000000000E+00 -0.00000000000E+00 -0.20883482910E+03  0.20883482910E+03  0.00000000000E+00 0.  1.
          6    1    1    2  501    0  0.99209071240E+02 -0.33480854992E+02 -0.42599934885E+02  0.20582070333E+03  0.17200000000E+03 0.  1.
         -6    1    1    2    0  502 -0.99209071240E+02  0.33480854992E+02  0.35161730037E+02  0.20441075003E+03  0.17200000000E+03 0. -1.
<mgrwt>
<rscale>  2 0.20136387E+03</rscale>
<asrwt>0</asrwt>
<pdfrwt beam="1">  1       21 0.50349156E-01 0.20136387E+03</pdfrwt>
<pdfrwt beam="2">  1       21 0.52208707E-01 0.20136387E+03</pdfrwt>
<totfact> 0.12998339E+04</totfact>
</mgrwt>
</event>
<event>
 4    1  0.2417478E-001  0.1892311E+03  0.7546771E-02  0.1159157E+00
         21   -1    0    0  501  502  0.00000000000E+00  0.00000000000E+00  0.40200677594E+03  0.40200677594E+03  0.00000000000E+00 0.  1.
         21   -1    0    0  502  503 -0.00000000000E+00 -0.00000000000E+00 -0.14093183231E+03  0.14093183231E+03  0.00000000000E+00 0. -1.
          6    1    1    2  501    0  0.75216191188E+02 -0.23810051377E+02  0.29521066929E+03  0.35065329490E+03  0.17200000000E+03 0.  1.
         -6    1    1    2    0  503 -0.75216191188E+02  0.23810051377E+02 -0.34135725665E+02  0.19228531335E+03  0.17200000000E+03 0. -1.
<mgrwt>
<rscale>  2 0.18923106E+03</rscale>
<asrwt>0</asrwt>
<pdfrwt beam="1">  1       21 0.10050169E+00 0.18923106E+03</pdfrwt>
<pdfrwt beam="2">  1       21 0.35232959E-01 0.18923106E+03</pdfrwt>
<totfact> 0.63171394E+03</totfact>
</mgrwt>
</event>
<event>
 4    1  0.2417478E-001  0.2002233E+03  0.7546771E-02  0.1149551E+00
         21   -1    0    0  501  502  0.00000000000E+00  0.00000000000E+00  0.42815050430E+03  0.42815050430E+03  0.00000000000E+00 0.  1.
         21   -1    0    0  502  503 -0.00000000000E+00 -0.00000000000E+00 -0.93634558156E+02  0.93634558156E+02  0.00000000000E+00 0.  1.
          6    1    1    2  501    0 -0.90663027741E+02 -0.47807940044E+02  0.16797113757E+03  0.26134974036E+03  0.17200000000E+03 0.  1.
         -6    1    1    2    0  503  0.90663027741E+02  0.47807940044E+02  0.16654480857E+03  0.26043532209E+03  0.17200000000E+03 0.  1.
<mgrwt>
<rscale>  2 0.20022333E+03</rscale>
<asrwt>0</asrwt>
<pdfrwt beam="1">  1       21 0.10703762E+00 0.20022333E+03</pdfrwt>
<pdfrwt beam="2">  1       21 0.23408641E-01 0.20022333E+03</pdfrwt>
<totfact> 0.11912640E+04</totfact>
</mgrwt>
</event>
<event>
 4    1  0.2417478E-001  0.1996582E+03  0.7546771E-02  0.1150028E+00
         21   -1    0    0  503  502  0.00000000000E+00  0.00000000000E+00  0.76183603603E+03  0.76183603603E+03  0.00000000000E+00 0. -1.
         21   -1    0    0  501  503 -0.00000000000E+00 -0.00000000000E+00 -0.87388213994E+02  0.87388213994E+02  0.00000000000E+00 0. -1.
          6    1    1    2  501    0  0.16682872418E+02  0.10000531208E+03  0.68262917647E+02  0.21100522885E+03  0.17200000000E+03 0. -1.
         -6    1    1    2    0  502 -0.16682872418E+02 -0.10000531208E+03  0.60618490439E+03  0.63821902117E+03  0.17200000000E+03 0. -1.
<mgrwt>
<rscale>  2 0.19965816E+03</rscale>
<asrwt>0</asrwt>
<pdfrwt beam="1">  1       21 0.19045899E+00 0.19965816E+03</pdfrwt>
<pdfrwt beam="2">  1       21 0.21847056E-01 0.19965816E+03</pdfrwt>
<totfact> 0.30089664E+03</totfact>
</mgrwt>
</event>
<event>
 4    1  0.2417478E-001  0.1991820E+03  0.7546771E-02  0.1150431E+00
         21   -1    0    0  501  502  0.00000000000E+00  0.00000000000E+00  0.73695488271E+02  0.73695488271E+02  0.00000000000E+00 0.  1.
         21   -1    0    0  502  503 -0.00000000000E+00 -0.00000000000E+00 -0.63796897049E+03  0.63796897049E+03  0.00000000000E+00 0. -1.
          6    1    1    2  501    0 -0.91753862217E+02  0.40874051931E+02 -0.14152178468E+03  0.24433967114E+03  0.17200000000E+03 0.  1.
         -6    1    1    2    0  503  0.91753862217E+02 -0.40874051931E+02 -0.42275169754E+03  0.46732478762E+03  0.17200000000E+03 0. -1.
<mgrwt>
<rscale>  2 0.19918198E+03</rscale>
<asrwt>0</asrwt>
<pdfrwt beam="1">  1       21 0.18423872E-01 0.19918198E+03</pdfrwt>
<pdfrwt beam="2">  1       21 0.15949224E+00 0.19918198E+03</pdfrwt>
<totfact> 0.67904493E+03</totfact>
</mgrwt>
</event>
<event>
 4    1  0.2417478E-001  0.2297233E+03  0.7546771E-02  0.1126835E+00
         21   -1    0    0  501  502  0.00000000000E+00  0.00000000000E+00  0.82685639615E+03  0.82685639615E+03  0.00000000000E+00 0.  1.
         21   -1    0    0  502  503 -0.00000000000E+00 -0.00000000000E+00 -0.69641556873E+02  0.69641556873E+02  0.00000000000E+00 0.  1.
          6    1    1    2  501    0 -0.78922911024E+02 -0.13023049632E+03  0.50816917158E+03  0.55768155340E+03  0.17200000000E+03 0.  1.
         -6    1    1    2    0  503  0.78922911024E+02  0.13023049632E+03  0.24904566769E+03  0.33881639962E+03  0.17200000000E+03 0.  1.
<mgrwt>
<rscale>  2 0.22972333E+03</rscale>
<asrwt>0</asrwt>
<pdfrwt beam="1">  1       21 0.20671407E+00 0.22972333E+03</pdfrwt>
<pdfrwt beam="2">  1       21 0.17410392E-01 0.22972333E+03</pdfrwt>
<totfact> 0.35111591E+03</totfact>
</mgrwt>
</event>
<event>
 4    1  0.2417478E-001  0.2113456E+03  0.7546771E-02  0.1140505E+00
         21   -1    0    0  503  502  0.00000000000E+00  0.00000000000E+00  0.12879988258E+04  0.12879988258E+04  0.00000000000E+00 0. -1.
         21   -1    0    0  501  503 -0.00000000000E+00 -0.00000000000E+00 -0.35049837383E+02  0.35049837383E+02  0.00000000000E+00 0. -1.
          6    1    1    2  501    0 -0.11750167515E+03  0.35725867928E+02  0.55846324031E+03  0.59711654816E+03  0.17200000000E+03 0. -1.
         -6    1    1    2    0  502  0.11750167515E+03 -0.35725867928E+02  0.69448574807E+03  0.72593211499E+03  0.17200000000E+03 0. -1.
<mgrwt>
<rscale>  2 0.21134564E+03</rscale>
<asrwt>0</asrwt>
<pdfrwt beam="1">  1       21 0.32199955E+00 0.21134564E+03</pdfrwt>
<pdfrwt beam="2">  1       21 0.87624637E-02 0.21134564E+03</pdfrwt>
<totfact> 0.25492655E+03</totfact>
</mgrwt>
</event>
<event>
 4    1  0.2417478E-001  0.2260835E+03  0.7546771E-02  0.1129427E+00
         21   -1    0    0  503  502  0.00000000000E+00  0.00000000000E+00  0.33637510904E+03  0.33637510904E+03  0.00000000000E+00 0.  1.
         21   -1    0    0  501  503 -0.00000000000E+00 -0.00000000000E+00 -0.15977352594E+03  0.15977352594E+03  0.00000000000E+00 0.  1.
          6    1    1    2  501    0  0.95591187623E+02  0.11131962303E+03  0.14317950185E+03  0.26760811530E+03  0.17200000000E+03 0.  1.
         -6    1    1    2    0  502 -0.95591187623E+02 -0.11131962303E+03  0.33422081244E+02  0.22854051968E+03  0.17200000000E+03 0.  1.
<mgrwt>
<rscale>  2 0.22608347E+03</rscale>
<asrwt>0</asrwt>
<pdfrwt beam="1">  1       21 0.84093776E-01 0.22608347E+03</pdfrwt>
<pdfrwt beam="2">  1       21 0.39943382E-01 0.22608347E+03</pdfrwt>
<totfact> 0.72457715E+03</totfact>
</mgrwt>
</event>
<event>
 4    1  0.2417478E-001  0.1932104E+03  0.7546771E-02  0.1155597E+00
         21   -1    0    0  501  502  0.00000000000E+00  0.00000000000E+00  0.55830726680E+03  0.55830726680E+03  0.00000000000E+00 0. -1.
         21   -1    0    0  502  503 -0.00000000000E+00 -0.00000000000E+00 -0.71090889461E+02  0.71090889461E+02  0.00000000000E+00 0. -1.
          6    1    1    2  501    0 -0.27594459066E+02 -0.83575210094E+02  0.16686593215E+03  0.25529298703E+03  0.17200000000E+03 0. -1.
         -6    1    1    2    0  503  0.27594459066E+02  0.83575210094E+02  0.32035044518E+03  0.37410516923E+03  0.17200000000E+03 0. -1.
<mgrwt>
<rscale>  2 0.19321043E+03</rscale>
<asrwt>0</asrwt>
<pdfrwt beam="1">  1       21 0.13957680E+00 0.19321043E+03</pdfrwt>
<pdfrwt beam="2">  1       21 0.17772724E-01 0.19321043E+03</pdfrwt>
<totfact> 0.10362072E+04</totfact>
</mgrwt>
</event>
<event>
 4    1  0.2417478E-001  0.1911305E+03  0.7546771E-02  0.1157446E+00
         21   -1    0    0  503  502  0.00000000000E+00  0.00000000000E+00  0.34001139704E+03  0.34001139704E+03  0.00000000000E+00 0. -1.
         21   -1    0    0  501  503 -0.00000000000E+00 -0.00000000000E+00 -0.11771916705E+03  0.11771916705E+03  0.00000000000E+00 0.  1.
          6    1    1    2  501    0 -0.83097963387E+02  0.64495042981E+01  0.17877505947E+03  0.26170859656E+03  0.17200000000E+03 0. -1.
         -6    1    1    2    0  502  0.83097963387E+02 -0.64495042981E+01  0.43517170510E+02  0.19602196753E+03  0.17200000000E+03 0.  1.
<mgrwt>
<rscale>  2 0.19113050E+03</rscale>
<asrwt>0</asrwt>
<pdfrwt beam="1">  1       21 0.85002847E-01 0.19113050E+03</pdfrwt>
<pdfrwt beam="2">  1       21 0.29429792E-01 0.19113050E+03</pdfrwt>
<totfact> 0.13267637E+04</totfact>
</mgrwt>
</event>
<event>
 4    1  0.2417478E-001  0.1972571E+03  0.7546771E-02  0.1152074E+00
         21   -1    0    0  501  502  0.00000000000E+00  0.00000000000E+00  0.90119329007E+02  0.90119329007E+02  0.00000000000E+00 0. -1.
         21   -1    0    0  502  503 -0.00000000000E+00 -0.00000000000E+00 -0.47186472490E+03  0.47186472490E+03  0.00000000000E+00 0. -1.
          6    1    1    2  501    0  0.12850054744E+02 -0.95714415871E+02 -0.10895912603E+03  0.22534964934E+03  0.17200000000E+03 0. -1.
         -6    1    1    2    0  503 -0.12850054744E+02  0.95714415871E+02 -0.27278626986E+03  0.33663440456E+03  0.17200000000E+03 0. -1.
<mgrwt>
<rscale>  2 0.19725712E+03</rscale>
<asrwt>0</asrwt>
<pdfrwt beam="1">  1       21 0.22529833E-01 0.19725712E+03</pdfrwt>
<pdfrwt beam="2">  1       21 0.11796618E+00 0.19725712E+03</pdfrwt>
<totfact> 0.10133295E+04</totfact>
</mgrwt>
</event>
<event>
 4    1  0.2417478E-001  0.4889977E+03  0.7546771E-02  0.1016691E+00
         21   -1    0    0  501  502  0.00000000000E+00  0.00000000000E+00  0.46581361144E+03  0.46581361144E+03  0.00000000000E+00 0. -1.
         21   -1    0    0  502  503 -0.00000000000E+00 -0.00000000000E+00 -0.62680388558E+03  0.62680388558E+03  0.00000000000E+00 0.  1.
          6    1    1    2  501    0  0.76463681018E+02  0.45131813199E+03  0.15194407422E+03  0.51206030159E+03  0.17200000000E+03 0. -1.
         -6    1    1    2    0  503 -0.76463681018E+02 -0.45131813199E+03 -0.31293434836E+03  0.58055719543E+03  0.17200000000E+03 0.  1.
<mgrwt>
<rscale>  2 0.48899770E+03</rscale>
<asrwt>0</asrwt>
<pdfrwt beam="1">  1       21 0.11645340E+00 0.48899770E+03</pdfrwt>
<pdfrwt beam="2">  1       21 0.15670097E+00 0.48899770E+03</pdfrwt>
<totfact> 0.11946980E+02</totfact>
</mgrwt>
</event>
<event>
 4    1  0.2417478E-001  0.1868094E+03  0.7546771E-02  0.1161371E+00
         21   -1    0    0  501  502  0.00000000000E+00  0.00000000000E+00  0.38013827297E+02  0.38013827297E+02  0.00000000000E+00 0.  1.
         21   -1    0    0  502  503 -0.00000000000E+00 -0.00000000000E+00 -0.92302960213E+03  0.92302960213E+03  0.00000000000E+00 0.  1.
          6    1    1    2  501    0 -0.48014095444E+02 -0.54848888006E+02 -0.40713550534E+03  0.44794762371E+03  0.17200000000E+03 0.  1.
         -6    1    1    2    0  503  0.48014095444E+02  0.54848888006E+02 -0.47788026949E+03  0.51309580572E+03  0.17200000000E+03 0.  1.
<mgrwt>
<rscale>  2 0.18680941E+03</rscale>
<asrwt>0</asrwt>
<pdfrwt beam="1">  1       21 0.95034567E-02 0.18680941E+03</pdfrwt>
<pdfrwt beam="2">  1       21 0.23075740E+00 0.18680941E+03</pdfrwt>
<totfact> 0.77249764E+03</totfact>
</mgrwt>
</event>
<event>
 4    1  0.2417478E-001  0.2049535E+03  0.7546771E-02  0.1145626E+00
         21   -1    0    0  503  502  0.00000000000E+00  0.00000000000E+00  0.14915199401E+03  0.14915199401E+03  0.00000000000E+00 0.  1.
         21   -1    0    0  501  503 -0.00000000000E+00 -0.00000000000E+00 -0.28501341187E+03  0.28501341187E+03  0.00000000000E+00 0.  1.
          6    1    1    2  501    0 -0.12836762685E+02 -0.11071198151E+03 -0.44284434497E+02  0.20968318117E+03  0.17200000000E+03 0.  1.
         -6    1    1    2    0  502  0.12836762685E+02  0.11071198151E+03 -0.91576983365E+02  0.22448222471E+03  0.17200000000E+03 0.  1.
<mgrwt>
<rscale>  2 0.20495347E+03</rscale>
<asrwt>0</asrwt>
<pdfrwt beam="1">  1       21 0.37287999E-01 0.20495347E+03</pdfrwt>
<pdfrwt beam="2">  1       21 0.71253352E-01 0.20495347E+03</pdfrwt>
<totfact> 0.12258215E+04</totfact>
</mgrwt>
</event>
<event>
 4    1  0.2417478E-001  0.5199831E+03  0.7546771E-02  0.1008691E+00
         21   -1    0    0  503  502  0.00000000000E+00  0.00000000000E+00  0.17247057748E+04  0.17247057748E+04  0.00000000000E+00 0.  1.
         21   -1    0    0  501  503 -0.00000000000E+00 -0.00000000000E+00 -0.15731744366E+03  0.15731744366E+03  0.00000000000E+00 0. -1.
          6    1    1    2  501    0  0.49065412763E+03  0.75484648538E+01  0.83919516668E+03  0.98723400471E+03  0.17200000000E+03 0. -1.
         -6    1    1    2    0  502 -0.49065412763E+03 -0.75484648538E+01  0.72819316448E+03  0.89478921377E+03  0.17200000000E+03 0.  1.
<mgrwt>
<rscale>  2 0.51998313E+03</rscale>
<asrwt>0</asrwt>
<pdfrwt beam="1">  1       21 0.43117638E+00 0.51998313E+03</pdfrwt>
<pdfrwt beam="2">  1       21 0.39329366E-01 0.51998313E+03</pdfrwt>
<totfact> 0.23934576E+01</totfact>
</mgrwt>
</event>
<event>
 4    1  0.2417478E-001  0.2503368E+03  0.7546771E-02  0.1113092E+00
         21   -1    0    0  503  502  0.00000000000E+00  0.00000000000E+00  0.12816409612E+03  0.12816409612E+03  0.00000000000E+00 0. -1.
         21   -1    0    0  501  503 -0.00000000000E+00 -0.00000000000E+00 -0.50276130170E+03  0.50276130170E+03  0.00000000000E+00 0.  1.
          6    1    1    2  501    0  0.92931854528E+02 -0.15635916083E+03 -0.13505235059E+03  0.28444270805E+03  0.17200000000E+03 0.  1.
         -6    1    1    2    0  502 -0.92931854528E+02  0.15635916083E+03 -0.23954485499E+03  0.34648268978E+03  0.17200000000E+03 0. -1.
<mgrwt>
<rscale>  2 0.25033681E+03</rscale>
<asrwt>0</asrwt>
<pdfrwt beam="1">  1       21 0.32041024E-01 0.25033681E+03</pdfrwt>
<pdfrwt beam="2">  1       21 0.12569032E+00 0.25033681E+03</pdfrwt>
<totfact> 0.42213272E+03</totfact>
</mgrwt>
</event>
<event>
 4    1  0.2417478E-001  0.1871396E+03  0.7546771E-02  0.1161067E+00
         21   -1    0    0  501  502  0.00000000000E+00  0.00000000000E+00  0.36354262348E+03  0.36354262348E+03  0.00000000000E+00 0.  1.
         21   -1    0    0  502  503 -0.00000000000E+00 -0.00000000000E+00 -0.11333276632E+03  0.11333276632E+03  0.00000000000E+00 0.  1.
          6    1    1    2  501    0  0.92406289281E+01  0.73156245732E+02  0.32759362719E+02  0.18998526616E+03  0.17200000000E+03 0.  1.
         -6    1    1    2    0  503 -0.92406289281E+01 -0.73156245732E+02  0.21745049443E+03  0.28689012364E+03  0.17200000000E+03 0.  1.
<mgrwt>
<rscale>  2 0.18713959E+03</rscale>
<asrwt>0</asrwt>
<pdfrwt beam="1">  1       21 0.90885653E-01 0.18713959E+03</pdfrwt>
<pdfrwt beam="2">  1       21 0.28333192E-01 0.18713959E+03</pdfrwt>
<totfact> 0.12274861E+04</totfact>
</mgrwt>
</event>
<event>
 4    1  0.2417478E-001  0.2683343E+03  0.7546771E-02  0.1102237E+00
         21   -1    0    0  501  502  0.00000000000E+00  0.00000000000E+00  0.54870172068E+03  0.54870172068E+03  0.00000000000E+00 0.  1.
         21   -1    0    0  502  503 -0.00000000000E+00 -0.00000000000E+00 -0.16676063336E+03  0.16676063336E+03  0.00000000000E+00 0.  1.
          6    1    1    2  501    0 -0.12473989441E+03 -0.16388796681E+03  0.25834108840E+02  0.26957505096E+03  0.17200000000E+03 0.  1.
         -6    1    1    2    0  503  0.12473989441E+03  0.16388796681E+03  0.35610697848E+03  0.44588730307E+03  0.17200000000E+03 0.  1.
<mgrwt>
<rscale>  2 0.26833432E+03</rscale>
<asrwt>0</asrwt>
<pdfrwt beam="1">  1       21 0.13717543E+00 0.26833432E+03</pdfrwt>
<pdfrwt beam="2">  1       21 0.41690160E-01 0.26833432E+03</pdfrwt>
<totfact> 0.19644805E+03</totfact>
</mgrwt>
</event>
<event>
 4    1  0.2417478E-001  0.1781806E+03  0.7546771E-02  0.1169576E+00
         21   -1    0    0  501  502  0.00000000000E+00  0.00000000000E+00  0.23675789126E+03  0.23675789126E+03  0.00000000000E+00 0.  1.
         21   -1    0    0  502  503 -0.00000000000E+00 -0.00000000000E+00 -0.15287632732E+03  0.15287632732E+03  0.00000000000E+00 0.  1.
          6    1    1    2  501    0  0.39765800644E+02 -0.24145437891E+02  0.11022287886E+03  0.20951707352E+03  0.17200000000E+03 0.  1.
         -6    1    1    2    0  503 -0.39765800644E+02  0.24145437891E+02 -0.26341314924E+02  0.18011714506E+03  0.17200000000E+03 0.  1.
<mgrwt>
<rscale>  2 0.17818059E+03</rscale>
<asrwt>0</asrwt>
<pdfrwt beam="1">  1       21 0.59189472E-01 0.17818059E+03</pdfrwt>
<pdfrwt beam="2">  1       21 0.38219082E-01 0.17818059E+03</pdfrwt>
<totfact> 0.17771295E+04</totfact>
</mgrwt>
</event>
<event>
 4    1  0.2417478E-001  0.1878243E+03  0.7546771E-02  0.1160438E+00
         21   -1    0    0  503  502  0.00000000000E+00  0.00000000000E+00  0.51653876263E+03  0.51653876263E+03  0.00000000000E+00 0. -1.
         21   -1    0    0  501  503 -0.00000000000E+00 -0.00000000000E+00 -0.94425676839E+02  0.94425676839E+02  0.00000000000E+00 0. -1.
          6    1    1    2  501    0 -0.75300195864E+02  0.48840243584E+01  0.50362123537E+02  0.19445903599E+03  0.17200000000E+03 0. -1.
         -6    1    1    2    0  502  0.75300195864E+02 -0.48840243584E+01  0.37175096226E+03  0.41650540348E+03  0.17200000000E+03 0. -1.
<mgrwt>
<rscale>  2 0.18782431E+03</rscale>
<asrwt>0</asrwt>
<pdfrwt beam="1">  1       21 0.12913468E+00 0.18782431E+03</pdfrwt>
<pdfrwt beam="2">  1       21 0.23606421E-01 0.18782431E+03</pdfrwt>
<totfact> 0.74542484E+03</totfact>
</mgrwt>
</event>
<event>
 4    1  0.2417478E-001  0.1773961E+03  0.7546771E-02  0.1170347E+00
         21   -1    0    0  503  502  0.00000000000E+00  0.00000000000E+00  0.36756876427E+03  0.36756876427E+03  0.00000000000E+00 0. -1.
         21   -1    0    0  501  503 -0.00000000000E+00 -0.00000000000E+00 -0.85678039142E+02  0.85678039142E+02  0.00000000000E+00 0. -1.
          6    1    1    2  501    0 -0.48087437621E+01  0.43153919769E+02  0.13479621158E+03  0.22279902034E+03  0.17200000000E+03 0. -1.
         -6    1    1    2    0  502  0.48087437621E+01 -0.43153919769E+02  0.14709451355E+03  0.23044778308E+03  0.17200000000E+03 0. -1.
<mgrwt>
<rscale>  2 0.17739612E+03</rscale>
<asrwt>0</asrwt>
<pdfrwt beam="1">  1       21 0.91892187E-01 0.17739612E+03</pdfrwt>
<pdfrwt beam="2">  1       21 0.21419511E-01 0.17739612E+03</pdfrwt>
<totfact> 0.20512686E+04</totfact>
</mgrwt>
</event>
<event>
 4    1  0.2417478E-001  0.1784896E+03  0.7546771E-02  0.1169273E+00
         21   -1    0    0  501  502  0.00000000000E+00  0.00000000000E+00  0.24015024424E+03  0.24015024424E+03  0.00000000000E+00 0. -1.
         21   -1    0    0  502  503 -0.00000000000E+00 -0.00000000000E+00 -0.17324112218E+03  0.17324112218E+03  0.00000000000E+00 0.  1.
          6    1    1    2  501    0  0.59101270976E+01 -0.47324473724E+02  0.13349219069E+03  0.22288719207E+03  0.17200000000E+03 0. -1.
         -6    1    1    2    0  503 -0.59101270976E+01  0.47324473724E+02 -0.66583068627E+02  0.19050417435E+03  0.17200000000E+03 0.  1.
<mgrwt>
<rscale>  2 0.17848959E+03</rscale>
<asrwt>0</asrwt>
<pdfrwt beam="1">  1       21 0.60037561E-01 0.17848959E+03</pdfrwt>
<pdfrwt beam="2">  1       21 0.43310281E-01 0.17848959E+03</pdfrwt>
<totfact> 0.13385817E+04</totfact>
</mgrwt>
</event>
<event>
 4    1  0.2417478E-001  0.2160342E+03  0.7546771E-02  0.1136875E+00
         21   -1    0    0  501  502  0.00000000000E+00  0.00000000000E+00  0.23637943109E+03  0.23637943109E+03  0.00000000000E+00 0. -1.
         21   -1    0    0  502  503 -0.00000000000E+00 -0.00000000000E+00 -0.22265561271E+03  0.22265561271E+03  0.00000000000E+00 0. -1.
          6    1    1    2  501    0  0.52343407088E+02 -0.11977870556E+03 -0.70376480974E+02  0.22720831773E+03  0.17200000000E+03 0. -1.
         -6    1    1    2    0  503 -0.52343407088E+02  0.11977870556E+03  0.84100299354E+02  0.23182672608E+03  0.17200000000E+03 0. -1.
<mgrwt>
<rscale>  2 0.21603419E+03</rscale>
<asrwt>0</asrwt>
<pdfrwt beam="1">  1       21 0.59094858E-01 0.21603419E+03</pdfrwt>
<pdfrwt beam="2">  1       21 0.55663903E-01 0.21603419E+03</pdfrwt>
<totfact> 0.80087465E+03</totfact>
</mgrwt>
</event>
<event>
 4    1  0.2417478E-001  0.2102185E+03  0.7546771E-02  0.1141393E+00
         21   -1    0    0  501  502  0.00000000000E+00  0.00000000000E+00  0.43929071692E+03  0.43929071692E+03  0.00000000000E+00 0.  1.
         21   -1    0    0  502  503 -0.00000000000E+00 -0.00000000000E+00 -0.10997087907E+03  0.10997087907E+03  0.00000000000E+00 0.  1.
          6    1    1    2  501    0  0.12079053341E+03  0.41790249688E+01  0.24483589904E+03  0.32270177358E+03  0.17200000000E+03 0. -1.
         -6    1    1    2    0  503 -0.12079053341E+03 -0.41790249688E+01  0.84483938814E+02  0.22655982241E+03  0.17200000000E+03 0. -1.
<mgrwt>
<rscale>  2 0.21021850E+03</rscale>
<asrwt>0</asrwt>
<pdfrwt beam="1">  1       21 0.10982267E+00 0.21021850E+03</pdfrwt>
<pdfrwt beam="2">  1       21 0.27492721E-01 0.21021850E+03</pdfrwt>
<totfact> 0.81703599E+03</totfact>
</mgrwt>
</event>
<event>
 4    1  0.2417478E-001  0.2095399E+03  0.7546771E-02  0.1141931E+00
         21   -1    0    0  503  502  0.00000000000E+00  0.00000000000E+00  0.38194993583E+03  0.38194993583E+03  0.00000000000E+00 0. -1.
         21   -1    0    0  501  503 -0.00000000000E+00 -0.00000000000E+00 -0.12948082304E+03  0.12948082304E+03  0.00000000000E+00 0.  1.
          6    1    1    2  501    0  0.13113936080E+02 -0.11895802757E+03  0.40584603447E+02  0.21343405933E+03  0.17200000000E+03 0.  1.
         -6    1    1    2    0  502 -0.13113936080E+02  0.11895802757E+03  0.21188450934E+03  0.29799669955E+03  0.17200000000E+03 0. -1.
<mgrwt>
<rscale>  2 0.20953994E+03</rscale>
<asrwt>0</asrwt>
<pdfrwt beam="1">  1       21 0.95487482E-01 0.20953994E+03</pdfrwt>
<pdfrwt beam="2">  1       21 0.32370207E-01 0.20953994E+03</pdfrwt>
<totfact> 0.83036114E+03</totfact>
</mgrwt>
</event>
<event>
 4    1  0.2417478E-001  0.2274105E+03  0.7546771E-02  0.1128476E+00
         21   -1    0    0  501  502  0.00000000000E+00  0.00000000000E+00  0.30050404296E+03  0.30050404296E+03  0.00000000000E+00 0. -1.
         21   -1    0    0  502  503 -0.00000000000E+00 -0.00000000000E+00 -0.20793864420E+03  0.20793864420E+03  0.00000000000E+00 0. -1.
          6    1    1    2  501    0  0.14237611765E+03  0.43134538318E+02  0.15182932562E+03  0.27343681426E+03  0.17200000000E+03 0. -1.
         -6    1    1    2    0  503 -0.14237611765E+03 -0.43134538318E+02 -0.59263926861E+02  0.23500587291E+03  0.17200000000E+03 0. -1.
<mgrwt>
<rscale>  2 0.22741053E+03</rscale>
<asrwt>0</asrwt>
<pdfrwt beam="1">  1       21 0.75126010E-01 0.22741053E+03</pdfrwt>
<pdfrwt beam="2">  1       21 0.51984661E-01 0.22741053E+03</pdfrwt>
<totfact> 0.54240600E+03</totfact>
</mgrwt>
</event>
<event>
 4    1  0.2417478E-001  0.2188073E+03  0.7546771E-02  0.1134775E+00
         21   -1    0    0  503  502  0.00000000000E+00  0.00000000000E+00  0.25606679706E+03  0.25606679706E+03  0.00000000000E+00 0.  1.
         21   -1    0    0  501  503 -0.00000000000E+00 -0.00000000000E+00 -0.24623920520E+03  0.24623920520E+03  0.00000000000E+00 0. -1.
          6    1    1    2  501    0 -0.13464879542E+03  0.12741416478E+02 -0.11830493068E+03  0.24874223290E+03  0.17200000000E+03 0. -1.
         -6    1    1    2    0  502  0.13464879542E+03 -0.12741416478E+02  0.12813252254E+03  0.25356376937E+03  0.17200000000E+03 0.  1.
<mgrwt>
<rscale>  2 0.21880732E+03</rscale>
<asrwt>0</asrwt>
<pdfrwt beam="1">  1       21 0.64016699E-01 0.21880732E+03</pdfrwt>
<pdfrwt beam="2">  1       21 0.61559801E-01 0.21880732E+03</pdfrwt>
<totfact> 0.54176922E+03</totfact>
</mgrwt>
</event>
<event>
 4    1  0.2417478E-001  0.2367031E+03  0.7546771E-02  0.1122009E+00
         21   -1    0    0  501  502  0.00000000000E+00  0.00000000000E+00  0.76260141220E+03  0.76260141220E+03  0.00000000000E+00 0.  1.
         21   -1    0    0  502  503 -0.00000000000E+00 -0.00000000000E+00 -0.76359366413E+02  0.76359366413E+02  0.00000000000E+00 0. -1.
          6    1    1    2  501    0  0.38955562035E+02  0.15788234614E+03  0.42471861663E+03  0.48622451023E+03  0.17200000000E+03 0. -1.
         -6    1    1    2    0  503 -0.38955562035E+02 -0.15788234614E+03  0.26152342915E+03  0.35273626838E+03  0.17200000000E+03 0.  1.
<mgrwt>
<rscale>  2 0.23670313E+03</rscale>
<asrwt>0</asrwt>
<pdfrwt beam="1">  1       21 0.19065033E+00 0.23670313E+03</pdfrwt>
<pdfrwt beam="2">  1       21 0.19089844E-01 0.23670313E+03</pdfrwt>
<totfact> 0.37417444E+03</totfact>
</mgrwt>
</event>
<event>
 4    1  0.2417478E-001  0.2118399E+03  0.7546771E-02  0.1140117E+00
         21   -1    0    0  503  502  0.00000000000E+00  0.00000000000E+00  0.59672087186E+02  0.59672087186E+02  0.00000000000E+00 0.  1.
         21   -1    0    0  501  503 -0.00000000000E+00 -0.00000000000E+00 -0.77544709922E+03  0.77544709922E+03  0.00000000000E+00 0.  1.
          6    1    1    2  501    0 -0.53390193133E+01  0.12354609062E+03 -0.43042499281E+03  0.47973098302E+03  0.17200000000E+03 0.  1.
         -6    1    1    2    0  502  0.53390193133E+01 -0.12354609062E+03 -0.28535001922E+03  0.35538820339E+03  0.17200000000E+03 0.  1.
<mgrwt>
<rscale>  2 0.21183990E+03</rscale>
<asrwt>0</asrwt>
<pdfrwt beam="1">  1       21 0.14918022E-01 0.21183990E+03</pdfrwt>
<pdfrwt beam="2">  1       21 0.19386178E+00 0.21183990E+03</pdfrwt>
<totfact> 0.57326281E+03</totfact>
</mgrwt>
</event>
<event>
 4    1  0.2417478E-001  0.2078944E+03  0.7546771E-02  0.1143244E+00
         21   -1    0    0  501  502  0.00000000000E+00  0.00000000000E+00  0.35643139952E+03  0.35643139952E+03  0.00000000000E+00 0. -1.
         21   -1    0    0  502  503 -0.00000000000E+00 -0.00000000000E+00 -0.15133221161E+03  0.15133221161E+03  0.00000000000E+00 0.  1.
          6    1    1    2  501    0 -0.91563400578E+02 -0.72472366668E+02  0.21572816259E+03  0.29959763082E+03  0.17200000000E+03 0. -1.
         -6    1    1    2    0  503  0.91563400578E+02  0.72472366668E+02 -0.10628974684E+02  0.20816598031E+03  0.17200000000E+03 0.  1.
<mgrwt>
<rscale>  2 0.20789444E+03</rscale>
<asrwt>0</asrwt>
<pdfrwt beam="1">  1       21 0.89107848E-01 0.20789444E+03</pdfrwt>
<pdfrwt beam="2">  1       21 0.37833054E-01 0.20789444E+03</pdfrwt>
<totfact> 0.71631009E+03</totfact>
</mgrwt>
</event>
<event>
 4    1  0.2417478E-001  0.1823705E+03  0.7546771E-02  0.1165528E+00
         21   -1    0    0  503  502  0.00000000000E+00  0.00000000000E+00  0.22088300583E+03  0.22088300583E+03  0.00000000000E+00 0.  1.
         21   -1    0    0  501  503 -0.00000000000E+00 -0.00000000000E+00 -0.15782180580E+03  0.15782180580E+03  0.00000000000E+00 0.  1.
          6    1    1    2  501    0 -0.21927934553E+02  0.56517000399E+02 -0.90503372297E+01  0.18259494586E+03  0.17200000000E+03 0.  1.
         -6    1    1    2    0  502  0.21927934553E+02 -0.56517000399E+02  0.72111537262E+02  0.19610986577E+03  0.17200000000E+03 0.  1.
<mgrwt>
<rscale>  2 0.18237052E+03</rscale>
<asrwt>0</asrwt>
<pdfrwt beam="1">  1       21 0.55220751E-01 0.18237052E+03</pdfrwt>
<pdfrwt beam="2">  1       21 0.39455452E-01 0.18237052E+03</pdfrwt>
<totfact> 0.19270954E+04</totfact>
</mgrwt>
</event>
<event>
 4    1  0.2417478E-001  0.1721858E+03  0.7546771E-02  0.1175587E+00
         21   -1    0    0  501  502  0.00000000000E+00  0.00000000000E+00  0.51894774703E+03  0.51894774703E+03  0.00000000000E+00 0. -1.
         21   -1    0    0  502  503 -0.00000000000E+00 -0.00000000000E+00 -0.57594274868E+02  0.57594274868E+02  0.00000000000E+00 0. -1.
          6    1    1    2  501    0 -0.51565756219E+01 -0.61115890498E+01  0.25653424153E+03  0.30896239071E+03  0.17200000000E+03 0. -1.
         -6    1    1    2    0  503  0.51565756219E+01  0.61115890498E+01  0.20481923063E+03  0.26757963119E+03  0.17200000000E+03 0. -1.
<mgrwt>
<rscale>  2 0.17218578E+03</rscale>
<asrwt>0</asrwt>
<pdfrwt beam="1">  1       21 0.12973692E+00 0.17218578E+03</pdfrwt>
<pdfrwt beam="2">  1       21 0.14398570E-01 0.17218578E+03</pdfrwt>
<totfact> 0.18613408E+04</totfact>
</mgrwt>
</event>
<event>
 4    1  0.2417478E-001  0.2019694E+03  0.7546771E-02  0.1148088E+00
         21   -1    0    0  501  502  0.00000000000E+00  0.00000000000E+00  0.10925018317E+04  0.10925018317E+04  0.00000000000E+00 0.  1.
         21   -1    0    0  502  503 -0.00000000000E+00 -0.00000000000E+00 -0.39580238617E+02  0.39580238617E+02  0.00000000000E+00 0. -1.
          6    1    1    2  501    0 -0.10078386195E+03 -0.32407826878E+02  0.66119117246E+03  0.69135043256E+03  0.17200000000E+03 0.  1.
         -6    1    1    2    0  503  0.10078386195E+03  0.32407826878E+02  0.39173042064E+03  0.44073163777E+03  0.17200000000E+03 0. -1.
<mgrwt>
<rscale>  2 0.20196944E+03</rscale>
<asrwt>0</asrwt>
<pdfrwt beam="1">  1       21 0.27312536E+00 0.20196944E+03</pdfrwt>
<pdfrwt beam="2">  1       21 0.98950633E-02 0.20196944E+03</pdfrwt>
<totfact> 0.39899159E+03</totfact>
</mgrwt>
</event>
<event>
 4    1  0.2417478E-001  0.2039547E+03  0.7546771E-02  0.1146445E+00
         21   -1    0    0  503  502  0.00000000000E+00  0.00000000000E+00  0.21182332349E+03  0.21182332349E+03  0.00000000000E+00 0. -1.
         21   -1    0    0  501  503 -0.00000000000E+00 -0.00000000000E+00 -0.23586963167E+03  0.23586963167E+03  0.00000000000E+00 0.  1.
          6    1    1    2  501    0  0.10960599347E+03 -0.18586458241E+00 -0.10361673346E+03  0.22876611594E+03  0.17200000000E+03 0.  1.
         -6    1    1    2    0  502 -0.10960599347E+03  0.18586458241E+00  0.79570425280E+02  0.21892683922E+03  0.17200000000E+03 0.  1.
<mgrwt>
<rscale>  2 0.20395467E+03</rscale>
<asrwt>0</asrwt>
<pdfrwt beam="1">  1       21 0.52955831E-01 0.20395467E+03</pdfrwt>
<pdfrwt beam="2">  1       21 0.58967408E-01 0.20395467E+03</pdfrwt>
<totfact> 0.90149845E+03</totfact>
</mgrwt>
</event>
<event>
 4    1  0.2417478E-001  0.1955298E+03  0.7546771E-02  0.1153566E+00
         21   -1    0    0  501  502  0.00000000000E+00  0.00000000000E+00  0.32597979349E+02  0.32597979349E+02  0.00000000000E+00 0. -1.
         21   -1    0    0  502  503 -0.00000000000E+00 -0.00000000000E+00 -0.11749670078E+04  0.11749670078E+04  0.00000000000E+00 0.  1.
          6    1    1    2  501    0  0.61172450356E+02  0.70041569645E+02 -0.54543527672E+03  0.57942344728E+03  0.17200000000E+03 0. -1.
         -6    1    1    2    0  503 -0.61172450356E+02 -0.70041569645E+02 -0.59693375172E+03  0.62814153987E+03  0.17200000000E+03 0. -1.
<mgrwt>
<rscale>  2 0.19552977E+03</rscale>
<asrwt>0</asrwt>
<pdfrwt beam="1">  1       21 0.81494953E-02 0.19552977E+03</pdfrwt>
<pdfrwt beam="2">  1       21 0.29374174E+00 0.19552977E+03</pdfrwt>
<totfact> 0.42949330E+03</totfact>
</mgrwt>
</event>
<event>
 4    1  0.2417478E-001  0.1820737E+03  0.7546771E-02  0.1165811E+00
         21   -1    0    0  503  502  0.00000000000E+00  0.00000000000E+00  0.36417600977E+02  0.36417600977E+02  0.00000000000E+00 0. -1.
         21   -1    0    0  501  503 -0.00000000000E+00 -0.00000000000E+00 -0.11067943859E+04  0.11067943859E+04  0.00000000000E+00 0. -1.
          6    1    1    2  501    0  0.42866803609E+02  0.41584427214E+02 -0.29434105210E+03  0.34610328284E+03  0.17200000000E+03 0. -1.
         -6    1    1    2    0  502 -0.42866803609E+02 -0.41584427214E+02 -0.77603573278E+03  0.79710870400E+03  0.17200000000E+03 0. -1.
<mgrwt>
<rscale>  2 0.18207369E+03</rscale>
<asrwt>0</asrwt>
<pdfrwt beam="1">  1       21 0.91044003E-02 0.18207369E+03</pdfrwt>
<pdfrwt beam="2">  1       21 0.27669859E+00 0.18207369E+03</pdfrwt>
<totfact> 0.45051373E+03</totfact>
</mgrwt>
</event>
<event>
 4    1  0.2417478E-001  0.1815742E+03  0.7546771E-02  0.1166288E+00
         21   -1    0    0  503  502  0.00000000000E+00  0.00000000000E+00  0.56045961107E+02  0.56045961107E+02  0.00000000000E+00 0. -1.
         21   -1    0    0  501  503 -0.00000000000E+00 -0.00000000000E+00 -0.70996640173E+03  0.70996640173E+03  0.00000000000E+00 0.  1.
          6    1    1    2  501    0  0.56566043326E+01  0.57906721782E+02 -0.48554324427E+03  0.51838347549E+03  0.17200000000E+03 0.  1.
         -6    1    1    2    0  502 -0.56566043326E+01 -0.57906721782E+02 -0.16837719636E+03  0.24762888736E+03  0.17200000000E+03 0. -1.
<mgrwt>
<rscale>  2 0.18157419E+03</rscale>
<asrwt>0</asrwt>
<pdfrwt beam="1">  1       21 0.14011490E-01 0.18157419E+03</pdfrwt>
<pdfrwt beam="2">  1       21 0.17749160E+00 0.18157419E+03</pdfrwt>
<totfact> 0.84819330E+03</totfact>
</mgrwt>
</event>
<event>
 4    1  0.2417478E-001  0.1861639E+03  0.7546771E-02  0.1161967E+00
         21   -1    0    0  501  502  0.00000000000E+00  0.00000000000E+00  0.18244333191E+03  0.18244333191E+03  0.00000000000E+00 0.  1.
         21   -1    0    0  502  503 -0.00000000000E+00 -0.00000000000E+00 -0.23802651055E+03  0.23802651055E+03  0.00000000000E+00 0. -1.
          6    1    1    2  501    0  0.63593063905E+02  0.32076867072E+02  0.66682303082E+02  0.19774613200E+03  0.17200000000E+03 0.  1.
         -6    1    1    2    0  503 -0.63593063905E+02 -0.32076867072E+02 -0.12226548173E+03  0.22272371046E+03  0.17200000000E+03 0. -1.
<mgrwt>
<rscale>  2 0.18616391E+03</rscale>
<asrwt>0</asrwt>
<pdfrwt beam="1">  1       21 0.45610833E-01 0.18616391E+03</pdfrwt>
<pdfrwt beam="2">  1       21 0.59506627E-01 0.18616391E+03</pdfrwt>
<totfact> 0.12208809E+04</totfact>
</mgrwt>
</event>
<event>
 4    1  0.2417478E-001  0.1901567E+03  0.7546771E-02  0.1158320E+00
         21   -1    0    0  503  502  0.00000000000E+00  0.00000000000E+00  0.86996464294E+02  0.86996464294E+02  0.00000000000E+00 0.  1.
         21   -1    0    0  501  503 -0.00000000000E+00 -0.00000000000E+00 -0.43264611285E+03  0.43264611285E+03  0.00000000000E+00 0.  1.
          6    1    1    2  501    0 -0.25779737724E+02  0.76882914729E+02 -0.22433072422E+03  0.29408136848E+03  0.17200000000E+03 0.  1.
         -6    1    1    2    0  502  0.25779737724E+02 -0.76882914729E+02 -0.12131892433E+03  0.22556120867E+03  0.17200000000E+03 0.  1.
<mgrwt>
<rscale>  2 0.19015672E+03</rscale>
<asrwt>0</asrwt>
<pdfrwt beam="1">  1       21 0.21749116E-01 0.19015672E+03</pdfrwt>
<pdfrwt beam="2">  1       21 0.10816153E+00 0.19015672E+03</pdfrwt>
<totfact> 0.13440707E+04</totfact>
</mgrwt>
</event>
<event>
 4    1  0.2417478E-001  0.2348395E+03  0.7546771E-02  0.1123279E+00
         21   -1    0    0  501  502  0.00000000000E+00  0.00000000000E+00  0.14089996256E+04  0.14089996256E+04  0.00000000000E+00 0.  1.
         21   -1    0    0  502  503 -0.00000000000E+00 -0.00000000000E+00 -0.39818724314E+02  0.39818724314E+02  0.00000000000E+00 0. -1.
          6    1    1    2  501    0 -0.15921722517E+03  0.14679442468E+02  0.77910021949E+03  0.81372400901E+03  0.17200000000E+03 0. -1.
         -6    1    1    2    0  503  0.15921722517E+03 -0.14679442468E+02  0.59008068178E+03  0.63509434089E+03  0.17200000000E+03 0.  1.
<mgrwt>
<rscale>  2 0.23483954E+03</rscale>
<asrwt>0</asrwt>
<pdfrwt beam="1">  1       21 0.35224974E+00 0.23483954E+03</pdfrwt>
<pdfrwt beam="2">  1       21 0.99546858E-02 0.23483954E+03</pdfrwt>
<totfact> 0.13127471E+03</totfact>
</mgrwt>
</event>
<event>
 4    1  0.2417478E-001  0.2439946E+03  0.7546771E-02  0.1117160E+00
         21   -1    0    0  503  502  0.00000000000E+00  0.00000000000E+00  0.29596960659E+03  0.29596960659E+03  0.00000000000E+00 0. -1.
         21   -1    0    0  501  503 -0.00000000000E+00 -0.00000000000E+00 -0.20488243717E+03  0.20488243717E+03  0.00000000000E+00 0. -1.
          6    1    1    2  501    0  0.14373003430E+03  0.96389927916E+02  0.11728607481E+02  0.24427628046E+03  0.17200000000E+03 0. -1.
         -6    1    1    2    0  502 -0.14373003430E+03 -0.96389927916E+02  0.79358561942E+02  0.25657576331E+03  0.17200000000E+03 0. -1.
<mgrwt>
<rscale>  2 0.24399455E+03</rscale>
<asrwt>0</asrwt>
<pdfrwt beam="1">  1       21 0.73992401E-01 0.24399455E+03</pdfrwt>
<pdfrwt beam="2">  1       21 0.51220610E-01 0.24399455E+03</pdfrwt>
<totfact> 0.57282488E+03</totfact>
</mgrwt>
</event>
<event>
 4    1  0.2417478E-001  0.1918997E+03  0.7546771E-02  0.1156759E+00
         21   -1    0    0  503  502  0.00000000000E+00  0.00000000000E+00  0.33613636400E+03  0.33613636400E+03  0.00000000000E+00 0.  1.
         21   -1    0    0  501  503 -0.00000000000E+00 -0.00000000000E+00 -0.11145707754E+03  0.11145707754E+03  0.00000000000E+00 0.  1.
          6    1    1    2  501    0 -0.74562000044E+02 -0.41012099650E+02  0.83105391063E+02  0.20912195053E+03  0.17200000000E+03 0.  1.
         -6    1    1    2    0  502  0.74562000044E+02  0.41012099650E+02  0.14157389540E+03  0.23847149102E+03  0.17200000000E+03 0.  1.
<mgrwt>
<rscale>  2 0.19189967E+03</rscale>
<asrwt>0</asrwt>
<pdfrwt beam="1">  1       21 0.84034089E-01 0.19189967E+03</pdfrwt>
<pdfrwt beam="2">  1       21 0.27864270E-01 0.19189967E+03</pdfrwt>
<totfact> 0.15134701E+04</totfact>
</mgrwt>
</event>
<event>
 4    1  0.2417478E-001  0.2042029E+03  0.7546771E-02  0.1146241E+00
         21   -1    0    0  503  502  0.00000000000E+00  0.00000000000E+00  0.20131612863E+03  0.20131612863E+03  0.00000000000E+00 0.  1.
         21   -1    0    0  501  503 -0.00000000000E+00 -0.00000000000E+00 -0.20730349614E+03  0.20730349614E+03  0.00000000000E+00 0.  1.
          6    1    1    2  501    0  0.90002107024E+02  0.63359532433E+02 -0.88873357618E+01  0.20439617011E+03  0.17200000000E+03 0. -1.
         -6    1    1    2    0  502 -0.90002107024E+02 -0.63359532433E+02  0.28999682567E+01  0.20422345466E+03  0.17200000000E+03 0. -1.
<mgrwt>
<rscale>  2 0.20420286E+03</rscale>
<asrwt>0</asrwt>
<pdfrwt beam="1">  1       21 0.50329032E-01 0.20420286E+03</pdfrwt>
<pdfrwt beam="2">  1       21 0.51825874E-01 0.20420286E+03</pdfrwt>
<totfact> 0.13187587E+04</totfact>
</mgrwt>
</event>
<event>
 4    1  0.2417478E-001  0.2730865E+03  0.7546771E-02  0.1099526E+00
         21   -1    0    0  503  502  0.00000000000E+00  0.00000000000E+00  0.33307043051E+03  0.33307043051E+03  0.00000000000E+00 0.  1.
         21   -1    0    0  501  503 -0.00000000000E+00 -0.00000000000E+00 -0.23189098814E+03  0.23189098814E+03  0.00000000000E+00 0.  1.
          6    1    1    2  501    0  0.19674372293E+03 -0.79272516081E+02  0.10301054927E+03  0.29186880200E+03  0.17200000000E+03 0.  1.
         -6    1    1    2    0  502 -0.19674372293E+03  0.79272516081E+02 -0.18311068964E+01  0.27309261665E+03  0.17200000000E+03 0.  1.
<mgrwt>
<rscale>  2 0.27308648E+03</rscale>
<asrwt>0</asrwt>
<pdfrwt beam="1">  1       21 0.83267607E-01 0.27308648E+03</pdfrwt>
<pdfrwt beam="2">  1       21 0.57972747E-01 0.27308648E+03</pdfrwt>
<totfact> 0.33069039E+03</totfact>
</mgrwt>
</event>
<event>
 4    1  0.2417478E-001  0.1739678E+03  0.7546771E-02  0.1173772E+00
         21   -1    0    0  503  502  0.00000000000E+00  0.00000000000E+00  0.69618819139E+03  0.69618819139E+03  0.00000000000E+00 0.  1.
         21   -1    0    0  501  503 -0.00000000000E+00 -0.00000000000E+00 -0.45706623080E+02  0.45706623080E+02  0.00000000000E+00 0.  1.
          6    1    1    2  501    0 -0.24451589825E+02 -0.91064658636E+01  0.24322284127E+03  0.29903537998E+03  0.17200000000E+03 0. -1.
         -6    1    1    2    0  502  0.24451589825E+02  0.91064658636E+01  0.40725872704E+03  0.44285943449E+03  0.17200000000E+03 0. -1.
<mgrwt>
<rscale>  2 0.17396784E+03</rscale>
<asrwt>0</asrwt>
<pdfrwt beam="1">  1       21 0.17404701E+00 0.17396784E+03</pdfrwt>
<pdfrwt beam="2">  1       21 0.11426658E-01 0.17396784E+03</pdfrwt>
<totfact> 0.12994388E+04</totfact>
</mgrwt>
</event>
<event>
 4    1  0.2417478E-001  0.3005369E+03  0.7546771E-02  0.1084973E+00
         21   -1    0    0  501  502  0.00000000000E+00  0.00000000000E+00  0.42320170707E+03  0.42320170707E+03  0.00000000000E+00 0. -1.
         21   -1    0    0  502  503 -0.00000000000E+00 -0.00000000000E+00 -0.28209027884E+03  0.28209027884E+03  0.00000000000E+00 0. -1.
          6    1    1    2  501    0 -0.15226158297E+02  0.24598093321E+03  0.24453949791E+03  0.38745583159E+03  0.17200000000E+03 0. -1.
         -6    1    1    2    0  503  0.15226158297E+02 -0.24598093321E+03 -0.10342806968E+03  0.31783615432E+03  0.17200000000E+03 0. -1.
<mgrwt>
<rscale>  2 0.30053695E+03</rscale>
<asrwt>0</asrwt>
<pdfrwt beam="1">  1       21 0.10580043E+00 0.30053695E+03</pdfrwt>
<pdfrwt beam="2">  1       21 0.70522570E-01 0.30053695E+03</pdfrwt>
<totfact> 0.12008773E+03</totfact>
</mgrwt>
</event>
<event>
 4    1  0.2417478E-001  0.1883265E+03  0.7546771E-02  0.1159979E+00
         21   -1    0    0  501  502  0.00000000000E+00  0.00000000000E+00  0.38641022639E+03  0.38641022639E+03  0.00000000000E+00 0.  1.
         21   -1    0    0  502  503 -0.00000000000E+00 -0.00000000000E+00 -0.12748324618E+03  0.12748324618E+03  0.00000000000E+00 0.  1.
          6    1    1    2  501    0 -0.75956100770E+02 -0.10655638031E+02  0.26543148564E+03  0.32545467493E+03  0.17200000000E+03 0.  1.
         -6    1    1    2    0  503  0.75956100770E+02  0.10655638031E+02 -0.65045054223E+01  0.18843879764E+03  0.17200000000E+03 0.  1.
<mgrwt>
<rscale>  2 0.18832650E+03</rscale>
<asrwt>0</asrwt>
<pdfrwt beam="1">  1       21 0.96602554E-01 0.18832650E+03</pdfrwt>
<pdfrwt beam="2">  1       21 0.31870812E-01 0.18832650E+03</pdfrwt>
<totfact> 0.84589875E+03</totfact>
</mgrwt>
</event>
<event>
 4    1  0.2417478E-001  0.2048671E+03  0.7546771E-02  0.1145696E+00
         21   -1    0    0  503  502  0.00000000000E+00  0.00000000000E+00  0.80542337421E+02  0.80542337421E+02  0.00000000000E+00 0.  1.
         21   -1    0    0  501  503 -0.00000000000E+00 -0.00000000000E+00 -0.52564288610E+03  0.52564288610E+03  0.00000000000E+00 0.  1.
          6    1    1    2  501    0  0.50614506693E+02  0.99119644721E+02 -0.19437012984E+03  0.28240092002E+03  0.17200000000E+03 0.  1.
         -6    1    1    2    0  502 -0.50614506693E+02 -0.99119644721E+02 -0.25073041884E+03  0.32378430349E+03  0.17200000000E+03 0.  1.
<mgrwt>
<rscale>  2 0.20486711E+03</rscale>
<asrwt>0</asrwt>
<pdfrwt beam="1">  1       21 0.20135585E-01 0.20486711E+03</pdfrwt>
<pdfrwt beam="2">  1       21 0.13141072E+00 0.20486711E+03</pdfrwt>
<totfact> 0.95016934E+03</totfact>
</mgrwt>
</event>
<event>
 4    1  0.2417478E-001  0.2641144E+03  0.7546771E-02  0.1104696E+00
         21   -1    0    0  501  502  0.00000000000E+00  0.00000000000E+00  0.46803015135E+03  0.46803015135E+03  0.00000000000E+00 0. -1.
         21   -1    0    0  502  503 -0.00000000000E+00 -0.00000000000E+00 -0.16885043063E+03  0.16885043063E+03  0.00000000000E+00 0. -1.
          6    1    1    2  501    0 -0.20040902502E+03  0.29386962427E+01  0.25865746874E+03  0.36967566782E+03  0.17200000000E+03 0. -1.
         -6    1    1    2    0  503  0.20040902502E+03 -0.29386962427E+01  0.40522251982E+02  0.26720491416E+03  0.17200000000E+03 0. -1.
<mgrwt>
<rscale>  2 0.26411439E+03</rscale>
<asrwt>0</asrwt>
<pdfrwt beam="1">  1       21 0.11700754E+00 0.26411439E+03</pdfrwt>
<pdfrwt beam="2">  1       21 0.42212609E-01 0.26411439E+03</pdfrwt>
<totfact> 0.28743221E+03</totfact>
</mgrwt>
</event>
<event>
 4    1  0.2417478E-001  0.2248404E+03  0.7546771E-02  0.1130325E+00
         21   -1    0    0  501  502  0.00000000000E+00  0.00000000000E+00  0.19385299555E+03  0.19385299555E+03  0.00000000000E+00 0.  1.
         21   -1    0    0  502  503 -0.00000000000E+00 -0.00000000000E+00 -0.28931330768E+03  0.28931330768E+03  0.00000000000E+00 0.  1.
          6    1    1    2  501    0 -0.13633283628E+03  0.48811380833E+02  0.28136386616E+02  0.22659401890E+03  0.17200000000E+03 0.  1.
         -6    1    1    2    0  503  0.13633283628E+03 -0.48811380833E+02 -0.12359669874E+03  0.25657228433E+03  0.17200000000E+03 0.  1.
<mgrwt>
<rscale>  2 0.22484037E+03</rscale>
<asrwt>0</asrwt>
<pdfrwt beam="1">  1       21 0.48463249E-01 0.22484037E+03</pdfrwt>
<pdfrwt beam="2">  1       21 0.72328326E-01 0.22484037E+03</pdfrwt>
<totfact> 0.68505313E+03</totfact>
</mgrwt>
</event>
<event>
 4    1  0.2417478E-001  0.2083861E+03  0.7546771E-02  0.1142850E+00
         21   -1    0    0  501  502  0.00000000000E+00  0.00000000000E+00  0.12311367986E+03  0.12311367986E+03  0.00000000000E+00 0. -1.
         21   -1    0    0  502  503 -0.00000000000E+00 -0.00000000000E+00 -0.37499305725E+03  0.37499305725E+03  0.00000000000E+00 0. -1.
          6    1    1    2  501    0 -0.94311820619E+02  0.70328141066E+02 -0.65243414909E+02  0.21836087132E+03  0.17200000000E+03 0. -1.
         -6    1    1    2    0  503  0.94311820619E+02 -0.70328141066E+02 -0.18663596248E+03  0.27974586579E+03  0.17200000000E+03 0. -1.
<mgrwt>
<rscale>  2 0.20838610E+03</rscale>
<asrwt>0</asrwt>
<pdfrwt beam="1">  1       21 0.30778420E-01 0.20838610E+03</pdfrwt>
<pdfrwt beam="2">  1       21 0.93748263E-01 0.20838610E+03</pdfrwt>
<totfact> 0.95795747E+03</totfact>
</mgrwt>
</event>
<event>
 4    1  0.2417478E-001  0.1836324E+03  0.7546771E-02  0.1164333E+00
         21   -1    0    0  501  502  0.00000000000E+00  0.00000000000E+00  0.51885141774E+03  0.51885141774E+03  0.00000000000E+00 0. -1.
         21   -1    0    0  502  503 -0.00000000000E+00 -0.00000000000E+00 -0.12470804113E+03  0.12470804113E+03  0.00000000000E+00 0. -1.
          6    1    1    2  501    0  0.26261462009E+02  0.58712912634E+02  0.41974040505E+03  0.45815158859E+03  0.17200000000E+03 0. -1.
         -6    1    1    2    0  503 -0.26261462009E+02 -0.58712912634E+02 -0.25597028433E+02  0.18540787028E+03  0.17200000000E+03 0. -1.
<mgrwt>
<rscale>  2 0.18363243E+03</rscale>
<asrwt>0</asrwt>
<pdfrwt beam="1">  1       21 0.12971285E+00 0.18363243E+03</pdfrwt>
<pdfrwt beam="2">  1       21 0.31177012E-01 0.18363243E+03</pdfrwt>
<totfact> 0.43294589E+03</totfact>
</mgrwt>
</event>
<event>
 4    1  0.2417478E-001  0.1742207E+03  0.7546771E-02  0.1173516E+00
         21   -1    0    0  503  502  0.00000000000E+00  0.00000000000E+00  0.59798878181E+02  0.59798878181E+02  0.00000000000E+00 0. -1.
         21   -1    0    0  501  503 -0.00000000000E+00 -0.00000000000E+00 -0.51974135955E+03  0.51974135955E+03  0.00000000000E+00 0. -1.
          6    1    1    2  501    0  0.27056881392E+01  0.27595615816E+02 -0.27429268900E+03  0.32494509998E+03  0.17200000000E+03 0. -1.
         -6    1    1    2    0  502 -0.27056881392E+01 -0.27595615816E+02 -0.18564979236E+03  0.25459513775E+03  0.17200000000E+03 0. -1.
<mgrwt>
<rscale>  2 0.17422066E+03</rscale>
<asrwt>0</asrwt>
<pdfrwt beam="1">  1       21 0.14949720E-01 0.17422066E+03</pdfrwt>
<pdfrwt beam="2">  1       21 0.12993534E+00 0.17422066E+03</pdfrwt>
<totfact> 0.17296565E+04</totfact>
</mgrwt>
</event>
<event>
 4    1  0.2417478E-001  0.2118145E+03  0.7546771E-02  0.1140137E+00
         21   -1    0    0  501  502  0.00000000000E+00  0.00000000000E+00  0.20951882285E+03  0.20951882285E+03  0.00000000000E+00 0. -1.
         21   -1    0    0  502  503 -0.00000000000E+00 -0.00000000000E+00 -0.30833180280E+03  0.30833180280E+03  0.00000000000E+00 0.  1.
          6    1    1    2  501    0  0.46751225995E+02  0.11443642626E+03  0.93707725218E+02  0.23161716377E+03  0.17200000000E+03 0. -1.
         -6    1    1    2    0  503 -0.46751225995E+02 -0.11443642626E+03 -0.19252070517E+03  0.28623346189E+03  0.17200000000E+03 0.  1.
<mgrwt>
<rscale>  2 0.21181448E+03</rscale>
<asrwt>0</asrwt>
<pdfrwt beam="1">  1       21 0.52379706E-01 0.21181448E+03</pdfrwt>
<pdfrwt beam="2">  1       21 0.77082950E-01 0.21181448E+03</pdfrwt>
<totfact> 0.50945513E+03</totfact>
</mgrwt>
</event>
<event>
 4    1  0.2417478E-001  0.1900757E+03  0.7546771E-02  0.1158393E+00
         21   -1    0    0  503  502  0.00000000000E+00  0.00000000000E+00  0.38348305414E+03  0.38348305414E+03  0.00000000000E+00 0.  1.
         21   -1    0    0  501  503 -0.00000000000E+00 -0.00000000000E+00 -0.97357814988E+02  0.97357814988E+02  0.00000000000E+00 0.  1.
          6    1    1    2  501    0 -0.73654014910E+02  0.33464227100E+02  0.18627828782E+03  0.26613599704E+03  0.17200000000E+03 0.  1.
         -6    1    1    2    0  502  0.73654014910E+02 -0.33464227100E+02  0.99846951334E+02  0.21470487209E+03  0.17200000000E+03 0.  1.
<mgrwt>
<rscale>  2 0.19007569E+03</rscale>
<asrwt>0</asrwt>
<pdfrwt beam="1">  1       21 0.95870760E-01 0.19007569E+03</pdfrwt>
<pdfrwt beam="2">  1       21 0.24339455E-01 0.19007569E+03</pdfrwt>
<totfact> 0.14478327E+04</totfact>
</mgrwt>
</event>
<event>
 4    1  0.2417478E-001  0.1877031E+03  0.7546771E-02  0.1160549E+00
         21   -1    0    0  501  502  0.00000000000E+00  0.00000000000E+00  0.21200700552E+03  0.21200700552E+03  0.00000000000E+00 0.  1.
         21   -1    0    0  502  503 -0.00000000000E+00 -0.00000000000E+00 -0.34223954158E+03  0.34223954158E+03  0.00000000000E+00 0.  1.
          6    1    1    2  501    0  0.56146845320E+01  0.74946128250E+02  0.13364472594E+03  0.23041996353E+03  0.17200000000E+03 0.  1.
         -6    1    1    2    0  503 -0.56146845320E+01 -0.74946128250E+02 -0.26387726200E+03  0.32382658356E+03  0.17200000000E+03 0.  1.
<mgrwt>
<rscale>  2 0.18770308E+03</rscale>
<asrwt>0</asrwt>
<pdfrwt beam="1">  1       21 0.53001752E-01 0.18770308E+03</pdfrwt>
<pdfrwt beam="2">  1       21 0.85559885E-01 0.18770308E+03</pdfrwt>
<totfact> 0.39969754E+03</totfact>
</mgrwt>
</event>
<event>
 4    1  0.2417478E-001  0.1943844E+03  0.7546771E-02  0.1154565E+00
         21   -1    0    0  503  502  0.00000000000E+00  0.00000000000E+00  0.10844234822E+03  0.10844234822E+03  0.00000000000E+00 0. -1.
         21   -1    0    0  501  503 -0.00000000000E+00 -0.00000000000E+00 -0.42974318743E+03  0.42974318743E+03  0.00000000000E+00 0. -1.
          6    1    1    2  501    0  0.31933439417E+02  0.84744111510E+02 -0.27769727620E+03  0.33897062733E+03  0.17200000000E+03 0. -1.
         -6    1    1    2    0  502 -0.31933439417E+02 -0.84744111510E+02 -0.43603563012E+02  0.19921490832E+03  0.17200000000E+03 0. -1.
<mgrwt>
<rscale>  2 0.19438444E+03</rscale>
<asrwt>0</asrwt>
<pdfrwt beam="1">  1       21 0.27110587E-01 0.19438444E+03</pdfrwt>
<pdfrwt beam="2">  1       21 0.10743580E+00 0.19438444E+03</pdfrwt>
<totfact> 0.89542972E+03</totfact>
</mgrwt>
</event>
<event>
 4    1  0.2417478E-001  0.2003649E+03  0.7546771E-02  0.1149432E+00
         21   -1    0    0  501  502  0.00000000000E+00  0.00000000000E+00  0.47219019662E+03  0.47219019662E+03  0.00000000000E+00 0. -1.
         21   -1    0    0  502  503 -0.00000000000E+00 -0.00000000000E+00 -0.98792266611E+02  0.98792266611E+02  0.00000000000E+00 0.  1.
          6    1    1    2  501    0  0.69859001877E+02  0.75377820216E+02  0.29328929361E+03  0.35519671405E+03  0.17200000000E+03 0. -1.
         -6    1    1    2    0  503 -0.69859001877E+02 -0.75377820216E+02  0.80108636392E+02  0.21578574918E+03  0.17200000000E+03 0.  1.
<mgrwt>
<rscale>  2 0.20036491E+03</rscale>
<asrwt>0</asrwt>
<pdfrwt beam="1">  1       21 0.11804754E+00 0.20036491E+03</pdfrwt>
<pdfrwt beam="2">  1       21 0.24698068E-01 0.20036491E+03</pdfrwt>
<totfact> 0.84768511E+03</totfact>
</mgrwt>
</event>
<event>
 4    1  0.2417478E-001  0.3579882E+03  0.7546771E-02  0.1059383E+00
         21   -1    0    0  503  502  0.00000000000E+00  0.00000000000E+00  0.15450969634E+03  0.15450969634E+03  0.00000000000E+00 0. -1.
         21   -1    0    0  501  503 -0.00000000000E+00 -0.00000000000E+00 -0.89629162408E+03  0.89629162408E+03  0.00000000000E+00 0.  1.
          6    1    1    2  501    0 -0.25082030662E+03  0.18884056544E+03 -0.51438756920E+03  0.62669781930E+03  0.17200000000E+03 0.  1.
         -6    1    1    2    0  502  0.25082030662E+03 -0.18884056544E+03 -0.22739435854E+03  0.42410350112E+03  0.17200000000E+03 0. -1.
<mgrwt>
<rscale>  2 0.35798825E+03</rscale>
<asrwt>0</asrwt>
<pdfrwt beam="1">  1       21 0.38627425E-01 0.35798825E+03</pdfrwt>
<pdfrwt beam="2">  1       21 0.22407290E+00 0.35798825E+03</pdfrwt>
<totfact> 0.52919974E+02</totfact>
</mgrwt>
</event>
<event>
 4    1  0.2417478E-001  0.1823727E+03  0.7546771E-02  0.1165526E+00
         21   -1    0    0  501  502  0.00000000000E+00  0.00000000000E+00  0.15429697407E+03  0.15429697407E+03  0.00000000000E+00 0.  1.
         21   -1    0    0  502  503 -0.00000000000E+00 -0.00000000000E+00 -0.21562216043E+03  0.21562216043E+03  0.00000000000E+00 0.  1.
          6    1    1    2  501    0 -0.45627655720E+02  0.39923759185E+02 -0.33878429198E+02  0.18549268848E+03  0.17200000000E+03 0.  1.
         -6    1    1    2    0  503  0.45627655720E+02 -0.39923759185E+02 -0.27446757164E+02  0.18442644602E+03  0.17200000000E+03 0.  1.
<mgrwt>
<rscale>  2 0.18237267E+03</rscale>
<asrwt>0</asrwt>
<pdfrwt beam="1">  1       21 0.38574244E-01 0.18237267E+03</pdfrwt>
<pdfrwt beam="2">  1       21 0.53905540E-01 0.18237267E+03</pdfrwt>
<totfact> 0.21217992E+04</totfact>
</mgrwt>
</event>
<event>
 4    1  0.2417478E-001  0.2058780E+03  0.7546771E-02  0.1144872E+00
         21   -1    0    0  501  502  0.00000000000E+00  0.00000000000E+00  0.34440085591E+03  0.34440085591E+03  0.00000000000E+00 0.  1.
         21   -1    0    0  502  503 -0.00000000000E+00 -0.00000000000E+00 -0.15406864900E+03  0.15406864900E+03  0.00000000000E+00 0. -1.
          6    1    1    2  501    0  0.11281131410E+03  0.86805663355E+01 -0.16627280537E+02  0.20654832674E+03  0.17200000000E+03 0. -1.
         -6    1    1    2    0  503 -0.11281131410E+03 -0.86805663355E+01  0.20695948744E+03  0.29192117817E+03  0.17200000000E+03 0.  1.
<mgrwt>
<rscale>  2 0.20587799E+03</rscale>
<asrwt>0</asrwt>
<pdfrwt beam="1">  1       21 0.86100213E-01 0.20587799E+03</pdfrwt>
<pdfrwt beam="2">  1       21 0.38517163E-01 0.20587799E+03</pdfrwt>
<totfact> 0.74898124E+03</totfact>
</mgrwt>
</event>
<event>
 4    1  0.2417478E-001  0.1868322E+03  0.7546771E-02  0.1161350E+00
         21   -1    0    0  501  502  0.00000000000E+00  0.00000000000E+00  0.11365910149E+03  0.11365910149E+03  0.00000000000E+00 0. -1.
         21   -1    0    0  502  503 -0.00000000000E+00 -0.00000000000E+00 -0.32622064472E+03  0.32622064472E+03  0.00000000000E+00 0. -1.
          6    1    1    2  501    0 -0.59123285622E+02 -0.42740099174E+02 -0.53052459502E+02  0.19421854299E+03  0.17200000000E+03 0. -1.
         -6    1    1    2    0  503  0.59123285622E+02  0.42740099174E+02 -0.15950908372E+03  0.24566120322E+03  0.17200000000E+03 0. -1.
<mgrwt>
<rscale>  2 0.18683222E+03</rscale>
<asrwt>0</asrwt>
<pdfrwt beam="1">  1       21 0.28414776E-01 0.18683222E+03</pdfrwt>
<pdfrwt beam="2">  1       21 0.81555161E-01 0.18683222E+03</pdfrwt>
<totfact> 0.15649332E+04</totfact>
</mgrwt>
</event>
<event>
 4    1  0.2417478E-001  0.1734332E+03  0.7546771E-02  0.1174314E+00
         21   -1    0    0  501  502  0.00000000000E+00  0.00000000000E+00  0.21331073772E+03  0.21331073772E+03  0.00000000000E+00 0. -1.
         21   -1    0    0  502  503 -0.00000000000E+00 -0.00000000000E+00 -0.61371878953E+03  0.61371878953E+03  0.00000000000E+00 0.  1.
          6    1    1    2  501    0  0.19483207207E+02  0.10746225061E+02  0.16270926162E+03  0.23780954677E+03  0.17200000000E+03 0. -1.
         -6    1    1    2    0  503 -0.19483207207E+02 -0.10746225061E+02 -0.56311731343E+03  0.58921998048E+03  0.17200000000E+03 0.  1.
<mgrwt>
<rscale>  2 0.17343321E+03</rscale>
<asrwt>0</asrwt>
<pdfrwt beam="1">  1       21 0.53327685E-01 0.17343321E+03</pdfrwt>
<pdfrwt beam="2">  1       21 0.15342970E+00 0.17343321E+03</pdfrwt>
<totfact> 0.95763391E+02</totfact>
</mgrwt>
</event>
<event>
 4    1  0.2417478E-001  0.2454709E+03  0.7546771E-02  0.1116201E+00
         21   -1    0    0  503  502  0.00000000000E+00  0.00000000000E+00  0.10409524910E+04  0.10409524910E+04  0.00000000000E+00 0. -1.
         21   -1    0    0  501  503 -0.00000000000E+00 -0.00000000000E+00 -0.58954176807E+02  0.58954176807E+02  0.00000000000E+00 0.  1.
          6    1    1    2  501    0  0.90681216894E+02 -0.14982954642E+03  0.41695219788E+03  0.48384409824E+03  0.17200000000E+03 0.  1.
         -6    1    1    2    0  502 -0.90681216894E+02  0.14982954642E+03  0.56504611635E+03  0.61606256961E+03  0.17200000000E+03 0.  1.
<mgrwt>
<rscale>  2 0.24547093E+03</rscale>
<asrwt>0</asrwt>
<pdfrwt beam="1">  1       21 0.26023806E+00 0.24547093E+03</pdfrwt>
<pdfrwt beam="2">  1       21 0.14738548E-01 0.24547093E+03</pdfrwt>
<totfact> 0.22210350E+03</totfact>
</mgrwt>
</event>
<event>
 4    1  0.2417478E-001  0.1797147E+03  0.7546771E-02  0.1168079E+00
         21   -1    0    0  501  502  0.00000000000E+00  0.00000000000E+00  0.21325618807E+03  0.21325618807E+03  0.00000000000E+00 0. -1.
         21   -1    0    0  502  503 -0.00000000000E+00 -0.00000000000E+00 -0.15950425894E+03  0.15950425894E+03  0.00000000000E+00 0. -1.
          6    1    1    2  501    0  0.37852545704E+02  0.35784731154E+02  0.68761379488E+02  0.19242008603E+03  0.17200000000E+03 0. -1.
         -6    1    1    2    0  503 -0.37852545704E+02 -0.35784731154E+02 -0.15009450357E+02  0.18034036098E+03  0.17200000000E+03 0. -1.
<mgrwt>
<rscale>  2 0.17971467E+03</rscale>
<asrwt>0</asrwt>
<pdfrwt beam="1">  1       21 0.53314047E-01 0.17971467E+03</pdfrwt>
<pdfrwt beam="2">  1       21 0.39876065E-01 0.17971467E+03</pdfrwt>
<totfact> 0.20346516E+04</totfact>
</mgrwt>
</event>
<event>
 4    1  0.2417478E-001  0.1995792E+03  0.7546771E-02  0.1150095E+00
         21   -1    0    0  501  502  0.00000000000E+00  0.00000000000E+00  0.12541554160E+03  0.12541554160E+03  0.00000000000E+00 0. -1.
         21   -1    0    0  502  503 -0.00000000000E+00 -0.00000000000E+00 -0.31810339754E+03  0.31810339754E+03  0.00000000000E+00 0.  1.
          6    1    1    2  501    0 -0.43681227398E+02  0.91322587634E+02 -0.87514424191E+02  0.21792347070E+03  0.17200000000E+03 0.  1.
         -6    1    1    2    0  503  0.43681227398E+02 -0.91322587634E+02 -0.10517343175E+03  0.22559546845E+03  0.17200000000E+03 0.  1.
<mgrwt>
<rscale>  2 0.19957922E+03</rscale>
<asrwt>0</asrwt>
<pdfrwt beam="1">  1       21 0.31353886E-01 0.19957922E+03</pdfrwt>
<pdfrwt beam="2">  1       21 0.79525849E-01 0.19957922E+03</pdfrwt>
<totfact> 0.13564773E+04</totfact>
</mgrwt>
</event>
<event>
 4    1  0.2417478E-001  0.1901133E+03  0.7546771E-02  0.1158359E+00
         21   -1    0    0  501  502  0.00000000000E+00  0.00000000000E+00  0.45079023558E+03  0.45079023558E+03  0.00000000000E+00 0.  1.
         21   -1    0    0  502  503 -0.00000000000E+00 -0.00000000000E+00 -0.80190340604E+02  0.80190340604E+02  0.00000000000E+00 0. -1.
          6    1    1    2  501    0 -0.52954654158E+02  0.61276940208E+02  0.18870998754E+03  0.26787033840E+03  0.17200000000E+03 0.  1.
         -6    1    1    2    0  503  0.52954654158E+02 -0.61276940208E+02  0.18188990743E+03  0.26311023778E+03  0.17200000000E+03 0. -1.
<mgrwt>
<rscale>  2 0.19011328E+03</rscale>
<asrwt>0</asrwt>
<pdfrwt beam="1">  1       21 0.11269755E+00 0.19011328E+03</pdfrwt>
<pdfrwt beam="2">  1       21 0.20047586E-01 0.19011328E+03</pdfrwt>
<totfact> 0.14176886E+04</totfact>
</mgrwt>
</event>
<event>
 4    1  0.2417478E-001  0.2189853E+03  0.7546771E-02  0.1134642E+00
         21   -1    0    0  503  502  0.00000000000E+00  0.00000000000E+00  0.46746153297E+02  0.46746153297E+02  0.00000000000E+00 0.  1.
         21   -1    0    0  501  503 -0.00000000000E+00 -0.00000000000E+00 -0.11844485900E+04  0.11844485900E+04  0.00000000000E+00 0.  1.
          6    1    1    2  501    0 -0.11171059866E+03  0.76754809385E+02 -0.34358928627E+03  0.40744098500E+03  0.17200000000E+03 0.  1.
         -6    1    1    2    0  502  0.11171059866E+03 -0.76754809385E+02 -0.79411315040E+03  0.82375375827E+03  0.17200000000E+03 0.  1.
<mgrwt>
<rscale>  2 0.21898529E+03</rscale>
<asrwt>0</asrwt>
<pdfrwt beam="1">  1       21 0.11686539E-01 0.21898529E+03</pdfrwt>
<pdfrwt beam="2">  1       21 0.29611213E+00 0.21898529E+03</pdfrwt>
<totfact> 0.21433852E+03</totfact>
</mgrwt>
</event>
<event>
 4    1  0.2417478E-001  0.1888421E+03  0.7546771E-02  0.1159510E+00
         21   -1    0    0  503  502  0.00000000000E+00  0.00000000000E+00  0.17739023398E+03  0.17739023398E+03  0.00000000000E+00 0. -1.
         21   -1    0    0  501  503 -0.00000000000E+00 -0.00000000000E+00 -0.22968273075E+03  0.22968273075E+03  0.00000000000E+00 0. -1.
          6    1    1    2  501    0 -0.32346797238E+02 -0.70929705737E+02  0.45738430019E+02  0.19430219358E+03  0.17200000000E+03 0. -1.
         -6    1    1    2    0  502  0.32346797238E+02  0.70929705737E+02 -0.98030926789E+02  0.21277077115E+03  0.17200000000E+03 0. -1.
<mgrwt>
<rscale>  2 0.18884210E+03</rscale>
<asrwt>0</asrwt>
<pdfrwt beam="1">  1       21 0.44347559E-01 0.18884210E+03</pdfrwt>
<pdfrwt beam="2">  1       21 0.57420682E-01 0.18884210E+03</pdfrwt>
<totfact> 0.13933560E+04</totfact>
</mgrwt>
</event>
<event>
 4    1  0.2417478E-001  0.2100016E+03  0.7546771E-02  0.1141565E+00
         21   -1    0    0  501  502  0.00000000000E+00  0.00000000000E+00  0.22662113327E+03  0.22662113327E+03  0.00000000000E+00 0. -1.
         21   -1    0    0  502  503 -0.00000000000E+00 -0.00000000000E+00 -0.27623562469E+03  0.27623562469E+03  0.00000000000E+00 0. -1.
          6    1    1    2  501    0  0.11953124112E+03 -0.15131540199E+02  0.11187492396E+03  0.23794259754E+03  0.17200000000E+03 0. -1.
         -6    1    1    2    0  503 -0.11953124112E+03  0.15131540199E+02 -0.16148941538E+03  0.26491416042E+03  0.17200000000E+03 0. -1.
<mgrwt>
<rscale>  2 0.21000162E+03</rscale>
<asrwt>0</asrwt>
<pdfrwt beam="1">  1       21 0.56655283E-01 0.21000162E+03</pdfrwt>
<pdfrwt beam="2">  1       21 0.69058906E-01 0.21000162E+03</pdfrwt>
<totfact> 0.55187384E+03</totfact>
</mgrwt>
</event>
<event>
 4    1  0.2417478E-001  0.2066788E+03  0.7546771E-02  0.1144223E+00
         21   -1    0    0  503  502  0.00000000000E+00  0.00000000000E+00  0.67667423014E+02  0.67667423014E+02  0.00000000000E+00 0.  1.
         21   -1    0    0  501  503 -0.00000000000E+00 -0.00000000000E+00 -0.67992418422E+03  0.67992418422E+03  0.00000000000E+00 0. -1.
          6    1    1    2  501    0 -0.29556031567E+02  0.11071842614E+03 -0.40612448631E+03  0.45568983670E+03  0.17200000000E+03 0. -1.
         -6    1    1    2    0  502  0.29556031567E+02 -0.11071842614E+03 -0.20613227490E+03  0.29190177054E+03  0.17200000000E+03 0.  1.
<mgrwt>
<rscale>  2 0.20667881E+03</rscale>
<asrwt>0</asrwt>
<pdfrwt beam="1">  1       21 0.16916856E-01 0.20667881E+03</pdfrwt>
<pdfrwt beam="2">  1       21 0.16998104E+00 0.20667881E+03</pdfrwt>
<totfact> 0.66416808E+03</totfact>
</mgrwt>
</event>
<event>
 4    1  0.2417478E-001  0.1913053E+03  0.7546771E-02  0.1157289E+00
         21   -1    0    0  501  502  0.00000000000E+00  0.00000000000E+00  0.15825583368E+03  0.15825583368E+03  0.00000000000E+00 0. -1.
         21   -1    0    0  502  503 -0.00000000000E+00 -0.00000000000E+00 -0.23125663942E+03  0.23125663942E+03  0.00000000000E+00 0. -1.
          6    1    1    2  501    0  0.80345970530E+02  0.23626824390E+02 -0.36604493393E+02  0.19477574476E+03  0.17200000000E+03 0. -1.
         -6    1    1    2    0  503 -0.80345970530E+02 -0.23626824390E+02 -0.36396312354E+02  0.19473672834E+03  0.17200000000E+03 0. -1.
<mgrwt>
<rscale>  2 0.19130526E+03</rscale>
<asrwt>0</asrwt>
<pdfrwt beam="1">  1       21 0.39563959E-01 0.19130526E+03</pdfrwt>
<pdfrwt beam="2">  1       21 0.57814160E-01 0.19130526E+03</pdfrwt>
<totfact> 0.17291844E+04</totfact>
</mgrwt>
</event>
<event>
 4    1  0.2417478E-001  0.2111872E+03  0.7546771E-02  0.1140629E+00
         21   -1    0    0  503  502  0.00000000000E+00  0.00000000000E+00  0.59392547992E+02  0.59392547992E+02  0.00000000000E+00 0. -1.
         21   -1    0    0  501  503 -0.00000000000E+00 -0.00000000000E+00 -0.88917465349E+03  0.88917465349E+03  0.00000000000E+00 0.  1.
          6    1    1    2  501    0 -0.84956170360E+01 -0.12224510786E+03 -0.60189822974E+03  0.63787265255E+03  0.17200000000E+03 0. -1.
         -6    1    1    2    0  502  0.84956170360E+01  0.12224510786E+03 -0.22788387575E+03  0.31069454893E+03  0.17200000000E+03 0.  1.
<mgrwt>
<rscale>  2 0.21118722E+03</rscale>
<asrwt>0</asrwt>
<pdfrwt beam="1">  1       21 0.14848137E-01 0.21118722E+03</pdfrwt>
<pdfrwt beam="2">  1       21 0.22229366E+00 0.21118722E+03</pdfrwt>
<totfact> 0.38222804E+03</totfact>
</mgrwt>
</event>
<event>
 4    1  0.2417478E-001  0.1949186E+03  0.7546771E-02  0.1154098E+00
         21   -1    0    0  501  502  0.00000000000E+00  0.00000000000E+00  0.65524284087E+02  0.65524284087E+02  0.00000000000E+00 0. -1.
         21   -1    0    0  502  503 -0.00000000000E+00 -0.00000000000E+00 -0.72995701698E+03  0.72995701698E+03  0.00000000000E+00 0.  1.
          6    1    1    2  501    0 -0.78809262478E+02 -0.46886494927E+02 -0.15184225961E+03  0.24708159596E+03  0.17200000000E+03 0. -1.
         -6    1    1    2    0  503  0.78809262478E+02  0.46886494927E+02 -0.51259047328E+03  0.54839970510E+03  0.17200000000E+03 0.  1.
<mgrwt>
<rscale>  2 0.19491856E+03</rscale>
<asrwt>0</asrwt>
<pdfrwt beam="1">  1       21 0.16381071E-01 0.19491856E+03</pdfrwt>
<pdfrwt beam="2">  1       21 0.18248926E+00 0.19491856E+03</pdfrwt>
<totfact> 0.58338336E+03</totfact>
</mgrwt>
</event>
<event>
 4    1  0.2417478E-001  0.2550694E+03  0.7546771E-02  0.1110142E+00
         21   -1    0    0  503  502  0.00000000000E+00  0.00000000000E+00  0.39794857651E+02  0.39794857651E+02  0.00000000000E+00 0.  1.
         21   -1    0    0  501  503 -0.00000000000E+00 -0.00000000000E+00 -0.16681053919E+04  0.16681053919E+04  0.00000000000E+00 0.  1.
          6    1    1    2  501    0 -0.15128107772E+03 -0.11220712884E+03 -0.69366295612E+03  0.73907286578E+03  0.17200000000E+03 0.  1.
         -6    1    1    2    0  502  0.15128107772E+03  0.11220712884E+03 -0.93464757811E+03  0.96882738375E+03  0.17200000000E+03 0.  1.
<mgrwt>
<rscale>  2 0.25506941E+03</rscale>
<asrwt>0</asrwt>
<pdfrwt beam="1">  1       21 0.99487142E-02 0.25506941E+03</pdfrwt>
<pdfrwt beam="2">  1       21 0.41702636E+00 0.25506941E+03</pdfrwt>
<totfact> 0.51036100E+02</totfact>
</mgrwt>
</event>
<event>
 4    1  0.2417478E-001  0.2253865E+03  0.7546771E-02  0.1129930E+00
         21   -1    0    0  501  502  0.00000000000E+00  0.00000000000E+00  0.44228566111E+03  0.44228566111E+03  0.00000000000E+00 0. -1.
         21   -1    0    0  502  503 -0.00000000000E+00 -0.00000000000E+00 -0.12069339388E+03  0.12069339388E+03  0.00000000000E+00 0. -1.
          6    1    1    2  501    0 -0.14414388208E+03  0.20918813221E+02  0.22270301701E+03  0.31685278801E+03  0.17200000000E+03 0. -1.
         -6    1    1    2    0  503  0.14414388208E+03 -0.20918813221E+02  0.98889250229E+02  0.24612626698E+03  0.17200000000E+03 0. -1.
<mgrwt>
<rscale>  2 0.22538646E+03</rscale>
<asrwt>0</asrwt>
<pdfrwt beam="1">  1       21 0.11057141E+00 0.22538646E+03</pdfrwt>
<pdfrwt beam="2">  1       21 0.30173350E-01 0.22538646E+03</pdfrwt>
<totfact> 0.66356724E+03</totfact>
</mgrwt>
</event>
<event>
 4    1  0.2417478E-001  0.1742830E+03  0.7546771E-02  0.1173454E+00
         21   -1    0    0  501  502  0.00000000000E+00  0.00000000000E+00  0.37119882715E+03  0.37119882715E+03  0.00000000000E+00 0.  1.
         21   -1    0    0  502  503 -0.00000000000E+00 -0.00000000000E+00 -0.87351859015E+02  0.87351859015E+02  0.00000000000E+00 0.  1.
          6    1    1    2  501    0  0.23154546706E+02  0.15951106798E+02  0.19957763476E+03  0.26496377703E+03  0.17200000000E+03 0.  1.
         -6    1    1    2    0  503 -0.23154546706E+02 -0.15951106798E+02  0.84269333377E+02  0.19358690914E+03  0.17200000000E+03 0.  1.
<mgrwt>
<rscale>  2 0.17428302E+03</rscale>
<asrwt>0</asrwt>
<pdfrwt beam="1">  1       21 0.92799703E-01 0.17428302E+03</pdfrwt>
<pdfrwt beam="2">  1       21 0.21837966E-01 0.17428302E+03</pdfrwt>
<totfact> 0.19373606E+04</totfact>
</mgrwt>
</event>
<event>
 4    1  0.2417478E-001  0.2031214E+03  0.7546771E-02  0.1147132E+00
         21   -1    0    0  503  502  0.00000000000E+00  0.00000000000E+00  0.79702245471E+02  0.79702245471E+02  0.00000000000E+00 0. -1.
         21   -1    0    0  501  503 -0.00000000000E+00 -0.00000000000E+00 -0.61157639914E+03  0.61157639914E+03  0.00000000000E+00 0.  1.
          6    1    1    2  501    0 -0.10616538161E+03 -0.20080641939E+02 -0.40138691187E+03  0.44985528056E+03  0.17200000000E+03 0. -1.
         -6    1    1    2    0  502  0.10616538161E+03  0.20080641939E+02 -0.13048724180E+03  0.24142336405E+03  0.17200000000E+03 0.  1.
<mgrwt>
<rscale>  2 0.20312144E+03</rscale>
<asrwt>0</asrwt>
<pdfrwt beam="1">  1       21 0.19925562E-01 0.20312144E+03</pdfrwt>
<pdfrwt beam="2">  1       21 0.15289410E+00 0.20312144E+03</pdfrwt>
<totfact> 0.65503411E+03</totfact>
</mgrwt>
</event>
<event>
 4    1  0.2417478E-001  0.1852470E+03  0.7546771E-02  0.1162819E+00
         21   -1    0    0  503  502  0.00000000000E+00  0.00000000000E+00  0.24606762681E+02  0.24606762681E+02  0.00000000000E+00 0. -1.
         21   -1    0    0  501  503 -0.00000000000E+00 -0.00000000000E+00 -0.13976480055E+04  0.13976480055E+04  0.00000000000E+00 0. -1.
          6    1    1    2  501    0  0.24501684234E+02 -0.64281641731E+02 -0.71975826518E+03  0.74321492335E+03  0.17200000000E+03 0. -1.
         -6    1    1    2    0  502 -0.24501684234E+02  0.64281641731E+02 -0.65328297759E+03  0.67903984478E+03  0.17200000000E+03 0. -1.
<mgrwt>
<rscale>  2 0.18524703E+03</rscale>
<asrwt>0</asrwt>
<pdfrwt beam="1">  1       21 0.61516917E-02 0.18524703E+03</pdfrwt>
<pdfrwt beam="2">  1       21 0.34941194E+00 0.18524703E+03</pdfrwt>
<totfact> 0.33637138E+03</totfact>
</mgrwt>
</event>
<event>
 4    1  0.2417478E-001  0.3504185E+03  0.7546771E-02  0.1062443E+00
         21   -1    0    0  503  502  0.00000000000E+00  0.00000000000E+00  0.17802219755E+03  0.17802219755E+03  0.00000000000E+00 0. -1.
         21   -1    0    0  501  503 -0.00000000000E+00 -0.00000000000E+00 -0.75050148588E+03  0.75050148588E+03  0.00000000000E+00 0.  1.
          6    1    1    2  501    0  0.14059016138E+03  0.27100463315E+03 -0.15416495365E+03  0.38283147415E+03  0.17200000000E+03 0. -1.
         -6    1    1    2    0  502 -0.14059016138E+03 -0.27100463315E+03 -0.41831433468E+03  0.54569220928E+03  0.17200000000E+03 0.  1.
<mgrwt>
<rscale>  2 0.35041847E+03</rscale>
<asrwt>0</asrwt>
<pdfrwt beam="1">  1       21 0.44505550E-01 0.35041847E+03</pdfrwt>
<pdfrwt beam="2">  1       21 0.18762537E+00 0.35041847E+03</pdfrwt>
<totfact> 0.68670646E+02</totfact>
</mgrwt>
</event>
<event>
 4    1  0.2417478E-001  0.2423737E+03  0.7546771E-02  0.1118222E+00
         21   -1    0    0  503  502  0.00000000000E+00  0.00000000000E+00  0.12522205390E+03  0.12522205390E+03  0.00000000000E+00 0. -1.
         21   -1    0    0  501  503 -0.00000000000E+00 -0.00000000000E+00 -0.47107765465E+03  0.47107765465E+03  0.00000000000E+00 0. -1.
          6    1    1    2  501    0 -0.16790197946E+03  0.31143808458E+02 -0.19211491309E+03  0.30927843659E+03  0.17200000000E+03 0. -1.
         -6    1    1    2    0  502  0.16790197946E+03 -0.31143808458E+02 -0.15374068766E+03  0.28702127196E+03  0.17200000000E+03 0. -1.
<mgrwt>
<rscale>  2 0.24237370E+03</rscale>
<asrwt>0</asrwt>
<pdfrwt beam="1">  1       21 0.31305514E-01 0.24237370E+03</pdfrwt>
<pdfrwt beam="2">  1       21 0.11776941E+00 0.24237370E+03</pdfrwt>
<totfact> 0.52295445E+03</totfact>
</mgrwt>
</event>
<event>
 4    1  0.2417478E-001  0.2583665E+03  0.7546771E-02  0.1108129E+00
         21   -1    0    0  503  502  0.00000000000E+00  0.00000000000E+00  0.11070197830E+03  0.11070197830E+03  0.00000000000E+00 0.  1.
         21   -1    0    0  501  503 -0.00000000000E+00 -0.00000000000E+00 -0.60301060149E+03  0.60301060149E+03  0.00000000000E+00 0. -1.
          6    1    1    2  501    0 -0.19241201553E+03 -0.12117883929E+02 -0.24461647710E+03  0.35579551388E+03  0.17200000000E+03 0.  1.
         -6    1    1    2    0  502  0.19241201553E+03  0.12117883929E+02 -0.24769214610E+03  0.35791706591E+03  0.17200000000E+03 0. -1.
<mgrwt>
<rscale>  2 0.25836646E+03</rscale>
<asrwt>0</asrwt>
<pdfrwt beam="1">  1       21 0.27675495E-01 0.25836646E+03</pdfrwt>
<pdfrwt beam="2">  1       21 0.15075265E+00 0.25836646E+03</pdfrwt>
<totfact> 0.34918005E+03</totfact>
</mgrwt>
</event>
<event>
 4    1  0.2417478E-001  0.2427917E+03  0.7546771E-02  0.1117947E+00
         21   -1    0    0  503  502  0.00000000000E+00  0.00000000000E+00  0.15812556786E+03  0.15812556786E+03  0.00000000000E+00 0.  1.
         21   -1    0    0  501  503 -0.00000000000E+00 -0.00000000000E+00 -0.48260290050E+03  0.48260290050E+03  0.00000000000E+00 0. -1.
          6    1    1    2  501    0 -0.39135273655E+02  0.16683001446E+03 -0.31505625051E+03  0.39775402494E+03  0.17200000000E+03 0. -1.
         -6    1    1    2    0  502  0.39135273655E+02 -0.16683001446E+03 -0.94210821311E+01  0.24297444343E+03  0.17200000000E+03 0.  1.
<mgrwt>
<rscale>  2 0.24279173E+03</rscale>
<asrwt>0</asrwt>
<pdfrwt beam="1">  1       21 0.39531392E-01 0.24279173E+03</pdfrwt>
<pdfrwt beam="2">  1       21 0.12065072E+00 0.24279173E+03</pdfrwt>
<totfact> 0.30888349E+03</totfact>
</mgrwt>
</event>
<event>
 4    1  0.2417478E-001  0.1764294E+03  0.7546771E-02  0.1171304E+00
         21   -1    0    0  501  502  0.00000000000E+00  0.00000000000E+00  0.92544076946E+03  0.92544076946E+03  0.00000000000E+00 0.  1.
         21   -1    0    0  502  503 -0.00000000000E+00 -0.00000000000E+00 -0.45378883544E+02  0.45378883544E+02  0.00000000000E+00 0.  1.
          6    1    1    2  501    0 -0.38922077281E+02  0.53280893172E+01  0.68696739484E+03  0.70926124821E+03  0.17200000000E+03 0.  1.
         -6    1    1    2    0  503  0.38922077281E+02 -0.53280893172E+01  0.19309449108E+03  0.26155840480E+03  0.17200000000E+03 0.  1.
<mgrwt>
<rscale>  2 0.17642935E+03</rscale>
<asrwt>0</asrwt>
<pdfrwt beam="1">  1       21 0.23136013E+00 0.17642935E+03</pdfrwt>
<pdfrwt beam="2">  1       21 0.11344724E-01 0.17642935E+03</pdfrwt>
<totfact> 0.56593911E+03</totfact>
</mgrwt>
</event>
<event>
 4    1  0.2417478E-001  0.1999154E+03  0.7546771E-02  0.1149810E+00
         21   -1    0    0  503  502  0.00000000000E+00  0.00000000000E+00  0.41272101964E+02  0.41272101964E+02  0.00000000000E+00 0. -1.
         21   -1    0    0  501  503 -0.00000000000E+00 -0.00000000000E+00 -0.10465857639E+04  0.10465857639E+04  0.00000000000E+00 0. -1.
          6    1    1    2  501    0 -0.57144761882E+02 -0.84360153771E+02 -0.35394828377E+03  0.40650405525E+03  0.17200000000E+03 0. -1.
         -6    1    1    2    0  502  0.57144761882E+02  0.84360153771E+02 -0.65136537812E+03  0.68135381057E+03  0.17200000000E+03 0. -1.
<mgrwt>
<rscale>  2 0.19991538E+03</rscale>
<asrwt>0</asrwt>
<pdfrwt beam="1">  1       21 0.10318026E-01 0.19991538E+03</pdfrwt>
<pdfrwt beam="2">  1       21 0.26164644E+00 0.19991538E+03</pdfrwt>
<totfact> 0.43300741E+03</totfact>
</mgrwt>
</event>
<event>
 4    1  0.2417478E-001  0.1811884E+03  0.7546771E-02  0.1166658E+00
         21   -1    0    0  501  502  0.00000000000E+00  0.00000000000E+00  0.98184640358E+03  0.98184640358E+03  0.00000000000E+00 0.  1.
         21   -1    0    0  502  503 -0.00000000000E+00 -0.00000000000E+00 -0.37688828932E+02  0.37688828932E+02  0.00000000000E+00 0. -1.
          6    1    1    2  501    0 -0.56967067528E+02 -0.49092372107E-01  0.64331387840E+03  0.66834272296E+03  0.17200000000E+03 0.  1.
         -6    1    1    2    0  503  0.56967067528E+02  0.49092372107E-01  0.30084369625E+03  0.35119250955E+03  0.17200000000E+03 0. -1.
<mgrwt>
<rscale>  2 0.18118844E+03</rscale>
<asrwt>0</asrwt>
<pdfrwt beam="1">  1       21 0.24546152E+00 0.18118844E+03</pdfrwt>
<pdfrwt beam="2">  1       21 0.94222105E-02 0.18118844E+03</pdfrwt>
<totfact> 0.64483895E+03</totfact>
</mgrwt>
</event>
<event>
 4    1  0.2417478E-001  0.1895573E+03  0.7546771E-02  0.1158861E+00
         21   -1    0    0  501  502  0.00000000000E+00  0.00000000000E+00  0.11508579316E+03  0.11508579316E+03  0.00000000000E+00 0.  1.
         21   -1    0    0  502  503 -0.00000000000E+00 -0.00000000000E+00 -0.33275710036E+03  0.33275710036E+03  0.00000000000E+00 0.  1.
          6    1    1    2  501    0 -0.77849195856E+02  0.16955267177E+02 -0.53205340125E+02  0.19688267216E+03  0.17200000000E+03 0. -1.
         -6    1    1    2    0  503  0.77849195856E+02 -0.16955267177E+02 -0.16446596707E+03  0.25096022136E+03  0.17200000000E+03 0. -1.
<mgrwt>
<rscale>  2 0.18955732E+03</rscale>
<asrwt>0</asrwt>
<pdfrwt beam="1">  1       21 0.28771449E-01 0.18955732E+03</pdfrwt>
<pdfrwt beam="2">  1       21 0.83189274E-01 0.18955732E+03</pdfrwt>
<totfact> 0.14577406E+04</totfact>
</mgrwt>
</event>
<event>
 4    1  0.2417478E-001  0.1988962E+03  0.7546771E-02  0.1150674E+00
         21   -1    0    0  503  502  0.00000000000E+00  0.00000000000E+00  0.46292941038E+02  0.46292941038E+02  0.00000000000E+00 0.  1.
         21   -1    0    0  501  503 -0.00000000000E+00 -0.00000000000E+00 -0.91795451674E+03  0.91795451674E+03  0.00000000000E+00 0.  1.
          6    1    1    2  501    0  0.40783321989E+02  0.91172434817E+02 -0.56253866791E+03  0.59666527058E+03  0.17200000000E+03 0.  1.
         -6    1    1    2    0  502 -0.40783321989E+02 -0.91172434817E+02 -0.30912290779E+03  0.36758218720E+03  0.17200000000E+03 0.  1.
<mgrwt>
<rscale>  2 0.19889618E+03</rscale>
<asrwt>0</asrwt>
<pdfrwt beam="1">  1       21 0.11573236E-01 0.19889618E+03</pdfrwt>
<pdfrwt beam="2">  1       21 0.22948862E+00 0.19889618E+03</pdfrwt>
<totfact> 0.54807131E+03</totfact>
</mgrwt>
</event>
<event>
 4    1  0.2417478E-001  0.3002614E+03  0.7546771E-02  0.1085110E+00
         21   -1    0    0  503  502  0.00000000000E+00  0.00000000000E+00  0.28082174858E+03  0.28082174858E+03  0.00000000000E+00 0. -1.
         21   -1    0    0  501  503 -0.00000000000E+00 -0.00000000000E+00 -0.32115316645E+03  0.32115316645E+03  0.00000000000E+00 0. -1.
          6    1    1    2  501    0  0.37767724414E+01  0.24608665126E+03 -0.14686238096E+02  0.30062034117E+03  0.17200000000E+03 0. -1.
         -6    1    1    2    0  502 -0.37767724414E+01 -0.24608665126E+03 -0.25645179781E+02  0.30135457386E+03  0.17200000000E+03 0. -1.
<mgrwt>
<rscale>  2 0.30026139E+03</rscale>
<asrwt>0</asrwt>
<pdfrwt beam="1">  1       21 0.70205438E-01 0.30026139E+03</pdfrwt>
<pdfrwt beam="2">  1       21 0.80288291E-01 0.30026139E+03</pdfrwt>
<totfact> 0.23259471E+03</totfact>
</mgrwt>
</event>
<event>
 4    1  0.2417478E-001  0.1971820E+03  0.7546771E-02  0.1152139E+00
         21   -1    0    0  501  502  0.00000000000E+00  0.00000000000E+00  0.69706098825E+03  0.69706098825E+03  0.00000000000E+00 0.  1.
         21   -1    0    0  502  503 -0.00000000000E+00 -0.00000000000E+00 -0.56752678652E+02  0.56752678652E+02  0.00000000000E+00 0.  1.
          6    1    1    2  501    0 -0.39379152069E+02  0.88011475523E+02  0.27076298664E+03  0.33495273156E+03  0.17200000000E+03 0.  1.
         -6    1    1    2    0  503  0.39379152069E+02 -0.88011475523E+02  0.36954532296E+03  0.41886093535E+03  0.17200000000E+03 0.  1.
<mgrwt>
<rscale>  2 0.19718199E+03</rscale>
<asrwt>0</asrwt>
<pdfrwt beam="1">  1       21 0.17426522E+00 0.19718199E+03</pdfrwt>
<pdfrwt beam="2">  1       21 0.14188172E-01 0.19718199E+03</pdfrwt>
<totfact> 0.86158553E+03</totfact>
</mgrwt>
</event>
<event>
 4    1  0.2417478E-001  0.1902496E+03  0.7546771E-02  0.1158236E+00
         21   -1    0    0  501  502  0.00000000000E+00  0.00000000000E+00  0.45455657144E+03  0.45455657144E+03  0.00000000000E+00 0. -1.
         21   -1    0    0  502  503 -0.00000000000E+00 -0.00000000000E+00 -0.85621133604E+02  0.85621133604E+02  0.00000000000E+00 0. -1.
          6    1    1    2  501    0  0.64797838183E+02 -0.49113684146E+02  0.25593122975E+03  0.31889764528E+03  0.17200000000E+03 0. -1.
         -6    1    1    2    0  503 -0.64797838183E+02  0.49113684146E+02  0.11300420808E+03  0.22128005976E+03  0.17200000000E+03 0. -1.
<mgrwt>
<rscale>  2 0.19024961E+03</rscale>
<asrwt>0</asrwt>
<pdfrwt beam="1">  1       21 0.11363914E+00 0.19024961E+03</pdfrwt>
<pdfrwt beam="2">  1       21 0.21405285E-01 0.19024961E+03</pdfrwt>
<totfact> 0.12286889E+04</totfact>
</mgrwt>
</event>
<event>
 4    1  0.2417478E-001  0.2010217E+03  0.7546771E-02  0.1148880E+00
         21   -1    0    0  503  502  0.00000000000E+00  0.00000000000E+00  0.71256519434E+02  0.71256519434E+02  0.00000000000E+00 0.  1.
         21   -1    0    0  501  503 -0.00000000000E+00 -0.00000000000E+00 -0.58235644114E+03  0.58235644114E+03  0.00000000000E+00 0.  1.
          6    1    1    2  501    0  0.11961455011E+02 -0.10335692200E+03 -0.30844212813E+03  0.36816609857E+03  0.17200000000E+03 0.  1.
         -6    1    1    2    0  502 -0.11961455011E+02  0.10335692200E+03 -0.20265779357E+03  0.28544686200E+03  0.17200000000E+03 0.  1.
<mgrwt>
<rscale>  2 0.20102171E+03</rscale>
<asrwt>0</asrwt>
<pdfrwt beam="1">  1       21 0.17814130E-01 0.20102171E+03</pdfrwt>
<pdfrwt beam="2">  1       21 0.14558911E+00 0.20102171E+03</pdfrwt>
<totfact> 0.91918748E+03</totfact>
</mgrwt>
</event>
<event>
 4    1  0.2417478E-001  0.2060676E+03  0.7546771E-02  0.1144718E+00
         21   -1    0    0  503  502  0.00000000000E+00  0.00000000000E+00  0.60379580233E+02  0.60379580233E+02  0.00000000000E+00 0. -1.
         21   -1    0    0  501  503 -0.00000000000E+00 -0.00000000000E+00 -0.81377127666E+03  0.81377127666E+03  0.00000000000E+00 0. -1.
          6    1    1    2  501    0  0.22432590286E+02 -0.11125027603E+03 -0.53774786034E+03  0.57587898583E+03  0.17200000000E+03 0. -1.
         -6    1    1    2    0  502 -0.22432590286E+02  0.11125027603E+03 -0.21564383609E+03  0.29827187106E+03  0.17200000000E+03 0. -1.
<mgrwt>
<rscale>  2 0.20606757E+03</rscale>
<asrwt>0</asrwt>
<pdfrwt beam="1">  1       21 0.15094895E-01 0.20606757E+03</pdfrwt>
<pdfrwt beam="2">  1       21 0.20344282E+00 0.20606757E+03</pdfrwt>
<totfact> 0.48890168E+03</totfact>
</mgrwt>
</event>
<event>
 4    1  0.2417478E-001  0.1879024E+03  0.7546771E-02  0.1160367E+00
         21   -1    0    0  503  502  0.00000000000E+00  0.00000000000E+00  0.74935838182E+03  0.74935838182E+03  0.00000000000E+00 0.  1.
         21   -1    0    0  501  503 -0.00000000000E+00 -0.00000000000E+00 -0.55304792673E+02  0.55304792673E+02  0.00000000000E+00 0.  1.
          6    1    1    2  501    0 -0.35625452530E+02  0.66739361667E+02  0.19221880493E+03  0.26880361648E+03  0.17200000000E+03 0.  1.
         -6    1    1    2    0  502  0.35625452530E+02 -0.66739361667E+02  0.50183478422E+03  0.53585955801E+03  0.17200000000E+03 0.  1.
<mgrwt>
<rscale>  2 0.18790241E+03</rscale>
<asrwt>0</asrwt>
<pdfrwt beam="1">  1       21 0.18733956E+00 0.18790241E+03</pdfrwt>
<pdfrwt beam="2">  1       21 0.13826201E-01 0.18790241E+03</pdfrwt>
<totfact> 0.74172720E+03</totfact>
</mgrwt>
</event>
<event>
 4    1  0.2417478E-001  0.1762153E+03  0.7546771E-02  0.1171517E+00
         21   -1    0    0  501  502  0.00000000000E+00  0.00000000000E+00  0.95455250940E+02  0.95455250940E+02  0.00000000000E+00 0. -1.
         21   -1    0    0  502  503 -0.00000000000E+00 -0.00000000000E+00 -0.34598392461E+03  0.34598392461E+03  0.00000000000E+00 0.  1.
          6    1    1    2  501    0  0.18392110630E+02 -0.33609138409E+02 -0.71300626148E+02  0.19009372217E+03  0.17200000000E+03 0. -1.
         -6    1    1    2    0  503 -0.18392110630E+02  0.33609138409E+02 -0.17922804753E+03  0.25134545339E+03  0.17200000000E+03 0.  1.
<mgrwt>
<rscale>  2 0.17621533E+03</rscale>
<asrwt>0</asrwt>
<pdfrwt beam="1">  1       21 0.23863813E-01 0.17621533E+03</pdfrwt>
<pdfrwt beam="2">  1       21 0.86495980E-01 0.17621533E+03</pdfrwt>
<totfact> 0.19248669E+04</totfact>
</mgrwt>
</event>
<event>
 4    1  0.2417478E-001  0.2116242E+03  0.7546771E-02  0.1140286E+00
         21   -1    0    0  503  502  0.00000000000E+00  0.00000000000E+00  0.85361514335E+02  0.85361514335E+02  0.00000000000E+00 0. -1.
         21   -1    0    0  501  503 -0.00000000000E+00 -0.00000000000E+00 -0.95106084453E+03  0.95106084453E+03  0.00000000000E+00 0. -1.
          6    1    1    2  501    0  0.42545749930E+02 -0.11571793948E+03 -0.77984014504E+03  0.80804420311E+03  0.17200000000E+03 0. -1.
         -6    1    1    2    0  502 -0.42545749930E+02  0.11571793948E+03 -0.85859185156E+02  0.22837815576E+03  0.17200000000E+03 0. -1.
<mgrwt>
<rscale>  2 0.21162415E+03</rscale>
<asrwt>0</asrwt>
<pdfrwt beam="1">  1       21 0.21340379E-01 0.21162415E+03</pdfrwt>
<pdfrwt beam="2">  1       21 0.23776521E+00 0.21162415E+03</pdfrwt>
<totfact> 0.15723471E+03</totfact>
</mgrwt>
</event>
<event>
 4    1  0.2417478E-001  0.3781687E+03  0.7546771E-02  0.1051613E+00
         21   -1    0    0  503  502  0.00000000000E+00  0.00000000000E+00  0.64014814475E+03  0.64014814475E+03  0.00000000000E+00 0.  1.
         21   -1    0    0  501  503 -0.00000000000E+00 -0.00000000000E+00 -0.23474594908E+03  0.23474594908E+03  0.00000000000E+00 0. -1.
          6    1    1    2  501    0  0.32323568427E+03 -0.94584634981E+02  0.29885637736E+03  0.48200279569E+03  0.17200000000E+03 0. -1.
         -6    1    1    2    0  502 -0.32323568427E+03  0.94584634981E+02  0.10654581831E+03  0.39289129814E+03  0.17200000000E+03 0.  1.
<mgrwt>
<rscale>  2 0.37816869E+03</rscale>
<asrwt>0</asrwt>
<pdfrwt beam="1">  1       21 0.16003703E+00 0.37816869E+03</pdfrwt>
<pdfrwt beam="2">  1       21 0.58686489E-01 0.37816869E+03</pdfrwt>
<totfact> 0.59082487E+02</totfact>
</mgrwt>
</event>
<event>
 4    1  0.2417478E-001  0.2458180E+03  0.7546771E-02  0.1115977E+00
         21   -1    0    0  501  502  0.00000000000E+00  0.00000000000E+00  0.13895780413E+03  0.13895780413E+03  0.00000000000E+00 0. -1.
         21   -1    0    0  502  503 -0.00000000000E+00 -0.00000000000E+00 -0.44842316147E+03  0.44842316147E+03  0.00000000000E+00 0.  1.
          6    1    1    2  501    0  0.16946632983E+03  0.46083060890E+02 -0.20581934486E+03  0.32060581430E+03  0.17200000000E+03 0. -1.
         -6    1    1    2    0  503 -0.16946632983E+03 -0.46083060890E+02 -0.10364601248E+03  0.26677515129E+03  0.17200000000E+03 0. -1.
<mgrwt>
<rscale>  2 0.24581799E+03</rscale>
<asrwt>0</asrwt>
<pdfrwt beam="1">  1       21 0.34739451E-01 0.24581799E+03</pdfrwt>
<pdfrwt beam="2">  1       21 0.11210579E+00 0.24581799E+03</pdfrwt>
<totfact> 0.47915745E+03</totfact>
</mgrwt>
</event>
<event>
 4    1  0.2417478E-001  0.1925788E+03  0.7546771E-02  0.1156156E+00
         21   -1    0    0  503  502  0.00000000000E+00  0.00000000000E+00  0.30942510505E+03  0.30942510505E+03  0.00000000000E+00 0. -1.
         21   -1    0    0  501  503 -0.00000000000E+00 -0.00000000000E+00 -0.13943606068E+03  0.13943606068E+03  0.00000000000E+00 0.  1.
          6    1    1    2  501    0 -0.54717153651E+02 -0.67146176579E+02  0.89429261323E+00  0.19258082898E+03  0.17200000000E+03 0. -1.
         -6    1    1    2    0  502  0.54717153651E+02  0.67146176579E+02  0.16909475176E+03  0.25628033675E+03  0.17200000000E+03 0.  1.
<mgrwt>
<rscale>  2 0.19257875E+03</rscale>
<asrwt>0</asrwt>
<pdfrwt beam="1">  1       21 0.77356275E-01 0.19257875E+03</pdfrwt>
<pdfrwt beam="2">  1       21 0.34859016E-01 0.19257875E+03</pdfrwt>
<totfact> 0.11769620E+04</totfact>
</mgrwt>
</event>
<event>
 4    1  0.2417478E-001  0.2089896E+03  0.7546771E-02  0.1142369E+00
         21   -1    0    0  501  502  0.00000000000E+00  0.00000000000E+00  0.32006069866E+03  0.32006069866E+03  0.00000000000E+00 0. -1.
         21   -1    0    0  502  503 -0.00000000000E+00 -0.00000000000E+00 -0.17070517575E+03  0.17070517575E+03  0.00000000000E+00 0. -1.
          6    1    1    2  501    0 -0.11373702313E+03  0.34008008261E+02  0.18457771096E+03  0.27882895553E+03  0.17200000000E+03 0. -1.
         -6    1    1    2    0  503  0.11373702313E+03 -0.34008008261E+02 -0.35222188052E+02  0.21193691889E+03  0.17200000000E+03 0. -1.
<mgrwt>
<rscale>  2 0.20898961E+03</rscale>
<asrwt>0</asrwt>
<pdfrwt beam="1">  1       21 0.80015174E-01 0.20898961E+03</pdfrwt>
<pdfrwt beam="2">  1       21 0.42676294E-01 0.20898961E+03</pdfrwt>
<totfact> 0.71752155E+03</totfact>
</mgrwt>
</event>
<event>
 4    1  0.2417478E-001  0.2011717E+03  0.7546771E-02  0.1148754E+00
         21   -1    0    0  501  502  0.00000000000E+00  0.00000000000E+00  0.99598094821E+02  0.99598094821E+02  0.00000000000E+00 0. -1.
         21   -1    0    0  502  503 -0.00000000000E+00 -0.00000000000E+00 -0.47644506423E+03  0.47644506423E+03  0.00000000000E+00 0. -1.
          6    1    1    2  501    0  0.25470656779E+01 -0.10430515939E+03 -0.77935999997E+02  0.21574075627E+03  0.17200000000E+03 0. -1.
         -6    1    1    2    0  503 -0.25470656779E+01  0.10430515939E+03 -0.29891096942E+03  0.36030240279E+03  0.17200000000E+03 0. -1.
<mgrwt>
<rscale>  2 0.20117170E+03</rscale>
<asrwt>0</asrwt>
<pdfrwt beam="1">  1       21 0.24899524E-01 0.20117170E+03</pdfrwt>
<pdfrwt beam="2">  1       21 0.11911126E+00 0.20117170E+03</pdfrwt>
<totfact> 0.81585667E+03</totfact>
</mgrwt>
</event>
<event>
 4    1  0.2417478E-001  0.1900929E+03  0.7546771E-02  0.1158378E+00
         21   -1    0    0  503  502  0.00000000000E+00  0.00000000000E+00  0.19246847897E+03  0.19246847897E+03  0.00000000000E+00 0.  1.
         21   -1    0    0  501  503 -0.00000000000E+00 -0.00000000000E+00 -0.22259797816E+03  0.22259797816E+03  0.00000000000E+00 0.  1.
          6    1    1    2  501    0 -0.25296211070E+02  0.76885810781E+02 -0.97182349401E+02  0.21349411053E+03  0.17200000000E+03 0.  1.
         -6    1    1    2    0  502  0.25296211070E+02 -0.76885810781E+02  0.67052850216E+02  0.20157234661E+03  0.17200000000E+03 0.  1.
<mgrwt>
<rscale>  2 0.19009294E+03</rscale>
<asrwt>0</asrwt>
<pdfrwt beam="1">  1       21 0.48117120E-01 0.19009294E+03</pdfrwt>
<pdfrwt beam="2">  1       21 0.55649494E-01 0.19009294E+03</pdfrwt>
<totfact> 0.12578165E+04</totfact>
</mgrwt>
</event>
<event>
 4    1  0.2417478E-001  0.2977378E+03  0.7546771E-02  0.1086377E+00
         21   -1    0    0  503  502  0.00000000000E+00  0.00000000000E+00  0.64228768332E+03  0.64228768332E+03  0.00000000000E+00 0.  1.
         21   -1    0    0  501  503 -0.00000000000E+00 -0.00000000000E+00 -0.13978189632E+03  0.13978189632E+03  0.00000000000E+00 0. -1.
          6    1    1    2  501    0 -0.20911568962E+03  0.12383236682E+03  0.29516842004E+03  0.41925198021E+03  0.17200000000E+03 0. -1.
         -6    1    1    2    0  502  0.20911568962E+03 -0.12383236682E+03  0.20733736696E+03  0.36281759943E+03  0.17200000000E+03 0. -1.
<mgrwt>
<rscale>  2 0.29773785E+03</rscale>
<asrwt>0</asrwt>
<pdfrwt beam="1">  1       21 0.16057191E+00 0.29773785E+03</pdfrwt>
<pdfrwt beam="2">  1       21 0.34945476E-01 0.29773785E+03</pdfrwt>
<totfact> 0.18099205E+03</totfact>
</mgrwt>
</event>
<event>
 4    1  0.2417478E-001  0.1897663E+03  0.7546771E-02  0.1158672E+00
         21   -1    0    0  501  502  0.00000000000E+00  0.00000000000E+00  0.23422668899E+03  0.23422668899E+03  0.00000000000E+00 0. -1.
         21   -1    0    0  502  503 -0.00000000000E+00 -0.00000000000E+00 -0.18109617589E+03  0.18109617589E+03  0.00000000000E+00 0. -1.
          6    1    1    2  501    0  0.16592589968E+02 -0.78434223797E+02  0.10726779585E+03  0.21798536999E+03  0.17200000000E+03 0. -1.
         -6    1    1    2    0  503 -0.16592589968E+02  0.78434223797E+02 -0.54137282746E+02  0.19733749489E+03  0.17200000000E+03 0. -1.
<mgrwt>
<rscale>  2 0.18976628E+03</rscale>
<asrwt>0</asrwt>
<pdfrwt beam="1">  1       21 0.58556672E-01 0.18976628E+03</pdfrwt>
<pdfrwt beam="2">  1       21 0.45274044E-01 0.18976628E+03</pdfrwt>
<totfact> 0.12800497E+04</totfact>
</mgrwt>
</event>
<event>
 4    1  0.2417478E-001  0.2196773E+03  0.7546771E-02  0.1134124E+00
         21   -1    0    0  503  502  0.00000000000E+00  0.00000000000E+00  0.15630260214E+03  0.15630260214E+03  0.00000000000E+00 0.  1.
         21   -1    0    0  501  503 -0.00000000000E+00 -0.00000000000E+00 -0.33102519102E+03  0.33102519102E+03  0.00000000000E+00 0.  1.
          6    1    1    2  501    0  0.12335786074E+03 -0.58796031125E+02 -0.15057185980E+03  0.26632690447E+03  0.17200000000E+03 0.  1.
         -6    1    1    2    0  502 -0.12335786074E+03  0.58796031125E+02 -0.24150729076E+02  0.22100088868E+03  0.17200000000E+03 0.  1.
<mgrwt>
<rscale>  2 0.21967734E+03</rscale>
<asrwt>0</asrwt>
<pdfrwt beam="1">  1       21 0.39075651E-01 0.21967734E+03</pdfrwt>
<pdfrwt beam="2">  1       21 0.82756298E-01 0.21967734E+03</pdfrwt>
<totfact> 0.78914525E+03</totfact>
</mgrwt>
</event>
<event>
 4    1  0.2417478E-001  0.2030173E+03  0.7546771E-02  0.1147218E+00
         21   -1    0    0  503  502  0.00000000000E+00  0.00000000000E+00  0.42605288038E+02  0.42605288038E+02  0.00000000000E+00 0.  1.
         21   -1    0    0  501  503 -0.00000000000E+00 -0.00000000000E+00 -0.99900540758E+03  0.99900540758E+03  0.00000000000E+00 0.  1.
          6    1    1    2  501    0 -0.57017818231E+02 -0.91547744352E+02 -0.38555416986E+03  0.43573849840E+03  0.17200000000E+03 0.  1.
         -6    1    1    2    0  502  0.57017818231E+02  0.91547744352E+02 -0.57084594968E+03  0.60587219721E+03  0.17200000000E+03 0.  1.
<mgrwt>
<rscale>  2 0.20301729E+03</rscale>
<asrwt>0</asrwt>
<pdfrwt beam="1">  1       21 0.10651322E-01 0.20301729E+03</pdfrwt>
<pdfrwt beam="2">  1       21 0.24975135E+00 0.20301729E+03</pdfrwt>
<totfact> 0.47904396E+03</totfact>
</mgrwt>
</event>
<event>
 4    1  0.2417478E-001  0.1863419E+03  0.7546771E-02  0.1161803E+00
         21   -1    0    0  501  502  0.00000000000E+00  0.00000000000E+00  0.68564672817E+02  0.68564672817E+02  0.00000000000E+00 0.  1.
         21   -1    0    0  502  503 -0.00000000000E+00 -0.00000000000E+00 -0.52909852205E+03  0.52909852205E+03  0.00000000000E+00 0.  1.
          6    1    1    2  501    0  0.44967481330E+02 -0.55832068635E+02 -0.29211948591E+03  0.34649255160E+03  0.17200000000E+03 0.  1.
         -6    1    1    2    0  503 -0.44967481330E+02  0.55832068635E+02 -0.16841436332E+03  0.25117064326E+03  0.17200000000E+03 0.  1.
<mgrwt>
<rscale>  2 0.18634187E+03</rscale>
<asrwt>0</asrwt>
<pdfrwt beam="1">  1       21 0.17141168E-01 0.18634187E+03</pdfrwt>
<pdfrwt beam="2">  1       21 0.13227463E+00 0.18634187E+03</pdfrwt>
<totfact> 0.12768159E+04</totfact>
</mgrwt>
</event>
<event>
 4    1  0.2417478E-001  0.1962758E+03  0.7546771E-02  0.1152920E+00
         21   -1    0    0  501  502  0.00000000000E+00  0.00000000000E+00  0.88239843851E+02  0.88239843851E+02  0.00000000000E+00 0. -1.
         21   -1    0    0  502  503 -0.00000000000E+00 -0.00000000000E+00 -0.45312974303E+03  0.45312974303E+03  0.00000000000E+00 0. -1.
          6    1    1    2  501    0  0.71447259208E+02  0.61931349403E+02 -0.13072227178E+03  0.23582305915E+03  0.17200000000E+03 0. -1.
         -6    1    1    2    0  503 -0.71447259208E+02 -0.61931349403E+02 -0.23416762740E+03  0.30554652773E+03  0.17200000000E+03 0. -1.
<mgrwt>
<rscale>  2 0.19627583E+03</rscale>
<asrwt>0</asrwt>
<pdfrwt beam="1">  1       21 0.22059961E-01 0.19627583E+03</pdfrwt>
<pdfrwt beam="2">  1       21 0.11328243E+00 0.19627583E+03</pdfrwt>
<totfact> 0.11649578E+04</totfact>
</mgrwt>
</event>
<event>
 4    1  0.2417478E-001  0.2114832E+03  0.7546771E-02  0.1140397E+00
         21   -1    0    0  501  502  0.00000000000E+00  0.00000000000E+00  0.12287780145E+03  0.12287780145E+03  0.00000000000E+00 0.  1.
         21   -1    0    0  502  503 -0.00000000000E+00 -0.00000000000E+00 -0.38290067121E+03  0.38290067121E+03  0.00000000000E+00 0.  1.
          6    1    1    2  501    0  0.73149902007E+02 -0.98945520731E+02 -0.73796753457E+02  0.22398902888E+03  0.17200000000E+03 0.  1.
         -6    1    1    2    0  503 -0.73149902007E+02  0.98945520731E+02 -0.18622611631E+03  0.28178944379E+03  0.17200000000E+03 0.  1.
<mgrwt>
<rscale>  2 0.21148315E+03</rscale>
<asrwt>0</asrwt>
<pdfrwt beam="1">  1       21 0.30719451E-01 0.21148315E+03</pdfrwt>
<pdfrwt beam="2">  1       21 0.95725167E-01 0.21148315E+03</pdfrwt>
<totfact> 0.91370659E+03</totfact>
</mgrwt>
</event>
<event>
 4    1  0.2417478E-001  0.2083251E+03  0.7546771E-02  0.1142899E+00
         21   -1    0    0  501  502  0.00000000000E+00  0.00000000000E+00  0.11498465198E+03  0.11498465198E+03  0.00000000000E+00 0.  1.
         21   -1    0    0  502  503 -0.00000000000E+00 -0.00000000000E+00 -0.56424153491E+03  0.56424153491E+03  0.00000000000E+00 0.  1.
          6    1    1    2  501    0  0.11503191792E+03 -0.24145803857E+02 -0.29218515978E+02  0.21036416914E+03  0.17200000000E+03 0.  1.
         -6    1    1    2    0  503 -0.11503191792E+03  0.24145803857E+02 -0.42003836695E+03  0.46886201775E+03  0.17200000000E+03 0.  1.
<mgrwt>
<rscale>  2 0.20832514E+03</rscale>
<asrwt>0</asrwt>
<pdfrwt beam="1">  1       21 0.28746163E-01 0.20832514E+03</pdfrwt>
<pdfrwt beam="2">  1       21 0.14106038E+00 0.20832514E+03</pdfrwt>
<totfact> 0.40095615E+03</totfact>
</mgrwt>
</event>
<event>
 4    1  0.2417478E-001  0.2045505E+03  0.7546771E-02  0.1145956E+00
         21   -1    0    0  501  502  0.00000000000E+00  0.00000000000E+00  0.14256318961E+03  0.14256318961E+03  0.00000000000E+00 0. -1.
         21   -1    0    0  502  503 -0.00000000000E+00 -0.00000000000E+00 -0.31155848736E+03  0.31155848736E+03  0.00000000000E+00 0.  1.
          6    1    1    2  501    0  0.92015294181E+02  0.61563604148E+02 -0.29817264995E+02  0.20671226623E+03  0.17200000000E+03 0. -1.
         -6    1    1    2    0  503 -0.92015294181E+02 -0.61563604148E+02 -0.13917803275E+03  0.24740941073E+03  0.17200000000E+03 0.  1.
<mgrwt>
<rscale>  2 0.20455046E+03</rscale>
<asrwt>0</asrwt>
<pdfrwt beam="1">  1       21 0.35640798E-01 0.20455046E+03</pdfrwt>
<pdfrwt beam="2">  1       21 0.77889622E-01 0.20455046E+03</pdfrwt>
<totfact> 0.10999173E+04</totfact>
</mgrwt>
</event>
<event>
 4    1  0.2417478E-001  0.2465270E+03  0.7546771E-02  0.1115520E+00
         21   -1    0    0  503  502  0.00000000000E+00  0.00000000000E+00  0.13977898658E+03  0.13977898658E+03  0.00000000000E+00 0.  1.
         21   -1    0    0  501  503 -0.00000000000E+00 -0.00000000000E+00 -0.76885921462E+03  0.76885921462E+03  0.00000000000E+00 0.  1.
          6    1    1    2  501    0 -0.13245156330E+03 -0.11682525821E+03 -0.61400845731E+03  0.66165092248E+03  0.17200000000E+03 0.  1.
         -6    1    1    2    0  502  0.13245156330E+03  0.11682525821E+03 -0.15071770732E+02  0.24698727872E+03  0.17200000000E+03 0.  1.
<mgrwt>
<rscale>  2 0.24652699E+03</rscale>
<asrwt>0</asrwt>
<pdfrwt beam="1">  1       21 0.34944747E-01 0.24652699E+03</pdfrwt>
<pdfrwt beam="2">  1       21 0.19221480E+00 0.24652699E+03</pdfrwt>
<totfact> 0.11292511E+03</totfact>
</mgrwt>
</event>
<event>
 4    1  0.2417478E-001  0.1766374E+03  0.7546771E-02  0.1171098E+00
         21   -1    0    0  501  502  0.00000000000E+00  0.00000000000E+00  0.11565962784E+04  0.11565962784E+04  0.00000000000E+00 0. -1.
         21   -1    0    0  502  503 -0.00000000000E+00 -0.00000000000E+00 -0.27509190487E+02  0.27509190487E+02  0.00000000000E+00 0. -1.
          6    1    1    2  501    0 -0.14813152374E+02  0.37380803093E+02  0.64694166485E+03  0.67062230178E+03  0.17200000000E+03 0. -1.
         -6    1    1    2    0  503  0.14813152374E+02 -0.37380803093E+02  0.48214542307E+03  0.51348316712E+03  0.17200000000E+03 0. -1.
<mgrwt>
<rscale>  2 0.17663735E+03</rscale>
<asrwt>0</asrwt>
<pdfrwt beam="1">  1       21 0.28914891E+00 0.17663735E+03</pdfrwt>
<pdfrwt beam="2">  1       21 0.68773015E-02 0.17663735E+03</pdfrwt>
<totfact> 0.62612576E+03</totfact>
</mgrwt>
</event>
<event>
 4    1  0.2417478E-001  0.2088530E+03  0.7546771E-02  0.1142478E+00
         21   -1    0    0  503  502  0.00000000000E+00  0.00000000000E+00  0.10396337603E+04  0.10396337603E+04  0.00000000000E+00 0.  1.
         21   -1    0    0  501  503 -0.00000000000E+00 -0.00000000000E+00 -0.53615783995E+02  0.53615783995E+02  0.00000000000E+00 0.  1.
          6    1    1    2  501    0  0.11209891333E+03 -0.38332945980E+02  0.74791235089E+03  0.77652589508E+03  0.17200000000E+03 0.  1.
         -6    1    1    2    0  502 -0.11209891333E+03  0.38332945980E+02  0.23810562541E+03  0.31672364921E+03  0.17200000000E+03 0.  1.
<mgrwt>
<rscale>  2 0.20885301E+03</rscale>
<asrwt>0</asrwt>
<pdfrwt beam="1">  1       21 0.25990837E+00 0.20885301E+03</pdfrwt>
<pdfrwt beam="2">  1       21 0.13403949E-01 0.20885301E+03</pdfrwt>
<totfact> 0.27492310E+03</totfact>
</mgrwt>
</event>
<event>
 4    1  0.2417478E-001  0.1747456E+03  0.7546771E-02  0.1172987E+00
         21   -1    0    0  503  502  0.00000000000E+00  0.00000000000E+00  0.11968597192E+03  0.11968597192E+03  0.00000000000E+00 0.  1.
         21   -1    0    0  501  503 -0.00000000000E+00 -0.00000000000E+00 -0.50444468714E+03  0.50444468714E+03  0.00000000000E+00 0.  1.
          6    1    1    2  501    0  0.28747562525E+02 -0.11206708580E+02 -0.41176530976E+03  0.44731049953E+03  0.17200000000E+03 0.  1.
         -6    1    1    2    0  502 -0.28747562525E+02  0.11206708580E+02  0.27006594542E+02  0.17682015953E+03  0.17200000000E+03 0.  1.
<mgrwt>
<rscale>  2 0.17474557E+03</rscale>
<asrwt>0</asrwt>
<pdfrwt beam="1">  1       21 0.29921494E-01 0.17474557E+03</pdfrwt>
<pdfrwt beam="2">  1       21 0.12611117E+00 0.17474557E+03</pdfrwt>
<totfact> 0.50727858E+03</totfact>
</mgrwt>
</event>
<event>
 4    1  0.2417478E-001  0.2518233E+03  0.7546771E-02  0.1112158E+00
         21   -1    0    0  501  502  0.00000000000E+00  0.00000000000E+00  0.82898227083E+02  0.82898227083E+02  0.00000000000E+00 0. -1.
         21   -1    0    0  502  503 -0.00000000000E+00 -0.00000000000E+00 -0.11059443910E+04  0.11059443910E+04  0.00000000000E+00 0.  1.
          6    1    1    2  501    0  0.47900575217E+02 -0.17758516815E+03 -0.18146809510E+03  0.31039591910E+03  0.17200000000E+03 0. -1.
         -6    1    1    2    0  503 -0.47900575217E+02  0.17758516815E+03 -0.84157806885E+03  0.87844669902E+03  0.17200000000E+03 0.  1.
<mgrwt>
<rscale>  2 0.25182327E+03</rscale>
<asrwt>0</asrwt>
<pdfrwt beam="1">  1       21 0.20724557E-01 0.25182327E+03</pdfrwt>
<pdfrwt beam="2">  1       21 0.27648610E+00 0.25182327E+03</pdfrwt>
<totfact> 0.94109548E+02</totfact>
</mgrwt>
</event>
<event>
 4    1  0.2417478E-001  0.1738998E+03  0.7546771E-02  0.1173841E+00
         21   -1    0    0  501  502  0.00000000000E+00  0.00000000000E+00  0.24038542029E+03  0.24038542029E+03  0.00000000000E+00 0. -1.
         21   -1    0    0  502  503 -0.00000000000E+00 -0.00000000000E+00 -0.12818814381E+03  0.12818814381E+03  0.00000000000E+00 0. -1.
          6    1    1    2  501    0 -0.13211397891E+02  0.21968146336E+02  0.81237912803E+02  0.19193941483E+03  0.17200000000E+03 0. -1.
         -6    1    1    2    0  503  0.13211397891E+02 -0.21968146336E+02  0.30959363675E+02  0.17663414927E+03  0.17200000000E+03 0. -1.
<mgrwt>
<rscale>  2 0.17389980E+03</rscale>
<asrwt>0</asrwt>
<pdfrwt beam="1">  1       21 0.60096354E-01 0.17389980E+03</pdfrwt>
<pdfrwt beam="2">  1       21 0.32047036E-01 0.17389980E+03</pdfrwt>
<totfact> 0.24447484E+04</totfact>
</mgrwt>
</event>
<event>
 4    1  0.2417478E-001  0.2143893E+03  0.7546771E-02  0.1138137E+00
         21   -1    0    0  501  502  0.00000000000E+00  0.00000000000E+00  0.40344287259E+03  0.40344287259E+03  0.00000000000E+00 0.  1.
         21   -1    0    0  502  503 -0.00000000000E+00 -0.00000000000E+00 -0.11833772639E+03  0.11833772639E+03  0.00000000000E+00 0. -1.
          6    1    1    2  501    0  0.16743674641E+02 -0.12687947650E+03  0.19292420569E+03  0.28841376760E+03  0.17200000000E+03 0.  1.
         -6    1    1    2    0  503 -0.16743674641E+02  0.12687947650E+03  0.92180940509E+02  0.23336683139E+03  0.17200000000E+03 0. -1.
<mgrwt>
<rscale>  2 0.21438925E+03</rscale>
<asrwt>0</asrwt>
<pdfrwt beam="1">  1       21 0.10086071E+00 0.21438925E+03</pdfrwt>
<pdfrwt beam="2">  1       21 0.29584433E-01 0.21438925E+03</pdfrwt>
<totfact> 0.86733461E+03</totfact>
</mgrwt>
</event>
<event>
 4    1  0.2417478E-001  0.2214980E+03  0.7546771E-02  0.1132771E+00
         21   -1    0    0  503  502  0.00000000000E+00  0.00000000000E+00  0.28287074958E+03  0.28287074958E+03  0.00000000000E+00 0. -1.
         21   -1    0    0  501  503 -0.00000000000E+00 -0.00000000000E+00 -0.22467392984E+03  0.22467392984E+03  0.00000000000E+00 0.  1.
          6    1    1    2  501    0 -0.12984096094E+03 -0.51172946338E+02 -0.92084992031E+02  0.23987703377E+03  0.17200000000E+03 0.  1.
         -6    1    1    2    0  502  0.12984096094E+03  0.51172946338E+02  0.15028181178E+03  0.26766764565E+03  0.17200000000E+03 0. -1.
<mgrwt>
<rscale>  2 0.22149796E+03</rscale>
<asrwt>0</asrwt>
<pdfrwt beam="1">  1       21 0.70717687E-01 0.22149796E+03</pdfrwt>
<pdfrwt beam="2">  1       21 0.56168483E-01 0.22149796E+03</pdfrwt>
<totfact> 0.52900911E+03</totfact>
</mgrwt>
</event>
<event>
 4    1  0.2417478E-001  0.2165669E+03  0.7546771E-02  0.1136469E+00
         21   -1    0    0  501  502  0.00000000000E+00  0.00000000000E+00  0.20693676324E+03  0.20693676324E+03  0.00000000000E+00 0. -1.
         21   -1    0    0  502  503 -0.00000000000E+00 -0.00000000000E+00 -0.23627951333E+03  0.23627951333E+03  0.00000000000E+00 0. -1.
          6    1    1    2  501    0 -0.45467737137E+02  0.12349047458E+03 -0.59420477056E+02  0.22457071386E+03  0.17200000000E+03 0. -1.
         -6    1    1    2    0  503  0.45467737137E+02 -0.12349047458E+03  0.30077726971E+02  0.21864556271E+03  0.17200000000E+03 0. -1.
<mgrwt>
<rscale>  2 0.21656688E+03</rscale>
<asrwt>0</asrwt>
<pdfrwt beam="1">  1       21 0.51734191E-01 0.21656688E+03</pdfrwt>
<pdfrwt beam="2">  1       21 0.59069878E-01 0.21656688E+03</pdfrwt>
<totfact> 0.93543773E+03</totfact>
</mgrwt>
</event>
<event>
 4    1  0.2417478E-001  0.2289997E+03  0.7546771E-02  0.1127346E+00
         21   -1    0    0  503  502  0.00000000000E+00  0.00000000000E+00  0.73037882328E+03  0.73037882328E+03  0.00000000000E+00 0. -1.
         21   -1    0    0  501  503 -0.00000000000E+00 -0.00000000000E+00 -0.85883376059E+02  0.85883376059E+02  0.00000000000E+00 0. -1.
          6    1    1    2  501    0  0.14880736366E+03  0.26706775710E+02  0.15697347264E+03  0.27763565056E+03  0.17200000000E+03 0. -1.
         -6    1    1    2    0  502 -0.14880736366E+03 -0.26706775710E+02  0.48752197458E+03  0.53862654877E+03  0.17200000000E+03 0. -1.
<mgrwt>
<rscale>  2 0.22899975E+03</rscale>
<asrwt>0</asrwt>
<pdfrwt beam="1">  1       21 0.18259469E+00 0.22899975E+03</pdfrwt>
<pdfrwt beam="2">  1       21 0.21470846E-01 0.22899975E+03</pdfrwt>
<totfact> 0.34194796E+03</totfact>
</mgrwt>
</event>
<event>
 4    1  0.2417478E-001  0.2478082E+03  0.7546771E-02  0.1114698E+00
         21   -1    0    0  503  502  0.00000000000E+00  0.00000000000E+00  0.26550743551E+03  0.26550743551E+03  0.00000000000E+00 0.  1.
         21   -1    0    0  501  503 -0.00000000000E+00 -0.00000000000E+00 -0.47843761922E+03  0.47843761922E+03  0.00000000000E+00 0. -1.
          6    1    1    2  501    0 -0.12857083037E+03  0.12367081000E+03 -0.37381335740E+03  0.44849231191E+03  0.17200000000E+03 0. -1.
         -6    1    1    2    0  502  0.12857083037E+03 -0.12367081000E+03  0.16088317369E+03  0.29545274283E+03  0.17200000000E+03 0.  1.
<mgrwt>
<rscale>  2 0.24780825E+03</rscale>
<asrwt>0</asrwt>
<pdfrwt beam="1">  1       21 0.66376860E-01 0.24780825E+03</pdfrwt>
<pdfrwt beam="2">  1       21 0.11960940E+00 0.24780825E+03</pdfrwt>
<totfact> 0.10545052E+03</totfact>
</mgrwt>
</event>
<event>
 4    1  0.2417478E-001  0.2035611E+03  0.7546771E-02  0.1146769E+00
         21   -1    0    0  503  502  0.00000000000E+00  0.00000000000E+00  0.14247699232E+03  0.14247699232E+03  0.00000000000E+00 0. -1.
         21   -1    0    0  501  503 -0.00000000000E+00 -0.00000000000E+00 -0.56886253961E+03  0.56886253961E+03  0.00000000000E+00 0. -1.
          6    1    1    2  501    0  0.20186260584E+02 -0.10698419607E+03  0.35457101790E+02  0.20662601335E+03  0.17200000000E+03 0. -1.
         -6    1    1    2    0  502 -0.20186260584E+02  0.10698419607E+03 -0.46184264908E+03  0.50471351858E+03  0.17200000000E+03 0. -1.
<mgrwt>
<rscale>  2 0.20356106E+03</rscale>
<asrwt>0</asrwt>
<pdfrwt beam="1">  1       21 0.35619248E-01 0.20356106E+03</pdfrwt>
<pdfrwt beam="2">  1       21 0.14221563E+00 0.20356106E+03</pdfrwt>
<totfact> 0.25853635E+03</totfact>
</mgrwt>
</event>
<event>
 4    1  0.2417478E-001  0.2056011E+03  0.7546771E-02  0.1145098E+00
         21   -1    0    0  501  502  0.00000000000E+00  0.00000000000E+00  0.39140071310E+03  0.39140071310E+03  0.00000000000E+00 0.  1.
         21   -1    0    0  502  503 -0.00000000000E+00 -0.00000000000E+00 -0.13288205084E+03  0.13288205084E+03  0.00000000000E+00 0.  1.
          6    1    1    2  501    0  0.10824334895E+03 -0.31164036354E+02  0.15827900840E+02  0.20620946195E+03  0.17200000000E+03 0.  1.
         -6    1    1    2    0  503 -0.10824334895E+03  0.31164036354E+02  0.24269076143E+03  0.31807330198E+03  0.17200000000E+03 0.  1.
<mgrwt>
<rscale>  2 0.20560112E+03</rscale>
<asrwt>0</asrwt>
<pdfrwt beam="1">  1       21 0.97850176E-01 0.20560112E+03</pdfrwt>
<pdfrwt beam="2">  1       21 0.33220514E-01 0.20560112E+03</pdfrwt>
<totfact> 0.74689765E+03</totfact>
</mgrwt>
</event>
<event>
 4    1  0.2417478E-001  0.1813021E+03  0.7546771E-02  0.1166549E+00
         21   -1    0    0  503  502  0.00000000000E+00  0.00000000000E+00  0.67206186631E+02  0.67206186631E+02  0.00000000000E+00 0.  1.
         21   -1    0    0  501  503 -0.00000000000E+00 -0.00000000000E+00 -0.13194162053E+04  0.13194162053E+04  0.00000000000E+00 0.  1.
          6    1    1    2  501    0  0.22217197749E+02 -0.52847246673E+02 -0.11761009621E+04  0.11899932388E+04  0.17200000000E+03 0.  1.
         -6    1    1    2    0  502 -0.22217197749E+02  0.52847246673E+02 -0.76109056531E+02  0.19662915308E+03  0.17200000000E+03 0.  1.
<mgrwt>
<rscale>  2 0.18130206E+03</rscale>
<asrwt>0</asrwt>
<pdfrwt beam="1">  1       21 0.16801547E-01 0.18130206E+03</pdfrwt>
<pdfrwt beam="2">  1       21 0.32985405E+00 0.18130206E+03</pdfrwt>
<totfact> 0.74410585E+02</totfact>
</mgrwt>
</event>
<event>
 4    1  0.2417478E-001  0.2822228E+03  0.7546771E-02  0.1094481E+00
         21   -1    0    0  503  502  0.00000000000E+00  0.00000000000E+00  0.52738495872E+03  0.52738495872E+03  0.00000000000E+00 0.  1.
         21   -1    0    0  501  503 -0.00000000000E+00 -0.00000000000E+00 -0.16374764298E+03  0.16374764298E+03  0.00000000000E+00 0. -1.
          6    1    1    2  501    0  0.74052305484E+02 -0.21114437079E+03  0.85504974204E+02  0.29489114920E+03  0.17200000000E+03 0. -1.
         -6    1    1    2    0  502 -0.74052305484E+02  0.21114437079E+03  0.27813234154E+03  0.39624145249E+03  0.17200000000E+03 0.  1.
<mgrwt>
<rscale>  2 0.28222277E+03</rscale>
<asrwt>0</asrwt>
<pdfrwt beam="1">  1       21 0.13184624E+00 0.28222277E+03</pdfrwt>
<pdfrwt beam="2">  1       21 0.40936912E-01 0.28222277E+03</pdfrwt>
<totfact> 0.22374721E+03</totfact>
</mgrwt>
</event>
<event>
 4    1  0.2417478E-001  0.2133253E+03  0.7546771E-02  0.1138959E+00
         21   -1    0    0  501  502  0.00000000000E+00  0.00000000000E+00  0.45892903638E+03  0.45892903638E+03  0.00000000000E+00 0.  1.
         21   -1    0    0  502  503 -0.00000000000E+00 -0.00000000000E+00 -0.16432914142E+03  0.16432914142E+03  0.00000000000E+00 0.  1.
          6    1    1    2  501    0  0.12456928327E+03  0.20153816800E+02  0.34354542980E+03  0.40438984285E+03  0.17200000000E+03 0.  1.
         -6    1    1    2    0  503 -0.12456928327E+03 -0.20153816800E+02 -0.48945534834E+02  0.21886833495E+03  0.17200000000E+03 0.  1.
<mgrwt>
<rscale>  2 0.21332530E+03</rscale>
<asrwt>0</asrwt>
<pdfrwt beam="1">  1       21 0.11473226E+00 0.21332530E+03</pdfrwt>
<pdfrwt beam="2">  1       21 0.41082286E-01 0.21332530E+03</pdfrwt>
<totfact> 0.33070758E+03</totfact>
</mgrwt>
</event>
<event>
 4    1  0.2417478E-001  0.1725474E+03  0.7546771E-02  0.1175217E+00
         21   -1    0    0  501  502  0.00000000000E+00  0.00000000000E+00  0.27163358432E+03  0.27163358432E+03  0.00000000000E+00 0. -1.
         21   -1    0    0  502  503 -0.00000000000E+00 -0.00000000000E+00 -0.11875602992E+03  0.11875602992E+03  0.00000000000E+00 0. -1.
          6    1    1    2  501    0  0.99794468493E+00 -0.13697022818E+02  0.13062108203E+03  0.21641273391E+03  0.17200000000E+03 0.  1.
         -6    1    1    2    0  503 -0.99794468493E+00  0.13697022818E+02  0.22256472367E+02  0.17397688033E+03  0.17200000000E+03 0.  1.
<mgrwt>
<rscale>  2 0.17254740E+03</rscale>
<asrwt>0</asrwt>
<pdfrwt beam="1">  1       21 0.67908395E-01 0.17254740E+03</pdfrwt>
<pdfrwt beam="2">  1       21 0.29689008E-01 0.17254740E+03</pdfrwt>
<totfact> 0.21800701E+04</totfact>
</mgrwt>
</event>
<event>
 4    1  0.2417478E-001  0.2559385E+03  0.7546771E-02  0.1109608E+00
         21   -1    0    0  503  502  0.00000000000E+00  0.00000000000E+00  0.69050213686E+03  0.69050213686E+03  0.00000000000E+00 0. -1.
         21   -1    0    0  501  503 -0.00000000000E+00 -0.00000000000E+00 -0.10397268362E+03  0.10397268362E+03  0.00000000000E+00 0. -1.
          6    1    1    2  501    0  0.10107144935E+03 -0.16032799649E+03  0.41083399699E+03  0.48403416967E+03  0.17200000000E+03 0. -1.
         -6    1    1    2    0  502 -0.10107144935E+03  0.16032799649E+03  0.17569545625E+03  0.31044065081E+03  0.17200000000E+03 0. -1.
<mgrwt>
<rscale>  2 0.25593848E+03</rscale>
<asrwt>0</asrwt>
<pdfrwt beam="1">  1       21 0.17262552E+00 0.25593848E+03</pdfrwt>
<pdfrwt beam="2">  1       21 0.25993173E-01 0.25593848E+03</pdfrwt>
<totfact> 0.27268606E+03</totfact>
</mgrwt>
</event>
<event>
 4    1  0.2417478E-001  0.1918731E+03  0.7546771E-02  0.1156783E+00
         21   -1    0    0  503  502  0.00000000000E+00  0.00000000000E+00  0.50988030804E+03  0.50988030804E+03  0.00000000000E+00 0. -1.
         21   -1    0    0  501  503 -0.00000000000E+00 -0.00000000000E+00 -0.73184273435E+02  0.73184273435E+02  0.00000000000E+00 0. -1.
          6    1    1    2  501    0  0.19461789911E+02 -0.82779950884E+02  0.25209243110E+03  0.31680573756E+03  0.17200000000E+03 0. -1.
         -6    1    1    2    0  502 -0.19461789911E+02  0.82779950884E+02  0.18460360351E+03  0.26625884391E+03  0.17200000000E+03 0. -1.
<mgrwt>
<rscale>  2 0.19187309E+03</rscale>
<asrwt>0</asrwt>
<pdfrwt beam="1">  1       21 0.12747007E+00 0.19187309E+03</pdfrwt>
<pdfrwt beam="2">  1       21 0.18296070E-01 0.19187309E+03</pdfrwt>
<totfact> 0.12379583E+04</totfact>
</mgrwt>
</event>
<event>
 4    1  0.2417478E-001  0.3965118E+03  0.7546771E-02  0.1044994E+00
         21   -1    0    0  501  502  0.00000000000E+00  0.00000000000E+00  0.22188872195E+03  0.22188872195E+03  0.00000000000E+00 0. -1.
         21   -1    0    0  502  503 -0.00000000000E+00 -0.00000000000E+00 -0.82600667671E+03  0.82600667671E+03  0.00000000000E+00 0.  1.
          6    1    1    2  501    0  0.33209526752E+03  0.13172070059E+03 -0.10449153182E+03  0.41004888720E+03  0.17200000000E+03 0. -1.
         -6    1    1    2    0  503 -0.33209526752E+03 -0.13172070059E+03 -0.49962642295E+03  0.63784651146E+03  0.17200000000E+03 0.  1.
<mgrwt>
<rscale>  2 0.39651180E+03</rscale>
<asrwt>0</asrwt>
<pdfrwt beam="1">  1       21 0.55472181E-01 0.39651180E+03</pdfrwt>
<pdfrwt beam="2">  1       21 0.20650167E+00 0.39651180E+03</pdfrwt>
<totfact> 0.31348710E+02</totfact>
</mgrwt>
</event>
<event>
 4    1  0.2417478E-001  0.2319253E+03  0.7546771E-02  0.1125292E+00
         21   -1    0    0  503  502  0.00000000000E+00  0.00000000000E+00  0.53770123398E+03  0.53770123398E+03  0.00000000000E+00 0.  1.
         21   -1    0    0  501  503 -0.00000000000E+00 -0.00000000000E+00 -0.11141966552E+03  0.11141966552E+03  0.00000000000E+00 0.  1.
          6    1    1    2  501    0 -0.21579225583E+02 -0.15407684762E+03  0.31688426058E+03  0.39268940978E+03  0.17200000000E+03 0.  1.
         -6    1    1    2    0  502  0.21579225583E+02  0.15407684762E+03  0.10939730788E+03  0.25643148972E+03  0.17200000000E+03 0.  1.
<mgrwt>
<rscale>  2 0.23192529E+03</rscale>
<asrwt>0</asrwt>
<pdfrwt beam="1">  1       21 0.13442530E+00 0.23192529E+03</pdfrwt>
<pdfrwt beam="2">  1       21 0.27854918E-01 0.23192529E+03</pdfrwt>
<totfact> 0.47399040E+03</totfact>
</mgrwt>
</event>
<event>
 4    1  0.2417478E-001  0.3771849E+03  0.7546771E-02  0.1051979E+00
         21   -1    0    0  503  502  0.00000000000E+00  0.00000000000E+00  0.63044686994E+03  0.63044686994E+03  0.00000000000E+00 0.  1.
         21   -1    0    0  501  503 -0.00000000000E+00 -0.00000000000E+00 -0.38193990199E+03  0.38193990199E+03  0.00000000000E+00 0.  1.
          6    1    1    2  501    0 -0.10410129580E+03  0.31913528842E+03 -0.19953888632E+03  0.42671322836E+03  0.17200000000E+03 0.  1.
         -6    1    1    2    0  502  0.10410129580E+03 -0.31913528842E+03  0.44804585427E+03  0.58567354356E+03  0.17200000000E+03 0.  1.
<mgrwt>
<rscale>  2 0.37718485E+03</rscale>
<asrwt>0</asrwt>
<pdfrwt beam="1">  1       21 0.15761172E+00 0.37718485E+03</pdfrwt>
<pdfrwt beam="2">  1       21 0.95484976E-01 0.37718485E+03</pdfrwt>
<totfact> 0.20379200E+02</totfact>
</mgrwt>
</event>
<event>
 4    1  0.2417478E-001  0.1811665E+03  0.7546771E-02  0.1166679E+00
         21   -1    0    0  501  502  0.00000000000E+00  0.00000000000E+00  0.99364760565E+03  0.99364760565E+03  0.00000000000E+00 0. -1.
         21   -1    0    0  502  503 -0.00000000000E+00 -0.00000000000E+00 -0.36623056938E+02  0.36623056938E+02  0.00000000000E+00 0. -1.
          6    1    1    2  501    0  0.55664321165E+02 -0.11780825548E+02  0.31718503146E+03  0.36527749545E+03  0.17200000000E+03 0. -1.
         -6    1    1    2    0  503 -0.55664321165E+02  0.11780825548E+02  0.63983951725E+03  0.66499316714E+03  0.17200000000E+03 0. -1.
<mgrwt>
<rscale>  2 0.18116651E+03</rscale>
<asrwt>0</asrwt>
<pdfrwt beam="1">  1       21 0.24841181E+00 0.18116651E+03</pdfrwt>
<pdfrwt beam="2">  1       21 0.91557675E-02 0.18116651E+03</pdfrwt>
<totfact> 0.65161734E+03</totfact>
</mgrwt>
</event>
<event>
 4    1  0.2417478E-001  0.1776069E+03  0.7546771E-02  0.1170139E+00
         21   -1    0    0  501  502  0.00000000000E+00  0.00000000000E+00  0.19761213574E+03  0.19761213574E+03  0.00000000000E+00 0. -1.
         21   -1    0    0  502  503 -0.00000000000E+00 -0.00000000000E+00 -0.16550967127E+03  0.16550967127E+03  0.00000000000E+00 0. -1.
          6    1    1    2  501    0  0.56153540739E+01 -0.43916737555E+02 -0.18178361054E+02  0.17853477210E+03  0.17200000000E+03 0. -1.
         -6    1    1    2    0  503 -0.56153540739E+01  0.43916737555E+02  0.50280825528E+02  0.18458703490E+03  0.17200000000E+03 0. -1.
<mgrwt>
<rscale>  2 0.17760690E+03</rscale>
<asrwt>0</asrwt>
<pdfrwt beam="1">  1       21 0.49403034E-01 0.17760690E+03</pdfrwt>
<pdfrwt beam="2">  1       21 0.41377418E-01 0.17760690E+03</pdfrwt>
<totfact> 0.22168406E+04</totfact>
</mgrwt>
</event>
<event>
 4    1  0.2417478E-001  0.1733322E+03  0.7546771E-02  0.1174417E+00
         21   -1    0    0  503  502  0.00000000000E+00  0.00000000000E+00  0.43516753300E+02  0.43516753300E+02  0.00000000000E+00 0. -1.
         21   -1    0    0  501  503 -0.00000000000E+00 -0.00000000000E+00 -0.72707571690E+03  0.72707571690E+03  0.00000000000E+00 0. -1.
          6    1    1    2  501    0 -0.13969852495E+02 -0.16275854791E+02 -0.42831242900E+03  0.46205583761E+03  0.17200000000E+03 0. -1.
         -6    1    1    2    0  502  0.13969852495E+02  0.16275854791E+02 -0.25524653459E+03  0.30853663259E+03  0.17200000000E+03 0. -1.
<mgrwt>
<rscale>  2 0.17333223E+03</rscale>
<asrwt>0</asrwt>
<pdfrwt beam="1">  1       21 0.10879188E-01 0.17333223E+03</pdfrwt>
<pdfrwt beam="2">  1       21 0.18176893E+00 0.17333223E+03</pdfrwt>
<totfact> 0.12564900E+04</totfact>
</mgrwt>
</event>
<event>
 4    1  0.2417478E-001  0.2019912E+03  0.7546771E-02  0.1148070E+00
         21   -1    0    0  503  502  0.00000000000E+00  0.00000000000E+00  0.57265857394E+02  0.57265857394E+02  0.00000000000E+00 0. -1.
         21   -1    0    0  501  503 -0.00000000000E+00 -0.00000000000E+00 -0.84651346502E+03  0.84651346502E+03  0.00000000000E+00 0. -1.
          6    1    1    2  501    0  0.88958837980E+02  0.57469876135E+02 -0.57444092810E+03  0.60891940468E+03  0.17200000000E+03 0. -1.
         -6    1    1    2    0  502 -0.88958837980E+02 -0.57469876135E+02 -0.21480667953E+03  0.29485991774E+03  0.17200000000E+03 0. -1.
<mgrwt>
<rscale>  2 0.20199124E+03</rscale>
<asrwt>0</asrwt>
<pdfrwt beam="1">  1       21 0.14316465E-01 0.20199124E+03</pdfrwt>
<pdfrwt beam="2">  1       21 0.21162836E+00 0.20199124E+03</pdfrwt>
<totfact> 0.47973122E+03</totfact>
</mgrwt>
</event>
<event>
 4    1  0.2417478E-001  0.2258686E+03  0.7546771E-02  0.1129582E+00
         21   -1    0    0  501  502  0.00000000000E+00  0.00000000000E+00  0.91167267549E+02  0.91167267549E+02  0.00000000000E+00 0. -1.
         21   -1    0    0  502  503 -0.00000000000E+00 -0.00000000000E+00 -0.56363079482E+03  0.56363079482E+03  0.00000000000E+00 0. -1.
          6    1    1    2  501    0  0.15684038211E+02  0.14555631205E+03 -0.26394034129E+03  0.34739190088E+03  0.17200000000E+03 0. -1.
         -6    1    1    2    0  503 -0.15684038211E+02 -0.14555631205E+03 -0.20852318598E+03  0.30740616149E+03  0.17200000000E+03 0. -1.
<mgrwt>
<rscale>  2 0.22586861E+03</rscale>
<asrwt>0</asrwt>
<pdfrwt beam="1">  1       21 0.22791817E-01 0.22586861E+03</pdfrwt>
<pdfrwt beam="2">  1       21 0.14090770E+00 0.22586861E+03</pdfrwt>
<totfact> 0.61945187E+03</totfact>
</mgrwt>
</event>
<event>
 4    1  0.2417478E-001  0.2075409E+03  0.7546771E-02  0.1143528E+00
         21   -1    0    0  503  502  0.00000000000E+00  0.00000000000E+00  0.35014521200E+03  0.35014521200E+03  0.00000000000E+00 0. -1.
         21   -1    0    0  501  503 -0.00000000000E+00 -0.00000000000E+00 -0.12900339370E+03  0.12900339370E+03  0.00000000000E+00 0.  1.
          6    1    1    2  501    0  0.48811529622E+02  0.10538810955E+03  0.58954964483E+02  0.21575195688E+03  0.17200000000E+03 0.  1.
         -6    1    1    2    0  502 -0.48811529622E+02 -0.10538810955E+03  0.16218685382E+03  0.26339664882E+03  0.17200000000E+03 0.  1.
<mgrwt>
<rscale>  2 0.20754089E+03</rscale>
<asrwt>0</asrwt>
<pdfrwt beam="1">  1       21 0.87536301E-01 0.20754089E+03</pdfrwt>
<pdfrwt beam="2">  1       21 0.32250849E-01 0.20754089E+03</pdfrwt>
<totfact> 0.10254228E+04</totfact>
</mgrwt>
</event>
<event>
 4    1  0.2417478E-001  0.1871467E+03  0.7546771E-02  0.1161060E+00
         21   -1    0    0  501  502  0.00000000000E+00  0.00000000000E+00  0.66317207221E+03  0.66317207221E+03  0.00000000000E+00 0. -1.
         21   -1    0    0  502  503 -0.00000000000E+00 -0.00000000000E+00 -0.71125285686E+02  0.71125285686E+02  0.00000000000E+00 0. -1.
          6    1    1    2  501    0 -0.35526428882E+02  0.64635735300E+02  0.48231995234E+03  0.51735523758E+03  0.17200000000E+03 0. -1.
         -6    1    1    2    0  503  0.35526428882E+02 -0.64635735300E+02  0.10972683418E+03  0.21694212031E+03  0.17200000000E+03 0. -1.
<mgrwt>
<rscale>  2 0.18714675E+03</rscale>
<asrwt>0</asrwt>
<pdfrwt beam="1">  1       21 0.16579300E+00 0.18714675E+03</pdfrwt>
<pdfrwt beam="2">  1       21 0.17781323E-01 0.18714675E+03</pdfrwt>
<totfact> 0.65935049E+03</totfact>
</mgrwt>
</event>
<event>
 4    1  0.2417478E-001  0.2217429E+03  0.7546771E-02  0.1132590E+00
         21   -1    0    0  503  502  0.00000000000E+00  0.00000000000E+00  0.26176883775E+03  0.26176883775E+03  0.00000000000E+00 0.  1.
         21   -1    0    0  501  503 -0.00000000000E+00 -0.00000000000E+00 -0.18822378130E+03  0.18822378130E+03  0.00000000000E+00 0. -1.
          6    1    1    2  501    0  0.10167254546E+03  0.96169611923E+02  0.26574605343E+02  0.22332960038E+03  0.17200000000E+03 0. -1.
         -6    1    1    2    0  502 -0.10167254546E+03 -0.96169611923E+02  0.46970451110E+02  0.22666301867E+03  0.17200000000E+03 0. -1.
<mgrwt>
<rscale>  2 0.22174287E+03</rscale>
<asrwt>0</asrwt>
<pdfrwt beam="1">  1       21 0.65442209E-01 0.22174287E+03</pdfrwt>
<pdfrwt beam="2">  1       21 0.47055946E-01 0.22174287E+03</pdfrwt>
<totfact> 0.91009084E+03</totfact>
</mgrwt>
</event>
<event>
 4    1  0.2417478E-001  0.1823604E+03  0.7546771E-02  0.1165538E+00
         21   -1    0    0  501  502  0.00000000000E+00  0.00000000000E+00  0.33581498234E+03  0.33581498234E+03  0.00000000000E+00 0. -1.
         21   -1    0    0  502  503 -0.00000000000E+00 -0.00000000000E+00 -0.10234150145E+03  0.10234150145E+03  0.00000000000E+00 0. -1.
          6    1    1    2  501    0 -0.60511852200E+02 -0.31055541378E+01  0.15615247087E+03  0.24008107565E+03  0.17200000000E+03 0. -1.
         -6    1    1    2    0  503  0.60511852200E+02  0.31055541378E+01  0.77321010008E+02  0.19807540815E+03  0.17200000000E+03 0. -1.
<mgrwt>
<rscale>  2 0.18236044E+03</rscale>
<asrwt>0</asrwt>
<pdfrwt beam="1">  1       21 0.83953743E-01 0.18236044E+03</pdfrwt>
<pdfrwt beam="2">  1       21 0.25585376E-01 0.18236044E+03</pdfrwt>
<totfact> 0.17976846E+04</totfact>
</mgrwt>
</event>
<event>
 4    1  0.2417478E-001  0.1949519E+03  0.7546771E-02  0.1154069E+00
         21   -1    0    0  501  502  0.00000000000E+00  0.00000000000E+00  0.76964038732E+02  0.76964038732E+02  0.00000000000E+00 0.  1.
         21   -1    0    0  502  503 -0.00000000000E+00 -0.00000000000E+00 -0.53429778827E+03  0.53429778827E+03  0.00000000000E+00 0. -1.
          6    1    1    2  501    0  0.90140913588E+02 -0.17229085974E+02 -0.14454191978E+03  0.24269032177E+03  0.17200000000E+03 0.  1.
         -6    1    1    2    0  503 -0.90140913588E+02  0.17229085974E+02 -0.31279182976E+03  0.36857150524E+03  0.17200000000E+03 0. -1.
<mgrwt>
<rscale>  2 0.19495185E+03</rscale>
<asrwt>0</asrwt>
<pdfrwt beam="1">  1       21 0.19241010E-01 0.19495185E+03</pdfrwt>
<pdfrwt beam="2">  1       21 0.13357444E+00 0.19495185E+03</pdfrwt>
<totfact> 0.99959861E+03</totfact>
</mgrwt>
</event>
<event>
 4    1  0.2417478E-001  0.2083831E+03  0.7546771E-02  0.1142853E+00
         21   -1    0    0  501  502  0.00000000000E+00  0.00000000000E+00  0.56946329598E+03  0.56946329598E+03  0.00000000000E+00 0. -1.
         21   -1    0    0  502  503 -0.00000000000E+00 -0.00000000000E+00 -0.10290967198E+03  0.10290967198E+03  0.00000000000E+00 0.  1.
          6    1    1    2  501    0 -0.11345974947E+03  0.31087094707E+02  0.40437748536E+03  0.45491171987E+03  0.17200000000E+03 0. -1.
         -6    1    1    2    0  503  0.11345974947E+03 -0.31087094707E+02  0.62176138638E+02  0.21746124809E+03  0.17200000000E+03 0. -1.
<mgrwt>
<rscale>  2 0.20838311E+03</rscale>
<asrwt>0</asrwt>
<pdfrwt beam="1">  1       21 0.14236582E+00 0.20838311E+03</pdfrwt>
<pdfrwt beam="2">  1       21 0.25727420E-01 0.20838311E+03</pdfrwt>
<totfact> 0.48495326E+03</totfact>
</mgrwt>
</event>
<event>
 4    1  0.2417478E-001  0.1861140E+03  0.7546771E-02  0.1162014E+00
         21   -1    0    0  503  502  0.00000000000E+00  0.00000000000E+00  0.54560167129E+03  0.54560167129E+03  0.00000000000E+00 0. -1.
         21   -1    0    0  501  503 -0.00000000000E+00 -0.00000000000E+00 -0.16148936660E+03  0.16148936660E+03  0.00000000000E+00 0. -1.
          6    1    1    2  501    0  0.70433544163E+02 -0.96707486545E+01 -0.83361954597E+02  0.20393043666E+03  0.17200000000E+03 0. -1.
         -6    1    1    2    0  502 -0.70433544163E+02  0.96707486545E+01  0.46747425929E+03  0.50316060122E+03  0.17200000000E+03 0. -1.
<mgrwt>
<rscale>  2 0.18611396E+03</rscale>
<asrwt>0</asrwt>
<pdfrwt beam="1">  1       21 0.13640041E+00 0.18611396E+03</pdfrwt>
<pdfrwt beam="2">  1       21 0.40372343E-01 0.18611396E+03</pdfrwt>
<totfact> 0.22759964E+03</totfact>
</mgrwt>
</event>
<event>
 4    1  0.2417478E-001  0.1815781E+03  0.7546771E-02  0.1166284E+00
         21   -1    0    0  503  502  0.00000000000E+00  0.00000000000E+00  0.61496155519E+03  0.61496155519E+03  0.00000000000E+00 0. -1.
         21   -1    0    0  501  503 -0.00000000000E+00 -0.00000000000E+00 -0.54316661955E+02  0.54316661955E+02  0.00000000000E+00 0. -1.
          6    1    1    2  501    0  0.40734886678E+02 -0.41560591061E+02  0.24226402607E+03  0.30275810815E+03  0.17200000000E+03 0. -1.
         -6    1    1    2    0  502 -0.40734886678E+02  0.41560591061E+02  0.31838086716E+03  0.36652010899E+03  0.17200000000E+03 0. -1.
<mgrwt>
<rscale>  2 0.18157812E+03</rscale>
<asrwt>0</asrwt>
<pdfrwt beam="1">  1       21 0.15374037E+00 0.18157812E+03</pdfrwt>
<pdfrwt beam="2">  1       21 0.13579167E-01 0.18157812E+03</pdfrwt>
<totfact> 0.13267670E+04</totfact>
</mgrwt>
</event>
<event>
 4    1  0.2417478E-001  0.1722055E+03  0.7546771E-02  0.1175567E+00
         21   -1    0    0  503  502  0.00000000000E+00  0.00000000000E+00  0.26827157235E+03  0.26827157235E+03  0.00000000000E+00 0. -1.
         21   -1    0    0  501  503 -0.00000000000E+00 -0.00000000000E+00 -0.11113370111E+03  0.11113370111E+03  0.00000000000E+00 0. -1.
          6    1    1    2  501    0  0.79233074304E+01 -0.28189055528E+01  0.92435034179E+02  0.19544554375E+03  0.17200000000E+03 0. -1.
         -6    1    1    2    0  502 -0.79233074304E+01  0.28189055528E+01  0.64702837070E+02  0.18395972971E+03  0.17200000000E+03 0. -1.
<mgrwt>
<rscale>  2 0.17220547E+03</rscale>
<asrwt>0</asrwt>
<pdfrwt beam="1">  1       21 0.67067892E-01 0.17220547E+03</pdfrwt>
<pdfrwt beam="2">  1       21 0.27783426E-01 0.17220547E+03</pdfrwt>
<totfact> 0.25473759E+04</totfact>
</mgrwt>
</event>
<event>
 4    1  0.2417478E-001  0.2346314E+03  0.7546771E-02  0.1123422E+00
         21   -1    0    0  503  502  0.00000000000E+00  0.00000000000E+00  0.46673482464E+02  0.46673482464E+02  0.00000000000E+00 0.  1.
         21   -1    0    0  501  503 -0.00000000000E+00 -0.00000000000E+00 -0.12162660978E+04  0.12162660978E+04  0.00000000000E+00 0.  1.
          6    1    1    2  501    0 -0.80110850048E+02  0.13802232418E+03 -0.69456891859E+03  0.73312883789E+03  0.17200000000E+03 0.  1.
         -6    1    1    2    0  502  0.80110850048E+02 -0.13802232418E+03 -0.47502369672E+03  0.52981074236E+03  0.17200000000E+03 0.  1.
<mgrwt>
<rscale>  2 0.23463143E+03</rscale>
<asrwt>0</asrwt>
<pdfrwt beam="1">  1       21 0.11668371E-01 0.23463143E+03</pdfrwt>
<pdfrwt beam="2">  1       21 0.30406651E+00 0.23463143E+03</pdfrwt>
<totfact> 0.18993346E+03</totfact>
</mgrwt>
</event>
<event>
 4    1  0.2417478E-001  0.1942635E+03  0.7546771E-02  0.1154671E+00
         21   -1    0    0  501  502  0.00000000000E+00  0.00000000000E+00  0.17836403707E+03  0.17836403707E+03  0.00000000000E+00 0.  1.
         21   -1    0    0  502  503 -0.00000000000E+00 -0.00000000000E+00 -0.21629987996E+03  0.21629987996E+03  0.00000000000E+00 0.  1.
          6    1    1    2  501    0  0.84935266305E+02  0.30664238530E+02 -0.48117112283E+02  0.20013383392E+03  0.17200000000E+03 0.  1.
         -6    1    1    2    0  503 -0.84935266305E+02 -0.30664238530E+02  0.10181269384E+02  0.19453008311E+03  0.17200000000E+03 0.  1.
<mgrwt>
<rscale>  2 0.19426347E+03</rscale>
<asrwt>0</asrwt>
<pdfrwt beam="1">  1       21 0.44591009E-01 0.19426347E+03</pdfrwt>
<pdfrwt beam="2">  1       21 0.54074970E-01 0.19426347E+03</pdfrwt>
<totfact> 0.15594684E+04</totfact>
</mgrwt>
</event>
<event>
 4    1  0.2417478E-001  0.1825138E+03  0.7546771E-02  0.1165392E+00
         21   -1    0    0  501  502  0.00000000000E+00  0.00000000000E+00  0.84559240039E+03  0.84559240039E+03  0.00000000000E+00 0.  1.
         21   -1    0    0  502  503 -0.00000000000E+00 -0.00000000000E+00 -0.43482344114E+02  0.43482344114E+02  0.00000000000E+00 0.  1.
          6    1    1    2  501    0  0.60576967868E+02 -0.75963158375E+01  0.53736422109E+03  0.56751350571E+03  0.17200000000E+03 0.  1.
         -6    1    1    2    0  503 -0.60576967868E+02  0.75963158375E+01  0.26474583519E+03  0.32156123880E+03  0.17200000000E+03 0.  1.
<mgrwt>
<rscale>  2 0.18251376E+03</rscale>
<asrwt>0</asrwt>
<pdfrwt beam="1">  1       21 0.21139805E+00 0.18251376E+03</pdfrwt>
<pdfrwt beam="2">  1       21 0.10870589E-01 0.18251376E+03</pdfrwt>
<totfact> 0.80333649E+03</totfact>
</mgrwt>
</event>
<event>
 4    1  0.2417478E-001  0.1739322E+03  0.7546771E-02  0.1173808E+00
         21   -1    0    0  501  502  0.00000000000E+00  0.00000000000E+00  0.25852177042E+03  0.25852177042E+03  0.00000000000E+00 0. -1.
         21   -1    0    0  502  503 -0.00000000000E+00 -0.00000000000E+00 -0.21091277776E+03  0.21091277776E+03  0.00000000000E+00 0. -1.
          6    1    1    2  501    0 -0.21030787852E+02 -0.15037736698E+02  0.18041028909E+03  0.25059988023E+03  0.17200000000E+03 0. -1.
         -6    1    1    2    0  503  0.21030787852E+02  0.15037736698E+02 -0.13280129643E+03  0.21883466795E+03  0.17200000000E+03 0. -1.
<mgrwt>
<rscale>  2 0.17393225E+03</rscale>
<asrwt>0</asrwt>
<pdfrwt beam="1">  1       21 0.64630442E-01 0.17393225E+03</pdfrwt>
<pdfrwt beam="2">  1       21 0.52728195E-01 0.17393225E+03</pdfrwt>
<totfact> 0.76287430E+03</totfact>
</mgrwt>
</event>
<event>
 4    1  0.2417478E-001  0.1762948E+03  0.7546771E-02  0.1171438E+00
         21   -1    0    0  501  502  0.00000000000E+00  0.00000000000E+00  0.26815189150E+03  0.26815189150E+03  0.00000000000E+00 0. -1.
         21   -1    0    0  502  503 -0.00000000000E+00 -0.00000000000E+00 -0.18240063578E+03  0.18240063578E+03  0.00000000000E+00 0. -1.
          6    1    1    2  501    0 -0.12793635447E+02 -0.36498891054E+02  0.17889553408E+03  0.25116420579E+03  0.17200000000E+03 0. -1.
         -6    1    1    2    0  503  0.12793635447E+02  0.36498891054E+02 -0.93144278360E+02  0.19938832149E+03  0.17200000000E+03 0. -1.
<mgrwt>
<rscale>  2 0.17629477E+03</rscale>
<asrwt>0</asrwt>
<pdfrwt beam="1">  1       21 0.67037972E-01 0.17629477E+03</pdfrwt>
<pdfrwt beam="2">  1       21 0.45600159E-01 0.17629477E+03</pdfrwt>
<totfact> 0.95050379E+03</totfact>
</mgrwt>
</event>
<event>
 4    1  0.2417478E-001  0.1787465E+03  0.7546771E-02  0.1169022E+00
         21   -1    0    0  501  502  0.00000000000E+00  0.00000000000E+00  0.49383493851E+03  0.49383493851E+03  0.00000000000E+00 0. -1.
         21   -1    0    0  502  503 -0.00000000000E+00 -0.00000000000E+00 -0.71283117866E+02  0.71283117866E+02  0.00000000000E+00 0. -1.
          6    1    1    2  501    0  0.44684495582E+02 -0.19225456763E+02  0.29715451275E+03  0.34677244236E+03  0.17200000000E+03 0. -1.
         -6    1    1    2    0  503 -0.44684495582E+02  0.19225456763E+02  0.12539730790E+03  0.21834561402E+03  0.17200000000E+03 0. -1.
<mgrwt>
<rscale>  2 0.17874653E+03</rscale>
<asrwt>0</asrwt>
<pdfrwt beam="1">  1       21 0.12345872E+00 0.17874653E+03</pdfrwt>
<pdfrwt beam="2">  1       21 0.17820781E-01 0.17874653E+03</pdfrwt>
<totfact> 0.14207884E+04</totfact>
</mgrwt>
</event>
<event>
 4    1  0.2417478E-001  0.1841025E+03  0.7546771E-02  0.1163891E+00
         21   -1    0    0  503  502  0.00000000000E+00  0.00000000000E+00  0.16235554860E+03  0.16235554860E+03  0.00000000000E+00 0. -1.
         21   -1    0    0  501  503 -0.00000000000E+00 -0.00000000000E+00 -0.23855156432E+03  0.23855156432E+03  0.00000000000E+00 0. -1.
          6    1    1    2  501    0  0.30113702044E+02 -0.58334248770E+02 -0.10893374796E+03  0.21391652829E+03  0.17200000000E+03 0. -1.
         -6    1    1    2    0  502 -0.30113702044E+02  0.58334248770E+02  0.32737732226E+02  0.18699058463E+03  0.17200000000E+03 0. -1.
<mgrwt>
<rscale>  2 0.18410247E+03</rscale>
<asrwt>0</asrwt>
<pdfrwt beam="1">  1       21 0.40588888E-01 0.18410247E+03</pdfrwt>
<pdfrwt beam="2">  1       21 0.59637890E-01 0.18410247E+03</pdfrwt>
<totfact> 0.15434434E+04</totfact>
</mgrwt>
</event>
<event>
 4    1  0.2417478E-001  0.2087181E+03  0.7546771E-02  0.1142585E+00
         21   -1    0    0  501  502  0.00000000000E+00  0.00000000000E+00  0.10706460558E+03  0.10706460558E+03  0.00000000000E+00 0.  1.
         21   -1    0    0  502  503 -0.00000000000E+00 -0.00000000000E+00 -0.40695217854E+03  0.40695217854E+03  0.00000000000E+00 0. -1.
          6    1    1    2  501    0  0.64313446797E+02  0.99211938186E+02 -0.15318891190E+03  0.25890166250E+03  0.17200000000E+03 0.  1.
         -6    1    1    2    0  503 -0.64313446797E+02 -0.99211938186E+02 -0.14669866106E+03  0.25511512161E+03  0.17200000000E+03 0.  1.
<mgrwt>
<rscale>  2 0.20871806E+03</rscale>
<asrwt>0</asrwt>
<pdfrwt beam="1">  1       21 0.26766152E-01 0.20871806E+03</pdfrwt>
<pdfrwt beam="2">  1       21 0.10173804E+00 0.20871806E+03</pdfrwt>
<totfact> 0.10355412E+04</totfact>
</mgrwt>
</event>
<event>
 4    1  0.2417478E-001  0.2962955E+03  0.7546771E-02  0.1087107E+00
         21   -1    0    0  503  502  0.00000000000E+00  0.00000000000E+00  0.32996550304E+03  0.32996550304E+03  0.00000000000E+00 0. -1.
         21   -1    0    0  501  503 -0.00000000000E+00 -0.00000000000E+00 -0.28749962341E+03  0.28749962341E+03  0.00000000000E+00 0. -1.
          6    1    1    2  501    0  0.16373518390E+03 -0.17719427127E+03  0.10553926185E+03  0.31453069168E+03  0.17200000000E+03 0. -1.
         -6    1    1    2    0  502 -0.16373518390E+03  0.17719427127E+03 -0.63073382218E+02  0.30293443476E+03  0.17200000000E+03 0. -1.
<mgrwt>
<rscale>  2 0.29629549E+03</rscale>
<asrwt>0</asrwt>
<pdfrwt beam="1">  1       21 0.82491376E-01 0.29629549E+03</pdfrwt>
<pdfrwt beam="2">  1       21 0.71874906E-01 0.29629549E+03</pdfrwt>
<totfact> 0.20787277E+03</totfact>
</mgrwt>
</event>
<event>
 4    1  0.2417478E-001  0.1847619E+03  0.7546771E-02  0.1163272E+00
         21   -1    0    0  503  502  0.00000000000E+00  0.00000000000E+00  0.22499942865E+03  0.22499942865E+03  0.00000000000E+00 0.  1.
         21   -1    0    0  501  503 -0.00000000000E+00 -0.00000000000E+00 -0.15181357643E+03  0.15181357643E+03  0.00000000000E+00 0.  1.
          6    1    1    2  501    0 -0.57221144325E+02 -0.35758662358E+02  0.31918426852E+02  0.18749860603E+03  0.17200000000E+03 0.  1.
         -6    1    1    2    0  502  0.57221144325E+02  0.35758662358E+02  0.41267425370E+02  0.18931439905E+03  0.17200000000E+03 0.  1.
<mgrwt>
<rscale>  2 0.18476185E+03</rscale>
<asrwt>0</asrwt>
<pdfrwt beam="1">  1       21 0.56249857E-01 0.18476185E+03</pdfrwt>
<pdfrwt beam="2">  1       21 0.37953394E-01 0.18476185E+03</pdfrwt>
<totfact> 0.20005194E+04</totfact>
</mgrwt>
</event>
<event>
 4    1  0.2417478E-001  0.3004696E+03  0.7546771E-02  0.1085006E+00
         21   -1    0    0  503  502  0.00000000000E+00  0.00000000000E+00  0.21296460791E+03  0.21296460791E+03  0.00000000000E+00 0.  1.
         21   -1    0    0  501  503 -0.00000000000E+00 -0.00000000000E+00 -0.42408176725E+03  0.42408176725E+03  0.00000000000E+00 0. -1.
          6    1    1    2  501    0  0.18245166128E+03 -0.16555783262E+03 -0.11159184921E+03  0.32052261302E+03  0.17200000000E+03 0. -1.
         -6    1    1    2    0  502 -0.18245166128E+03  0.16555783262E+03 -0.99525310127E+02  0.31652376215E+03  0.17200000000E+03 0.  1.
<mgrwt>
<rscale>  2 0.30046964E+03</rscale>
<asrwt>0</asrwt>
<pdfrwt beam="1">  1       21 0.53241152E-01 0.30046964E+03</pdfrwt>
<pdfrwt beam="2">  1       21 0.10602044E+00 0.30046964E+03</pdfrwt>
<totfact> 0.22048148E+03</totfact>
</mgrwt>
</event>
<event>
 4    1  0.2417478E-001  0.1822087E+03  0.7546771E-02  0.1165682E+00
         21   -1    0    0  501  502  0.00000000000E+00  0.00000000000E+00  0.13139227220E+04  0.13139227220E+04  0.00000000000E+00 0.  1.
         21   -1    0    0  502  503 -0.00000000000E+00 -0.00000000000E+00 -0.29241550815E+02  0.29241550815E+02  0.00000000000E+00 0.  1.
          6    1    1    2  501    0 -0.12249506557E+02  0.58872303945E+02  0.88990981801E+03  0.90837188572E+03  0.17200000000E+03 0.  1.
         -6    1    1    2    0  503  0.12249506557E+02 -0.58872303945E+02  0.39477135315E+03  0.43479238707E+03  0.17200000000E+03 0.  1.
<mgrwt>
<rscale>  2 0.18220867E+03</rscale>
<asrwt>0</asrwt>
<pdfrwt beam="1">  1       21 0.32848048E+00 0.18220867E+03</pdfrwt>
<pdfrwt beam="2">  1       21 0.73103921E-02 0.18220867E+03</pdfrwt>
<totfact> 0.33250190E+03</totfact>
</mgrwt>
</event>
<event>
 4    1  0.2417478E-001  0.2808244E+03  0.7546771E-02  0.1095240E+00
         21   -1    0    0  503  502  0.00000000000E+00  0.00000000000E+00  0.74075511308E+03  0.74075511308E+03  0.00000000000E+00 0. -1.
         21   -1    0    0  501  503 -0.00000000000E+00 -0.00000000000E+00 -0.13112338546E+03  0.13112338546E+03  0.00000000000E+00 0.  1.
          6    1    1    2  501    0  0.20356075195E+03  0.88551348475E+02  0.11575831012E+03  0.30374711095E+03  0.17200000000E+03 0.  1.
         -6    1    1    2    0  502 -0.20356075195E+03 -0.88551348475E+02  0.49387341750E+03  0.56813138759E+03  0.17200000000E+03 0. -1.
<mgrwt>
<rscale>  2 0.28082436E+03</rscale>
<asrwt>0</asrwt>
<pdfrwt beam="1">  1       21 0.18518877E+00 0.28082436E+03</pdfrwt>
<pdfrwt beam="2">  1       21 0.32780848E-01 0.28082436E+03</pdfrwt>
<totfact> 0.13910342E+03</totfact>
</mgrwt>
</event>
<event>
 4    1  0.2417478E-001  0.1788941E+03  0.7546771E-02  0.1168878E+00
         21   -1    0    0  503  502  0.00000000000E+00  0.00000000000E+00  0.21300439149E+03  0.21300439149E+03  0.00000000000E+00 0. -1.
         21   -1    0    0  501  503 -0.00000000000E+00 -0.00000000000E+00 -0.16115230916E+03  0.16115230916E+03  0.00000000000E+00 0. -1.
          6    1    1    2  501    0 -0.47013466535E+02 -0.14451628908E+02 -0.22741428133E+02  0.18033382425E+03  0.17200000000E+03 0. -1.
         -6    1    1    2    0  502  0.47013466535E+02  0.14451628908E+02  0.74593510461E+02  0.19382287640E+03  0.17200000000E+03 0. -1.
<mgrwt>
<rscale>  2 0.17889415E+03</rscale>
<asrwt>0</asrwt>
<pdfrwt beam="1">  1       21 0.53251098E-01 0.17889415E+03</pdfrwt>
<pdfrwt beam="2">  1       21 0.40288077E-01 0.17889415E+03</pdfrwt>
<totfact> 0.19988472E+04</totfact>
</mgrwt>
</event>
<event>
 4    1  0.2417478E-001  0.2086711E+03  0.7546771E-02  0.1142623E+00
         21   -1    0    0  503  502  0.00000000000E+00  0.00000000000E+00  0.27698048867E+03  0.27698048867E+03  0.00000000000E+00 0. -1.
         21   -1    0    0  501  503 -0.00000000000E+00 -0.00000000000E+00 -0.19447246172E+03  0.19447246172E+03  0.00000000000E+00 0. -1.
          6    1    1    2  501    0  0.11745936016E+03  0.12764791331E+02 -0.61932938958E+02  0.21766793543E+03  0.17200000000E+03 0. -1.
         -6    1    1    2    0  502 -0.11745936016E+03 -0.12764791331E+02  0.14444096591E+03  0.25378501496E+03  0.17200000000E+03 0. -1.
<mgrwt>
<rscale>  2 0.20867113E+03</rscale>
<asrwt>0</asrwt>
<pdfrwt beam="1">  1       21 0.69245122E-01 0.20867113E+03</pdfrwt>
<pdfrwt beam="2">  1       21 0.48618116E-01 0.20867113E+03</pdfrwt>
<totfact> 0.75776111E+03</totfact>
</mgrwt>
</event>
<event>
 4    1  0.2417478E-001  0.1955851E+03  0.7546771E-02  0.1153518E+00
         21   -1    0    0  503  502  0.00000000000E+00  0.00000000000E+00  0.45508517443E+03  0.45508517443E+03  0.00000000000E+00 0.  1.
         21   -1    0    0  501  503 -0.00000000000E+00 -0.00000000000E+00 -0.10995859974E+03  0.10995859974E+03  0.00000000000E+00 0.  1.
          6    1    1    2  501    0  0.11806283297E+02 -0.92358694561E+02  0.35445747455E+02  0.19877101851E+03  0.17200000000E+03 0.  1.
         -6    1    1    2    0  502 -0.11806283297E+02  0.92358694561E+02  0.30968082723E+03  0.36627275566E+03  0.17200000000E+03 0.  1.
<mgrwt>
<rscale>  2 0.19558506E+03</rscale>
<asrwt>0</asrwt>
<pdfrwt beam="1">  1       21 0.11377129E+00 0.19558506E+03</pdfrwt>
<pdfrwt beam="2">  1       21 0.27489651E-01 0.19558506E+03</pdfrwt>
<totfact> 0.75807694E+03</totfact>
</mgrwt>
</event>
<event>
 4    1  0.2417478E-001  0.1907446E+03  0.7546771E-02  0.1157791E+00
         21   -1    0    0  501  502  0.00000000000E+00  0.00000000000E+00  0.38595092052E+03  0.38595092052E+03  0.00000000000E+00 0.  1.
         21   -1    0    0  502  503 -0.00000000000E+00 -0.00000000000E+00 -0.94414321381E+02  0.94414321381E+02  0.00000000000E+00 0.  1.
          6    1    1    2  501    0 -0.53016003791E+02  0.63156999102E+02  0.15516637408E+03  0.24588636977E+03  0.17200000000E+03 0.  1.
         -6    1    1    2    0  503  0.53016003791E+02 -0.63156999102E+02  0.13637022506E+03  0.23447887213E+03  0.17200000000E+03 0.  1.
<mgrwt>
<rscale>  2 0.19074460E+03</rscale>
<asrwt>0</asrwt>
<pdfrwt beam="1">  1       21 0.96487726E-01 0.19074460E+03</pdfrwt>
<pdfrwt beam="2">  1       21 0.23603581E-01 0.19074460E+03</pdfrwt>
<totfact> 0.15112399E+04</totfact>
</mgrwt>
</event>
<event>
 4    1  0.2417478E-001  0.3671123E+03  0.7546771E-02  0.1055803E+00
         21   -1    0    0  501  502  0.00000000000E+00  0.00000000000E+00  0.16042224574E+03  0.16042224574E+03  0.00000000000E+00 0. -1.
         21   -1    0    0  502  503 -0.00000000000E+00 -0.00000000000E+00 -0.88080025621E+03  0.88080025621E+03  0.00000000000E+00 0.  1.
          6    1    1    2  501    0 -0.32014387227E+03  0.51917029658E+02 -0.47209375425E+03  0.59803343529E+03  0.17200000000E+03 0. -1.
         -6    1    1    2    0  503  0.32014387227E+03 -0.51917029658E+02 -0.24828425622E+03  0.44318906666E+03  0.17200000000E+03 0.  1.
<mgrwt>
<rscale>  2 0.36711235E+03</rscale>
<asrwt>0</asrwt>
<pdfrwt beam="1">  1       21 0.40105562E-01 0.36711235E+03</pdfrwt>
<pdfrwt beam="2">  1       21 0.22020006E+00 0.36711235E+03</pdfrwt>
<totfact> 0.51540993E+02</totfact>
</mgrwt>
</event>
<event>
 4    1  0.2417478E-001  0.2528140E+03  0.7546771E-02  0.1111539E+00
         21   -1    0    0  501  502  0.00000000000E+00  0.00000000000E+00  0.11193699310E+04  0.11193699310E+04  0.00000000000E+00 0. -1.
         21   -1    0    0  502  503 -0.00000000000E+00 -0.00000000000E+00 -0.75467053060E+02  0.75467053060E+02  0.00000000000E+00 0. -1.
          6    1    1    2  501    0 -0.17721684076E+03 -0.54084265746E+02  0.81668622304E+03  0.85492181125E+03  0.17200000000E+03 0. -1.
         -6    1    1    2    0  503  0.17721684076E+03  0.54084265746E+02  0.22721665494E+03  0.33991517284E+03  0.17200000000E+03 0. -1.
<mgrwt>
<rscale>  2 0.25281400E+03</rscale>
<asrwt>0</asrwt>
<pdfrwt beam="1">  1       21 0.27984243E+00 0.25281400E+03</pdfrwt>
<pdfrwt beam="2">  1       21 0.18866767E-01 0.25281400E+03</pdfrwt>
<totfact> 0.10718718E+03</totfact>
</mgrwt>
</event>
<event>
 4    1  0.2417478E-001  0.2563108E+03  0.7546771E-02  0.1109380E+00
         21   -1    0    0  503  502  0.00000000000E+00  0.00000000000E+00  0.42799592385E+03  0.42799592385E+03  0.00000000000E+00 0.  1.
         21   -1    0    0  501  503 -0.00000000000E+00 -0.00000000000E+00 -0.15351578742E+03  0.15351578742E+03  0.00000000000E+00 0. -1.
          6    1    1    2  501    0  0.12220849300E+03 -0.14552090502E+03  0.13385957368E+03  0.28916022380E+03  0.17200000000E+03 0.  1.
         -6    1    1    2    0  502 -0.12220849300E+03  0.14552090502E+03  0.14062056275E+03  0.29235148747E+03  0.17200000000E+03 0. -1.
<mgrwt>
<rscale>  2 0.25631085E+03</rscale>
<asrwt>0</asrwt>
<pdfrwt beam="1">  1       21 0.10699898E+00 0.25631085E+03</pdfrwt>
<pdfrwt beam="2">  1       21 0.38378948E-01 0.25631085E+03</pdfrwt>
<totfact> 0.43657033E+03</totfact>
</mgrwt>
</event>
<event>
 4    1  0.2417478E-001  0.1835186E+03  0.7546771E-02  0.1164441E+00
         21   -1    0    0  503  502  0.00000000000E+00  0.00000000000E+00  0.10320276249E+03  0.10320276249E+03  0.00000000000E+00 0. -1.
         21   -1    0    0  501  503 -0.00000000000E+00 -0.00000000000E+00 -0.49620095559E+03  0.49620095559E+03  0.00000000000E+00 0.  1.
          6    1    1    2  501    0 -0.20764827054E+02  0.60530100719E+02 -0.21147838308E+02  0.18473305660E+03  0.17200000000E+03 0. -1.
         -6    1    1    2    0  502  0.20764827054E+02 -0.60530100719E+02 -0.37185035479E+03  0.41467066149E+03  0.17200000000E+03 0.  1.
<mgrwt>
<rscale>  2 0.18351859E+03</rscale>
<asrwt>0</asrwt>
<pdfrwt beam="1">  1       21 0.25800691E-01 0.18351859E+03</pdfrwt>
<pdfrwt beam="2">  1       21 0.12405024E+00 0.18351859E+03</pdfrwt>
<totfact> 0.69830268E+03</totfact>
</mgrwt>
</event>
<event>
 4    1  0.2417478E-001  0.1800633E+03  0.7546771E-02  0.1167742E+00
         21   -1    0    0  501  502  0.00000000000E+00  0.00000000000E+00  0.14503727301E+03  0.14503727301E+03  0.00000000000E+00 0.  1.
         21   -1    0    0  502  503 -0.00000000000E+00 -0.00000000000E+00 -0.23300735313E+03  0.23300735313E+03  0.00000000000E+00 0.  1.
          6    1    1    2  501    0  0.31513459733E+02  0.42961689373E+02 -0.58997746457E+01  0.18015996292E+03  0.17200000000E+03 0.  1.
         -6    1    1    2    0  503 -0.31513459733E+02 -0.42961689373E+02 -0.82070305479E+02  0.19788466322E+03  0.17200000000E+03 0.  1.
<mgrwt>
<rscale>  2 0.18006334E+03</rscale>
<asrwt>0</asrwt>
<pdfrwt beam="1">  1       21 0.36259319E-01 0.18006334E+03</pdfrwt>
<pdfrwt beam="2">  1       21 0.58251838E-01 0.18006334E+03</pdfrwt>
<totfact> 0.20401516E+04</totfact>
</mgrwt>
</event>
<event>
 4    1  0.2417478E-001  0.1973217E+03  0.7546771E-02  0.1152019E+00
         21   -1    0    0  501  502  0.00000000000E+00  0.00000000000E+00  0.10058800123E+04  0.10058800123E+04  0.00000000000E+00 0.  1.
         21   -1    0    0  502  503 -0.00000000000E+00 -0.00000000000E+00 -0.40751465690E+02  0.40751465690E+02  0.00000000000E+00 0.  1.
          6    1    1    2  501    0  0.93258298679E+02 -0.25588181938E+02  0.59974284347E+03  0.63136941930E+03  0.17200000000E+03 0.  1.
         -6    1    1    2    0  503 -0.93258298679E+02  0.25588181938E+02  0.36538570309E+03  0.41526205865E+03  0.17200000000E+03 0.  1.
<mgrwt>
<rscale>  2 0.19732173E+03</rscale>
<asrwt>0</asrwt>
<pdfrwt beam="1">  1       21 0.25146992E+00 0.19732173E+03</pdfrwt>
<pdfrwt beam="2">  1       21 0.10187870E-01 0.19732173E+03</pdfrwt>
<totfact> 0.50934993E+03</totfact>
</mgrwt>
</event>
<event>
 4    1  0.2417478E-001  0.1928089E+03  0.7546771E-02  0.1155952E+00
         21   -1    0    0  501  502  0.00000000000E+00  0.00000000000E+00  0.38918615576E+03  0.38918615576E+03  0.00000000000E+00 0.  1.
         21   -1    0    0  502  503 -0.00000000000E+00 -0.00000000000E+00 -0.95521437708E+02  0.95521437708E+02  0.00000000000E+00 0.  1.
          6    1    1    2  501    0  0.81090256241E+02  0.31868895291E+02  0.14759174265E+03  0.24281387655E+03  0.17200000000E+03 0.  1.
         -6    1    1    2    0  503 -0.81090256241E+02 -0.31868895291E+02  0.14607297540E+03  0.24189371692E+03  0.17200000000E+03 0.  1.
<mgrwt>
<rscale>  2 0.19280886E+03</rscale>
<asrwt>0</asrwt>
<pdfrwt beam="1">  1       21 0.97296535E-01 0.19280886E+03</pdfrwt>
<pdfrwt beam="2">  1       21 0.23880360E-01 0.19280886E+03</pdfrwt>
<totfact> 0.14475328E+04</totfact>
</mgrwt>
</event>
<event>
 4    1  0.2417478E-001  0.1727218E+03  0.7546771E-02  0.1175039E+00
         21   -1    0    0  503  502  0.00000000000E+00  0.00000000000E+00  0.42210127210E+02  0.42210127210E+02  0.00000000000E+00 0.  1.
         21   -1    0    0  501  503 -0.00000000000E+00 -0.00000000000E+00 -0.73585043338E+03  0.73585043338E+03  0.00000000000E+00 0.  1.
          6    1    1    2  501    0 -0.13913439290E+02  0.74329462594E+01 -0.42415806667E+03  0.45797696231E+03  0.17200000000E+03 0.  1.
         -6    1    1    2    0  502  0.13913439290E+02 -0.74329462594E+01 -0.26948223950E+03  0.32008359828E+03  0.17200000000E+03 0.  1.
<mgrwt>
<rscale>  2 0.17272184E+03</rscale>
<asrwt>0</asrwt>
<pdfrwt beam="1">  1       21 0.10552531E-01 0.17272184E+03</pdfrwt>
<pdfrwt beam="2">  1       21 0.18396262E+00 0.17272184E+03</pdfrwt>
<totfact> 0.12826586E+04</totfact>
</mgrwt>
</event>
<event>
 4    1  0.2417478E-001  0.2047956E+03  0.7546771E-02  0.1145755E+00
         21   -1    0    0  501  502  0.00000000000E+00  0.00000000000E+00  0.10603402432E+04  0.10603402432E+04  0.00000000000E+00 0. -1.
         21   -1    0    0  502  503 -0.00000000000E+00 -0.00000000000E+00 -0.47918938742E+02  0.47918938742E+02  0.00000000000E+00 0. -1.
          6    1    1    2  501    0 -0.21251318497E+02 -0.10911295758E+03  0.73772369678E+03  0.76562230169E+03  0.17200000000E+03 0. -1.
         -6    1    1    2    0  503  0.21251318497E+02  0.10911295758E+03  0.27469760770E+03  0.34263688027E+03  0.17200000000E+03 0. -1.
<mgrwt>
<rscale>  2 0.20479564E+03</rscale>
<asrwt>0</asrwt>
<pdfrwt beam="1">  1       21 0.26508498E+00 0.20479564E+03</pdfrwt>
<pdfrwt beam="2">  1       21 0.11979738E-01 0.20479564E+03</pdfrwt>
<totfact> 0.31525877E+03</totfact>
</mgrwt>
</event>
<event>
 4    1  0.2417478E-001  0.1751661E+03  0.7546771E-02  0.1172565E+00
         21   -1    0    0  503  502  0.00000000000E+00  0.00000000000E+00  0.40247742891E+03  0.40247742891E+03  0.00000000000E+00 0.  1.
         21   -1    0    0  501  503 -0.00000000000E+00 -0.00000000000E+00 -0.10042398075E+03  0.10042398075E+03  0.00000000000E+00 0.  1.
          6    1    1    2  501    0  0.32843548872E+02 -0.45222989065E+01  0.27620628764E+02  0.17733033870E+03  0.17200000000E+03 0.  1.
         -6    1    1    2    0  502 -0.32843548872E+02  0.45222989065E+01  0.27443281939E+03  0.32557107096E+03  0.17200000000E+03 0.  1.
<mgrwt>
<rscale>  2 0.17516606E+03</rscale>
<asrwt>0</asrwt>
<pdfrwt beam="1">  1       21 0.10061935E+00 0.17516606E+03</pdfrwt>
<pdfrwt beam="2">  1       21 0.25105996E-01 0.17516606E+03</pdfrwt>
<totfact> 0.12303073E+04</totfact>
</mgrwt>
</event>
<event>
 4    1  0.2417478E-001  0.1775938E+03  0.7546771E-02  0.1170152E+00
         21   -1    0    0  501  502  0.00000000000E+00  0.00000000000E+00  0.82150268225E+02  0.82150268225E+02  0.00000000000E+00 0.  1.
         21   -1    0    0  502  503 -0.00000000000E+00 -0.00000000000E+00 -0.38536167330E+03  0.38536167330E+03  0.00000000000E+00 0.  1.
          6    1    1    2  501    0  0.29615661714E+01  0.44122554207E+02 -0.13733470867E+03  0.22450031819E+03  0.17200000000E+03 0.  1.
         -6    1    1    2    0  503 -0.29615661714E+01 -0.44122554207E+02 -0.16587669641E+03  0.24301162334E+03  0.17200000000E+03 0.  1.
<mgrwt>
<rscale>  2 0.17759384E+03</rscale>
<asrwt>0</asrwt>
<pdfrwt beam="1">  1       21 0.20537567E-01 0.17759384E+03</pdfrwt>
<pdfrwt beam="2">  1       21 0.96340416E-01 0.17759384E+03</pdfrwt>
<totfact> 0.19875336E+04</totfact>
</mgrwt>
</event>
<event>
 4    1  0.2417478E-001  0.1847267E+03  0.7546771E-02  0.1163305E+00
         21   -1    0    0  503  502  0.00000000000E+00  0.00000000000E+00  0.62503695176E+03  0.62503695176E+03  0.00000000000E+00 0.  1.
         21   -1    0    0  501  503 -0.00000000000E+00 -0.00000000000E+00 -0.56166893801E+02  0.56166893801E+02  0.00000000000E+00 0.  1.
          6    1    1    2  501    0  0.64791001085E+01  0.67066824164E+02  0.22745685997E+03  0.29301972765E+03  0.17200000000E+03 0.  1.
         -6    1    1    2    0  502 -0.64791001085E+01 -0.67066824164E+02  0.34141319798E+03  0.38818411791E+03  0.17200000000E+03 0.  1.
<mgrwt>
<rscale>  2 0.18472666E+03</rscale>
<asrwt>0</asrwt>
<pdfrwt beam="1">  1       21 0.15625922E+00 0.18472666E+03</pdfrwt>
<pdfrwt beam="2">  1       21 0.14041725E-01 0.18472666E+03</pdfrwt>
<totfact> 0.11932356E+04</totfact>
</mgrwt>
</event>
<event>
 4    1  0.2417478E-001  0.2014881E+03  0.7546771E-02  0.1148490E+00
         21   -1    0    0  501  502  0.00000000000E+00  0.00000000000E+00  0.62050930691E+02  0.62050930691E+02  0.00000000000E+00 0.  1.
         21   -1    0    0  502  503 -0.00000000000E+00 -0.00000000000E+00 -0.70784399301E+03  0.70784399301E+03  0.00000000000E+00 0.  1.
          6    1    1    2  501    0  0.99950257567E+02  0.31990913758E+02 -0.21698378692E+03  0.29610713658E+03  0.17200000000E+03 0.  1.
         -6    1    1    2    0  503 -0.99950257567E+02 -0.31990913758E+02 -0.42880927540E+03  0.47378778712E+03  0.17200000000E+03 0.  1.
<mgrwt>
<rscale>  2 0.20148814E+03</rscale>
<asrwt>0</asrwt>
<pdfrwt beam="1">  1       21 0.15512733E-01 0.20148814E+03</pdfrwt>
<pdfrwt beam="2">  1       21 0.17696100E+00 0.20148814E+03</pdfrwt>
<totfact> 0.69908225E+03</totfact>
</mgrwt>
</event>
<event>
 4    1  0.2417478E-001  0.1774484E+03  0.7546771E-02  0.1170296E+00
         21   -1    0    0  503  502  0.00000000000E+00  0.00000000000E+00  0.22965606374E+03  0.22965606374E+03  0.00000000000E+00 0. -1.
         21   -1    0    0  501  503 -0.00000000000E+00 -0.00000000000E+00 -0.14125564863E+03  0.14125564863E+03  0.00000000000E+00 0. -1.
          6    1    1    2  501    0  0.10419065420E+02  0.42371964828E+02  0.12425608290E+02  0.17788292799E+03  0.17200000000E+03 0.  1.
         -6    1    1    2    0  502 -0.10419065420E+02 -0.42371964828E+02  0.75974806822E+02  0.19302878438E+03  0.17200000000E+03 0.  1.
<mgrwt>
<rscale>  2 0.17744842E+03</rscale>
<asrwt>0</asrwt>
<pdfrwt beam="1">  1       21 0.57414016E-01 0.17744842E+03</pdfrwt>
<pdfrwt beam="2">  1       21 0.35313912E-01 0.17744842E+03</pdfrwt>
<totfact> 0.22209892E+04</totfact>
</mgrwt>
</event>
<event>
 4    1  0.2417478E-001  0.2646842E+03  0.7546771E-02  0.1104361E+00
         21   -1    0    0  501  502  0.00000000000E+00  0.00000000000E+00  0.10593757714E+03  0.10593757714E+03  0.00000000000E+00 0.  1.
         21   -1    0    0  502  503 -0.00000000000E+00 -0.00000000000E+00 -0.70450896643E+03  0.70450896643E+03  0.00000000000E+00 0.  1.
          6    1    1    2  501    0  0.19867088770E+03 -0.31679471198E+02 -0.19894397013E+03  0.33111389848E+03  0.17200000000E+03 0.  1.
         -6    1    1    2    0  503 -0.19867088770E+03  0.31679471198E+02 -0.39962741916E+03  0.47933264510E+03  0.17200000000E+03 0.  1.
<mgrwt>
<rscale>  2 0.26468417E+03</rscale>
<asrwt>0</asrwt>
<pdfrwt beam="1">  1       21 0.26484395E-01 0.26468417E+03</pdfrwt>
<pdfrwt beam="2">  1       21 0.17612724E+00 0.26468417E+03</pdfrwt>
<totfact> 0.24694754E+03</totfact>
</mgrwt>
</event>
<event>
 4    1  0.2417478E-001  0.2336389E+03  0.7546771E-02  0.1124104E+00
         21   -1    0    0  501  502  0.00000000000E+00  0.00000000000E+00  0.11393244068E+03  0.11393244068E+03  0.00000000000E+00 0.  1.
         21   -1    0    0  502  503 -0.00000000000E+00 -0.00000000000E+00 -0.52620312755E+03  0.52620312755E+03  0.00000000000E+00 0.  1.
          6    1    1    2  501    0 -0.40238366984E+02  0.15291831171E+03 -0.11039279657E+03  0.25840608694E+03  0.17200000000E+03 0.  1.
         -6    1    1    2    0  503  0.40238366984E+02 -0.15291831171E+03 -0.30187789031E+03  0.38172948129E+03  0.17200000000E+03 0.  1.
<mgrwt>
<rscale>  2 0.23363890E+03</rscale>
<asrwt>0</asrwt>
<pdfrwt beam="1">  1       21 0.28483111E-01 0.23363890E+03</pdfrwt>
<pdfrwt beam="2">  1       21 0.13155078E+00 0.23363890E+03</pdfrwt>
<totfact> 0.47904425E+03</totfact>
</mgrwt>
</event>
<event>
 4    1  0.2417478E-001  0.3443857E+03  0.7546771E-02  0.1064943E+00
         21   -1    0    0  503  502  0.00000000000E+00  0.00000000000E+00  0.73157529110E+03  0.73157529110E+03  0.00000000000E+00 0.  1.
         21   -1    0    0  501  503 -0.00000000000E+00 -0.00000000000E+00 -0.17514337972E+03  0.17514337972E+03  0.00000000000E+00 0. -1.
          6    1    1    2  501    0 -0.37617823730E+02 -0.29597706305E+03  0.40185080634E+03  0.52923113388E+03  0.17200000000E+03 0.  1.
         -6    1    1    2    0  502  0.37617823730E+02  0.29597706305E+03  0.15458110503E+03  0.37748753694E+03  0.17200000000E+03 0. -1.
<mgrwt>
<rscale>  2 0.34438572E+03</rscale>
<asrwt>0</asrwt>
<pdfrwt beam="1">  1       21 0.18289381E+00 0.34438572E+03</pdfrwt>
<pdfrwt beam="2">  1       21 0.43785847E-01 0.34438572E+03</pdfrwt>
<totfact> 0.76831899E+02</totfact>
</mgrwt>
</event>
<event>
 4    1  0.2417478E-001  0.2376326E+03  0.7546771E-02  0.1121380E+00
         21   -1    0    0  501  502  0.00000000000E+00  0.00000000000E+00  0.61703955930E+03  0.61703955930E+03  0.00000000000E+00 0. -1.
         21   -1    0    0  502  503 -0.00000000000E+00 -0.00000000000E+00 -0.11115827194E+03  0.11115827194E+03  0.00000000000E+00 0.  1.
          6    1    1    2  501    0  0.16248352265E+03  0.22007905286E+02  0.40599294353E+03  0.47042482207E+03  0.17200000000E+03 0. -1.
         -6    1    1    2    0  503 -0.16248352265E+03 -0.22007905286E+02  0.99888343835E+02  0.25777300918E+03  0.17200000000E+03 0.  1.
<mgrwt>
<rscale>  2 0.23763258E+03</rscale>
<asrwt>0</asrwt>
<pdfrwt beam="1">  1       21 0.15425988E+00 0.23763258E+03</pdfrwt>
<pdfrwt beam="2">  1       21 0.27789570E-01 0.23763258E+03</pdfrwt>
<totfact> 0.33057086E+03</totfact>
</mgrwt>
</event>
<event>
 4    1  0.2417478E-001  0.1972255E+03  0.7546771E-02  0.1152101E+00
         21   -1    0    0  503  502  0.00000000000E+00  0.00000000000E+00  0.51342609003E+02  0.51342609003E+02  0.00000000000E+00 0.  1.
         21   -1    0    0  501  503 -0.00000000000E+00 -0.00000000000E+00 -0.75982848384E+03  0.75982848384E+03  0.00000000000E+00 0.  1.
          6    1    1    2  501    0 -0.21079810451E+02  0.94178149298E+02 -0.33234740425E+03  0.38646174368E+03  0.17200000000E+03 0.  1.
         -6    1    1    2    0  502  0.21079810451E+02 -0.94178149298E+02 -0.37613847059E+03  0.42470934917E+03  0.17200000000E+03 0.  1.
<mgrwt>
<rscale>  2 0.19722546E+03</rscale>
<asrwt>0</asrwt>
<pdfrwt beam="1">  1       21 0.12835652E-01 0.19722546E+03</pdfrwt>
<pdfrwt beam="2">  1       21 0.18995712E+00 0.19722546E+03</pdfrwt>
<totfact> 0.80855537E+03</totfact>
</mgrwt>
</event>
<event>
 4    1  0.2417478E-001  0.2766072E+03  0.7546771E-02  0.1097557E+00
         21   -1    0    0  503  502  0.00000000000E+00  0.00000000000E+00  0.20742575821E+03  0.20742575821E+03  0.00000000000E+00 0. -1.
         21   -1    0    0  501  503 -0.00000000000E+00 -0.00000000000E+00 -0.39700843460E+03  0.39700843460E+03  0.00000000000E+00 0.  1.
          6    1    1    2  501    0  0.14815031074E+03  0.15804756102E+03 -0.17526030001E+03  0.32745643814E+03  0.17200000000E+03 0.  1.
         -6    1    1    2    0  502 -0.14815031074E+03 -0.15804756102E+03 -0.14322376382E+02  0.27697775467E+03  0.17200000000E+03 0. -1.
<mgrwt>
<rscale>  2 0.27660721E+03</rscale>
<asrwt>0</asrwt>
<pdfrwt beam="1">  1       21 0.51856440E-01 0.27660721E+03</pdfrwt>
<pdfrwt beam="2">  1       21 0.99252108E-01 0.27660721E+03</pdfrwt>
<totfact> 0.27738340E+03</totfact>
</mgrwt>
</event>
<event>
 4    1  0.2417478E-001  0.1749007E+03  0.7546771E-02  0.1172831E+00
         21   -1    0    0  501  502  0.00000000000E+00  0.00000000000E+00  0.78542960876E+02  0.78542960876E+02  0.00000000000E+00 0. -1.
         21   -1    0    0  502  503 -0.00000000000E+00 -0.00000000000E+00 -0.47555544162E+03  0.47555544162E+03  0.00000000000E+00 0. -1.
          6    1    1    2  501    0 -0.10449783398E+02 -0.29950628610E+02 -0.80632351841E+02  0.19259235263E+03  0.17200000000E+03 0. -1.
         -6    1    1    2    0  503  0.10449783398E+02  0.29950628610E+02 -0.31638012890E+03  0.36150604987E+03  0.17200000000E+03 0. -1.
<mgrwt>
<rscale>  2 0.17490065E+03</rscale>
<asrwt>0</asrwt>
<pdfrwt beam="1">  1       21 0.19635741E-01 0.17490065E+03</pdfrwt>
<pdfrwt beam="2">  1       21 0.11888886E+00 0.17490065E+03</pdfrwt>
<totfact> 0.13071374E+04</totfact>
</mgrwt>
</event>
<event>
 4    1  0.2417478E-001  0.2044621E+03  0.7546771E-02  0.1146028E+00
         21   -1    0    0  503  502  0.00000000000E+00  0.00000000000E+00  0.10125684755E+03  0.10125684755E+03  0.00000000000E+00 0. -1.
         21   -1    0    0  501  503 -0.00000000000E+00 -0.00000000000E+00 -0.49374477548E+03  0.49374477548E+03  0.00000000000E+00 0.  1.
          6    1    1    2  501    0  0.51980781698E+02  0.97564033856E+02 -0.31665728228E+03  0.37693046679E+03  0.17200000000E+03 0. -1.
         -6    1    1    2    0  502 -0.51980781698E+02 -0.97564033856E+02 -0.75830645637E+02  0.21807115624E+03  0.17200000000E+03 0. -1.
<mgrwt>
<rscale>  2 0.20446208E+03</rscale>
<asrwt>0</asrwt>
<pdfrwt beam="1">  1       21 0.25314212E-01 0.20446208E+03</pdfrwt>
<pdfrwt beam="2">  1       21 0.12343619E+00 0.20446208E+03</pdfrwt>
<totfact> 0.72153261E+03</totfact>
</mgrwt>
</event>
<event>
 4    1  0.2417478E-001  0.2111655E+03  0.7546771E-02  0.1140646E+00
         21   -1    0    0  503  502  0.00000000000E+00  0.00000000000E+00  0.22807201551E+03  0.22807201551E+03  0.00000000000E+00 0.  1.
         21   -1    0    0  501  503 -0.00000000000E+00 -0.00000000000E+00 -0.20260170117E+03  0.20260170117E+03  0.00000000000E+00 0. -1.
          6    1    1    2  501    0  0.12245072844E+03 -0.35612945780E+01 -0.27546225738E+02  0.21295459203E+03  0.17200000000E+03 0. -1.
         -6    1    1    2    0  502 -0.12245072844E+03  0.35612945780E+01  0.53016540084E+02  0.21771912465E+03  0.17200000000E+03 0. -1.
<mgrwt>
<rscale>  2 0.21116549E+03</rscale>
<asrwt>0</asrwt>
<pdfrwt beam="1">  1       21 0.57018004E-01 0.21116549E+03</pdfrwt>
<pdfrwt beam="2">  1       21 0.50650425E-01 0.21116549E+03</pdfrwt>
<totfact> 0.10585161E+04</totfact>
</mgrwt>
</event>
<event>
 4    1  0.2417478E-001  0.1970700E+03  0.7546771E-02  0.1152235E+00
         21   -1    0    0  503  502  0.00000000000E+00  0.00000000000E+00  0.27012010020E+03  0.27012010020E+03  0.00000000000E+00 0. -1.
         21   -1    0    0  501  503 -0.00000000000E+00 -0.00000000000E+00 -0.27687893664E+03  0.27687893664E+03  0.00000000000E+00 0.  1.
          6    1    1    2  501    0  0.84789200949E+02  0.45424340891E+02 -0.19300926005E+03  0.27584262508E+03  0.17200000000E+03 0.  1.
         -6    1    1    2    0  502 -0.84789200949E+02 -0.45424340891E+02  0.18625042361E+03  0.27115641176E+03  0.17200000000E+03 0.  1.
<mgrwt>
<rscale>  2 0.19706999E+03</rscale>
<asrwt>0</asrwt>
<pdfrwt beam="1">  1       21 0.67530025E-01 0.19706999E+03</pdfrwt>
<pdfrwt beam="2">  1       21 0.69219734E-01 0.19706999E+03</pdfrwt>
<totfact> 0.37945183E+03</totfact>
</mgrwt>
</event>
<event>
 4    1  0.2417478E-001  0.2546988E+03  0.7546771E-02  0.1110371E+00
         21   -1    0    0  501  502  0.00000000000E+00  0.00000000000E+00  0.17175656096E+04  0.17175656096E+04  0.00000000000E+00 0.  1.
         21   -1    0    0  502  503 -0.00000000000E+00 -0.00000000000E+00 -0.44749633816E+02  0.44749633816E+02  0.00000000000E+00 0.  1.
          6    1    1    2  501    0 -0.15913946434E+03  0.99810406691E+02  0.11844187605E+04  0.12114946499E+04  0.17200000000E+03 0.  1.
         -6    1    1    2    0  503  0.15913946434E+03 -0.99810406691E+02  0.48839721526E+03  0.55082059354E+03  0.17200000000E+03 0.  1.
<mgrwt>
<rscale>  2 0.25469882E+03</rscale>
<asrwt>0</asrwt>
<pdfrwt beam="1">  1       21 0.42939118E+00 0.25469882E+03</pdfrwt>
<pdfrwt beam="2">  1       21 0.11187414E-01 0.25469882E+03</pdfrwt>
<totfact> 0.34452753E+02</totfact>
</mgrwt>
</event>
<event>
 4    1  0.2417478E-001  0.2066790E+03  0.7546771E-02  0.1144223E+00
         21   -1    0    0  501  502  0.00000000000E+00  0.00000000000E+00  0.13472649145E+03  0.13472649145E+03  0.00000000000E+00 0.  1.
         21   -1    0    0  502  503 -0.00000000000E+00 -0.00000000000E+00 -0.34648795085E+03  0.34648795085E+03  0.00000000000E+00 0.  1.
          6    1    1    2  501    0 -0.69079873679E+02 -0.91434112340E+02 -0.17600253980E+03  0.27146476726E+03  0.17200000000E+03 0.  1.
         -6    1    1    2    0  503  0.69079873679E+02  0.91434112340E+02 -0.35758919604E+02  0.20974967504E+03  0.17200000000E+03 0.  1.
<mgrwt>
<rscale>  2 0.20667904E+03</rscale>
<asrwt>0</asrwt>
<pdfrwt beam="1">  1       21 0.33681623E-01 0.20667904E+03</pdfrwt>
<pdfrwt beam="2">  1       21 0.86621987E-01 0.20667904E+03</pdfrwt>
<totfact> 0.96482288E+03</totfact>
</mgrwt>
</event>
<event>
 4    1  0.2417478E-001  0.1860407E+03  0.7546771E-02  0.1162082E+00
         21   -1    0    0  501  502  0.00000000000E+00  0.00000000000E+00  0.93589304213E+02  0.93589304213E+02  0.00000000000E+00 0. -1.
         21   -1    0    0  502  503 -0.00000000000E+00 -0.00000000000E+00 -0.37573997571E+03  0.37573997571E+03  0.00000000000E+00 0. -1.
          6    1    1    2  501    0 -0.29540220974E+02 -0.64455631521E+02 -0.11161885078E+03  0.21695603458E+03  0.17200000000E+03 0. -1.
         -6    1    1    2    0  503  0.29540220974E+02  0.64455631521E+02 -0.17053182072E+03  0.25237324535E+03  0.17200000000E+03 0. -1.
<mgrwt>
<rscale>  2 0.18604073E+03</rscale>
<asrwt>0</asrwt>
<pdfrwt beam="1">  1       21 0.23397326E-01 0.18604073E+03</pdfrwt>
<pdfrwt beam="2">  1       21 0.93934994E-01 0.18604073E+03</pdfrwt>
<totfact> 0.16410210E+04</totfact>
</mgrwt>
</event>
<event>
 4    1  0.2417478E-001  0.1756836E+03  0.7546771E-02  0.1172047E+00
         21   -1    0    0  501  502  0.00000000000E+00  0.00000000000E+00  0.43034159109E+03  0.43034159109E+03  0.00000000000E+00 0.  1.
         21   -1    0    0  502  503 -0.00000000000E+00 -0.00000000000E+00 -0.12501384343E+03  0.12501384343E+03  0.00000000000E+00 0.  1.
          6    1    1    2  501    0 -0.89876571003E+01  0.34640042149E+02  0.33396258089E+03  0.37735356887E+03  0.17200000000E+03 0. -1.
         -6    1    1    2    0  503  0.89876571003E+01 -0.34640042149E+02 -0.28634833233E+02  0.17800186565E+03  0.17200000000E+03 0. -1.
<mgrwt>
<rscale>  2 0.17568355E+03</rscale>
<asrwt>0</asrwt>
<pdfrwt beam="1">  1       21 0.10758539E+00 0.17568355E+03</pdfrwt>
<pdfrwt beam="2">  1       21 0.31253462E-01 0.17568355E+03</pdfrwt>
<totfact> 0.68685481E+03</totfact>
</mgrwt>
</event>
<event>
 4    1  0.2417478E-001  0.2121963E+03  0.7546771E-02  0.1139838E+00
         21   -1    0    0  503  502  0.00000000000E+00  0.00000000000E+00  0.17952603518E+03  0.17952603518E+03  0.00000000000E+00 0. -1.
         21   -1    0    0  501  503 -0.00000000000E+00 -0.00000000000E+00 -0.25127356345E+03  0.25127356345E+03  0.00000000000E+00 0. -1.
          6    1    1    2  501    0  0.12422772427E+03  0.32761414851E+01 -0.45106890873E+02  0.21693753060E+03  0.17200000000E+03 0. -1.
         -6    1    1    2    0  502 -0.12422772427E+03 -0.32761414851E+01 -0.26640637396E+02  0.21386206803E+03  0.17200000000E+03 0. -1.
<mgrwt>
<rscale>  2 0.21219628E+03</rscale>
<asrwt>0</asrwt>
<pdfrwt beam="1">  1       21 0.44881509E-01 0.21219628E+03</pdfrwt>
<pdfrwt beam="2">  1       21 0.62818391E-01 0.21219628E+03</pdfrwt>
<totfact> 0.11037888E+04</totfact>
</mgrwt>
</event>
<event>
 4    1  0.2417478E-001  0.1814854E+03  0.7546771E-02  0.1166373E+00
         21   -1    0    0  503  502  0.00000000000E+00  0.00000000000E+00  0.30637911235E+03  0.30637911235E+03  0.00000000000E+00 0.  1.
         21   -1    0    0  501  503 -0.00000000000E+00 -0.00000000000E+00 -0.11519544107E+03  0.11519544107E+03  0.00000000000E+00 0.  1.
          6    1    1    2  501    0 -0.41745713598E+02 -0.40127852392E+02  0.41124835367E+02  0.18608654230E+03  0.17200000000E+03 0.  1.
         -6    1    1    2    0  502  0.41745713598E+02  0.40127852392E+02  0.15005883592E+03  0.23548801111E+03  0.17200000000E+03 0.  1.
<mgrwt>
<rscale>  2 0.18148540E+03</rscale>
<asrwt>0</asrwt>
<pdfrwt beam="1">  1       21 0.76594776E-01 0.18148540E+03</pdfrwt>
<pdfrwt beam="2">  1       21 0.28798861E-01 0.18148540E+03</pdfrwt>
<totfact> 0.17621592E+04</totfact>
</mgrwt>
</event>
<event>
 4    1  0.2417478E-001  0.2237534E+03  0.7546771E-02  0.1131115E+00
         21   -1    0    0  503  502  0.00000000000E+00  0.00000000000E+00  0.27071415790E+03  0.27071415790E+03  0.00000000000E+00 0. -1.
         21   -1    0    0  501  503 -0.00000000000E+00 -0.00000000000E+00 -0.19805882671E+03  0.19805882671E+03  0.00000000000E+00 0. -1.
          6    1    1    2  501    0  0.46570392994E+01  0.14303804803E+03 -0.23997932217E+02  0.22503660135E+03  0.17200000000E+03 0. -1.
         -6    1    1    2    0  502 -0.46570392994E+01 -0.14303804803E+03  0.96653263405E+02  0.24373638326E+03  0.17200000000E+03 0. -1.
<mgrwt>
<rscale>  2 0.22375337E+03</rscale>
<asrwt>0</asrwt>
<pdfrwt beam="1">  1       21 0.67678539E-01 0.22375337E+03</pdfrwt>
<pdfrwt beam="2">  1       21 0.49514707E-01 0.22375337E+03</pdfrwt>
<totfact> 0.75938097E+03</totfact>
</mgrwt>
</event>
<event>
 4    1  0.2417478E-001  0.1768782E+03  0.7546771E-02  0.1170859E+00
         21   -1    0    0  501  502  0.00000000000E+00  0.00000000000E+00  0.37466032726E+03  0.37466032726E+03  0.00000000000E+00 0. -1.
         21   -1    0    0  502  503 -0.00000000000E+00 -0.00000000000E+00 -0.85940903246E+02  0.85940903246E+02  0.00000000000E+00 0. -1.
          6    1    1    2  501    0 -0.59407885234E+01 -0.40823894503E+02  0.18313503682E+03  0.25460621564E+03  0.17200000000E+03 0. -1.
         -6    1    1    2    0  503  0.59407885234E+01  0.40823894503E+02  0.10558438719E+03  0.20599501486E+03  0.17200000000E+03 0. -1.
<mgrwt>
<rscale>  2 0.17687816E+03</rscale>
<asrwt>0</asrwt>
<pdfrwt beam="1">  1       21 0.93665078E-01 0.17687816E+03</pdfrwt>
<pdfrwt beam="2">  1       21 0.21485227E-01 0.17687816E+03</pdfrwt>
<totfact> 0.19515848E+04</totfact>
</mgrwt>
</event>
<event>
 4    1  0.2417478E-001  0.1722678E+03  0.7546771E-02  0.1175503E+00
         21   -1    0    0  501  502  0.00000000000E+00  0.00000000000E+00  0.56842812759E+03  0.56842812759E+03  0.00000000000E+00 0. -1.
         21   -1    0    0  502  503 -0.00000000000E+00 -0.00000000000E+00 -0.92212904303E+02  0.92212904303E+02  0.00000000000E+00 0. -1.
          6    1    1    2  501    0  0.36586234727E+01  0.88769142622E+01  0.20537476582E+02  0.17348767414E+03  0.17200000000E+03 0. -1.
         -6    1    1    2    0  503 -0.36586234727E+01 -0.88769142622E+01  0.45567774670E+03  0.48715335776E+03  0.17200000000E+03 0. -1.
<mgrwt>
<rscale>  2 0.17226777E+03</rscale>
<asrwt>0</asrwt>
<pdfrwt beam="1">  1       21 0.14210702E+00 0.17226777E+03</pdfrwt>
<pdfrwt beam="2">  1       21 0.23053228E-01 0.17226777E+03</pdfrwt>
<totfact> 0.61877277E+03</totfact>
</mgrwt>
</event>
<event>
 4    1  0.2417478E-001  0.1830703E+03  0.7546771E-02  0.1164864E+00
         21   -1    0    0  503  502  0.00000000000E+00  0.00000000000E+00  0.16089024815E+03  0.16089024815E+03  0.00000000000E+00 0. -1.
         21   -1    0    0  501  503 -0.00000000000E+00 -0.00000000000E+00 -0.20831217252E+03  0.20831217252E+03  0.00000000000E+00 0. -1.
          6    1    1    2  501    0  0.43768802040E+02  0.44889189447E+02 -0.22898147314E+02  0.18449680895E+03  0.17200000000E+03 0. -1.
         -6    1    1    2    0  502 -0.43768802040E+02 -0.44889189447E+02 -0.24523777057E+02  0.18470561172E+03  0.17200000000E+03 0. -1.
<mgrwt>
<rscale>  2 0.18307033E+03</rscale>
<asrwt>0</asrwt>
<pdfrwt beam="1">  1       21 0.40222562E-01 0.18307033E+03</pdfrwt>
<pdfrwt beam="2">  1       21 0.52078043E-01 0.18307033E+03</pdfrwt>
<totfact> 0.20960763E+04</totfact>
</mgrwt>
</event>
<event>
 4    1  0.2417478E-001  0.2962932E+03  0.7546771E-02  0.1087108E+00
         21   -1    0    0  501  502  0.00000000000E+00  0.00000000000E+00  0.31684248320E+03  0.31684248320E+03  0.00000000000E+00 0. -1.
         21   -1    0    0  502  503 -0.00000000000E+00 -0.00000000000E+00 -0.73383261019E+03  0.73383261019E+03  0.00000000000E+00 0. -1.
          6    1    1    2  501    0  0.19084825106E+03  0.14758923920E+03  0.20596441165E+03  0.36084758185E+03  0.17200000000E+03 0. -1.
         -6    1    1    2    0  503 -0.19084825106E+03 -0.14758923920E+03 -0.62295453864E+03  0.68982751153E+03  0.17200000000E+03 0. -1.
<mgrwt>
<rscale>  2 0.29629316E+03</rscale>
<asrwt>0</asrwt>
<pdfrwt beam="1">  1       21 0.79210621E-01 0.29629316E+03</pdfrwt>
<pdfrwt beam="2">  1       21 0.18345815E+00 0.29629316E+03</pdfrwt>
<totfact> 0.21768895E+02</totfact>
</mgrwt>
</event>
<event>
 4    1  0.2417478E-001  0.4012898E+03  0.7546771E-02  0.1043334E+00
         21   -1    0    0  503  502  0.00000000000E+00  0.00000000000E+00  0.34280544724E+03  0.34280544724E+03  0.00000000000E+00 0.  1.
         21   -1    0    0  501  503 -0.00000000000E+00 -0.00000000000E+00 -0.50790630268E+03  0.50790630268E+03  0.00000000000E+00 0. -1.
          6    1    1    2  501    0 -0.23331653602E+03  0.27751198432E+03 -0.19913283258E+03  0.44798146439E+03  0.17200000000E+03 0. -1.
         -6    1    1    2    0  502  0.23331653602E+03 -0.27751198432E+03  0.34031977142E+02  0.40273028554E+03  0.17200000000E+03 0.  1.
<mgrwt>
<rscale>  2 0.40128980E+03</rscale>
<asrwt>0</asrwt>
<pdfrwt beam="1">  1       21 0.85701362E-01 0.40128980E+03</pdfrwt>
<pdfrwt beam="2">  1       21 0.12697658E+00 0.40128980E+03</pdfrwt>
<totfact> 0.46047121E+02</totfact>
</mgrwt>
</event>
<event>
 4    1  0.2417478E-001  0.1865852E+03  0.7546771E-02  0.1161578E+00
         21   -1    0    0  503  502  0.00000000000E+00  0.00000000000E+00  0.25889582193E+03  0.25889582193E+03  0.00000000000E+00 0.  1.
         21   -1    0    0  501  503 -0.00000000000E+00 -0.00000000000E+00 -0.19694027132E+03  0.19694027132E+03  0.00000000000E+00 0.  1.
          6    1    1    2  501    0 -0.52732541031E+01  0.72126479822E+02 -0.97386423142E+02  0.21047126101E+03  0.17200000000E+03 0.  1.
         -6    1    1    2    0  502  0.52732541031E+01 -0.72126479822E+02  0.15934197375E+03  0.24536483224E+03  0.17200000000E+03 0.  1.
<mgrwt>
<rscale>  2 0.18658520E+03</rscale>
<asrwt>0</asrwt>
<pdfrwt beam="1">  1       21 0.64723955E-01 0.18658520E+03</pdfrwt>
<pdfrwt beam="2">  1       21 0.49235068E-01 0.18658520E+03</pdfrwt>
<totfact> 0.86927776E+03</totfact>
</mgrwt>
</event>
<event>
 4    1  0.2417478E-001  0.2871166E+03  0.7546771E-02  0.1091864E+00
         21   -1    0    0  503  502  0.00000000000E+00  0.00000000000E+00  0.87452119583E+02  0.87452119583E+02  0.00000000000E+00 0. -1.
         21   -1    0    0  501  503 -0.00000000000E+00 -0.00000000000E+00 -0.95909290448E+03  0.95909290448E+03  0.00000000000E+00 0.  1.
          6    1    1    2  501    0 -0.14710310512E+02  0.22942440397E+03 -0.50435440150E+03  0.58035274849E+03  0.17200000000E+03 0.  1.
         -6    1    1    2    0  502  0.14710310512E+02 -0.22942440397E+03 -0.36728638340E+03  0.46619227557E+03  0.17200000000E+03 0. -1.
<mgrwt>
<rscale>  2 0.28711661E+03</rscale>
<asrwt>0</asrwt>
<pdfrwt beam="1">  1       21 0.21863030E-01 0.28711661E+03</pdfrwt>
<pdfrwt beam="2">  1       21 0.23977322E+00 0.28711661E+03</pdfrwt>
<totfact> 0.13633572E+03</totfact>
</mgrwt>
</event>
<event>
 4    1  0.2417478E-001  0.1772230E+03  0.7546771E-02  0.1170518E+00
         21   -1    0    0  501  502  0.00000000000E+00  0.00000000000E+00  0.51598430736E+03  0.51598430736E+03  0.00000000000E+00 0.  1.
         21   -1    0    0  502  503 -0.00000000000E+00 -0.00000000000E+00 -0.76149210969E+02  0.76149210969E+02  0.00000000000E+00 0.  1.
          6    1    1    2  501    0  0.21912880311E+02 -0.36658247830E+02  0.35253674695E+03  0.39457592350E+03  0.17200000000E+03 0.  1.
         -6    1    1    2    0  503 -0.21912880311E+02  0.36658247830E+02  0.87298349436E+02  0.19755759482E+03  0.17200000000E+03 0.  1.
<mgrwt>
<rscale>  2 0.17722303E+03</rscale>
<asrwt>0</asrwt>
<pdfrwt beam="1">  1       21 0.12899607E+00 0.17722303E+03</pdfrwt>
<pdfrwt beam="2">  1       21 0.19037304E-01 0.17722303E+03</pdfrwt>
<totfact> 0.11280456E+04</totfact>
</mgrwt>
</event>
<event>
 4    1  0.2417478E-001  0.1785988E+03  0.7546771E-02  0.1169166E+00
         21   -1    0    0  501  502  0.00000000000E+00  0.00000000000E+00  0.23812253583E+03  0.23812253583E+03  0.00000000000E+00 0. -1.
         21   -1    0    0  502  503 -0.00000000000E+00 -0.00000000000E+00 -0.19614772219E+03  0.19614772219E+03  0.00000000000E+00 0. -1.
          6    1    1    2  501    0  0.29558505086E+02 -0.37945128958E+02  0.14325480691E+03  0.22895300334E+03  0.17200000000E+03 0. -1.
         -6    1    1    2    0  503 -0.29558505086E+02  0.37945128958E+02 -0.10127999327E+03  0.20531725468E+03  0.17200000000E+03 0. -1.
<mgrwt>
<rscale>  2 0.17859882E+03</rscale>
<asrwt>0</asrwt>
<pdfrwt beam="1">  1       21 0.59530634E-01 0.17859882E+03</pdfrwt>
<pdfrwt beam="2">  1       21 0.49036931E-01 0.17859882E+03</pdfrwt>
<totfact> 0.10557963E+04</totfact>
</mgrwt>
</event>
<event>
 4    1  0.2417478E-001  0.2054790E+03  0.7546771E-02  0.1145197E+00
         21   -1    0    0  501  502  0.00000000000E+00  0.00000000000E+00  0.30431883954E+03  0.30431883954E+03  0.00000000000E+00 0.  1.
         21   -1    0    0  502  503 -0.00000000000E+00 -0.00000000000E+00 -0.22279442025E+03  0.22279442025E+03  0.00000000000E+00 0.  1.
          6    1    1    2  501    0  0.19393618077E+02  0.11073172762E+03  0.20264414977E+03  0.28859362321E+03  0.17200000000E+03 0.  1.
         -6    1    1    2    0  503 -0.19393618077E+02 -0.11073172762E+03 -0.12111973047E+03  0.23851963658E+03  0.17200000000E+03 0.  1.
<mgrwt>
<rscale>  2 0.20547902E+03</rscale>
<asrwt>0</asrwt>
<pdfrwt beam="1">  1       21 0.76079710E-01 0.20547902E+03</pdfrwt>
<pdfrwt beam="2">  1       21 0.55698605E-01 0.20547902E+03</pdfrwt>
<totfact> 0.46297105E+03</totfact>
</mgrwt>
</event>
<event>
 4    1  0.2417478E-001  0.2024202E+03  0.7546771E-02  0.1147713E+00
         21   -1    0    0  501  502  0.00000000000E+00  0.00000000000E+00  0.71523601943E+03  0.71523601943E+03  0.00000000000E+00 0. -1.
         21   -1    0    0  502  503 -0.00000000000E+00 -0.00000000000E+00 -0.59497807292E+02  0.59497807292E+02  0.00000000000E+00 0. -1.
          6    1    1    2  501    0 -0.10259014638E+03  0.29413965888E+02  0.25320344956E+03  0.32416956426E+03  0.17200000000E+03 0. -1.
         -6    1    1    2    0  503  0.10259014638E+03 -0.29413965888E+02  0.40253476258E+03  0.45056426246E+03  0.17200000000E+03 0. -1.
<mgrwt>
<rscale>  2 0.20242016E+03</rscale>
<asrwt>0</asrwt>
<pdfrwt beam="1">  1       21 0.17880898E+00 0.20242016E+03</pdfrwt>
<pdfrwt beam="2">  1       21 0.14874454E-01 0.20242016E+03</pdfrwt>
<totfact> 0.73248012E+03</totfact>
</mgrwt>
</event>
<event>
 4    1  0.2417478E-001  0.2047051E+03  0.7546771E-02  0.1145829E+00
         21   -1    0    0  503  502  0.00000000000E+00  0.00000000000E+00  0.13186272607E+03  0.13186272607E+03  0.00000000000E+00 0. -1.
         21   -1    0    0  501  503 -0.00000000000E+00 -0.00000000000E+00 -0.36748595342E+03  0.36748595342E+03  0.00000000000E+00 0.  1.
          6    1    1    2  501    0  0.43122537547E+02  0.10227726422E+03 -0.20962994942E+03  0.29299984252E+03  0.17200000000E+03 0.  1.
         -6    1    1    2    0  502 -0.43122537547E+02 -0.10227726422E+03 -0.25993277931E+02  0.20634883697E+03  0.17200000000E+03 0. -1.
<mgrwt>
<rscale>  2 0.20470513E+03</rscale>
<asrwt>0</asrwt>
<pdfrwt beam="1">  1       21 0.32965682E-01 0.20470513E+03</pdfrwt>
<pdfrwt beam="2">  1       21 0.91871487E-01 0.20470513E+03</pdfrwt>
<totfact> 0.87970110E+03</totfact>
</mgrwt>
</event>
<event>
 4    1  0.2417478E-001  0.2012648E+03  0.7546771E-02  0.1148676E+00
         21   -1    0    0  501  502  0.00000000000E+00  0.00000000000E+00  0.42874256355E+03  0.42874256355E+03  0.00000000000E+00 0.  1.
         21   -1    0    0  502  503 -0.00000000000E+00 -0.00000000000E+00 -0.10310825583E+03  0.10310825583E+03  0.00000000000E+00 0. -1.
          6    1    1    2  501    0 -0.10389044204E+03 -0.11414256664E+02  0.23974433186E+03  0.31302532463E+03  0.17200000000E+03 0.  1.
         -6    1    1    2    0  503  0.10389044204E+03  0.11414256664E+02  0.85889975861E+02  0.21882549476E+03  0.17200000000E+03 0. -1.
<mgrwt>
<rscale>  2 0.20126477E+03</rscale>
<asrwt>0</asrwt>
<pdfrwt beam="1">  1       21 0.10718564E+00 0.20126477E+03</pdfrwt>
<pdfrwt beam="2">  1       21 0.25777065E-01 0.20126477E+03</pdfrwt>
<totfact> 0.98718243E+03</totfact>
</mgrwt>
</event>
<event>
 4    1  0.2417478E-001  0.1780362E+03  0.7546771E-02  0.1169717E+00
         21   -1    0    0  503  502  0.00000000000E+00  0.00000000000E+00  0.41260735422E+03  0.41260735422E+03  0.00000000000E+00 0. -1.
         21   -1    0    0  501  503 -0.00000000000E+00 -0.00000000000E+00 -0.79357452966E+02  0.79357452966E+02  0.00000000000E+00 0. -1.
          6    1    1    2  501    0  0.43828218448E+02  0.13855830928E+02  0.21060201529E+03  0.27577183617E+03  0.17200000000E+03 0. -1.
         -6    1    1    2    0  502 -0.43828218448E+02 -0.13855830928E+02  0.12264788596E+03  0.21619297101E+03  0.17200000000E+03 0. -1.
<mgrwt>
<rscale>  2 0.17803622E+03</rscale>
<asrwt>0</asrwt>
<pdfrwt beam="1">  1       21 0.10315183E+00 0.17803622E+03</pdfrwt>
<pdfrwt beam="2">  1       21 0.19839364E-01 0.17803622E+03</pdfrwt>
<totfact> 0.18032659E+04</totfact>
</mgrwt>
</event>
<event>
 4    1  0.2417478E-001  0.1745833E+03  0.7546771E-02  0.1173151E+00
         21   -1    0    0  501  502  0.00000000000E+00  0.00000000000E+00  0.19704360719E+03  0.19704360719E+03  0.00000000000E+00 0. -1.
         21   -1    0    0  502  503 -0.00000000000E+00 -0.00000000000E+00 -0.16621830313E+03  0.16621830313E+03  0.00000000000E+00 0. -1.
          6    1    1    2  501    0 -0.29002896169E+01  0.29780956334E+02  0.63260561542E+02  0.18569118365E+03  0.17200000000E+03 0. -1.
         -6    1    1    2    0  503  0.29002896169E+01 -0.29780956334E+02 -0.32435257479E+02  0.17757072666E+03  0.17200000000E+03 0. -1.
<mgrwt>
<rscale>  2 0.17458327E+03</rscale>
<asrwt>0</asrwt>
<pdfrwt beam="1">  1       21 0.49260902E-01 0.17458327E+03</pdfrwt>
<pdfrwt beam="2">  1       21 0.41554576E-01 0.17458327E+03</pdfrwt>
<totfact> 0.22149940E+04</totfact>
</mgrwt>
</event>
<event>
 4    1  0.2417478E-001  0.1767760E+03  0.7546771E-02  0.1170960E+00
         21   -1    0    0  503  502  0.00000000000E+00  0.00000000000E+00  0.17313092593E+03  0.17313092593E+03  0.00000000000E+00 0.  1.
         21   -1    0    0  501  503 -0.00000000000E+00 -0.00000000000E+00 -0.18548288825E+03  0.18548288825E+03  0.00000000000E+00 0.  1.
          6    1    1    2  501    0  0.59263760826E+01 -0.40381103753E+02  0.23219492002E+02  0.17829442022E+03  0.17200000000E+03 0.  1.
         -6    1    1    2    0  502 -0.59263760826E+01  0.40381103753E+02 -0.35571454323E+02  0.18031939396E+03  0.17200000000E+03 0.  1.
<mgrwt>
<rscale>  2 0.17677600E+03</rscale>
<asrwt>0</asrwt>
<pdfrwt beam="1">  1       21 0.43282732E-01 0.17677600E+03</pdfrwt>
<pdfrwt beam="2">  1       21 0.46370722E-01 0.17677600E+03</pdfrwt>
<totfact> 0.23072768E+04</totfact>
</mgrwt>
</event>
<event>
 4    1  0.2417478E-001  0.1997214E+03  0.7546771E-02  0.1149974E+00
         21   -1    0    0  503  502  0.00000000000E+00  0.00000000000E+00  0.13474753808E+04  0.13474753808E+04  0.00000000000E+00 0.  1.
         21   -1    0    0  501  503 -0.00000000000E+00 -0.00000000000E+00 -0.45635562338E+02  0.45635562338E+02  0.00000000000E+00 0.  1.
          6    1    1    2  501    0 -0.10150196048E+03  0.14172045153E+01  0.23805109531E+03  0.31073619105E+03  0.17200000000E+03 0.  1.
         -6    1    1    2    0  502  0.10150196048E+03 -0.14172045153E+01  0.10637887231E+04  0.10823747520E+04  0.17200000000E+03 0.  1.
<mgrwt>
<rscale>  2 0.19972145E+03</rscale>
<asrwt>0</asrwt>
<pdfrwt beam="1">  1       21 0.33686871E+00 0.19972145E+03</pdfrwt>
<pdfrwt beam="2">  1       21 0.11408895E-01 0.19972145E+03</pdfrwt>
<totfact> 0.13282109E+03</totfact>
</mgrwt>
</event>
<event>
 4    1  0.2417478E-001  0.2283499E+03  0.7546771E-02  0.1127807E+00
         21   -1    0    0  503  502  0.00000000000E+00  0.00000000000E+00  0.46612757722E+03  0.46612757722E+03  0.00000000000E+00 0.  1.
         21   -1    0    0  501  503 -0.00000000000E+00 -0.00000000000E+00 -0.16124449231E+03  0.16124449231E+03  0.00000000000E+00 0.  1.
          6    1    1    2  501    0  0.13069636404E+03 -0.74014338519E+02 -0.21147862923E+02  0.22932704591E+03  0.17200000000E+03 0.  1.
         -6    1    1    2    0  502 -0.13069636404E+03  0.74014338519E+02  0.32603094784E+03  0.39804502362E+03  0.17200000000E+03 0.  1.
<mgrwt>
<rscale>  2 0.22834987E+03</rscale>
<asrwt>0</asrwt>
<pdfrwt beam="1">  1       21 0.11653189E+00 0.22834987E+03</pdfrwt>
<pdfrwt beam="2">  1       21 0.40311124E-01 0.22834987E+03</pdfrwt>
<totfact> 0.32698696E+03</totfact>
</mgrwt>
</event>
<event>
 4    1  0.2417478E-001  0.2559339E+03  0.7546771E-02  0.1109611E+00
         21   -1    0    0  503  502  0.00000000000E+00  0.00000000000E+00  0.26546989929E+03  0.26546989929E+03  0.00000000000E+00 0.  1.
         21   -1    0    0  501  503 -0.00000000000E+00 -0.00000000000E+00 -0.27948913408E+03  0.27948913408E+03  0.00000000000E+00 0. -1.
          6    1    1    2  501    0  0.16160379753E+03  0.99006877666E+02 -0.10028105120E+03  0.27487895233E+03  0.17200000000E+03 0.  1.
         -6    1    1    2    0  502 -0.16160379753E+03 -0.99006877666E+02  0.86261816410E+02  0.27008008104E+03  0.17200000000E+03 0. -1.
<mgrwt>
<rscale>  2 0.25593388E+03</rscale>
<asrwt>0</asrwt>
<pdfrwt beam="1">  1       21 0.66367475E-01 0.25593388E+03</pdfrwt>
<pdfrwt beam="2">  1       21 0.69872283E-01 0.25593388E+03</pdfrwt>
<totfact> 0.37004500E+03</totfact>
</mgrwt>
</event>
<event>
 4    1  0.2417478E-001  0.2538753E+03  0.7546771E-02  0.1110880E+00
         21   -1    0    0  501  502  0.00000000000E+00  0.00000000000E+00  0.52488387845E+03  0.52488387845E+03  0.00000000000E+00 0. -1.
         21   -1    0    0  502  503 -0.00000000000E+00 -0.00000000000E+00 -0.12803446900E+03  0.12803446900E+03  0.00000000000E+00 0.  1.
          6    1    1    2  501    0  0.11093209387E+03  0.15020906054E+03  0.13237930377E+03  0.28631620874E+03  0.17200000000E+03 0.  1.
         -6    1    1    2    0  503 -0.11093209387E+03 -0.15020906054E+03  0.26447010568E+03  0.36660213872E+03  0.17200000000E+03 0. -1.
<mgrwt>
<rscale>  2 0.25387535E+03</rscale>
<asrwt>0</asrwt>
<pdfrwt beam="1">  1       21 0.13122096E+00 0.25387535E+03</pdfrwt>
<pdfrwt beam="2">  1       21 0.32008619E-01 0.25387535E+03</pdfrwt>
<totfact> 0.37827189E+03</totfact>
</mgrwt>
</event>
<event>
 4    1  0.2417478E-001  0.1734660E+03  0.7546771E-02  0.1174281E+00
         21   -1    0    0  503  502  0.00000000000E+00  0.00000000000E+00  0.17055959816E+03  0.17055959816E+03  0.00000000000E+00 0.  1.
         21   -1    0    0  501  503 -0.00000000000E+00 -0.00000000000E+00 -0.19809729951E+03  0.19809729951E+03  0.00000000000E+00 0.  1.
          6    1    1    2  501    0  0.14953281826E+02 -0.16817766932E+02 -0.74741808026E+02  0.18888296850E+03  0.17200000000E+03 0.  1.
         -6    1    1    2    0  502 -0.14953281826E+02  0.16817766932E+02  0.47204106679E+02  0.17977392917E+03  0.17200000000E+03 0.  1.
<mgrwt>
<rscale>  2 0.17346596E+03</rscale>
<asrwt>0</asrwt>
<pdfrwt beam="1">  1       21 0.42639900E-01 0.17346596E+03</pdfrwt>
<pdfrwt beam="2">  1       21 0.49524324E-01 0.17346596E+03</pdfrwt>
<totfact> 0.20803768E+04</totfact>
</mgrwt>
</event>
<event>
 4    1  0.2417478E-001  0.1784127E+03  0.7546771E-02  0.1169348E+00
         21   -1    0    0  501  502  0.00000000000E+00  0.00000000000E+00  0.25129092330E+03  0.25129092330E+03  0.00000000000E+00 0. -1.
         21   -1    0    0  502  503 -0.00000000000E+00 -0.00000000000E+00 -0.19720757144E+03  0.19720757144E+03  0.00000000000E+00 0. -1.
          6    1    1    2  501    0 -0.26014558344E+02 -0.39627257437E+02  0.16115711416E+03  0.24042190462E+03  0.17200000000E+03 0. -1.
         -6    1    1    2    0  503  0.26014558344E+02  0.39627257437E+02 -0.10707376231E+03  0.20807659011E+03  0.17200000000E+03 0. -1.
<mgrwt>
<rscale>  2 0.17841266E+03</rscale>
<asrwt>0</asrwt>
<pdfrwt beam="1">  1       21 0.62822730E-01 0.17841266E+03</pdfrwt>
<pdfrwt beam="2">  1       21 0.49301893E-01 0.17841266E+03</pdfrwt>
<totfact> 0.93009721E+03</totfact>
</mgrwt>
</event>
<event>
 4    1  0.2417478E-001  0.1835038E+03  0.7546771E-02  0.1164454E+00
         21   -1    0    0  501  502  0.00000000000E+00  0.00000000000E+00  0.36443868682E+03  0.36443868682E+03  0.00000000000E+00 0.  1.
         21   -1    0    0  502  503 -0.00000000000E+00 -0.00000000000E+00 -0.10081749711E+03  0.10081749711E+03  0.00000000000E+00 0.  1.
          6    1    1    2  501    0  0.22247406991E+02  0.59955849498E+02  0.19903390969E+03  0.27071783874E+03  0.17200000000E+03 0.  1.
         -6    1    1    2    0  503 -0.22247406991E+02 -0.59955849498E+02  0.64587280024E+02  0.19453834519E+03  0.17200000000E+03 0.  1.
<mgrwt>
<rscale>  2 0.18350382E+03</rscale>
<asrwt>0</asrwt>
<pdfrwt beam="1">  1       21 0.91109668E-01 0.18350382E+03</pdfrwt>
<pdfrwt beam="2">  1       21 0.25204375E-01 0.18350382E+03</pdfrwt>
<totfact> 0.15318733E+04</totfact>
</mgrwt>
</event>
<event>
 4    1  0.2417478E-001  0.3312165E+03  0.7546771E-02  0.1070600E+00
         21   -1    0    0  503  502  0.00000000000E+00  0.00000000000E+00  0.40635326777E+03  0.40635326777E+03  0.00000000000E+00 0.  1.
         21   -1    0    0  501  503 -0.00000000000E+00 -0.00000000000E+00 -0.31886599750E+03  0.31886599750E+03  0.00000000000E+00 0.  1.
          6    1    1    2  501    0 -0.16064800609E+02 -0.28259922010E+03 -0.98246676888E+02  0.34548054437E+03  0.17200000000E+03 0.  1.
         -6    1    1    2    0  502  0.16064800609E+02  0.28259922010E+03  0.18573394717E+03  0.37973872090E+03  0.17200000000E+03 0.  1.
<mgrwt>
<rscale>  2 0.33121654E+03</rscale>
<asrwt>0</asrwt>
<pdfrwt beam="1">  1       21 0.10158832E+00 0.33121654E+03</pdfrwt>
<pdfrwt beam="2">  1       21 0.79716500E-01 0.33121654E+03</pdfrwt>
<totfact> 0.98616045E+02</totfact>
</mgrwt>
</event>
<event>
 4    1  0.2417478E-001  0.2368701E+03  0.7546771E-02  0.1121896E+00
         21   -1    0    0  501  502  0.00000000000E+00  0.00000000000E+00  0.21430500652E+03  0.21430500652E+03  0.00000000000E+00 0. -1.
         21   -1    0    0  502  503 -0.00000000000E+00 -0.00000000000E+00 -0.27716143498E+03  0.27716143498E+03  0.00000000000E+00 0. -1.
          6    1    1    2  501    0  0.11702714703E+03  0.11326106618E+03  0.26402276644E+02  0.23833695153E+03  0.17200000000E+03 0. -1.
         -6    1    1    2    0  503 -0.11702714703E+03 -0.11326106618E+03 -0.89258705110E+02  0.25312948997E+03  0.17200000000E+03 0. -1.
<mgrwt>
<rscale>  2 0.23687005E+03</rscale>
<asrwt>0</asrwt>
<pdfrwt beam="1">  1       21 0.53576252E-01 0.23687005E+03</pdfrwt>
<pdfrwt beam="2">  1       21 0.69290359E-01 0.23687005E+03</pdfrwt>
<totfact> 0.60563670E+03</totfact>
</mgrwt>
</event>
<event>
 4    1  0.2417478E-001  0.1765350E+03  0.7546771E-02  0.1171199E+00
         21   -1    0    0  501  502  0.00000000000E+00  0.00000000000E+00  0.14238116793E+03  0.14238116793E+03  0.00000000000E+00 0.  1.
         21   -1    0    0  502  503 -0.00000000000E+00 -0.00000000000E+00 -0.29772412108E+03  0.29772412108E+03  0.00000000000E+00 0.  1.
          6    1    1    2  501    0  0.27574417632E+02 -0.28640325586E+02  0.35568521605E+02  0.18008258241E+03  0.17200000000E+03 0.  1.
         -6    1    1    2    0  503 -0.27574417632E+02  0.28640325586E+02 -0.19091147475E+03  0.26002270660E+03  0.17200000000E+03 0.  1.
<mgrwt>
<rscale>  2 0.17653503E+03</rscale>
<asrwt>0</asrwt>
<pdfrwt beam="1">  1       21 0.35595292E-01 0.17653503E+03</pdfrwt>
<pdfrwt beam="2">  1       21 0.74431029E-01 0.17653503E+03</pdfrwt>
<totfact> 0.12440837E+04</totfact>
</mgrwt>
</event>
<event>
 4    1  0.2417478E-001  0.1725776E+03  0.7546771E-02  0.1175186E+00
         21   -1    0    0  503  502  0.00000000000E+00  0.00000000000E+00  0.72525598785E+03  0.72525598785E+03  0.00000000000E+00 0.  1.
         21   -1    0    0  501  503 -0.00000000000E+00 -0.00000000000E+00 -0.54835083832E+02  0.54835083832E+02  0.00000000000E+00 0.  1.
          6    1    1    2  501    0  0.32077818533E+01 -0.13738819662E+02  0.13975603973E+03  0.22206934879E+03  0.17200000000E+03 0.  1.
         -6    1    1    2    0  502 -0.32077818533E+01  0.13738819662E+02  0.53066486429E+03  0.55802172289E+03  0.17200000000E+03 0.  1.
<mgrwt>
<rscale>  2 0.17257765E+03</rscale>
<asrwt>0</asrwt>
<pdfrwt beam="1">  1       21 0.18131397E+00 0.17257765E+03</pdfrwt>
<pdfrwt beam="2">  1       21 0.13708773E-01 0.17257765E+03</pdfrwt>
<totfact> 0.83767736E+03</totfact>
</mgrwt>
</event>
<event>
 4    1  0.2417478E-001  0.1729656E+03  0.7546771E-02  0.1174790E+00
         21   -1    0    0  503  502  0.00000000000E+00  0.00000000000E+00  0.15472840148E+03  0.15472840148E+03  0.00000000000E+00 0. -1.
         21   -1    0    0  501  503 -0.00000000000E+00 -0.00000000000E+00 -0.25041750640E+03  0.25041750640E+03  0.00000000000E+00 0. -1.
          6    1    1    2  501    0 -0.53981078228E+01  0.17434202894E+02 -0.14454641657E+03  0.22541241657E+03  0.17200000000E+03 0. -1.
         -6    1    1    2    0  502  0.53981078228E+01 -0.17434202894E+02  0.48857311645E+02  0.17973349131E+03  0.17200000000E+03 0. -1.
<mgrwt>
<rscale>  2 0.17296558E+03</rscale>
<asrwt>0</asrwt>
<pdfrwt beam="1">  1       21 0.38682101E-01 0.17296558E+03</pdfrwt>
<pdfrwt beam="2">  1       21 0.62604376E-01 0.17296558E+03</pdfrwt>
<totfact> 0.15431861E+04</totfact>
</mgrwt>
</event>
<event>
 4    1  0.2417478E-001  0.1896979E+03  0.7546771E-02  0.1158734E+00
         21   -1    0    0  503  502  0.00000000000E+00  0.00000000000E+00  0.31672700832E+03  0.31672700832E+03  0.00000000000E+00 0. -1.
         21   -1    0    0  501  503 -0.00000000000E+00 -0.00000000000E+00 -0.11362000447E+03  0.11362000447E+03  0.00000000000E+00 0. -1.
          6    1    1    2  501    0 -0.71676077946E+02  0.35550597966E+02  0.10030119895E+03  0.21458246824E+03  0.17200000000E+03 0.  1.
         -6    1    1    2    0  502  0.71676077946E+02 -0.35550597966E+02  0.10280580489E+03  0.21576454455E+03  0.17200000000E+03 0.  1.
<mgrwt>
<rscale>  2 0.18969793E+03</rscale>
<asrwt>0</asrwt>
<pdfrwt beam="1">  1       21 0.79181750E-01 0.18969793E+03</pdfrwt>
<pdfrwt beam="2">  1       21 0.28405002E-01 0.18969793E+03</pdfrwt>
<totfact> 0.16711149E+04</totfact>
</mgrwt>
</event>
<event>
 4    1  0.2417478E-001  0.2582191E+03  0.7546771E-02  0.1108218E+00
         21   -1    0    0  503  502  0.00000000000E+00  0.00000000000E+00  0.58650446918E+03  0.58650446918E+03  0.00000000000E+00 0. -1.
         21   -1    0    0  501  503 -0.00000000000E+00 -0.00000000000E+00 -0.12060964283E+03  0.12060964283E+03  0.00000000000E+00 0. -1.
          6    1    1    2  501    0  0.18519802503E+03  0.52865957649E+02  0.31766002530E+03  0.40937148120E+03  0.17200000000E+03 0. -1.
         -6    1    1    2    0  502 -0.18519802503E+03 -0.52865957649E+02  0.14823480105E+03  0.29774263080E+03  0.17200000000E+03 0. -1.
<mgrwt>
<rscale>  2 0.25821913E+03</rscale>
<asrwt>0</asrwt>
<pdfrwt beam="1">  1       21 0.14662611E+00 0.25821913E+03</pdfrwt>
<pdfrwt beam="2">  1       21 0.30152412E-01 0.25821913E+03</pdfrwt>
<totfact> 0.31794036E+03</totfact>
</mgrwt>
</event>
<event>
 4    1  0.2417478E-001  0.1856566E+03  0.7546771E-02  0.1162438E+00
         21   -1    0    0  503  502  0.00000000000E+00  0.00000000000E+00  0.65321625134E+03  0.65321625134E+03  0.00000000000E+00 0.  1.
         21   -1    0    0  501  503 -0.00000000000E+00 -0.00000000000E+00 -0.64589511893E+02  0.64589511893E+02  0.00000000000E+00 0. -1.
          6    1    1    2  501    0 -0.68806218319E+02 -0.12250282051E+02  0.14076404063E+03  0.23298686706E+03  0.17200000000E+03 0. -1.
         -6    1    1    2    0  502  0.68806218319E+02  0.12250282051E+02  0.44786269882E+03  0.48481889617E+03  0.17200000000E+03 0.  1.
<mgrwt>
<rscale>  2 0.18565658E+03</rscale>
<asrwt>0</asrwt>
<pdfrwt beam="1">  1       21 0.16330404E+00 0.18565658E+03</pdfrwt>
<pdfrwt beam="2">  1       21 0.16147380E-01 0.18565658E+03</pdfrwt>
<totfact> 0.82118481E+03</totfact>
</mgrwt>
</event>
<event>
 4    1  0.2417478E-001  0.2453341E+03  0.7546771E-02  0.1116290E+00
         21   -1    0    0  501  502  0.00000000000E+00  0.00000000000E+00  0.48328935314E+03  0.48328935314E+03  0.00000000000E+00 0.  1.
         21   -1    0    0  502  503 -0.00000000000E+00 -0.00000000000E+00 -0.14970411520E+03  0.14970411520E+03  0.00000000000E+00 0. -1.
          6    1    1    2  501    0  0.15531475742E+03 -0.80511784138E+02  0.29655350938E+03  0.38488024785E+03  0.17200000000E+03 0.  1.
         -6    1    1    2    0  503 -0.15531475742E+03  0.80511784138E+02  0.37031728561E+02  0.24811322048E+03  0.17200000000E+03 0. -1.
<mgrwt>
<rscale>  2 0.24533410E+03</rscale>
<asrwt>0</asrwt>
<pdfrwt beam="1">  1       21 0.12082233E+00 0.24533410E+03</pdfrwt>
<pdfrwt beam="2">  1       21 0.37426030E-01 0.24533410E+03</pdfrwt>
<totfact> 0.34316537E+03</totfact>
</mgrwt>
</event>
<event>
 4    1  0.2417478E-001  0.1881880E+03  0.7546771E-02  0.1160106E+00
         21   -1    0    0  503  502  0.00000000000E+00  0.00000000000E+00  0.28310557422E+03  0.28310557422E+03  0.00000000000E+00 0. -1.
         21   -1    0    0  501  503 -0.00000000000E+00 -0.00000000000E+00 -0.12558952309E+03  0.12558952309E+03  0.00000000000E+00 0.  1.
          6    1    1    2  501    0 -0.32630216336E+02 -0.69036214375E+02  0.65918570400E+02  0.19939906679E+03  0.17200000000E+03 0.  1.
         -6    1    1    2    0  502  0.32630216336E+02  0.69036214375E+02  0.91597480727E+02  0.20929603051E+03  0.17200000000E+03 0. -1.
<mgrwt>
<rscale>  2 0.18818802E+03</rscale>
<asrwt>0</asrwt>
<pdfrwt beam="1">  1       21 0.70776392E-01 0.18818802E+03</pdfrwt>
<pdfrwt beam="2">  1       21 0.31397381E-01 0.18818802E+03</pdfrwt>
<totfact> 0.17678217E+04</totfact>
</mgrwt>
</event>
<event>
 4    1  0.2417478E-001  0.1913899E+03  0.7546771E-02  0.1157214E+00
         21   -1    0    0  501  502  0.00000000000E+00  0.00000000000E+00  0.34432439098E+03  0.34432439098E+03  0.00000000000E+00 0.  1.
         21   -1    0    0  502  503 -0.00000000000E+00 -0.00000000000E+00 -0.10640426988E+03  0.10640426988E+03  0.00000000000E+00 0.  1.
          6    1    1    2  501    0  0.21424745208E+02 -0.81160764358E+02  0.12218363626E+03  0.22706591631E+03  0.17200000000E+03 0.  1.
         -6    1    1    2    0  503 -0.21424745208E+02  0.81160764358E+02  0.11573648483E+03  0.22366274455E+03  0.17200000000E+03 0.  1.
<mgrwt>
<rscale>  2 0.19138989E+03</rscale>
<asrwt>0</asrwt>
<pdfrwt beam="1">  1       21 0.86081095E-01 0.19138989E+03</pdfrwt>
<pdfrwt beam="2">  1       21 0.26601068E-01 0.19138989E+03</pdfrwt>
<totfact> 0.15668474E+04</totfact>
</mgrwt>
</event>
<event>
 4    1  0.2417478E-001  0.1862275E+03  0.7546771E-02  0.1161909E+00
         21   -1    0    0  501  502  0.00000000000E+00  0.00000000000E+00  0.12549138758E+03  0.12549138758E+03  0.00000000000E+00 0.  1.
         21   -1    0    0  502  503 -0.00000000000E+00 -0.00000000000E+00 -0.28713027701E+03  0.28713027701E+03  0.00000000000E+00 0. -1.
          6    1    1    2  501    0 -0.63838445890E+02 -0.31958393097E+02 -0.40860477312E+02  0.19065745375E+03  0.17200000000E+03 0.  1.
         -6    1    1    2    0  503  0.63838445890E+02  0.31958393097E+02 -0.12077841212E+03  0.22196421085E+03  0.17200000000E+03 0. -1.
<mgrwt>
<rscale>  2 0.18622751E+03</rscale>
<asrwt>0</asrwt>
<pdfrwt beam="1">  1       21 0.31372847E-01 0.18622751E+03</pdfrwt>
<pdfrwt beam="2">  1       21 0.71782569E-01 0.18622751E+03</pdfrwt>
<totfact> 0.17181995E+04</totfact>
</mgrwt>
</event>
<event>
 4    1  0.2417478E-001  0.1732591E+03  0.7546771E-02  0.1174491E+00
         21   -1    0    0  501  502  0.00000000000E+00  0.00000000000E+00  0.44116558318E+03  0.44116558318E+03  0.00000000000E+00 0.  1.
         21   -1    0    0  502  503 -0.00000000000E+00 -0.00000000000E+00 -0.78152125980E+02  0.78152125980E+02  0.00000000000E+00 0.  1.
          6    1    1    2  501    0 -0.17916897199E+02  0.10662442661E+02  0.27488944566E+03  0.32493524004E+03  0.17200000000E+03 0.  1.
         -6    1    1    2    0  503  0.17916897199E+02 -0.10662442661E+02  0.88124011542E+02  0.19438246911E+03  0.17200000000E+03 0.  1.
<mgrwt>
<rscale>  2 0.17325906E+03</rscale>
<asrwt>0</asrwt>
<pdfrwt beam="1">  1       21 0.11029139E+00 0.17325906E+03</pdfrwt>
<pdfrwt beam="2">  1       21 0.19538033E-01 0.17325906E+03</pdfrwt>
<totfact> 0.15851499E+04</totfact>
</mgrwt>
</event>
<event>
 4    1  0.2417478E-001  0.2084181E+03  0.7546771E-02  0.1142825E+00
         21   -1    0    0  501  502  0.00000000000E+00  0.00000000000E+00  0.92058562450E+02  0.92058562450E+02  0.00000000000E+00 0.  1.
         21   -1    0    0  502  503 -0.00000000000E+00 -0.00000000000E+00 -0.55361339711E+03  0.55361339711E+03  0.00000000000E+00 0.  1.
          6    1    1    2  501    0  0.66334911266E+02 -0.97230483843E+02 -0.10671199762E+03  0.23414853806E+03  0.17200000000E+03 0.  1.
         -6    1    1    2    0  503 -0.66334911266E+02  0.97230483843E+02 -0.35484283704E+03  0.41152342150E+03  0.17200000000E+03 0.  1.
<mgrwt>
<rscale>  2 0.20841806E+03</rscale>
<asrwt>0</asrwt>
<pdfrwt beam="1">  1       21 0.23014641E-01 0.20841806E+03</pdfrwt>
<pdfrwt beam="2">  1       21 0.13840335E+00 0.20841806E+03</pdfrwt>
<totfact> 0.64534568E+03</totfact>
</mgrwt>
</event>
<event>
 4    1  0.2417478E-001  0.2098629E+03  0.7546771E-02  0.1141675E+00
         21   -1    0    0  503  502  0.00000000000E+00  0.00000000000E+00  0.27179620713E+03  0.27179620713E+03  0.00000000000E+00 0.  1.
         21   -1    0    0  501  503 -0.00000000000E+00 -0.00000000000E+00 -0.17043340238E+03  0.17043340238E+03  0.00000000000E+00 0.  1.
          6    1    1    2  501    0 -0.35576642738E+02 -0.11485973599E+03  0.16185879515E+01  0.20986918851E+03  0.17200000000E+03 0. -1.
         -6    1    1    2    0  502  0.35576642738E+02  0.11485973599E+03  0.99744216797E+02  0.23236042099E+03  0.17200000000E+03 0. -1.
<mgrwt>
<rscale>  2 0.20986295E+03</rscale>
<asrwt>0</asrwt>
<pdfrwt beam="1">  1       21 0.67949051E-01 0.20986295E+03</pdfrwt>
<pdfrwt beam="2">  1       21 0.42608351E-01 0.20986295E+03</pdfrwt>
<totfact> 0.10360161E+04</totfact>
</mgrwt>
</event>
<event>
 4    1  0.2417478E-001  0.2575434E+03  0.7546771E-02  0.1108628E+00
         21   -1    0    0  501  502  0.00000000000E+00  0.00000000000E+00  0.13771814927E+03  0.13771814927E+03  0.00000000000E+00 0.  1.
         21   -1    0    0  502  503 -0.00000000000E+00 -0.00000000000E+00 -0.62967094905E+03  0.62967094905E+03  0.00000000000E+00 0.  1.
          6    1    1    2  501    0  0.45918437013E+02  0.18610782505E+03 -0.59928073126E+02  0.26442390087E+03  0.17200000000E+03 0.  1.
         -6    1    1    2    0  503 -0.45918437013E+02 -0.18610782505E+03 -0.43202472666E+03  0.50296519745E+03  0.17200000000E+03 0.  1.
<mgrwt>
<rscale>  2 0.25754344E+03</rscale>
<asrwt>0</asrwt>
<pdfrwt beam="1">  1       21 0.34429537E-01 0.25754344E+03</pdfrwt>
<pdfrwt beam="2">  1       21 0.15741774E+00 0.25754344E+03</pdfrwt>
<totfact> 0.20232413E+03</totfact>
</mgrwt>
</event>
<event>
 4    1  0.2417478E-001  0.1745532E+03  0.7546771E-02  0.1173181E+00
         21   -1    0    0  503  502  0.00000000000E+00  0.00000000000E+00  0.54931470440E+02  0.54931470440E+02  0.00000000000E+00 0. -1.
         21   -1    0    0  501  503 -0.00000000000E+00 -0.00000000000E+00 -0.77055283755E+03  0.77055283755E+03  0.00000000000E+00 0. -1.
          6    1    1    2  501    0 -0.28084312925E+02 -0.98027822586E+01 -0.57627824328E+03  0.60213406883E+03  0.17200000000E+03 0. -1.
         -6    1    1    2    0  502  0.28084312925E+02  0.98027822586E+01 -0.13934312383E+03  0.22335023916E+03  0.17200000000E+03 0. -1.
<mgrwt>
<rscale>  2 0.17455321E+03</rscale>
<asrwt>0</asrwt>
<pdfrwt beam="1">  1       21 0.13732868E-01 0.17455321E+03</pdfrwt>
<pdfrwt beam="2">  1       21 0.19263821E+00 0.17455321E+03</pdfrwt>
<totfact> 0.70137876E+03</totfact>
</mgrwt>
</event>
<event>
 4    1  0.2417478E-001  0.1802744E+03  0.7546771E-02  0.1167538E+00
         21   -1    0    0  503  502  0.00000000000E+00  0.00000000000E+00  0.10141079685E+03  0.10141079685E+03  0.00000000000E+00 0.  1.
         21   -1    0    0  501  503 -0.00000000000E+00 -0.00000000000E+00 -0.33416347037E+03  0.33416347037E+03  0.00000000000E+00 0.  1.
          6    1    1    2  501    0 -0.53420161082E+02 -0.78201088790E+01 -0.16046720394E+03  0.24134744924E+03  0.17200000000E+03 0.  1.
         -6    1    1    2    0  502  0.53420161082E+02  0.78201088790E+01 -0.72285469577E+02  0.19422681799E+03  0.17200000000E+03 0.  1.
<mgrwt>
<rscale>  2 0.18027442E+03</rscale>
<asrwt>0</asrwt>
<pdfrwt beam="1">  1       21 0.25352699E-01 0.18027442E+03</pdfrwt>
<pdfrwt beam="2">  1       21 0.83540867E-01 0.18027442E+03</pdfrwt>
<totfact> 0.18524109E+04</totfact>
</mgrwt>
</event>
<event>
 4    1  0.2417478E-001  0.1922941E+03  0.7546771E-02  0.1156408E+00
         21   -1    0    0  503  502  0.00000000000E+00  0.00000000000E+00  0.64325515237E+03  0.64325515237E+03  0.00000000000E+00 0.  1.
         21   -1    0    0  501  503 -0.00000000000E+00 -0.00000000000E+00 -0.64295308920E+02  0.64295308920E+02  0.00000000000E+00 0.  1.
          6    1    1    2  501    0  0.82698891272E+02  0.23535267105E+02  0.17433459516E+03  0.25955648033E+03  0.17200000000E+03 0.  1.
         -6    1    1    2    0  502 -0.82698891272E+02 -0.23535267105E+02  0.40462524830E+03  0.44799398096E+03  0.17200000000E+03 0.  1.
<mgrwt>
<rscale>  2 0.19229409E+03</rscale>
<asrwt>0</asrwt>
<pdfrwt beam="1">  1       21 0.16081377E+00 0.19229409E+03</pdfrwt>
<pdfrwt beam="2">  1       21 0.16073829E-01 0.19229409E+03</pdfrwt>
<totfact> 0.85868998E+03</totfact>
</mgrwt>
</event>
<event>
 4    1  0.2417478E-001  0.1805457E+03  0.7546771E-02  0.1167276E+00
         21   -1    0    0  501  502  0.00000000000E+00  0.00000000000E+00  0.47214173031E+02  0.47214173031E+02  0.00000000000E+00 0.  1.
         21   -1    0    0  502  503 -0.00000000000E+00 -0.00000000000E+00 -0.80902588559E+03  0.80902588559E+03  0.00000000000E+00 0.  1.
          6    1    1    2  501    0 -0.11398687455E+02 -0.53692011215E+02 -0.21697137624E+03  0.28226466349E+03  0.17200000000E+03 0. -1.
         -6    1    1    2    0  503  0.11398687455E+02  0.53692011215E+02 -0.54484033632E+03  0.57397539514E+03  0.17200000000E+03 0. -1.
<mgrwt>
<rscale>  2 0.18054573E+03</rscale>
<asrwt>0</asrwt>
<pdfrwt beam="1">  1       21 0.11803544E-01 0.18054573E+03</pdfrwt>
<pdfrwt beam="2">  1       21 0.20225646E+00 0.18054573E+03</pdfrwt>
<totfact> 0.79351621E+03</totfact>
</mgrwt>
</event>
<event>
 4    1  0.2417478E-001  0.1866512E+03  0.7546771E-02  0.1161517E+00
         21   -1    0    0  501  502  0.00000000000E+00  0.00000000000E+00  0.56160787185E+03  0.56160787185E+03  0.00000000000E+00 0.  1.
         21   -1    0    0  502  503 -0.00000000000E+00 -0.00000000000E+00 -0.62048776628E+02  0.62048776628E+02  0.00000000000E+00 0.  1.
          6    1    1    2  501    0  0.47374974178E+02  0.54865977425E+02  0.25462606756E+03  0.31571046536E+03  0.17200000000E+03 0.  1.
         -6    1    1    2    0  503 -0.47374974178E+02 -0.54865977425E+02  0.24493302767E+03  0.30794618312E+03  0.17200000000E+03 0.  1.
<mgrwt>
<rscale>  2 0.18665118E+03</rscale>
<asrwt>0</asrwt>
<pdfrwt beam="1">  1       21 0.14040195E+00 0.18665118E+03</pdfrwt>
<pdfrwt beam="2">  1       21 0.15512196E-01 0.18665118E+03</pdfrwt>
<totfact> 0.13161982E+04</totfact>
</mgrwt>
</event>
<event>
 4    1  0.2417478E-001  0.1744783E+03  0.7546771E-02  0.1173257E+00
         21   -1    0    0  503  502  0.00000000000E+00  0.00000000000E+00  0.56018697893E+03  0.56018697893E+03  0.00000000000E+00 0. -1.
         21   -1    0    0  501  503 -0.00000000000E+00 -0.00000000000E+00 -0.65752318580E+02  0.65752318580E+02  0.00000000000E+00 0. -1.
          6    1    1    2  501    0 -0.23223445817E+02 -0.17870759274E+02  0.11685227265E+03  0.20999320488E+03  0.17200000000E+03 0. -1.
         -6    1    1    2    0  502  0.23223445817E+02  0.17870759274E+02  0.37758238770E+03  0.41594609263E+03  0.17200000000E+03 0. -1.
<mgrwt>
<rscale>  2 0.17447834E+03</rscale>
<asrwt>0</asrwt>
<pdfrwt beam="1">  1       21 0.14004673E+00 0.17447834E+03</pdfrwt>
<pdfrwt beam="2">  1       21 0.16438081E-01 0.17447834E+03</pdfrwt>
<totfact> 0.12024386E+04</totfact>
</mgrwt>
</event>
<event>
 4    1  0.2417478E-001  0.1772844E+03  0.7546771E-02  0.1170457E+00
         21   -1    0    0  503  502  0.00000000000E+00  0.00000000000E+00  0.29017629516E+03  0.29017629516E+03  0.00000000000E+00 0.  1.
         21   -1    0    0  501  503 -0.00000000000E+00 -0.00000000000E+00 -0.22506545088E+03  0.22506545088E+03  0.00000000000E+00 0.  1.
          6    1    1    2  501    0 -0.42903258259E+02 -0.22510909135E+01 -0.15299430796E+03  0.23417304552E+03  0.17200000000E+03 0.  1.
         -6    1    1    2    0  502  0.42903258259E+02  0.22510909135E+01  0.21810515224E+03  0.28106870052E+03  0.17200000000E+03 0.  1.
<mgrwt>
<rscale>  2 0.17728440E+03</rscale>
<asrwt>0</asrwt>
<pdfrwt beam="1">  1       21 0.72544074E-01 0.17728440E+03</pdfrwt>
<pdfrwt beam="2">  1       21 0.56266363E-01 0.17728440E+03</pdfrwt>
<totfact> 0.51516721E+03</totfact>
</mgrwt>
</event>
<event>
 4    1  0.2417478E-001  0.2381235E+03  0.7546771E-02  0.1121049E+00
         21   -1    0    0  503  502  0.00000000000E+00  0.00000000000E+00  0.11576430495E+04  0.11576430495E+04  0.00000000000E+00 0.  1.
         21   -1    0    0  501  503 -0.00000000000E+00 -0.00000000000E+00 -0.79290616435E+02  0.79290616435E+02  0.00000000000E+00 0.  1.
          6    1    1    2  501    0  0.93902555502E+02 -0.13528156310E+03  0.15679722548E+03  0.28511078752E+03  0.17200000000E+03 0.  1.
         -6    1    1    2    0  502 -0.93902555502E+02  0.13528156310E+03  0.92155520762E+03  0.95182287844E+03  0.17200000000E+03 0.  1.
<mgrwt>
<rscale>  2 0.23812348E+03</rscale>
<asrwt>0</asrwt>
<pdfrwt beam="1">  1       21 0.28941071E+00 0.23812348E+03</pdfrwt>
<pdfrwt beam="2">  1       21 0.19822658E-01 0.23812348E+03</pdfrwt>
<totfact> 0.87215584E+02</totfact>
</mgrwt>
</event>
<event>
 4    1  0.2417478E-001  0.1994481E+03  0.7546771E-02  0.1150205E+00
         21   -1    0    0  503  502  0.00000000000E+00  0.00000000000E+00  0.10799573132E+04  0.10799573132E+04  0.00000000000E+00 0. -1.
         21   -1    0    0  501  503 -0.00000000000E+00 -0.00000000000E+00 -0.40823628618E+02  0.40823628618E+02  0.00000000000E+00 0. -1.
          6    1    1    2  501    0 -0.85120579036E+02  0.54314328558E+02  0.34438849264E+03  0.39797360858E+03  0.17200000000E+03 0. -1.
         -6    1    1    2    0  502  0.85120579036E+02 -0.54314328558E+02  0.69474519197E+03  0.72280733327E+03  0.17200000000E+03 0. -1.
<mgrwt>
<rscale>  2 0.19944814E+03</rscale>
<asrwt>0</asrwt>
<pdfrwt beam="1">  1       21 0.26998923E+00 0.19944814E+03</pdfrwt>
<pdfrwt beam="2">  1       21 0.10205911E-01 0.19944814E+03</pdfrwt>
<totfact> 0.39498687E+03</totfact>
</mgrwt>
</event>
<event>
 4    1  0.2417478E-001  0.2012759E+03  0.7546771E-02  0.1148667E+00
         21   -1    0    0  503  502  0.00000000000E+00  0.00000000000E+00  0.82473891026E+02  0.82473891026E+02  0.00000000000E+00 0. -1.
         21   -1    0    0  501  503 -0.00000000000E+00 -0.00000000000E+00 -0.56452404021E+03  0.56452404021E+03  0.00000000000E+00 0.  1.
          6    1    1    2  501    0  0.29039488330E+02 -0.10042249178E+03 -0.35760569860E+03  0.41035814164E+03  0.17200000000E+03 0. -1.
         -6    1    1    2    0  502 -0.29039488330E+02  0.10042249178E+03 -0.12444445058E+03  0.23663978959E+03  0.17200000000E+03 0. -1.
<mgrwt>
<rscale>  2 0.20127585E+03</rscale>
<asrwt>0</asrwt>
<pdfrwt beam="1">  1       21 0.20618473E-01 0.20127585E+03</pdfrwt>
<pdfrwt beam="2">  1       21 0.14113101E+00 0.20127585E+03</pdfrwt>
<totfact> 0.75905424E+03</totfact>
</mgrwt>
</event>
<event>
 4    1  0.2417478E-001  0.3474630E+03  0.7546771E-02  0.1063661E+00
         21   -1    0    0  501  502  0.00000000000E+00  0.00000000000E+00  0.11985152228E+04  0.11985152228E+04  0.00000000000E+00 0.  1.
         21   -1    0    0  502  503 -0.00000000000E+00 -0.00000000000E+00 -0.10470426138E+03  0.10470426138E+03  0.00000000000E+00 0. -1.
          6    1    1    2  501    0  0.43192254010E+02  0.29879926330E+03  0.42001029587E+03  0.54510477818E+03  0.17200000000E+03 0.  1.
         -6    1    1    2    0  503 -0.43192254010E+02 -0.29879926330E+03  0.67380066551E+03  0.75811470596E+03  0.17200000000E+03 0. -1.
<mgrwt>
<rscale>  2 0.34746305E+03</rscale>
<asrwt>0</asrwt>
<pdfrwt beam="1">  1       21 0.29962876E+00 0.34746305E+03</pdfrwt>
<pdfrwt beam="2">  1       21 0.26176069E-01 0.34746305E+03</pdfrwt>
<totfact> 0.40413073E+02</totfact>
</mgrwt>
</event>
<event>
 4    1  0.2417478E-001  0.2013100E+03  0.7546771E-02  0.1148638E+00
         21   -1    0    0  503  502  0.00000000000E+00  0.00000000000E+00  0.10496231892E+03  0.10496231892E+03  0.00000000000E+00 0. -1.
         21   -1    0    0  501  503 -0.00000000000E+00 -0.00000000000E+00 -0.38624234470E+03  0.38624234470E+03  0.00000000000E+00 0. -1.
          6    1    1    2  501    0 -0.10020714512E+03 -0.30004066751E+02 -0.14539191518E+03  0.24832342812E+03  0.17200000000E+03 0. -1.
         -6    1    1    2    0  502  0.10020714512E+03  0.30004066751E+02 -0.13588811061E+03  0.24288123550E+03  0.17200000000E+03 0. -1.
<mgrwt>
<rscale>  2 0.20131000E+03</rscale>
<asrwt>0</asrwt>
<pdfrwt beam="1">  1       21 0.26240580E-01 0.20131000E+03</pdfrwt>
<pdfrwt beam="2">  1       21 0.96560585E-01 0.20131000E+03</pdfrwt>
<totfact> 0.12237314E+04</totfact>
</mgrwt>
</event>
<event>
 4    1  0.2417478E-001  0.1810385E+03  0.7546771E-02  0.1166802E+00
         21   -1    0    0  501  502  0.00000000000E+00  0.00000000000E+00  0.15569820685E+03  0.15569820685E+03  0.00000000000E+00 0.  1.
         21   -1    0    0  502  503 -0.00000000000E+00 -0.00000000000E+00 -0.21125102652E+03  0.21125102652E+03  0.00000000000E+00 0.  1.
          6    1    1    2  501    0  0.56111662853E+02  0.65119899638E+01 -0.16857912380E+02  0.18182165419E+03  0.17200000000E+03 0.  1.
         -6    1    1    2    0  503 -0.56111662853E+02 -0.65119899638E+01 -0.38694907290E+02  0.18512757918E+03  0.17200000000E+03 0.  1.
<mgrwt>
<rscale>  2 0.18103846E+03</rscale>
<asrwt>0</asrwt>
<pdfrwt beam="1">  1       21 0.38924552E-01 0.18103846E+03</pdfrwt>
<pdfrwt beam="2">  1       21 0.52812756E-01 0.18103846E+03</pdfrwt>
<totfact> 0.21770446E+04</totfact>
</mgrwt>
</event>
<event>
 4    1  0.2417478E-001  0.2545558E+03  0.7546771E-02  0.1110459E+00
         21   -1    0    0  501  502  0.00000000000E+00  0.00000000000E+00  0.40584644302E+03  0.40584644302E+03  0.00000000000E+00 0.  1.
         21   -1    0    0  502  503 -0.00000000000E+00 -0.00000000000E+00 -0.15995352727E+03  0.15995352727E+03  0.00000000000E+00 0.  1.
          6    1    1    2  501    0  0.17990548201E+03  0.53373016636E+02  0.13500314857E+03  0.28813974298E+03  0.17200000000E+03 0.  1.
         -6    1    1    2    0  503 -0.17990548201E+03 -0.53373016636E+02  0.11088976718E+03  0.27766022730E+03  0.17200000000E+03 0.  1.
<mgrwt>
<rscale>  2 0.25455581E+03</rscale>
<asrwt>0</asrwt>
<pdfrwt beam="1">  1       21 0.10146161E+00 0.25455581E+03</pdfrwt>
<pdfrwt beam="2">  1       21 0.39988383E-01 0.25455581E+03</pdfrwt>
<totfact> 0.45725346E+03</totfact>
</mgrwt>
</event>
<event>
 4    1  0.2417478E-001  0.1726220E+03  0.7546771E-02  0.1175141E+00
         21   -1    0    0  503  502  0.00000000000E+00  0.00000000000E+00  0.44864540501E+03  0.44864540501E+03  0.00000000000E+00 0. -1.
         21   -1    0    0  501  503 -0.00000000000E+00 -0.00000000000E+00 -0.99736367327E+02  0.99736367327E+02  0.00000000000E+00 0. -1.
          6    1    1    2  501    0  0.39011501282E+01  0.14110975030E+02  0.15977944294E+02  0.17335983760E+03  0.17200000000E+03 0. -1.
         -6    1    1    2    0  502 -0.39011501282E+01 -0.14110975030E+02  0.33293109339E+03  0.37502193474E+03  0.17200000000E+03 0. -1.
<mgrwt>
<rscale>  2 0.17262195E+03</rscale>
<asrwt>0</asrwt>
<pdfrwt beam="1">  1       21 0.11216135E+00 0.17262195E+03</pdfrwt>
<pdfrwt beam="2">  1       21 0.24934093E-01 0.17262195E+03</pdfrwt>
<totfact> 0.96259702E+03</totfact>
</mgrwt>
</event>
<event>
 4    1  0.2417478E-001  0.1761950E+03  0.7546771E-02  0.1171537E+00
         21   -1    0    0  501  502  0.00000000000E+00  0.00000000000E+00  0.38211830687E+02  0.38211830687E+02  0.00000000000E+00 0. -1.
         21   -1    0    0  502  503 -0.00000000000E+00 -0.00000000000E+00 -0.82870775292E+03  0.82870775292E+03  0.00000000000E+00 0. -1.
          6    1    1    2  501    0 -0.33424763431E+02  0.18532977756E+02 -0.45598569473E+03  0.48884316491E+03  0.17200000000E+03 0.  1.
         -6    1    1    2    0  503  0.33424763431E+02 -0.18532977756E+02 -0.33451022750E+03  0.37807641870E+03  0.17200000000E+03 0.  1.
<mgrwt>
<rscale>  2 0.17619502E+03</rscale>
<asrwt>0</asrwt>
<pdfrwt beam="1">  1       21 0.95529582E-02 0.17619502E+03</pdfrwt>
<pdfrwt beam="2">  1       21 0.20717693E+00 0.17619502E+03</pdfrwt>
<totfact> 0.10786442E+04</totfact>
</mgrwt>
</event>
<event>
 4    1  0.2417478E-001  0.4092064E+03  0.7546771E-02  0.1040638E+00
         21   -1    0    0  503  502  0.00000000000E+00  0.00000000000E+00  0.22641171655E+03  0.22641171655E+03  0.00000000000E+00 0. -1.
         21   -1    0    0  501  503 -0.00000000000E+00 -0.00000000000E+00 -0.76069983047E+03  0.76069983047E+03  0.00000000000E+00 0. -1.
          6    1    1    2  501    0 -0.35424158697E+03  0.11125993882E+03 -0.18490819844E+03  0.44904444966E+03  0.17200000000E+03 0. -1.
         -6    1    1    2    0  502  0.35424158697E+03 -0.11125993882E+03 -0.34937991548E+03  0.53806709737E+03  0.17200000000E+03 0. -1.
<mgrwt>
<rscale>  2 0.40920640E+03</rscale>
<asrwt>0</asrwt>
<pdfrwt beam="1">  1       21 0.56602929E-01 0.40920640E+03</pdfrwt>
<pdfrwt beam="2">  1       21 0.19017496E+00 0.40920640E+03</pdfrwt>
<totfact> 0.38278517E+02</totfact>
</mgrwt>
</event>
<event>
 4    1  0.2417478E-001  0.1805122E+03  0.7546771E-02  0.1167308E+00
         21   -1    0    0  503  502  0.00000000000E+00  0.00000000000E+00  0.97611991955E+03  0.97611991955E+03  0.00000000000E+00 0.  1.
         21   -1    0    0  501  503 -0.00000000000E+00 -0.00000000000E+00 -0.38352881723E+02  0.38352881723E+02  0.00000000000E+00 0.  1.
          6    1    1    2  501    0 -0.33985607529E+02 -0.42960781351E+02  0.28626853850E+03  0.33842920439E+03  0.17200000000E+03 0.  1.
         -6    1    1    2    0  502  0.33985607529E+02  0.42960781351E+02  0.65149849933E+03  0.67604359688E+03  0.17200000000E+03 0.  1.
<mgrwt>
<rscale>  2 0.18051219E+03</rscale>
<asrwt>0</asrwt>
<pdfrwt beam="1">  1       21 0.24402990E+00 0.18051219E+03</pdfrwt>
<pdfrwt beam="2">  1       21 0.95882236E-02 0.18051219E+03</pdfrwt>
<totfact> 0.63804407E+03</totfact>
</mgrwt>
</event>
<event>
 4    1  0.2417478E-001  0.1830011E+03  0.7546771E-02  0.1164930E+00
         21   -1    0    0  503  502  0.00000000000E+00  0.00000000000E+00  0.28679292933E+03  0.28679292933E+03  0.00000000000E+00 0.  1.
         21   -1    0    0  501  503 -0.00000000000E+00 -0.00000000000E+00 -0.11866496227E+03  0.11866496227E+03  0.00000000000E+00 0.  1.
          6    1    1    2  501    0 -0.53158834297E+02  0.32856451745E+02  0.58459511096E+02  0.19211174488E+03  0.17200000000E+03 0.  1.
         -6    1    1    2    0  502  0.53158834297E+02 -0.32856451745E+02  0.10966845597E+03  0.21334614672E+03  0.17200000000E+03 0.  1.
<mgrwt>
<rscale>  2 0.18300111E+03</rscale>
<asrwt>0</asrwt>
<pdfrwt beam="1">  1       21 0.71698231E-01 0.18300111E+03</pdfrwt>
<pdfrwt beam="2">  1       21 0.29666241E-01 0.18300111E+03</pdfrwt>
<totfact> 0.19250750E+04</totfact>
</mgrwt>
</event>
<event>
 4    1  0.2417478E-001  0.3308782E+03  0.7546771E-02  0.1070749E+00
         21   -1    0    0  501  502  0.00000000000E+00  0.00000000000E+00  0.13100034236E+04  0.13100034236E+04  0.00000000000E+00 0. -1.
         21   -1    0    0  502  503 -0.00000000000E+00 -0.00000000000E+00 -0.89731868456E+02  0.89731868456E+02  0.00000000000E+00 0.  1.
          6    1    1    2  501    0  0.22183398783E+03 -0.17517435881E+03  0.42677450595E+03  0.54001560447E+03  0.17200000000E+03 0.  1.
         -6    1    1    2    0  503 -0.22183398783E+03  0.17517435881E+03  0.79349704916E+03  0.85971968755E+03  0.17200000000E+03 0. -1.
<mgrwt>
<rscale>  2 0.33087819E+03</rscale>
<asrwt>0</asrwt>
<pdfrwt beam="1">  1       21 0.32750079E+00 0.33087819E+03</pdfrwt>
<pdfrwt beam="2">  1       21 0.22432971E-01 0.33087819E+03</pdfrwt>
<totfact> 0.37651612E+02</totfact>
</mgrwt>
</event>
<event>
 4    1  0.2417478E-001  0.1824555E+03  0.7546771E-02  0.1165448E+00
         21   -1    0    0  501  502  0.00000000000E+00  0.00000000000E+00  0.14722869477E+03  0.14722869477E+03  0.00000000000E+00 0.  1.
         21   -1    0    0  502  503 -0.00000000000E+00 -0.00000000000E+00 -0.30543284242E+03  0.30543284242E+03  0.00000000000E+00 0. -1.
          6    1    1    2  501    0  0.18565855446E+02  0.57976796651E+02  0.36238640971E+02  0.18601945876E+03  0.17200000000E+03 0.  1.
         -6    1    1    2    0  503 -0.18565855446E+02 -0.57976796651E+02 -0.19444278862E+03  0.26664207842E+03  0.17200000000E+03 0. -1.
<mgrwt>
<rscale>  2 0.18245547E+03</rscale>
<asrwt>0</asrwt>
<pdfrwt beam="1">  1       21 0.36807174E-01 0.18245547E+03</pdfrwt>
<pdfrwt beam="2">  1       21 0.76358210E-01 0.18245547E+03</pdfrwt>
<totfact> 0.10948953E+04</totfact>
</mgrwt>
</event>
<event>
 4    1  0.2417478E-001  0.2655285E+03  0.7546771E-02  0.1103866E+00
         21   -1    0    0  501  502  0.00000000000E+00  0.00000000000E+00  0.26752808747E+03  0.26752808747E+03  0.00000000000E+00 0.  1.
         21   -1    0    0  502  503 -0.00000000000E+00 -0.00000000000E+00 -0.29907153361E+03  0.29907153361E+03  0.00000000000E+00 0. -1.
          6    1    1    2  501    0  0.10519670583E+03  0.17278605922E+03  0.81871585756E+02  0.27786386187E+03  0.17200000000E+03 0. -1.
         -6    1    1    2    0  503 -0.10519670583E+03 -0.17278605922E+03 -0.11341503190E+03  0.28873575920E+03  0.17200000000E+03 0.  1.
<mgrwt>
<rscale>  2 0.26552847E+03</rscale>
<asrwt>0</asrwt>
<pdfrwt beam="1">  1       21 0.66882022E-01 0.26552847E+03</pdfrwt>
<pdfrwt beam="2">  1       21 0.74767883E-01 0.26552847E+03</pdfrwt>
<totfact> 0.31081812E+03</totfact>
</mgrwt>
</event>
<event>
 4    1  0.2417478E-001  0.2480259E+03  0.7546771E-02  0.1114559E+00
         21   -1    0    0  503  502  0.00000000000E+00  0.00000000000E+00  0.69561999402E+03  0.69561999402E+03  0.00000000000E+00 0. -1.
         21   -1    0    0  501  503 -0.00000000000E+00 -0.00000000000E+00 -0.10032491948E+03  0.10032491948E+03  0.00000000000E+00 0.  1.
          6    1    1    2  501    0  0.12864404174E+03  0.12403052742E+03  0.16063959166E+03  0.29550285890E+03  0.17200000000E+03 0. -1.
         -6    1    1    2    0  502 -0.12864404174E+03 -0.12403052742E+03  0.43465548288E+03  0.50044205459E+03  0.17200000000E+03 0. -1.
<mgrwt>
<rscale>  2 0.24802593E+03</rscale>
<asrwt>0</asrwt>
<pdfrwt beam="1">  1       21 0.17390498E+00 0.24802593E+03</pdfrwt>
<pdfrwt beam="2">  1       21 0.25081232E-01 0.24802593E+03</pdfrwt>
<totfact> 0.28778071E+03</totfact>
</mgrwt>
</event>
<event>
 4    1  0.2417478E-001  0.2512006E+03  0.7546771E-02  0.1112548E+00
         21   -1    0    0  503  502  0.00000000000E+00  0.00000000000E+00  0.10614491314E+04  0.10614491314E+04  0.00000000000E+00 0.  1.
         21   -1    0    0  501  503 -0.00000000000E+00 -0.00000000000E+00 -0.59449457398E+02  0.59449457398E+02  0.00000000000E+00 0. -1.
          6    1    1    2  501    0  0.12433255757E+03  0.13438444357E+03  0.49899017712E+03  0.55865280847E+03  0.17200000000E+03 0.  1.
         -6    1    1    2    0  502 -0.12433255757E+03 -0.13438444357E+03  0.50300949684E+03  0.56224578029E+03  0.17200000000E+03 0.  1.
<mgrwt>
<rscale>  2 0.25120064E+03</rscale>
<asrwt>0</asrwt>
<pdfrwt beam="1">  1       21 0.26536222E+00 0.25120064E+03</pdfrwt>
<pdfrwt beam="2">  1       21 0.14862368E-01 0.25120064E+03</pdfrwt>
<totfact> 0.20297344E+03</totfact>
</mgrwt>
</event>
<event>
 4    1  0.2417478E-001  0.1772011E+03  0.7546771E-02  0.1170540E+00
         21   -1    0    0  503  502  0.00000000000E+00  0.00000000000E+00  0.19366988785E+03  0.19366988785E+03  0.00000000000E+00 0. -1.
         21   -1    0    0  501  503 -0.00000000000E+00 -0.00000000000E+00 -0.21341328538E+03  0.21341328538E+03  0.00000000000E+00 0. -1.
          6    1    1    2  501    0 -0.61290424636E+01 -0.42174251284E+02 -0.10964599669E+03  0.20838060664E+03  0.17200000000E+03 0. -1.
         -6    1    1    2    0  502  0.61290424636E+01  0.42174251284E+02  0.89902599158E+02  0.19870256659E+03  0.17200000000E+03 0. -1.
<mgrwt>
<rscale>  2 0.17720111E+03</rscale>
<asrwt>0</asrwt>
<pdfrwt beam="1">  1       21 0.48417472E-01 0.17720111E+03</pdfrwt>
<pdfrwt beam="2">  1       21 0.53353321E-01 0.17720111E+03</pdfrwt>
<totfact> 0.13687232E+04</totfact>
</mgrwt>
</event>
<event>
 4    1  0.2417478E-001  0.1919120E+03  0.7546771E-02  0.1156748E+00
         21   -1    0    0  501  502  0.00000000000E+00  0.00000000000E+00  0.22624474338E+03  0.22624474338E+03  0.00000000000E+00 0. -1.
         21   -1    0    0  502  503 -0.00000000000E+00 -0.00000000000E+00 -0.16312140315E+03  0.16312140315E+03  0.00000000000E+00 0. -1.
          6    1    1    2  501    0 -0.19760117450E+02 -0.82799510685E+02  0.40346139879E+02  0.19610719572E+03  0.17200000000E+03 0. -1.
         -6    1    1    2    0  503  0.19760117450E+02  0.82799510685E+02  0.22777200356E+02  0.19325895081E+03  0.17200000000E+03 0. -1.
<mgrwt>
<rscale>  2 0.19191201E+03</rscale>
<asrwt>0</asrwt>
<pdfrwt beam="1">  1       21 0.56561186E-01 0.19191201E+03</pdfrwt>
<pdfrwt beam="2">  1       21 0.40780351E-01 0.19191201E+03</pdfrwt>
<totfact> 0.17035691E+04</totfact>
</mgrwt>
</event>
<event>
 4    1  0.2417478E-001  0.2559540E+03  0.7546771E-02  0.1109599E+00
         21   -1    0    0  503  502  0.00000000000E+00  0.00000000000E+00  0.10601574357E+04  0.10601574357E+04  0.00000000000E+00 0. -1.
         21   -1    0    0  501  503 -0.00000000000E+00 -0.00000000000E+00 -0.69198904869E+02  0.69198904869E+02  0.00000000000E+00 0.  1.
          6    1    1    2  501    0  0.18855149923E+03 -0.19411194740E+02  0.31077332066E+03  0.40260715242E+03  0.17200000000E+03 0. -1.
         -6    1    1    2    0  502 -0.18855149923E+03  0.19411194740E+02  0.68018521019E+03  0.72674918817E+03  0.17200000000E+03 0. -1.
<mgrwt>
<rscale>  2 0.25595402E+03</rscale>
<asrwt>0</asrwt>
<pdfrwt beam="1">  1       21 0.26503931E+00 0.25595402E+03</pdfrwt>
<pdfrwt beam="2">  1       21 0.17299730E-01 0.25595402E+03</pdfrwt>
<totfact> 0.15344158E+03</totfact>
</mgrwt>
</event>
<event>
 4    1  0.2417478E-001  0.2271912E+03  0.7546771E-02  0.1128632E+00
         21   -1    0    0  501  502  0.00000000000E+00  0.00000000000E+00  0.33070225768E+03  0.33070225768E+03  0.00000000000E+00 0. -1.
         21   -1    0    0  502  503 -0.00000000000E+00 -0.00000000000E+00 -0.15610426311E+03  0.15610426311E+03  0.00000000000E+00 0. -1.
          6    1    1    2  501    0 -0.16530738455E+02 -0.14750794024E+03  0.84236110860E+02  0.24230472575E+03  0.17200000000E+03 0. -1.
         -6    1    1    2    0  503  0.16530738455E+02  0.14750794024E+03  0.90361883712E+02  0.24450179503E+03  0.17200000000E+03 0. -1.
<mgrwt>
<rscale>  2 0.22719124E+03</rscale>
<asrwt>0</asrwt>
<pdfrwt beam="1">  1       21 0.82675563E-01 0.22719124E+03</pdfrwt>
<pdfrwt beam="2">  1       21 0.39026066E-01 0.22719124E+03</pdfrwt>
<totfact> 0.78905794E+03</totfact>
</mgrwt>
</event>
<event>
 4    1  0.2417478E-001  0.1873937E+03  0.7546771E-02  0.1160833E+00
         21   -1    0    0  503  502  0.00000000000E+00  0.00000000000E+00  0.74107015037E+03  0.74107015037E+03  0.00000000000E+00 0.  1.
         21   -1    0    0  501  503 -0.00000000000E+00 -0.00000000000E+00 -0.62728223683E+02  0.62728223683E+02  0.00000000000E+00 0.  1.
          6    1    1    2  501    0 -0.15673540753E+02 -0.72709922196E+02  0.14041096887E+03  0.23416155287E+03  0.17200000000E+03 0. -1.
         -6    1    1    2    0  502  0.15673540753E+02  0.72709922196E+02  0.53793095782E+03  0.56963682118E+03  0.17200000000E+03 0. -1.
<mgrwt>
<rscale>  2 0.18739368E+03</rscale>
<asrwt>0</asrwt>
<pdfrwt beam="1">  1       21 0.18526751E+00 0.18739368E+03</pdfrwt>
<pdfrwt beam="2">  1       21 0.15682058E-01 0.18739368E+03</pdfrwt>
<totfact> 0.60930403E+03</totfact>
</mgrwt>
</event>
<event>
 4    1  0.2417478E-001  0.1778474E+03  0.7546771E-02  0.1169903E+00
         21   -1    0    0  503  502  0.00000000000E+00  0.00000000000E+00  0.27948556520E+03  0.27948556520E+03  0.00000000000E+00 0.  1.
         21   -1    0    0  501  503 -0.00000000000E+00 -0.00000000000E+00 -0.12528764895E+03  0.12528764895E+03  0.00000000000E+00 0.  1.
          6    1    1    2  501    0 -0.25396156833E+02 -0.37426221097E+02  0.14160334513E+02  0.17841020677E+03  0.17200000000E+03 0. -1.
         -6    1    1    2    0  502  0.25396156833E+02  0.37426221097E+02  0.14003758174E+03  0.22636300737E+03  0.17200000000E+03 0. -1.
<mgrwt>
<rscale>  2 0.17784737E+03</rscale>
<asrwt>0</asrwt>
<pdfrwt beam="1">  1       21 0.69871390E-01 0.17784737E+03</pdfrwt>
<pdfrwt beam="2">  1       21 0.31321913E-01 0.17784737E+03</pdfrwt>
<totfact> 0.18390087E+04</totfact>
</mgrwt>
</event>
<event>
 4    1  0.2417478E-001  0.1767812E+03  0.7546771E-02  0.1170955E+00
         21   -1    0    0  501  502  0.00000000000E+00  0.00000000000E+00  0.13189091900E+04  0.13189091900E+04  0.00000000000E+00 0. -1.
         21   -1    0    0  502  503 -0.00000000000E+00 -0.00000000000E+00 -0.24840516765E+02  0.24840516765E+02  0.00000000000E+00 0.  1.
          6    1    1    2  501    0  0.31678322880E+02  0.25769894274E+02  0.79131281840E+03  0.81081907979E+03  0.17200000000E+03 0. -1.
         -6    1    1    2    0  503 -0.31678322880E+02 -0.25769894274E+02  0.50275585479E+03  0.53293062693E+03  0.17200000000E+03 0.  1.
<mgrwt>
<rscale>  2 0.17678123E+03</rscale>
<asrwt>0</asrwt>
<pdfrwt beam="1">  1       21 0.32972706E+00 0.17678123E+03</pdfrwt>
<pdfrwt beam="2">  1       21 0.62101336E-02 0.17678123E+03</pdfrwt>
<totfact> 0.43614674E+03</totfact>
</mgrwt>
</event>
<event>
 4    1  0.2417478E-001  0.1884618E+03  0.7546771E-02  0.1159856E+00
         21   -1    0    0  501  502  0.00000000000E+00  0.00000000000E+00  0.46882486999E+03  0.46882486999E+03  0.00000000000E+00 0.  1.
         21   -1    0    0  502  503 -0.00000000000E+00 -0.00000000000E+00 -0.15254621363E+03  0.15254621363E+03  0.00000000000E+00 0.  1.
          6    1    1    2  501    0 -0.37265474469E+02 -0.67417743750E+02  0.37856582038E+03  0.42288290119E+03  0.17200000000E+03 0.  1.
         -6    1    1    2    0  503  0.37265474469E+02  0.67417743750E+02 -0.62287164018E+02  0.19848818242E+03  0.17200000000E+03 0.  1.
<mgrwt>
<rscale>  2 0.18846185E+03</rscale>
<asrwt>0</asrwt>
<pdfrwt beam="1">  1       21 0.11720621E+00 0.18846185E+03</pdfrwt>
<pdfrwt beam="2">  1       21 0.38136555E-01 0.18846185E+03</pdfrwt>
<totfact> 0.37242969E+03</totfact>
</mgrwt>
</event>
<event>
 4    1  0.2417478E-001  0.1969249E+03  0.7546771E-02  0.1152360E+00
         21   -1    0    0  501  502  0.00000000000E+00  0.00000000000E+00  0.17380472750E+03  0.17380472750E+03  0.00000000000E+00 0. -1.
         21   -1    0    0  502  503 -0.00000000000E+00 -0.00000000000E+00 -0.22452744444E+03  0.22452744444E+03  0.00000000000E+00 0. -1.
          6    1    1    2  501    0  0.74615117417E+02 -0.60232740509E+02 -0.41127237612E+02  0.20117367733E+03  0.17200000000E+03 0. -1.
         -6    1    1    2    0  503 -0.74615117417E+02  0.60232740509E+02 -0.95954793266E+01  0.19715849462E+03  0.17200000000E+03 0. -1.
<mgrwt>
<rscale>  2 0.19692486E+03</rscale>
<asrwt>0</asrwt>
<pdfrwt beam="1">  1       21 0.43451182E-01 0.19692486E+03</pdfrwt>
<pdfrwt beam="2">  1       21 0.56131861E-01 0.19692486E+03</pdfrwt>
<totfact> 0.15168194E+04</totfact>
</mgrwt>
</event>
<event>
 4    1  0.2417478E-001  0.2115022E+03  0.7546771E-02  0.1140382E+00
         21   -1    0    0  501  502  0.00000000000E+00  0.00000000000E+00  0.26994788640E+03  0.26994788640E+03  0.00000000000E+00 0.  1.
         21   -1    0    0  502  503 -0.00000000000E+00 -0.00000000000E+00 -0.19558642514E+03  0.19558642514E+03  0.00000000000E+00 0.  1.
          6    1    1    2  501    0  0.82317171435E+02  0.91504483969E+02  0.12815390477E+03  0.24729862638E+03  0.17200000000E+03 0.  1.
         -6    1    1    2    0  503 -0.82317171435E+02 -0.91504483969E+02 -0.53792443505E+02  0.21823568516E+03  0.17200000000E+03 0.  1.
<mgrwt>
<rscale>  2 0.21150222E+03</rscale>
<asrwt>0</asrwt>
<pdfrwt beam="1">  1       21 0.67486971E-01 0.21150222E+03</pdfrwt>
<pdfrwt beam="2">  1       21 0.48896606E-01 0.21150222E+03</pdfrwt>
<totfact> 0.79085775E+03</totfact>
</mgrwt>
</event>
<event>
 4    1  0.2417478E-001  0.2455966E+03  0.7546771E-02  0.1116120E+00
         21   -1    0    0  501  502  0.00000000000E+00  0.00000000000E+00  0.31731847274E+03  0.31731847274E+03  0.00000000000E+00 0.  1.
         21   -1    0    0  502  503 -0.00000000000E+00 -0.00000000000E+00 -0.26159390315E+03  0.26159390315E+03  0.00000000000E+00 0.  1.
          6    1    1    2  501    0 -0.14060117594E+02  0.17474549177E+03  0.17920002722E+03  0.30402355757E+03  0.17200000000E+03 0.  1.
         -6    1    1    2    0  503  0.14060117594E+02 -0.17474549177E+03 -0.12347545762E+03  0.27488881832E+03  0.17200000000E+03 0.  1.
<mgrwt>
<rscale>  2 0.24559657E+03</rscale>
<asrwt>0</asrwt>
<pdfrwt beam="1">  1       21 0.79329618E-01 0.24559657E+03</pdfrwt>
<pdfrwt beam="2">  1       21 0.65398476E-01 0.24559657E+03</pdfrwt>
<totfact> 0.28935687E+03</totfact>
</mgrwt>
</event>
<event>
 4    1  0.2417478E-001  0.2079301E+03  0.7546771E-02  0.1143216E+00
         21   -1    0    0  503  502  0.00000000000E+00  0.00000000000E+00  0.17913691853E+03  0.17913691853E+03  0.00000000000E+00 0. -1.
         21   -1    0    0  501  503 -0.00000000000E+00 -0.00000000000E+00 -0.30221619031E+03  0.30221619031E+03  0.00000000000E+00 0. -1.
          6    1    1    2  501    0  0.85109059305E+02  0.80046093048E+02 -0.16954823358E+03  0.26829374294E+03  0.17200000000E+03 0. -1.
         -6    1    1    2    0  502 -0.85109059305E+02 -0.80046093048E+02  0.46468961802E+02  0.21305936590E+03  0.17200000000E+03 0. -1.
<mgrwt>
<rscale>  2 0.20793011E+03</rscale>
<asrwt>0</asrwt>
<pdfrwt beam="1">  1       21 0.44784230E-01 0.20793011E+03</pdfrwt>
<pdfrwt beam="2">  1       21 0.75554047E-01 0.20793011E+03</pdfrwt>
<totfact> 0.74024266E+03</totfact>
</mgrwt>
</event>
<event>
 4    1  0.2417478E-001  0.1762670E+03  0.7546771E-02  0.1171465E+00
         21   -1    0    0  503  502  0.00000000000E+00  0.00000000000E+00  0.75568454268E+02  0.75568454268E+02  0.00000000000E+00 0.  1.
         21   -1    0    0  501  503 -0.00000000000E+00 -0.00000000000E+00 -0.41520269179E+03  0.41520269179E+03  0.00000000000E+00 0.  1.
          6    1    1    2  501    0  0.99206449658E+01  0.37251205267E+02 -0.19405634439E+03  0.26216013482E+03  0.17200000000E+03 0.  1.
         -6    1    1    2    0  502 -0.99206449658E+01 -0.37251205267E+02 -0.14557789313E+03  0.22861101123E+03  0.17200000000E+03 0.  1.
<mgrwt>
<rscale>  2 0.17626705E+03</rscale>
<asrwt>0</asrwt>
<pdfrwt beam="1">  1       21 0.18892114E-01 0.17626705E+03</pdfrwt>
<pdfrwt beam="2">  1       21 0.10380067E+00 0.17626705E+03</pdfrwt>
<totfact> 0.19478086E+04</totfact>
</mgrwt>
</event>
<event>
 4    1  0.2417478E-001  0.2789874E+03  0.7546771E-02  0.1096243E+00
         21   -1    0    0  503  502  0.00000000000E+00  0.00000000000E+00  0.13308298671E+03  0.13308298671E+03  0.00000000000E+00 0.  1.
         21   -1    0    0  501  503 -0.00000000000E+00 -0.00000000000E+00 -0.67564754539E+03  0.67564754539E+03  0.00000000000E+00 0.  1.
          6    1    1    2  501    0  0.36373765742E+02 -0.21662617923E+03 -0.41951503774E+03  0.50381228573E+03  0.17200000000E+03 0.  1.
         -6    1    1    2    0  502 -0.36373765742E+02  0.21662617923E+03 -0.12304952094E+03  0.30491824637E+03  0.17200000000E+03 0.  1.
<mgrwt>
<rscale>  2 0.27898737E+03</rscale>
<asrwt>0</asrwt>
<pdfrwt beam="1">  1       21 0.33270747E-01 0.27898737E+03</pdfrwt>
<pdfrwt beam="2">  1       21 0.16891188E+00 0.27898737E+03</pdfrwt>
<totfact> 0.17570111E+03</totfact>
</mgrwt>
</event>
<event>
 4    1  0.2417478E-001  0.2446576E+03  0.7546771E-02  0.1116728E+00
         21   -1    0    0  503  502  0.00000000000E+00  0.00000000000E+00  0.93285223131E+03  0.93285223131E+03  0.00000000000E+00 0.  1.
         21   -1    0    0  501  503 -0.00000000000E+00 -0.00000000000E+00 -0.95369747914E+02  0.95369747914E+02  0.00000000000E+00 0.  1.
          6    1    1    2  501    0  0.39037784385E+02 -0.16955651199E+03  0.12466819180E+03  0.27458972562E+03  0.17200000000E+03 0.  1.
         -6    1    1    2    0  502 -0.39037784385E+02  0.16955651199E+03  0.71281429159E+03  0.75363225360E+03  0.17200000000E+03 0.  1.
<mgrwt>
<rscale>  2 0.24465764E+03</rscale>
<asrwt>0</asrwt>
<pdfrwt beam="1">  1       21 0.23321303E+00 0.24465764E+03</pdfrwt>
<pdfrwt beam="2">  1       21 0.23842440E-01 0.24465764E+03</pdfrwt>
<totfact> 0.13134612E+03</totfact>
</mgrwt>
</event>
<event>
 4    1  0.2417478E-001  0.1767080E+03  0.7546771E-02  0.1171028E+00
         21   -1    0    0  501  502  0.00000000000E+00  0.00000000000E+00  0.13798519697E+03  0.13798519697E+03  0.00000000000E+00 0. -1.
         21   -1    0    0  502  503 -0.00000000000E+00 -0.00000000000E+00 -0.25878125111E+03  0.25878125111E+03  0.00000000000E+00 0. -1.
          6    1    1    2  501    0 -0.39978753887E+02 -0.65889594110E+01  0.98883471893E+01  0.17698444722E+03  0.17200000000E+03 0. -1.
         -6    1    1    2    0  503  0.39978753887E+02  0.65889594110E+01 -0.13068440134E+03  0.21978200086E+03  0.17200000000E+03 0. -1.
<mgrwt>
<rscale>  2 0.17670799E+03</rscale>
<asrwt>0</asrwt>
<pdfrwt beam="1">  1       21 0.34496299E-01 0.17670799E+03</pdfrwt>
<pdfrwt beam="2">  1       21 0.64695313E-01 0.17670799E+03</pdfrwt>
<totfact> 0.18009405E+04</totfact>
</mgrwt>
</event>
<event>
 4    1  0.2417478E-001  0.2040379E+03  0.7546771E-02  0.1146376E+00
         21   -1    0    0  503  502  0.00000000000E+00  0.00000000000E+00  0.74767825606E+03  0.74767825606E+03  0.00000000000E+00 0.  1.
         21   -1    0    0  501  503 -0.00000000000E+00 -0.00000000000E+00 -0.10335469657E+03  0.10335469657E+03  0.00000000000E+00 0. -1.
          6    1    1    2  501    0 -0.10710841217E+03 -0.23984637855E+02  0.33166549066E+02  0.20671597613E+03  0.17200000000E+03 0. -1.
         -6    1    1    2    0  502  0.10710841217E+03  0.23984637855E+02  0.61115701043E+03  0.64431697650E+03  0.17200000000E+03 0.  1.
<mgrwt>
<rscale>  2 0.20403792E+03</rscale>
<asrwt>0</asrwt>
<pdfrwt beam="1">  1       21 0.18691955E+00 0.20403792E+03</pdfrwt>
<pdfrwt beam="2">  1       21 0.25838676E-01 0.20403792E+03</pdfrwt>
<totfact> 0.22986472E+03</totfact>
</mgrwt>
</event>
<event>
 4    1  0.2417478E-001  0.1934196E+03  0.7546771E-02  0.1155413E+00
         21   -1    0    0  501  502  0.00000000000E+00  0.00000000000E+00  0.14277721094E+03  0.14277721094E+03  0.00000000000E+00 0.  1.
         21   -1    0    0  502  503 -0.00000000000E+00 -0.00000000000E+00 -0.26274107582E+03  0.26274107582E+03  0.00000000000E+00 0.  1.
          6    1    1    2  501    0 -0.86259422896E+02 -0.19658455524E+02 -0.49393920659E+02  0.19962690778E+03  0.17200000000E+03 0.  1.
         -6    1    1    2    0  503  0.86259422896E+02  0.19658455524E+02 -0.70569944214E+02  0.20589137898E+03  0.17200000000E+03 0.  1.
<mgrwt>
<rscale>  2 0.19341960E+03</rscale>
<asrwt>0</asrwt>
<pdfrwt beam="1">  1       21 0.35694303E-01 0.19341960E+03</pdfrwt>
<pdfrwt beam="2">  1       21 0.65685268E-01 0.19341960E+03</pdfrwt>
<totfact> 0.16115407E+04</totfact>
</mgrwt>
</event>
<event>
 4    1  0.2417478E-001  0.2278395E+03  0.7546771E-02  0.1128170E+00
         21   -1    0    0  503  502  0.00000000000E+00  0.00000000000E+00  0.74309660121E+02  0.74309660121E+02  0.00000000000E+00 0.  1.
         21   -1    0    0  501  503 -0.00000000000E+00 -0.00000000000E+00 -0.74128076814E+03  0.74128076814E+03  0.00000000000E+00 0. -1.
          6    1    1    2  501    0 -0.10070272089E+03 -0.11038939434E+03 -0.23560531631E+03  0.32775100526E+03  0.17200000000E+03 0.  1.
         -6    1    1    2    0  502  0.10070272089E+03  0.11038939434E+03 -0.43136579171E+03  0.48783942300E+03  0.17200000000E+03 0. -1.
<mgrwt>
<rscale>  2 0.22783954E+03</rscale>
<asrwt>0</asrwt>
<pdfrwt beam="1">  1       21 0.18577415E-01 0.22783954E+03</pdfrwt>
<pdfrwt beam="2">  1       21 0.18532019E+00 0.22783954E+03</pdfrwt>
<totfact> 0.43033845E+03</totfact>
</mgrwt>
</event>
<event>
 4    1  0.2417478E-001  0.2189867E+03  0.7546771E-02  0.1134641E+00
         21   -1    0    0  503  502  0.00000000000E+00  0.00000000000E+00  0.16269164234E+03  0.16269164234E+03  0.00000000000E+00 0.  1.
         21   -1    0    0  501  503 -0.00000000000E+00 -0.00000000000E+00 -0.32226238665E+03  0.32226238665E+03  0.00000000000E+00 0.  1.
          6    1    1    2  501    0 -0.13017821538E+03  0.37746775002E+02 -0.15061930166E+03  0.26578442546E+03  0.17200000000E+03 0.  1.
         -6    1    1    2    0  502  0.13017821538E+03 -0.37746775002E+02 -0.89514426495E+01  0.21916960352E+03  0.17200000000E+03 0.  1.
<mgrwt>
<rscale>  2 0.21898673E+03</rscale>
<asrwt>0</asrwt>
<pdfrwt beam="1">  1       21 0.40672911E-01 0.21898673E+03</pdfrwt>
<pdfrwt beam="2">  1       21 0.80565596E-01 0.21898673E+03</pdfrwt>
<totfact> 0.77382345E+03</totfact>
</mgrwt>
</event>
<event>
 4    1  0.2417478E-001  0.2225431E+03  0.7546771E-02  0.1132001E+00
         21   -1    0    0  503  502  0.00000000000E+00  0.00000000000E+00  0.36492911005E+02  0.36492911005E+02  0.00000000000E+00 0.  1.
         21   -1    0    0  501  503 -0.00000000000E+00 -0.00000000000E+00 -0.14087005792E+04  0.14087005792E+04  0.00000000000E+00 0. -1.
          6    1    1    2  501    0 -0.47386047672E+02  0.13302623752E+03 -0.54783906465E+03  0.59131468621E+03  0.17200000000E+03 0. -1.
         -6    1    1    2    0  502  0.47386047672E+02 -0.13302623752E+03 -0.82436860351E+03  0.85387880395E+03  0.17200000000E+03 0. -1.
<mgrwt>
<rscale>  2 0.22254307E+03</rscale>
<asrwt>0</asrwt>
<pdfrwt beam="1">  1       21 0.91232279E-02 0.22254307E+03</pdfrwt>
<pdfrwt beam="2">  1       21 0.35217514E+00 0.22254307E+03</pdfrwt>
<totfact> 0.15564832E+03</totfact>
</mgrwt>
</event>
<event>
 4    1  0.2417478E-001  0.2010788E+03  0.7546771E-02  0.1148832E+00
         21   -1    0    0  503  502  0.00000000000E+00  0.00000000000E+00  0.36676598631E+03  0.36676598631E+03  0.00000000000E+00 0.  1.
         21   -1    0    0  501  503 -0.00000000000E+00 -0.00000000000E+00 -0.11053864706E+03  0.11053864706E+03  0.00000000000E+00 0.  1.
          6    1    1    2  501    0  0.79146141323E+02 -0.67709561524E+02  0.14049494135E+03  0.24529884825E+03  0.17200000000E+03 0.  1.
         -6    1    1    2    0  502 -0.79146141323E+02  0.67709561524E+02  0.11573239790E+03  0.23200578513E+03  0.17200000000E+03 0.  1.
<mgrwt>
<rscale>  2 0.20107883E+03</rscale>
<asrwt>0</asrwt>
<pdfrwt beam="1">  1       21 0.91691494E-01 0.20107883E+03</pdfrwt>
<pdfrwt beam="2">  1       21 0.27634663E-01 0.20107883E+03</pdfrwt>
<totfact> 0.12502806E+04</totfact>
</mgrwt>
</event>
<event>
 4    1  0.2417478E-001  0.2048167E+03  0.7546771E-02  0.1145738E+00
         21   -1    0    0  501  502  0.00000000000E+00  0.00000000000E+00  0.24369822954E+03  0.24369822954E+03  0.00000000000E+00 0.  1.
         21   -1    0    0  502  503 -0.00000000000E+00 -0.00000000000E+00 -0.17445270046E+03  0.17445270046E+03  0.00000000000E+00 0.  1.
          6    1    1    2  501    0 -0.10403905973E+03 -0.39265108660E+02  0.58702643858E+02  0.21306307776E+03  0.17200000000E+03 0.  1.
         -6    1    1    2    0  503  0.10403905973E+03  0.39265108660E+02  0.10542885226E+02  0.20508785224E+03  0.17200000000E+03 0.  1.
<mgrwt>
<rscale>  2 0.20481669E+03</rscale>
<asrwt>0</asrwt>
<pdfrwt beam="1">  1       21 0.60924557E-01 0.20481669E+03</pdfrwt>
<pdfrwt beam="2">  1       21 0.43613175E-01 0.20481669E+03</pdfrwt>
<totfact> 0.12567721E+04</totfact>
</mgrwt>
</event>
<event>
 4    1  0.2417478E-001  0.1727483E+03  0.7546771E-02  0.1175012E+00
         21   -1    0    0  503  502  0.00000000000E+00  0.00000000000E+00  0.12180846178E+04  0.12180846178E+04  0.00000000000E+00 0.  1.
         21   -1    0    0  501  503 -0.00000000000E+00 -0.00000000000E+00 -0.24707177703E+02  0.24707177703E+02  0.00000000000E+00 0.  1.
          6    1    1    2  501    0 -0.48373514097E+01  0.15316319516E+02  0.53966459118E+03  0.56663909200E+03  0.17200000000E+03 0. -1.
         -6    1    1    2    0  502  0.48373514097E+01 -0.15316319516E+02  0.65371284891E+03  0.67615270350E+03  0.17200000000E+03 0. -1.
<mgrwt>
<rscale>  2 0.17274834E+03</rscale>
<asrwt>0</asrwt>
<pdfrwt beam="1">  1       21 0.30452095E+00 0.17274834E+03</pdfrwt>
<pdfrwt beam="2">  1       21 0.61767985E-02 0.17274834E+03</pdfrwt>
<totfact> 0.61777583E+03</totfact>
</mgrwt>
</event>
<event>
 4    1  0.2417478E-001  0.2999204E+03  0.7546771E-02  0.1085280E+00
         21   -1    0    0  503  502  0.00000000000E+00  0.00000000000E+00  0.85553659977E+02  0.85553659977E+02  0.00000000000E+00 0. -1.
         21   -1    0    0  501  503 -0.00000000000E+00 -0.00000000000E+00 -0.10516599920E+04  0.10516599920E+04  0.00000000000E+00 0. -1.
          6    1    1    2  501    0 -0.24493863982E+03 -0.19321963200E+02 -0.49175779845E+03  0.57600174294E+03  0.17200000000E+03 0. -1.
         -6    1    1    2    0  502  0.24493863982E+03  0.19321963200E+02 -0.47434853359E+03  0.56121190905E+03  0.17200000000E+03 0. -1.
<mgrwt>
<rscale>  2 0.29992045E+03</rscale>
<asrwt>0</asrwt>
<pdfrwt beam="1">  1       21 0.21388415E-01 0.29992045E+03</pdfrwt>
<pdfrwt beam="2">  1       21 0.26291500E+00 0.29992045E+03</pdfrwt>
<totfact> 0.10216760E+03</totfact>
</mgrwt>
</event>
<event>
 4    1  0.2417478E-001  0.1991715E+03  0.7546771E-02  0.1150440E+00
         21   -1    0    0  503  502  0.00000000000E+00  0.00000000000E+00  0.10538778344E+03  0.10538778344E+03  0.00000000000E+00 0.  1.
         21   -1    0    0  501  503 -0.00000000000E+00 -0.00000000000E+00 -0.45199861274E+03  0.45199861274E+03  0.00000000000E+00 0. -1.
          6    1    1    2  501    0 -0.17666461548E+02  0.98859349134E+02 -0.28727236836E+03  0.34956356847E+03  0.17200000000E+03 0. -1.
         -6    1    1    2    0  502  0.17666461548E+02 -0.98859349134E+02 -0.59338460936E+02  0.20782282772E+03  0.17200000000E+03 0.  1.
<mgrwt>
<rscale>  2 0.19917147E+03</rscale>
<asrwt>0</asrwt>
<pdfrwt beam="1">  1       21 0.26346946E-01 0.19917147E+03</pdfrwt>
<pdfrwt beam="2">  1       21 0.11299965E+00 0.19917147E+03</pdfrwt>
<totfact> 0.83414321E+03</totfact>
</mgrwt>
</event>
<event>
 4    1  0.2417478E-001  0.2303140E+03  0.7546771E-02  0.1126419E+00
         21   -1    0    0  503  502  0.00000000000E+00  0.00000000000E+00  0.22021428398E+03  0.22021428398E+03  0.00000000000E+00 0. -1.
         21   -1    0    0  501  503 -0.00000000000E+00 -0.00000000000E+00 -0.24162500185E+03  0.24162500185E+03  0.00000000000E+00 0.  1.
          6    1    1    2  501    0  0.70489014993E+02  0.13598474345E+03 -0.23553700580E+02  0.23151528782E+03  0.17200000000E+03 0. -1.
         -6    1    1    2    0  502 -0.70489014993E+02 -0.13598474345E+03  0.21429827085E+01  0.23032399801E+03  0.17200000000E+03 0.  1.
<mgrwt>
<rscale>  2 0.23031403E+03</rscale>
<asrwt>0</asrwt>
<pdfrwt beam="1">  1       21 0.55053571E-01 0.23031403E+03</pdfrwt>
<pdfrwt beam="2">  1       21 0.60406250E-01 0.23031403E+03</pdfrwt>
<totfact> 0.77479959E+03</totfact>
</mgrwt>
</event>
<event>
 4    1  0.2417478E-001  0.2944682E+03  0.7546771E-02  0.1088039E+00
         21   -1    0    0  503  502  0.00000000000E+00  0.00000000000E+00  0.51995708186E+03  0.51995708186E+03  0.00000000000E+00 0.  1.
         21   -1    0    0  501  503 -0.00000000000E+00 -0.00000000000E+00 -0.19116353535E+03  0.19116353535E+03  0.00000000000E+00 0. -1.
          6    1    1    2  501    0  0.23283019942E+03 -0.54014784632E+02  0.37375057750E+02  0.29683058074E+03  0.17200000000E+03 0. -1.
         -6    1    1    2    0  502 -0.23283019942E+03  0.54014784632E+02  0.29141848876E+03  0.41429003646E+03  0.17200000000E+03 0.  1.
<mgrwt>
<rscale>  2 0.29446816E+03</rscale>
<asrwt>0</asrwt>
<pdfrwt beam="1">  1       21 0.12998927E+00 0.29446816E+03</pdfrwt>
<pdfrwt beam="2">  1       21 0.47790885E-01 0.29446816E+03</pdfrwt>
<totfact> 0.16715553E+03</totfact>
</mgrwt>
</event>
<event>
 4    1  0.2417478E-001  0.2082814E+03  0.7546771E-02  0.1142934E+00
         21   -1    0    0  501  502  0.00000000000E+00  0.00000000000E+00  0.22636936423E+03  0.22636936423E+03  0.00000000000E+00 0. -1.
         21   -1    0    0  502  503 -0.00000000000E+00 -0.00000000000E+00 -0.22352988725E+03  0.22352988725E+03  0.00000000000E+00 0. -1.
          6    1    1    2  501    0  0.95933270630E+02 -0.67778627576E+02  0.86387210313E+02  0.22548588620E+03  0.17200000000E+03 0. -1.
         -6    1    1    2    0  503 -0.95933270630E+02  0.67778627576E+02 -0.83547733340E+02  0.22441336528E+03  0.17200000000E+03 0. -1.
<mgrwt>
<rscale>  2 0.20828138E+03</rscale>
<asrwt>0</asrwt>
<pdfrwt beam="1">  1       21 0.56592341E-01 0.20828138E+03</pdfrwt>
<pdfrwt beam="2">  1       21 0.55882472E-01 0.20828138E+03</pdfrwt>
<totfact> 0.87581368E+03</totfact>
</mgrwt>
</event>
<event>
 4    1  0.2417478E-001  0.1738930E+03  0.7546771E-02  0.1173848E+00
         21   -1    0    0  503  502  0.00000000000E+00  0.00000000000E+00  0.13449224314E+03  0.13449224314E+03  0.00000000000E+00 0.  1.
         21   -1    0    0  501  503 -0.00000000000E+00 -0.00000000000E+00 -0.22829130587E+03  0.22829130587E+03  0.00000000000E+00 0.  1.
          6    1    1    2  501    0 -0.20897359529E+02  0.14767069980E+02 -0.69213887961E+02  0.18716123604E+03  0.17200000000E+03 0.  1.
         -6    1    1    2    0  502  0.20897359529E+02 -0.14767069980E+02 -0.24585174768E+02  0.17562231296E+03  0.17200000000E+03 0.  1.
<mgrwt>
<rscale>  2 0.17389297E+03</rscale>
<asrwt>0</asrwt>
<pdfrwt beam="1">  1       21 0.33623061E-01 0.17389297E+03</pdfrwt>
<pdfrwt beam="2">  1       21 0.57072826E-01 0.17389297E+03</pdfrwt>
<totfact> 0.24836670E+04</totfact>
</mgrwt>
</event>
<event>
 4    1  0.2417478E-001  0.2005214E+03  0.7546771E-02  0.1149300E+00
         21   -1    0    0  503  502  0.00000000000E+00  0.00000000000E+00  0.10923335476E+03  0.10923335476E+03  0.00000000000E+00 0. -1.
         21   -1    0    0  501  503 -0.00000000000E+00 -0.00000000000E+00 -0.40316727686E+03  0.40316727686E+03  0.00000000000E+00 0. -1.
          6    1    1    2  501    0  0.55854470295E+02 -0.86632148111E+02 -0.22252575841E+03  0.29954392682E+03  0.17200000000E+03 0.  1.
         -6    1    1    2    0  502 -0.55854470295E+02  0.86632148111E+02 -0.71408163690E+02  0.21285670480E+03  0.17200000000E+03 0.  1.
<mgrwt>
<rscale>  2 0.20052145E+03</rscale>
<asrwt>0</asrwt>
<pdfrwt beam="1">  1       21 0.27308339E-01 0.20052145E+03</pdfrwt>
<pdfrwt beam="2">  1       21 0.10079182E+00 0.20052145E+03</pdfrwt>
<totfact> 0.10245175E+04</totfact>
</mgrwt>
</event>
<event>
 4    1  0.2417478E-001  0.2247704E+03  0.7546771E-02  0.1130376E+00
         21   -1    0    0  503  502  0.00000000000E+00  0.00000000000E+00  0.92459398628E+02  0.92459398628E+02  0.00000000000E+00 0.  1.
         21   -1    0    0  501  503 -0.00000000000E+00 -0.00000000000E+00 -0.59212713069E+03  0.59212713069E+03  0.00000000000E+00 0.  1.
          6    1    1    2  501    0 -0.14354098656E+03  0.18267646855E+02 -0.15473399752E+03  0.27288153425E+03  0.17200000000E+03 0.  1.
         -6    1    1    2    0  502  0.14354098656E+03 -0.18267646855E+02 -0.34493373454E+03  0.41170499507E+03  0.17200000000E+03 0.  1.
<mgrwt>
<rscale>  2 0.22477038E+03</rscale>
<asrwt>0</asrwt>
<pdfrwt beam="1">  1       21 0.23114850E-01 0.22477038E+03</pdfrwt>
<pdfrwt beam="2">  1       21 0.14803178E+00 0.22477038E+03</pdfrwt>
<totfact> 0.53039143E+03</totfact>
</mgrwt>
</event>
<event>
 4    1  0.2417478E-001  0.1720275E+03  0.7546771E-02  0.1175750E+00
         21   -1    0    0  501  502  0.00000000000E+00  0.00000000000E+00  0.71930730658E+03  0.71930730658E+03  0.00000000000E+00 0. -1.
         21   -1    0    0  502  503 -0.00000000000E+00 -0.00000000000E+00 -0.60662132071E+02  0.60662132071E+02  0.00000000000E+00 0. -1.
          6    1    1    2  501    0  0.10836069467E+01 -0.28760589303E+01  0.55054783896E+03  0.57679837803E+03  0.17200000000E+03 0. -1.
         -6    1    1    2    0  503 -0.10836069467E+01  0.28760589303E+01  0.10809733555E+03  0.20317106062E+03  0.17200000000E+03 0. -1.
<mgrwt>
<rscale>  2 0.17202746E+03</rscale>
<asrwt>0</asrwt>
<pdfrwt beam="1">  1       21 0.17982680E+00 0.17202746E+03</pdfrwt>
<pdfrwt beam="2">  1       21 0.15165535E-01 0.17202746E+03</pdfrwt>
<totfact> 0.71440598E+03</totfact>
</mgrwt>
</event>
<event>
 4    1  0.2417478E-001  0.2127662E+03  0.7546771E-02  0.1139394E+00
         21   -1    0    0  503  502  0.00000000000E+00  0.00000000000E+00  0.39987914067E+03  0.39987914067E+03  0.00000000000E+00 0.  1.
         21   -1    0    0  501  503 -0.00000000000E+00 -0.00000000000E+00 -0.11820649637E+03  0.11820649637E+03  0.00000000000E+00 0. -1.
          6    1    1    2  501    0 -0.96660421182E+02  0.79638137842E+02  0.19410547139E+03  0.28800417366E+03  0.17200000000E+03 0.  1.
         -6    1    1    2    0  502  0.96660421182E+02 -0.79638137842E+02  0.87567172912E+02  0.23008146339E+03  0.17200000000E+03 0.  1.
<mgrwt>
<rscale>  2 0.21276623E+03</rscale>
<asrwt>0</asrwt>
<pdfrwt beam="1">  1       21 0.99969782E-01 0.21276623E+03</pdfrwt>
<pdfrwt beam="2">  1       21 0.29551625E-01 0.21276623E+03</pdfrwt>
<totfact> 0.88880060E+03</totfact>
</mgrwt>
</event>
<event>
 4    1  0.2417478E-001  0.1894102E+03  0.7546771E-02  0.1158994E+00
         21   -1    0    0  501  502  0.00000000000E+00  0.00000000000E+00  0.73845885004E+02  0.73845885004E+02  0.00000000000E+00 0. -1.
         21   -1    0    0  502  503 -0.00000000000E+00 -0.00000000000E+00 -0.48710473053E+03  0.48710473053E+03  0.00000000000E+00 0. -1.
          6    1    1    2  501    0  0.78872710468E+02 -0.84442221033E+01 -0.19225572255E+03  0.26988603557E+03  0.17200000000E+03 0. -1.
         -6    1    1    2    0  503 -0.78872710468E+02  0.84442221033E+01 -0.22100312298E+03  0.29106457996E+03  0.17200000000E+03 0. -1.
<mgrwt>
<rscale>  2 0.18941016E+03</rscale>
<asrwt>0</asrwt>
<pdfrwt beam="1">  1       21 0.18461471E-01 0.18941016E+03</pdfrwt>
<pdfrwt beam="2">  1       21 0.12177618E+00 0.18941016E+03</pdfrwt>
<totfact> 0.13671303E+04</totfact>
</mgrwt>
</event>
<event>
 4    1  0.2417478E-001  0.1730700E+03  0.7546771E-02  0.1174684E+00
         21   -1    0    0  501  502  0.00000000000E+00  0.00000000000E+00  0.21206363808E+03  0.21206363808E+03  0.00000000000E+00 0. -1.
         21   -1    0    0  502  503 -0.00000000000E+00 -0.00000000000E+00 -0.17872337897E+03  0.17872337897E+03  0.00000000000E+00 0. -1.
          6    1    1    2  501    0 -0.14032502913E+02  0.13127165037E+02  0.10614508952E+03  0.20302712535E+03  0.17200000000E+03 0. -1.
         -6    1    1    2    0  503  0.14032502913E+02 -0.13127165037E+02 -0.72804830410E+02  0.18775989170E+03  0.17200000000E+03 0. -1.
<mgrwt>
<rscale>  2 0.17307003E+03</rscale>
<asrwt>0</asrwt>
<pdfrwt beam="1">  1       21 0.53015909E-01 0.17307003E+03</pdfrwt>
<pdfrwt beam="2">  1       21 0.44680845E-01 0.17307003E+03</pdfrwt>
<totfact> 0.16409448E+04</totfact>
</mgrwt>
</event>
<event>
 4    1  0.2417478E-001  0.1920721E+03  0.7546771E-02  0.1156606E+00
         21   -1    0    0  501  502  0.00000000000E+00  0.00000000000E+00  0.52488874500E+03  0.52488874500E+03  0.00000000000E+00 0. -1.
         21   -1    0    0  502  503 -0.00000000000E+00 -0.00000000000E+00 -0.70853487702E+02  0.70853487702E+02  0.00000000000E+00 0.  1.
          6    1    1    2  501    0 -0.81613968115E+02  0.25433560818E+02  0.20033179292E+03  0.27753294050E+03  0.17200000000E+03 0.  1.
         -6    1    1    2    0  503  0.81613968115E+02 -0.25433560818E+02  0.25370346438E+03  0.31820929220E+03  0.17200000000E+03 0.  1.
<mgrwt>
<rscale>  2 0.19207214E+03</rscale>
<asrwt>0</asrwt>
<pdfrwt beam="1">  1       21 0.13122217E+00 0.19207214E+03</pdfrwt>
<pdfrwt beam="2">  1       21 0.17713373E-01 0.19207214E+03</pdfrwt>
<totfact> 0.12214657E+04</totfact>
</mgrwt>
</event>
<event>
 4    1  0.2417478E-001  0.2398900E+03  0.7546771E-02  0.1119866E+00
         21   -1    0    0  503  502  0.00000000000E+00  0.00000000000E+00  0.72551154452E+02  0.72551154452E+02  0.00000000000E+00 0.  1.
         21   -1    0    0  501  503 -0.00000000000E+00 -0.00000000000E+00 -0.10716141904E+04  0.10716141904E+04  0.00000000000E+00 0.  1.
          6    1    1    2  501    0  0.43347503678E+02 -0.16150611579E+03 -0.79113247802E+03  0.82670298735E+03  0.17200000000E+03 0.  1.
         -6    1    1    2    0  502 -0.43347503678E+02  0.16150611579E+03 -0.20793055793E+03  0.31746235751E+03  0.17200000000E+03 0.  1.
<mgrwt>
<rscale>  2 0.23989004E+03</rscale>
<asrwt>0</asrwt>
<pdfrwt beam="1">  1       21 0.18137789E-01 0.23989004E+03</pdfrwt>
<pdfrwt beam="2">  1       21 0.26790354E+00 0.23989004E+03</pdfrwt>
<totfact> 0.13725771E+03</totfact>
</mgrwt>
</event>
<event>
 4    1  0.2417478E-001  0.3128415E+03  0.7546771E-02  0.1078992E+00
         21   -1    0    0  503  502  0.00000000000E+00  0.00000000000E+00  0.10573595987E+03  0.10573595987E+03  0.00000000000E+00 0.  1.
         21   -1    0    0  501  503 -0.00000000000E+00 -0.00000000000E+00 -0.97502321192E+03  0.97502321192E+03  0.00000000000E+00 0. -1.
          6    1    1    2  501    0  0.61596656770E+02 -0.25395210221E+03 -0.55629903679E+03  0.63823070803E+03  0.17200000000E+03 0. -1.
         -6    1    1    2    0  502 -0.61596656770E+02  0.25395210221E+03 -0.31298821527E+03  0.44252846376E+03  0.17200000000E+03 0.  1.
<mgrwt>
<rscale>  2 0.31284152E+03</rscale>
<asrwt>0</asrwt>
<pdfrwt beam="1">  1       21 0.26433990E-01 0.31284152E+03</pdfrwt>
<pdfrwt beam="2">  1       21 0.24375581E+00 0.31284152E+03</pdfrwt>
<totfact> 0.87811371E+02</totfact>
</mgrwt>
</event>
<event>
 4    1  0.2417478E-001  0.2410786E+03  0.7546771E-02  0.1119076E+00
         21   -1    0    0  501  502  0.00000000000E+00  0.00000000000E+00  0.46792361679E+03  0.46792361679E+03  0.00000000000E+00 0.  1.
         21   -1    0    0  502  503 -0.00000000000E+00 -0.00000000000E+00 -0.12551575111E+03  0.12551575111E+03  0.00000000000E+00 0. -1.
          6    1    1    2  501    0  0.11702840392E+03 -0.12181640025E+03  0.20151527124E+03  0.31420898656E+03  0.17200000000E+03 0. -1.
         -6    1    1    2    0  503 -0.11702840392E+03  0.12181640025E+03  0.14089259444E+03  0.27923038134E+03  0.17200000000E+03 0.  1.
<mgrwt>
<rscale>  2 0.24107858E+03</rscale>
<asrwt>0</asrwt>
<pdfrwt beam="1">  1       21 0.11698090E+00 0.24107858E+03</pdfrwt>
<pdfrwt beam="2">  1       21 0.31378939E-01 0.24107858E+03</pdfrwt>
<totfact> 0.52968447E+03</totfact>
</mgrwt>
</event>
<event>
 4    1  0.2417478E-001  0.1795009E+03  0.7546771E-02  0.1168287E+00
         21   -1    0    0  501  502  0.00000000000E+00  0.00000000000E+00  0.12591698625E+04  0.12591698625E+04  0.00000000000E+00 0. -1.
         21   -1    0    0  502  503 -0.00000000000E+00 -0.00000000000E+00 -0.25594628378E+02  0.25594628378E+02  0.00000000000E+00 0. -1.
          6    1    1    2  501    0  0.20984952810E+02 -0.46863506086E+02  0.60703502245E+03  0.63301822638E+03  0.17200000000E+03 0. -1.
         -6    1    1    2    0  503 -0.20984952810E+02  0.46863506086E+02  0.62654021168E+03  0.65174626450E+03  0.17200000000E+03 0. -1.
<mgrwt>
<rscale>  2 0.17950085E+03</rscale>
<asrwt>0</asrwt>
<pdfrwt beam="1">  1       21 0.31479226E+00 0.17950085E+03</pdfrwt>
<pdfrwt beam="2">  1       21 0.63986613E-02 0.17950085E+03</pdfrwt>
<totfact> 0.50345246E+03</totfact>
</mgrwt>
</event>
<event>
 4    1  0.2417478E-001  0.1750695E+03  0.7546771E-02  0.1172662E+00
         21   -1    0    0  503  502  0.00000000000E+00  0.00000000000E+00  0.62257852669E+03  0.62257852669E+03  0.00000000000E+00 0. -1.
         21   -1    0    0  501  503 -0.00000000000E+00 -0.00000000000E+00 -0.49780837677E+02  0.49780837677E+02  0.00000000000E+00 0. -1.
          6    1    1    2  501    0 -0.27672370713E+02 -0.17307585592E+02  0.32177386165E+03  0.36631643515E+03  0.17200000000E+03 0.  1.
         -6    1    1    2    0  502  0.27672370713E+02  0.17307585592E+02  0.25102382736E+03  0.30604292921E+03  0.17200000000E+03 0.  1.
<mgrwt>
<rscale>  2 0.17506945E+03</rscale>
<asrwt>0</asrwt>
<pdfrwt beam="1">  1       21 0.15564461E+00 0.17506945E+03</pdfrwt>
<pdfrwt beam="2">  1       21 0.12445211E-01 0.17506945E+03</pdfrwt>
<totfact> 0.15094050E+04</totfact>
</mgrwt>
</event>
<event>
 4    1  0.2417478E-001  0.1898369E+03  0.7546771E-02  0.1158608E+00
         21   -1    0    0  501  502  0.00000000000E+00  0.00000000000E+00  0.24213770170E+03  0.24213770170E+03  0.00000000000E+00 0.  1.
         21   -1    0    0  502  503 -0.00000000000E+00 -0.00000000000E+00 -0.15666847728E+03  0.15666847728E+03  0.00000000000E+00 0. -1.
          6    1    1    2  501    0 -0.77942656440E+02 -0.19468164716E+02  0.87328499953E+02  0.20896012546E+03  0.17200000000E+03 0. -1.
         -6    1    1    2    0  503  0.77942656440E+02  0.19468164716E+02 -0.18592755362E+01  0.18984605352E+03  0.17200000000E+03 0.  1.
<mgrwt>
<rscale>  2 0.18983695E+03</rscale>
<asrwt>0</asrwt>
<pdfrwt beam="1">  1       21 0.60534425E-01 0.18983695E+03</pdfrwt>
<pdfrwt beam="2">  1       21 0.39167120E-01 0.18983695E+03</pdfrwt>
<totfact> 0.16005960E+04</totfact>
</mgrwt>
</event>
<event>
 4    1  0.2417478E-001  0.1911044E+03  0.7546771E-02  0.1157469E+00
         21   -1    0    0  501  502  0.00000000000E+00  0.00000000000E+00  0.21890653601E+03  0.21890653601E+03  0.00000000000E+00 0.  1.
         21   -1    0    0  502  503 -0.00000000000E+00 -0.00000000000E+00 -0.17265568382E+03  0.17265568382E+03  0.00000000000E+00 0.  1.
          6    1    1    2  501    0  0.70496057220E+02  0.44352955638E+02  0.59078360797E+02  0.20002782674E+03  0.17200000000E+03 0.  1.
         -6    1    1    2    0  503 -0.70496057220E+02 -0.44352955638E+02 -0.12827508606E+02  0.19153439308E+03  0.17200000000E+03 0.  1.
<mgrwt>
<rscale>  2 0.19110437E+03</rscale>
<asrwt>0</asrwt>
<pdfrwt beam="1">  1       21 0.54726634E-01 0.19110437E+03</pdfrwt>
<pdfrwt beam="2">  1       21 0.43163921E-01 0.19110437E+03</pdfrwt>
<totfact> 0.16283580E+04</totfact>
</mgrwt>
</event>
<event>
 4    1  0.2417478E-001  0.2550237E+03  0.7546771E-02  0.1110171E+00
         21   -1    0    0  501  502  0.00000000000E+00  0.00000000000E+00  0.66393971676E+03  0.66393971676E+03  0.00000000000E+00 0.  1.
         21   -1    0    0  502  503 -0.00000000000E+00 -0.00000000000E+00 -0.98792119401E+02  0.98792119401E+02  0.00000000000E+00 0.  1.
          6    1    1    2  501    0  0.90697843709E+02 -0.16500595253E+03  0.24749515744E+03  0.35537433248E+03  0.17200000000E+03 0.  1.
         -6    1    1    2    0  503 -0.90697843709E+02  0.16500595253E+03  0.31765243992E+03  0.40735750369E+03  0.17200000000E+03 0.  1.
<mgrwt>
<rscale>  2 0.25502365E+03</rscale>
<asrwt>0</asrwt>
<pdfrwt beam="1">  1       21 0.16598492E+00 0.25502365E+03</pdfrwt>
<pdfrwt beam="2">  1       21 0.24698032E-01 0.25502365E+03</pdfrwt>
<totfact> 0.33576407E+03</totfact>
</mgrwt>
</event>
<event>
 4    1  0.2417478E-001  0.1751058E+03  0.7546771E-02  0.1172626E+00
         21   -1    0    0  501  502  0.00000000000E+00  0.00000000000E+00  0.32784749550E+03  0.32784749550E+03  0.00000000000E+00 0. -1.
         21   -1    0    0  502  503 -0.00000000000E+00 -0.00000000000E+00 -0.95286730044E+02  0.95286730044E+02  0.00000000000E+00 0. -1.
          6    1    1    2  501    0  0.28692091378E+02 -0.15962304590E+02  0.14504550256E+03  0.22737684378E+03  0.17200000000E+03 0.  1.
         -6    1    1    2    0  503 -0.28692091378E+02  0.15962304590E+02  0.87515262901E+02  0.19575738177E+03  0.17200000000E+03 0.  1.
<mgrwt>
<rscale>  2 0.17510577E+03</rscale>
<asrwt>0</asrwt>
<pdfrwt beam="1">  1       21 0.81961871E-01 0.17510577E+03</pdfrwt>
<pdfrwt beam="2">  1       21 0.23821683E-01 0.17510577E+03</pdfrwt>
<totfact> 0.21847921E+04</totfact>
</mgrwt>
</event>
<event>
 4    1  0.2417478E-001  0.2035707E+03  0.7546771E-02  0.1146761E+00
         21   -1    0    0  501  502  0.00000000000E+00  0.00000000000E+00  0.16759497200E+03  0.16759497200E+03  0.00000000000E+00 0. -1.
         21   -1    0    0  502  503 -0.00000000000E+00 -0.00000000000E+00 -0.27724065356E+03  0.27724065356E+03  0.00000000000E+00 0.  1.
          6    1    1    2  501    0  0.17752007093E+02  0.10743326574E+03  0.18307314355E+02  0.20439226527E+03  0.17200000000E+03 0. -1.
         -6    1    1    2    0  503 -0.17752007093E+02 -0.10743326574E+03 -0.12795299591E+03  0.24044336029E+03  0.17200000000E+03 0.  1.
<mgrwt>
<rscale>  2 0.20357073E+03</rscale>
<asrwt>0</asrwt>
<pdfrwt beam="1">  1       21 0.41898744E-01 0.20357073E+03</pdfrwt>
<pdfrwt beam="2">  1       21 0.69310162E-01 0.20357073E+03</pdfrwt>
<totfact> 0.10306261E+04</totfact>
</mgrwt>
</event>
<event>
 4    1  0.2417478E-001  0.2228193E+03  0.7546771E-02  0.1131798E+00
         21   -1    0    0  503  502  0.00000000000E+00  0.00000000000E+00  0.17310295733E+03  0.17310295733E+03  0.00000000000E+00 0. -1.
         21   -1    0    0  501  503 -0.00000000000E+00 -0.00000000000E+00 -0.44292286487E+03  0.44292286487E+03  0.00000000000E+00 0. -1.
          6    1    1    2  501    0 -0.22949175561E+02 -0.13977766019E+03 -0.31776956477E+03  0.38810559806E+03  0.17200000000E+03 0. -1.
         -6    1    1    2    0  502  0.22949175561E+02  0.13977766019E+03  0.47949657229E+02  0.22792022415E+03  0.17200000000E+03 0. -1.
<mgrwt>
<rscale>  2 0.22281934E+03</rscale>
<asrwt>0</asrwt>
<pdfrwt beam="1">  1       21 0.43275740E-01 0.22281934E+03</pdfrwt>
<pdfrwt beam="2">  1       21 0.11073071E+00 0.22281934E+03</pdfrwt>
<totfact> 0.32188428E+03</totfact>
</mgrwt>
</event>
<event>
 4    1  0.2417478E-001  0.1882244E+03  0.7546771E-02  0.1160073E+00
         21   -1    0    0  501  502  0.00000000000E+00  0.00000000000E+00  0.13597087499E+03  0.13597087499E+03  0.00000000000E+00 0. -1.
         21   -1    0    0  502  503 -0.00000000000E+00 -0.00000000000E+00 -0.29668839853E+03  0.29668839853E+03  0.00000000000E+00 0. -1.
          6    1    1    2  501    0 -0.54089168677E+02 -0.54025702871E+02 -0.48674434085E+01  0.18828729841E+03  0.17200000000E+03 0. -1.
         -6    1    1    2    0  503  0.54089168677E+02  0.54025702871E+02 -0.15585008013E+03  0.24437197510E+03  0.17200000000E+03 0. -1.
<mgrwt>
<rscale>  2 0.18822437E+03</rscale>
<asrwt>0</asrwt>
<pdfrwt beam="1">  1       21 0.33992719E-01 0.18822437E+03</pdfrwt>
<pdfrwt beam="2">  1       21 0.74172100E-01 0.18822437E+03</pdfrwt>
<totfact> 0.13628472E+04</totfact>
</mgrwt>
</event>
<event>
 4    1  0.2417478E-001  0.3771624E+03  0.7546771E-02  0.1051988E+00
         21   -1    0    0  503  502  0.00000000000E+00  0.00000000000E+00  0.30824560759E+03  0.30824560759E+03  0.00000000000E+00 0. -1.
         21   -1    0    0  501  503 -0.00000000000E+00 -0.00000000000E+00 -0.54141641520E+03  0.54141641520E+03  0.00000000000E+00 0. -1.
          6    1    1    2  501    0  0.76276965196E+02 -0.32687807898E+03 -0.27981647163E+03  0.46962614039E+03  0.17200000000E+03 0. -1.
         -6    1    1    2    0  502 -0.76276965196E+02  0.32687807898E+03  0.46645664023E+02  0.38003588240E+03  0.17200000000E+03 0. -1.
<mgrwt>
<rscale>  2 0.37716237E+03</rscale>
<asrwt>0</asrwt>
<pdfrwt beam="1">  1       21 0.77061402E-01 0.37716237E+03</pdfrwt>
<pdfrwt beam="2">  1       21 0.13535410E+00 0.37716237E+03</pdfrwt>
<totfact> 0.50545110E+02</totfact>
</mgrwt>
</event>
<event>
 4    1  0.2417478E-001  0.2174476E+03  0.7546771E-02  0.1135800E+00
         21   -1    0    0  501  502  0.00000000000E+00  0.00000000000E+00  0.12699792429E+03  0.12699792429E+03  0.00000000000E+00 0.  1.
         21   -1    0    0  502  503 -0.00000000000E+00 -0.00000000000E+00 -0.39591934862E+03  0.39591934862E+03  0.00000000000E+00 0. -1.
          6    1    1    2  501    0  0.70032374843E+02  0.11311472095E+03 -0.70622877344E+02  0.22862866055E+03  0.17200000000E+03 0. -1.
         -6    1    1    2    0  503 -0.70032374843E+02 -0.11311472095E+03 -0.19829854699E+03  0.29428861235E+03  0.17200000000E+03 0. -1.
<mgrwt>
<rscale>  2 0.21744763E+03</rscale>
<asrwt>0</asrwt>
<pdfrwt beam="1">  1       21 0.31749481E-01 0.21744763E+03</pdfrwt>
<pdfrwt beam="2">  1       21 0.98979836E-01 0.21744763E+03</pdfrwt>
<totfact> 0.78822263E+03</totfact>
</mgrwt>
</event>
<event>
 4    1  0.2417478E-001  0.2056561E+03  0.7546771E-02  0.1145053E+00
         21   -1    0    0  501  502  0.00000000000E+00  0.00000000000E+00  0.37528841877E+03  0.37528841877E+03  0.00000000000E+00 0. -1.
         21   -1    0    0  502  503 -0.00000000000E+00 -0.00000000000E+00 -0.14562990778E+03  0.14562990778E+03  0.00000000000E+00 0.  1.
          6    1    1    2  501    0  0.10685390132E+03  0.35954025170E+02  0.23868592328E+03  0.31506414922E+03  0.17200000000E+03 0. -1.
         -6    1    1    2    0  503 -0.10685390132E+03 -0.35954025170E+02 -0.90274122921E+01  0.20585417733E+03  0.17200000000E+03 0.  1.
<mgrwt>
<rscale>  2 0.20565614E+03</rscale>
<asrwt>0</asrwt>
<pdfrwt beam="1">  1       21 0.93822103E-01 0.20565614E+03</pdfrwt>
<pdfrwt beam="2">  1       21 0.36407478E-01 0.20565614E+03</pdfrwt>
<totfact> 0.68724869E+03</totfact>
</mgrwt>
</event>
<event>
 4    1  0.2417478E-001  0.2501827E+03  0.7546771E-02  0.1113189E+00
         21   -1    0    0  503  502  0.00000000000E+00  0.00000000000E+00  0.13806188805E+04  0.13806188805E+04  0.00000000000E+00 0. -1.
         21   -1    0    0  501  503 -0.00000000000E+00 -0.00000000000E+00 -0.45490785629E+02  0.45490785629E+02  0.00000000000E+00 0.  1.
          6    1    1    2  501    0  0.14242001936E+03 -0.11280034479E+03  0.62593563361E+03  0.67408218870E+03  0.17200000000E+03 0.  1.
         -6    1    1    2    0  502 -0.14242001936E+03  0.11280034479E+03  0.70919246128E+03  0.75202747745E+03  0.17200000000E+03 0. -1.
<mgrwt>
<rscale>  2 0.25018269E+03</rscale>
<asrwt>0</asrwt>
<pdfrwt beam="1">  1       21 0.34515458E+00 0.25018269E+03</pdfrwt>
<pdfrwt beam="2">  1       21 0.11372701E-01 0.25018269E+03</pdfrwt>
<totfact> 0.11218754E+03</totfact>
</mgrwt>
</event>
<event>
 4    1  0.2417478E-001  0.2050444E+03  0.7546771E-02  0.1145551E+00
         21   -1    0    0  503  502  0.00000000000E+00  0.00000000000E+00  0.20984142692E+03  0.20984142692E+03  0.00000000000E+00 0. -1.
         21   -1    0    0  501  503 -0.00000000000E+00 -0.00000000000E+00 -0.23914365760E+03  0.23914365760E+03  0.00000000000E+00 0.  1.
          6    1    1    2  501    0 -0.14141942180E+01 -0.11161192546E+03 -0.10506040290E+03  0.23039294718E+03  0.17200000000E+03 0. -1.
         -6    1    1    2    0  502  0.14141942180E+01  0.11161192546E+03  0.75758172215E+02  0.21859213734E+03  0.17200000000E+03 0.  1.
<mgrwt>
<rscale>  2 0.20504444E+03</rscale>
<asrwt>0</asrwt>
<pdfrwt beam="1">  1       21 0.52460357E-01 0.20504444E+03</pdfrwt>
<pdfrwt beam="2">  1       21 0.59785914E-01 0.20504444E+03</pdfrwt>
<totfact> 0.89203045E+03</totfact>
</mgrwt>
</event>
<event>
 4    1  0.2417478E-001  0.1969269E+03  0.7546771E-02  0.1152358E+00
         21   -1    0    0  503  502  0.00000000000E+00  0.00000000000E+00  0.20096142735E+03  0.20096142735E+03  0.00000000000E+00 0.  1.
         21   -1    0    0  501  503 -0.00000000000E+00 -0.00000000000E+00 -0.19880936638E+03  0.19880936638E+03  0.00000000000E+00 0.  1.
          6    1    1    2  501    0  0.83983202073E+02 -0.46292625022E+02 -0.33171052106E+02  0.19970103670E+03  0.17200000000E+03 0.  1.
         -6    1    1    2    0  502 -0.83983202073E+02  0.46292625022E+02  0.35323113078E+02  0.20006975703E+03  0.17200000000E+03 0.  1.
<mgrwt>
<rscale>  2 0.19692685E+03</rscale>
<asrwt>0</asrwt>
<pdfrwt beam="1">  1       21 0.50240357E-01 0.19692685E+03</pdfrwt>
<pdfrwt beam="2">  1       21 0.49702342E-01 0.19692685E+03</pdfrwt>
<totfact> 0.14515110E+04</totfact>
</mgrwt>
</event>
<event>
 4    1  0.2417478E-001  0.2018416E+03  0.7546771E-02  0.1148194E+00
         21   -1    0    0  501  502  0.00000000000E+00  0.00000000000E+00  0.49881912619E+03  0.49881912619E+03  0.00000000000E+00 0.  1.
         21   -1    0    0  502  503 -0.00000000000E+00 -0.00000000000E+00 -0.13359939266E+03  0.13359939266E+03  0.00000000000E+00 0.  1.
          6    1    1    2  501    0 -0.10382085908E+03  0.19423196825E+02  0.37974617154E+03  0.43005486412E+03  0.17200000000E+03 0.  1.
         -6    1    1    2    0  503  0.10382085908E+03 -0.19423196825E+02 -0.14526438004E+02  0.20236365473E+03  0.17200000000E+03 0.  1.
<mgrwt>
<rscale>  2 0.20184160E+03</rscale>
<asrwt>0</asrwt>
<pdfrwt beam="1">  1       21 0.12470478E+00 0.20184160E+03</pdfrwt>
<pdfrwt beam="2">  1       21 0.33399849E-01 0.20184160E+03</pdfrwt>
<totfact> 0.41109804E+03</totfact>
</mgrwt>
</event>
<event>
 4    1  0.2417478E-001  0.2046186E+03  0.7546771E-02  0.1145900E+00
         21   -1    0    0  501  502  0.00000000000E+00  0.00000000000E+00  0.34479236152E+03  0.34479236152E+03  0.00000000000E+00 0.  1.
         21   -1    0    0  502  503 -0.00000000000E+00 -0.00000000000E+00 -0.16626881745E+03  0.16626881745E+03  0.00000000000E+00 0.  1.
          6    1    1    2  501    0 -0.40193578813E+02  0.10329208880E+03  0.22195707106E+03  0.30188362125E+03  0.17200000000E+03 0.  1.
         -6    1    1    2    0  503  0.40193578813E+02 -0.10329208880E+03 -0.43433526996E+02  0.20917755772E+03  0.17200000000E+03 0.  1.
<mgrwt>
<rscale>  2 0.20461862E+03</rscale>
<asrwt>0</asrwt>
<pdfrwt beam="1">  1       21 0.86198089E-01 0.20461862E+03</pdfrwt>
<pdfrwt beam="2">  1       21 0.41567205E-01 0.20461862E+03</pdfrwt>
<totfact> 0.64086206E+03</totfact>
</mgrwt>
</event>
<event>
 4    1  0.2417478E-001  0.2018487E+03  0.7546771E-02  0.1148189E+00
         21   -1    0    0  503  502  0.00000000000E+00  0.00000000000E+00  0.61736121032E+03  0.61736121032E+03  0.00000000000E+00 0. -1.
         21   -1    0    0  501  503 -0.00000000000E+00 -0.00000000000E+00 -0.66343319739E+02  0.66343319739E+02  0.00000000000E+00 0. -1.
          6    1    1    2  501    0 -0.10422118289E+03  0.17228818323E+02  0.25074650280E+03  0.32189547342E+03  0.17200000000E+03 0. -1.
         -6    1    1    2    0  502  0.10422118289E+03 -0.17228818323E+02  0.30027138779E+03  0.36180905664E+03  0.17200000000E+03 0. -1.
<mgrwt>
<rscale>  2 0.20184867E+03</rscale>
<asrwt>0</asrwt>
<pdfrwt beam="1">  1       21 0.15434028E+00 0.20184867E+03</pdfrwt>
<pdfrwt beam="2">  1       21 0.16585832E-01 0.20184867E+03</pdfrwt>
<totfact> 0.89845107E+03</totfact>
</mgrwt>
</event>
<event>
 4    1  0.2417478E-001  0.2358200E+03  0.7546771E-02  0.1122609E+00
         21   -1    0    0  503  502  0.00000000000E+00  0.00000000000E+00  0.13654464941E+03  0.13654464941E+03  0.00000000000E+00 0. -1.
         21   -1    0    0  501  503 -0.00000000000E+00 -0.00000000000E+00 -0.59491603054E+03  0.59491603054E+03  0.00000000000E+00 0. -1.
          6    1    1    2  501    0 -0.76985910310E+01  0.16114530011E+03 -0.43458467708E+03  0.49444404901E+03  0.17200000000E+03 0. -1.
         -6    1    1    2    0  502  0.76985910310E+01 -0.16114530011E+03 -0.23786704043E+02  0.23701663093E+03  0.17200000000E+03 0. -1.
<mgrwt>
<rscale>  2 0.23582001E+03</rscale>
<asrwt>0</asrwt>
<pdfrwt beam="1">  1       21 0.34136163E-01 0.23582001E+03</pdfrwt>
<pdfrwt beam="2">  1       21 0.14872900E+00 0.23582001E+03</pdfrwt>
<totfact> 0.24351220E+03</totfact>
</mgrwt>
</event>
<event>
 4    1  0.2417478E-001  0.1732086E+03  0.7546771E-02  0.1174543E+00
         21   -1    0    0  501  502  0.00000000000E+00  0.00000000000E+00  0.29734591181E+03  0.29734591181E+03  0.00000000000E+00 0.  1.
         21   -1    0    0  502  503 -0.00000000000E+00 -0.00000000000E+00 -0.10143574579E+03  0.10143574579E+03  0.00000000000E+00 0.  1.
          6    1    1    2  501    0 -0.91008705723E+01  0.18286340033E+02  0.11249056763E+03  0.20653170188E+03  0.17200000000E+03 0. -1.
         -6    1    1    2    0  503  0.91008705723E+01 -0.18286340033E+02  0.83419598398E+02  0.19224995572E+03  0.17200000000E+03 0. -1.
<mgrwt>
<rscale>  2 0.17320859E+03</rscale>
<asrwt>0</asrwt>
<pdfrwt beam="1">  1       21 0.74336476E-01 0.17320859E+03</pdfrwt>
<pdfrwt beam="2">  1       21 0.25358937E-01 0.17320859E+03</pdfrwt>
<totfact> 0.24178436E+04</totfact>
</mgrwt>
</event>
<event>
 4    1  0.2417478E-001  0.1907086E+03  0.7546771E-02  0.1157824E+00
         21   -1    0    0  503  502  0.00000000000E+00  0.00000000000E+00  0.11415897901E+03  0.11415897901E+03  0.00000000000E+00 0. -1.
         21   -1    0    0  501  503 -0.00000000000E+00 -0.00000000000E+00 -0.31936309200E+03  0.31936309200E+03  0.00000000000E+00 0.  1.
          6    1    1    2  501    0  0.53725729167E+02  0.62444567165E+02 -0.91929290961E+02  0.21170916957E+03  0.17200000000E+03 0. -1.
         -6    1    1    2    0  502 -0.53725729167E+02 -0.62444567165E+02 -0.11327482203E+03  0.22181290145E+03  0.17200000000E+03 0.  1.
<mgrwt>
<rscale>  2 0.19070862E+03</rscale>
<asrwt>0</asrwt>
<pdfrwt beam="1">  1       21 0.28539745E-01 0.19070862E+03</pdfrwt>
<pdfrwt beam="2">  1       21 0.79840772E-01 0.19070862E+03</pdfrwt>
<totfact> 0.16241760E+04</totfact>
</mgrwt>
</event>
<event>
 4    1  0.2417478E-001  0.2412397E+03  0.7546771E-02  0.1118970E+00
         21   -1    0    0  503  502  0.00000000000E+00  0.00000000000E+00  0.19450289347E+03  0.19450289347E+03  0.00000000000E+00 0. -1.
         21   -1    0    0  501  503 -0.00000000000E+00 -0.00000000000E+00 -0.44429883429E+03  0.44429883429E+03  0.00000000000E+00 0.  1.
          6    1    1    2  501    0  0.14193220194E+03  0.92020954263E+02 -0.30742204232E+03  0.39077476643E+03  0.17200000000E+03 0.  1.
         -6    1    1    2    0  502 -0.14193220194E+03 -0.92020954263E+02  0.57626101512E+02  0.24802696133E+03  0.17200000000E+03 0. -1.
<mgrwt>
<rscale>  2 0.24123973E+03</rscale>
<asrwt>0</asrwt>
<pdfrwt beam="1">  1       21 0.48625724E-01 0.24123973E+03</pdfrwt>
<pdfrwt beam="2">  1       21 0.11107471E+00 0.24123973E+03</pdfrwt>
<totfact> 0.24758235E+03</totfact>
</mgrwt>
</event>
<event>
 4    1  0.2417478E-001  0.2281514E+03  0.7546771E-02  0.1127948E+00
         21   -1    0    0  501  502  0.00000000000E+00  0.00000000000E+00  0.37265966115E+03  0.37265966115E+03  0.00000000000E+00 0. -1.
         21   -1    0    0  502  503 -0.00000000000E+00 -0.00000000000E+00 -0.14096799804E+03  0.14096799804E+03  0.00000000000E+00 0. -1.
          6    1    1    2  501    0  0.75991480246E+02 -0.12920668988E+03  0.91297144554E+02  0.24574019285E+03  0.17200000000E+03 0. -1.
         -6    1    1    2    0  503 -0.75991480246E+02  0.12920668988E+03  0.14039451855E+03  0.26788746634E+03  0.17200000000E+03 0. -1.
<mgrwt>
<rscale>  2 0.22815143E+03</rscale>
<asrwt>0</asrwt>
<pdfrwt beam="1">  1       21 0.93164913E-01 0.22815143E+03</pdfrwt>
<pdfrwt beam="2">  1       21 0.35242000E-01 0.22815143E+03</pdfrwt>
<totfact> 0.73406626E+03</totfact>
</mgrwt>
</event>
<event>
 4    1  0.2417478E-001  0.2042579E+03  0.7546771E-02  0.1146196E+00
         21   -1    0    0  503  502  0.00000000000E+00  0.00000000000E+00  0.46491413197E+03  0.46491413197E+03  0.00000000000E+00 0.  1.
         21   -1    0    0  501  503 -0.00000000000E+00 -0.00000000000E+00 -0.17917528156E+03  0.17917528156E+03  0.00000000000E+00 0. -1.
          6    1    1    2  501    0  0.90272744583E+02  0.63151484109E+02 -0.84657166798E+02  0.22110656763E+03  0.17200000000E+03 0. -1.
         -6    1    1    2    0  502 -0.90272744583E+02 -0.63151484109E+02  0.37039601721E+03  0.42298284590E+03  0.17200000000E+03 0.  1.
<mgrwt>
<rscale>  2 0.20425787E+03</rscale>
<asrwt>0</asrwt>
<pdfrwt beam="1">  1       21 0.11622853E+00 0.20425787E+03</pdfrwt>
<pdfrwt beam="2">  1       21 0.44793821E-01 0.20425787E+03</pdfrwt>
<totfact> 0.27049785E+03</totfact>
</mgrwt>
</event>
<event>
 4    1  0.2417478E-001  0.2091814E+03  0.7546771E-02  0.1142216E+00
         21   -1    0    0  503  502  0.00000000000E+00  0.00000000000E+00  0.48013830369E+02  0.48013830369E+02  0.00000000000E+00 0.  1.
         21   -1    0    0  501  503 -0.00000000000E+00 -0.00000000000E+00 -0.10291136257E+04  0.10291136257E+04  0.00000000000E+00 0. -1.
          6    1    1    2  501    0  0.17342587400E+02  0.11777985855E+03 -0.67274299002E+03  0.70451401054E+03  0.17200000000E+03 0. -1.
         -6    1    1    2    0  502 -0.17342587400E+02 -0.11777985855E+03 -0.30835680535E+03  0.37261344558E+03  0.17200000000E+03 0.  1.
<mgrwt>
<rscale>  2 0.20918141E+03</rscale>
<asrwt>0</asrwt>
<pdfrwt beam="1">  1       21 0.12003458E-01 0.20918141E+03</pdfrwt>
<pdfrwt beam="2">  1       21 0.25727840E+00 0.20918141E+03</pdfrwt>
<totfact> 0.34733417E+03</totfact>
</mgrwt>
</event>
<event>
 4    1  0.2417478E-001  0.2071807E+03  0.7546771E-02  0.1143818E+00
         21   -1    0    0  501  502  0.00000000000E+00  0.00000000000E+00  0.34035807619E+03  0.34035807619E+03  0.00000000000E+00 0.  1.
         21   -1    0    0  502  503 -0.00000000000E+00 -0.00000000000E+00 -0.12791570790E+03  0.12791570790E+03  0.00000000000E+00 0. -1.
          6    1    1    2  501    0  0.11424153029E+03  0.16991440784E+02  0.13401058462E+03  0.24674414500E+03  0.17200000000E+03 0. -1.
         -6    1    1    2    0  503 -0.11424153029E+03 -0.16991440784E+02  0.78431783669E+02  0.22152963908E+03  0.17200000000E+03 0. -1.
<mgrwt>
<rscale>  2 0.20718069E+03</rscale>
<asrwt>0</asrwt>
<pdfrwt beam="1">  1       21 0.85089517E-01 0.20718069E+03</pdfrwt>
<pdfrwt beam="2">  1       21 0.31978928E-01 0.20718069E+03</pdfrwt>
<totfact> 0.11131534E+04</totfact>
</mgrwt>
</event>
<event>
 4    1  0.2417478E-001  0.2278771E+03  0.7546771E-02  0.1128143E+00
         21   -1    0    0  503  502  0.00000000000E+00  0.00000000000E+00  0.86789686587E+02  0.86789686587E+02  0.00000000000E+00 0.  1.
         21   -1    0    0  501  503 -0.00000000000E+00 -0.00000000000E+00 -0.12343608585E+04  0.12343608585E+04  0.00000000000E+00 0.  1.
          6    1    1    2  501    0  0.14698654763E+03 -0.27183435262E+02 -0.10479662403E+04  0.10724556984E+04  0.17200000000E+03 0.  1.
         -6    1    1    2    0  502 -0.14698654763E+03  0.27183435262E+02 -0.99604931605E+02  0.24869484663E+03  0.17200000000E+03 0.  1.
<mgrwt>
<rscale>  2 0.22787713E+03</rscale>
<asrwt>0</asrwt>
<pdfrwt beam="1">  1       21 0.21697422E-01 0.22787713E+03</pdfrwt>
<pdfrwt beam="2">  1       21 0.30859021E+00 0.22787713E+03</pdfrwt>
<totfact> 0.57576385E+02</totfact>
</mgrwt>
</event>
<event>
 4    1  0.2417478E-001  0.1944674E+03  0.7546771E-02  0.1154493E+00
         21   -1    0    0  501  502  0.00000000000E+00  0.00000000000E+00  0.15212727188E+03  0.15212727188E+03  0.00000000000E+00 0.  1.
         21   -1    0    0  502  503 -0.00000000000E+00 -0.00000000000E+00 -0.35310159247E+03  0.35310159247E+03  0.00000000000E+00 0. -1.
          6    1    1    2  501    0 -0.10432219021E+02 -0.90137436665E+02  0.36944522197E+02  0.19794566528E+03  0.17200000000E+03 0.  1.
         -6    1    1    2    0  503  0.10432219021E+02  0.90137436665E+02 -0.23791884279E+03  0.30728319908E+03  0.17200000000E+03 0. -1.
<mgrwt>
<rscale>  2 0.19446745E+03</rscale>
<asrwt>0</asrwt>
<pdfrwt beam="1">  1       21 0.38031818E-01 0.19446745E+03</pdfrwt>
<pdfrwt beam="2">  1       21 0.88275397E-01 0.19446745E+03</pdfrwt>
<totfact> 0.73153199E+03</totfact>
</mgrwt>
</event>
<event>
 4    1  0.2417478E-001  0.1900364E+03  0.7546771E-02  0.1158429E+00
         21   -1    0    0  503  502  0.00000000000E+00  0.00000000000E+00  0.62298750336E+03  0.62298750336E+03  0.00000000000E+00 0.  1.
         21   -1    0    0  501  503 -0.00000000000E+00 -0.00000000000E+00 -0.61581399893E+02  0.61581399893E+02  0.00000000000E+00 0.  1.
          6    1    1    2  501    0  0.69956667894E+02 -0.40446039346E+02  0.19779927728E+03  0.27429613846E+03  0.17200000000E+03 0.  1.
         -6    1    1    2    0  502 -0.69956667894E+02  0.40446039346E+02  0.36360682619E+03  0.41027276479E+03  0.17200000000E+03 0.  1.
<mgrwt>
<rscale>  2 0.19003636E+03</rscale>
<asrwt>0</asrwt>
<pdfrwt beam="1">  1       21 0.15574686E+00 0.19003636E+03</pdfrwt>
<pdfrwt beam="2">  1       21 0.15395352E-01 0.19003636E+03</pdfrwt>
<totfact> 0.10143274E+04</totfact>
</mgrwt>
</event>
<event>
 4    1  0.2417478E-001  0.2018324E+03  0.7546771E-02  0.1148202E+00
         21   -1    0    0  501  502  0.00000000000E+00  0.00000000000E+00  0.43477817794E+03  0.43477817794E+03  0.00000000000E+00 0. -1.
         21   -1    0    0  502  503 -0.00000000000E+00 -0.00000000000E+00 -0.93765994975E+02  0.93765994975E+02  0.00000000000E+00 0.  1.
          6    1    1    2  501    0 -0.44634050570E+02  0.95708463288E+02  0.17780528983E+03  0.26898146685E+03  0.17200000000E+03 0.  1.
         -6    1    1    2    0  503  0.44634050570E+02 -0.95708463288E+02  0.16320689313E+03  0.25956270607E+03  0.17200000000E+03 0.  1.
<mgrwt>
<rscale>  2 0.20183238E+03</rscale>
<asrwt>0</asrwt>
<pdfrwt beam="1">  1       21 0.10869454E+00 0.20183238E+03</pdfrwt>
<pdfrwt beam="2">  1       21 0.23441500E-01 0.20183238E+03</pdfrwt>
<totfact> 0.11435511E+04</totfact>
</mgrwt>
</event>
<event>
 4    1  0.2417478E-001  0.2246018E+03  0.7546771E-02  0.1130498E+00
         21   -1    0    0  503  502  0.00000000000E+00  0.00000000000E+00  0.82337080006E+02  0.82337080006E+02  0.00000000000E+00 0. -1.
         21   -1    0    0  501  503 -0.00000000000E+00 -0.00000000000E+00 -0.61298502432E+03  0.61298502432E+03  0.00000000000E+00 0.  1.
          6    1    1    2  501    0 -0.17259394589E+02 -0.14340177631E+03 -0.27312944294E+03  0.35361794178E+03  0.17200000000E+03 0. -1.
         -6    1    1    2    0  502  0.17259394589E+02  0.14340177631E+03 -0.25751850138E+03  0.34170416255E+03  0.17200000000E+03 0. -1.
<mgrwt>
<rscale>  2 0.22460177E+03</rscale>
<asrwt>0</asrwt>
<pdfrwt beam="1">  1       21 0.20584270E-01 0.22460177E+03</pdfrwt>
<pdfrwt beam="2">  1       21 0.15324625E+00 0.22460177E+03</pdfrwt>
<totfact> 0.60253302E+03</totfact>
</mgrwt>
</event>
<event>
 4    1  0.2417478E-001  0.1822793E+03  0.7546771E-02  0.1165615E+00
         21   -1    0    0  501  502  0.00000000000E+00  0.00000000000E+00  0.86986216771E+02  0.86986216771E+02  0.00000000000E+00 0.  1.
         21   -1    0    0  502  503 -0.00000000000E+00 -0.00000000000E+00 -0.38242400330E+03  0.38242400330E+03  0.00000000000E+00 0.  1.
          6    1    1    2  501    0  0.11240045163E+02  0.59290768880E+02 -0.15584571289E+03  0.23981997439E+03  0.17200000000E+03 0.  1.
         -6    1    1    2    0  503 -0.11240045163E+02 -0.59290768880E+02 -0.13959207364E+03  0.22959024568E+03  0.17200000000E+03 0.  1.
<mgrwt>
<rscale>  2 0.18227927E+03</rscale>
<asrwt>0</asrwt>
<pdfrwt beam="1">  1       21 0.21746554E-01 0.18227927E+03</pdfrwt>
<pdfrwt beam="2">  1       21 0.95606000E-01 0.18227927E+03</pdfrwt>
<totfact> 0.18123127E+04</totfact>
</mgrwt>
</event>
<event>
 4    1  0.2417478E-001  0.2070385E+03  0.7546771E-02  0.1143933E+00
         21   -1    0    0  501  502  0.00000000000E+00  0.00000000000E+00  0.30089795926E+03  0.30089795926E+03  0.00000000000E+00 0. -1.
         21   -1    0    0  502  503 -0.00000000000E+00 -0.00000000000E+00 -0.20321914271E+03  0.20321914271E+03  0.00000000000E+00 0. -1.
          6    1    1    2  501    0  0.62915961364E+00  0.11524127775E+03 -0.88988298659E+02  0.22535275733E+03  0.17200000000E+03 0. -1.
         -6    1    1    2    0  503 -0.62915961364E+00 -0.11524127775E+03  0.18666711521E+03  0.27876434464E+03  0.17200000000E+03 0. -1.
<mgrwt>
<rscale>  2 0.20703852E+03</rscale>
<asrwt>0</asrwt>
<pdfrwt beam="1">  1       21 0.75224489E-01 0.20703852E+03</pdfrwt>
<pdfrwt beam="2">  1       21 0.50804786E-01 0.20703852E+03</pdfrwt>
<totfact> 0.57577325E+03</totfact>
</mgrwt>
</event>
<event>
 4    1  0.2417478E-001  0.1774575E+03  0.7546771E-02  0.1170287E+00
         21   -1    0    0  501  502  0.00000000000E+00  0.00000000000E+00  0.48129633662E+02  0.48129633662E+02  0.00000000000E+00 0.  1.
         21   -1    0    0  502  503 -0.00000000000E+00 -0.00000000000E+00 -0.65498205539E+03  0.65498205539E+03  0.00000000000E+00 0.  1.
          6    1    1    2  501    0  0.41886792442E+02  0.12355045392E+02 -0.31478269553E+03  0.36135757351E+03  0.17200000000E+03 0.  1.
         -6    1    1    2    0  503 -0.41886792442E+02 -0.12355045392E+02 -0.29206972619E+03  0.34175411554E+03  0.17200000000E+03 0.  1.
<mgrwt>
<rscale>  2 0.17745746E+03</rscale>
<asrwt>0</asrwt>
<pdfrwt beam="1">  1       21 0.12032409E-01 0.17745746E+03</pdfrwt>
<pdfrwt beam="2">  1       21 0.16374551E+00 0.17745746E+03</pdfrwt>
<totfact> 0.13964720E+04</totfact>
</mgrwt>
</event>
<event>
 4    1  0.2417478E-001  0.2231672E+03  0.7546771E-02  0.1131544E+00
         21   -1    0    0  503  502  0.00000000000E+00  0.00000000000E+00  0.22377650352E+03  0.22377650352E+03  0.00000000000E+00 0. -1.
         21   -1    0    0  501  503 -0.00000000000E+00 -0.00000000000E+00 -0.25821077633E+03  0.25821077633E+03  0.00000000000E+00 0. -1.
          6    1    1    2  501    0  0.14063238167E+03 -0.21026658664E+02 -0.10676514442E+03  0.24739115427E+03  0.17200000000E+03 0. -1.
         -6    1    1    2    0  502 -0.14063238167E+03  0.21026658664E+02  0.72330871604E+02  0.23459612558E+03  0.17200000000E+03 0. -1.
<mgrwt>
<rscale>  2 0.22316717E+03</rscale>
<asrwt>0</asrwt>
<pdfrwt beam="1">  1       21 0.55944126E-01 0.22316717E+03</pdfrwt>
<pdfrwt beam="2">  1       21 0.64552694E-01 0.22316717E+03</pdfrwt>
<totfact> 0.65132024E+03</totfact>
</mgrwt>
</event>
<event>
 4    1  0.2417478E-001  0.1979121E+03  0.7546771E-02  0.1151513E+00
         21   -1    0    0  501  502  0.00000000000E+00  0.00000000000E+00  0.36957002637E+02  0.36957002637E+02  0.00000000000E+00 0. -1.
         21   -1    0    0  502  503 -0.00000000000E+00 -0.00000000000E+00 -0.11310537259E+04  0.11310537259E+04  0.00000000000E+00 0. -1.
          6    1    1    2  501    0 -0.41550435092E+02  0.88649705136E+02 -0.40052752966E+03  0.44675665735E+03  0.17200000000E+03 0.  1.
         -6    1    1    2    0  503  0.41550435092E+02 -0.88649705136E+02 -0.69356919360E+03  0.72125407117E+03  0.17200000000E+03 0.  1.
<mgrwt>
<rscale>  2 0.19791212E+03</rscale>
<asrwt>0</asrwt>
<pdfrwt beam="1">  1       21 0.92392497E-02 0.19791212E+03</pdfrwt>
<pdfrwt beam="2">  1       21 0.28276346E+00 0.19791212E+03</pdfrwt>
<totfact> 0.39780271E+03</totfact>
</mgrwt>
</event>
<event>
 4    1  0.2417478E-001  0.1827329E+03  0.7546771E-02  0.1165184E+00
         21   -1    0    0  503  502  0.00000000000E+00  0.00000000000E+00  0.15408297799E+03  0.15408297799E+03  0.00000000000E+00 0. -1.
         21   -1    0    0  501  503 -0.00000000000E+00 -0.00000000000E+00 -0.30000782450E+03  0.30000782450E+03  0.00000000000E+00 0. -1.
          6    1    1    2  501    0  0.57542036317E+02  0.22276200405E+02 -0.19259883225E+03  0.26549129032E+03  0.17200000000E+03 0. -1.
         -6    1    1    2    0  502 -0.57542036317E+02 -0.22276200405E+02  0.46673985736E+02  0.18859951217E+03  0.17200000000E+03 0. -1.
<mgrwt>
<rscale>  2 0.18273291E+03</rscale>
<asrwt>0</asrwt>
<pdfrwt beam="1">  1       21 0.38520745E-01 0.18273291E+03</pdfrwt>
<pdfrwt beam="2">  1       21 0.75001955E-01 0.18273291E+03</pdfrwt>
<totfact> 0.10402467E+04</totfact>
</mgrwt>
</event>
<event>
 4    1  0.2417478E-001  0.1766537E+03  0.7546771E-02  0.1171081E+00
         21   -1    0    0  501  502  0.00000000000E+00  0.00000000000E+00  0.11511207764E+03  0.11511207764E+03  0.00000000000E+00 0.  1.
         21   -1    0    0  502  503 -0.00000000000E+00 -0.00000000000E+00 -0.27402732944E+03  0.27402732944E+03  0.00000000000E+00 0.  1.
          6    1    1    2  501    0  0.23981942731E+02 -0.32363645822E+02 -0.59337237924E+02  0.18635301702E+03  0.17200000000E+03 0. -1.
         -6    1    1    2    0  503 -0.23981942731E+02  0.32363645822E+02 -0.99578013869E+02  0.20278639006E+03  0.17200000000E+03 0. -1.
<mgrwt>
<rscale>  2 0.17665373E+03</rscale>
<asrwt>0</asrwt>
<pdfrwt beam="1">  1       21 0.28778020E-01 0.17665373E+03</pdfrwt>
<pdfrwt beam="2">  1       21 0.68506832E-01 0.17665373E+03</pdfrwt>
<totfact> 0.22660240E+04</totfact>
</mgrwt>
</event>
<event>
 4    1  0.2417478E-001  0.2350801E+03  0.7546771E-02  0.1123114E+00
         21   -1    0    0  501  502  0.00000000000E+00  0.00000000000E+00  0.14642155465E+04  0.14642155465E+04  0.00000000000E+00 0.  1.
         21   -1    0    0  502  503 -0.00000000000E+00 -0.00000000000E+00 -0.40258464912E+02  0.40258464912E+02  0.00000000000E+00 0.  1.
          6    1    1    2  501    0 -0.94428221117E+02 -0.12946805084E+03  0.90004323314E+03  0.93023679063E+03  0.17200000000E+03 0.  1.
         -6    1    1    2    0  503  0.94428221117E+02  0.12946805084E+03  0.52391384849E+03  0.57423722082E+03  0.17200000000E+03 0.  1.
<mgrwt>
<rscale>  2 0.23508012E+03</rscale>
<asrwt>0</asrwt>
<pdfrwt beam="1">  1       21 0.36605371E+00 0.23508012E+03</pdfrwt>
<pdfrwt beam="2">  1       21 0.10064621E-01 0.23508012E+03</pdfrwt>
<totfact> 0.10632550E+03</totfact>
</mgrwt>
</event>
<event>
 4    1  0.2417478E-001  0.1754913E+03  0.7546771E-02  0.1172239E+00
         21   -1    0    0  503  502  0.00000000000E+00  0.00000000000E+00  0.12397436488E+03  0.12397436488E+03  0.00000000000E+00 0. -1.
         21   -1    0    0  501  503 -0.00000000000E+00 -0.00000000000E+00 -0.25813816582E+03  0.25813816582E+03  0.00000000000E+00 0. -1.
          6    1    1    2  501    0  0.26258059957E+02 -0.22884497787E+02 -0.10416039295E+03  0.20407492107E+03  0.17200000000E+03 0. -1.
         -6    1    1    2    0  502 -0.26258059957E+02  0.22884497787E+02 -0.30003407984E+02  0.17803760963E+03  0.17200000000E+03 0. -1.
<mgrwt>
<rscale>  2 0.17549127E+03</rscale>
<asrwt>0</asrwt>
<pdfrwt beam="1">  1       21 0.30993592E-01 0.17549127E+03</pdfrwt>
<pdfrwt beam="2">  1       21 0.64534541E-01 0.17549127E+03</pdfrwt>
<totfact> 0.22362062E+04</totfact>
</mgrwt>
</event>
<event>
 4    1  0.2417478E-001  0.2109791E+03  0.7546771E-02  0.1140793E+00
         21   -1    0    0  503  502  0.00000000000E+00  0.00000000000E+00  0.54030028112E+03  0.54030028112E+03  0.00000000000E+00 0.  1.
         21   -1    0    0  501  503 -0.00000000000E+00 -0.00000000000E+00 -0.87808160535E+02  0.87808160535E+02  0.00000000000E+00 0.  1.
          6    1    1    2  501    0  0.12001546186E+03  0.22901102606E+02  0.14819154404E+03  0.25782339946E+03  0.17200000000E+03 0.  1.
         -6    1    1    2    0  502 -0.12001546186E+03 -0.22901102606E+02  0.30430057655E+03  0.37028504220E+03  0.17200000000E+03 0.  1.
<mgrwt>
<rscale>  2 0.21097908E+03</rscale>
<asrwt>0</asrwt>
<pdfrwt beam="1">  1       21 0.13507506E+00 0.21097908E+03</pdfrwt>
<pdfrwt beam="2">  1       21 0.21952042E-01 0.21097908E+03</pdfrwt>
<totfact> 0.74983122E+03</totfact>
</mgrwt>
</event>
<event>
 4    1  0.2417478E-001  0.3614465E+03  0.7546771E-02  0.1058013E+00
         21   -1    0    0  501  502  0.00000000000E+00  0.00000000000E+00  0.14811418478E+03  0.14811418478E+03  0.00000000000E+00 0. -1.
         21   -1    0    0  502  503 -0.00000000000E+00 -0.00000000000E+00 -0.99352590237E+03  0.99352590237E+03  0.00000000000E+00 0.  1.
          6    1    1    2  501    0 -0.31067390457E+03 -0.67389370021E+02 -0.23149749634E+03  0.42922569003E+03  0.17200000000E+03 0.  1.
         -6    1    1    2    0  503  0.31067390457E+03  0.67389370021E+02 -0.61391422124E+03  0.71241439712E+03  0.17200000000E+03 0. -1.
<mgrwt>
<rscale>  2 0.36144654E+03</rscale>
<asrwt>0</asrwt>
<pdfrwt beam="1">  1       21 0.37028547E-01 0.36144654E+03</pdfrwt>
<pdfrwt beam="2">  1       21 0.24838147E+00 0.36144654E+03</pdfrwt>
<totfact> 0.40720829E+02</totfact>
</mgrwt>
</event>
<event>
 4    1  0.2417478E-001  0.2196155E+03  0.7546771E-02  0.1134170E+00
         21   -1    0    0  501  502  0.00000000000E+00  0.00000000000E+00  0.53936155277E+03  0.53936155277E+03  0.00000000000E+00 0. -1.
         21   -1    0    0  502  503 -0.00000000000E+00 -0.00000000000E+00 -0.89538695707E+02  0.89538695707E+02  0.00000000000E+00 0. -1.
          6    1    1    2  501    0 -0.82784072081E+02  0.10859912776E+03  0.21357602927E+03  0.30634244469E+03  0.17200000000E+03 0. -1.
         -6    1    1    2    0  503  0.82784072081E+02 -0.10859912776E+03  0.23624682779E+03  0.32255780378E+03  0.17200000000E+03 0. -1.
<mgrwt>
<rscale>  2 0.21961551E+03</rscale>
<asrwt>0</asrwt>
<pdfrwt beam="1">  1       21 0.13484038E+00 0.21961551E+03</pdfrwt>
<pdfrwt beam="2">  1       21 0.22384675E-01 0.21961551E+03</pdfrwt>
<totfact> 0.72136052E+03</totfact>
</mgrwt>
</event>
<event>
 4    1  0.2417478E-001  0.1873172E+03  0.7546771E-02  0.1160903E+00
         21   -1    0    0  501  502  0.00000000000E+00  0.00000000000E+00  0.34177033911E+03  0.34177033911E+03  0.00000000000E+00 0.  1.
         21   -1    0    0  502  503 -0.00000000000E+00 -0.00000000000E+00 -0.11227772317E+03  0.11227772317E+03  0.00000000000E+00 0.  1.
          6    1    1    2  501    0  0.17271112329E+02  0.72148842813E+02  0.18117492205E+03  0.26059949966E+03  0.17200000000E+03 0. -1.
         -6    1    1    2    0  503 -0.17271112329E+02 -0.72148842813E+02  0.48317693883E+02  0.19344856263E+03  0.17200000000E+03 0. -1.
<mgrwt>
<rscale>  2 0.18731724E+03</rscale>
<asrwt>0</asrwt>
<pdfrwt beam="1">  1       21 0.85442583E-01 0.18731724E+03</pdfrwt>
<pdfrwt beam="2">  1       21 0.28069431E-01 0.18731724E+03</pdfrwt>
<totfact> 0.14407165E+04</totfact>
</mgrwt>
</event>
<event>
 4    1  0.2417478E-001  0.2382594E+03  0.7546771E-02  0.1120958E+00
         21   -1    0    0  501  502  0.00000000000E+00  0.00000000000E+00  0.72187950155E+02  0.72187950155E+02  0.00000000000E+00 0. -1.
         21   -1    0    0  502  503 -0.00000000000E+00 -0.00000000000E+00 -0.79385340847E+03  0.79385340847E+03  0.00000000000E+00 0.  1.
          6    1    1    2  501    0  0.16469459016E+03 -0.76948849168E+01 -0.31883234362E+03  0.39802208811E+03  0.17200000000E+03 0. -1.
         -6    1    1    2    0  503 -0.16469459016E+03  0.76948849168E+01 -0.40283311469E+03  0.46801927051E+03  0.17200000000E+03 0. -1.
<mgrwt>
<rscale>  2 0.23825935E+03</rscale>
<asrwt>0</asrwt>
<pdfrwt beam="1">  1       21 0.18046988E-01 0.23825935E+03</pdfrwt>
<pdfrwt beam="2">  1       21 0.19846335E+00 0.23825935E+03</pdfrwt>
<totfact> 0.36864282E+03</totfact>
</mgrwt>
</event>
<event>
 4    1  0.2417478E-001  0.1912588E+03  0.7546771E-02  0.1157331E+00
         21   -1    0    0  503  502  0.00000000000E+00  0.00000000000E+00  0.48890911210E+02  0.48890911210E+02  0.00000000000E+00 0. -1.
         21   -1    0    0  501  503 -0.00000000000E+00 -0.00000000000E+00 -0.75556284633E+03  0.75556284633E+03  0.00000000000E+00 0. -1.
          6    1    1    2  501    0  0.73979417962E+02 -0.39025084495E+02 -0.39305699053E+03  0.43711978828E+03  0.17200000000E+03 0. -1.
         -6    1    1    2    0  502 -0.73979417962E+02  0.39025084495E+02 -0.31361494459E+03  0.36733396926E+03  0.17200000000E+03 0. -1.
<mgrwt>
<rscale>  2 0.19125876E+03</rscale>
<asrwt>0</asrwt>
<pdfrwt beam="1">  1       21 0.12222728E-01 0.19125876E+03</pdfrwt>
<pdfrwt beam="2">  1       21 0.18889071E+00 0.19125876E+03</pdfrwt>
<totfact> 0.90174054E+03</totfact>
</mgrwt>
</event>
<event>
 4    1  0.2417478E-001  0.1834587E+03  0.7546771E-02  0.1164497E+00
         21   -1    0    0  501  502  0.00000000000E+00  0.00000000000E+00  0.60250841283E+02  0.60250841283E+02  0.00000000000E+00 0. -1.
         21   -1    0    0  502  503 -0.00000000000E+00 -0.00000000000E+00 -0.56002991175E+03  0.56002991175E+03  0.00000000000E+00 0.  1.
          6    1    1    2  501    0  0.63432688427E+02  0.70272798735E+01 -0.23430650373E+03  0.29758465403E+03  0.17200000000E+03 0.  1.
         -6    1    1    2    0  503 -0.63432688427E+02 -0.70272798735E+01 -0.26547256674E+03  0.32269609901E+03  0.17200000000E+03 0.  1.
<mgrwt>
<rscale>  2 0.18345868E+03</rscale>
<asrwt>0</asrwt>
<pdfrwt beam="1">  1       21 0.15062710E-01 0.18345868E+03</pdfrwt>
<pdfrwt beam="2">  1       21 0.14000748E+00 0.18345868E+03</pdfrwt>
<totfact> 0.14019423E+04</totfact>
</mgrwt>
</event>
<event>
 4    1  0.2417478E-001  0.1739145E+03  0.7546771E-02  0.1173826E+00
         21   -1    0    0  503  502  0.00000000000E+00  0.00000000000E+00  0.72819753432E+03  0.72819753432E+03  0.00000000000E+00 0.  1.
         21   -1    0    0  501  503 -0.00000000000E+00 -0.00000000000E+00 -0.45603569883E+02  0.45603569883E+02  0.00000000000E+00 0.  1.
          6    1    1    2  501    0  0.22168882673E+02 -0.13068968881E+02  0.22574461721E+03  0.28496822543E+03  0.17200000000E+03 0.  1.
         -6    1    1    2    0  502 -0.22168882673E+02  0.13068968881E+02  0.45684934723E+03  0.48883287877E+03  0.17200000000E+03 0.  1.
<mgrwt>
<rscale>  2 0.17391451E+03</rscale>
<asrwt>0</asrwt>
<pdfrwt beam="1">  1       21 0.18204935E+00 0.17391451E+03</pdfrwt>
<pdfrwt beam="2">  1       21 0.11400895E-01 0.17391451E+03</pdfrwt>
<totfact> 0.11506593E+04</totfact>
</mgrwt>
</event>
<event>
 4    1  0.2417478E-001  0.3739129E+03  0.7546771E-02  0.1053207E+00
         21   -1    0    0  501  502  0.00000000000E+00  0.00000000000E+00  0.26907648420E+03  0.26907648420E+03  0.00000000000E+00 0.  1.
         21   -1    0    0  502  503 -0.00000000000E+00 -0.00000000000E+00 -0.58973422325E+03  0.58973422325E+03  0.00000000000E+00 0.  1.
          6    1    1    2  501    0 -0.25625310555E+03  0.21109527292E+03 -0.12241189152E+02  0.37411323829E+03  0.17200000000E+03 0.  1.
         -6    1    1    2    0  503  0.25625310555E+03 -0.21109527292E+03 -0.30841654990E+03  0.48469746915E+03  0.17200000000E+03 0.  1.
<mgrwt>
<rscale>  2 0.37391292E+03</rscale>
<asrwt>0</asrwt>
<pdfrwt beam="1">  1       21 0.67269122E-01 0.37391292E+03</pdfrwt>
<pdfrwt beam="2">  1       21 0.14743355E+00 0.37391292E+03</pdfrwt>
<totfact> 0.54840266E+02</totfact>
</mgrwt>
</event>
<event>
 4    1  0.2417478E-001  0.1800743E+03  0.7546771E-02  0.1167731E+00
         21   -1    0    0  503  502  0.00000000000E+00  0.00000000000E+00  0.73069533151E+02  0.73069533151E+02  0.00000000000E+00 0.  1.
         21   -1    0    0  501  503 -0.00000000000E+00 -0.00000000000E+00 -0.51663525517E+03  0.51663525517E+03  0.00000000000E+00 0.  1.
          6    1    1    2  501    0  0.11257338323E+02 -0.52115410163E+02 -0.33250775533E+03  0.37813774077E+03  0.17200000000E+03 0. -1.
         -6    1    1    2    0  502 -0.11257338323E+02  0.52115410163E+02 -0.11105796669E+03  0.21156704755E+03  0.17200000000E+03 0. -1.
<mgrwt>
<rscale>  2 0.18007427E+03</rscale>
<asrwt>0</asrwt>
<pdfrwt beam="1">  1       21 0.18267384E-01 0.18007427E+03</pdfrwt>
<pdfrwt beam="2">  1       21 0.12915881E+00 0.18007427E+03</pdfrwt>
<totfact> 0.12112455E+04</totfact>
</mgrwt>
</event>
<event>
 4    1  0.2417478E-001  0.1953461E+03  0.7546771E-02  0.1153726E+00
         21   -1    0    0  501  502  0.00000000000E+00  0.00000000000E+00  0.12601933785E+03  0.12601933785E+03  0.00000000000E+00 0. -1.
         21   -1    0    0  502  503 -0.00000000000E+00 -0.00000000000E+00 -0.43108003194E+03  0.43108003194E+03  0.00000000000E+00 0. -1.
          6    1    1    2  501    0  0.28817663775E+02 -0.88009356199E+02 -0.58626732286E+00  0.19534699443E+03  0.17200000000E+03 0. -1.
         -6    1    1    2    0  503 -0.28817663775E+02  0.88009356199E+02 -0.30447442677E+03  0.36175237536E+03  0.17200000000E+03 0. -1.
<mgrwt>
<rscale>  2 0.19534611E+03</rscale>
<asrwt>0</asrwt>
<pdfrwt beam="1">  1       21 0.31504835E-01 0.19534611E+03</pdfrwt>
<pdfrwt beam="2">  1       21 0.10777001E+00 0.19534611E+03</pdfrwt>
<totfact> 0.66320686E+03</totfact>
</mgrwt>
</event>
<event>
 4    1  0.2417478E-001  0.1826852E+03  0.7546771E-02  0.1165229E+00
         21   -1    0    0  503  502  0.00000000000E+00  0.00000000000E+00  0.21888733156E+03  0.21888733156E+03  0.00000000000E+00 0.  1.
         21   -1    0    0  501  503 -0.00000000000E+00 -0.00000000000E+00 -0.15283068546E+03  0.15283068546E+03  0.00000000000E+00 0.  1.
          6    1    1    2  501    0 -0.20599618789E+02  0.58013213227E+02  0.24006454848E+02  0.18425576538E+03  0.17200000000E+03 0.  1.
         -6    1    1    2    0  502  0.20599618789E+02 -0.58013213227E+02  0.42050191254E+02  0.18746225163E+03  0.17200000000E+03 0.  1.
<mgrwt>
<rscale>  2 0.18268519E+03</rscale>
<asrwt>0</asrwt>
<pdfrwt beam="1">  1       21 0.54721833E-01 0.18268519E+03</pdfrwt>
<pdfrwt beam="2">  1       21 0.38207672E-01 0.18268519E+03</pdfrwt>
<totfact> 0.20949663E+04</totfact>
</mgrwt>
</event>
<event>
 4    1  0.2417478E-001  0.2399312E+03  0.7546771E-02  0.1119839E+00
         21   -1    0    0  501  502  0.00000000000E+00  0.00000000000E+00  0.20180769560E+03  0.20180769560E+03  0.00000000000E+00 0. -1.
         21   -1    0    0  502  503 -0.00000000000E+00 -0.00000000000E+00 -0.28723404591E+03  0.28723404591E+03  0.00000000000E+00 0. -1.
          6    1    1    2  501    0  0.13548165579E+03 -0.98120894920E+02 -0.22424963557E+02  0.24097690359E+03  0.17200000000E+03 0. -1.
         -6    1    1    2    0  503 -0.13548165579E+03  0.98120894920E+02 -0.63001386753E+02  0.24806483791E+03  0.17200000000E+03 0. -1.
<mgrwt>
<rscale>  2 0.23993122E+03</rscale>
<asrwt>0</asrwt>
<pdfrwt beam="1">  1       21 0.50451924E-01 0.23993122E+03</pdfrwt>
<pdfrwt beam="2">  1       21 0.71808511E-01 0.23993122E+03</pdfrwt>
<totfact> 0.63385091E+03</totfact>
</mgrwt>
</event>
<event>
 4    1  0.2417478E-001  0.1963007E+03  0.7546771E-02  0.1152898E+00
         21   -1    0    0  503  502  0.00000000000E+00  0.00000000000E+00  0.19455289332E+03  0.19455289332E+03  0.00000000000E+00 0.  1.
         21   -1    0    0  501  503 -0.00000000000E+00 -0.00000000000E+00 -0.19853201518E+03  0.19853201518E+03  0.00000000000E+00 0.  1.
          6    1    1    2  501    0  0.22992300996E+02 -0.91767701486E+02  0.75514221271E+01  0.19644587274E+03  0.17200000000E+03 0.  1.
         -6    1    1    2    0  502 -0.22992300996E+02  0.91767701486E+02 -0.11530543990E+02  0.19663903576E+03  0.17200000000E+03 0.  1.
<mgrwt>
<rscale>  2 0.19630068E+03</rscale>
<asrwt>0</asrwt>
<pdfrwt beam="1">  1       21 0.48638223E-01 0.19630068E+03</pdfrwt>
<pdfrwt beam="2">  1       21 0.49633004E-01 0.19630068E+03</pdfrwt>
<totfact> 0.15580245E+04</totfact>
</mgrwt>
</event>
<event>
 4    1  0.2417478E-001  0.1984019E+03  0.7546771E-02  0.1151094E+00
         21   -1    0    0  503  502  0.00000000000E+00  0.00000000000E+00  0.22477567611E+03  0.22477567611E+03  0.00000000000E+00 0. -1.
         21   -1    0    0  501  503 -0.00000000000E+00 -0.00000000000E+00 -0.25106031116E+03  0.25106031116E+03  0.00000000000E+00 0. -1.
          6    1    1    2  501    0 -0.94974147128E+02  0.27553999591E+02  0.11770561736E+03  0.23069010355E+03  0.17200000000E+03 0. -1.
         -6    1    1    2    0  502  0.94974147128E+02 -0.27553999591E+02 -0.14399025241E+03  0.24514588372E+03  0.17200000000E+03 0. -1.
<mgrwt>
<rscale>  2 0.19840189E+03</rscale>
<asrwt>0</asrwt>
<pdfrwt beam="1">  1       21 0.56193919E-01 0.19840189E+03</pdfrwt>
<pdfrwt beam="2">  1       21 0.62765078E-01 0.19840189E+03</pdfrwt>
<totfact> 0.69785512E+03</totfact>
</mgrwt>
</event>
<event>
 4    1  0.2417478E-001  0.1814712E+03  0.7546771E-02  0.1166387E+00
         21   -1    0    0  503  502  0.00000000000E+00  0.00000000000E+00  0.10330973795E+03  0.10330973795E+03  0.00000000000E+00 0. -1.
         21   -1    0    0  501  503 -0.00000000000E+00 -0.00000000000E+00 -0.53404475438E+03  0.53404475438E+03  0.00000000000E+00 0. -1.
          6    1    1    2  501    0  0.36466437135E+02  0.44922077671E+02 -0.41769795071E+03  0.45541560374E+03  0.17200000000E+03 0. -1.
         -6    1    1    2    0  502 -0.36466437135E+02 -0.44922077671E+02 -0.13037065722E+02  0.18193888859E+03  0.17200000000E+03 0. -1.
<mgrwt>
<rscale>  2 0.18147119E+03</rscale>
<asrwt>0</asrwt>
<pdfrwt beam="1">  1       21 0.25827435E-01 0.18147119E+03</pdfrwt>
<pdfrwt beam="2">  1       21 0.13351119E+00 0.18147119E+03</pdfrwt>
<totfact> 0.58034319E+03</totfact>
</mgrwt>
</event>
<event>
 4    1  0.2417478E-001  0.3022511E+03  0.7546771E-02  0.1084121E+00
         21   -1    0    0  501  502  0.00000000000E+00  0.00000000000E+00  0.30404345124E+03  0.30404345124E+03  0.00000000000E+00 0.  1.
         21   -1    0    0  502  503 -0.00000000000E+00 -0.00000000000E+00 -0.45399567470E+03  0.45399567470E+03  0.00000000000E+00 0.  1.
          6    1    1    2  501    0  0.24535155734E+03  0.39678077542E+02  0.14543181186E+03  0.33541936203E+03  0.17200000000E+03 0.  1.
         -6    1    1    2    0  503 -0.24535155734E+03 -0.39678077542E+02 -0.29538403531E+03  0.42261976391E+03  0.17200000000E+03 0.  1.
<mgrwt>
<rscale>  2 0.30225112E+03</rscale>
<asrwt>0</asrwt>
<pdfrwt beam="1">  1       21 0.76010863E-01 0.30225112E+03</pdfrwt>
<pdfrwt beam="2">  1       21 0.11349892E+00 0.30225112E+03</pdfrwt>
<totfact> 0.85317768E+02</totfact>
</mgrwt>
</event>
<event>
 4    1  0.2417478E-001  0.2451253E+03  0.7546771E-02  0.1116425E+00
         21   -1    0    0  501  502  0.00000000000E+00  0.00000000000E+00  0.37647510471E+03  0.37647510471E+03  0.00000000000E+00 0.  1.
         21   -1    0    0  502  503 -0.00000000000E+00 -0.00000000000E+00 -0.16442277820E+03  0.16442277820E+03  0.00000000000E+00 0. -1.
          6    1    1    2  501    0 -0.17464017115E+03  0.17944676863E+01  0.59720365561E+02  0.25229532607E+03  0.17200000000E+03 0. -1.
         -6    1    1    2    0  503  0.17464017115E+03 -0.17944676863E+01  0.15233196095E+03  0.28860255685E+03  0.17200000000E+03 0.  1.
<mgrwt>
<rscale>  2 0.24512529E+03</rscale>
<asrwt>0</asrwt>
<pdfrwt beam="1">  1       21 0.94118775E-01 0.24512529E+03</pdfrwt>
<pdfrwt beam="2">  1       21 0.41105695E-01 0.24512529E+03</pdfrwt>
<totfact> 0.51981804E+03</totfact>
</mgrwt>
</event>
<event>
 4    1  0.2417478E-001  0.1850857E+03  0.7546771E-02  0.1162970E+00
         21   -1    0    0  503  502  0.00000000000E+00  0.00000000000E+00  0.53581484629E+02  0.53581484629E+02  0.00000000000E+00 0.  1.
         21   -1    0    0  501  503 -0.00000000000E+00 -0.00000000000E+00 -0.91365632255E+03  0.91365632255E+03  0.00000000000E+00 0.  1.
          6    1    1    2  501    0  0.35359577962E+02 -0.58501362380E+02 -0.69503310390E+03  0.71925497889E+03  0.17200000000E+03 0.  1.
         -6    1    1    2    0  502 -0.35359577962E+02  0.58501362380E+02 -0.16504173403E+03  0.24798282829E+03  0.17200000000E+03 0.  1.
<mgrwt>
<rscale>  2 0.18508568E+03</rscale>
<asrwt>0</asrwt>
<pdfrwt beam="1">  1       21 0.13395372E-01 0.18508568E+03</pdfrwt>
<pdfrwt beam="2">  1       21 0.22841407E+00 0.18508568E+03</pdfrwt>
<totfact> 0.43390676E+03</totfact>
</mgrwt>
</event>
<event>
 4    1  0.2417478E-001  0.2614526E+03  0.7546771E-02  0.1106274E+00
         21   -1    0    0  501  502  0.00000000000E+00  0.00000000000E+00  0.91741015324E+02  0.91741015324E+02  0.00000000000E+00 0. -1.
         21   -1    0    0  502  503 -0.00000000000E+00 -0.00000000000E+00 -0.82097446188E+03  0.82097446188E+03  0.00000000000E+00 0.  1.
          6    1    1    2  501    0 -0.19640124095E+03  0.14142905755E+02 -0.50334013513E+03  0.56719375954E+03  0.17200000000E+03 0.  1.
         -6    1    1    2    0  503  0.19640124095E+03 -0.14142905755E+02 -0.22589331142E+03  0.34552171766E+03  0.17200000000E+03 0. -1.
<mgrwt>
<rscale>  2 0.26145261E+03</rscale>
<asrwt>0</asrwt>
<pdfrwt beam="1">  1       21 0.22935254E-01 0.26145261E+03</pdfrwt>
<pdfrwt beam="2">  1       21 0.20524361E+00 0.26145261E+03</pdfrwt>
<totfact> 0.20841874E+03</totfact>
</mgrwt>
</event>
<event>
 4    1  0.2417478E-001  0.2899472E+03  0.7546771E-02  0.1090377E+00
         21   -1    0    0  501  502  0.00000000000E+00  0.00000000000E+00  0.12378052872E+04  0.12378052872E+04  0.00000000000E+00 0. -1.
         21   -1    0    0  502  503 -0.00000000000E+00 -0.00000000000E+00 -0.87134445279E+02  0.87134445279E+02  0.00000000000E+00 0.  1.
          6    1    1    2  501    0 -0.95592341999E+02 -0.21294949038E+03  0.88644014641E+03  0.93265508870E+03  0.17200000000E+03 0. -1.
         -6    1    1    2    0  503  0.95592341999E+02  0.21294949038E+03  0.26423069551E+03  0.39228464379E+03  0.17200000000E+03 0.  1.
<mgrwt>
<rscale>  2 0.28994720E+03</rscale>
<asrwt>0</asrwt>
<pdfrwt beam="1">  1       21 0.30945127E+00 0.28994720E+03</pdfrwt>
<pdfrwt beam="2">  1       21 0.21783615E-01 0.28994720E+03</pdfrwt>
<totfact> 0.52855389E+02</totfact>
</mgrwt>
</event>
<event>
 4    1  0.2417478E-001  0.3144654E+03  0.7546771E-02  0.1078225E+00
         21   -1    0    0  503  502  0.00000000000E+00  0.00000000000E+00  0.13353725042E+04  0.13353725042E+04  0.00000000000E+00 0. -1.
         21   -1    0    0  501  503 -0.00000000000E+00 -0.00000000000E+00 -0.75843544917E+02  0.75843544917E+02  0.00000000000E+00 0. -1.
          6    1    1    2  501    0  0.25998169834E+03 -0.41400716225E+02  0.52135131276E+03  0.60884784149E+03  0.17200000000E+03 0. -1.
         -6    1    1    2    0  502 -0.25998169834E+03  0.41400716225E+02  0.73817764648E+03  0.80236820758E+03  0.17200000000E+03 0. -1.
<mgrwt>
<rscale>  2 0.31446542E+03</rscale>
<asrwt>0</asrwt>
<pdfrwt beam="1">  1       21 0.33384305E+00 0.31446542E+03</pdfrwt>
<pdfrwt beam="2">  1       21 0.18960891E-01 0.31446542E+03</pdfrwt>
<totfact> 0.48157281E+02</totfact>
</mgrwt>
</event>
<event>
 4    1  0.2417478E-001  0.3253195E+03  0.7546771E-02  0.1073227E+00
         21   -1    0    0  501  502  0.00000000000E+00  0.00000000000E+00  0.96331890002E+03  0.96331890002E+03  0.00000000000E+00 0. -1.
         21   -1    0    0  502  503 -0.00000000000E+00 -0.00000000000E+00 -0.12569066826E+03  0.12569066826E+03  0.00000000000E+00 0.  1.
          6    1    1    2  501    0  0.41564239856E+02 -0.27298574583E+03  0.61203894705E+03  0.69312659462E+03  0.17200000000E+03 0. -1.
         -6    1    1    2    0  503 -0.41564239856E+02  0.27298574583E+03  0.22558928471E+03  0.39588297367E+03  0.17200000000E+03 0.  1.
<mgrwt>
<rscale>  2 0.32531954E+03</rscale>
<asrwt>0</asrwt>
<pdfrwt beam="1">  1       21 0.24082970E+00 0.32531954E+03</pdfrwt>
<pdfrwt beam="2">  1       21 0.31422670E-01 0.32531954E+03</pdfrwt>
<totfact> 0.64556128E+02</totfact>
</mgrwt>
</event>
<event>
 4    1  0.2417478E-001  0.1953671E+03  0.7546771E-02  0.1153708E+00
         21   -1    0    0  503  502  0.00000000000E+00  0.00000000000E+00  0.65694000430E+03  0.65694000430E+03  0.00000000000E+00 0.  1.
         21   -1    0    0  501  503 -0.00000000000E+00 -0.00000000000E+00 -0.59339125357E+02  0.59339125357E+02  0.00000000000E+00 0.  1.
          6    1    1    2  501    0  0.42764228986E+02 -0.82192010854E+02  0.24704989825E+03  0.31496342352E+03  0.17200000000E+03 0.  1.
         -6    1    1    2    0  502 -0.42764228986E+02  0.82192010854E+02  0.35055098070E+03  0.40131570614E+03  0.17200000000E+03 0.  1.
<mgrwt>
<rscale>  2 0.19536711E+03</rscale>
<asrwt>0</asrwt>
<pdfrwt beam="1">  1       21 0.16423498E+00 0.19536711E+03</pdfrwt>
<pdfrwt beam="2">  1       21 0.14834783E-01 0.19536711E+03</pdfrwt>
<totfact> 0.93664784E+03</totfact>
</mgrwt>
</event>
<event>
 4    1  0.2417478E-001  0.1797351E+03  0.7546771E-02  0.1168060E+00
         21   -1    0    0  501  502  0.00000000000E+00  0.00000000000E+00  0.15732149634E+03  0.15732149634E+03  0.00000000000E+00 0.  1.
         21   -1    0    0  502  503 -0.00000000000E+00 -0.00000000000E+00 -0.30890833959E+03  0.30890833959E+03  0.00000000000E+00 0.  1.
          6    1    1    2  501    0  0.26474925783E+02  0.44942095312E+02  0.59185055703E+02  0.18922892074E+03  0.17200000000E+03 0. -1.
         -6    1    1    2    0  503 -0.26474925783E+02 -0.44942095312E+02 -0.21077189895E+03  0.27700091519E+03  0.17200000000E+03 0. -1.
<mgrwt>
<rscale>  2 0.17973512E+03</rscale>
<asrwt>0</asrwt>
<pdfrwt beam="1">  1       21 0.39330374E-01 0.17973512E+03</pdfrwt>
<pdfrwt beam="2">  1       21 0.77227084E-01 0.17973512E+03</pdfrwt>
<totfact> 0.93657150E+03</totfact>
</mgrwt>
</event>
<event>
 4    1  0.2417478E-001  0.1741912E+03  0.7546771E-02  0.1173546E+00
         21   -1    0    0  503  502  0.00000000000E+00  0.00000000000E+00  0.34397091617E+03  0.34397091617E+03  0.00000000000E+00 0.  1.
         21   -1    0    0  501  503 -0.00000000000E+00 -0.00000000000E+00 -0.90198925868E+02  0.90198925868E+02  0.00000000000E+00 0.  1.
          6    1    1    2  501    0 -0.11845322896E+02  0.24864865250E+02  0.94671388052E+02  0.19825550412E+03  0.17200000000E+03 0.  1.
         -6    1    1    2    0  502  0.11845322896E+02 -0.24864865250E+02  0.15910060225E+03  0.23591433791E+03  0.17200000000E+03 0.  1.
<mgrwt>
<rscale>  2 0.17419120E+03</rscale>
<asrwt>0</asrwt>
<pdfrwt beam="1">  1       21 0.85992726E-01 0.17419120E+03</pdfrwt>
<pdfrwt beam="2">  1       21 0.22549732E-01 0.17419120E+03</pdfrwt>
<totfact> 0.21739827E+04</totfact>
</mgrwt>
</event>
<event>
 4    1  0.2417478E-001  0.2430343E+03  0.7546771E-02  0.1117788E+00
         21   -1    0    0  501  502  0.00000000000E+00  0.00000000000E+00  0.99664880862E+02  0.99664880862E+02  0.00000000000E+00 0.  1.
         21   -1    0    0  502  503 -0.00000000000E+00 -0.00000000000E+00 -0.59307209647E+03  0.59307209647E+03  0.00000000000E+00 0.  1.
          6    1    1    2  501    0  0.11782133242E+03 -0.12489914059E+03 -0.25602382482E+03  0.35300688459E+03  0.17200000000E+03 0. -1.
         -6    1    1    2    0  503 -0.11782133242E+03  0.12489914059E+03 -0.23738339079E+03  0.33973009274E+03  0.17200000000E+03 0. -1.
<mgrwt>
<rscale>  2 0.24303428E+03</rscale>
<asrwt>0</asrwt>
<pdfrwt beam="1">  1       21 0.24916221E-01 0.24303428E+03</pdfrwt>
<pdfrwt beam="2">  1       21 0.14826802E+00 0.24303428E+03</pdfrwt>
<totfact> 0.45170283E+03</totfact>
</mgrwt>
</event>
<event>
 4    1  0.2417478E-001  0.1941394E+03  0.7546771E-02  0.1154780E+00
         21   -1    0    0  501  502  0.00000000000E+00  0.00000000000E+00  0.14321659202E+03  0.14321659202E+03  0.00000000000E+00 0.  1.
         21   -1    0    0  502  503 -0.00000000000E+00 -0.00000000000E+00 -0.26361654317E+03  0.26361654317E+03  0.00000000000E+00 0.  1.
          6    1    1    2  501    0 -0.69415635070E+02  0.57337365645E+02 -0.68585537864E+02  0.20589822703E+03  0.17200000000E+03 0. -1.
         -6    1    1    2    0  503  0.69415635070E+02 -0.57337365645E+02 -0.51814413284E+02  0.20093490815E+03  0.17200000000E+03 0. -1.
<mgrwt>
<rscale>  2 0.19413939E+03</rscale>
<asrwt>0</asrwt>
<pdfrwt beam="1">  1       21 0.35804148E-01 0.19413939E+03</pdfrwt>
<pdfrwt beam="2">  1       21 0.65904135E-01 0.19413939E+03</pdfrwt>
<totfact> 0.15893878E+04</totfact>
</mgrwt>
</event>
<event>
 4    1  0.2417478E-001  0.2872369E+03  0.7546771E-02  0.1091801E+00
         21   -1    0    0  503  502  0.00000000000E+00  0.00000000000E+00  0.46706494610E+03  0.46706494610E+03  0.00000000000E+00 0. -1.
         21   -1    0    0  501  503 -0.00000000000E+00 -0.00000000000E+00 -0.26285030094E+03  0.26285030094E+03  0.00000000000E+00 0. -1.
          6    1    1    2  501    0  0.31245622273E+02 -0.22791396474E+03 -0.10689598280E+03  0.30648297730E+03  0.17200000000E+03 0. -1.
         -6    1    1    2    0  502 -0.31245622273E+02  0.22791396474E+03  0.31111062795E+03  0.42343226974E+03  0.17200000000E+03 0. -1.
<mgrwt>
<rscale>  2 0.28723695E+03</rscale>
<asrwt>0</asrwt>
<pdfrwt beam="1">  1       21 0.11676624E+00 0.28723695E+03</pdfrwt>
<pdfrwt beam="2">  1       21 0.65712576E-01 0.28723695E+03</pdfrwt>
<totfact> 0.11119474E+03</totfact>
</mgrwt>
</event>
<event>
 4    1  0.2417478E-001  0.1974221E+03  0.7546771E-02  0.1151932E+00
         21   -1    0    0  501  502  0.00000000000E+00  0.00000000000E+00  0.33960773312E+03  0.33960773312E+03  0.00000000000E+00 0. -1.
         21   -1    0    0  502  503 -0.00000000000E+00 -0.00000000000E+00 -0.13812898339E+03  0.13812898339E+03  0.00000000000E+00 0.  1.
          6    1    1    2  501    0 -0.57751567884E+01 -0.96737418341E+02  0.19897720023E+03  0.28029878122E+03  0.17200000000E+03 0. -1.
         -6    1    1    2    0  503  0.57751567884E+01  0.96737418341E+02  0.25015494977E+01  0.19743793529E+03  0.17200000000E+03 0.  1.
<mgrwt>
<rscale>  2 0.19742209E+03</rscale>
<asrwt>0</asrwt>
<pdfrwt beam="1">  1       21 0.84901932E-01 0.19742209E+03</pdfrwt>
<pdfrwt beam="2">  1       21 0.34532247E-01 0.19742209E+03</pdfrwt>
<totfact> 0.96777551E+03</totfact>
</mgrwt>
</event>
<event>
 4    1  0.2417478E-001  0.2421811E+03  0.7546771E-02  0.1118348E+00
         21   -1    0    0  503  502  0.00000000000E+00  0.00000000000E+00  0.93825057421E+02  0.93825057421E+02  0.00000000000E+00 0.  1.
         21   -1    0    0  501  503 -0.00000000000E+00 -0.00000000000E+00 -0.77704107989E+03  0.77704107989E+03  0.00000000000E+00 0.  1.
          6    1    1    2  501    0 -0.16698311251E+03  0.34414104825E+02 -0.53414400588E+03  0.58648231814E+03  0.17200000000E+03 0.  1.
         -6    1    1    2    0  502  0.16698311251E+03 -0.34414104825E+02 -0.14907201659E+03  0.28438381917E+03  0.17200000000E+03 0.  1.
<mgrwt>
<rscale>  2 0.24218111E+03</rscale>
<asrwt>0</asrwt>
<pdfrwt beam="1">  1       21 0.23456265E-01 0.24218111E+03</pdfrwt>
<pdfrwt beam="2">  1       21 0.19426027E+00 0.24218111E+03</pdfrwt>
<totfact> 0.23902238E+03</totfact>
</mgrwt>
</event>
<event>
 4    1  0.2417478E-001  0.2036981E+03  0.7546771E-02  0.1146656E+00
         21   -1    0    0  503  502  0.00000000000E+00  0.00000000000E+00  0.26103203725E+02  0.26103203725E+02  0.00000000000E+00 0. -1.
         21   -1    0    0  501  503 -0.00000000000E+00 -0.00000000000E+00 -0.16026849682E+04  0.16026849682E+04  0.00000000000E+00 0.  1.
          6    1    1    2  501    0 -0.10432168066E+03  0.32030000430E+02 -0.86195453884E+03  0.88569665293E+03  0.17200000000E+03 0.  1.
         -6    1    1    2    0  502  0.10432168066E+03 -0.32030000430E+02 -0.71462722559E+03  0.74309151895E+03  0.17200000000E+03 0. -1.
<mgrwt>
<rscale>  2 0.20369814E+03</rscale>
<asrwt>0</asrwt>
<pdfrwt beam="1">  1       21 0.65258011E-02 0.20369814E+03</pdfrwt>
<pdfrwt beam="2">  1       21 0.40067123E+00 0.20369814E+03</pdfrwt>
<totfact> 0.14494916E+03</totfact>
</mgrwt>
</event>
<event>
 4    1  0.2417478E-001  0.1758768E+03  0.7546771E-02  0.1171854E+00
         21   -1    0    0  503  502  0.00000000000E+00  0.00000000000E+00  0.14161504506E+03  0.14161504506E+03  0.00000000000E+00 0.  1.
         21   -1    0    0  501  503 -0.00000000000E+00 -0.00000000000E+00 -0.28917798942E+03  0.28917798942E+03  0.00000000000E+00 0.  1.
          6    1    1    2  501    0  0.12335529714E+02 -0.34590043489E+02 -0.18032337139E+03  0.25189115640E+03  0.17200000000E+03 0.  1.
         -6    1    1    2    0  502 -0.12335529714E+02  0.34590043489E+02  0.32760427030E+02  0.17890187808E+03  0.17200000000E+03 0.  1.
<mgrwt>
<rscale>  2 0.17587676E+03</rscale>
<asrwt>0</asrwt>
<pdfrwt beam="1">  1       21 0.35403762E-01 0.17587676E+03</pdfrwt>
<pdfrwt beam="2">  1       21 0.72294497E-01 0.17587676E+03</pdfrwt>
<totfact> 0.13419997E+04</totfact>
</mgrwt>
</event>
<event>
 4    1  0.2417478E-001  0.1771888E+03  0.7546771E-02  0.1170552E+00
         21   -1    0    0  503  502  0.00000000000E+00  0.00000000000E+00  0.48333503492E+02  0.48333503492E+02  0.00000000000E+00 0.  1.
         21   -1    0    0  501  503 -0.00000000000E+00 -0.00000000000E+00 -0.72939152788E+03  0.72939152788E+03  0.00000000000E+00 0.  1.
          6    1    1    2  501    0 -0.33750740846E+02  0.25937457352E+02 -0.21188693615E+03  0.27620995259E+03  0.17200000000E+03 0.  1.
         -6    1    1    2    0  502  0.33750740846E+02 -0.25937457352E+02 -0.46917108824E+03  0.50151507878E+03  0.17200000000E+03 0.  1.
<mgrwt>
<rscale>  2 0.17718878E+03</rscale>
<asrwt>0</asrwt>
<pdfrwt beam="1">  1       21 0.12083376E-01 0.17718878E+03</pdfrwt>
<pdfrwt beam="2">  1       21 0.18234788E+00 0.17718878E+03</pdfrwt>
<totfact> 0.10297417E+04</totfact>
</mgrwt>
</event>
<event>
 4    1  0.2417478E-001  0.2059996E+03  0.7546771E-02  0.1144774E+00
         21   -1    0    0  501  502  0.00000000000E+00  0.00000000000E+00  0.15527497450E+03  0.15527497450E+03  0.00000000000E+00 0. -1.
         21   -1    0    0  502  503 -0.00000000000E+00 -0.00000000000E+00 -0.28303754417E+03  0.28303754417E+03  0.00000000000E+00 0.  1.
          6    1    1    2  501    0 -0.73015300850E+02  0.86721412981E+02 -0.23220730941E+02  0.20730422083E+03  0.17200000000E+03 0. -1.
         -6    1    1    2    0  503  0.73015300850E+02 -0.86721412981E+02 -0.10454183873E+03  0.23100829784E+03  0.17200000000E+03 0.  1.
<mgrwt>
<rscale>  2 0.20599961E+03</rscale>
<asrwt>0</asrwt>
<pdfrwt beam="1">  1       21 0.38818744E-01 0.20599961E+03</pdfrwt>
<pdfrwt beam="2">  1       21 0.70759385E-01 0.20599961E+03</pdfrwt>
<totfact> 0.11474094E+04</totfact>
</mgrwt>
</event>
<event>
 4    1  0.2417478E-001  0.1817797E+03  0.7546771E-02  0.1166092E+00
         21   -1    0    0  501  502  0.00000000000E+00  0.00000000000E+00  0.58468403057E+03  0.58468403057E+03  0.00000000000E+00 0.  1.
         21   -1    0    0  502  503 -0.00000000000E+00 -0.00000000000E+00 -0.61524459856E+02  0.61524459856E+02  0.00000000000E+00 0.  1.
          6    1    1    2  501    0 -0.19397999605E+02  0.55530077397E+02  0.35376909357E+03  0.39773916509E+03  0.17200000000E+03 0.  1.
         -6    1    1    2    0  503  0.19397999605E+02 -0.55530077397E+02  0.16939047715E+03  0.24846932534E+03  0.17200000000E+03 0.  1.
<mgrwt>
<rscale>  2 0.18177973E+03</rscale>
<asrwt>0</asrwt>
<pdfrwt beam="1">  1       21 0.14617099E+00 0.18177973E+03</pdfrwt>
<pdfrwt beam="2">  1       21 0.15381117E-01 0.18177973E+03</pdfrwt>
<totfact> 0.12083502E+04</totfact>
</mgrwt>
</event>
<event>
 4    1  0.2417478E-001  0.3782025E+03  0.7546771E-02  0.1051600E+00
         21   -1    0    0  501  502  0.00000000000E+00  0.00000000000E+00  0.85864826535E+02  0.85864826535E+02  0.00000000000E+00 0.  1.
         21   -1    0    0  502  503 -0.00000000000E+00 -0.00000000000E+00 -0.20047930428E+04  0.20047930428E+04  0.00000000000E+00 0. -1.
          6    1    1    2  501    0 -0.28428552192E+03  0.18065123194E+03 -0.52964323957E+03  0.65081417225E+03  0.17200000000E+03 0.  1.
         -6    1    1    2    0  503  0.28428552192E+03 -0.18065123194E+03 -0.13892849767E+04  0.14398436971E+04  0.17200000000E+03 0. -1.
<mgrwt>
<rscale>  2 0.37820249E+03</rscale>
<asrwt>0</asrwt>
<pdfrwt beam="1">  1       21 0.21466207E-01 0.37820249E+03</pdfrwt>
<pdfrwt beam="2">  1       21 0.50119826E+00 0.37820249E+03</pdfrwt>
<totfact> 0.29225681E+01</totfact>
</mgrwt>
</event>
<event>
 4    1  0.2417478E-001  0.2236041E+03  0.7546771E-02  0.1131224E+00
         21   -1    0    0  503  502  0.00000000000E+00  0.00000000000E+00  0.74181005527E+03  0.74181005527E+03  0.00000000000E+00 0.  1.
         21   -1    0    0  501  503 -0.00000000000E+00 -0.00000000000E+00 -0.73125135101E+02  0.73125135101E+02  0.00000000000E+00 0.  1.
          6    1    1    2  501    0  0.77549598128E+02 -0.12000363049E+03  0.22034084794E+03  0.31392499227E+03  0.17200000000E+03 0.  1.
         -6    1    1    2    0  502 -0.77549598128E+02  0.12000363049E+03  0.44834407223E+03  0.50101019810E+03  0.17200000000E+03 0.  1.
<mgrwt>
<rscale>  2 0.22360414E+03</rscale>
<asrwt>0</asrwt>
<pdfrwt beam="1">  1       21 0.18545249E+00 0.22360414E+03</pdfrwt>
<pdfrwt beam="2">  1       21 0.18281286E-01 0.22360414E+03</pdfrwt>
<totfact> 0.44401046E+03</totfact>
</mgrwt>
</event>
<event>
 4    1  0.2417478E-001  0.1990112E+03  0.7546771E-02  0.1150576E+00
         21   -1    0    0  503  502  0.00000000000E+00  0.00000000000E+00  0.23854940190E+03  0.23854940190E+03  0.00000000000E+00 0.  1.
         21   -1    0    0  501  503 -0.00000000000E+00 -0.00000000000E+00 -0.18021400556E+03  0.18021400556E+03  0.00000000000E+00 0.  1.
          6    1    1    2  501    0 -0.79425614827E+02 -0.60934782387E+02 -0.29581298120E+02  0.20119773655E+03  0.17200000000E+03 0.  1.
         -6    1    1    2    0  502  0.79425614827E+02  0.60934782387E+02  0.87916694457E+02  0.21756567091E+03  0.17200000000E+03 0.  1.
<mgrwt>
<rscale>  2 0.19901125E+03</rscale>
<asrwt>0</asrwt>
<pdfrwt beam="1">  1       21 0.59637350E-01 0.19901125E+03</pdfrwt>
<pdfrwt beam="2">  1       21 0.45053502E-01 0.19901125E+03</pdfrwt>
<totfact> 0.12357043E+04</totfact>
</mgrwt>
</event>
<event>
 4    1  0.2417478E-001  0.1788982E+03  0.7546771E-02  0.1168874E+00
         21   -1    0    0  503  502  0.00000000000E+00  0.00000000000E+00  0.68043263484E+03  0.68043263484E+03  0.00000000000E+00 0.  1.
         21   -1    0    0  501  503 -0.00000000000E+00 -0.00000000000E+00 -0.54171291144E+02  0.54171291144E+02  0.00000000000E+00 0.  1.
          6    1    1    2  501    0 -0.11390221141E+02 -0.47862458531E+02  0.17982245817E+03  0.25365462451E+03  0.17200000000E+03 0. -1.
         -6    1    1    2    0  502  0.11390221141E+02  0.47862458531E+02  0.44643888553E+03  0.48094930147E+03  0.17200000000E+03 0. -1.
<mgrwt>
<rscale>  2 0.17889816E+03</rscale>
<asrwt>0</asrwt>
<pdfrwt beam="1">  1       21 0.17010813E+00 0.17889816E+03</pdfrwt>
<pdfrwt beam="2">  1       21 0.13542825E-01 0.17889816E+03</pdfrwt>
<totfact> 0.10168739E+04</totfact>
</mgrwt>
</event>
<event>
 4    1  0.2417478E-001  0.2977317E+03  0.7546771E-02  0.1086380E+00
         21   -1    0    0  503  502  0.00000000000E+00  0.00000000000E+00  0.33803924946E+03  0.33803924946E+03  0.00000000000E+00 0. -1.
         21   -1    0    0  501  503 -0.00000000000E+00 -0.00000000000E+00 -0.47494822509E+03  0.47494822509E+03  0.00000000000E+00 0.  1.
          6    1    1    2  501    0 -0.23897919760E+03  0.44148684013E+02 -0.34049443367E+03  0.45230589488E+03  0.17200000000E+03 0.  1.
         -6    1    1    2    0  502  0.23897919760E+03 -0.44148684013E+02  0.20358545804E+03  0.36068157967E+03  0.17200000000E+03 0. -1.
<mgrwt>
<rscale>  2 0.29773170E+03</rscale>
<asrwt>0</asrwt>
<pdfrwt beam="1">  1       21 0.84509813E-01 0.29773170E+03</pdfrwt>
<pdfrwt beam="2">  1       21 0.11873706E+00 0.29773170E+03</pdfrwt>
<totfact> 0.60046361E+02</totfact>
</mgrwt>
</event>
<event>
 4    1  0.2417478E-001  0.2743083E+03  0.7546771E-02  0.1098839E+00
         21   -1    0    0  501  502  0.00000000000E+00  0.00000000000E+00  0.64193317205E+03  0.64193317205E+03  0.00000000000E+00 0. -1.
         21   -1    0    0  502  503 -0.00000000000E+00 -0.00000000000E+00 -0.13215798546E+03  0.13215798546E+03  0.00000000000E+00 0.  1.
          6    1    1    2  501    0 -0.61699300323E+01 -0.21359533083E+03  0.38502889698E+03  0.47274970640E+03  0.17200000000E+03 0. -1.
         -6    1    1    2    0  503  0.61699300323E+01  0.21359533083E+03  0.12474628961E+03  0.30134145112E+03  0.17200000000E+03 0.  1.
<mgrwt>
<rscale>  2 0.27430828E+03</rscale>
<asrwt>0</asrwt>
<pdfrwt beam="1">  1       21 0.16048328E+00 0.27430828E+03</pdfrwt>
<pdfrwt beam="2">  1       21 0.33039498E-01 0.27430828E+03</pdfrwt>
<totfact> 0.20589669E+03</totfact>
</mgrwt>
</event>
<event>
 4    1  0.2417478E-001  0.2056607E+03  0.7546771E-02  0.1145049E+00
         21   -1    0    0  503  502  0.00000000000E+00  0.00000000000E+00  0.34870027048E+03  0.34870027048E+03  0.00000000000E+00 0. -1.
         21   -1    0    0  501  503 -0.00000000000E+00 -0.00000000000E+00 -0.12455550898E+03  0.12455550898E+03  0.00000000000E+00 0. -1.
          6    1    1    2  501    0 -0.10453017016E+03  0.42258404892E+02  0.73799804150E+02  0.21850112208E+03  0.17200000000E+03 0. -1.
         -6    1    1    2    0  502  0.10453017016E+03 -0.42258404892E+02  0.15034495734E+03  0.25475465738E+03  0.17200000000E+03 0. -1.
<mgrwt>
<rscale>  2 0.20566071E+03</rscale>
<asrwt>0</asrwt>
<pdfrwt beam="1">  1       21 0.87175066E-01 0.20566071E+03</pdfrwt>
<pdfrwt beam="2">  1       21 0.31138878E-01 0.20566071E+03</pdfrwt>
<totfact> 0.11105232E+04</totfact>
</mgrwt>
</event>
<event>
 4    1  0.2417478E-001  0.2135823E+03  0.7546771E-02  0.1138760E+00
         21   -1    0    0  501  502  0.00000000000E+00  0.00000000000E+00  0.10073667406E+03  0.10073667406E+03  0.00000000000E+00 0. -1.
         21   -1    0    0  502  503 -0.00000000000E+00 -0.00000000000E+00 -0.53559061689E+03  0.53559061689E+03  0.00000000000E+00 0. -1.
          6    1    1    2  501    0 -0.53120929898E+02 -0.11494156497E+03 -0.92365113547E+02  0.23269875537E+03  0.17200000000E+03 0. -1.
         -6    1    1    2    0  503  0.53120929898E+02  0.11494156497E+03 -0.34248882928E+03  0.40362853558E+03  0.17200000000E+03 0. -1.
<mgrwt>
<rscale>  2 0.21358229E+03</rscale>
<asrwt>0</asrwt>
<pdfrwt beam="1">  1       21 0.25184169E-01 0.21358229E+03</pdfrwt>
<pdfrwt beam="2">  1       21 0.13389765E+00 0.21358229E+03</pdfrwt>
<totfact> 0.58935671E+03</totfact>
</mgrwt>
</event>
<event>
 4    1  0.2417478E-001  0.2385220E+03  0.7546771E-02  0.1120781E+00
         21   -1    0    0  503  502  0.00000000000E+00  0.00000000000E+00  0.34400561616E+03  0.34400561616E+03  0.00000000000E+00 0. -1.
         21   -1    0    0  501  503 -0.00000000000E+00 -0.00000000000E+00 -0.17317776843E+03  0.17317776843E+03  0.00000000000E+00 0.  1.
          6    1    1    2  501    0  0.60357656082E+02 -0.15383666548E+03  0.14027485638E+03  0.27671248911E+03  0.17200000000E+03 0.  1.
         -6    1    1    2    0  502 -0.60357656082E+02  0.15383666548E+03  0.30552991341E+02  0.24047089548E+03  0.17200000000E+03 0. -1.
<mgrwt>
<rscale>  2 0.23852205E+03</rscale>
<asrwt>0</asrwt>
<pdfrwt beam="1">  1       21 0.86001403E-01 0.23852205E+03</pdfrwt>
<pdfrwt beam="2">  1       21 0.43294443E-01 0.23852205E+03</pdfrwt>
<totfact> 0.57915766E+03</totfact>
</mgrwt>
</event>
<event>
 4    1  0.2417478E-001  0.1927289E+03  0.7546771E-02  0.1156023E+00
         21   -1    0    0  501  502  0.00000000000E+00  0.00000000000E+00  0.14307828961E+04  0.14307828961E+04  0.00000000000E+00 0. -1.
         21   -1    0    0  502  503 -0.00000000000E+00 -0.00000000000E+00 -0.27299894543E+02  0.27299894543E+02  0.00000000000E+00 0.  1.
          6    1    1    2  501    0  0.57809443437E+02 -0.64949829769E+02  0.86320005391E+03  0.88445392486E+03  0.17200000000E+03 0. -1.
         -6    1    1    2    0  503 -0.57809443437E+02  0.64949829769E+02  0.54028294765E+03  0.57362886578E+03  0.17200000000E+03 0.  1.
<mgrwt>
<rscale>  2 0.19272886E+03</rscale>
<asrwt>0</asrwt>
<pdfrwt beam="1">  1       21 0.35769547E+00 0.19272886E+03</pdfrwt>
<pdfrwt beam="2">  1       21 0.68249785E-02 0.19272886E+03</pdfrwt>
<totfact> 0.24876459E+03</totfact>
</mgrwt>
</event>
<event>
 4    1  0.2417478E-001  0.1895779E+03  0.7546771E-02  0.1158843E+00
         21   -1    0    0  503  502  0.00000000000E+00  0.00000000000E+00  0.40303418318E+03  0.40303418318E+03  0.00000000000E+00 0.  1.
         21   -1    0    0  501  503 -0.00000000000E+00 -0.00000000000E+00 -0.10358863382E+03  0.10358863382E+03  0.00000000000E+00 0.  1.
          6    1    1    2  501    0 -0.77860503953E+02  0.17131951028E+02  0.55226264560E+02  0.19745810219E+03  0.17200000000E+03 0.  1.
         -6    1    1    2    0  502  0.77860503953E+02 -0.17131951028E+02  0.24421928479E+03  0.30916471482E+03  0.17200000000E+03 0.  1.
<mgrwt>
<rscale>  2 0.18957785E+03</rscale>
<asrwt>0</asrwt>
<pdfrwt beam="1">  1       21 0.10075854E+00 0.18957785E+03</pdfrwt>
<pdfrwt beam="2">  1       21 0.25897159E-01 0.18957785E+03</pdfrwt>
<totfact> 0.11441291E+04</totfact>
</mgrwt>
</event>
<event>
 4    1  0.2417478E-001  0.2116362E+03  0.7546771E-02  0.1140277E+00
         21   -1    0    0  503  502  0.00000000000E+00  0.00000000000E+00  0.12556801200E+03  0.12556801200E+03  0.00000000000E+00 0. -1.
         21   -1    0    0  501  503 -0.00000000000E+00 -0.00000000000E+00 -0.49106569966E+03  0.49106569966E+03  0.00000000000E+00 0. -1.
          6    1    1    2  501    0 -0.12142056403E+03 -0.21515490852E+02 -0.21470977849E+02  0.21272252491E+03  0.17200000000E+03 0. -1.
         -6    1    1    2    0  502  0.12142056403E+03  0.21515490852E+02 -0.34402670981E+03  0.40391118675E+03  0.17200000000E+03 0. -1.
<mgrwt>
<rscale>  2 0.21163617E+03</rscale>
<asrwt>0</asrwt>
<pdfrwt beam="1">  1       21 0.31392003E-01 0.21163617E+03</pdfrwt>
<pdfrwt beam="2">  1       21 0.12276642E+00 0.21163617E+03</pdfrwt>
<totfact> 0.47931322E+03</totfact>
</mgrwt>
</event>
<event>
 4    1  0.2417478E-001  0.2057203E+03  0.7546771E-02  0.1145001E+00
         21   -1    0    0  503  502  0.00000000000E+00  0.00000000000E+00  0.73191132239E+02  0.73191132239E+02  0.00000000000E+00 0. -1.
         21   -1    0    0  501  503 -0.00000000000E+00 -0.00000000000E+00 -0.58406887914E+03  0.58406887914E+03  0.00000000000E+00 0. -1.
          6    1    1    2  501    0  0.10447288225E+03  0.42687792963E+02 -0.22256260882E+03  0.30307580840E+03  0.17200000000E+03 0. -1.
         -6    1    1    2    0  502 -0.10447288225E+03 -0.42687792963E+02 -0.28831513808E+03  0.35418420298E+03  0.17200000000E+03 0. -1.
<mgrwt>
<rscale>  2 0.20572027E+03</rscale>
<asrwt>0</asrwt>
<pdfrwt beam="1">  1       21 0.18297783E-01 0.20572027E+03</pdfrwt>
<pdfrwt beam="2">  1       21 0.14601722E+00 0.20572027E+03</pdfrwt>
<totfact> 0.86494949E+03</totfact>
</mgrwt>
</event>
<event>
 4    1  0.2417478E-001  0.1844216E+03  0.7546771E-02  0.1163591E+00
         21   -1    0    0  503  502  0.00000000000E+00  0.00000000000E+00  0.50452854003E+03  0.50452854003E+03  0.00000000000E+00 0.  1.
         21   -1    0    0  501  503 -0.00000000000E+00 -0.00000000000E+00 -0.84380706365E+02  0.84380706365E+02  0.00000000000E+00 0.  1.
          6    1    1    2  501    0  0.66264673491E+02  0.60261529181E+01  0.78029494093E+02  0.20024965273E+03  0.17200000000E+03 0.  1.
         -6    1    1    2    0  502 -0.66264673491E+02 -0.60261529181E+01  0.34211833957E+03  0.38865959366E+03  0.17200000000E+03 0.  1.
<mgrwt>
<rscale>  2 0.18442159E+03</rscale>
<asrwt>0</asrwt>
<pdfrwt beam="1">  1       21 0.12613213E+00 0.18442159E+03</pdfrwt>
<pdfrwt beam="2">  1       21 0.21095178E-01 0.18442159E+03</pdfrwt>
<totfact> 0.98014546E+03</totfact>
</mgrwt>
</event>
<event>
 4    1  0.2417478E-001  0.2319150E+03  0.7546771E-02  0.1125299E+00
         21   -1    0    0  503  502  0.00000000000E+00  0.00000000000E+00  0.17008062568E+03  0.17008062568E+03  0.00000000000E+00 0.  1.
         21   -1    0    0  501  503 -0.00000000000E+00 -0.00000000000E+00 -0.34241157708E+03  0.34241157708E+03  0.00000000000E+00 0. -1.
          6    1    1    2  501    0  0.12500159516E+03 -0.92602309605E+02 -0.15702225732E+03  0.28007244747E+03  0.17200000000E+03 0.  1.
         -6    1    1    2    0  502 -0.12500159516E+03  0.92602309605E+02 -0.15308694080E+02  0.23241975529E+03  0.17200000000E+03 0.  1.
<mgrwt>
<rscale>  2 0.23191504E+03</rscale>
<asrwt>0</asrwt>
<pdfrwt beam="1">  1       21 0.42520157E-01 0.23191504E+03</pdfrwt>
<pdfrwt beam="2">  1       21 0.85602893E-01 0.23191504E+03</pdfrwt>
<totfact> 0.61002928E+03</totfact>
</mgrwt>
</event>
<event>
 4    1  0.2417478E-001  0.2412261E+03  0.7546771E-02  0.1118979E+00
         21   -1    0    0  501  502  0.00000000000E+00  0.00000000000E+00  0.21587649574E+03  0.21587649574E+03  0.00000000000E+00 0.  1.
         21   -1    0    0  502  503 -0.00000000000E+00 -0.00000000000E+00 -0.43533631708E+03  0.43533631708E+03  0.00000000000E+00 0. -1.
          6    1    1    2  501    0 -0.58455713979E+01 -0.16903218147E+03  0.91203223952E+02  0.25789159958E+03  0.17200000000E+03 0.  1.
         -6    1    1    2    0  503  0.58455713979E+01  0.16903218147E+03 -0.31066304529E+03  0.39332121324E+03  0.17200000000E+03 0. -1.
<mgrwt>
<rscale>  2 0.24122614E+03</rscale>
<asrwt>0</asrwt>
<pdfrwt beam="1">  1       21 0.53969124E-01 0.24122614E+03</pdfrwt>
<pdfrwt beam="2">  1       21 0.10883408E+00 0.24122614E+03</pdfrwt>
<totfact> 0.20892862E+03</totfact>
</mgrwt>
</event>
<event>
 4    1  0.2417478E-001  0.1850937E+03  0.7546771E-02  0.1162962E+00
         21   -1    0    0  503  502  0.00000000000E+00  0.00000000000E+00  0.57325875827E+02  0.57325875827E+02  0.00000000000E+00 0.  1.
         21   -1    0    0  501  503 -0.00000000000E+00 -0.00000000000E+00 -0.65499216453E+03  0.65499216453E+03  0.00000000000E+00 0.  1.
          6    1    1    2  501    0  0.42256419884E+01 -0.68248214680E+02 -0.40423248382E+03  0.44459371997E+03  0.17200000000E+03 0.  1.
         -6    1    1    2    0  502 -0.42256419884E+01  0.68248214680E+02 -0.19343380488E+03  0.26772432039E+03  0.17200000000E+03 0.  1.
<mgrwt>
<rscale>  2 0.18509369E+03</rscale>
<asrwt>0</asrwt>
<pdfrwt beam="1">  1       21 0.14331469E-01 0.18509369E+03</pdfrwt>
<pdfrwt beam="2">  1       21 0.16374804E+00 0.18509369E+03</pdfrwt>
<totfact> 0.10134491E+04</totfact>
</mgrwt>
</event>
<event>
 4    1  0.2417478E-001  0.2094701E+03  0.7546771E-02  0.1141986E+00
         21   -1    0    0  503  502  0.00000000000E+00  0.00000000000E+00  0.15531254964E+04  0.15531254964E+04  0.00000000000E+00 0.  1.
         21   -1    0    0  501  503 -0.00000000000E+00 -0.00000000000E+00 -0.69144263700E+02  0.69144263700E+02  0.00000000000E+00 0. -1.
          6    1    1    2  501    0  0.11490849318E+03  0.33011257736E+02  0.11819880913E+03  0.24051749089E+03  0.17200000000E+03 0. -1.
         -6    1    1    2    0  502 -0.11490849318E+03 -0.33011257736E+02  0.13657824236E+04  0.13817522692E+04  0.17200000000E+03 0.  1.
<mgrwt>
<rscale>  2 0.20947006E+03</rscale>
<asrwt>0</asrwt>
<pdfrwt beam="1">  1       21 0.38828126E+00 0.20947006E+03</pdfrwt>
<pdfrwt beam="2">  1       21 0.17286071E-01 0.20947006E+03</pdfrwt>
<totfact> 0.30311166E+02</totfact>
</mgrwt>
</event>
<event>
 4    1  0.2417478E-001  0.2306964E+03  0.7546771E-02  0.1126151E+00
         21   -1    0    0  503  502  0.00000000000E+00  0.00000000000E+00  0.20767614066E+03  0.20767614066E+03  0.00000000000E+00 0.  1.
         21   -1    0    0  501  503 -0.00000000000E+00 -0.00000000000E+00 -0.25926762010E+03  0.25926762010E+03  0.00000000000E+00 0. -1.
          6    1    1    2  501    0  0.13405062248E+03 -0.75281175143E+02 -0.50906927066E+02  0.23624635434E+03  0.17200000000E+03 0.  1.
         -6    1    1    2    0  502 -0.13405062248E+03  0.75281175143E+02 -0.68455236819E+00  0.23069740642E+03  0.17200000000E+03 0. -1.
<mgrwt>
<rscale>  2 0.23069639E+03</rscale>
<asrwt>0</asrwt>
<pdfrwt beam="1">  1       21 0.51919035E-01 0.23069639E+03</pdfrwt>
<pdfrwt beam="2">  1       21 0.64816905E-01 0.23069639E+03</pdfrwt>
<totfact> 0.75242143E+03</totfact>
</mgrwt>
</event>
<event>
 4    1  0.2417478E-001  0.1881637E+03  0.7546771E-02  0.1160128E+00
         21   -1    0    0  501  502  0.00000000000E+00  0.00000000000E+00  0.73951134449E+03  0.73951134449E+03  0.00000000000E+00 0.  1.
         21   -1    0    0  502  503 -0.00000000000E+00 -0.00000000000E+00 -0.48624331656E+02  0.48624331656E+02  0.00000000000E+00 0.  1.
          6    1    1    2  501    0 -0.10091813945E+02  0.75629035002E+02  0.29658991064E+03  0.35124232481E+03  0.17200000000E+03 0.  1.
         -6    1    1    2    0  503  0.10091813945E+02 -0.75629035002E+02  0.39429710220E+03  0.43689335134E+03  0.17200000000E+03 0.  1.
<mgrwt>
<rscale>  2 0.18816375E+03</rscale>
<asrwt>0</asrwt>
<pdfrwt beam="1">  1       21 0.18487780E+00 0.18816375E+03</pdfrwt>
<pdfrwt beam="2">  1       21 0.12156085E-01 0.18816375E+03</pdfrwt>
<totfact> 0.97076818E+03</totfact>
</mgrwt>
</event>
<event>
 4    1  0.2417478E-001  0.4646527E+03  0.7546771E-02  0.1023440E+00
         21   -1    0    0  501  502  0.00000000000E+00  0.00000000000E+00  0.10366377024E+04  0.10366377024E+04  0.00000000000E+00 0. -1.
         21   -1    0    0  502  503 -0.00000000000E+00 -0.00000000000E+00 -0.25299160668E+03  0.25299160668E+03  0.00000000000E+00 0.  1.
          6    1    1    2  501    0 -0.34050565245E+03 -0.26528098747E+03  0.12072074941E+03  0.48007874459E+03  0.17200000000E+03 0.  1.
         -6    1    1    2    0  503  0.34050565245E+03  0.26528098747E+03  0.66292534627E+03  0.80955056445E+03  0.17200000000E+03 0. -1.
<mgrwt>
<rscale>  2 0.46465267E+03</rscale>
<asrwt>0</asrwt>
<pdfrwt beam="1">  1       21 0.25915941E+00 0.46465267E+03</pdfrwt>
<pdfrwt beam="2">  1       21 0.63247904E-01 0.46465267E+03</pdfrwt>
<totfact> 0.10561898E+02</totfact>
</mgrwt>
</event>
<event>
 4    1  0.2417478E-001  0.1964579E+03  0.7546771E-02  0.1152762E+00
         21   -1    0    0  503  502  0.00000000000E+00  0.00000000000E+00  0.12936644031E+03  0.12936644031E+03  0.00000000000E+00 0. -1.
         21   -1    0    0  501  503 -0.00000000000E+00 -0.00000000000E+00 -0.35762660644E+03  0.35762660644E+03  0.00000000000E+00 0. -1.
          6    1    1    2  501    0 -0.77862069674E+02  0.54306459434E+02 -0.21326844088E+03  0.28996400002E+03  0.17200000000E+03 0.  1.
         -6    1    1    2    0  502  0.77862069674E+02 -0.54306459434E+02 -0.14991725250E+02  0.19702904673E+03  0.17200000000E+03 0.  1.
<mgrwt>
<rscale>  2 0.19645787E+03</rscale>
<asrwt>0</asrwt>
<pdfrwt beam="1">  1       21 0.32341610E-01 0.19645787E+03</pdfrwt>
<pdfrwt beam="2">  1       21 0.89406651E-01 0.19645787E+03</pdfrwt>
<totfact> 0.97865583E+03</totfact>
</mgrwt>
</event>
<event>
 4    1  0.2417478E-001  0.1873817E+03  0.7546771E-02  0.1160844E+00
         21   -1    0    0  503  502  0.00000000000E+00  0.00000000000E+00  0.18141749646E+03  0.18141749646E+03  0.00000000000E+00 0.  1.
         21   -1    0    0  501  503 -0.00000000000E+00 -0.00000000000E+00 -0.24410840627E+03  0.24410840627E+03  0.00000000000E+00 0.  1.
          6    1    1    2  501    0  0.59068940767E+02  0.45152822490E+02 -0.12818113302E+03  0.22702933732E+03  0.17200000000E+03 0.  1.
         -6    1    1    2    0  502 -0.59068940767E+02 -0.45152822490E+02  0.65490223204E+02  0.19849656540E+03  0.17200000000E+03 0.  1.
<mgrwt>
<rscale>  2 0.18738174E+03</rscale>
<asrwt>0</asrwt>
<pdfrwt beam="1">  1       21 0.45354374E-01 0.18738174E+03</pdfrwt>
<pdfrwt beam="2">  1       21 0.61027101E-01 0.18738174E+03</pdfrwt>
<totfact> 0.11690424E+04</totfact>
</mgrwt>
</event>
<event>
 4    1  0.2417478E-001  0.3641652E+03  0.7546771E-02  0.1056947E+00
         21   -1    0    0  501  502  0.00000000000E+00  0.00000000000E+00  0.71103294577E+03  0.71103294577E+03  0.00000000000E+00 0.  1.
         21   -1    0    0  502  503 -0.00000000000E+00 -0.00000000000E+00 -0.19173927910E+03  0.19173927910E+03  0.00000000000E+00 0. -1.
          6    1    1    2  501    0 -0.26548649086E+03  0.18041401470E+03  0.33417555497E+03  0.49425660852E+03  0.17200000000E+03 0.  1.
         -6    1    1    2    0  503  0.26548649086E+03 -0.18041401470E+03  0.18511811170E+03  0.40851561635E+03  0.17200000000E+03 0. -1.
<mgrwt>
<rscale>  2 0.36416520E+03</rscale>
<asrwt>0</asrwt>
<pdfrwt beam="1">  1       21 0.17775823E+00 0.36416520E+03</pdfrwt>
<pdfrwt beam="2">  1       21 0.47934822E-01 0.36416520E+03</pdfrwt>
<totfact> 0.68254118E+02</totfact>
</mgrwt>
</event>
<event>
 4    1  0.2417478E-001  0.1821128E+03  0.7546771E-02  0.1165774E+00
         21   -1    0    0  503  502  0.00000000000E+00  0.00000000000E+00  0.29817594288E+03  0.29817594288E+03  0.00000000000E+00 0.  1.
         21   -1    0    0  501  503 -0.00000000000E+00 -0.00000000000E+00 -0.11310231171E+03  0.11310231171E+03  0.00000000000E+00 0.  1.
          6    1    1    2  501    0 -0.40995209878E+02  0.43594297070E+02  0.11901957832E+03  0.21755626857E+03  0.17200000000E+03 0.  1.
         -6    1    1    2    0  502  0.40995209878E+02 -0.43594297070E+02  0.66054052850E+02  0.19372198602E+03  0.17200000000E+03 0.  1.
<mgrwt>
<rscale>  2 0.18211279E+03</rscale>
<asrwt>0</asrwt>
<pdfrwt beam="1">  1       21 0.74543984E-01 0.18211279E+03</pdfrwt>
<pdfrwt beam="2">  1       21 0.28275579E-01 0.18211279E+03</pdfrwt>
<totfact> 0.19390846E+04</totfact>
</mgrwt>
</event>
<event>
 4    1  0.2417478E-001  0.1970453E+03  0.7546771E-02  0.1152256E+00
         21   -1    0    0  503  502  0.00000000000E+00  0.00000000000E+00  0.31236387353E+02  0.31236387353E+02  0.00000000000E+00 0. -1.
         21   -1    0    0  501  503 -0.00000000000E+00 -0.00000000000E+00 -0.12478595579E+04  0.12478595579E+04  0.00000000000E+00 0. -1.
          6    1    1    2  501    0 -0.61040486621E+02  0.74275975893E+02 -0.64821799863E+03  0.67750530282E+03  0.17200000000E+03 0. -1.
         -6    1    1    2    0  502  0.61040486621E+02 -0.74275975893E+02 -0.56840517195E+03  0.60159064246E+03  0.17200000000E+03 0. -1.
<mgrwt>
<rscale>  2 0.19704533E+03</rscale>
<asrwt>0</asrwt>
<pdfrwt beam="1">  1       21 0.78090976E-02 0.19704533E+03</pdfrwt>
<pdfrwt beam="2">  1       21 0.31196486E+00 0.19704533E+03</pdfrwt>
<totfact> 0.36256196E+03</totfact>
</mgrwt>
</event>
<event>
 4    1  0.2417478E-001  0.2042442E+03  0.7546771E-02  0.1146207E+00
         21   -1    0    0  501  502  0.00000000000E+00  0.00000000000E+00  0.52043284826E+03  0.52043284826E+03  0.00000000000E+00 0. -1.
         21   -1    0    0  502  503 -0.00000000000E+00 -0.00000000000E+00 -0.82423625652E+02  0.82423625652E+02  0.00000000000E+00 0.  1.
          6    1    1    2  501    0 -0.87521792809E+02  0.66870148593E+02  0.26900443629E+03  0.33775592924E+03  0.17200000000E+03 0. -1.
         -6    1    1    2    0  503  0.87521792809E+02 -0.66870148593E+02  0.16900478631E+03  0.26510054467E+03  0.17200000000E+03 0. -1.
<mgrwt>
<rscale>  2 0.20424417E+03</rscale>
<asrwt>0</asrwt>
<pdfrwt beam="1">  1       21 0.13010820E+00 0.20424417E+03</pdfrwt>
<pdfrwt beam="2">  1       21 0.20605908E-01 0.20424417E+03</pdfrwt>
<totfact> 0.93359696E+03</totfact>
</mgrwt>
</event>
<event>
 4    1  0.2417478E-001  0.1932891E+03  0.7546771E-02  0.1155528E+00
         21   -1    0    0  503  502  0.00000000000E+00  0.00000000000E+00  0.31326639980E+03  0.31326639980E+03  0.00000000000E+00 0. -1.
         21   -1    0    0  501  503 -0.00000000000E+00 -0.00000000000E+00 -0.11931898682E+03  0.11931898682E+03  0.00000000000E+00 0. -1.
          6    1    1    2  501    0 -0.87453697099E+01 -0.87750779674E+02  0.10171334807E+03  0.21841768702E+03  0.17200000000E+03 0. -1.
         -6    1    1    2    0  502  0.87453697099E+01  0.87750779674E+02  0.92234064901E+02  0.21416769960E+03  0.17200000000E+03 0. -1.
<mgrwt>
<rscale>  2 0.19328911E+03</rscale>
<asrwt>0</asrwt>
<pdfrwt beam="1">  1       21 0.78316598E-01 0.19328911E+03</pdfrwt>
<pdfrwt beam="2">  1       21 0.29829747E-01 0.19328911E+03</pdfrwt>
<totfact> 0.15542430E+04</totfact>
</mgrwt>
</event>
<event>
 4    1  0.2417478E-001  0.2015416E+03  0.7546771E-02  0.1148445E+00
         21   -1    0    0  501  502  0.00000000000E+00  0.00000000000E+00  0.87368014589E+02  0.87368014589E+02  0.00000000000E+00 0. -1.
         21   -1    0    0  502  503 -0.00000000000E+00 -0.00000000000E+00 -0.51739399735E+03  0.51739399735E+03  0.00000000000E+00 0. -1.
          6    1    1    2  501    0  0.55271869361E+02  0.89330990065E+02 -0.11871391054E+03  0.23390595949E+03  0.17200000000E+03 0. -1.
         -6    1    1    2    0  503 -0.55271869361E+02 -0.89330990065E+02 -0.31131207222E+03  0.37085605245E+03  0.17200000000E+03 0. -1.
<mgrwt>
<rscale>  2 0.20154157E+03</rscale>
<asrwt>0</asrwt>
<pdfrwt beam="1">  1       21 0.21842004E-01 0.20154157E+03</pdfrwt>
<pdfrwt beam="2">  1       21 0.12934850E+00 0.20154157E+03</pdfrwt>
<totfact> 0.85087567E+03</totfact>
</mgrwt>
</event>
<event>
 4    1  0.2417478E-001  0.1740596E+03  0.7546771E-02  0.1173679E+00
         21   -1    0    0  503  502  0.00000000000E+00  0.00000000000E+00  0.22863294054E+03  0.22863294054E+03  0.00000000000E+00 0. -1.
         21   -1    0    0  501  503 -0.00000000000E+00 -0.00000000000E+00 -0.13990103798E+03  0.13990103798E+03  0.00000000000E+00 0. -1.
          6    1    1    2  501    0 -0.26410369595E+02 -0.39024718794E+01  0.20197479315E+01  0.17407129657E+03  0.17200000000E+03 0. -1.
         -6    1    1    2    0  502  0.26410369595E+02  0.39024718794E+01  0.86712154631E+02  0.19446268195E+03  0.17200000000E+03 0. -1.
<mgrwt>
<rscale>  2 0.17405958E+03</rscale>
<asrwt>0</asrwt>
<pdfrwt beam="1">  1       21 0.57158235E-01 0.17405958E+03</pdfrwt>
<pdfrwt beam="2">  1       21 0.34975260E-01 0.17405958E+03</pdfrwt>
<totfact> 0.22901008E+04</totfact>
</mgrwt>
</event>
<event>
 4    1  0.2417478E-001  0.1925794E+03  0.7546771E-02  0.1156155E+00
         21   -1    0    0  503  502  0.00000000000E+00  0.00000000000E+00  0.86699754308E+02  0.86699754308E+02  0.00000000000E+00 0.  1.
         21   -1    0    0  501  503 -0.00000000000E+00 -0.00000000000E+00 -0.45873322759E+03  0.45873322759E+03  0.00000000000E+00 0. -1.
          6    1    1    2  501    0 -0.32357998176E+02 -0.80347962417E+02 -0.25687859667E+03  0.32105053891E+03  0.17200000000E+03 0. -1.
         -6    1    1    2    0  502  0.32357998176E+02  0.80347962417E+02 -0.11515487661E+03  0.22438244298E+03  0.17200000000E+03 0.  1.
<mgrwt>
<rscale>  2 0.19257943E+03</rscale>
<asrwt>0</asrwt>
<pdfrwt beam="1">  1       21 0.21674939E-01 0.19257943E+03</pdfrwt>
<pdfrwt beam="2">  1       21 0.11468331E+00 0.19257943E+03</pdfrwt>
<totfact> 0.11718193E+04</totfact>
</mgrwt>
</event>
<event>
 4    1  0.2417478E-001  0.3197981E+03  0.7546771E-02  0.1075742E+00
         21   -1    0    0  503  502  0.00000000000E+00  0.00000000000E+00  0.48375708422E+03  0.48375708422E+03  0.00000000000E+00 0. -1.
         21   -1    0    0  501  503 -0.00000000000E+00 -0.00000000000E+00 -0.28156112232E+03  0.28156112232E+03  0.00000000000E+00 0.  1.
          6    1    1    2  501    0 -0.81319442620E+02  0.25704856824E+03 -0.89907014530E+02  0.33219586006E+03  0.17200000000E+03 0. -1.
         -6    1    1    2    0  502  0.81319442620E+02 -0.25704856824E+03  0.29210297643E+03  0.43312234648E+03  0.17200000000E+03 0.  1.
<mgrwt>
<rscale>  2 0.31979809E+03</rscale>
<asrwt>0</asrwt>
<pdfrwt beam="1">  1       21 0.12093927E+00 0.31979809E+03</pdfrwt>
<pdfrwt beam="2">  1       21 0.70390281E-01 0.31979809E+03</pdfrwt>
<totfact> 0.85615314E+02</totfact>
</mgrwt>
</event>
<event>
 4    1  0.2417478E-001  0.1768934E+03  0.7546771E-02  0.1170844E+00
         21   -1    0    0  501  502  0.00000000000E+00  0.00000000000E+00  0.56103892014E+02  0.56103892014E+02  0.00000000000E+00 0.  1.
         21   -1    0    0  502  503 -0.00000000000E+00 -0.00000000000E+00 -0.10328523486E+04  0.10328523486E+04  0.00000000000E+00 0.  1.
          6    1    1    2  501    0 -0.35117553150E+02  0.21772689304E+02 -0.11909045738E+03  0.21324593684E+03  0.17200000000E+03 0.  1.
         -6    1    1    2    0  503  0.35117553150E+02 -0.21772689304E+02 -0.85765799920E+03  0.87571030377E+03  0.17200000000E+03 0.  1.
<mgrwt>
<rscale>  2 0.17689345E+03</rscale>
<asrwt>0</asrwt>
<pdfrwt beam="1">  1       21 0.14025973E-01 0.17689345E+03</pdfrwt>
<pdfrwt beam="2">  1       21 0.25821308E+00 0.17689345E+03</pdfrwt>
<totfact> 0.26870326E+03</totfact>
</mgrwt>
</event>
<event>
 4    1  0.2417478E-001  0.2185716E+03  0.7546771E-02  0.1134952E+00
         21   -1    0    0  501  502  0.00000000000E+00  0.00000000000E+00  0.13872836249E+03  0.13872836249E+03  0.00000000000E+00 0. -1.
         21   -1    0    0  502  503 -0.00000000000E+00 -0.00000000000E+00 -0.48073659641E+03  0.48073659641E+03  0.00000000000E+00 0.  1.
          6    1    1    2  501    0 -0.69831265753E+02 -0.11538258806E+03 -0.60394071878E+01  0.21865502908E+03  0.17200000000E+03 0. -1.
         -6    1    1    2    0  503  0.69831265753E+02  0.11538258806E+03 -0.33596882673E+03  0.40080992982E+03  0.17200000000E+03 0.  1.
<mgrwt>
<rscale>  2 0.21857161E+03</rscale>
<asrwt>0</asrwt>
<pdfrwt beam="1">  1       21 0.34682091E-01 0.21857161E+03</pdfrwt>
<pdfrwt beam="2">  1       21 0.12018415E+00 0.21857161E+03</pdfrwt>
<totfact> 0.41287757E+03</totfact>
</mgrwt>
</event>
<event>
 4    1  0.2417478E-001  0.2052540E+03  0.7546771E-02  0.1145380E+00
         21   -1    0    0  503  502  0.00000000000E+00  0.00000000000E+00  0.56339644321E+03  0.56339644321E+03  0.00000000000E+00 0. -1.
         21   -1    0    0  501  503 -0.00000000000E+00 -0.00000000000E+00 -0.97046795569E+02  0.97046795569E+02  0.00000000000E+00 0.  1.
          6    1    1    2  501    0 -0.98424520878E+02 -0.53458428180E+02  0.74987604875E+02  0.21852306683E+03  0.17200000000E+03 0.  1.
         -6    1    1    2    0  502  0.98424520878E+02  0.53458428180E+02  0.39136204277E+03  0.44192017195E+03  0.17200000000E+03 0. -1.
<mgrwt>
<rscale>  2 0.20525396E+03</rscale>
<asrwt>0</asrwt>
<pdfrwt beam="1">  1       21 0.14084910E+00 0.20525396E+03</pdfrwt>
<pdfrwt beam="2">  1       21 0.24261700E-01 0.20525396E+03</pdfrwt>
<totfact> 0.55922584E+03</totfact>
</mgrwt>
</event>
<event>
 4    1  0.2417478E-001  0.2459320E+03  0.7546771E-02  0.1115903E+00
         21   -1    0    0  503  502  0.00000000000E+00  0.00000000000E+00  0.14007484540E+03  0.14007484540E+03  0.00000000000E+00 0.  1.
         21   -1    0    0  501  503 -0.00000000000E+00 -0.00000000000E+00 -0.43417988212E+03  0.43417988212E+03  0.00000000000E+00 0. -1.
          6    1    1    2  501    0 -0.14775110538E+03  0.95226960060E+02 -0.16836616504E+03  0.29804316565E+03  0.17200000000E+03 0. -1.
         -6    1    1    2    0  502  0.14775110538E+03 -0.95226960060E+02 -0.12573887168E+03  0.27621156187E+03  0.17200000000E+03 0. -1.
<mgrwt>
<rscale>  2 0.24593203E+03</rscale>
<asrwt>0</asrwt>
<pdfrwt beam="1">  1       21 0.35018712E-01 0.24593203E+03</pdfrwt>
<pdfrwt beam="2">  1       21 0.10854497E+00 0.24593203E+03</pdfrwt>
<totfact> 0.51015874E+03</totfact>
</mgrwt>
</event>
<event>
 4    1  0.2417478E-001  0.3218546E+03  0.7546771E-02  0.1074799E+00
         21   -1    0    0  501  502  0.00000000000E+00  0.00000000000E+00  0.30563073592E+03  0.30563073592E+03  0.00000000000E+00 0. -1.
         21   -1    0    0  502  503 -0.00000000000E+00 -0.00000000000E+00 -0.49623626688E+03  0.49623626688E+03  0.00000000000E+00 0.  1.
          6    1    1    2  501    0 -0.45163702514E+02 -0.26826594640E+03  0.13042644992E+03  0.34727717584E+03  0.17200000000E+03 0. -1.
         -6    1    1    2    0  503  0.45163702514E+02  0.26826594640E+03 -0.32103198088E+03  0.45458982696E+03  0.17200000000E+03 0.  1.
<mgrwt>
<rscale>  2 0.32185459E+03</rscale>
<asrwt>0</asrwt>
<pdfrwt beam="1">  1       21 0.76407685E-01 0.32185459E+03</pdfrwt>
<pdfrwt beam="2">  1       21 0.12405907E+00 0.32185459E+03</pdfrwt>
<totfact> 0.66634105E+02</totfact>
</mgrwt>
</event>
<event>
 4    1  0.2417478E-001  0.2084551E+03  0.7546771E-02  0.1142795E+00
         21   -1    0    0  501  502  0.00000000000E+00  0.00000000000E+00  0.47178486268E+02  0.47178486268E+02  0.00000000000E+00 0.  1.
         21   -1    0    0  502  503 -0.00000000000E+00 -0.00000000000E+00 -0.92213912943E+03  0.92213912943E+03  0.00000000000E+00 0.  1.
          6    1    1    2  501    0  0.97931707837E+02  0.65413259281E+02 -0.42078667636E+03  0.46959018398E+03  0.17200000000E+03 0.  1.
         -6    1    1    2    0  503 -0.97931707837E+02 -0.65413259281E+02 -0.45417396680E+03  0.49972743171E+03  0.17200000000E+03 0.  1.
<mgrwt>
<rscale>  2 0.20845506E+03</rscale>
<asrwt>0</asrwt>
<pdfrwt beam="1">  1       21 0.11794622E-01 0.20845506E+03</pdfrwt>
<pdfrwt beam="2">  1       21 0.23053478E+00 0.20845506E+03</pdfrwt>
<totfact> 0.51742581E+03</totfact>
</mgrwt>
</event>
<event>
 4    1  0.2417478E-001  0.1816868E+03  0.7546771E-02  0.1166180E+00
         21   -1    0    0  503  502  0.00000000000E+00  0.00000000000E+00  0.93189640869E+02  0.93189640869E+02  0.00000000000E+00 0.  1.
         21   -1    0    0  501  503 -0.00000000000E+00 -0.00000000000E+00 -0.71123631118E+03  0.71123631118E+03  0.00000000000E+00 0.  1.
          6    1    1    2  501    0 -0.55671751257E+02  0.18076335485E+02 -0.59398741701E+03  0.62115308045E+03  0.17200000000E+03 0.  1.
         -6    1    1    2    0  502  0.55671751257E+02 -0.18076335485E+02 -0.24059253300E+02  0.18327287159E+03  0.17200000000E+03 0.  1.
<mgrwt>
<rscale>  2 0.18168681E+03</rscale>
<asrwt>0</asrwt>
<pdfrwt beam="1">  1       21 0.23297410E-01 0.18168681E+03</pdfrwt>
<pdfrwt beam="2">  1       21 0.17780908E+00 0.18168681E+03</pdfrwt>
<totfact> 0.32968197E+03</totfact>
</mgrwt>
</event>
<event>
 4    1  0.2417478E-001  0.2237986E+03  0.7546771E-02  0.1131082E+00
         21   -1    0    0  503  502  0.00000000000E+00  0.00000000000E+00  0.62248059245E+02  0.62248059245E+02  0.00000000000E+00 0. -1.
         21   -1    0    0  501  503 -0.00000000000E+00 -0.00000000000E+00 -0.92717219818E+03  0.92717219818E+03  0.00000000000E+00 0. -1.
          6    1    1    2  501    0  0.14318435066E+03 -0.20112888427E+00 -0.61232341390E+03  0.65193999872E+03  0.17200000000E+03 0. -1.
         -6    1    1    2    0  502 -0.14318435066E+03  0.20112888427E+00 -0.25260072504E+03  0.33748025871E+03  0.17200000000E+03 0. -1.
<mgrwt>
<rscale>  2 0.22379857E+03</rscale>
<asrwt>0</asrwt>
<pdfrwt beam="1">  1       21 0.15562015E-01 0.22379857E+03</pdfrwt>
<pdfrwt beam="2">  1       21 0.23179304E+00 0.22379857E+03</pdfrwt>
<totfact> 0.30335140E+03</totfact>
</mgrwt>
</event>
<event>
 4    1  0.2417478E-001  0.2633261E+03  0.7546771E-02  0.1105161E+00
         21   -1    0    0  503  502  0.00000000000E+00  0.00000000000E+00  0.38707535112E+03  0.38707535112E+03  0.00000000000E+00 0.  1.
         21   -1    0    0  501  503 -0.00000000000E+00 -0.00000000000E+00 -0.21955144016E+03  0.21955144016E+03  0.00000000000E+00 0.  1.
          6    1    1    2  501    0  0.93660280858E+02  0.17602386468E+03 -0.46367620892E+02  0.26737727169E+03  0.17200000000E+03 0.  1.
         -6    1    1    2    0  502 -0.93660280858E+02 -0.17602386468E+03  0.21389153185E+03  0.33924951959E+03  0.17200000000E+03 0.  1.
<mgrwt>
<rscale>  2 0.26332613E+03</rscale>
<asrwt>0</asrwt>
<pdfrwt beam="1">  1       21 0.96768837E-01 0.26332613E+03</pdfrwt>
<pdfrwt beam="2">  1       21 0.54887860E-01 0.26332613E+03</pdfrwt>
<totfact> 0.26336044E+03</totfact>
</mgrwt>
</event>
<event>
 4    1  0.2417478E-001  0.2040713E+03  0.7546771E-02  0.1146349E+00
         21   -1    0    0  503  502  0.00000000000E+00  0.00000000000E+00  0.14132545935E+03  0.14132545935E+03  0.00000000000E+00 0.  1.
         21   -1    0    0  501  503 -0.00000000000E+00 -0.00000000000E+00 -0.31800365752E+03  0.31800365752E+03  0.00000000000E+00 0.  1.
          6    1    1    2  501    0 -0.10200146038E+03  0.40703685967E+02 -0.26134534542E+02  0.20573794464E+03  0.17200000000E+03 0. -1.
         -6    1    1    2    0  502  0.10200146038E+03 -0.40703685967E+02 -0.15054366364E+03  0.25359117223E+03  0.17200000000E+03 0. -1.
<mgrwt>
<rscale>  2 0.20407128E+03</rscale>
<asrwt>0</asrwt>
<pdfrwt beam="1">  1       21 0.35331365E-01 0.20407128E+03</pdfrwt>
<pdfrwt beam="2">  1       21 0.79500914E-01 0.20407128E+03</pdfrwt>
<totfact> 0.10689888E+04</totfact>
</mgrwt>
</event>
<event>
 4    1  0.2417478E-001  0.2419750E+03  0.7546771E-02  0.1118484E+00
         21   -1    0    0  501  502  0.00000000000E+00  0.00000000000E+00  0.33465359179E+03  0.33465359179E+03  0.00000000000E+00 0. -1.
         21   -1    0    0  502  503 -0.00000000000E+00 -0.00000000000E+00 -0.46171393363E+03  0.46171393363E+03  0.00000000000E+00 0. -1.
          6    1    1    2  501    0  0.14842623761E+03  0.83292038954E+02  0.25026746511E+03  0.34811738804E+03  0.17200000000E+03 0. -1.
         -6    1    1    2    0  503 -0.14842623761E+03 -0.83292038954E+02 -0.37732780694E+03  0.44825013738E+03  0.17200000000E+03 0. -1.
<mgrwt>
<rscale>  2 0.24197502E+03</rscale>
<asrwt>0</asrwt>
<pdfrwt beam="1">  1       21 0.83663398E-01 0.24197502E+03</pdfrwt>
<pdfrwt beam="2">  1       21 0.11542848E+00 0.24197502E+03</pdfrwt>
<totfact> 0.68814150E+02</totfact>
</mgrwt>
</event>
<event>
 4    1  0.2417478E-001  0.2864541E+03  0.7546771E-02  0.1092215E+00
         21   -1    0    0  501  502  0.00000000000E+00  0.00000000000E+00  0.13198441457E+04  0.13198441457E+04  0.00000000000E+00 0. -1.
         21   -1    0    0  502  503 -0.00000000000E+00 -0.00000000000E+00 -0.87707721053E+02  0.87707721053E+02  0.00000000000E+00 0.  1.
          6    1    1    2  501    0  0.21802404163E+03  0.70266998310E+02  0.99581900299E+03  0.10362004731E+04  0.17200000000E+03 0. -1.
         -6    1    1    2    0  503 -0.21802404163E+03 -0.70266998310E+02  0.23631742167E+03  0.37135139365E+03  0.17200000000E+03 0.  1.
<mgrwt>
<rscale>  2 0.28645407E+03</rscale>
<asrwt>0</asrwt>
<pdfrwt beam="1">  1       21 0.32996097E+00 0.28645407E+03</pdfrwt>
<pdfrwt beam="2">  1       21 0.21926934E-01 0.28645407E+03</pdfrwt>
<totfact> 0.39614458E+02</totfact>
</mgrwt>
</event>
<event>
 4    1  0.2417478E-001  0.2015907E+03  0.7546771E-02  0.1148404E+00
         21   -1    0    0  501  502  0.00000000000E+00  0.00000000000E+00  0.24542950603E+03  0.24542950603E+03  0.00000000000E+00 0. -1.
         21   -1    0    0  502  503 -0.00000000000E+00 -0.00000000000E+00 -0.19840887331E+03  0.19840887331E+03  0.00000000000E+00 0.  1.
          6    1    1    2  501    0  0.71137387029E+02  0.77422764392E+02  0.11377674789E+03  0.23148209572E+03  0.17200000000E+03 0. -1.
         -6    1    1    2    0  503 -0.71137387029E+02 -0.77422764392E+02 -0.66756115170E+02  0.21235628362E+03  0.17200000000E+03 0.  1.
<mgrwt>
<rscale>  2 0.20159070E+03</rscale>
<asrwt>0</asrwt>
<pdfrwt beam="1">  1       21 0.61357376E-01 0.20159070E+03</pdfrwt>
<pdfrwt beam="2">  1       21 0.49602218E-01 0.20159070E+03</pdfrwt>
<totfact> 0.95082336E+03</totfact>
</mgrwt>
</event>
<event>
 4    1  0.2417478E-001  0.1889646E+03  0.7546771E-02  0.1159399E+00
         21   -1    0    0  501  502  0.00000000000E+00  0.00000000000E+00  0.93434360694E+02  0.93434360694E+02  0.00000000000E+00 0. -1.
         21   -1    0    0  502  503 -0.00000000000E+00 -0.00000000000E+00 -0.42068177378E+03  0.42068177378E+03  0.00000000000E+00 0. -1.
          6    1    1    2  501    0 -0.74297650878E+02 -0.24565918781E+02 -0.85844721022E+02  0.20754985285E+03  0.17200000000E+03 0. -1.
         -6    1    1    2    0  503  0.74297650878E+02  0.24565918781E+02 -0.24140269206E+03  0.30656628162E+03  0.17200000000E+03 0. -1.
<mgrwt>
<rscale>  2 0.18896461E+03</rscale>
<asrwt>0</asrwt>
<pdfrwt beam="1">  1       21 0.23358591E-01 0.18896461E+03</pdfrwt>
<pdfrwt beam="2">  1       21 0.10517044E+00 0.18896461E+03</pdfrwt>
<totfact> 0.12575299E+04</totfact>
</mgrwt>
</event>
<event>
 4    1  0.2417478E-001  0.1945265E+03  0.7546771E-02  0.1154441E+00
         21   -1    0    0  501  502  0.00000000000E+00  0.00000000000E+00  0.21327726462E+03  0.21327726462E+03  0.00000000000E+00 0.  1.
         21   -1    0    0  502  503 -0.00000000000E+00 -0.00000000000E+00 -0.18094965248E+03  0.18094965248E+03  0.00000000000E+00 0.  1.
          6    1    1    2  501    0 -0.80763210644E+02 -0.41639907448E+02  0.43676692806E+02  0.19936958539E+03  0.17200000000E+03 0.  1.
         -6    1    1    2    0  503  0.80763210644E+02  0.41639907448E+02 -0.11349080667E+02  0.19485733170E+03  0.17200000000E+03 0.  1.
<mgrwt>
<rscale>  2 0.19452655E+03</rscale>
<asrwt>0</asrwt>
<pdfrwt beam="1">  1       21 0.53319316E-01 0.19452655E+03</pdfrwt>
<pdfrwt beam="2">  1       21 0.45237413E-01 0.19452655E+03</pdfrwt>
<totfact> 0.15593780E+04</totfact>
</mgrwt>
</event>
<event>
 4    1  0.2417478E-001  0.2097327E+03  0.7546771E-02  0.1141778E+00
         21   -1    0    0  501  502  0.00000000000E+00  0.00000000000E+00  0.81647674026E+03  0.81647674026E+03  0.00000000000E+00 0.  1.
         21   -1    0    0  502  503 -0.00000000000E+00 -0.00000000000E+00 -0.56168946359E+02  0.56168946359E+02  0.00000000000E+00 0. -1.
          6    1    1    2  501    0  0.11539696023E+03 -0.32974837491E+02  0.29198036676E+03  0.35950011532E+03  0.17200000000E+03 0. -1.
         -6    1    1    2    0  503 -0.11539696023E+03  0.32974837491E+02  0.46832742714E+03  0.51314557130E+03  0.17200000000E+03 0.  1.
<mgrwt>
<rscale>  2 0.20973268E+03</rscale>
<asrwt>0</asrwt>
<pdfrwt beam="1">  1       21 0.20411915E+00 0.20973268E+03</pdfrwt>
<pdfrwt beam="2">  1       21 0.14042239E-01 0.20973268E+03</pdfrwt>
<totfact> 0.55033560E+03</totfact>
</mgrwt>
</event>
<event>
 4    1  0.2417478E-001  0.1922544E+03  0.7546771E-02  0.1156444E+00
         21   -1    0    0  503  502  0.00000000000E+00  0.00000000000E+00  0.24746402545E+03  0.24746402545E+03  0.00000000000E+00 0. -1.
         21   -1    0    0  501  503 -0.00000000000E+00 -0.00000000000E+00 -0.16159087229E+03  0.16159087229E+03  0.00000000000E+00 0.  1.
          6    1    1    2  501    0 -0.85570661161E+02 -0.74441697863E+01 -0.13327876429E+02  0.19271581670E+03  0.17200000000E+03 0.  1.
         -6    1    1    2    0  502  0.85570661161E+02  0.74441697863E+01  0.99201029594E+02  0.21633908105E+03  0.17200000000E+03 0.  1.
<mgrwt>
<rscale>  2 0.19225440E+03</rscale>
<asrwt>0</asrwt>
<pdfrwt beam="1">  1       21 0.61866006E-01 0.19225440E+03</pdfrwt>
<pdfrwt beam="2">  1       21 0.40397718E-01 0.19225440E+03</pdfrwt>
<totfact> 0.14327346E+04</totfact>
</mgrwt>
</event>
<event>
 4    1  0.2417478E-001  0.1762711E+03  0.7546771E-02  0.1171461E+00
         21   -1    0    0  503  502  0.00000000000E+00  0.00000000000E+00  0.79173232692E+02  0.79173232692E+02  0.00000000000E+00 0. -1.
         21   -1    0    0  501  503 -0.00000000000E+00 -0.00000000000E+00 -0.39902231777E+03  0.39902231777E+03  0.00000000000E+00 0. -1.
          6    1    1    2  501    0 -0.30109854669E+02  0.24102170770E+02 -0.19061076223E+03  0.25962276607E+03  0.17200000000E+03 0. -1.
         -6    1    1    2    0  502  0.30109854669E+02 -0.24102170770E+02 -0.12923832285E+03  0.21857278439E+03  0.17200000000E+03 0. -1.
<mgrwt>
<rscale>  2 0.17627115E+03</rscale>
<asrwt>0</asrwt>
<pdfrwt beam="1">  1       21 0.19793308E-01 0.17627115E+03</pdfrwt>
<pdfrwt beam="2">  1       21 0.99755578E-01 0.17627115E+03</pdfrwt>
<totfact> 0.19634446E+04</totfact>
</mgrwt>
</event>
<event>
 4    1  0.2417478E-001  0.1942280E+03  0.7546771E-02  0.1154702E+00
         21   -1    0    0  501  502  0.00000000000E+00  0.00000000000E+00  0.67360791396E+03  0.67360791396E+03  0.00000000000E+00 0.  1.
         21   -1    0    0  502  503 -0.00000000000E+00 -0.00000000000E+00 -0.59064430383E+02  0.59064430383E+02  0.00000000000E+00 0.  1.
          6    1    1    2  501    0 -0.78187212716E+02 -0.45025063688E+02  0.39066547800E+03  0.43628432506E+03  0.17200000000E+03 0.  1.
         -6    1    1    2    0  503  0.78187212716E+02  0.45025063688E+02  0.22387800557E+03  0.29638801928E+03  0.17200000000E+03 0.  1.
<mgrwt>
<rscale>  2 0.19422795E+03</rscale>
<asrwt>0</asrwt>
<pdfrwt beam="1">  1       21 0.16840195E+00 0.19422795E+03</pdfrwt>
<pdfrwt beam="2">  1       21 0.14766110E-01 0.19422795E+03</pdfrwt>
<totfact> 0.88289061E+03</totfact>
</mgrwt>
</event>
<event>
 4    1  0.2417478E-001  0.2005007E+03  0.7546771E-02  0.1149317E+00
         21   -1    0    0  501  502  0.00000000000E+00  0.00000000000E+00  0.24345545790E+03  0.24345545790E+03  0.00000000000E+00 0. -1.
         21   -1    0    0  502  503 -0.00000000000E+00 -0.00000000000E+00 -0.16526084768E+03  0.16526084768E+03  0.00000000000E+00 0.  1.
          6    1    1    2  501    0 -0.10192498258E+03 -0.15094307863E+02  0.33234431482E+02  0.20323648206E+03  0.17200000000E+03 0. -1.
         -6    1    1    2    0  503  0.10192498258E+03  0.15094307863E+02  0.44960178736E+02  0.20547982353E+03  0.17200000000E+03 0.  1.
<mgrwt>
<rscale>  2 0.20050072E+03</rscale>
<asrwt>0</asrwt>
<pdfrwt beam="1">  1       21 0.60863864E-01 0.20050072E+03</pdfrwt>
<pdfrwt beam="2">  1       21 0.41315212E-01 0.20050072E+03</pdfrwt>
<totfact> 0.14104162E+04</totfact>
</mgrwt>
</event>
<event>
 4    1  0.2417478E-001  0.2207457E+03  0.7546771E-02  0.1133328E+00
         21   -1    0    0  501  502  0.00000000000E+00  0.00000000000E+00  0.24271630232E+03  0.24271630232E+03  0.00000000000E+00 0.  1.
         21   -1    0    0  502  503 -0.00000000000E+00 -0.00000000000E+00 -0.21338354002E+03  0.21338354002E+03  0.00000000000E+00 0.  1.
          6    1    1    2  501    0 -0.20011653204E+02 -0.13690947446E+03  0.70125507257E+02  0.23161661691E+03  0.17200000000E+03 0.  1.
         -6    1    1    2    0  503  0.20011653204E+02  0.13690947446E+03 -0.40792744954E+02  0.22448322543E+03  0.17200000000E+03 0.  1.
<mgrwt>
<rscale>  2 0.22074571E+03</rscale>
<asrwt>0</asrwt>
<pdfrwt beam="1">  1       21 0.60679076E-01 0.22074571E+03</pdfrwt>
<pdfrwt beam="2">  1       21 0.53345885E-01 0.22074571E+03</pdfrwt>
<totfact> 0.82532319E+03</totfact>
</mgrwt>
</event>
<event>
 4    1  0.2417478E-001  0.1848449E+03  0.7546771E-02  0.1163195E+00
         21   -1    0    0  501  502  0.00000000000E+00  0.00000000000E+00  0.10196179294E+03  0.10196179294E+03  0.00000000000E+00 0.  1.
         21   -1    0    0  502  503 -0.00000000000E+00 -0.00000000000E+00 -0.34294750540E+03  0.34294750540E+03  0.00000000000E+00 0.  1.
          6    1    1    2  501    0 -0.50053501907E+02 -0.45588054937E+02 -0.86846978425E+02  0.20423031476E+03  0.17200000000E+03 0.  1.
         -6    1    1    2    0  503  0.50053501907E+02  0.45588054937E+02 -0.15413873403E+03  0.24067898358E+03  0.17200000000E+03 0.  1.
<mgrwt>
<rscale>  2 0.18484486E+03</rscale>
<asrwt>0</asrwt>
<pdfrwt beam="1">  1       21 0.25490448E-01 0.18484486E+03</pdfrwt>
<pdfrwt beam="2">  1       21 0.85736876E-01 0.18484486E+03</pdfrwt>
<totfact> 0.17229663E+04</totfact>
</mgrwt>
</event>
<event>
 4    1  0.2417478E-001  0.2412657E+03  0.7546771E-02  0.1118952E+00
         21   -1    0    0  501  502  0.00000000000E+00  0.00000000000E+00  0.29359424422E+03  0.29359424422E+03  0.00000000000E+00 0.  1.
         21   -1    0    0  502  503 -0.00000000000E+00 -0.00000000000E+00 -0.23961396929E+03  0.23961396929E+03  0.00000000000E+00 0. -1.
          6    1    1    2  501    0  0.16505683693E+03 -0.37167190349E+02  0.13774136254E+03  0.27781620257E+03  0.17200000000E+03 0.  1.
         -6    1    1    2    0  503 -0.16505683693E+03  0.37167190349E+02 -0.83761087608E+02  0.25539201094E+03  0.17200000000E+03 0. -1.
<mgrwt>
<rscale>  2 0.24126574E+03</rscale>
<asrwt>0</asrwt>
<pdfrwt beam="1">  1       21 0.73398561E-01 0.24126574E+03</pdfrwt>
<pdfrwt beam="2">  1       21 0.59903492E-01 0.24126574E+03</pdfrwt>
<totfact> 0.41848757E+03</totfact>
</mgrwt>
</event>
<event>
 4    1  0.2417478E-001  0.2057246E+03  0.7546771E-02  0.1144997E+00
         21   -1    0    0  501  502  0.00000000000E+00  0.00000000000E+00  0.63756038753E+03  0.63756038753E+03  0.00000000000E+00 0. -1.
         21   -1    0    0  502  503 -0.00000000000E+00 -0.00000000000E+00 -0.72608452278E+02  0.72608452278E+02  0.00000000000E+00 0. -1.
          6    1    1    2  501    0  0.63152485914E+02 -0.93543446253E+02  0.38645697693E+03  0.43780316106E+03  0.17200000000E+03 0. -1.
         -6    1    1    2    0  503 -0.63152485914E+02  0.93543446253E+02  0.17849495832E+03  0.27236567875E+03  0.17200000000E+03 0. -1.
<mgrwt>
<rscale>  2 0.20572460E+03</rscale>
<asrwt>0</asrwt>
<pdfrwt beam="1">  1       21 0.15939008E+00 0.20572460E+03</pdfrwt>
<pdfrwt beam="2">  1       21 0.18152115E-01 0.20572460E+03</pdfrwt>
<totfact> 0.69555653E+03</totfact>
</mgrwt>
</event>
<event>
 4    1  0.2417478E-001  0.1721634E+03  0.7546771E-02  0.1175610E+00
         21   -1    0    0  501  502  0.00000000000E+00  0.00000000000E+00  0.10432136198E+03  0.10432136198E+03  0.00000000000E+00 0.  1.
         21   -1    0    0  502  503 -0.00000000000E+00 -0.00000000000E+00 -0.46570358429E+03  0.46570358429E+03  0.00000000000E+00 0.  1.
          6    1    1    2  501    0 -0.34605838560E+01  0.66525183166E+01 -0.27229747147E+01  0.17218491871E+03  0.17200000000E+03 0.  1.
         -6    1    1    2    0  503  0.34605838560E+01 -0.66525183166E+01 -0.35865924760E+03  0.39784002756E+03  0.17200000000E+03 0.  1.
<mgrwt>
<rscale>  2 0.17216339E+03</rscale>
<asrwt>0</asrwt>
<pdfrwt beam="1">  1       21 0.26080341E-01 0.17216339E+03</pdfrwt>
<pdfrwt beam="2">  1       21 0.11642589E+00 0.17216339E+03</pdfrwt>
<totfact> 0.80729922E+03</totfact>
</mgrwt>
</event>
<event>
 4    1  0.2417478E-001  0.4681623E+03  0.7546771E-02  0.1022440E+00
         21   -1    0    0  501  502  0.00000000000E+00  0.00000000000E+00  0.21670467351E+03  0.21670467351E+03  0.00000000000E+00 0.  1.
         21   -1    0    0  502  503 -0.00000000000E+00 -0.00000000000E+00 -0.10756920761E+04  0.10756920761E+04  0.00000000000E+00 0. -1.
          6    1    1    2  501    0  0.42002566482E+03 -0.11476243115E+03 -0.58746823213E+03  0.75119564594E+03  0.17200000000E+03 0. -1.
         -6    1    1    2    0  503 -0.42002566482E+03  0.11476243115E+03 -0.27151917049E+03  0.54120110371E+03  0.17200000000E+03 0.  1.
<mgrwt>
<rscale>  2 0.46816234E+03</rscale>
<asrwt>0</asrwt>
<pdfrwt beam="1">  1       21 0.54176169E-01 0.46816234E+03</pdfrwt>
<pdfrwt beam="2">  1       21 0.26892301E+00 0.46816234E+03</pdfrwt>
<totfact> 0.12891193E+02</totfact>
</mgrwt>
</event>
<event>
 4    1  0.2417478E-001  0.1999583E+03  0.7546771E-02  0.1149774E+00
         21   -1    0    0  503  502  0.00000000000E+00  0.00000000000E+00  0.12605696678E+04  0.12605696678E+04  0.00000000000E+00 0.  1.
         21   -1    0    0  501  503 -0.00000000000E+00 -0.00000000000E+00 -0.31968460984E+02  0.31968460984E+02  0.00000000000E+00 0. -1.
          6    1    1    2  501    0  0.46207944207E+02  0.90907392883E+02  0.55714962948E+03  0.59194513075E+03  0.17200000000E+03 0. -1.
         -6    1    1    2    0  502 -0.46207944207E+02 -0.90907392883E+02  0.67145157734E+03  0.70059299804E+03  0.17200000000E+03 0.  1.
<mgrwt>
<rscale>  2 0.19995832E+03</rscale>
<asrwt>0</asrwt>
<pdfrwt beam="1">  1       21 0.31514225E+00 0.19995832E+03</pdfrwt>
<pdfrwt beam="2">  1       21 0.79921195E-02 0.19995832E+03</pdfrwt>
<totfact> 0.33264789E+03</totfact>
</mgrwt>
</event>
<event>
 4    1  0.2417478E-001  0.2469496E+03  0.7546771E-02  0.1115248E+00
         21   -1    0    0  501  502  0.00000000000E+00  0.00000000000E+00  0.97232469578E+03  0.97232469578E+03  0.00000000000E+00 0.  1.
         21   -1    0    0  502  503 -0.00000000000E+00 -0.00000000000E+00 -0.78966105303E+02  0.78966105303E+02  0.00000000000E+00 0.  1.
          6    1    1    2  501    0 -0.53433006657E+02 -0.16895276007E+03  0.68510237319E+03  0.72825090668E+03  0.17200000000E+03 0.  1.
         -6    1    1    2    0  503  0.53433006657E+02  0.16895276007E+03  0.20825621729E+03  0.32303989440E+03  0.17200000000E+03 0.  1.
<mgrwt>
<rscale>  2 0.24694963E+03</rscale>
<asrwt>0</asrwt>
<pdfrwt beam="1">  1       21 0.24308114E+00 0.24694963E+03</pdfrwt>
<pdfrwt beam="2">  1       21 0.19741529E-01 0.24694963E+03</pdfrwt>
<totfact> 0.16334306E+03</totfact>
</mgrwt>
</event>
<event>
 4    1  0.2417478E-001  0.2028939E+03  0.7546771E-02  0.1147320E+00
         21   -1    0    0  503  502  0.00000000000E+00  0.00000000000E+00  0.14060740241E+04  0.14060740241E+04  0.00000000000E+00 0. -1.
         21   -1    0    0  501  503 -0.00000000000E+00 -0.00000000000E+00 -0.29364879432E+02  0.29364879432E+02  0.00000000000E+00 0. -1.
          6    1    1    2  501    0 -0.60509422847E+02 -0.88997364973E+02  0.72757121703E+03  0.75533158088E+03  0.17200000000E+03 0. -1.
         -6    1    1    2    0  502  0.60509422847E+02  0.88997364973E+02  0.64913792765E+03  0.68010732267E+03  0.17200000000E+03 0. -1.
<mgrwt>
<rscale>  2 0.20289387E+03</rscale>
<asrwt>0</asrwt>
<pdfrwt beam="1">  1       21 0.35151828E+00 0.20289387E+03</pdfrwt>
<pdfrwt beam="2">  1       21 0.73412246E-02 0.20289387E+03</pdfrwt>
<totfact> 0.23541526E+03</totfact>
</mgrwt>
</event>
<event>
 4    1  0.2417478E-001  0.2797446E+03  0.7546771E-02  0.1095829E+00
         21   -1    0    0  501  502  0.00000000000E+00  0.00000000000E+00  0.41357016390E+03  0.41357016390E+03  0.00000000000E+00 0.  1.
         21   -1    0    0  502  503 -0.00000000000E+00 -0.00000000000E+00 -0.19059996528E+03  0.19059996528E+03  0.00000000000E+00 0. -1.
          6    1    1    2  501    0 -0.21735568222E+03 -0.37809598231E+02  0.85810587576E+02  0.29260983451E+03  0.17200000000E+03 0. -1.
         -6    1    1    2    0  503  0.21735568222E+03  0.37809598231E+02  0.13715961104E+03  0.31156029467E+03  0.17200000000E+03 0. -1.
<mgrwt>
<rscale>  2 0.27974463E+03</rscale>
<asrwt>0</asrwt>
<pdfrwt beam="1">  1       21 0.10339254E+00 0.27974463E+03</pdfrwt>
<pdfrwt beam="2">  1       21 0.47649992E-01 0.27974463E+03</pdfrwt>
<totfact> 0.29972737E+03</totfact>
</mgrwt>
</event>
<event>
 4    1  0.2417478E-001  0.1739541E+03  0.7546771E-02  0.1173786E+00
         21   -1    0    0  503  502  0.00000000000E+00  0.00000000000E+00  0.10580057196E+03  0.10580057196E+03  0.00000000000E+00 0. -1.
         21   -1    0    0  501  503 -0.00000000000E+00 -0.00000000000E+00 -0.49294893670E+03  0.49294893670E+03  0.00000000000E+00 0. -1.
          6    1    1    2  501    0 -0.21705192704E+02 -0.14314552622E+02 -0.38754451552E+03  0.42479497798E+03  0.17200000000E+03 0. -1.
         -6    1    1    2    0  502  0.21705192704E+02  0.14314552622E+02  0.39615077593E+00  0.17395453068E+03  0.17200000000E+03 0. -1.
<mgrwt>
<rscale>  2 0.17395408E+03</rscale>
<asrwt>0</asrwt>
<pdfrwt beam="1">  1       21 0.26450143E-01 0.17395408E+03</pdfrwt>
<pdfrwt beam="2">  1       21 0.12323723E+00 0.17395408E+03</pdfrwt>
<totfact> 0.68209452E+03</totfact>
</mgrwt>
</event>
<event>
 4    1  0.2417478E-001  0.2306346E+03  0.7546771E-02  0.1126194E+00
         21   -1    0    0  501  502  0.00000000000E+00  0.00000000000E+00  0.27899747688E+03  0.27899747688E+03  0.00000000000E+00 0.  1.
         21   -1    0    0  502  503 -0.00000000000E+00 -0.00000000000E+00 -0.53485742129E+03  0.53485742129E+03  0.00000000000E+00 0.  1.
          6    1    1    2  501    0  0.14672309171E+03  0.45614003249E+02  0.19851113730E+03  0.30430079620E+03  0.17200000000E+03 0.  1.
         -6    1    1    2    0  503 -0.14672309171E+03 -0.45614003249E+02 -0.45437108171E+03  0.50955410197E+03  0.17200000000E+03 0.  1.
<mgrwt>
<rscale>  2 0.23063457E+03</rscale>
<asrwt>0</asrwt>
<pdfrwt beam="1">  1       21 0.69749370E-01 0.23063457E+03</pdfrwt>
<pdfrwt beam="2">  1       21 0.13371435E+00 0.23063457E+03</pdfrwt>
<totfact> 0.72365838E+02</totfact>
</mgrwt>
</event>
<event>
 4    1  0.2417478E-001  0.1900945E+03  0.7546771E-02  0.1158376E+00
         21   -1    0    0  503  502  0.00000000000E+00  0.00000000000E+00  0.82513480811E+02  0.82513480811E+02  0.00000000000E+00 0.  1.
         21   -1    0    0  501  503 -0.00000000000E+00 -0.00000000000E+00 -0.48264571352E+03  0.48264571352E+03  0.00000000000E+00 0.  1.
          6    1    1    2  501    0  0.30561232926E+02  0.74952881446E+02 -0.28606837941E+03  0.34346912684E+03  0.17200000000E+03 0.  1.
         -6    1    1    2    0  502 -0.30561232926E+02 -0.74952881446E+02 -0.11406385331E+03  0.22169006749E+03  0.17200000000E+03 0.  1.
<mgrwt>
<rscale>  2 0.19009451E+03</rscale>
<asrwt>0</asrwt>
<pdfrwt beam="1">  1       21 0.20628371E-01 0.19009451E+03</pdfrwt>
<pdfrwt beam="2">  1       21 0.12066143E+00 0.19009451E+03</pdfrwt>
<totfact> 0.11369595E+04</totfact>
</mgrwt>
</event>
<event>
 4    1  0.2417478E-001  0.3022164E+03  0.7546771E-02  0.1084138E+00
         21   -1    0    0  501  502  0.00000000000E+00  0.00000000000E+00  0.17292044603E+04  0.17292044603E+04  0.00000000000E+00 0. -1.
         21   -1    0    0  502  503 -0.00000000000E+00 -0.00000000000E+00 -0.64103240198E+02  0.64103240198E+02  0.00000000000E+00 0.  1.
          6    1    1    2  501    0 -0.22969801279E+03  0.94813262360E+02  0.45634756424E+03  0.54734617125E+03  0.17200000000E+03 0.  1.
         -6    1    1    2    0  503  0.22969801279E+03 -0.94813262360E+02  0.12087536558E+04  0.12459615292E+04  0.17200000000E+03 0.  1.
<mgrwt>
<rscale>  2 0.30221637E+03</rscale>
<asrwt>0</asrwt>
<pdfrwt beam="1">  1       21 0.43230096E+00 0.30221637E+03</pdfrwt>
<pdfrwt beam="2">  1       21 0.16025816E-01 0.30221637E+03</pdfrwt>
<totfact> 0.16213098E+02</totfact>
</mgrwt>
</event>
<event>
 4    1  0.2417478E-001  0.1784184E+03  0.7546771E-02  0.1169343E+00
         21   -1    0    0  503  502  0.00000000000E+00  0.00000000000E+00  0.14568916914E+03  0.14568916914E+03  0.00000000000E+00 0.  1.
         21   -1    0    0  501  503 -0.00000000000E+00 -0.00000000000E+00 -0.23783356094E+03  0.23783356094E+03  0.00000000000E+00 0.  1.
          6    1    1    2  501    0  0.38963469835E+02  0.27036493825E+02 -0.10074575486E+03  0.20489712322E+03  0.17200000000E+03 0.  1.
         -6    1    1    2    0  502 -0.38963469835E+02 -0.27036493825E+02  0.86013630656E+01  0.17862560686E+03  0.17200000000E+03 0.  1.
<mgrwt>
<rscale>  2 0.17841840E+03</rscale>
<asrwt>0</asrwt>
<pdfrwt beam="1">  1       21 0.36422292E-01 0.17841840E+03</pdfrwt>
<pdfrwt beam="2">  1       21 0.59458390E-01 0.17841840E+03</pdfrwt>
<totfact> 0.19373335E+04</totfact>
</mgrwt>
</event>
<event>
 4    1  0.2417478E-001  0.1722439E+03  0.7546771E-02  0.1175528E+00
         21   -1    0    0  503  502  0.00000000000E+00  0.00000000000E+00  0.25433013440E+03  0.25433013440E+03  0.00000000000E+00 0.  1.
         21   -1    0    0  501  503 -0.00000000000E+00 -0.00000000000E+00 -0.12064139137E+03  0.12064139137E+03  0.00000000000E+00 0.  1.
          6    1    1    2  501    0 -0.82131205112E+00  0.91259039997E+01  0.32748001148E+02  0.17532937078E+03  0.17200000000E+03 0. -1.
         -6    1    1    2    0  502  0.82131205112E+00 -0.91259039997E+01  0.10094074188E+03  0.19964215499E+03  0.17200000000E+03 0. -1.
<mgrwt>
<rscale>  2 0.17224389E+03</rscale>
<asrwt>0</asrwt>
<pdfrwt beam="1">  1       21 0.63582533E-01 0.17224389E+03</pdfrwt>
<pdfrwt beam="2">  1       21 0.30160348E-01 0.17224389E+03</pdfrwt>
<totfact> 0.24400907E+04</totfact>
</mgrwt>
</event>
<event>
 4    1  0.2417478E-001  0.1803764E+03  0.7546771E-02  0.1167439E+00
         21   -1    0    0  501  502  0.00000000000E+00  0.00000000000E+00  0.51997459697E+03  0.51997459697E+03  0.00000000000E+00 0.  1.
         21   -1    0    0  502  503 -0.00000000000E+00 -0.00000000000E+00 -0.62703117086E+02  0.62703117086E+02  0.00000000000E+00 0. -1.
          6    1    1    2  501    0 -0.47506273950E+02 -0.26359001282E+02  0.21529305348E+03  0.28086783705E+03  0.17200000000E+03 0.  1.
         -6    1    1    2    0  503  0.47506273950E+02  0.26359001282E+02  0.24197842640E+03  0.30180987701E+03  0.17200000000E+03 0.  1.
<mgrwt>
<rscale>  2 0.18037639E+03</rscale>
<asrwt>0</asrwt>
<pdfrwt beam="1">  1       21 0.12999364E+00 0.18037639E+03</pdfrwt>
<pdfrwt beam="2">  1       21 0.15675781E-01 0.18037639E+03</pdfrwt>
<totfact> 0.15780034E+04</totfact>
</mgrwt>
</event>
<event>
 4    1  0.2417478E-001  0.2007010E+03  0.7546771E-02  0.1149149E+00
         21   -1    0    0  501  502  0.00000000000E+00  0.00000000000E+00  0.13906341553E+03  0.13906341553E+03  0.00000000000E+00 0. -1.
         21   -1    0    0  502  503 -0.00000000000E+00 -0.00000000000E+00 -0.32682681188E+03  0.32682681188E+03  0.00000000000E+00 0. -1.
          6    1    1    2  501    0 -0.12204179206E+02  0.10270326612E+03 -0.15325387525E+02  0.20128529595E+03  0.17200000000E+03 0.  1.
         -6    1    1    2    0  503  0.12204179206E+02 -0.10270326612E+03 -0.17243800883E+03  0.26460493146E+03  0.17200000000E+03 0.  1.
<mgrwt>
<rscale>  2 0.20070103E+03</rscale>
<asrwt>0</asrwt>
<pdfrwt beam="1">  1       21 0.34765854E-01 0.20070103E+03</pdfrwt>
<pdfrwt beam="2">  1       21 0.81706702E-01 0.20070103E+03</pdfrwt>
<totfact> 0.10398246E+04</totfact>
</mgrwt>
</event>
<event>
 4    1  0.2417478E-001  0.1868533E+03  0.7546771E-02  0.1161330E+00
         21   -1    0    0  501  502  0.00000000000E+00  0.00000000000E+00  0.20921722241E+03  0.20921722241E+03  0.00000000000E+00 0.  1.
         21   -1    0    0  502  503 -0.00000000000E+00 -0.00000000000E+00 -0.17083687040E+03  0.17083687040E+03  0.00000000000E+00 0. -1.
          6    1    1    2  501    0  0.59338007257E+02 -0.42534214566E+02 -0.97301750417E+01  0.18710647990E+03  0.17200000000E+03 0. -1.
         -6    1    1    2    0  503 -0.59338007257E+02  0.42534214566E+02  0.48110527046E+02  0.19294761291E+03  0.17200000000E+03 0.  1.
<mgrwt>
<rscale>  2 0.18685331E+03</rscale>
<asrwt>0</asrwt>
<pdfrwt beam="1">  1       21 0.52304305E-01 0.18685331E+03</pdfrwt>
<pdfrwt beam="2">  1       21 0.42709218E-01 0.18685331E+03</pdfrwt>
<totfact> 0.18350090E+04</totfact>
</mgrwt>
</event>
<event>
 4    1  0.2417478E-001  0.1769583E+03  0.7546771E-02  0.1170780E+00
         21   -1    0    0  501  502  0.00000000000E+00  0.00000000000E+00  0.47218445211E+03  0.47218445211E+03  0.00000000000E+00 0.  1.
         21   -1    0    0  502  503 -0.00000000000E+00 -0.00000000000E+00 -0.70754720596E+02  0.70754720596E+02  0.00000000000E+00 0.  1.
          6    1    1    2  501    0  0.41433175475E+02  0.36779409450E+01  0.26869533730E+03  0.32173190636E+03  0.17200000000E+03 0. -1.
         -6    1    1    2    0  503 -0.41433175475E+02 -0.36779409450E+01  0.13273439421E+03  0.22120726635E+03  0.17200000000E+03 0. -1.
<mgrwt>
<rscale>  2 0.17695829E+03</rscale>
<asrwt>0</asrwt>
<pdfrwt beam="1">  1       21 0.11804610E+00 0.17695829E+03</pdfrwt>
<pdfrwt beam="2">  1       21 0.17688682E-01 0.17695829E+03</pdfrwt>
<totfact> 0.16114953E+04</totfact>
</mgrwt>
</event>
<event>
 4    1  0.2417478E-001  0.3717252E+03  0.7546771E-02  0.1054035E+00
         21   -1    0    0  501  502  0.00000000000E+00  0.00000000000E+00  0.26262430533E+03  0.26262430533E+03  0.00000000000E+00 0.  1.
         21   -1    0    0  502  503 -0.00000000000E+00 -0.00000000000E+00 -0.54057569057E+03  0.54057569057E+03  0.00000000000E+00 0. -1.
          6    1    1    2  501    0 -0.32880786713E+03  0.21932462805E+02 -0.73370032676E+02  0.37889683042E+03  0.17200000000E+03 0.  1.
         -6    1    1    2    0  503  0.32880786713E+03 -0.21932462805E+02 -0.20458135256E+03  0.42430316547E+03  0.17200000000E+03 0. -1.
<mgrwt>
<rscale>  2 0.37172523E+03</rscale>
<asrwt>0</asrwt>
<pdfrwt beam="1">  1       21 0.65656077E-01 0.37172523E+03</pdfrwt>
<pdfrwt beam="2">  1       21 0.13514392E+00 0.37172523E+03</pdfrwt>
<totfact> 0.72977068E+02</totfact>
</mgrwt>
</event>
<event>
 4    1  0.2417478E-001  0.1770932E+03  0.7546771E-02  0.1170646E+00
         21   -1    0    0  501  502  0.00000000000E+00  0.00000000000E+00  0.32315186297E+02  0.32315186297E+02  0.00000000000E+00 0. -1.
         21   -1    0    0  502  503 -0.00000000000E+00 -0.00000000000E+00 -0.10079327232E+04  0.10079327232E+04  0.00000000000E+00 0.  1.
          6    1    1    2  501    0 -0.17947041425E+02 -0.38156202446E+02 -0.58803886851E+03  0.61412678085E+03  0.17200000000E+03 0.  1.
         -6    1    1    2    0  503  0.17947041425E+02  0.38156202446E+02 -0.38757866835E+03  0.42612112860E+03  0.17200000000E+03 0. -1.
<mgrwt>
<rscale>  2 0.17709317E+03</rscale>
<asrwt>0</asrwt>
<pdfrwt beam="1">  1       21 0.80787965E-02 0.17709317E+03</pdfrwt>
<pdfrwt beam="2">  1       21 0.25198318E+00 0.17709317E+03</pdfrwt>
<totfact> 0.77592786E+03</totfact>
</mgrwt>
</event>
<event>
 4    1  0.2417478E-001  0.1776883E+03  0.7546771E-02  0.1170059E+00
         21   -1    0    0  503  502  0.00000000000E+00  0.00000000000E+00  0.44808140160E+03  0.44808140160E+03  0.00000000000E+00 0. -1.
         21   -1    0    0  501  503 -0.00000000000E+00 -0.00000000000E+00 -0.72025564829E+02  0.72025564829E+02  0.00000000000E+00 0. -1.
          6    1    1    2  501    0 -0.75977080952E+00 -0.44593209972E+02  0.14972365642E+03  0.23235813934E+03  0.17200000000E+03 0. -1.
         -6    1    1    2    0  502  0.75977080952E+00  0.44593209972E+02  0.22633218035E+03  0.28774882708E+03  0.17200000000E+03 0. -1.
<mgrwt>
<rscale>  2 0.17768830E+03</rscale>
<asrwt>0</asrwt>
<pdfrwt beam="1">  1       21 0.11202034E+00 0.17768830E+03</pdfrwt>
<pdfrwt beam="2">  1       21 0.18006392E-01 0.17768830E+03</pdfrwt>
<totfact> 0.17704796E+04</totfact>
</mgrwt>
</event>
<event>
 4    1  0.2417478E-001  0.2306513E+03  0.7546771E-02  0.1126182E+00
         21   -1    0    0  501  502  0.00000000000E+00  0.00000000000E+00  0.46930593070E+03  0.46930593070E+03  0.00000000000E+00 0.  1.
         21   -1    0    0  502  503 -0.00000000000E+00 -0.00000000000E+00 -0.13342650021E+03  0.13342650021E+03  0.00000000000E+00 0. -1.
          6    1    1    2  501    0  0.13625174406E+03 -0.71073940566E+02  0.28481437093E+03  0.36649593268E+03  0.17200000000E+03 0.  1.
         -6    1    1    2    0  503 -0.13625174406E+03  0.71073940566E+02  0.51065059556E+02  0.23623649823E+03  0.17200000000E+03 0. -1.
<mgrwt>
<rscale>  2 0.23065134E+03</rscale>
<asrwt>0</asrwt>
<pdfrwt beam="1">  1       21 0.11732648E+00 0.23065134E+03</pdfrwt>
<pdfrwt beam="2">  1       21 0.33356626E-01 0.23065134E+03</pdfrwt>
<totfact> 0.46932266E+03</totfact>
</mgrwt>
</event>
<event>
 4    1  0.2417478E-001  0.1750876E+03  0.7546771E-02  0.1172644E+00
         21   -1    0    0  503  502  0.00000000000E+00  0.00000000000E+00  0.15514748942E+03  0.15514748942E+03  0.00000000000E+00 0.  1.
         21   -1    0    0  501  503 -0.00000000000E+00 -0.00000000000E+00 -0.35342463166E+03  0.35342463166E+03  0.00000000000E+00 0.  1.
          6    1    1    2  501    0 -0.12197571043E+01 -0.32713374154E+02 -0.26799033243E+03  0.32011633969E+03  0.17200000000E+03 0.  1.
         -6    1    1    2    0  502  0.12197571043E+01  0.32713374154E+02  0.69713190190E+02  0.18845578140E+03  0.17200000000E+03 0.  1.
<mgrwt>
<rscale>  2 0.17508756E+03</rscale>
<asrwt>0</asrwt>
<pdfrwt beam="1">  1       21 0.38786872E-01 0.17508756E+03</pdfrwt>
<pdfrwt beam="2">  1       21 0.88356158E-01 0.17508756E+03</pdfrwt>
<totfact> 0.71207094E+03</totfact>
</mgrwt>
</event>
<event>
 4    1  0.2417478E-001  0.1994550E+03  0.7546771E-02  0.1150200E+00
         21   -1    0    0  501  502  0.00000000000E+00  0.00000000000E+00  0.68107139519E+02  0.68107139519E+02  0.00000000000E+00 0. -1.
         21   -1    0    0  502  503 -0.00000000000E+00 -0.00000000000E+00 -0.60808258527E+03  0.60808258527E+03  0.00000000000E+00 0.  1.
          6    1    1    2  501    0  0.22399979946E+02 -0.98471099226E+02 -0.20286326704E+03  0.28449221712E+03  0.17200000000E+03 0. -1.
         -6    1    1    2    0  503 -0.22399979946E+02  0.98471099226E+02 -0.33711217871E+03  0.39169750767E+03  0.17200000000E+03 0.  1.
<mgrwt>
<rscale>  2 0.19945505E+03</rscale>
<asrwt>0</asrwt>
<pdfrwt beam="1">  1       21 0.17026785E-01 0.19945505E+03</pdfrwt>
<pdfrwt beam="2">  1       21 0.15202064E+00 0.19945505E+03</pdfrwt>
<totfact> 0.89283430E+03</totfact>
</mgrwt>
</event>
<event>
 4    1  0.2417478E-001  0.1734075E+03  0.7546771E-02  0.1174340E+00
         21   -1    0    0  501  502  0.00000000000E+00  0.00000000000E+00  0.12584880183E+03  0.12584880183E+03  0.00000000000E+00 0. -1.
         21   -1    0    0  502  503 -0.00000000000E+00 -0.00000000000E+00 -0.25242094429E+03  0.25242094429E+03  0.00000000000E+00 0. -1.
          6    1    1    2  501    0  0.15375068336E+02  0.15804108166E+02 -0.19575317752E+02  0.17450889842E+03  0.17200000000E+03 0.  1.
         -6    1    1    2    0  503 -0.15375068336E+02 -0.15804108166E+02 -0.10699682471E+03  0.20376084771E+03  0.17200000000E+03 0.  1.
<mgrwt>
<rscale>  2 0.17340750E+03</rscale>
<asrwt>0</asrwt>
<pdfrwt beam="1">  1       21 0.31462201E-01 0.17340750E+03</pdfrwt>
<pdfrwt beam="2">  1       21 0.63105235E-01 0.17340750E+03</pdfrwt>
<totfact> 0.22823693E+04</totfact>
</mgrwt>
</event>
<event>
 4    1  0.2417478E-001  0.2205375E+03  0.7546771E-02  0.1133483E+00
         21   -1    0    0  503  502  0.00000000000E+00  0.00000000000E+00  0.76007911714E+02  0.76007911714E+02  0.00000000000E+00 0. -1.
         21   -1    0    0  501  503 -0.00000000000E+00 -0.00000000000E+00 -0.90642069506E+03  0.90642069506E+03  0.00000000000E+00 0. -1.
          6    1    1    2  501    0 -0.12472494088E+03  0.59130897436E+02 -0.68157249032E+03  0.71636431617E+03  0.17200000000E+03 0. -1.
         -6    1    1    2    0  502  0.12472494088E+03 -0.59130897436E+02 -0.14884029302E+03  0.26606429061E+03  0.17200000000E+03 0. -1.
<mgrwt>
<rscale>  2 0.22053747E+03</rscale>
<asrwt>0</asrwt>
<pdfrwt beam="1">  1       21 0.19001978E-01 0.22053747E+03</pdfrwt>
<pdfrwt beam="2">  1       21 0.22660517E+00 0.22053747E+03</pdfrwt>
<totfact> 0.22625289E+03</totfact>
</mgrwt>
</event>
<event>
 4    1  0.2417478E-001  0.2722243E+03  0.7546771E-02  0.1100013E+00
         21   -1    0    0  501  502  0.00000000000E+00  0.00000000000E+00  0.98175452992E+02  0.98175452992E+02  0.00000000000E+00 0.  1.
         21   -1    0    0  502  503 -0.00000000000E+00 -0.00000000000E+00 -0.82869665663E+03  0.82869665663E+03  0.00000000000E+00 0. -1.
          6    1    1    2  501    0  0.79095308369E+02 -0.19561694250E+03 -0.22690144800E+03  0.35438725020E+03  0.17200000000E+03 0.  1.
         -6    1    1    2    0  503 -0.79095308369E+02  0.19561694250E+03 -0.50361975564E+03  0.57248485942E+03  0.17200000000E+03 0. -1.
<mgrwt>
<rscale>  2 0.27222428E+03</rscale>
<asrwt>0</asrwt>
<pdfrwt beam="1">  1       21 0.24543863E-01 0.27222428E+03</pdfrwt>
<pdfrwt beam="2">  1       21 0.20717417E+00 0.27222428E+03</pdfrwt>
<totfact> 0.17643649E+03</totfact>
</mgrwt>
</event>
<event>
 4    1  0.2417478E-001  0.2322670E+03  0.7546771E-02  0.1125054E+00
         21   -1    0    0  503  502  0.00000000000E+00  0.00000000000E+00  0.33829221897E+03  0.33829221897E+03  0.00000000000E+00 0.  1.
         21   -1    0    0  501  503 -0.00000000000E+00 -0.00000000000E+00 -0.15948113357E+03  0.15948113357E+03  0.00000000000E+00 0. -1.
          6    1    1    2  501    0 -0.67099327925E+02 -0.14093125332E+03  0.87462395367E+02  0.24818865521E+03  0.17200000000E+03 0.  1.
         -6    1    1    2    0  502  0.67099327925E+02  0.14093125332E+03  0.91348690035E+02  0.24958469733E+03  0.17200000000E+03 0. -1.
<mgrwt>
<rscale>  2 0.23226695E+03</rscale>
<asrwt>0</asrwt>
<pdfrwt beam="1">  1       21 0.84573054E-01 0.23226695E+03</pdfrwt>
<pdfrwt beam="2">  1       21 0.39870284E-01 0.23226695E+03</pdfrwt>
<totfact> 0.71497960E+03</totfact>
</mgrwt>
</event>
<event>
 4    1  0.2417478E-001  0.2333456E+03  0.7546771E-02  0.1124307E+00
         21   -1    0    0  503  502  0.00000000000E+00  0.00000000000E+00  0.24953643445E+03  0.24953643445E+03  0.00000000000E+00 0.  1.
         21   -1    0    0  501  503 -0.00000000000E+00 -0.00000000000E+00 -0.21924041395E+03  0.21924041395E+03  0.00000000000E+00 0. -1.
          6    1    1    2  501    0  0.13500307066E+03  0.81488301911E+02  0.31253354835E+02  0.23542927733E+03  0.17200000000E+03 0. -1.
         -6    1    1    2    0  502 -0.13500307066E+03 -0.81488301911E+02 -0.95733433399E+00  0.23334757107E+03  0.17200000000E+03 0.  1.
<mgrwt>
<rscale>  2 0.23334561E+03</rscale>
<asrwt>0</asrwt>
<pdfrwt beam="1">  1       21 0.62384109E-01 0.23334561E+03</pdfrwt>
<pdfrwt beam="2">  1       21 0.54810104E-01 0.23334561E+03</pdfrwt>
<totfact> 0.72802834E+03</totfact>
</mgrwt>
</event>
<event>
 4    1  0.2417478E-001  0.1863526E+03  0.7546771E-02  0.1161793E+00
         21   -1    0    0  503  502  0.00000000000E+00  0.00000000000E+00  0.54135317589E+02  0.54135317589E+02  0.00000000000E+00 0. -1.
         21   -1    0    0  501  503 -0.00000000000E+00 -0.00000000000E+00 -0.66595657585E+03  0.66595657585E+03  0.00000000000E+00 0. -1.
          6    1    1    2  501    0 -0.96530301627E+01  0.71064121231E+02 -0.37492148230E+03  0.41868055628E+03  0.17200000000E+03 0. -1.
         -6    1    1    2    0  502  0.96530301627E+01 -0.71064121231E+02 -0.23689977596E+03  0.30141133716E+03  0.17200000000E+03 0. -1.
<mgrwt>
<rscale>  2 0.18635260E+03</rscale>
<asrwt>0</asrwt>
<pdfrwt beam="1">  1       21 0.13533829E-01 0.18635260E+03</pdfrwt>
<pdfrwt beam="2">  1       21 0.16648914E+00 0.18635260E+03</pdfrwt>
<totfact> 0.10733445E+04</totfact>
</mgrwt>
</event>
<event>
 4    1  0.2417478E-001  0.2559725E+03  0.7546771E-02  0.1109587E+00
         21   -1    0    0  503  502  0.00000000000E+00  0.00000000000E+00  0.44063224588E+03  0.44063224588E+03  0.00000000000E+00 0. -1.
         21   -1    0    0  501  503 -0.00000000000E+00 -0.00000000000E+00 -0.18203737589E+03  0.18203737589E+03  0.00000000000E+00 0.  1.
          6    1    1    2  501    0 -0.10660334863E+03  0.15675977396E+03  0.26253135162E+03  0.36666689413E+03  0.17200000000E+03 0. -1.
         -6    1    1    2    0  502  0.10660334863E+03 -0.15675977396E+03 -0.39364816351E+01  0.25600272764E+03  0.17200000000E+03 0.  1.
<mgrwt>
<rscale>  2 0.25597246E+03</rscale>
<asrwt>0</asrwt>
<pdfrwt beam="1">  1       21 0.11015806E+00 0.25597246E+03</pdfrwt>
<pdfrwt beam="2">  1       21 0.45509345E-01 0.25597246E+03</pdfrwt>
<totfact> 0.28700441E+03</totfact>
</mgrwt>
</event>
<event>
 4    1  0.2417478E-001  0.1797488E+03  0.7546771E-02  0.1168046E+00
         21   -1    0    0  501  502  0.00000000000E+00  0.00000000000E+00  0.37305552349E+02  0.37305552349E+02  0.00000000000E+00 0. -1.
         21   -1    0    0  502  503 -0.00000000000E+00 -0.00000000000E+00 -0.11238231671E+04  0.11238231671E+04  0.00000000000E+00 0. -1.
          6    1    1    2  501    0  0.44008101905E+02  0.28087476571E+02 -0.82129053662E+03  0.84073049482E+03  0.17200000000E+03 0. -1.
         -6    1    1    2    0  503 -0.44008101905E+02 -0.28087476571E+02 -0.26522707812E+03  0.32039822463E+03  0.17200000000E+03 0. -1.
<mgrwt>
<rscale>  2 0.17974877E+03</rscale>
<asrwt>0</asrwt>
<pdfrwt beam="1">  1       21 0.93263884E-02 0.17974877E+03</pdfrwt>
<pdfrwt beam="2">  1       21 0.28095578E+00 0.17974877E+03</pdfrwt>
<totfact> 0.40934449E+03</totfact>
</mgrwt>
</event>
<event>
 4    1  0.2417478E-001  0.2460907E+03  0.7546771E-02  0.1115801E+00
         21   -1    0    0  501  502  0.00000000000E+00  0.00000000000E+00  0.11465156684E+04  0.11465156684E+04  0.00000000000E+00 0.  1.
         21   -1    0    0  502  503 -0.00000000000E+00 -0.00000000000E+00 -0.52967345464E+02  0.52967345464E+02  0.00000000000E+00 0.  1.
          6    1    1    2  501    0 -0.16732844399E+03 -0.54569419567E+02  0.57824935018E+03  0.62843690272E+03  0.17200000000E+03 0. -1.
         -6    1    1    2    0  503  0.16732844399E+03  0.54569419567E+02  0.51529897273E+03  0.57104611111E+03  0.17200000000E+03 0. -1.
<mgrwt>
<rscale>  2 0.24609069E+03</rscale>
<asrwt>0</asrwt>
<pdfrwt beam="1">  1       21 0.28662884E+00 0.24609069E+03</pdfrwt>
<pdfrwt beam="2">  1       21 0.13241840E-01 0.24609069E+03</pdfrwt>
<totfact> 0.18889397E+03</totfact>
</mgrwt>
</event>
<event>
 4    1  0.2417478E-001  0.1782641E+03  0.7546771E-02  0.1169494E+00
         21   -1    0    0  501  502  0.00000000000E+00  0.00000000000E+00  0.59500521997E+03  0.59500521997E+03  0.00000000000E+00 0.  1.
         21   -1    0    0  502  503 -0.00000000000E+00 -0.00000000000E+00 -0.53859234996E+02  0.53859234996E+02  0.00000000000E+00 0.  1.
          6    1    1    2  501    0  0.44987113307E+02  0.13047622650E+02  0.30026648543E+03  0.34919628161E+03  0.17200000000E+03 0.  1.
         -6    1    1    2    0  503 -0.44987113307E+02 -0.13047622650E+02  0.24087949955E+03  0.29966817336E+03  0.17200000000E+03 0.  1.
<mgrwt>
<rscale>  2 0.17826408E+03</rscale>
<asrwt>0</asrwt>
<pdfrwt beam="1">  1       21 0.14875128E+00 0.17826408E+03</pdfrwt>
<pdfrwt beam="2">  1       21 0.13464811E-01 0.17826408E+03</pdfrwt>
<totfact> 0.14729252E+04</totfact>
</mgrwt>
</event>
<event>
 4    1  0.2417478E-001  0.1795103E+03  0.7546771E-02  0.1168278E+00
         21   -1    0    0  501  502  0.00000000000E+00  0.00000000000E+00  0.45867765580E+03  0.45867765580E+03  0.00000000000E+00 0. -1.
         21   -1    0    0  502  503 -0.00000000000E+00 -0.00000000000E+00 -0.71103363753E+02  0.71103363753E+02  0.00000000000E+00 0. -1.
          6    1    1    2  501    0 -0.37334863082E+02  0.35299570402E+02  0.22273802133E+03  0.28607023232E+03  0.17200000000E+03 0. -1.
         -6    1    1    2    0  503  0.37334863082E+02 -0.35299570402E+02  0.16483627072E+03  0.24371078724E+03  0.17200000000E+03 0. -1.
<mgrwt>
<rscale>  2 0.17951031E+03</rscale>
<asrwt>0</asrwt>
<pdfrwt beam="1">  1       21 0.11466941E+00 0.17951031E+03</pdfrwt>
<pdfrwt beam="2">  1       21 0.17775842E-01 0.17951031E+03</pdfrwt>
<totfact> 0.17110287E+04</totfact>
</mgrwt>
</event>
<event>
 4    1  0.2417478E-001  0.2082582E+03  0.7546771E-02  0.1142953E+00
         21   -1    0    0  501  502  0.00000000000E+00  0.00000000000E+00  0.16574431443E+03  0.16574431443E+03  0.00000000000E+00 0. -1.
         21   -1    0    0  502  503 -0.00000000000E+00 -0.00000000000E+00 -0.29496394561E+03  0.29496394561E+03  0.00000000000E+00 0.  1.
          6    1    1    2  501    0  0.74268953281E+02 -0.90948305492E+02  0.12773732436E+02  0.20864956251E+03  0.17200000000E+03 0. -1.
         -6    1    1    2    0  503 -0.74268953281E+02  0.90948305492E+02 -0.14199336362E+03  0.25205869754E+03  0.17200000000E+03 0.  1.
<mgrwt>
<rscale>  2 0.20825819E+03</rscale>
<asrwt>0</asrwt>
<pdfrwt beam="1">  1       21 0.41436079E-01 0.20825819E+03</pdfrwt>
<pdfrwt beam="2">  1       21 0.73740986E-01 0.20825819E+03</pdfrwt>
<totfact> 0.91594628E+03</totfact>
</mgrwt>
</event>
<event>
 4    1  0.2417478E-001  0.2113504E+03  0.7546771E-02  0.1140501E+00
         21   -1    0    0  501  502  0.00000000000E+00  0.00000000000E+00  0.81666726526E+02  0.81666726526E+02  0.00000000000E+00 0. -1.
         21   -1    0    0  502  503 -0.00000000000E+00 -0.00000000000E+00 -0.54815089418E+03  0.54815089418E+03  0.00000000000E+00 0.  1.
          6    1    1    2  501    0  0.10336238981E+03 -0.66341609274E+02 -0.21860625309E+03  0.30406855582E+03  0.17200000000E+03 0.  1.
         -6    1    1    2    0  503 -0.10336238981E+03  0.66341609274E+02 -0.24787791456E+03  0.32574906489E+03  0.17200000000E+03 0.  1.
<mgrwt>
<rscale>  2 0.21135040E+03</rscale>
<asrwt>0</asrwt>
<pdfrwt beam="1">  1       21 0.20416682E-01 0.21135040E+03</pdfrwt>
<pdfrwt beam="2">  1       21 0.13703772E+00 0.21135040E+03</pdfrwt>
<totfact> 0.82808356E+03</totfact>
</mgrwt>
</event>
<event>
 4    1  0.2417478E-001  0.1846963E+03  0.7546771E-02  0.1163334E+00
         21   -1    0    0  501  502  0.00000000000E+00  0.00000000000E+00  0.90203088547E+03  0.90203088547E+03  0.00000000000E+00 0. -1.
         21   -1    0    0  502  503 -0.00000000000E+00 -0.00000000000E+00 -0.39265251452E+02  0.39265251452E+02  0.00000000000E+00 0. -1.
          6    1    1    2  501    0  0.46557424593E+02  0.48591278196E+02  0.52175060183E+03  0.55347664504E+03  0.17200000000E+03 0. -1.
         -6    1    1    2    0  503 -0.46557424593E+02 -0.48591278196E+02  0.34101503220E+03  0.38781949188E+03  0.17200000000E+03 0. -1.
<mgrwt>
<rscale>  2 0.18469625E+03</rscale>
<asrwt>0</asrwt>
<pdfrwt beam="1">  1       21 0.22550765E+00 0.18469625E+03</pdfrwt>
<pdfrwt beam="2">  1       21 0.98163158E-02 0.18469625E+03</pdfrwt>
<totfact> 0.78649045E+03</totfact>
</mgrwt>
</event>
<event>
 4    1  0.2417478E-001  0.2181113E+03  0.7546771E-02  0.1135299E+00
         21   -1    0    0  503  502  0.00000000000E+00  0.00000000000E+00  0.22693119194E+03  0.22693119194E+03  0.00000000000E+00 0.  1.
         21   -1    0    0  501  503 -0.00000000000E+00 -0.00000000000E+00 -0.21080942032E+03  0.21080942032E+03  0.00000000000E+00 0.  1.
          6    1    1    2  501    0  0.52447583209E+02  0.12344149501E+03 -0.82805821335E+01  0.21826845790E+03  0.17200000000E+03 0.  1.
         -6    1    1    2    0  502 -0.52447583209E+02 -0.12344149501E+03  0.24402353754E+02  0.21947215437E+03  0.17200000000E+03 0.  1.
<mgrwt>
<rscale>  2 0.21811133E+03</rscale>
<asrwt>0</asrwt>
<pdfrwt beam="1">  1       21 0.56732798E-01 0.21811133E+03</pdfrwt>
<pdfrwt beam="2">  1       21 0.52702355E-01 0.21811133E+03</pdfrwt>
<totfact> 0.97986598E+03</totfact>
</mgrwt>
</event>
<event>
 4    1  0.2417478E-001  0.2306069E+03  0.7546771E-02  0.1126213E+00
         21   -1    0    0  503  502  0.00000000000E+00  0.00000000000E+00  0.58086537869E+03  0.58086537869E+03  0.00000000000E+00 0.  1.
         21   -1    0    0  501  503 -0.00000000000E+00 -0.00000000000E+00 -0.10840758266E+03  0.10840758266E+03  0.00000000000E+00 0.  1.
          6    1    1    2  501    0  0.10867650048E+03 -0.10855845944E+03  0.10033488126E+03  0.25148878558E+03  0.17200000000E+03 0.  1.
         -6    1    1    2    0  502 -0.10867650048E+03  0.10855845944E+03  0.37212291476E+03  0.43778417578E+03  0.17200000000E+03 0.  1.
<mgrwt>
<rscale>  2 0.23060685E+03</rscale>
<asrwt>0</asrwt>
<pdfrwt beam="1">  1       21 0.14521634E+00 0.23060685E+03</pdfrwt>
<pdfrwt beam="2">  1       21 0.27101897E-01 0.23060685E+03</pdfrwt>
<totfact> 0.40941914E+03</totfact>
</mgrwt>
</event>
<event>
 4    1  0.2417478E-001  0.1832942E+03  0.7546771E-02  0.1164652E+00
         21   -1    0    0  503  502  0.00000000000E+00  0.00000000000E+00  0.13623550296E+03  0.13623550296E+03  0.00000000000E+00 0.  1.
         21   -1    0    0  501  503 -0.00000000000E+00 -0.00000000000E+00 -0.25124528847E+03  0.25124528847E+03  0.00000000000E+00 0.  1.
          6    1    1    2  501    0 -0.60505786871E+02  0.18756593137E+02 -0.83826048435E+02  0.20155288742E+03  0.17200000000E+03 0.  1.
         -6    1    1    2    0  502  0.60505786871E+02 -0.18756593137E+02 -0.31183737071E+02  0.18592790401E+03  0.17200000000E+03 0.  1.
<mgrwt>
<rscale>  2 0.18329419E+03</rscale>
<asrwt>0</asrwt>
<pdfrwt beam="1">  1       21 0.34058876E-01 0.18329419E+03</pdfrwt>
<pdfrwt beam="2">  1       21 0.62811322E-01 0.18329419E+03</pdfrwt>
<totfact> 0.19609396E+04</totfact>
</mgrwt>
</event>
<event>
 4    1  0.2417478E-001  0.2718052E+03  0.7546771E-02  0.1100251E+00
         21   -1    0    0  501  502  0.00000000000E+00  0.00000000000E+00  0.42242483875E+03  0.42242483875E+03  0.00000000000E+00 0.  1.
         21   -1    0    0  502  503 -0.00000000000E+00 -0.00000000000E+00 -0.22255437879E+03  0.22255437879E+03  0.00000000000E+00 0.  1.
          6    1    1    2  501    0 -0.60099542038E+02  0.20169806503E+03  0.24917777079E+03  0.36873788230E+03  0.17200000000E+03 0.  1.
         -6    1    1    2    0  503  0.60099542038E+02 -0.20169806503E+03 -0.49307310827E+02  0.27624133523E+03  0.17200000000E+03 0.  1.
<mgrwt>
<rscale>  2 0.27180520E+03</rscale>
<asrwt>0</asrwt>
<pdfrwt beam="1">  1       21 0.10560621E+00 0.27180520E+03</pdfrwt>
<pdfrwt beam="2">  1       21 0.55638595E-01 0.27180520E+03</pdfrwt>
<totfact> 0.20623235E+03</totfact>
</mgrwt>
</event>
<event>
 4    1  0.2417478E-001  0.1812573E+03  0.7546771E-02  0.1166592E+00
         21   -1    0    0  501  502  0.00000000000E+00  0.00000000000E+00  0.28269348515E+03  0.28269348515E+03  0.00000000000E+00 0. -1.
         21   -1    0    0  502  503 -0.00000000000E+00 -0.00000000000E+00 -0.39404917298E+03  0.39404917298E+03  0.00000000000E+00 0. -1.
          6    1    1    2  501    0 -0.20524254119E+02 -0.53375575817E+02  0.22844652618E+03  0.29161963656E+03  0.17200000000E+03 0. -1.
         -6    1    1    2    0  503  0.20524254119E+02  0.53375575817E+02 -0.33980221401E+03  0.38512302158E+03  0.17200000000E+03 0. -1.
<mgrwt>
<rscale>  2 0.18125727E+03</rscale>
<asrwt>0</asrwt>
<pdfrwt beam="1">  1       21 0.70673372E-01 0.18125727E+03</pdfrwt>
<pdfrwt beam="2">  1       21 0.98512293E-01 0.18125727E+03</pdfrwt>
<totfact> 0.15602143E+03</totfact>
</mgrwt>
</event>
<event>
 4    1  0.2417478E-001  0.1904011E+03  0.7546771E-02  0.1158100E+00
         21   -1    0    0  501  502  0.00000000000E+00  0.00000000000E+00  0.66868697633E+02  0.66868697633E+02  0.00000000000E+00 0.  1.
         21   -1    0    0  502  503 -0.00000000000E+00 -0.00000000000E+00 -0.54818257323E+03  0.54818257323E+03  0.00000000000E+00 0.  1.
          6    1    1    2  501    0 -0.71100443008E+02 -0.40166018672E+02 -0.27292864653E+03  0.33278014987E+03  0.17200000000E+03 0.  1.
         -6    1    1    2    0  503  0.71100443008E+02  0.40166018672E+02 -0.20838522907E+03  0.28227112099E+03  0.17200000000E+03 0.  1.
<mgrwt>
<rscale>  2 0.19040111E+03</rscale>
<asrwt>0</asrwt>
<pdfrwt beam="1">  1       21 0.16717175E-01 0.19040111E+03</pdfrwt>
<pdfrwt beam="2">  1       21 0.13704564E+00 0.19040111E+03</pdfrwt>
<totfact> 0.12183278E+04</totfact>
</mgrwt>
</event>
<event>
 4    1  0.2417478E-001  0.2614063E+03  0.7546771E-02  0.1106301E+00
         21   -1    0    0  503  502  0.00000000000E+00  0.00000000000E+00  0.21112535370E+03  0.21112535370E+03  0.00000000000E+00 0. -1.
         21   -1    0    0  501  503 -0.00000000000E+00 -0.00000000000E+00 -0.37795966246E+03  0.37795966246E+03  0.00000000000E+00 0. -1.
          6    1    1    2  501    0 -0.18384163143E+03  0.70366921849E+02 -0.19505614920E+03  0.32615970088E+03  0.17200000000E+03 0. -1.
         -6    1    1    2    0  502  0.18384163143E+03 -0.70366921849E+02  0.28221840447E+02  0.26292531528E+03  0.17200000000E+03 0. -1.
<mgrwt>
<rscale>  2 0.26140629E+03</rscale>
<asrwt>0</asrwt>
<pdfrwt beam="1">  1       21 0.52781339E-01 0.26140629E+03</pdfrwt>
<pdfrwt beam="2">  1       21 0.94489915E-01 0.26140629E+03</pdfrwt>
<totfact> 0.30316955E+03</totfact>
</mgrwt>
</event>
<event>
 4    1  0.2417478E-001  0.4415935E+03  0.7546771E-02  0.1030259E+00
         21   -1    0    0  501  502  0.00000000000E+00  0.00000000000E+00  0.10925378378E+03  0.10925378378E+03  0.00000000000E+00 0.  1.
         21   -1    0    0  502  503 -0.00000000000E+00 -0.00000000000E+00 -0.18123108700E+04  0.18123108700E+04  0.00000000000E+00 0.  1.
          6    1    1    2  501    0 -0.36441241835E+03 -0.18062236887E+03 -0.73332471240E+03  0.85601985058E+03  0.17200000000E+03 0.  1.
         -6    1    1    2    0  503  0.36441241835E+03  0.18062236887E+03 -0.96973237383E+03  0.10655448032E+04  0.17200000000E+03 0.  1.
<mgrwt>
<rscale>  2 0.44159354E+03</rscale>
<asrwt>0</asrwt>
<pdfrwt beam="1">  1       21 0.27313447E-01 0.44159354E+03</pdfrwt>
<pdfrwt beam="2">  1       21 0.45307771E+00 0.44159354E+03</pdfrwt>
<totfact> 0.37551977E+01</totfact>
</mgrwt>
</event>
<event>
 4    1  0.2417478E-001  0.1975475E+03  0.7546771E-02  0.1151825E+00
         21   -1    0    0  503  502  0.00000000000E+00  0.00000000000E+00  0.50901563361E+03  0.50901563361E+03  0.00000000000E+00 0.  1.
         21   -1    0    0  501  503 -0.00000000000E+00 -0.00000000000E+00 -0.94112830870E+02  0.94112830870E+02  0.00000000000E+00 0.  1.
          6    1    1    2  501    0 -0.79594959608E+02 -0.55728560100E+02  0.33728682792E+03  0.39088033244E+03  0.17200000000E+03 0.  1.
         -6    1    1    2    0  502  0.79594959608E+02  0.55728560100E+02  0.77615974826E+02  0.21224813204E+03  0.17200000000E+03 0.  1.
<mgrwt>
<rscale>  2 0.19754754E+03</rscale>
<asrwt>0</asrwt>
<pdfrwt beam="1">  1       21 0.12725390E+00 0.19754754E+03</pdfrwt>
<pdfrwt beam="2">  1       21 0.23528209E-01 0.19754754E+03</pdfrwt>
<totfact> 0.77256414E+03</totfact>
</mgrwt>
</event>
<event>
 4    1  0.2417478E-001  0.3363872E+03  0.7546771E-02  0.1068345E+00
         21   -1    0    0  501  502  0.00000000000E+00  0.00000000000E+00  0.39969268105E+03  0.39969268105E+03  0.00000000000E+00 0. -1.
         21   -1    0    0  502  503 -0.00000000000E+00 -0.00000000000E+00 -0.28402185179E+03  0.28402185179E+03  0.00000000000E+00 0. -1.
          6    1    1    2  501    0 -0.23490394734E+03  0.16850071710E+03  0.77222446814E+02  0.34513716466E+03  0.17200000000E+03 0. -1.
         -6    1    1    2    0  503  0.23490394734E+03 -0.16850071710E+03  0.38448382443E+02  0.33857736819E+03  0.17200000000E+03 0. -1.
<mgrwt>
<rscale>  2 0.33638721E+03</rscale>
<asrwt>0</asrwt>
<pdfrwt beam="1">  1       21 0.99923170E-01 0.33638721E+03</pdfrwt>
<pdfrwt beam="2">  1       21 0.71005463E-01 0.33638721E+03</pdfrwt>
<totfact> 0.13302609E+03</totfact>
</mgrwt>
</event>
<event>
 4    1  0.2417478E-001  0.3232629E+03  0.7546771E-02  0.1074157E+00
         21   -1    0    0  501  502  0.00000000000E+00  0.00000000000E+00  0.13802639192E+03  0.13802639192E+03  0.00000000000E+00 0.  1.
         21   -1    0    0  502  503 -0.00000000000E+00 -0.00000000000E+00 -0.11189385715E+04  0.11189385715E+04  0.00000000000E+00 0. -1.
          6    1    1    2  501    0 -0.24675870304E+03  0.11842726130E+03 -0.13305865558E+03  0.34957614273E+03  0.17200000000E+03 0. -1.
         -6    1    1    2    0  503  0.24675870304E+03 -0.11842726130E+03 -0.84785352401E+03  0.90738882069E+03  0.17200000000E+03 0.  1.
<mgrwt>
<rscale>  2 0.32326286E+03</rscale>
<asrwt>0</asrwt>
<pdfrwt beam="1">  1       21 0.34506599E-01 0.32326286E+03</pdfrwt>
<pdfrwt beam="2">  1       21 0.27973464E+00 0.32326286E+03</pdfrwt>
<totfact> 0.31336533E+02</totfact>
</mgrwt>
</event>
<event>
 4    1  0.2417478E-001  0.1747645E+03  0.7546771E-02  0.1172968E+00
         21   -1    0    0  503  502  0.00000000000E+00  0.00000000000E+00  0.19128306791E+03  0.19128306791E+03  0.00000000000E+00 0.  1.
         21   -1    0    0  501  503 -0.00000000000E+00 -0.00000000000E+00 -0.17962962303E+03  0.17962962303E+03  0.00000000000E+00 0.  1.
          6    1    1    2  501    0  0.29687036279E+02  0.87921309816E+01  0.67643028430E+02  0.18739850849E+03  0.17200000000E+03 0. -1.
         -6    1    1    2    0  502 -0.29687036279E+02 -0.87921309816E+01 -0.55989583552E+02  0.18351418244E+03  0.17200000000E+03 0. -1.
<mgrwt>
<rscale>  2 0.17476447E+03</rscale>
<asrwt>0</asrwt>
<pdfrwt beam="1">  1       21 0.47820767E-01 0.17476447E+03</pdfrwt>
<pdfrwt beam="2">  1       21 0.44907406E-01 0.17476447E+03</pdfrwt>
<totfact> 0.20107946E+04</totfact>
</mgrwt>
</event>
<event>
 4    1  0.2417478E-001  0.2524068E+03  0.7546771E-02  0.1111793E+00
         21   -1    0    0  503  502  0.00000000000E+00  0.00000000000E+00  0.84514864413E+02  0.84514864413E+02  0.00000000000E+00 0. -1.
         21   -1    0    0  501  503 -0.00000000000E+00 -0.00000000000E+00 -0.76325833808E+03  0.76325833808E+03  0.00000000000E+00 0. -1.
          6    1    1    2  501    0  0.10599230584E+03 -0.15129705715E+03 -0.29223988630E+03  0.38615193842E+03  0.17200000000E+03 0. -1.
         -6    1    1    2    0  502 -0.10599230584E+03  0.15129705715E+03 -0.38650358737E+03  0.46162126408E+03  0.17200000000E+03 0. -1.
<mgrwt>
<rscale>  2 0.25240675E+03</rscale>
<asrwt>0</asrwt>
<pdfrwt beam="1">  1       21 0.21128717E-01 0.25240675E+03</pdfrwt>
<pdfrwt beam="2">  1       21 0.19081458E+00 0.25240675E+03</pdfrwt>
<totfact> 0.30477132E+03</totfact>
</mgrwt>
</event>
<event>
 4    1  0.2417478E-001  0.1820445E+03  0.7546771E-02  0.1165839E+00
         21   -1    0    0  501  502  0.00000000000E+00  0.00000000000E+00  0.15148851349E+03  0.15148851349E+03  0.00000000000E+00 0. -1.
         21   -1    0    0  502  503 -0.00000000000E+00 -0.00000000000E+00 -0.27023365600E+03  0.27023365600E+03  0.00000000000E+00 0. -1.
          6    1    1    2  501    0 -0.55808146664E+02 -0.21015674867E+02  0.32651841881E+02  0.18494958935E+03  0.17200000000E+03 0. -1.
         -6    1    1    2    0  503  0.55808146664E+02  0.21015674867E+02 -0.15139698439E+03  0.23677258014E+03  0.17200000000E+03 0. -1.
<mgrwt>
<rscale>  2 0.18204452E+03</rscale>
<asrwt>0</asrwt>
<pdfrwt beam="1">  1       21 0.37872129E-01 0.18204452E+03</pdfrwt>
<pdfrwt beam="2">  1       21 0.67558414E-01 0.18204452E+03</pdfrwt>
<totfact> 0.13563148E+04</totfact>
</mgrwt>
</event>
<event>
 4    1  0.2417478E-001  0.2149118E+03  0.7546771E-02  0.1137734E+00
         21   -1    0    0  501  502  0.00000000000E+00  0.00000000000E+00  0.29762971006E+03  0.29762971006E+03  0.00000000000E+00 0.  1.
         21   -1    0    0  502  503 -0.00000000000E+00 -0.00000000000E+00 -0.15518673714E+03  0.15518673714E+03  0.00000000000E+00 0. -1.
          6    1    1    2  501    0  0.11341606022E+03 -0.61154537702E+02  0.70114887696E+02  0.22606011960E+03  0.17200000000E+03 0.  1.
         -6    1    1    2    0  503 -0.11341606022E+03  0.61154537702E+02  0.72328085227E+02  0.22675632761E+03  0.17200000000E+03 0. -1.
<mgrwt>
<rscale>  2 0.21491180E+03</rscale>
<asrwt>0</asrwt>
<pdfrwt beam="1">  1       21 0.74407427E-01 0.21491180E+03</pdfrwt>
<pdfrwt beam="2">  1       21 0.38796685E-01 0.21491180E+03</pdfrwt>
<totfact> 0.10212557E+04</totfact>
</mgrwt>
</event>
<event>
 4    1  0.2417478E-001  0.3529349E+03  0.7546771E-02  0.1061417E+00
         21   -1    0    0  503  502  0.00000000000E+00  0.00000000000E+00  0.16085824954E+03  0.16085824954E+03  0.00000000000E+00 0.  1.
         21   -1    0    0  501  503 -0.00000000000E+00 -0.00000000000E+00 -0.77437642118E+03  0.77437642118E+03  0.00000000000E+00 0.  1.
          6    1    1    2  501    0 -0.27401832676E+03 -0.14104246537E+03 -0.30854413568E+03  0.46878833613E+03  0.17200000000E+03 0.  1.
         -6    1    1    2    0  502  0.27401832676E+03  0.14104246537E+03 -0.30497403596E+03  0.46644633458E+03  0.17200000000E+03 0.  1.
<mgrwt>
<rscale>  2 0.35293487E+03</rscale>
<asrwt>0</asrwt>
<pdfrwt beam="1">  1       21 0.40214563E-01 0.35293487E+03</pdfrwt>
<pdfrwt beam="2">  1       21 0.19359410E+00 0.35293487E+03</pdfrwt>
<totfact> 0.77038110E+02</totfact>
</mgrwt>
</event>
<event>
 4    1  0.2417478E-001  0.1966398E+03  0.7546771E-02  0.1152605E+00
         21   -1    0    0  501  502  0.00000000000E+00  0.00000000000E+00  0.16670435719E+03  0.16670435719E+03  0.00000000000E+00 0.  1.
         21   -1    0    0  502  503 -0.00000000000E+00 -0.00000000000E+00 -0.24086619335E+03  0.24086619335E+03  0.00000000000E+00 0.  1.
          6    1    1    2  501    0 -0.72196191578E+02 -0.62216708737E+02  0.21253173476E+01  0.19665127993E+03  0.17200000000E+03 0.  1.
         -6    1    1    2    0  503  0.72196191578E+02  0.62216708737E+02 -0.76287153501E+02  0.21091927061E+03  0.17200000000E+03 0.  1.
<mgrwt>
<rscale>  2 0.19663979E+03</rscale>
<asrwt>0</asrwt>
<pdfrwt beam="1">  1       21 0.41676089E-01 0.19663979E+03</pdfrwt>
<pdfrwt beam="2">  1       21 0.60216548E-01 0.19663979E+03</pdfrwt>
<totfact> 0.14215359E+04</totfact>
</mgrwt>
</event>
<event>
 4    1  0.2417478E-001  0.2574686E+03  0.7546771E-02  0.1108674E+00
         21   -1    0    0  503  502  0.00000000000E+00  0.00000000000E+00  0.12696877077E+03  0.12696877077E+03  0.00000000000E+00 0.  1.
         21   -1    0    0  501  503 -0.00000000000E+00 -0.00000000000E+00 -0.53795698302E+03  0.53795698302E+03  0.00000000000E+00 0.  1.
          6    1    1    2  501    0  0.11928278284E+03  0.14992557421E+03 -0.26257829142E+03  0.36774640611E+03  0.17200000000E+03 0.  1.
         -6    1    1    2    0  502 -0.11928278284E+03 -0.14992557421E+03 -0.14840992083E+03  0.29717934767E+03  0.17200000000E+03 0.  1.
<mgrwt>
<rscale>  2 0.25746856E+03</rscale>
<asrwt>0</asrwt>
<pdfrwt beam="1">  1       21 0.31742193E-01 0.25746856E+03</pdfrwt>
<pdfrwt beam="2">  1       21 0.13448924E+00 0.25746856E+03</pdfrwt>
<totfact> 0.36024136E+03</totfact>
</mgrwt>
</event>
<event>
 4    1  0.2417478E-001  0.2008191E+03  0.7546771E-02  0.1149050E+00
         21   -1    0    0  501  502  0.00000000000E+00  0.00000000000E+00  0.35330945242E+03  0.35330945242E+03  0.00000000000E+00 0. -1.
         21   -1    0    0  502  503 -0.00000000000E+00 -0.00000000000E+00 -0.12988134858E+03  0.12988134858E+03  0.00000000000E+00 0. -1.
          6    1    1    2  501    0  0.97704601777E+02 -0.34614143243E+02  0.19580984190E+03  0.28048141170E+03  0.17200000000E+03 0. -1.
         -6    1    1    2    0  503 -0.97704601777E+02  0.34614143243E+02  0.27618261942E+02  0.20270938931E+03  0.17200000000E+03 0. -1.
<mgrwt>
<rscale>  2 0.20081914E+03</rscale>
<asrwt>0</asrwt>
<pdfrwt beam="1">  1       21 0.88327361E-01 0.20081914E+03</pdfrwt>
<pdfrwt beam="2">  1       21 0.32470338E-01 0.20081914E+03</pdfrwt>
<totfact> 0.99560133E+03</totfact>
</mgrwt>
</event>
<event>
 4    1  0.2417478E-001  0.2544107E+03  0.7546771E-02  0.1110549E+00
         21   -1    0    0  501  502  0.00000000000E+00  0.00000000000E+00  0.16767605569E+03  0.16767605569E+03  0.00000000000E+00 0.  1.
         21   -1    0    0  502  503 -0.00000000000E+00 -0.00000000000E+00 -0.38636570885E+03  0.38636570885E+03  0.00000000000E+00 0. -1.
          6    1    1    2  501    0  0.17814977067E+03  0.58339340831E+02 -0.10095244602E+03  0.27370826775E+03  0.17200000000E+03 0. -1.
         -6    1    1    2    0  503 -0.17814977067E+03 -0.58339340831E+02 -0.11773720714E+03  0.28033349679E+03  0.17200000000E+03 0. -1.
<mgrwt>
<rscale>  2 0.25441073E+03</rscale>
<asrwt>0</asrwt>
<pdfrwt beam="1">  1       21 0.41919014E-01 0.25441073E+03</pdfrwt>
<pdfrwt beam="2">  1       21 0.96591426E-01 0.25441073E+03</pdfrwt>
<totfact> 0.46704185E+03</totfact>
</mgrwt>
</event>
<event>
 4    1  0.2417478E-001  0.1854018E+03  0.7546771E-02  0.1162675E+00
         21   -1    0    0  501  502  0.00000000000E+00  0.00000000000E+00  0.13464432056E+03  0.13464432056E+03  0.00000000000E+00 0.  1.
         21   -1    0    0  502  503 -0.00000000000E+00 -0.00000000000E+00 -0.25777005361E+03  0.25777005361E+03  0.00000000000E+00 0.  1.
          6    1    1    2  501    0  0.64275947918E+02  0.25659745827E+02 -0.42330956183E+02  0.19017289472E+03  0.17200000000E+03 0.  1.
         -6    1    1    2    0  503 -0.64275947918E+02 -0.25659745827E+02 -0.80794776865E+02  0.20224147944E+03  0.17200000000E+03 0.  1.
<mgrwt>
<rscale>  2 0.18540178E+03</rscale>
<asrwt>0</asrwt>
<pdfrwt beam="1">  1       21 0.33661080E-01 0.18540178E+03</pdfrwt>
<pdfrwt beam="2">  1       21 0.64442513E-01 0.18540178E+03</pdfrwt>
<totfact> 0.18961397E+04</totfact>
</mgrwt>
</event>
<event>
 4    1  0.2417478E-001  0.2224298E+03  0.7546771E-02  0.1132084E+00
         21   -1    0    0  501  502  0.00000000000E+00  0.00000000000E+00  0.12862386861E+03  0.12862386861E+03  0.00000000000E+00 0. -1.
         21   -1    0    0  502  503 -0.00000000000E+00 -0.00000000000E+00 -0.68824374029E+03  0.68824374029E+03  0.00000000000E+00 0.  1.
          6    1    1    2  501    0 -0.13273958002E+03  0.47657270250E+02 -0.85423900343E+01  0.22259376438E+03  0.17200000000E+03 0. -1.
         -6    1    1    2    0  503  0.13273958002E+03 -0.47657270250E+02 -0.55107748164E+03  0.59427384452E+03  0.17200000000E+03 0.  1.
<mgrwt>
<rscale>  2 0.22242979E+03</rscale>
<asrwt>0</asrwt>
<pdfrwt beam="1">  1       21 0.32155968E-01 0.22242979E+03</pdfrwt>
<pdfrwt beam="2">  1       21 0.17206093E+00 0.22242979E+03</pdfrwt>
<totfact> 0.18666106E+03</totfact>
</mgrwt>
</event>
<event>
 4    1  0.2417478E-001  0.3082504E+03  0.7546771E-02  0.1081188E+00
         21   -1    0    0  501  502  0.00000000000E+00  0.00000000000E+00  0.14024976826E+03  0.14024976826E+03  0.00000000000E+00 0. -1.
         21   -1    0    0  502  503 -0.00000000000E+00 -0.00000000000E+00 -0.72915405297E+03  0.72915405297E+03  0.00000000000E+00 0.  1.
          6    1    1    2  501    0  0.25228682807E+03  0.42256924161E+02 -0.17874454379E+03  0.35632555787E+03  0.17200000000E+03 0.  1.
         -6    1    1    2    0  503 -0.25228682807E+03 -0.42256924161E+02 -0.41015974091E+03  0.51307826335E+03  0.17200000000E+03 0. -1.
<mgrwt>
<rscale>  2 0.30825037E+03</rscale>
<asrwt>0</asrwt>
<pdfrwt beam="1">  1       21 0.35062442E-01 0.30825037E+03</pdfrwt>
<pdfrwt beam="2">  1       21 0.18228851E+00 0.30825037E+03</pdfrwt>
<totfact> 0.12492674E+03</totfact>
</mgrwt>
</event>
<event>
 4    1  0.2417478E-001  0.2369318E+03  0.7546771E-02  0.1121854E+00
         21   -1    0    0  501  502  0.00000000000E+00  0.00000000000E+00  0.20779922923E+03  0.20779922923E+03  0.00000000000E+00 0. -1.
         21   -1    0    0  502  503 -0.00000000000E+00 -0.00000000000E+00 -0.27872632575E+03  0.27872632575E+03  0.00000000000E+00 0. -1.
          6    1    1    2  501    0 -0.14265855628E+03 -0.78747658629E+02 -0.78138631958E+02  0.24948407409E+03  0.17200000000E+03 0. -1.
         -6    1    1    2    0  503  0.14265855628E+03  0.78747658629E+02  0.72115354408E+01  0.23704148089E+03  0.17200000000E+03 0. -1.
<mgrwt>
<rscale>  2 0.23693176E+03</rscale>
<asrwt>0</asrwt>
<pdfrwt beam="1">  1       21 0.51949807E-01 0.23693176E+03</pdfrwt>
<pdfrwt beam="2">  1       21 0.69681581E-01 0.23693176E+03</pdfrwt>
<totfact> 0.63836794E+03</totfact>
</mgrwt>
</event>
<event>
 4    1  0.2417478E-001  0.2005836E+03  0.7546771E-02  0.1149248E+00
         21   -1    0    0  501  502  0.00000000000E+00  0.00000000000E+00  0.94793329914E+02  0.94793329914E+02  0.00000000000E+00 0. -1.
         21   -1    0    0  502  503 -0.00000000000E+00 -0.00000000000E+00 -0.50205023925E+03  0.50205023925E+03  0.00000000000E+00 0. -1.
          6    1    1    2  501    0  0.54367490834E+02  0.87715102286E+02 -0.86293928809E+02  0.21835843327E+03  0.17200000000E+03 0. -1.
         -6    1    1    2    0  503 -0.54367490834E+02 -0.87715102286E+02 -0.32096298053E+03  0.37848513590E+03  0.17200000000E+03 0. -1.
<mgrwt>
<rscale>  2 0.20058356E+03</rscale>
<asrwt>0</asrwt>
<pdfrwt beam="1">  1       21 0.23698333E-01 0.20058356E+03</pdfrwt>
<pdfrwt beam="2">  1       21 0.12551256E+00 0.20058356E+03</pdfrwt>
<totfact> 0.78707391E+03</totfact>
</mgrwt>
</event>
<event>
 4    1  0.2417478E-001  0.2748128E+03  0.7546771E-02  0.1098556E+00
         21   -1    0    0  503  502  0.00000000000E+00  0.00000000000E+00  0.22470946508E+03  0.22470946508E+03  0.00000000000E+00 0.  1.
         21   -1    0    0  501  503 -0.00000000000E+00 -0.00000000000E+00 -0.62839192439E+03  0.62839192439E+03  0.00000000000E+00 0.  1.
          6    1    1    2  501    0 -0.10738473444E+03 -0.18549015086E+03 -0.49276079841E+03  0.56421208930E+03  0.17200000000E+03 0.  1.
         -6    1    1    2    0  502  0.10738473444E+03  0.18549015086E+03  0.89078339099E+02  0.28888930017E+03  0.17200000000E+03 0.  1.
<mgrwt>
<rscale>  2 0.27481280E+03</rscale>
<asrwt>0</asrwt>
<pdfrwt beam="1">  1       21 0.56177367E-01 0.27481280E+03</pdfrwt>
<pdfrwt beam="2">  1       21 0.15709798E+00 0.27481280E+03</pdfrwt>
<totfact> 0.73074853E+02</totfact>
</mgrwt>
</event>
<event>
 4    1  0.2417478E-001  0.1750317E+03  0.7546771E-02  0.1172700E+00
         21   -1    0    0  503  502  0.00000000000E+00  0.00000000000E+00  0.65081924322E+03  0.65081924322E+03  0.00000000000E+00 0.  1.
         21   -1    0    0  501  503 -0.00000000000E+00 -0.00000000000E+00 -0.51218194833E+02  0.51218194833E+02  0.00000000000E+00 0.  1.
          6    1    1    2  501    0 -0.25782775955E+02 -0.19681168032E+02  0.19994232705E+03  0.26573113114E+03  0.17200000000E+03 0.  1.
         -6    1    1    2    0  502  0.25782775955E+02  0.19681168032E+02  0.39965872134E+03  0.43630630692E+03  0.17200000000E+03 0.  1.
<mgrwt>
<rscale>  2 0.17503171E+03</rscale>
<asrwt>0</asrwt>
<pdfrwt beam="1">  1       21 0.16270478E+00 0.17503171E+03</pdfrwt>
<pdfrwt beam="2">  1       21 0.12804551E-01 0.17503171E+03</pdfrwt>
<totfact> 0.12735202E+04</totfact>
</mgrwt>
</event>
<event>
 4    1  0.2417478E-001  0.2635281E+03  0.7546771E-02  0.1105042E+00
         21   -1    0    0  503  502  0.00000000000E+00  0.00000000000E+00  0.67287951307E+03  0.67287951307E+03  0.00000000000E+00 0.  1.
         21   -1    0    0  501  503 -0.00000000000E+00 -0.00000000000E+00 -0.10747083443E+03  0.10747083443E+03  0.00000000000E+00 0. -1.
          6    1    1    2  501    0 -0.12459932906E+03 -0.15600660196E+03  0.20500355444E+03  0.33387648913E+03  0.17200000000E+03 0. -1.
         -6    1    1    2    0  502  0.12459932906E+03  0.15600660196E+03  0.36040512420E+03  0.44647385837E+03  0.17200000000E+03 0.  1.
<mgrwt>
<rscale>  2 0.26352809E+03</rscale>
<asrwt>0</asrwt>
<pdfrwt beam="1">  1       21 0.16821987E+00 0.26352809E+03</pdfrwt>
<pdfrwt beam="2">  1       21 0.26867711E-01 0.26352809E+03</pdfrwt>
<totfact> 0.27341493E+03</totfact>
</mgrwt>
</event>
<event>
 4    1  0.2417478E-001  0.2360543E+03  0.7546771E-02  0.1122450E+00
         21   -1    0    0  501  502  0.00000000000E+00  0.00000000000E+00  0.18925325169E+03  0.18925325169E+03  0.00000000000E+00 0. -1.
         21   -1    0    0  502  503 -0.00000000000E+00 -0.00000000000E+00 -0.29916535458E+03  0.29916535458E+03  0.00000000000E+00 0.  1.
          6    1    1    2  501    0  0.13814502055E+03 -0.83985559160E+02 -0.85684077709E+02  0.25112423623E+03  0.17200000000E+03 0. -1.
         -6    1    1    2    0  503 -0.13814502055E+03  0.83985559160E+02 -0.24228025183E+02  0.23729437004E+03  0.17200000000E+03 0.  1.
<mgrwt>
<rscale>  2 0.23605428E+03</rscale>
<asrwt>0</asrwt>
<pdfrwt beam="1">  1       21 0.47313313E-01 0.23605428E+03</pdfrwt>
<pdfrwt beam="2">  1       21 0.74791338E-01 0.23605428E+03</pdfrwt>
<totfact> 0.66341197E+03</totfact>
</mgrwt>
</event>
<event>
 4    1  0.2417478E-001  0.2383803E+03  0.7546771E-02  0.1120877E+00
         21   -1    0    0  503  502  0.00000000000E+00  0.00000000000E+00  0.28571220188E+03  0.28571220188E+03  0.00000000000E+00 0.  1.
         21   -1    0    0  501  503 -0.00000000000E+00 -0.00000000000E+00 -0.20424837518E+03  0.20424837518E+03  0.00000000000E+00 0. -1.
          6    1    1    2  501    0  0.49631989437E+02  0.15740978139E+03  0.80413249947E+02  0.25157794899E+03  0.17200000000E+03 0.  1.
         -6    1    1    2    0  502 -0.49631989437E+02 -0.15740978139E+03  0.10505767592E+01  0.23838262807E+03  0.17200000000E+03 0. -1.
<mgrwt>
<rscale>  2 0.23838031E+03</rscale>
<asrwt>0</asrwt>
<pdfrwt beam="1">  1       21 0.71428050E-01 0.23838031E+03</pdfrwt>
<pdfrwt beam="2">  1       21 0.51062094E-01 0.23838031E+03</pdfrwt>
<totfact> 0.62599524E+03</totfact>
</mgrwt>
</event>
<event>
 4    1  0.2417478E-001  0.2957170E+03  0.7546771E-02  0.1087401E+00
         21   -1    0    0  503  502  0.00000000000E+00  0.00000000000E+00  0.82853849635E+02  0.82853849635E+02  0.00000000000E+00 0.  1.
         21   -1    0    0  501  503 -0.00000000000E+00 -0.00000000000E+00 -0.14214816035E+04  0.14214816035E+04  0.00000000000E+00 0. -1.
          6    1    1    2  501    0  0.19552845983E+03 -0.14011844845E+03 -0.10509944479E+04  0.10918048763E+04  0.17200000000E+03 0.  1.
         -6    1    1    2    0  502 -0.19552845983E+03  0.14011844845E+03 -0.28763330597E+03  0.41253057693E+03  0.17200000000E+03 0. -1.
<mgrwt>
<rscale>  2 0.29571702E+03</rscale>
<asrwt>0</asrwt>
<pdfrwt beam="1">  1       21 0.20713462E-01 0.29571702E+03</pdfrwt>
<pdfrwt beam="2">  1       21 0.35537041E+00 0.29571702E+03</pdfrwt>
<totfact> 0.30800309E+02</totfact>
</mgrwt>
</event>
<event>
 4    1  0.2417478E-001  0.1832759E+03  0.7546771E-02  0.1164670E+00
         21   -1    0    0  501  502  0.00000000000E+00  0.00000000000E+00  0.21829027678E+03  0.21829027678E+03  0.00000000000E+00 0.  1.
         21   -1    0    0  502  503 -0.00000000000E+00 -0.00000000000E+00 -0.15430521032E+03  0.15430521032E+03  0.00000000000E+00 0. -1.
          6    1    1    2  501    0 -0.13162081619E+02 -0.61909738250E+02  0.41795857973E+02  0.18798124860E+03  0.17200000000E+03 0.  1.
         -6    1    1    2    0  503  0.13162081619E+02  0.61909738250E+02  0.22189208488E+02  0.18461423850E+03  0.17200000000E+03 0.  1.
<mgrwt>
<rscale>  2 0.18327590E+03</rscale>
<asrwt>0</asrwt>
<pdfrwt beam="1">  1       21 0.54572569E-01 0.18327590E+03</pdfrwt>
<pdfrwt beam="2">  1       21 0.38576303E-01 0.18327590E+03</pdfrwt>
<totfact> 0.20661641E+04</totfact>
</mgrwt>
</event>
<event>
 4    1  0.2417478E-001  0.1863489E+03  0.7546771E-02  0.1161796E+00
         21   -1    0    0  501  502  0.00000000000E+00  0.00000000000E+00  0.46421493446E+03  0.46421493446E+03  0.00000000000E+00 0. -1.
         21   -1    0    0  502  503 -0.00000000000E+00 -0.00000000000E+00 -0.75449965309E+02  0.75449965309E+02  0.00000000000E+00 0. -1.
          6    1    1    2  501    0  0.65292196910E+02 -0.29645412583E+02  0.21931684492E+03  0.28779471839E+03  0.17200000000E+03 0. -1.
         -6    1    1    2    0  503 -0.65292196910E+02  0.29645412583E+02  0.16944812423E+03  0.25187018138E+03  0.17200000000E+03 0. -1.
<mgrwt>
<rscale>  2 0.18634892E+03</rscale>
<asrwt>0</asrwt>
<pdfrwt beam="1">  1       21 0.11605373E+00 0.18634892E+03</pdfrwt>
<pdfrwt beam="2">  1       21 0.18862493E-01 0.18634892E+03</pdfrwt>
<totfact> 0.14822403E+04</totfact>
</mgrwt>
</event>
<event>
 4    1  0.2417478E-001  0.1785207E+03  0.7546771E-02  0.1169242E+00
         21   -1    0    0  501  502  0.00000000000E+00  0.00000000000E+00  0.20169355154E+03  0.20169355154E+03  0.00000000000E+00 0. -1.
         21   -1    0    0  502  503 -0.00000000000E+00 -0.00000000000E+00 -0.16298183393E+03  0.16298183393E+03  0.00000000000E+00 0. -1.
          6    1    1    2  501    0 -0.46606114386E+02 -0.10653495963E+02 -0.12490437094E+02  0.17895708394E+03  0.17200000000E+03 0. -1.
         -6    1    1    2    0  503  0.46606114386E+02  0.10653495963E+02  0.51202154704E+02  0.18571830152E+03  0.17200000000E+03 0. -1.
<mgrwt>
<rscale>  2 0.17852066E+03</rscale>
<asrwt>0</asrwt>
<pdfrwt beam="1">  1       21 0.50423388E-01 0.17852066E+03</pdfrwt>
<pdfrwt beam="2">  1       21 0.40745459E-01 0.17852066E+03</pdfrwt>
<totfact> 0.21905451E+04</totfact>
</mgrwt>
</event>
<event>
 4    1  0.2417478E-001  0.2049380E+03  0.7546771E-02  0.1145638E+00
         21   -1    0    0  503  502  0.00000000000E+00  0.00000000000E+00  0.88779430529E+02  0.88779430529E+02  0.00000000000E+00 0. -1.
         21   -1    0    0  501  503 -0.00000000000E+00 -0.00000000000E+00 -0.59696048814E+03  0.59696048814E+03  0.00000000000E+00 0. -1.
          6    1    1    2  501    0  0.85889847007E+02 -0.70982424296E+02 -0.41028371959E+03  0.45861999623E+03  0.17200000000E+03 0. -1.
         -6    1    1    2    0  502 -0.85889847007E+02  0.70982424296E+02 -0.97897338018E+02  0.22711992244E+03  0.17200000000E+03 0. -1.
<mgrwt>
<rscale>  2 0.20493797E+03</rscale>
<asrwt>0</asrwt>
<pdfrwt beam="1">  1       21 0.22194858E-01 0.20493797E+03</pdfrwt>
<pdfrwt beam="2">  1       21 0.14924012E+00 0.20493797E+03</pdfrwt>
<totfact> 0.56933451E+03</totfact>
</mgrwt>
</event>
<event>
 4    1  0.2417478E-001  0.1782876E+03  0.7546771E-02  0.1169471E+00
         21   -1    0    0  503  502  0.00000000000E+00  0.00000000000E+00  0.13980418955E+04  0.13980418955E+04  0.00000000000E+00 0. -1.
         21   -1    0    0  501  503 -0.00000000000E+00 -0.00000000000E+00 -0.29096886063E+02  0.29096886063E+02  0.00000000000E+00 0. -1.
          6    1    1    2  501    0  0.22578534693E+02 -0.41142251040E+02  0.35084853449E+03  0.39354944950E+03  0.17200000000E+03 0. -1.
         -6    1    1    2    0  502 -0.22578534693E+02  0.41142251040E+02  0.10180964749E+04  0.10335893321E+04  0.17200000000E+03 0. -1.
<mgrwt>
<rscale>  2 0.17828762E+03</rscale>
<asrwt>0</asrwt>
<pdfrwt beam="1">  1       21 0.34951025E+00 0.17828762E+03</pdfrwt>
<pdfrwt beam="2">  1       21 0.72742262E-02 0.17828762E+03</pdfrwt>
<totfact> 0.25426529E+03</totfact>
</mgrwt>
</event>
<event>
 4    1  0.2417478E-001  0.2382354E+03  0.7546771E-02  0.1120974E+00
         21   -1    0    0  501  502  0.00000000000E+00  0.00000000000E+00  0.12480183931E+03  0.12480183931E+03  0.00000000000E+00 0.  1.
         21   -1    0    0  502  503 -0.00000000000E+00 -0.00000000000E+00 -0.64710660894E+03  0.64710660894E+03  0.00000000000E+00 0. -1.
          6    1    1    2  501    0  0.16420271358E+03 -0.14477453862E+02 -0.47156845256E+03  0.52833032590E+03  0.17200000000E+03 0. -1.
         -6    1    1    2    0  503 -0.16420271358E+03  0.14477453862E+02 -0.50736317069E+02  0.24357812235E+03  0.17200000000E+03 0.  1.
<mgrwt>
<rscale>  2 0.23823545E+03</rscale>
<asrwt>0</asrwt>
<pdfrwt beam="1">  1       21 0.31200461E-01 0.23823545E+03</pdfrwt>
<pdfrwt beam="2">  1       21 0.16177665E+00 0.23823545E+03</pdfrwt>
<totfact> 0.23164825E+03</totfact>
</mgrwt>
</event>
<event>
 4    1  0.2417478E-001  0.2693689E+03  0.7546771E-02  0.1101641E+00
         21   -1    0    0  503  502  0.00000000000E+00  0.00000000000E+00  0.46235688590E+03  0.46235688590E+03  0.00000000000E+00 0.  1.
         21   -1    0    0  501  503 -0.00000000000E+00 -0.00000000000E+00 -0.16027680775E+03  0.16027680775E+03  0.00000000000E+00 0.  1.
          6    1    1    2  501    0  0.88100567834E+02  0.18765362710E+03  0.10608152155E+03  0.28950454751E+03  0.17200000000E+03 0.  1.
         -6    1    1    2    0  502 -0.88100567834E+02 -0.18765362710E+03  0.19599855660E+03  0.33312914614E+03  0.17200000000E+03 0.  1.
<mgrwt>
<rscale>  2 0.26936888E+03</rscale>
<asrwt>0</asrwt>
<pdfrwt beam="1">  1       21 0.11558922E+00 0.26936888E+03</pdfrwt>
<pdfrwt beam="2">  1       21 0.40069203E-01 0.26936888E+03</pdfrwt>
<totfact> 0.32840827E+03</totfact>
</mgrwt>
</event>
<event>
 4    1  0.2417478E-001  0.2257535E+03  0.7546771E-02  0.1129665E+00
         21   -1    0    0  503  502  0.00000000000E+00  0.00000000000E+00  0.19335101028E+04  0.19335101028E+04  0.00000000000E+00 0. -1.
         21   -1    0    0  501  503 -0.00000000000E+00 -0.00000000000E+00 -0.31363734583E+02  0.31363734583E+02  0.00000000000E+00 0.  1.
          6    1    1    2  501    0 -0.12594758710E+03  0.74282117473E+02  0.55861039723E+03  0.60250328096E+03  0.17200000000E+03 0.  1.
         -6    1    1    2    0  502  0.12594758710E+03 -0.74282117473E+02  0.13435359710E+04  0.13623705564E+04  0.17200000000E+03 0. -1.
<mgrwt>
<rscale>  2 0.22575347E+03</rscale>
<asrwt>0</asrwt>
<pdfrwt beam="1">  1       21 0.48337712E+00 0.22575347E+03</pdfrwt>
<pdfrwt beam="2">  1       21 0.78409402E-02 0.22575347E+03</pdfrwt>
<totfact> 0.29132157E+02</totfact>
</mgrwt>
</event>
<event>
 4    1  0.2417478E-001  0.2068020E+03  0.7546771E-02  0.1144124E+00
         21   -1    0    0  503  502  0.00000000000E+00  0.00000000000E+00  0.29747135930E+03  0.29747135930E+03  0.00000000000E+00 0. -1.
         21   -1    0    0  501  503 -0.00000000000E+00 -0.00000000000E+00 -0.15412489844E+03  0.15412489844E+03  0.00000000000E+00 0.  1.
          6    1    1    2  501    0  0.37648191791E+02 -0.10846967143E+03  0.13142337281E+02  0.20721915210E+03  0.17200000000E+03 0.  1.
         -6    1    1    2    0  502 -0.37648191791E+02  0.10846967143E+03  0.13020412358E+03  0.24437710564E+03  0.17200000000E+03 0. -1.
<mgrwt>
<rscale>  2 0.20680197E+03</rscale>
<asrwt>0</asrwt>
<pdfrwt beam="1">  1       21 0.74367839E-01 0.20680197E+03</pdfrwt>
<pdfrwt beam="2">  1       21 0.38531225E-01 0.20680197E+03</pdfrwt>
<totfact> 0.10422362E+04</totfact>
</mgrwt>
</event>
<event>
 4    1  0.2417478E-001  0.1889381E+03  0.7546771E-02  0.1159423E+00
         21   -1    0    0  501  502  0.00000000000E+00  0.00000000000E+00  0.18925527642E+03  0.18925527642E+03  0.00000000000E+00 0.  1.
         21   -1    0    0  502  503 -0.00000000000E+00 -0.00000000000E+00 -0.19235102513E+03  0.19235102513E+03  0.00000000000E+00 0.  1.
          6    1    1    2  501    0 -0.66753341803E+02  0.40713575534E+02 -0.28116446249E+02  0.19101868606E+03  0.17200000000E+03 0.  1.
         -6    1    1    2    0  503  0.66753341803E+02 -0.40713575534E+02  0.25020697534E+02  0.19058761549E+03  0.17200000000E+03 0.  1.
<mgrwt>
<rscale>  2 0.18893810E+03</rscale>
<asrwt>0</asrwt>
<pdfrwt beam="1">  1       21 0.47313819E-01 0.18893810E+03</pdfrwt>
<pdfrwt beam="2">  1       21 0.48087756E-01 0.18893810E+03</pdfrwt>
<totfact> 0.17698938E+04</totfact>
</mgrwt>
</event>
<event>
 4    1  0.2417478E-001  0.2094315E+03  0.7546771E-02  0.1142017E+00
         21   -1    0    0  501  502  0.00000000000E+00  0.00000000000E+00  0.18679063759E+03  0.18679063759E+03  0.00000000000E+00 0.  1.
         21   -1    0    0  502  503 -0.00000000000E+00 -0.00000000000E+00 -0.23501800860E+03  0.23501800860E+03  0.00000000000E+00 0. -1.
          6    1    1    2  501    0  0.31744030518E+02 -0.11519493798E+03 -0.17940794641E+02  0.21019854738E+03  0.17200000000E+03 0. -1.
         -6    1    1    2    0  503 -0.31744030518E+02  0.11519493798E+03 -0.30286576368E+02  0.21161009881E+03  0.17200000000E+03 0.  1.
<mgrwt>
<rscale>  2 0.20943151E+03</rscale>
<asrwt>0</asrwt>
<pdfrwt beam="1">  1       21 0.46697660E-01 0.20943151E+03</pdfrwt>
<pdfrwt beam="2">  1       21 0.58754502E-01 0.20943151E+03</pdfrwt>
<totfact> 0.11769380E+04</totfact>
</mgrwt>
</event>
<event>
 4    1  0.2417478E-001  0.3401095E+03  0.7546771E-02  0.1066749E+00
         21   -1    0    0  503  502  0.00000000000E+00  0.00000000000E+00  0.78566111437E+03  0.78566111437E+03  0.00000000000E+00 0.  1.
         21   -1    0    0  501  503 -0.00000000000E+00 -0.00000000000E+00 -0.16205853282E+03  0.16205853282E+03  0.00000000000E+00 0. -1.
          6    1    1    2  501    0  0.29311641262E+03 -0.13161185025E+02  0.16847234472E+03  0.37954891526E+03  0.17200000000E+03 0. -1.
         -6    1    1    2    0  502 -0.29311641262E+03  0.13161185025E+02  0.45513023683E+03  0.56817073192E+03  0.17200000000E+03 0.  1.
<mgrwt>
<rscale>  2 0.34010946E+03</rscale>
<asrwt>0</asrwt>
<pdfrwt beam="1">  1       21 0.19641527E+00 0.34010946E+03</pdfrwt>
<pdfrwt beam="2">  1       21 0.40514635E-01 0.34010946E+03</pdfrwt>
<totfact> 0.73224060E+02</totfact>
</mgrwt>
</event>
<event>
 4    1  0.2417478E-001  0.1905005E+03  0.7546771E-02  0.1158011E+00
         21   -1    0    0  503  502  0.00000000000E+00  0.00000000000E+00  0.64241779969E+03  0.64241779969E+03  0.00000000000E+00 0. -1.
         21   -1    0    0  501  503 -0.00000000000E+00 -0.00000000000E+00 -0.59662934308E+02  0.59662934308E+02  0.00000000000E+00 0. -1.
          6    1    1    2  501    0 -0.78867841333E+02  0.22052310100E+02  0.37232572168E+03  0.41823065861E+03  0.17200000000E+03 0. -1.
         -6    1    1    2    0  502  0.78867841333E+02 -0.22052310100E+02  0.21042914370E+03  0.28385007538E+03  0.17200000000E+03 0. -1.
<mgrwt>
<rscale>  2 0.19050050E+03</rscale>
<asrwt>0</asrwt>
<pdfrwt beam="1">  1       21 0.16060443E+00 0.19050050E+03</pdfrwt>
<pdfrwt beam="2">  1       21 0.14915736E-01 0.19050050E+03</pdfrwt>
<totfact> 0.98910266E+03</totfact>
</mgrwt>
</event>
<event>
 4    1  0.2417478E-001  0.1882544E+03  0.7546771E-02  0.1160045E+00
         21   -1    0    0  501  502  0.00000000000E+00  0.00000000000E+00  0.13887922670E+04  0.13887922670E+04  0.00000000000E+00 0.  1.
         21   -1    0    0  502  503 -0.00000000000E+00 -0.00000000000E+00 -0.25950655424E+02  0.25950655424E+02  0.00000000000E+00 0.  1.
          6    1    1    2  501    0  0.43710953000E+02 -0.62809935210E+02  0.77271670449E+03  0.79531807522E+03  0.17200000000E+03 0.  1.
         -6    1    1    2    0  503 -0.43710953000E+02  0.62809935210E+02  0.59012490711E+03  0.61942484723E+03  0.17200000000E+03 0.  1.
<mgrwt>
<rscale>  2 0.18825444E+03</rscale>
<asrwt>0</asrwt>
<pdfrwt beam="1">  1       21 0.34719782E+00 0.18825444E+03</pdfrwt>
<pdfrwt beam="2">  1       21 0.64876685E-02 0.18825444E+03</pdfrwt>
<totfact> 0.31508246E+03</totfact>
</mgrwt>
</event>
<event>
 4    1  0.2417478E-001  0.3106782E+03  0.7546771E-02  0.1080021E+00
         21   -1    0    0  503  502  0.00000000000E+00  0.00000000000E+00  0.57399038923E+03  0.57399038923E+03  0.00000000000E+00 0.  1.
         21   -1    0    0  501  503 -0.00000000000E+00 -0.00000000000E+00 -0.17404378308E+03  0.17404378308E+03  0.00000000000E+00 0. -1.
          6    1    1    2  501    0 -0.24183236835E+03  0.91945767484E+02  0.26875524343E+03  0.41079228256E+03  0.17200000000E+03 0.  1.
         -6    1    1    2    0  502  0.24183236835E+03 -0.91945767484E+02  0.13119136272E+03  0.33724188974E+03  0.17200000000E+03 0. -1.
<mgrwt>
<rscale>  2 0.31067816E+03</rscale>
<asrwt>0</asrwt>
<pdfrwt beam="1">  1       21 0.14349759E+00 0.31067816E+03</pdfrwt>
<pdfrwt beam="2">  1       21 0.43510947E-01 0.31067816E+03</pdfrwt>
<totfact> 0.15554338E+03</totfact>
</mgrwt>
</event>
<event>
 4    1  0.2417478E-001  0.1840251E+03  0.7546771E-02  0.1163963E+00
         21   -1    0    0  503  502  0.00000000000E+00  0.00000000000E+00  0.30571598966E+03  0.30571598966E+03  0.00000000000E+00 0.  1.
         21   -1    0    0  501  503 -0.00000000000E+00 -0.00000000000E+00 -0.11680160705E+03  0.11680160705E+03  0.00000000000E+00 0. -1.
          6    1    1    2  501    0 -0.49824873433E+02  0.42411280216E+02  0.14245046132E+03  0.23271735782E+03  0.17200000000E+03 0.  1.
         -6    1    1    2    0  502  0.49824873433E+02 -0.42411280216E+02  0.46463921290E+02  0.18980023889E+03  0.17200000000E+03 0. -1.
<mgrwt>
<rscale>  2 0.18402509E+03</rscale>
<asrwt>0</asrwt>
<pdfrwt beam="1">  1       21 0.76428996E-01 0.18402509E+03</pdfrwt>
<pdfrwt beam="2">  1       21 0.29200402E-01 0.18402509E+03</pdfrwt>
<totfact> 0.17210689E+04</totfact>
</mgrwt>
</event>
<event>
 4    1  0.2417478E-001  0.2184673E+03  0.7546771E-02  0.1135031E+00
         21   -1    0    0  501  502  0.00000000000E+00  0.00000000000E+00  0.36820736396E+03  0.36820736396E+03  0.00000000000E+00 0. -1.
         21   -1    0    0  502  503 -0.00000000000E+00 -0.00000000000E+00 -0.14403792656E+03  0.14403792656E+03  0.00000000000E+00 0.  1.
          6    1    1    2  501    0  0.11577045741E+03  0.68856127765E+02  0.31058970999E+02  0.22066405421E+03  0.17200000000E+03 0.  1.
         -6    1    1    2    0  503 -0.11577045741E+03 -0.68856127765E+02  0.19311046640E+03  0.29158123632E+03  0.17200000000E+03 0.  1.
<mgrwt>
<rscale>  2 0.21846731E+03</rscale>
<asrwt>0</asrwt>
<pdfrwt beam="1">  1       21 0.92051839E-01 0.21846731E+03</pdfrwt>
<pdfrwt beam="2">  1       21 0.36009482E-01 0.21846731E+03</pdfrwt>
<totfact> 0.72788989E+03</totfact>
</mgrwt>
</event>
<event>
 4    1  0.2417478E-001  0.2201170E+03  0.7546771E-02  0.1133796E+00
         21   -1    0    0  503  502  0.00000000000E+00  0.00000000000E+00  0.44541868879E+03  0.44541868879E+03  0.00000000000E+00 0.  1.
         21   -1    0    0  501  503 -0.00000000000E+00 -0.00000000000E+00 -0.11345611816E+03  0.11345611816E+03  0.00000000000E+00 0. -1.
          6    1    1    2  501    0  0.20092908503E+02  0.13588139968E+03  0.22272722108E+03  0.31314356893E+03  0.17200000000E+03 0. -1.
         -6    1    1    2    0  502 -0.20092908503E+02 -0.13588139968E+03  0.10923534955E+03  0.24573123803E+03  0.17200000000E+03 0.  1.
<mgrwt>
<rscale>  2 0.22011697E+03</rscale>
<asrwt>0</asrwt>
<pdfrwt beam="1">  1       21 0.11135467E+00 0.22011697E+03</pdfrwt>
<pdfrwt beam="2">  1       21 0.28364031E-01 0.22011697E+03</pdfrwt>
<totfact> 0.73852244E+03</totfact>
</mgrwt>
</event>
<event>
 4    1  0.2417478E-001  0.1807324E+03  0.7546771E-02  0.1167096E+00
         21   -1    0    0  503  502  0.00000000000E+00  0.00000000000E+00  0.10029205050E+03  0.10029205050E+03  0.00000000000E+00 0. -1.
         21   -1    0    0  501  503 -0.00000000000E+00 -0.00000000000E+00 -0.45857471614E+03  0.45857471614E+03  0.00000000000E+00 0. -1.
          6    1    1    2  501    0 -0.52335752956E+02 -0.18470516914E+02 -0.32956271036E+03  0.37586669325E+03  0.17200000000E+03 0. -1.
         -6    1    1    2    0  502  0.52335752956E+02  0.18470516914E+02 -0.28719955280E+02  0.18300007340E+03  0.17200000000E+03 0. -1.
<mgrwt>
<rscale>  2 0.18073237E+03</rscale>
<asrwt>0</asrwt>
<pdfrwt beam="1">  1       21 0.25073013E-01 0.18073237E+03</pdfrwt>
<pdfrwt beam="2">  1       21 0.11464368E+00 0.18073237E+03</pdfrwt>
<totfact> 0.89762824E+03</totfact>
</mgrwt>
</event>
<event>
 4    1  0.2417478E-001  0.2564764E+03  0.7546771E-02  0.1109279E+00
         21   -1    0    0  501  502  0.00000000000E+00  0.00000000000E+00  0.62421391681E+03  0.62421391681E+03  0.00000000000E+00 0.  1.
         21   -1    0    0  502  503 -0.00000000000E+00 -0.00000000000E+00 -0.11655297731E+03  0.11655297731E+03  0.00000000000E+00 0. -1.
          6    1    1    2  501    0  0.17852282008E+03 -0.65770478980E+02  0.36850291276E+03  0.44897054459E+03  0.17200000000E+03 0.  1.
         -6    1    1    2    0  503 -0.17852282008E+03  0.65770478980E+02  0.13915802674E+03  0.29179634953E+03  0.17200000000E+03 0. -1.
<mgrwt>
<rscale>  2 0.25647642E+03</rscale>
<asrwt>0</asrwt>
<pdfrwt beam="1">  1       21 0.15605347E+00 0.25647642E+03</pdfrwt>
<pdfrwt beam="2">  1       21 0.29138246E-01 0.25647642E+03</pdfrwt>
<totfact> 0.28823638E+03</totfact>
</mgrwt>
</event>
<event>
 4    1  0.2417478E-001  0.2159782E+03  0.7546771E-02  0.1136917E+00
         21   -1    0    0  503  502  0.00000000000E+00  0.00000000000E+00  0.40012319166E+03  0.40012319166E+03  0.00000000000E+00 0. -1.
         21   -1    0    0  501  503 -0.00000000000E+00 -0.00000000000E+00 -0.24153104069E+03  0.24153104069E+03  0.00000000000E+00 0.  1.
          6    1    1    2  501    0  0.40478750983E+02 -0.12419354941E+03 -0.15146026253E+03  0.26379305927E+03  0.17200000000E+03 0.  1.
         -6    1    1    2    0  502 -0.40478750983E+02  0.12419354941E+03  0.31005241350E+03  0.37786117307E+03  0.17200000000E+03 0. -1.
<mgrwt>
<rscale>  2 0.21597816E+03</rscale>
<asrwt>0</asrwt>
<pdfrwt beam="1">  1       21 0.10003080E+00 0.21597816E+03</pdfrwt>
<pdfrwt beam="2">  1       21 0.60382761E-01 0.21597816E+03</pdfrwt>
<totfact> 0.20543496E+03</totfact>
</mgrwt>
</event>
<event>
 4    1  0.2417478E-001  0.2625306E+03  0.7546771E-02  0.1105632E+00
         21   -1    0    0  501  502  0.00000000000E+00  0.00000000000E+00  0.10724329932E+03  0.10724329932E+03  0.00000000000E+00 0.  1.
         21   -1    0    0  502  503 -0.00000000000E+00 -0.00000000000E+00 -0.68105304580E+03  0.68105304580E+03  0.00000000000E+00 0.  1.
          6    1    1    2  501    0 -0.89382843288E+02 -0.17705653538E+03 -0.19333734814E+03  0.32603932214E+03  0.17200000000E+03 0.  1.
         -6    1    1    2    0  503  0.89382843288E+02  0.17705653538E+03 -0.38047239834E+03  0.46225702298E+03  0.17200000000E+03 0.  1.
<mgrwt>
<rscale>  2 0.26253059E+03</rscale>
<asrwt>0</asrwt>
<pdfrwt beam="1">  1       21 0.26810825E-01 0.26253059E+03</pdfrwt>
<pdfrwt beam="2">  1       21 0.17026326E+00 0.26253059E+03</pdfrwt>
<totfact> 0.26565470E+03</totfact>
</mgrwt>
</event>
<event>
 4    1  0.2417478E-001  0.2118305E+03  0.7546771E-02  0.1140125E+00
         21   -1    0    0  503  502  0.00000000000E+00  0.00000000000E+00  0.29035902224E+03  0.29035902224E+03  0.00000000000E+00 0.  1.
         21   -1    0    0  501  503 -0.00000000000E+00 -0.00000000000E+00 -0.19595231057E+03  0.19595231057E+03  0.00000000000E+00 0. -1.
          6    1    1    2  501    0 -0.10028360337E+03 -0.72328097101E+02 -0.64578841224E+02  0.22145559706E+03  0.17200000000E+03 0. -1.
         -6    1    1    2    0  502  0.10028360337E+03  0.72328097101E+02  0.15898555288E+03  0.26485573575E+03  0.17200000000E+03 0.  1.
<mgrwt>
<rscale>  2 0.21183049E+03</rscale>
<asrwt>0</asrwt>
<pdfrwt beam="1">  1       21 0.72589755E-01 0.21183049E+03</pdfrwt>
<pdfrwt beam="2">  1       21 0.48988078E-01 0.21183049E+03</pdfrwt>
<totfact> 0.67040903E+03</totfact>
</mgrwt>
</event>
<event>
 4    1  0.2417478E-001  0.3211352E+03  0.7546771E-02  0.1075128E+00
         21   -1    0    0  503  502  0.00000000000E+00  0.00000000000E+00  0.10089551723E+04  0.10089551723E+04  0.00000000000E+00 0.  1.
         21   -1    0    0  501  503 -0.00000000000E+00 -0.00000000000E+00 -0.19602053780E+03  0.19602053780E+03  0.00000000000E+00 0.  1.
          6    1    1    2  501    0 -0.26283062300E+03 -0.66812191206E+02 -0.10322972662E+02  0.32130105672E+03  0.17200000000E+03 0.  1.
         -6    1    1    2    0  502  0.26283062300E+03  0.66812191206E+02  0.82325760717E+03  0.88367465339E+03  0.17200000000E+03 0.  1.
<mgrwt>
<rscale>  2 0.32113518E+03</rscale>
<asrwt>0</asrwt>
<pdfrwt beam="1">  1       21 0.25223878E+00 0.32113518E+03</pdfrwt>
<pdfrwt beam="2">  1       21 0.49005137E-01 0.32113518E+03</pdfrwt>
<totfact> 0.22295089E+02</totfact>
</mgrwt>
</event>
<event>
 4    1  0.2417478E-001  0.2084660E+03  0.7546771E-02  0.1142787E+00
         21   -1    0    0  503  502  0.00000000000E+00  0.00000000000E+00  0.78064699056E+03  0.78064699056E+03  0.00000000000E+00 0.  1.
         21   -1    0    0  501  503 -0.00000000000E+00 -0.00000000000E+00 -0.72344452881E+02  0.72344452881E+02  0.00000000000E+00 0. -1.
          6    1    1    2  501    0  0.11508438984E+03  0.25092929997E+02  0.14939039888E+03  0.25646747006E+03  0.17200000000E+03 0. -1.
         -6    1    1    2    0  502 -0.11508438984E+03 -0.25092929997E+02  0.55891213881E+03  0.59652397339E+03  0.17200000000E+03 0.  1.
<mgrwt>
<rscale>  2 0.20846600E+03</rscale>
<asrwt>0</asrwt>
<pdfrwt beam="1">  1       21 0.19516172E+00 0.20846600E+03</pdfrwt>
<pdfrwt beam="2">  1       21 0.18086116E-01 0.20846600E+03</pdfrwt>
<totfact> 0.39570808E+03</totfact>
</mgrwt>
</event>
<event>
 4    1  0.2417478E-001  0.2129513E+03  0.7546771E-02  0.1139250E+00
         21   -1    0    0  503  502  0.00000000000E+00  0.00000000000E+00  0.36716279286E+03  0.36716279286E+03  0.00000000000E+00 0. -1.
         21   -1    0    0  501  503 -0.00000000000E+00 -0.00000000000E+00 -0.14584113036E+03  0.14584113036E+03  0.00000000000E+00 0. -1.
          6    1    1    2  501    0 -0.23947086725E+01 -0.12553294232E+03  0.10290207253E+02  0.21319977158E+03  0.17200000000E+03 0. -1.
         -6    1    1    2    0  502  0.23947086725E+01  0.12553294232E+03  0.21103145524E+03  0.29980415164E+03  0.17200000000E+03 0. -1.
<mgrwt>
<rscale>  2 0.21295130E+03</rscale>
<asrwt>0</asrwt>
<pdfrwt beam="1">  1       21 0.91790697E-01 0.21295130E+03</pdfrwt>
<pdfrwt beam="2">  1       21 0.36460283E-01 0.21295130E+03</pdfrwt>
<totfact> 0.71745446E+03</totfact>
</mgrwt>
</event>
<event>
 4    1  0.2417478E-001  0.1839664E+03  0.7546771E-02  0.1164019E+00
         21   -1    0    0  503  502  0.00000000000E+00  0.00000000000E+00  0.22826578774E+03  0.22826578774E+03  0.00000000000E+00 0. -1.
         21   -1    0    0  501  503 -0.00000000000E+00 -0.00000000000E+00 -0.15127420087E+03  0.15127420087E+03  0.00000000000E+00 0. -1.
          6    1    1    2  501    0  0.57668964045E+02  0.30560354415E+02  0.11727028337E+02  0.18433981629E+03  0.17200000000E+03 0.  1.
         -6    1    1    2    0  502 -0.57668964045E+02 -0.30560354415E+02  0.65264558533E+02  0.19520017233E+03  0.17200000000E+03 0.  1.
<mgrwt>
<rscale>  2 0.18396642E+03</rscale>
<asrwt>0</asrwt>
<pdfrwt beam="1">  1       21 0.57066447E-01 0.18396642E+03</pdfrwt>
<pdfrwt beam="2">  1       21 0.37818550E-01 0.18396642E+03</pdfrwt>
<totfact> 0.19550402E+04</totfact>
</mgrwt>
</event>
<event>
 4    1  0.2417478E-001  0.2364213E+03  0.7546771E-02  0.1122200E+00
         21   -1    0    0  503  502  0.00000000000E+00  0.00000000000E+00  0.51581413045E+03  0.51581413045E+03  0.00000000000E+00 0. -1.
         21   -1    0    0  501  503 -0.00000000000E+00 -0.00000000000E+00 -0.11084613890E+03  0.11084613890E+03  0.00000000000E+00 0. -1.
          6    1    1    2  501    0 -0.13463660225E+03  0.90465439958E+02  0.15558442651E+03  0.28302212681E+03  0.17200000000E+03 0. -1.
         -6    1    1    2    0  502  0.13463660225E+03 -0.90465439958E+02  0.24938356504E+03  0.34363814253E+03  0.17200000000E+03 0. -1.
<mgrwt>
<rscale>  2 0.23642126E+03</rscale>
<asrwt>0</asrwt>
<pdfrwt beam="1">  1       21 0.12895353E+00 0.23642126E+03</pdfrwt>
<pdfrwt beam="2">  1       21 0.27711536E-01 0.23642126E+03</pdfrwt>
<totfact> 0.53057750E+03</totfact>
</mgrwt>
</event>
<event>
 4    1  0.2417478E-001  0.2566547E+03  0.7546771E-02  0.1109170E+00
         21   -1    0    0  503  502  0.00000000000E+00  0.00000000000E+00  0.12997318389E+03  0.12997318389E+03  0.00000000000E+00 0.  1.
         21   -1    0    0  501  503 -0.00000000000E+00 -0.00000000000E+00 -0.52607692826E+03  0.52607692826E+03  0.00000000000E+00 0.  1.
          6    1    1    2  501    0 -0.15401239864E+03 -0.11210617632E+03 -0.26082834671E+03  0.36592764332E+03  0.17200000000E+03 0.  1.
         -6    1    1    2    0  502  0.15401239864E+03  0.11210617632E+03 -0.13527539767E+03  0.29012246883E+03  0.17200000000E+03 0.  1.
<mgrwt>
<rscale>  2 0.25665466E+03</rscale>
<asrwt>0</asrwt>
<pdfrwt beam="1">  1       21 0.32493296E-01 0.25665466E+03</pdfrwt>
<pdfrwt beam="2">  1       21 0.13151923E+00 0.25665466E+03</pdfrwt>
<totfact> 0.36439679E+03</totfact>
</mgrwt>
</event>
<event>
 4    1  0.2417478E-001  0.1753795E+03  0.7546771E-02  0.1172351E+00
         21   -1    0    0  501  502  0.00000000000E+00  0.00000000000E+00  0.10810359445E+03  0.10810359445E+03  0.00000000000E+00 0. -1.
         21   -1    0    0  502  503 -0.00000000000E+00 -0.00000000000E+00 -0.31032516200E+03  0.31032516200E+03  0.00000000000E+00 0. -1.
          6    1    1    2  501    0 -0.17902914128E+02 -0.29213757652E+02 -0.40783862511E+02  0.18005910533E+03  0.17200000000E+03 0. -1.
         -6    1    1    2    0  503  0.17902914128E+02  0.29213757652E+02 -0.16143770504E+03  0.23836965113E+03  0.17200000000E+03 0. -1.
<mgrwt>
<rscale>  2 0.17537947E+03</rscale>
<asrwt>0</asrwt>
<pdfrwt beam="1">  1       21 0.27025899E-01 0.17537947E+03</pdfrwt>
<pdfrwt beam="2">  1       21 0.77581290E-01 0.17537947E+03</pdfrwt>
<totfact> 0.19432111E+04</totfact>
</mgrwt>
</event>
<event>
 4    1  0.2417478E-001  0.2279325E+03  0.7546771E-02  0.1128103E+00
         21   -1    0    0  501  502  0.00000000000E+00  0.00000000000E+00  0.46335695683E+02  0.46335695683E+02  0.00000000000E+00 0. -1.
         21   -1    0    0  502  503 -0.00000000000E+00 -0.00000000000E+00 -0.11238876351E+04  0.11238876351E+04  0.00000000000E+00 0.  1.
          6    1    1    2  501    0 -0.42076953833E+02  0.14352266447E+03 -0.56719950271E+03  0.61128430467E+03  0.17200000000E+03 0. -1.
         -6    1    1    2    0  503  0.42076953833E+02 -0.14352266447E+03 -0.51035243669E+03  0.55893902610E+03  0.17200000000E+03 0.  1.
<mgrwt>
<rscale>  2 0.22793250E+03</rscale>
<asrwt>0</asrwt>
<pdfrwt beam="1">  1       21 0.11583924E-01 0.22793250E+03</pdfrwt>
<pdfrwt beam="2">  1       21 0.28097189E+00 0.22793250E+03</pdfrwt>
<totfact> 0.26404119E+03</totfact>
</mgrwt>
</event>
<event>
 4    1  0.2417478E-001  0.1988281E+03  0.7546771E-02  0.1150731E+00
         21   -1    0    0  503  502  0.00000000000E+00  0.00000000000E+00  0.11549971258E+04  0.11549971258E+04  0.00000000000E+00 0. -1.
         21   -1    0    0  501  503 -0.00000000000E+00 -0.00000000000E+00 -0.34389730019E+02  0.34389730019E+02  0.00000000000E+00 0. -1.
          6    1    1    2  501    0 -0.44141019292E+02 -0.89443826509E+02  0.51945421258E+03  0.55620617279E+03  0.17200000000E+03 0. -1.
         -6    1    1    2    0  502  0.44141019292E+02  0.89443826509E+02  0.60115318317E+03  0.63318068299E+03  0.17200000000E+03 0. -1.
<mgrwt>
<rscale>  2 0.19882814E+03</rscale>
<asrwt>0</asrwt>
<pdfrwt beam="1">  1       21 0.28874915E+00 0.19882814E+03</pdfrwt>
<pdfrwt beam="2">  1       21 0.85974363E-02 0.19882814E+03</pdfrwt>
<totfact> 0.41641458E+03</totfact>
</mgrwt>
</event>
<event>
 4    1  0.2417478E-001  0.2017185E+03  0.7546771E-02  0.1148297E+00
         21   -1    0    0  501  502  0.00000000000E+00  0.00000000000E+00  0.39575507230E+02  0.39575507230E+02  0.00000000000E+00 0.  1.
         21   -1    0    0  502  503 -0.00000000000E+00 -0.00000000000E+00 -0.12561629649E+04  0.12561629649E+04  0.00000000000E+00 0.  1.
          6    1    1    2  501    0  0.10114758544E+03 -0.29589018184E+02 -0.33228347623E+03  0.38871924652E+03  0.17200000000E+03 0.  1.
         -6    1    1    2    0  503 -0.10114758544E+03  0.29589018184E+02 -0.88430398144E+03  0.90701922561E+03  0.17200000000E+03 0.  1.
<mgrwt>
<rscale>  2 0.20171848E+03</rscale>
<asrwt>0</asrwt>
<pdfrwt beam="1">  1       21 0.98938767E-02 0.20171848E+03</pdfrwt>
<pdfrwt beam="2">  1       21 0.31404075E+00 0.20171848E+03</pdfrwt>
<totfact> 0.23162578E+03</totfact>
</mgrwt>
</event>
<event>
 4    1  0.2417478E-001  0.1845141E+03  0.7546771E-02  0.1163504E+00
         21   -1    0    0  503  502  0.00000000000E+00  0.00000000000E+00  0.24463428330E+03  0.24463428330E+03  0.00000000000E+00 0. -1.
         21   -1    0    0  501  503 -0.00000000000E+00 -0.00000000000E+00 -0.14561525305E+03  0.14561525305E+03  0.00000000000E+00 0. -1.
          6    1    1    2  501    0  0.38317703141E+02 -0.54710039973E+02  0.90565151859E+02  0.20554192171E+03  0.17200000000E+03 0. -1.
         -6    1    1    2    0  502 -0.38317703141E+02  0.54710039973E+02  0.84538783928E+01  0.18470761464E+03  0.17200000000E+03 0. -1.
<mgrwt>
<rscale>  2 0.18451405E+03</rscale>
<asrwt>0</asrwt>
<pdfrwt beam="1">  1       21 0.61158570E-01 0.18451405E+03</pdfrwt>
<pdfrwt beam="2">  1       21 0.36403814E-01 0.18451405E+03</pdfrwt>
<totfact> 0.18186153E+04</totfact>
</mgrwt>
</event>
<event>
 4    1  0.2417478E-001  0.1741544E+03  0.7546771E-02  0.1173583E+00
         21   -1    0    0  501  502  0.00000000000E+00  0.00000000000E+00  0.56137256140E+02  0.56137256140E+02  0.00000000000E+00 0.  1.
         21   -1    0    0  502  503 -0.00000000000E+00 -0.00000000000E+00 -0.60779317318E+03  0.60779317318E+03  0.00000000000E+00 0.  1.
          6    1    1    2  501    0 -0.54272915461E+01 -0.26764083961E+02 -0.16518783363E+03  0.24003498092E+03  0.17200000000E+03 0.  1.
         -6    1    1    2    0  503  0.54272915461E+01  0.26764083961E+02 -0.38646808341E+03  0.42389544841E+03  0.17200000000E+03 0.  1.
<mgrwt>
<rscale>  2 0.17415445E+03</rscale>
<asrwt>0</asrwt>
<pdfrwt beam="1">  1       21 0.14034314E-01 0.17415445E+03</pdfrwt>
<pdfrwt beam="2">  1       21 0.15194829E+00 0.17415445E+03</pdfrwt>
<totfact> 0.12966840E+04</totfact>
</mgrwt>
</event>
<event>
 4    1  0.2417478E-001  0.2736792E+03  0.7546771E-02  0.1099192E+00
         21   -1    0    0  503  502  0.00000000000E+00  0.00000000000E+00  0.75831374655E+02  0.75831374655E+02  0.00000000000E+00 0. -1.
         21   -1    0    0  501  503 -0.00000000000E+00 -0.00000000000E+00 -0.98928688837E+03  0.98928688837E+03  0.00000000000E+00 0.  1.
          6    1    1    2  501    0  0.21184941070E+03 -0.20883802661E+02 -0.43554568028E+03  0.51439318196E+03  0.17200000000E+03 0.  1.
         -6    1    1    2    0  502 -0.21184941070E+03  0.20883802661E+02 -0.47790983343E+03  0.55072508107E+03  0.17200000000E+03 0. -1.
<mgrwt>
<rscale>  2 0.27367920E+03</rscale>
<asrwt>0</asrwt>
<pdfrwt beam="1">  1       21 0.18957844E-01 0.27367920E+03</pdfrwt>
<pdfrwt beam="2">  1       21 0.24732172E+00 0.27367920E+03</pdfrwt>
<totfact> 0.16239637E+03</totfact>
</mgrwt>
</event>
<event>
 4    1  0.2417478E-001  0.2144201E+03  0.7546771E-02  0.1138113E+00
         21   -1    0    0  503  502  0.00000000000E+00  0.00000000000E+00  0.22509699730E+03  0.22509699730E+03  0.00000000000E+00 0. -1.
         21   -1    0    0  501  503 -0.00000000000E+00 -0.00000000000E+00 -0.26413623344E+03  0.26413623344E+03  0.00000000000E+00 0. -1.
          6    1    1    2  501    0  0.10813604295E+03  0.68546196194E+02 -0.13599568590E+03  0.25391103044E+03  0.17200000000E+03 0. -1.
         -6    1    1    2    0  502 -0.10813604295E+03 -0.68546196194E+02  0.96956449763E+02  0.23532220029E+03  0.17200000000E+03 0. -1.
<mgrwt>
<rscale>  2 0.21442011E+03</rscale>
<asrwt>0</asrwt>
<pdfrwt beam="1">  1       21 0.56274250E-01 0.21442011E+03</pdfrwt>
<pdfrwt beam="2">  1       21 0.66034058E-01 0.21442011E+03</pdfrwt>
<totfact> 0.61578578E+03</totfact>
</mgrwt>
</event>
<event>
 4    1  0.2417478E-001  0.1868600E+03  0.7546771E-02  0.1161324E+00
         21   -1    0    0  501  502  0.00000000000E+00  0.00000000000E+00  0.55879370623E+03  0.55879370623E+03  0.00000000000E+00 0.  1.
         21   -1    0    0  502  503 -0.00000000000E+00 -0.00000000000E+00 -0.62668894730E+02  0.62668894730E+02  0.00000000000E+00 0.  1.
          6    1    1    2  501    0 -0.15449534534E+02  0.71371963212E+02  0.23126457570E+03  0.29732128956E+03  0.17200000000E+03 0. -1.
         -6    1    1    2    0  503  0.15449534534E+02 -0.71371963212E+02  0.26486023580E+03  0.32414131140E+03  0.17200000000E+03 0. -1.
<mgrwt>
<rscale>  2 0.18685996E+03</rscale>
<asrwt>0</asrwt>
<pdfrwt beam="1">  1       21 0.13969841E+00 0.18685996E+03</pdfrwt>
<pdfrwt beam="2">  1       21 0.15667225E-01 0.18685996E+03</pdfrwt>
<totfact> 0.13092017E+04</totfact>
</mgrwt>
</event>
<event>
 4    1  0.2417478E-001  0.2036280E+03  0.7546771E-02  0.1146714E+00
         21   -1    0    0  501  502  0.00000000000E+00  0.00000000000E+00  0.72620655994E+02  0.72620655994E+02  0.00000000000E+00 0.  1.
         21   -1    0    0  502  503 -0.00000000000E+00 -0.00000000000E+00 -0.58226655658E+03  0.58226655658E+03  0.00000000000E+00 0. -1.
          6    1    1    2  501    0  0.53163497163E+02  0.95152515183E+02 -0.30042778410E+03  0.36293417038E+03  0.17200000000E+03 0. -1.
         -6    1    1    2    0  503 -0.53163497163E+02 -0.95152515183E+02 -0.20921811649E+03  0.29195304219E+03  0.17200000000E+03 0.  1.
<mgrwt>
<rscale>  2 0.20362799E+03</rscale>
<asrwt>0</asrwt>
<pdfrwt beam="1">  1       21 0.18155164E-01 0.20362799E+03</pdfrwt>
<pdfrwt beam="2">  1       21 0.14556664E+00 0.20362799E+03</pdfrwt>
<totfact> 0.88610322E+03</totfact>
</mgrwt>
</event>
<event>
 4    1  0.2417478E-001  0.3161685E+03  0.7546771E-02  0.1077426E+00
         21   -1    0    0  501  502  0.00000000000E+00  0.00000000000E+00  0.55206582980E+03  0.55206582980E+03  0.00000000000E+00 0.  1.
         21   -1    0    0  502  503 -0.00000000000E+00 -0.00000000000E+00 -0.18157262232E+03  0.18157262232E+03  0.00000000000E+00 0. -1.
          6    1    1    2  501    0 -0.23756961805E+03  0.11806450393E+03  0.16594670341E+03  0.35707262410E+03  0.17200000000E+03 0.  1.
         -6    1    1    2    0  503  0.23756961805E+03 -0.11806450393E+03  0.20454650407E+03  0.37656582802E+03  0.17200000000E+03 0. -1.
<mgrwt>
<rscale>  2 0.31616855E+03</rscale>
<asrwt>0</asrwt>
<pdfrwt beam="1">  1       21 0.13801645E+00 0.31616855E+03</pdfrwt>
<pdfrwt beam="2">  1       21 0.45393157E-01 0.31616855E+03</pdfrwt>
<totfact> 0.15733345E+03</totfact>
</mgrwt>
</event>
<event>
 4    1  0.2417478E-001  0.1752878E+03  0.7546771E-02  0.1172443E+00
         21   -1    0    0  501  502  0.00000000000E+00  0.00000000000E+00  0.41374932772E+02  0.41374932772E+02  0.00000000000E+00 0.  1.
         21   -1    0    0  502  503 -0.00000000000E+00 -0.00000000000E+00 -0.91856617086E+03  0.91856617086E+03  0.00000000000E+00 0.  1.
          6    1    1    2  501    0  0.19792397396E+02 -0.27387657287E+02 -0.22853232674E+03  0.28801535919E+03  0.17200000000E+03 0.  1.
         -6    1    1    2    0  503 -0.19792397396E+02  0.27387657287E+02 -0.64865891135E+03  0.67192574444E+03  0.17200000000E+03 0.  1.
<mgrwt>
<rscale>  2 0.17528783E+03</rscale>
<asrwt>0</asrwt>
<pdfrwt beam="1">  1       21 0.10343734E-01 0.17528783E+03</pdfrwt>
<pdfrwt beam="2">  1       21 0.22964153E+00 0.17528783E+03</pdfrwt>
<totfact> 0.68343473E+03</totfact>
</mgrwt>
</event>
<event>
 4    1  0.2417478E-001  0.1791689E+03  0.7546771E-02  0.1168610E+00
         21   -1    0    0  503  502  0.00000000000E+00  0.00000000000E+00  0.26126029562E+03  0.26126029562E+03  0.00000000000E+00 0. -1.
         21   -1    0    0  501  503 -0.00000000000E+00 -0.00000000000E+00 -0.26979041902E+03  0.26979041902E+03  0.00000000000E+00 0. -1.
          6    1    1    2  501    0  0.29467237125E+02  0.40610260303E+02 -0.20020872551E+03  0.26867274718E+03  0.17200000000E+03 0. -1.
         -6    1    1    2    0  502 -0.29467237125E+02 -0.40610260303E+02  0.19167860211E+03  0.26237796746E+03  0.17200000000E+03 0. -1.
<mgrwt>
<rscale>  2 0.17916895E+03</rscale>
<asrwt>0</asrwt>
<pdfrwt beam="1">  1       21 0.65315074E-01 0.17916895E+03</pdfrwt>
<pdfrwt beam="2">  1       21 0.67447605E-01 0.17916895E+03</pdfrwt>
<totfact> 0.43838000E+03</totfact>
</mgrwt>
</event>
<event>
 4    1  0.2417478E-001  0.2023641E+03  0.7546771E-02  0.1147760E+00
         21   -1    0    0  501  502  0.00000000000E+00  0.00000000000E+00  0.76518460929E+02  0.76518460929E+02  0.00000000000E+00 0. -1.
         21   -1    0    0  502  503 -0.00000000000E+00 -0.00000000000E+00 -0.63543863681E+03  0.63543863681E+03  0.00000000000E+00 0. -1.
          6    1    1    2  501    0  0.10588726268E+03  0.12454978954E+02 -0.13806139384E+03  0.24497385038E+03  0.17200000000E+03 0. -1.
         -6    1    1    2    0  503 -0.10588726268E+03 -0.12454978954E+02 -0.42085878204E+03  0.46698324736E+03  0.17200000000E+03 0. -1.
<mgrwt>
<rscale>  2 0.20236412E+03</rscale>
<asrwt>0</asrwt>
<pdfrwt beam="1">  1       21 0.19129615E-01 0.20236412E+03</pdfrwt>
<pdfrwt beam="2">  1       21 0.15885966E+00 0.20236412E+03</pdfrwt>
<totfact> 0.63839986E+03</totfact>
</mgrwt>
</event>
<event>
 4    1  0.2417478E-001  0.1740883E+03  0.7546771E-02  0.1173650E+00
         21   -1    0    0  503  502  0.00000000000E+00  0.00000000000E+00  0.28292313848E+03  0.28292313848E+03  0.00000000000E+00 0. -1.
         21   -1    0    0  501  503 -0.00000000000E+00 -0.00000000000E+00 -0.13167528098E+03  0.13167528098E+03  0.00000000000E+00 0. -1.
          6    1    1    2  501    0 -0.26839430754E+02  0.15380292299E+01 -0.13895677165E+02  0.17464194920E+03  0.17200000000E+03 0. -1.
         -6    1    1    2    0  502  0.26839430754E+02 -0.15380292299E+01  0.16514353466E+03  0.23995647026E+03  0.17200000000E+03 0. -1.
<mgrwt>
<rscale>  2 0.17408826E+03</rscale>
<asrwt>0</asrwt>
<pdfrwt beam="1">  1       21 0.70730784E-01 0.17408826E+03</pdfrwt>
<pdfrwt beam="2">  1       21 0.32918821E-01 0.17408826E+03</pdfrwt>
<totfact> 0.16279166E+04</totfact>
</mgrwt>
</event>
<event>
 4    1  0.2417478E-001  0.2940310E+03  0.7546771E-02  0.1088263E+00
         21   -1    0    0  503  502  0.00000000000E+00  0.00000000000E+00  0.84025362774E+02  0.84025362774E+02  0.00000000000E+00 0. -1.
         21   -1    0    0  501  503 -0.00000000000E+00 -0.00000000000E+00 -0.10310385862E+04  0.10310385862E+04  0.00000000000E+00 0. -1.
          6    1    1    2  501    0 -0.14308911288E+03 -0.19077659421E+03 -0.44815055429E+03  0.53599731570E+03  0.17200000000E+03 0. -1.
         -6    1    1    2    0  502  0.14308911288E+03  0.19077659421E+03 -0.49886266915E+03  0.57906663329E+03  0.17200000000E+03 0. -1.
<mgrwt>
<rscale>  2 0.29403096E+03</rscale>
<asrwt>0</asrwt>
<pdfrwt beam="1">  1       21 0.21006341E-01 0.29403096E+03</pdfrwt>
<pdfrwt beam="2">  1       21 0.25775965E+00 0.29403096E+03</pdfrwt>
<totfact> 0.11400599E+03</totfact>
</mgrwt>
</event>
<event>
 4    1  0.2417478E-001  0.2757130E+03  0.7546771E-02  0.1098054E+00
         21   -1    0    0  501  502  0.00000000000E+00  0.00000000000E+00  0.58847552984E+02  0.58847552984E+02  0.00000000000E+00 0. -1.
         21   -1    0    0  502  503 -0.00000000000E+00 -0.00000000000E+00 -0.13734382445E+04  0.13734382445E+04  0.00000000000E+00 0.  1.
          6    1    1    2  501    0  0.21484349364E+03  0.16610386457E+02 -0.48266651744E+03  0.55586383113E+03  0.17200000000E+03 0. -1.
         -6    1    1    2    0  503 -0.21484349364E+03 -0.16610386457E+02 -0.83192417406E+03  0.87642196634E+03  0.17200000000E+03 0. -1.
<mgrwt>
<rscale>  2 0.27571295E+03</rscale>
<asrwt>0</asrwt>
<pdfrwt beam="1">  1       21 0.14711889E-01 0.27571295E+03</pdfrwt>
<pdfrwt beam="2">  1       21 0.34335955E+00 0.27571295E+03</pdfrwt>
<totfact> 0.70172738E+02</totfact>
</mgrwt>
</event>
<event>
 4    1  0.2417478E-001  0.2290152E+03  0.7546771E-02  0.1127335E+00
         21   -1    0    0  503  502  0.00000000000E+00  0.00000000000E+00  0.86168612997E+02  0.86168612997E+02  0.00000000000E+00 0.  1.
         21   -1    0    0  501  503 -0.00000000000E+00 -0.00000000000E+00 -0.61453582525E+03  0.61453582525E+03  0.00000000000E+00 0.  1.
          6    1    1    2  501    0  0.66742050356E+02 -0.13568143905E+03 -0.22994447487E+03  0.32453415184E+03  0.17200000000E+03 0.  1.
         -6    1    1    2    0  502 -0.66742050356E+02  0.13568143905E+03 -0.29842273738E+03  0.37617028641E+03  0.17200000000E+03 0.  1.
<mgrwt>
<rscale>  2 0.22901518E+03</rscale>
<asrwt>0</asrwt>
<pdfrwt beam="1">  1       21 0.21542154E-01 0.22901518E+03</pdfrwt>
<pdfrwt beam="2">  1       21 0.15363395E+00 0.22901518E+03</pdfrwt>
<totfact> 0.54754834E+03</totfact>
</mgrwt>
</event>
<event>
 4    1  0.2417478E-001  0.2107608E+03  0.7546771E-02  0.1140965E+00
         21   -1    0    0  501  502  0.00000000000E+00  0.00000000000E+00  0.33320885676E+03  0.33320885676E+03  0.00000000000E+00 0.  1.
         21   -1    0    0  502  503 -0.00000000000E+00 -0.00000000000E+00 -0.13465450995E+03  0.13465450995E+03  0.00000000000E+00 0.  1.
          6    1    1    2  501    0 -0.40141328545E+02  0.11499916428E+03  0.75903290385E+02  0.22401215042E+03  0.17200000000E+03 0.  1.
         -6    1    1    2    0  503  0.40141328545E+02 -0.11499916428E+03  0.12265105643E+03  0.24385121629E+03  0.17200000000E+03 0.  1.
<mgrwt>
<rscale>  2 0.21076085E+03</rscale>
<asrwt>0</asrwt>
<pdfrwt beam="1">  1       21 0.83302213E-01 0.21076085E+03</pdfrwt>
<pdfrwt beam="2">  1       21 0.33663628E-01 0.21076085E+03</pdfrwt>
<totfact> 0.10534876E+04</totfact>
</mgrwt>
</event>
<event>
 4    1  0.2417478E-001  0.2494530E+03  0.7546771E-02  0.1113651E+00
         21   -1    0    0  501  502  0.00000000000E+00  0.00000000000E+00  0.49839457789E+03  0.49839457789E+03  0.00000000000E+00 0. -1.
         21   -1    0    0  502  503 -0.00000000000E+00 -0.00000000000E+00 -0.13433534800E+03  0.13433534800E+03  0.00000000000E+00 0. -1.
          6    1    1    2  501    0  0.14447514863E+03  0.10848845129E+03  0.97983719934E+02  0.26800675739E+03  0.17200000000E+03 0. -1.
         -6    1    1    2    0  503 -0.14447514863E+03 -0.10848845129E+03  0.26607550996E+03  0.36472316849E+03  0.17200000000E+03 0. -1.
<mgrwt>
<rscale>  2 0.24945303E+03</rscale>
<asrwt>0</asrwt>
<pdfrwt beam="1">  1       21 0.12459864E+00 0.24945303E+03</pdfrwt>
<pdfrwt beam="2">  1       21 0.33583838E-01 0.24945303E+03</pdfrwt>
<totfact> 0.39336368E+03</totfact>
</mgrwt>
</event>
<event>
 4    1  0.2417478E-001  0.1854392E+03  0.7546771E-02  0.1162640E+00
         21   -1    0    0  501  502  0.00000000000E+00  0.00000000000E+00  0.45824182584E+02  0.45824182584E+02  0.00000000000E+00 0.  1.
         21   -1    0    0  502  503 -0.00000000000E+00 -0.00000000000E+00 -0.78150566022E+03  0.78150566022E+03  0.00000000000E+00 0.  1.
          6    1    1    2  501    0 -0.65822951636E+02 -0.21703062986E+02 -0.45033368567E+03  0.48701962215E+03  0.17200000000E+03 0.  1.
         -6    1    1    2    0  503  0.65822951636E+02  0.21703062986E+02 -0.28534779196E+03  0.34031022065E+03  0.17200000000E+03 0.  1.
<mgrwt>
<rscale>  2 0.18543916E+03</rscale>
<asrwt>0</asrwt>
<pdfrwt beam="1">  1       21 0.11456046E-01 0.18543916E+03</pdfrwt>
<pdfrwt beam="2">  1       21 0.19537641E+00 0.18543916E+03</pdfrwt>
<totfact> 0.92257220E+03</totfact>
</mgrwt>
</event>
<event>
 4    1  0.2417478E-001  0.1867493E+03  0.7546771E-02  0.1161426E+00
         21   -1    0    0  503  502  0.00000000000E+00  0.00000000000E+00  0.10619047205E+03  0.10619047205E+03  0.00000000000E+00 0. -1.
         21   -1    0    0  501  503 -0.00000000000E+00 -0.00000000000E+00 -0.51179065043E+03  0.51179065043E+03  0.00000000000E+00 0. -1.
          6    1    1    2  501    0 -0.28023593340E+02  0.67126717928E+02 -0.38775302944E+03  0.43038091255E+03  0.17200000000E+03 0. -1.
         -6    1    1    2    0  502  0.28023593340E+02 -0.67126717928E+02 -0.17847148938E+02  0.18760020994E+03  0.17200000000E+03 0. -1.
<mgrwt>
<rscale>  2 0.18674935E+03</rscale>
<asrwt>0</asrwt>
<pdfrwt beam="1">  1       21 0.26547618E-01 0.18674935E+03</pdfrwt>
<pdfrwt beam="2">  1       21 0.12794766E+00 0.18674935E+03</pdfrwt>
<totfact> 0.61030826E+03</totfact>
</mgrwt>
</event>
<event>
 4    1  0.2417478E-001  0.1748844E+03  0.7546771E-02  0.1172848E+00
         21   -1    0    0  501  502  0.00000000000E+00  0.00000000000E+00  0.43225636301E+02  0.43225636301E+02  0.00000000000E+00 0. -1.
         21   -1    0    0  502  503 -0.00000000000E+00 -0.00000000000E+00 -0.83547574797E+03  0.83547574797E+03  0.00000000000E+00 0. -1.
          6    1    1    2  501    0  0.91292594503E+01 -0.30285456912E+02 -0.22421019273E+03  0.28434971919E+03  0.17200000000E+03 0. -1.
         -6    1    1    2    0  503 -0.91292594503E+01  0.30285456912E+02 -0.56803991894E+03  0.59435166508E+03  0.17200000000E+03 0. -1.
<mgrwt>
<rscale>  2 0.17488440E+03</rscale>
<asrwt>0</asrwt>
<pdfrwt beam="1">  1       21 0.10806409E-01 0.17488440E+03</pdfrwt>
<pdfrwt beam="2">  1       21 0.20886893E+00 0.17488440E+03</pdfrwt>
<totfact> 0.84787893E+03</totfact>
</mgrwt>
</event>
<event>
 4    1  0.2417478E-001  0.2238064E+03  0.7546771E-02  0.1131077E+00
         21   -1    0    0  503  502  0.00000000000E+00  0.00000000000E+00  0.46917139518E+03  0.46917139518E+03  0.00000000000E+00 0. -1.
         21   -1    0    0  501  503 -0.00000000000E+00 -0.00000000000E+00 -0.10680018434E+03  0.10680018434E+03  0.00000000000E+00 0.  1.
          6    1    1    2  501    0  0.45349394252E+02  0.13582611906E+03  0.18668757264E+03  0.29144733994E+03  0.17200000000E+03 0. -1.
         -6    1    1    2    0  502 -0.45349394252E+02 -0.13582611906E+03  0.17568363819E+03  0.28452423958E+03  0.17200000000E+03 0.  1.
<mgrwt>
<rscale>  2 0.22380639E+03</rscale>
<asrwt>0</asrwt>
<pdfrwt beam="1">  1       21 0.11729284E+00 0.22380639E+03</pdfrwt>
<pdfrwt beam="2">  1       21 0.26700047E-01 0.22380639E+03</pdfrwt>
<totfact> 0.72930180E+03</totfact>
</mgrwt>
</event>
<event>
 4    1  0.2417478E-001  0.2229796E+03  0.7546771E-02  0.1131681E+00
         21   -1    0    0  501  502  0.00000000000E+00  0.00000000000E+00  0.34243373524E+02  0.34243373524E+02  0.00000000000E+00 0.  1.
         21   -1    0    0  502  503 -0.00000000000E+00 -0.00000000000E+00 -0.14871602362E+04  0.14871602362E+04  0.00000000000E+00 0.  1.
          6    1    1    2  501    0  0.14076245494E+03  0.17940106082E+02 -0.60942093690E+03  0.64893281198E+03  0.17200000000E+03 0.  1.
         -6    1    1    2    0  503 -0.14076245494E+03 -0.17940106082E+02 -0.84349592581E+03  0.87247079778E+03  0.17200000000E+03 0.  1.
<mgrwt>
<rscale>  2 0.22297963E+03</rscale>
<asrwt>0</asrwt>
<pdfrwt beam="1">  1       21 0.85608432E-02 0.22297963E+03</pdfrwt>
<pdfrwt beam="2">  1       21 0.37179007E+00 0.22297963E+03</pdfrwt>
<totfact> 0.13261314E+03</totfact>
</mgrwt>
</event>
<event>
 4    1  0.2417478E-001  0.1792907E+03  0.7546771E-02  0.1168491E+00
         21   -1    0    0  503  502  0.00000000000E+00  0.00000000000E+00  0.58021609998E+03  0.58021609998E+03  0.00000000000E+00 0. -1.
         21   -1    0    0  501  503 -0.00000000000E+00 -0.00000000000E+00 -0.10226153159E+03  0.10226153159E+03  0.00000000000E+00 0. -1.
          6    1    1    2  501    0 -0.28188091396E+02  0.42030966635E+02  0.79831533085E+01  0.17946838549E+03  0.17200000000E+03 0. -1.
         -6    1    1    2    0  502  0.28188091396E+02 -0.42030966635E+02  0.46997141508E+03  0.50300924608E+03  0.17200000000E+03 0. -1.
<mgrwt>
<rscale>  2 0.17929074E+03</rscale>
<asrwt>0</asrwt>
<pdfrwt beam="1">  1       21 0.14505402E+00 0.17929074E+03</pdfrwt>
<pdfrwt beam="2">  1       21 0.25565384E-01 0.17929074E+03</pdfrwt>
<totfact> 0.47910408E+03</totfact>
</mgrwt>
</event>
<event>
 4    1  0.2417478E-001  0.2251458E+03  0.7546771E-02  0.1130104E+00
         21   -1    0    0  501  502  0.00000000000E+00  0.00000000000E+00  0.54928542943E+03  0.54928542943E+03  0.00000000000E+00 0.  1.
         21   -1    0    0  502  503 -0.00000000000E+00 -0.00000000000E+00 -0.12473540017E+03  0.12473540017E+03  0.00000000000E+00 0. -1.
          6    1    1    2  501    0  0.73858237295E+02 -0.12510631595E+03  0.38416898254E+03  0.44528242347E+03  0.17200000000E+03 0.  1.
         -6    1    1    2    0  503 -0.73858237295E+02  0.12510631595E+03  0.40381046723E+02  0.22873840613E+03  0.17200000000E+03 0. -1.
<mgrwt>
<rscale>  2 0.22514580E+03</rscale>
<asrwt>0</asrwt>
<pdfrwt beam="1">  1       21 0.13732135E+00 0.22514580E+03</pdfrwt>
<pdfrwt beam="2">  1       21 0.31183851E-01 0.22514580E+03</pdfrwt>
<totfact> 0.36177798E+03</totfact>
</mgrwt>
</event>
<event>
 4    1  0.2417478E-001  0.1752749E+03  0.7546771E-02  0.1172456E+00
         21   -1    0    0  501  502  0.00000000000E+00  0.00000000000E+00  0.11893394585E+04  0.11893394585E+04  0.00000000000E+00 0.  1.
         21   -1    0    0  502  503 -0.00000000000E+00 -0.00000000000E+00 -0.34418892976E+02  0.34418892976E+02  0.00000000000E+00 0.  1.
          6    1    1    2  501    0 -0.32789921682E+02 -0.78814213645E+01  0.88310848182E+03  0.90033431926E+03  0.17200000000E+03 0.  1.
         -6    1    1    2    0  503  0.32789921682E+02  0.78814213645E+01  0.27181208367E+03  0.32342403219E+03  0.17200000000E+03 0.  1.
<mgrwt>
<rscale>  2 0.17527491E+03</rscale>
<asrwt>0</asrwt>
<pdfrwt beam="1">  1       21 0.29733473E+00 0.17527491E+03</pdfrwt>
<pdfrwt beam="2">  1       21 0.86047272E-02 0.17527491E+03</pdfrwt>
<totfact> 0.38182882E+03</totfact>
</mgrwt>
</event>
<event>
 4    1  0.2417478E-001  0.1851409E+03  0.7546771E-02  0.1162918E+00
         21   -1    0    0  501  502  0.00000000000E+00  0.00000000000E+00  0.12466250083E+04  0.12466250083E+04  0.00000000000E+00 0.  1.
         21   -1    0    0  502  503 -0.00000000000E+00 -0.00000000000E+00 -0.36311176660E+02  0.36311176660E+02  0.00000000000E+00 0.  1.
          6    1    1    2  501    0  0.68484799578E+02  0.17225446254E+01  0.28909532790E+03  0.34329760201E+03  0.17200000000E+03 0.  1.
         -6    1    1    2    0  503 -0.68484799578E+02 -0.17225446254E+01  0.92121850374E+03  0.93963858295E+03  0.17200000000E+03 0.  1.
<mgrwt>
<rscale>  2 0.18514085E+03</rscale>
<asrwt>0</asrwt>
<pdfrwt beam="1">  1       21 0.31165611E+00 0.18514085E+03</pdfrwt>
<pdfrwt beam="2">  1       21 0.90777983E-02 0.18514085E+03</pdfrwt>
<totfact> 0.28411468E+03</totfact>
</mgrwt>
</event>
<event>
 4    1  0.2417478E-001  0.2209285E+03  0.7546771E-02  0.1133193E+00
         21   -1    0    0  503  502  0.00000000000E+00  0.00000000000E+00  0.60603370766E+03  0.60603370766E+03  0.00000000000E+00 0.  1.
         21   -1    0    0  501  503 -0.00000000000E+00 -0.00000000000E+00 -0.94463801268E+02  0.94463801268E+02  0.00000000000E+00 0. -1.
          6    1    1    2  501    0  0.13781891381E+03  0.15210131077E+02  0.39025855813E+03  0.44845417077E+03  0.17200000000E+03 0.  1.
         -6    1    1    2    0  502 -0.13781891381E+03 -0.15210131077E+02  0.12131134826E+03  0.25204333815E+03  0.17200000000E+03 0.  1.
<mgrwt>
<rscale>  2 0.22092850E+03</rscale>
<asrwt>0</asrwt>
<pdfrwt beam="1">  1       21 0.15150842E+00 0.22092850E+03</pdfrwt>
<pdfrwt beam="2">  1       21 0.23615952E-01 0.22092850E+03</pdfrwt>
<totfact> 0.48024574E+03</totfact>
</mgrwt>
</event>
<event>
 4    1  0.2417478E-001  0.1867948E+03  0.7546771E-02  0.1161384E+00
         21   -1    0    0  503  502  0.00000000000E+00  0.00000000000E+00  0.23322397416E+03  0.23322397416E+03  0.00000000000E+00 0.  1.
         21   -1    0    0  501  503 -0.00000000000E+00 -0.00000000000E+00 -0.18976736088E+03  0.18976736088E+03  0.00000000000E+00 0.  1.
          6    1    1    2  501    0 -0.71935274524E+02 -0.11559549932E+02 -0.75564558343E+02  0.20150014738E+03  0.17200000000E+03 0. -1.
         -6    1    1    2    0  502  0.71935274524E+02  0.11559549932E+02  0.11902117162E+03  0.22149118766E+03  0.17200000000E+03 0. -1.
<mgrwt>
<rscale>  2 0.18679483E+03</rscale>
<asrwt>0</asrwt>
<pdfrwt beam="1">  1       21 0.58305993E-01 0.18679483E+03</pdfrwt>
<pdfrwt beam="2">  1       21 0.47441840E-01 0.18679483E+03</pdfrwt>
<totfact> 0.11754003E+04</totfact>
</mgrwt>
</event>
<event>
 4    1  0.2417478E-001  0.2578814E+03  0.7546771E-02  0.1108423E+00
         21   -1    0    0  501  502  0.00000000000E+00  0.00000000000E+00  0.11097478400E+03  0.11097478400E+03  0.00000000000E+00 0. -1.
         21   -1    0    0  502  503 -0.00000000000E+00 -0.00000000000E+00 -0.62519916043E+03  0.62519916043E+03  0.00000000000E+00 0.  1.
          6    1    1    2  501    0 -0.13035897793E+03  0.14115710636E+03 -0.18213727233E+03  0.31571629317E+03  0.17200000000E+03 0.  1.
         -6    1    1    2    0  503  0.13035897793E+03 -0.14115710636E+03 -0.33208710410E+03  0.42045765127E+03  0.17200000000E+03 0.  1.
<mgrwt>
<rscale>  2 0.25788135E+03</rscale>
<asrwt>0</asrwt>
<pdfrwt beam="1">  1       21 0.27743697E-01 0.25788135E+03</pdfrwt>
<pdfrwt beam="2">  1       21 0.15629979E+00 0.25788135E+03</pdfrwt>
<totfact> 0.31551140E+03</totfact>
</mgrwt>
</event>
<event>
 4    1  0.2417478E-001  0.1738287E+03  0.7546771E-02  0.1173913E+00
         21   -1    0    0  503  502  0.00000000000E+00  0.00000000000E+00  0.64569969106E+03  0.64569969106E+03  0.00000000000E+00 0.  1.
         21   -1    0    0  501  503 -0.00000000000E+00 -0.00000000000E+00 -0.47234313558E+02  0.47234313558E+02  0.00000000000E+00 0.  1.
          6    1    1    2  501    0 -0.14075565666E+02  0.20839796949E+02  0.26587245654E+03  0.31765481553E+03  0.17200000000E+03 0.  1.
         -6    1    1    2    0  502  0.14075565666E+02 -0.20839796949E+02  0.33259292096E+03  0.37527918909E+03  0.17200000000E+03 0.  1.
<mgrwt>
<rscale>  2 0.17382871E+03</rscale>
<asrwt>0</asrwt>
<pdfrwt beam="1">  1       21 0.16142489E+00 0.17382871E+03</pdfrwt>
<pdfrwt beam="2">  1       21 0.11808580E-01 0.17382871E+03</pdfrwt>
<totfact> 0.15050215E+04</totfact>
</mgrwt>
</event>
<event>
 4    1  0.2417478E-001  0.2047563E+03  0.7546771E-02  0.1145787E+00
         21   -1    0    0  503  502  0.00000000000E+00  0.00000000000E+00  0.24807511496E+03  0.24807511496E+03  0.00000000000E+00 0.  1.
         21   -1    0    0  501  503 -0.00000000000E+00 -0.00000000000E+00 -0.21013256794E+03  0.21013256794E+03  0.00000000000E+00 0. -1.
          6    1    1    2  501    0 -0.68454627479E+02  0.87493387439E+02 -0.82389368741E+02  0.22071052750E+03  0.17200000000E+03 0. -1.
         -6    1    1    2    0  502  0.68454627479E+02 -0.87493387439E+02  0.12033191576E+03  0.23749715539E+03  0.17200000000E+03 0.  1.
<mgrwt>
<rscale>  2 0.20475627E+03</rscale>
<asrwt>0</asrwt>
<pdfrwt beam="1">  1       21 0.62018779E-01 0.20475627E+03</pdfrwt>
<pdfrwt beam="2">  1       21 0.52533142E-01 0.20475627E+03</pdfrwt>
<totfact> 0.82199278E+03</totfact>
</mgrwt>
</event>
<event>
 4    1  0.2417478E-001  0.2214473E+03  0.7546771E-02  0.1132809E+00
         21   -1    0    0  503  502  0.00000000000E+00  0.00000000000E+00  0.48004826217E+02  0.48004826217E+02  0.00000000000E+00 0.  1.
         21   -1    0    0  501  503 -0.00000000000E+00 -0.00000000000E+00 -0.10421711846E+04  0.10421711846E+04  0.00000000000E+00 0.  1.
          6    1    1    2  501    0 -0.13792613353E+03  0.20767053392E+02 -0.42039106598E+03  0.47515001544E+03  0.17200000000E+03 0.  1.
         -6    1    1    2    0  502  0.13792613353E+03 -0.20767053392E+02 -0.57377529239E+03  0.61502599536E+03  0.17200000000E+03 0.  1.
<mgrwt>
<rscale>  2 0.22144726E+03</rscale>
<asrwt>0</asrwt>
<pdfrwt beam="1">  1       21 0.12001206E-01 0.22144726E+03</pdfrwt>
<pdfrwt beam="2">  1       21 0.26054280E+00 0.22144726E+03</pdfrwt>
<totfact> 0.32834195E+03</totfact>
</mgrwt>
</event>
<event>
 4    1  0.2417478E-001  0.1855709E+03  0.7546771E-02  0.1162518E+00
         21   -1    0    0  503  502  0.00000000000E+00  0.00000000000E+00  0.38575428413E+03  0.38575428413E+03  0.00000000000E+00 0. -1.
         21   -1    0    0  501  503 -0.00000000000E+00 -0.00000000000E+00 -0.10552226654E+03  0.10552226654E+03  0.00000000000E+00 0. -1.
          6    1    1    2  501    0 -0.67822597975E+02  0.15895521701E+02  0.23651466842E+03  0.30062561565E+03  0.17200000000E+03 0. -1.
         -6    1    1    2    0  502  0.67822597975E+02 -0.15895521701E+02  0.43717349159E+02  0.19065093502E+03  0.17200000000E+03 0. -1.
<mgrwt>
<rscale>  2 0.18557094E+03</rscale>
<asrwt>0</asrwt>
<pdfrwt beam="1">  1       21 0.96438568E-01 0.18557094E+03</pdfrwt>
<pdfrwt beam="2">  1       21 0.26380568E-01 0.18557094E+03</pdfrwt>
<totfact> 0.12279295E+04</totfact>
</mgrwt>
</event>
<event>
 4    1  0.2417478E-001  0.1801010E+03  0.7546771E-02  0.1167705E+00
         21   -1    0    0  501  502  0.00000000000E+00  0.00000000000E+00  0.43578175188E+03  0.43578175188E+03  0.00000000000E+00 0.  1.
         21   -1    0    0  502  503 -0.00000000000E+00 -0.00000000000E+00 -0.10421312593E+03  0.10421312593E+03  0.00000000000E+00 0.  1.
          6    1    1    2  501    0  0.17830507747E+02 -0.50343156717E+02  0.31011701935E+03  0.35862086683E+03  0.17200000000E+03 0.  1.
         -6    1    1    2    0  503 -0.17830507747E+02  0.50343156717E+02  0.21451606600E+02  0.18137401098E+03  0.17200000000E+03 0.  1.
<mgrwt>
<rscale>  2 0.18010097E+03</rscale>
<asrwt>0</asrwt>
<pdfrwt beam="1">  1       21 0.10894543E+00 0.18010097E+03</pdfrwt>
<pdfrwt beam="2">  1       21 0.26053283E-01 0.18010097E+03</pdfrwt>
<totfact> 0.94426100E+03</totfact>
</mgrwt>
</event>
<event>
 4    1  0.2417478E-001  0.2755768E+03  0.7546771E-02  0.1098130E+00
         21   -1    0    0  501  502  0.00000000000E+00  0.00000000000E+00  0.29220785324E+03  0.29220785324E+03  0.00000000000E+00 0.  1.
         21   -1    0    0  502  503 -0.00000000000E+00 -0.00000000000E+00 -0.51267052641E+03  0.51267052641E+03  0.00000000000E+00 0. -1.
          6    1    1    2  501    0  0.11773442136E+03  0.18026975181E+03  0.17235483345E+03  0.32503656103E+03  0.17200000000E+03 0.  1.
         -6    1    1    2    0  503 -0.11773442136E+03 -0.18026975181E+03 -0.39281750662E+03  0.47984181862E+03  0.17200000000E+03 0. -1.
<mgrwt>
<rscale>  2 0.27557681E+03</rscale>
<asrwt>0</asrwt>
<pdfrwt beam="1">  1       21 0.73051964E-01 0.27557681E+03</pdfrwt>
<pdfrwt beam="2">  1       21 0.12816763E+00 0.27557681E+03</pdfrwt>
<totfact> 0.70074395E+02</totfact>
</mgrwt>
</event>
<event>
 4    1  0.2417478E-001  0.1807633E+03  0.7546771E-02  0.1167066E+00
         21   -1    0    0  503  502  0.00000000000E+00  0.00000000000E+00  0.39106075503E+03  0.39106075503E+03  0.00000000000E+00 0.  1.
         21   -1    0    0  501  503 -0.00000000000E+00 -0.00000000000E+00 -0.13040941015E+03  0.13040941015E+03  0.00000000000E+00 0.  1.
          6    1    1    2  501    0 -0.55445364403E+02 -0.41453135454E+01 -0.25959147934E+02  0.18261776863E+03  0.17200000000E+03 0.  1.
         -6    1    1    2    0  502  0.55445364403E+02  0.41453135454E+01  0.28661049281E+03  0.33885239655E+03  0.17200000000E+03 0.  1.
<mgrwt>
<rscale>  2 0.18076330E+03</rscale>
<asrwt>0</asrwt>
<pdfrwt beam="1">  1       21 0.97765186E-01 0.18076330E+03</pdfrwt>
<pdfrwt beam="2">  1       21 0.32602353E-01 0.18076330E+03</pdfrwt>
<totfact> 0.79101783E+03</totfact>
</mgrwt>
</event>
<event>
 4    1  0.2417478E-001  0.1850712E+03  0.7546771E-02  0.1162983E+00
         21   -1    0    0  503  502  0.00000000000E+00  0.00000000000E+00  0.77715137670E+02  0.77715137670E+02  0.00000000000E+00 0. -1.
         21   -1    0    0  501  503 -0.00000000000E+00 -0.00000000000E+00 -0.48240171951E+03  0.48240171951E+03  0.00000000000E+00 0. -1.
          6    1    1    2  501    0  0.45218110752E+02  0.51211970490E+02 -0.12003032868E+03  0.22058699704E+03  0.17200000000E+03 0. -1.
         -6    1    1    2    0  502 -0.45218110752E+02 -0.51211970490E+02 -0.28465625316E+03  0.33952986014E+03  0.17200000000E+03 0. -1.
<mgrwt>
<rscale>  2 0.18507118E+03</rscale>
<asrwt>0</asrwt>
<pdfrwt beam="1">  1       21 0.19428785E-01 0.18507118E+03</pdfrwt>
<pdfrwt beam="2">  1       21 0.12060043E+00 0.18507118E+03</pdfrwt>
<totfact> 0.12775621E+04</totfact>
</mgrwt>
</event>
<event>
 4    1  0.2417478E-001  0.2940555E+03  0.7546771E-02  0.1088251E+00
         21   -1    0    0  501  502  0.00000000000E+00  0.00000000000E+00  0.34456376885E+03  0.34456376885E+03  0.00000000000E+00 0. -1.
         21   -1    0    0  502  503 -0.00000000000E+00 -0.00000000000E+00 -0.27978661804E+03  0.27978661804E+03  0.00000000000E+00 0.  1.
          6    1    1    2  501    0  0.31263976259E+02  0.23644702311E+03 -0.67830262953E+02  0.30177736085E+03  0.17200000000E+03 0.  1.
         -6    1    1    2    0  503 -0.31263976259E+02 -0.23644702311E+03  0.13260741376E+03  0.32257302605E+03  0.17200000000E+03 0. -1.
<mgrwt>
<rscale>  2 0.29405549E+03</rscale>
<asrwt>0</asrwt>
<pdfrwt beam="1">  1       21 0.86140942E-01 0.29405549E+03</pdfrwt>
<pdfrwt beam="2">  1       21 0.69946655E-01 0.29405549E+03</pdfrwt>
<totfact> 0.20013132E+03</totfact>
</mgrwt>
</event>
<event>
 4    1  0.2417478E-001  0.2142850E+03  0.7546771E-02  0.1138217E+00
         21   -1    0    0  503  502  0.00000000000E+00  0.00000000000E+00  0.72197796707E+02  0.72197796707E+02  0.00000000000E+00 0. -1.
         21   -1    0    0  501  503 -0.00000000000E+00 -0.00000000000E+00 -0.67951468472E+03  0.67951468472E+03  0.00000000000E+00 0.  1.
          6    1    1    2  501    0  0.40427780447E+02 -0.12124205226E+03 -0.39876786511E+03  0.45269620156E+03  0.17200000000E+03 0. -1.
         -6    1    1    2    0  502 -0.40427780447E+02  0.12124205226E+03 -0.20854902290E+03  0.29901627986E+03  0.17200000000E+03 0.  1.
<mgrwt>
<rscale>  2 0.21428495E+03</rscale>
<asrwt>0</asrwt>
<pdfrwt beam="1">  1       21 0.18049449E-01 0.21428495E+03</pdfrwt>
<pdfrwt beam="2">  1       21 0.16987867E+00 0.21428495E+03</pdfrwt>
<totfact> 0.58660461E+03</totfact>
</mgrwt>
</event>
<event>
 4    1  0.2417478E-001  0.1765696E+03  0.7546771E-02  0.1171165E+00
         21   -1    0    0  501  502  0.00000000000E+00  0.00000000000E+00  0.33709240597E+03  0.33709240597E+03  0.00000000000E+00 0.  1.
         21   -1    0    0  502  503 -0.00000000000E+00 -0.00000000000E+00 -0.11608796185E+03  0.11608796185E+03  0.00000000000E+00 0.  1.
          6    1    1    2  501    0  0.33821635185E+02 -0.21187419850E+02  0.21266869682E+03  0.27641415372E+03  0.17200000000E+03 0.  1.
         -6    1    1    2    0  503 -0.33821635185E+02  0.21187419850E+02  0.83357473013E+01  0.17676621411E+03  0.17200000000E+03 0.  1.
<mgrwt>
<rscale>  2 0.17656956E+03</rscale>
<asrwt>0</asrwt>
<pdfrwt beam="1">  1       21 0.84273099E-01 0.17656956E+03</pdfrwt>
<pdfrwt beam="2">  1       21 0.29021991E-01 0.17656956E+03</pdfrwt>
<totfact> 0.14037553E+04</totfact>
</mgrwt>
</event>
<event>
 4    1  0.2417478E-001  0.2075739E+03  0.7546771E-02  0.1143502E+00
         21   -1    0    0  501  502  0.00000000000E+00  0.00000000000E+00  0.77675793596E+02  0.77675793596E+02  0.00000000000E+00 0.  1.
         21   -1    0    0  502  503 -0.00000000000E+00 -0.00000000000E+00 -0.67868106802E+03  0.67868106802E+03  0.00000000000E+00 0.  1.
          6    1    1    2  501    0  0.77469344972E+02 -0.86610768267E+02 -0.13886670043E+03  0.24974163665E+03  0.17200000000E+03 0.  1.
         -6    1    1    2    0  503 -0.77469344972E+02  0.86610768267E+02 -0.46213857399E+03  0.50661522496E+03  0.17200000000E+03 0.  1.
<mgrwt>
<rscale>  2 0.20757390E+03</rscale>
<asrwt>0</asrwt>
<pdfrwt beam="1">  1       21 0.19418948E-01 0.20757390E+03</pdfrwt>
<pdfrwt beam="2">  1       21 0.16967027E+00 0.20757390E+03</pdfrwt>
<totfact> 0.51654920E+03</totfact>
</mgrwt>
</event>
<event>
 4    1  0.2417478E-001  0.2031987E+03  0.7546771E-02  0.1147068E+00
         21   -1    0    0  501  502  0.00000000000E+00  0.00000000000E+00  0.12762731126E+03  0.12762731126E+03  0.00000000000E+00 0. -1.
         21   -1    0    0  502  503 -0.00000000000E+00 -0.00000000000E+00 -0.46053663160E+03  0.46053663160E+03  0.00000000000E+00 0.  1.
          6    1    1    2  501    0 -0.14257718065E+02 -0.10724934360E+03 -0.60464936402E+01  0.20328862317E+03  0.17200000000E+03 0. -1.
         -6    1    1    2    0  503  0.14257718065E+02  0.10724934360E+03 -0.32686282670E+03  0.38487531969E+03  0.17200000000E+03 0.  1.
<mgrwt>
<rscale>  2 0.20319868E+03</rscale>
<asrwt>0</asrwt>
<pdfrwt beam="1">  1       21 0.31906828E-01 0.20319868E+03</pdfrwt>
<pdfrwt beam="2">  1       21 0.11513416E+00 0.20319868E+03</pdfrwt>
<totfact> 0.54764248E+03</totfact>
</mgrwt>
</event>
<event>
 4    1  0.2417478E-001  0.2042794E+03  0.7546771E-02  0.1146178E+00
         21   -1    0    0  501  502  0.00000000000E+00  0.00000000000E+00  0.38091202037E+03  0.38091202037E+03  0.00000000000E+00 0. -1.
         21   -1    0    0  502  503 -0.00000000000E+00 -0.00000000000E+00 -0.19143737766E+03  0.19143737766E+03  0.00000000000E+00 0. -1.
          6    1    1    2  501    0  0.82993059996E+02 -0.72513607975E+02  0.28189957929E+03  0.34813423295E+03  0.17200000000E+03 0. -1.
         -6    1    1    2    0  503 -0.82993059996E+02  0.72513607975E+02 -0.92424936576E+02  0.22421516508E+03  0.17200000000E+03 0. -1.
<mgrwt>
<rscale>  2 0.20427940E+03</rscale>
<asrwt>0</asrwt>
<pdfrwt beam="1">  1       21 0.95228004E-01 0.20427940E+03</pdfrwt>
<pdfrwt beam="2">  1       21 0.47859345E-01 0.20427940E+03</pdfrwt>
<totfact> 0.38077534E+03</totfact>
</mgrwt>
</event>
<event>
 4    1  0.2417478E-001  0.1934476E+03  0.7546771E-02  0.1155388E+00
         21   -1    0    0  501  502  0.00000000000E+00  0.00000000000E+00  0.21371081736E+03  0.21371081736E+03  0.00000000000E+00 0.  1.
         21   -1    0    0  502  503 -0.00000000000E+00 -0.00000000000E+00 -0.19844605086E+03  0.19844605086E+03  0.00000000000E+00 0.  1.
          6    1    1    2  501    0 -0.40606229573E+02 -0.78670884354E+02  0.78307310273E+02  0.20869597209E+03  0.17200000000E+03 0.  1.
         -6    1    1    2    0  503  0.40606229573E+02  0.78670884354E+02 -0.63042543774E+02  0.20346089612E+03  0.17200000000E+03 0.  1.
<mgrwt>
<rscale>  2 0.19344760E+03</rscale>
<asrwt>0</asrwt>
<pdfrwt beam="1">  1       21 0.53427704E-01 0.19344760E+03</pdfrwt>
<pdfrwt beam="2">  1       21 0.49611513E-01 0.19344760E+03</pdfrwt>
<totfact> 0.12837015E+04</totfact>
</mgrwt>
</event>
<event>
 4    1  0.2417478E-001  0.2078187E+03  0.7546771E-02  0.1143305E+00
         21   -1    0    0  501  502  0.00000000000E+00  0.00000000000E+00  0.79443039425E+02  0.79443039425E+02  0.00000000000E+00 0. -1.
         21   -1    0    0  502  503 -0.00000000000E+00 -0.00000000000E+00 -0.57758928732E+03  0.57758928732E+03  0.00000000000E+00 0.  1.
          6    1    1    2  501    0 -0.11437673076E+03 -0.22859699613E+02 -0.16943017455E+03  0.26813277766E+03  0.17200000000E+03 0. -1.
         -6    1    1    2    0  503  0.11437673076E+03  0.22859699613E+02 -0.32871607334E+03  0.38889954909E+03  0.17200000000E+03 0.  1.
<mgrwt>
<rscale>  2 0.20781868E+03</rscale>
<asrwt>0</asrwt>
<pdfrwt beam="1">  1       21 0.19860760E-01 0.20781868E+03</pdfrwt>
<pdfrwt beam="2">  1       21 0.14439732E+00 0.20781868E+03</pdfrwt>
<totfact> 0.76328402E+03</totfact>
</mgrwt>
</event>
<event>
 4    1  0.2417478E-001  0.1856414E+03  0.7546771E-02  0.1162452E+00
         21   -1    0    0  503  502  0.00000000000E+00  0.00000000000E+00  0.21453204870E+03  0.21453204870E+03  0.00000000000E+00 0.  1.
         21   -1    0    0  501  503 -0.00000000000E+00 -0.00000000000E+00 -0.17218404948E+03  0.17218404948E+03  0.00000000000E+00 0.  1.
          6    1    1    2  501    0 -0.52228984089E+02 -0.46377326924E+02 -0.28889248755E+02  0.18787578856E+03  0.17200000000E+03 0.  1.
         -6    1    1    2    0  502  0.52228984089E+02  0.46377326924E+02  0.71237247972E+02  0.19884030962E+03  0.17200000000E+03 0.  1.
<mgrwt>
<rscale>  2 0.18564138E+03</rscale>
<asrwt>0</asrwt>
<pdfrwt beam="1">  1       21 0.53633012E-01 0.18564138E+03</pdfrwt>
<pdfrwt beam="2">  1       21 0.43046012E-01 0.18564138E+03</pdfrwt>
<totfact> 0.17143944E+04</totfact>
</mgrwt>
</event>
<event>
 4    1  0.2417478E-001  0.2167145E+03  0.7546771E-02  0.1136356E+00
         21   -1    0    0  503  502  0.00000000000E+00  0.00000000000E+00  0.54728085418E+03  0.54728085418E+03  0.00000000000E+00 0.  1.
         21   -1    0    0  501  503 -0.00000000000E+00 -0.00000000000E+00 -0.99855693283E+02  0.99855693283E+02  0.00000000000E+00 0. -1.
          6    1    1    2  501    0  0.11705814748E+03  0.60651207214E+02  0.10238316739E+03  0.23968206398E+03  0.17200000000E+03 0. -1.
         -6    1    1    2    0  502 -0.11705814748E+03 -0.60651207214E+02  0.34504199350E+03  0.40745448348E+03  0.17200000000E+03 0.  1.
<mgrwt>
<rscale>  2 0.21671451E+03</rscale>
<asrwt>0</asrwt>
<pdfrwt beam="1">  1       21 0.13682021E+00 0.21671451E+03</pdfrwt>
<pdfrwt beam="2">  1       21 0.24963925E-01 0.21671451E+03</pdfrwt>
<totfact> 0.56583602E+03</totfact>
</mgrwt>
</event>
<event>
 4    1  0.2417478E-001  0.2013177E+03  0.7546771E-02  0.1148632E+00
         21   -1    0    0  501  502  0.00000000000E+00  0.00000000000E+00  0.51884429337E+03  0.51884429337E+03  0.00000000000E+00 0.  1.
         21   -1    0    0  502  503 -0.00000000000E+00 -0.00000000000E+00 -0.78829025775E+02  0.78829025775E+02  0.00000000000E+00 0. -1.
          6    1    1    2  501    0 -0.87634967770E+02 -0.57139586710E+02  0.24847575718E+03  0.31979528116E+03  0.17200000000E+03 0. -1.
         -6    1    1    2    0  503  0.87634967770E+02  0.57139586710E+02  0.19153951042E+03  0.27787803799E+03  0.17200000000E+03 0. -1.
<mgrwt>
<rscale>  2 0.20131771E+03</rscale>
<asrwt>0</asrwt>
<pdfrwt beam="1">  1       21 0.12971106E+00 0.20131771E+03</pdfrwt>
<pdfrwt beam="2">  1       21 0.19707258E-01 0.20131771E+03</pdfrwt>
<totfact> 0.10248914E+04</totfact>
</mgrwt>
</event>
<event>
 4    1  0.2417478E-001  0.2714847E+03  0.7546771E-02  0.1100433E+00
         21   -1    0    0  503  502  0.00000000000E+00  0.00000000000E+00  0.29974165896E+03  0.29974165896E+03  0.00000000000E+00 0. -1.
         21   -1    0    0  501  503 -0.00000000000E+00 -0.00000000000E+00 -0.36449451609E+03  0.36449451609E+03  0.00000000000E+00 0.  1.
          6    1    1    2  501    0  0.20754440537E+03 -0.32330174234E+02 -0.22182656876E+03  0.35058657558E+03  0.17200000000E+03 0.  1.
         -6    1    1    2    0  502 -0.20754440537E+03  0.32330174234E+02  0.15707371163E+03  0.31364959948E+03  0.17200000000E+03 0. -1.
<mgrwt>
<rscale>  2 0.27148466E+03</rscale>
<asrwt>0</asrwt>
<pdfrwt beam="1">  1       21 0.74935415E-01 0.27148466E+03</pdfrwt>
<pdfrwt beam="2">  1       21 0.91123629E-01 0.27148466E+03</pdfrwt>
<totfact> 0.15259735E+03</totfact>
</mgrwt>
</event>
<event>
 4    1  0.2417478E-001  0.1896980E+03  0.7546771E-02  0.1158734E+00
         21   -1    0    0  503  502  0.00000000000E+00  0.00000000000E+00  0.14116779847E+03  0.14116779847E+03  0.00000000000E+00 0.  1.
         21   -1    0    0  501  503 -0.00000000000E+00 -0.00000000000E+00 -0.31101377824E+03  0.31101377824E+03  0.00000000000E+00 0. -1.
          6    1    1    2  501    0  0.31405343665E+01  0.79946610181E+02 -0.18094759502E+03  0.26215902727E+03  0.17200000000E+03 0. -1.
         -6    1    1    2    0  502 -0.31405343665E+01 -0.79946610181E+02  0.11101615251E+02  0.19002254944E+03  0.17200000000E+03 0.  1.
<mgrwt>
<rscale>  2 0.18969798E+03</rscale>
<asrwt>0</asrwt>
<pdfrwt beam="1">  1       21 0.35291950E-01 0.18969798E+03</pdfrwt>
<pdfrwt beam="2">  1       21 0.77753444E-01 0.18969798E+03</pdfrwt>
<totfact> 0.11374888E+04</totfact>
</mgrwt>
</event>
<event>
 4    1  0.2417478E-001  0.3633414E+03  0.7546771E-02  0.1057269E+00
         21   -1    0    0  501  502  0.00000000000E+00  0.00000000000E+00  0.45501098721E+03  0.45501098721E+03  0.00000000000E+00 0. -1.
         21   -1    0    0  502  503 -0.00000000000E+00 -0.00000000000E+00 -0.29171670212E+03  0.29171670212E+03  0.00000000000E+00 0.  1.
          6    1    1    2  501    0 -0.19434669088E+03  0.25428783981E+03  0.10909510568E+03  0.37936616061E+03  0.17200000000E+03 0. -1.
         -6    1    1    2    0  503  0.19434669088E+03 -0.25428783981E+03  0.54199179411E+02  0.36736152872E+03  0.17200000000E+03 0.  1.
<mgrwt>
<rscale>  2 0.36334136E+03</rscale>
<asrwt>0</asrwt>
<pdfrwt beam="1">  1       21 0.11375275E+00 0.36334136E+03</pdfrwt>
<pdfrwt beam="2">  1       21 0.72929176E-01 0.36334136E+03</pdfrwt>
<totfact> 0.89870091E+02</totfact>
</mgrwt>
</event>
<event>
 4    1  0.2417478E-001  0.2039453E+03  0.7546771E-02  0.1146452E+00
         21   -1    0    0  503  502  0.00000000000E+00  0.00000000000E+00  0.15064214191E+03  0.15064214191E+03  0.00000000000E+00 0.  1.
         21   -1    0    0  501  503 -0.00000000000E+00 -0.00000000000E+00 -0.31211384051E+03  0.31211384051E+03  0.00000000000E+00 0.  1.
          6    1    1    2  501    0 -0.29352597198E+02  0.10558460004E+03 -0.15932176434E+03  0.25879935726E+03  0.17200000000E+03 0. -1.
         -6    1    1    2    0  502  0.29352597198E+02 -0.10558460004E+03 -0.21499342611E+01  0.20395662516E+03  0.17200000000E+03 0. -1.
<mgrwt>
<rscale>  2 0.20394529E+03</rscale>
<asrwt>0</asrwt>
<pdfrwt beam="1">  1       21 0.37660536E-01 0.20394529E+03</pdfrwt>
<pdfrwt beam="2">  1       21 0.78028459E-01 0.20394529E+03</pdfrwt>
<totfact> 0.98161273E+03</totfact>
</mgrwt>
</event>
<event>
 4    1  0.2417478E-001  0.1782776E+03  0.7546771E-02  0.1169480E+00
         21   -1    0    0  501  502  0.00000000000E+00  0.00000000000E+00  0.54367357390E+02  0.54367357390E+02  0.00000000000E+00 0.  1.
         21   -1    0    0  502  503 -0.00000000000E+00 -0.00000000000E+00 -0.58494828986E+03  0.58494828986E+03  0.00000000000E+00 0.  1.
          6    1    1    2  501    0  0.46024864509E+02 -0.89783843624E+01 -0.27314338449E+03  0.32617511866E+03  0.17200000000E+03 0.  1.
         -6    1    1    2    0  503 -0.46024864509E+02  0.89783843624E+01 -0.25743754798E+03  0.31314052859E+03  0.17200000000E+03 0.  1.
<mgrwt>
<rscale>  2 0.17827759E+03</rscale>
<asrwt>0</asrwt>
<pdfrwt beam="1">  1       21 0.13591839E-01 0.17827759E+03</pdfrwt>
<pdfrwt beam="2">  1       21 0.14623707E+00 0.17827759E+03</pdfrwt>
<totfact> 0.15141276E+04</totfact>
</mgrwt>
</event>
<event>
 4    1  0.2417478E-001  0.2920864E+03  0.7546771E-02  0.1089265E+00
         21   -1    0    0  501  502  0.00000000000E+00  0.00000000000E+00  0.48851327043E+03  0.48851327043E+03  0.00000000000E+00 0.  1.
         21   -1    0    0  502  503 -0.00000000000E+00 -0.00000000000E+00 -0.20127551508E+03  0.20127551508E+03  0.00000000000E+00 0. -1.
          6    1    1    2  501    0 -0.21352193248E+03  0.10069188424E+03  0.26908100234E+03  0.39713858667E+03  0.17200000000E+03 0.  1.
         -6    1    1    2    0  503  0.21352193248E+03 -0.10069188424E+03  0.18156753009E+02  0.29265019884E+03  0.17200000000E+03 0. -1.
<mgrwt>
<rscale>  2 0.29208641E+03</rscale>
<asrwt>0</asrwt>
<pdfrwt beam="1">  1       21 0.12212832E+00 0.29208641E+03</pdfrwt>
<pdfrwt beam="2">  1       21 0.50318880E-01 0.29208641E+03</pdfrwt>
<totfact> 0.17603924E+03</totfact>
</mgrwt>
</event>
<event>
 4    1  0.2417478E-001  0.1843885E+03  0.7546771E-02  0.1163622E+00
         21   -1    0    0  501  502  0.00000000000E+00  0.00000000000E+00  0.54418172978E+03  0.54418172978E+03  0.00000000000E+00 0.  1.
         21   -1    0    0  502  503 -0.00000000000E+00 -0.00000000000E+00 -0.69542563147E+02  0.69542563147E+02  0.00000000000E+00 0. -1.
          6    1    1    2  501    0  0.66415943052E+02 -0.20116828304E+01  0.33512781606E+03  0.38250461102E+03  0.17200000000E+03 0. -1.
         -6    1    1    2    0  503 -0.66415943052E+02  0.20116828304E+01  0.13951135057E+03  0.23121968190E+03  0.17200000000E+03 0. -1.
<mgrwt>
<rscale>  2 0.18438851E+03</rscale>
<asrwt>0</asrwt>
<pdfrwt beam="1">  1       21 0.13604542E+00 0.18438851E+03</pdfrwt>
<pdfrwt beam="2">  1       21 0.17385642E-01 0.18438851E+03</pdfrwt>
<totfact> 0.11599731E+04</totfact>
</mgrwt>
</event>
<event>
 4    1  0.2417478E-001  0.2888664E+03  0.7546771E-02  0.1090942E+00
         21   -1    0    0  503  502  0.00000000000E+00  0.00000000000E+00  0.86183655264E+03  0.86183655264E+03  0.00000000000E+00 0.  1.
         21   -1    0    0  501  503 -0.00000000000E+00 -0.00000000000E+00 -0.11860701744E+03  0.11860701744E+03  0.00000000000E+00 0.  1.
          6    1    1    2  501    0  0.17244599122E+03 -0.15531322201E+03  0.16151429350E+03  0.33095420200E+03  0.17200000000E+03 0.  1.
         -6    1    1    2    0  502 -0.17244599122E+03  0.15531322201E+03  0.58171524170E+03  0.64948936808E+03  0.17200000000E+03 0.  1.
<mgrwt>
<rscale>  2 0.28886643E+03</rscale>
<asrwt>0</asrwt>
<pdfrwt beam="1">  1       21 0.21545912E+00 0.28886643E+03</pdfrwt>
<pdfrwt beam="2">  1       21 0.29651757E-01 0.28886643E+03</pdfrwt>
<totfact> 0.10686596E+03</totfact>
</mgrwt>
</event>
<event>
 4    1  0.2417478E-001  0.2417039E+03  0.7546771E-02  0.1118663E+00
         21   -1    0    0  503  502  0.00000000000E+00  0.00000000000E+00  0.28551927346E+03  0.28551927346E+03  0.00000000000E+00 0. -1.
         21   -1    0    0  501  503 -0.00000000000E+00 -0.00000000000E+00 -0.21225062334E+03  0.21225062334E+03  0.00000000000E+00 0. -1.
          6    1    1    2  501    0 -0.79800789285E+02 -0.14989535352E+03  0.83848282358E+02  0.25583455090E+03  0.17200000000E+03 0. -1.
         -6    1    1    2    0  502  0.79800789285E+02  0.14989535352E+03 -0.10579632234E+02  0.24193534590E+03  0.17200000000E+03 0. -1.
<mgrwt>
<rscale>  2 0.24170392E+03</rscale>
<asrwt>0</asrwt>
<pdfrwt beam="1">  1       21 0.71379818E-01 0.24170392E+03</pdfrwt>
<pdfrwt beam="2">  1       21 0.53062656E-01 0.24170392E+03</pdfrwt>
<totfact> 0.57692945E+03</totfact>
</mgrwt>
</event>
<event>
 4    1  0.2417478E-001  0.1927002E+03  0.7546771E-02  0.1156048E+00
         21   -1    0    0  501  502  0.00000000000E+00  0.00000000000E+00  0.19361684044E+03  0.19361684044E+03  0.00000000000E+00 0.  1.
         21   -1    0    0  502  503 -0.00000000000E+00 -0.00000000000E+00 -0.26220768121E+03  0.26220768121E+03  0.00000000000E+00 0.  1.
          6    1    1    2  501    0  0.84513491838E+02  0.20170326044E+02  0.83816094117E+02  0.21013926332E+03  0.17200000000E+03 0.  1.
         -6    1    1    2    0  503 -0.84513491838E+02 -0.20170326044E+02 -0.15240693489E+03  0.24568525833E+03  0.17200000000E+03 0.  1.
<mgrwt>
<rscale>  2 0.19270021E+03</rscale>
<asrwt>0</asrwt>
<pdfrwt beam="1">  1       21 0.48404210E-01 0.19270021E+03</pdfrwt>
<pdfrwt beam="2">  1       21 0.65551920E-01 0.19270021E+03</pdfrwt>
<totfact> 0.87226361E+03</totfact>
</mgrwt>
</event>
<event>
 4    1  0.2417478E-001  0.1724527E+03  0.7546771E-02  0.1175314E+00
         21   -1    0    0  501  502  0.00000000000E+00  0.00000000000E+00  0.40879486020E+03  0.40879486020E+03  0.00000000000E+00 0.  1.
         21   -1    0    0  502  503 -0.00000000000E+00 -0.00000000000E+00 -0.10501896025E+03  0.10501896025E+03  0.00000000000E+00 0.  1.
          6    1    1    2  501    0  0.18941217326E+00  0.12485845779E+02  0.29429538613E+03  0.34110072782E+03  0.17200000000E+03 0.  1.
         -6    1    1    2    0  503 -0.18941217326E+00 -0.12485845779E+02  0.94805138144E+01  0.17271309262E+03  0.17200000000E+03 0.  1.
<mgrwt>
<rscale>  2 0.17245270E+03</rscale>
<asrwt>0</asrwt>
<pdfrwt beam="1">  1       21 0.10219871E+00 0.17245270E+03</pdfrwt>
<pdfrwt beam="2">  1       21 0.26254741E-01 0.17245270E+03</pdfrwt>
<totfact> 0.10906743E+04</totfact>
</mgrwt>
</event>
<event>
 4    1  0.2417478E-001  0.2311718E+03  0.7546771E-02  0.1125818E+00
         21   -1    0    0  503  502  0.00000000000E+00  0.00000000000E+00  0.12762708169E+04  0.12762708169E+04  0.00000000000E+00 0. -1.
         21   -1    0    0  501  503 -0.00000000000E+00 -0.00000000000E+00 -0.43932292234E+02  0.43932292234E+02  0.00000000000E+00 0.  1.
          6    1    1    2  501    0 -0.57499738715E+01  0.15434816989E+03  0.75910786504E+03  0.79352704460E+03  0.17200000000E+03 0. -1.
         -6    1    1    2    0  502  0.57499738715E+01 -0.15434816989E+03  0.47323065967E+03  0.52667606458E+03  0.17200000000E+03 0.  1.
<mgrwt>
<rscale>  2 0.23117184E+03</rscale>
<asrwt>0</asrwt>
<pdfrwt beam="1">  1       21 0.31906758E+00 0.23117184E+03</pdfrwt>
<pdfrwt beam="2">  1       21 0.10983077E-01 0.23117184E+03</pdfrwt>
<totfact> 0.17370212E+03</totfact>
</mgrwt>
</event>
<event>
 4    1  0.2417478E-001  0.2144750E+03  0.7546771E-02  0.1138071E+00
         21   -1    0    0  503  502  0.00000000000E+00  0.00000000000E+00  0.22873892297E+03  0.22873892297E+03  0.00000000000E+00 0. -1.
         21   -1    0    0  501  503 -0.00000000000E+00 -0.00000000000E+00 -0.20265557630E+03  0.20265557630E+03  0.00000000000E+00 0. -1.
          6    1    1    2  501    0 -0.37027736811E+02 -0.12265585360E+03 -0.58530796211E+01  0.21455481877E+03  0.17200000000E+03 0. -1.
         -6    1    1    2    0  502  0.37027736811E+02  0.12265585360E+03  0.31936426294E+02  0.21683968050E+03  0.17200000000E+03 0. -1.
<mgrwt>
<rscale>  2 0.21447497E+03</rscale>
<asrwt>0</asrwt>
<pdfrwt beam="1">  1       21 0.57184731E-01 0.21447497E+03</pdfrwt>
<pdfrwt beam="2">  1       21 0.50663894E-01 0.21447497E+03</pdfrwt>
<totfact> 0.10491191E+04</totfact>
</mgrwt>
</event>
<event>
 4    1  0.2417478E-001  0.2571233E+03  0.7546771E-02  0.1108884E+00
         21   -1    0    0  501  502  0.00000000000E+00  0.00000000000E+00  0.29065574380E+03  0.29065574380E+03  0.00000000000E+00 0.  1.
         21   -1    0    0  502  503 -0.00000000000E+00 -0.00000000000E+00 -0.23963711951E+03  0.23963711951E+03  0.00000000000E+00 0.  1.
          6    1    1    2  501    0  0.54939067919E+02  0.18305761067E+03  0.85280402393E+02  0.27089691220E+03  0.17200000000E+03 0.  1.
         -6    1    1    2    0  503 -0.54939067919E+02 -0.18305761067E+03 -0.34261778100E+02  0.25939595110E+03  0.17200000000E+03 0.  1.
<mgrwt>
<rscale>  2 0.25712330E+03</rscale>
<asrwt>0</asrwt>
<pdfrwt beam="1">  1       21 0.72663936E-01 0.25712330E+03</pdfrwt>
<pdfrwt beam="2">  1       21 0.59909280E-01 0.25712330E+03</pdfrwt>
<totfact> 0.42363791E+03</totfact>
</mgrwt>
</event>
<event>
 4    1  0.2417478E-001  0.2122051E+03  0.7546771E-02  0.1139832E+00
         21   -1    0    0  501  502  0.00000000000E+00  0.00000000000E+00  0.12462723422E+04  0.12462723422E+04  0.00000000000E+00 0. -1.
         21   -1    0    0  502  503 -0.00000000000E+00 -0.00000000000E+00 -0.38287921280E+02  0.38287921280E+02  0.00000000000E+00 0. -1.
          6    1    1    2  501    0  0.66009072227E+02 -0.10530817003E+03  0.75638126855E+03  0.78558489783E+03  0.17200000000E+03 0. -1.
         -6    1    1    2    0  503 -0.66009072227E+02  0.10530817003E+03  0.45160315237E+03  0.49897536565E+03  0.17200000000E+03 0. -1.
<mgrwt>
<rscale>  2 0.21220511E+03</rscale>
<asrwt>0</asrwt>
<pdfrwt beam="1">  1       21 0.31156795E+00 0.21220511E+03</pdfrwt>
<pdfrwt beam="2">  1       21 0.95719845E-02 0.21220511E+03</pdfrwt>
<totfact> 0.25062365E+03</totfact>
</mgrwt>
</event>
<event>
 4    1  0.2417478E-001  0.2429690E+03  0.7546771E-02  0.1117831E+00
         21   -1    0    0  503  502  0.00000000000E+00  0.00000000000E+00  0.22565385918E+03  0.22565385918E+03  0.00000000000E+00 0.  1.
         21   -1    0    0  501  503 -0.00000000000E+00 -0.00000000000E+00 -0.33665128423E+03  0.33665128423E+03  0.00000000000E+00 0. -1.
          6    1    1    2  501    0 -0.10628777655E+03 -0.13473256563E+03 -0.18823623926E+03  0.30735457936E+03  0.17200000000E+03 0. -1.
         -6    1    1    2    0  502  0.10628777655E+03  0.13473256563E+03  0.77238814215E+02  0.25495056405E+03  0.17200000000E+03 0.  1.
<mgrwt>
<rscale>  2 0.24296904E+03</rscale>
<asrwt>0</asrwt>
<pdfrwt beam="1">  1       21 0.56413465E-01 0.24296904E+03</pdfrwt>
<pdfrwt beam="2">  1       21 0.84162821E-01 0.24296904E+03</pdfrwt>
<totfact> 0.34871815E+03</totfact>
</mgrwt>
</event>
<event>
 4    1  0.2417478E-001  0.2017803E+03  0.7546771E-02  0.1148246E+00
         21   -1    0    0  501  502  0.00000000000E+00  0.00000000000E+00  0.82402928476E+03  0.82402928476E+03  0.00000000000E+00 0.  1.
         21   -1    0    0  502  503 -0.00000000000E+00 -0.00000000000E+00 -0.50958123714E+02  0.50958123714E+02  0.00000000000E+00 0.  1.
          6    1    1    2  501    0  0.64212768343E+02 -0.83713947764E+02  0.31028118011E+03  0.37012121717E+03  0.17200000000E+03 0.  1.
         -6    1    1    2    0  503 -0.64212768343E+02  0.83713947764E+02  0.46278998094E+03  0.50486619131E+03  0.17200000000E+03 0.  1.
<mgrwt>
<rscale>  2 0.20178034E+03</rscale>
<asrwt>0</asrwt>
<pdfrwt beam="1">  1       21 0.20600728E+00 0.20178034E+03</pdfrwt>
<pdfrwt beam="2">  1       21 0.12739534E-01 0.20178034E+03</pdfrwt>
<totfact> 0.64281404E+03</totfact>
</mgrwt>
</event>
<event>
 4    1  0.2417478E-001  0.1752698E+03  0.7546771E-02  0.1172461E+00
         21   -1    0    0  501  502  0.00000000000E+00  0.00000000000E+00  0.10644661475E+03  0.10644661475E+03  0.00000000000E+00 0.  1.
         21   -1    0    0  502  503 -0.00000000000E+00 -0.00000000000E+00 -0.29975223805E+03  0.29975223805E+03  0.00000000000E+00 0.  1.
          6    1    1    2  501    0  0.11131925052E+02 -0.31805568349E+02 -0.13584391722E+03  0.22175004798E+03  0.17200000000E+03 0.  1.
         -6    1    1    2    0  503 -0.11131925052E+02  0.31805568349E+02 -0.57461706075E+02  0.18444880482E+03  0.17200000000E+03 0.  1.
<mgrwt>
<rscale>  2 0.17526983E+03</rscale>
<asrwt>0</asrwt>
<pdfrwt beam="1">  1       21 0.26611654E-01 0.17526983E+03</pdfrwt>
<pdfrwt beam="2">  1       21 0.74938059E-01 0.17526983E+03</pdfrwt>
<totfact> 0.21629649E+04</totfact>
</mgrwt>
</event>
<event>
 4    1  0.2417478E-001  0.1748042E+03  0.7546771E-02  0.1172928E+00
         21   -1    0    0  501  502  0.00000000000E+00  0.00000000000E+00  0.30941332978E+03  0.30941332978E+03  0.00000000000E+00 0. -1.
         21   -1    0    0  502  503 -0.00000000000E+00 -0.00000000000E+00 -0.10019731793E+03  0.10019731793E+03  0.00000000000E+00 0. -1.
          6    1    1    2  501    0 -0.31179090292E+02  0.60232714640E+00  0.80046429456E+02  0.19226005653E+03  0.17200000000E+03 0. -1.
         -6    1    1    2    0  503  0.31179090292E+02 -0.60232714640E+00  0.12916958239E+03  0.21735059117E+03  0.17200000000E+03 0. -1.
<mgrwt>
<rscale>  2 0.17480417E+03</rscale>
<asrwt>0</asrwt>
<pdfrwt beam="1">  1       21 0.77353331E-01 0.17480417E+03</pdfrwt>
<pdfrwt beam="2">  1       21 0.25049330E-01 0.17480417E+03</pdfrwt>
<totfact> 0.22626887E+04</totfact>
</mgrwt>
</event>
<event>
 4    1  0.2417478E-001  0.1970755E+03  0.7546771E-02  0.1152230E+00
         21   -1    0    0  501  502  0.00000000000E+00  0.00000000000E+00  0.41090179927E+03  0.41090179927E+03  0.00000000000E+00 0.  1.
         21   -1    0    0  502  503 -0.00000000000E+00 -0.00000000000E+00 -0.13032260120E+03  0.13032260120E+03  0.00000000000E+00 0. -1.
          6    1    1    2  501    0 -0.25614920539E+02 -0.92728743219E+02  0.28212684094E+03  0.34414284585E+03  0.17200000000E+03 0.  1.
         -6    1    1    2    0  503  0.25614920539E+02  0.92728743219E+02 -0.15476428652E+01  0.19708155462E+03  0.17200000000E+03 0. -1.
<mgrwt>
<rscale>  2 0.19707548E+03</rscale>
<asrwt>0</asrwt>
<pdfrwt beam="1">  1       21 0.10272545E+00 0.19707548E+03</pdfrwt>
<pdfrwt beam="2">  1       21 0.32580651E-01 0.19707548E+03</pdfrwt>
<totfact> 0.69574981E+03</totfact>
</mgrwt>
</event>
<event>
 4    1  0.2417478E-001  0.2120553E+03  0.7546771E-02  0.1139949E+00
         21   -1    0    0  501  502  0.00000000000E+00  0.00000000000E+00  0.55692323781E+03  0.55692323781E+03  0.00000000000E+00 0.  1.
         21   -1    0    0  502  503 -0.00000000000E+00 -0.00000000000E+00 -0.11809321646E+03  0.11809321646E+03  0.00000000000E+00 0. -1.
          6    1    1    2  501    0 -0.15435688065E+02  0.12306577313E+03  0.40922568012E+03  0.46090465636E+03  0.17200000000E+03 0.  1.
         -6    1    1    2    0  503  0.15435688065E+02 -0.12306577313E+03  0.29604341219E+02  0.21411179791E+03  0.17200000000E+03 0. -1.
<mgrwt>
<rscale>  2 0.21205529E+03</rscale>
<asrwt>0</asrwt>
<pdfrwt beam="1">  1       21 0.13923080E+00 0.21205529E+03</pdfrwt>
<pdfrwt beam="2">  1       21 0.29523306E-01 0.21205529E+03</pdfrwt>
<totfact> 0.39258234E+03</totfact>
</mgrwt>
</event>
