<event>
 4    1  0.5013722E-002  0.4419239E+03  0.7818608E-02  0.1030158E+00
         21   -1    0    0  503  502  0.00000000000E+00  0.00000000000E+00  0.27637675638E+03  0.27637675638E+03  0.00000000000E+00 0.  1.
         21   -1    0    0  501  503 -0.00000000000E+00 -0.00000000000E+00 -0.98821515396E+03  0.98821515396E+03  0.00000000000E+00 0.  1.
    9000007    1    1    2  501    0  0.32411456864E+02  0.18505745984E+03 -0.69343778102E+03  0.82228506135E+03  0.40000000000E+03 0.  1.
   -9000007    1    1    2    0  502 -0.32411456864E+02 -0.18505745984E+03 -0.18400616561E+02  0.44230684900E+03  0.40000000000E+03 0.  1.
<mgrwt>
<rscale>  2 0.44192394E+03</rscale>
<asrwt>0</asrwt>
<pdfrwt beam="1">  1       21 0.42519501E-01 0.44192394E+03</pdfrwt>
<pdfrwt beam="2">  1       21 0.15203310E+00 0.44192394E+03</pdfrwt>
<totfact> 0.13073140E+03</totfact>
</mgrwt>
</event>
<event>
 4    1  0.5013722E-002  0.6332746E+03  0.7818608E-02  0.9838679E-01
         21   -1    0    0  503  502  0.00000000000E+00  0.00000000000E+00  0.56847614963E+03  0.56847614963E+03  0.00000000000E+00 0. -1.
         21   -1    0    0  501  503 -0.00000000000E+00 -0.00000000000E+00 -0.14314578806E+04  0.14314578806E+04  0.00000000000E+00 0.  1.
    9000007    1    1    2  501    0 -0.46234583522E+03  0.16514544105E+03 -0.11436291358E+04  0.13072583097E+04  0.40000000000E+03 0.  1.
   -9000007    1    1    2    0  502  0.46234583522E+03 -0.16514544105E+03  0.28064740478E+03  0.69267572056E+03  0.40000000000E+03 0. -1.
<mgrwt>
<rscale>  2 0.63327458E+03</rscale>
<asrwt>0</asrwt>
<pdfrwt beam="1">  1       21 0.87457871E-01 0.63327458E+03</pdfrwt>
<pdfrwt beam="2">  1       21 0.22022429E+00 0.63327458E+03</pdfrwt>
<totfact> 0.81265782E+01</totfact>
</mgrwt>
</event>
<event>
 4    1  0.5013722E-002  0.5447090E+03  0.7818608E-02  0.1002726E+00
         21   -1    0    0  503  502  0.00000000000E+00  0.00000000000E+00  0.36289306790E+03  0.36289306790E+03  0.00000000000E+00 0.  1.
         21   -1    0    0  501  503 -0.00000000000E+00 -0.00000000000E+00 -0.86112468938E+03  0.86112468938E+03  0.00000000000E+00 0. -1.
    9000007    1    1    2  501    0  0.29354635125E+03 -0.22480751483E+03 -0.11155235761E+03  0.55601421524E+03  0.40000000000E+03 0.  1.
   -9000007    1    1    2    0  502 -0.29354635125E+03  0.22480751483E+03 -0.38667926388E+03  0.66800354204E+03  0.40000000000E+03 0. -1.
<mgrwt>
<rscale>  2 0.54470899E+03</rscale>
<asrwt>0</asrwt>
<pdfrwt beam="1">  1       21 0.55829703E-01 0.54470899E+03</pdfrwt>
<pdfrwt beam="2">  1       21 0.13248072E+00 0.54470899E+03</pdfrwt>
<totfact> 0.10190550E+03</totfact>
</mgrwt>
</event>
<event>
 4    1  0.5013722E-002  0.4302310E+03  0.7818608E-02  0.1033787E+00
         21   -1    0    0  503  502  0.00000000000E+00  0.00000000000E+00  0.21158059383E+03  0.21158059383E+03  0.00000000000E+00 0.  1.
         21   -1    0    0  501  503 -0.00000000000E+00 -0.00000000000E+00 -0.11331338077E+04  0.11331338077E+04  0.00000000000E+00 0.  1.
    9000007    1    1    2  501    0  0.83334033215E+02 -0.13473744512E+03 -0.78178630549E+03  0.89235002530E+03  0.40000000000E+03 0. -1.
   -9000007    1    1    2    0  502 -0.83334033215E+02  0.13473744512E+03 -0.13976690840E+03  0.45236437624E+03  0.40000000000E+03 0. -1.
<mgrwt>
<rscale>  2 0.43023103E+03</rscale>
<asrwt>0</asrwt>
<pdfrwt beam="1">  1       21 0.32550861E-01 0.43023103E+03</pdfrwt>
<pdfrwt beam="2">  1       21 0.17432827E+00 0.43023103E+03</pdfrwt>
<totfact> 0.15445200E+03</totfact>
</mgrwt>
</event>
<event>
 4    1  0.5013722E-002  0.5938609E+03  0.7818608E-02  0.9918225E-01
         21   -1    0    0  501  502  0.00000000000E+00  0.00000000000E+00  0.10139388354E+04  0.10139388354E+04  0.00000000000E+00 0.  1.
         21   -1    0    0  502  503 -0.00000000000E+00 -0.00000000000E+00 -0.41832765381E+03  0.41832765381E+03  0.00000000000E+00 0.  1.
    9000007    1    1    2  501    0  0.42569289566E+03  0.10703438257E+03  0.59180455342E+03  0.83839336228E+03  0.40000000000E+03 0.  1.
   -9000007    1    1    2    0  503 -0.42569289566E+03 -0.10703438257E+03  0.38066281657E+01  0.59387312693E+03  0.40000000000E+03 0.  1.
<mgrwt>
<rscale>  2 0.59386093E+03</rscale>
<asrwt>0</asrwt>
<pdfrwt beam="1">  1       21 0.15599059E+00 0.59386093E+03</pdfrwt>
<pdfrwt beam="2">  1       21 0.64358101E-01 0.59386093E+03</pdfrwt>
<totfact> 0.47119759E+02</totfact>
</mgrwt>
</event>
<event>
 4    1  0.5013722E-002  0.4218823E+03  0.7818608E-02  0.1036455E+00
         21   -1    0    0  501  502  0.00000000000E+00  0.00000000000E+00  0.63957995909E+03  0.63957995909E+03  0.00000000000E+00 0. -1.
         21   -1    0    0  502  503 -0.00000000000E+00 -0.00000000000E+00 -0.27984258804E+03  0.27984258804E+03  0.00000000000E+00 0. -1.
    9000007    1    1    2  501    0 -0.71625718772E+02 -0.11337744929E+03  0.21417966127E+03  0.47313593913E+03  0.40000000000E+03 0. -1.
   -9000007    1    1    2    0  503  0.71625718772E+02  0.11337744929E+03  0.14555770978E+03  0.44628660799E+03  0.40000000000E+03 0. -1.
<mgrwt>
<rscale>  2 0.42188232E+03</rscale>
<asrwt>0</asrwt>
<pdfrwt beam="1">  1       21 0.98396917E-01 0.42188232E+03</pdfrwt>
<pdfrwt beam="2">  1       21 0.43052706E-01 0.42188232E+03</pdfrwt>
<totfact> 0.39060734E+03</totfact>
</mgrwt>
</event>
<event>
 4    1  0.5013722E-002  0.4372920E+03  0.7818608E-02  0.1031581E+00
         21   -1    0    0  503  502  0.00000000000E+00  0.00000000000E+00  0.41745980765E+03  0.41745980765E+03  0.00000000000E+00 0. -1.
         21   -1    0    0  501  503 -0.00000000000E+00 -0.00000000000E+00 -0.48234268133E+03  0.48234268133E+03  0.00000000000E+00 0. -1.
    9000007    1    1    2  501    0 -0.10477311623E+03 -0.14229169492E+03 -0.13337369198E+03  0.45717925810E+03  0.40000000000E+03 0. -1.
   -9000007    1    1    2    0  502  0.10477311623E+03  0.14229169492E+03  0.68490818300E+02  0.44262323088E+03  0.40000000000E+03 0. -1.
<mgrwt>
<rscale>  2 0.43729204E+03</rscale>
<asrwt>0</asrwt>
<pdfrwt beam="1">  1       21 0.64224586E-01 0.43729204E+03</pdfrwt>
<pdfrwt beam="2">  1       21 0.74206566E-01 0.43729204E+03</pdfrwt>
<totfact> 0.31900220E+03</totfact>
</mgrwt>
</event>
<event>
 4    1  0.5013722E-002  0.4760135E+03  0.7818608E-02  0.1020237E+00
         21   -1    0    0  503  502  0.00000000000E+00  0.00000000000E+00  0.84404458677E+03  0.84404458677E+03  0.00000000000E+00 0. -1.
         21   -1    0    0  501  503 -0.00000000000E+00 -0.00000000000E+00 -0.39176446434E+03  0.39176446434E+03  0.00000000000E+00 0.  1.
    9000007    1    1    2  501    0 -0.24891382252E+03 -0.68049661779E+02 -0.12052116713E+03  0.49103380661E+03  0.40000000000E+03 0.  1.
   -9000007    1    1    2    0  502  0.24891382252E+03  0.68049661779E+02  0.57280128955E+03  0.74477524450E+03  0.40000000000E+03 0. -1.
<mgrwt>
<rscale>  2 0.47601350E+03</rscale>
<asrwt>0</asrwt>
<pdfrwt beam="1">  1       21 0.12985301E+00 0.47601350E+03</pdfrwt>
<pdfrwt beam="2">  1       21 0.60271456E-01 0.47601350E+03</pdfrwt>
<totfact> 0.93165343E+02</totfact>
</mgrwt>
</event>
<event>
 4    1  0.5013722E-002  0.4145025E+03  0.7818608E-02  0.1038871E+00
         21   -1    0    0  501  502  0.00000000000E+00  0.00000000000E+00  0.13321292391E+03  0.13321292391E+03  0.00000000000E+00 0.  1.
         21   -1    0    0  502  503 -0.00000000000E+00 -0.00000000000E+00 -0.22967041233E+04  0.22967041233E+04  0.00000000000E+00 0. -1.
    9000007    1    1    2  501    0 -0.91372958978E+02  0.58850176738E+02 -0.27727132096E+03  0.49869003034E+03  0.40000000000E+03 0.  1.
   -9000007    1    1    2    0  503  0.91372958978E+02 -0.58850176738E+02 -0.18862198785E+04  0.19312270169E+04  0.40000000000E+03 0. -1.
<mgrwt>
<rscale>  2 0.41450255E+03</rscale>
<asrwt>0</asrwt>
<pdfrwt beam="1">  1       21 0.20494297E-01 0.41450255E+03</pdfrwt>
<pdfrwt beam="2">  1       21 0.35333907E+00 0.41450255E+03</pdfrwt>
<totfact> 0.29272338E+02</totfact>
</mgrwt>
</event>
<event>
 4    1  0.5013722E-002  0.4290857E+03  0.7818608E-02  0.1034149E+00
         21   -1    0    0  503  502  0.00000000000E+00  0.00000000000E+00  0.44220369379E+03  0.44220369379E+03  0.00000000000E+00 0.  1.
         21   -1    0    0  501  503 -0.00000000000E+00 -0.00000000000E+00 -0.56079189679E+03  0.56079189679E+03  0.00000000000E+00 0.  1.
    9000007    1    1    2  501    0  0.15486885511E+03 -0.11410240260E+02 -0.31380383276E+03  0.53158950453E+03  0.40000000000E+03 0.  1.
   -9000007    1    1    2    0  502 -0.15486885511E+03  0.11410240260E+02  0.19521562976E+03  0.47140608605E+03  0.40000000000E+03 0.  1.
<mgrwt>
<rscale>  2 0.42908572E+03</rscale>
<asrwt>0</asrwt>
<pdfrwt beam="1">  1       21 0.68031338E-01 0.42908572E+03</pdfrwt>
<pdfrwt beam="2">  1       21 0.86275676E-01 0.42908572E+03</pdfrwt>
<totfact> 0.19876759E+03</totfact>
</mgrwt>
</event>
<event>
 4    1  0.5013722E-002  0.4550090E+03  0.7818608E-02  0.1026239E+00
         21   -1    0    0  501  502  0.00000000000E+00  0.00000000000E+00  0.18035939513E+04  0.18035939513E+04  0.00000000000E+00 0.  1.
         21   -1    0    0  502  503 -0.00000000000E+00 -0.00000000000E+00 -0.14693658931E+03  0.14693658931E+03  0.00000000000E+00 0.  1.
    9000007    1    1    2  501    0  0.16814236930E+02 -0.21621847852E+03  0.37215473390E+03  0.58781995116E+03  0.40000000000E+03 0.  1.
   -9000007    1    1    2    0  503 -0.16814236930E+02  0.21621847852E+03  0.12845026281E+04  0.13627105895E+04  0.40000000000E+03 0.  1.
<mgrwt>
<rscale>  2 0.45500895E+03</rscale>
<asrwt>0</asrwt>
<pdfrwt beam="1">  1       21 0.27747598E+00 0.45500895E+03</pdfrwt>
<pdfrwt beam="2">  1       21 0.22605630E-01 0.45500895E+03</pdfrwt>
<totfact> 0.67998938E+02</totfact>
</mgrwt>
</event>
<event>
 4    1  0.5013722E-002  0.7672790E+03  0.7818608E-02  0.9608626E-01
         21   -1    0    0  501  502  0.00000000000E+00  0.00000000000E+00  0.11965055593E+04  0.11965055593E+04  0.00000000000E+00 0.  1.
         21   -1    0    0  502  503 -0.00000000000E+00 -0.00000000000E+00 -0.81156378834E+03  0.81156378834E+03  0.00000000000E+00 0. -1.
    9000007    1    1    2  501    0  0.41947071188E+03 -0.50275376818E+03  0.82247813701E+03  0.11248054567E+04  0.40000000000E+03 0.  1.
   -9000007    1    1    2    0  503 -0.41947071188E+03  0.50275376818E+03 -0.43753636600E+03  0.88326389099E+03  0.40000000000E+03 0. -1.
<mgrwt>
<rscale>  2 0.76727898E+03</rscale>
<asrwt>0</asrwt>
<pdfrwt beam="1">  1       21 0.18407778E+00 0.76727898E+03</pdfrwt>
<pdfrwt beam="2">  1       21 0.12485597E+00 0.76727898E+03</pdfrwt>
<totfact> 0.56107396E+01</totfact>
</mgrwt>
</event>
<event>
 4    1  0.5013722E-002  0.4505294E+03  0.7818608E-02  0.1027564E+00
         21   -1    0    0  501  502  0.00000000000E+00  0.00000000000E+00  0.28809970321E+03  0.28809970321E+03  0.00000000000E+00 0. -1.
         21   -1    0    0  502  503 -0.00000000000E+00 -0.00000000000E+00 -0.73588930431E+03  0.73588930431E+03  0.00000000000E+00 0.  1.
    9000007    1    1    2  501    0 -0.18993778958E+03 -0.83068554044E+02 -0.32957592876E+03  0.55820877940E+03  0.40000000000E+03 0.  1.
   -9000007    1    1    2    0  503  0.18993778958E+03  0.83068554044E+02 -0.11821367234E+03  0.46578022812E+03  0.40000000000E+03 0.  1.
<mgrwt>
<rscale>  2 0.45052941E+03</rscale>
<asrwt>0</asrwt>
<pdfrwt beam="1">  1       21 0.44323032E-01 0.45052941E+03</pdfrwt>
<pdfrwt beam="2">  1       21 0.11321374E+00 0.45052941E+03</pdfrwt>
<totfact> 0.25765513E+03</totfact>
</mgrwt>
</event>
<event>
 4    1  0.5013722E-002  0.4137654E+03  0.7818608E-02  0.1039115E+00
         21   -1    0    0  501  502  0.00000000000E+00  0.00000000000E+00  0.44808133509E+03  0.44808133509E+03  0.00000000000E+00 0. -1.
         21   -1    0    0  502  503 -0.00000000000E+00 -0.00000000000E+00 -0.38211946590E+03  0.38211946590E+03  0.00000000000E+00 0. -1.
    9000007    1    1    2  501    0 -0.10443211246E+03 -0.17195950440E+02  0.28627399632E+02  0.41475449947E+03  0.40000000000E+03 0. -1.
   -9000007    1    1    2    0  503  0.10443211246E+03  0.17195950440E+02  0.37334469566E+02  0.41544630151E+03  0.40000000000E+03 0. -1.
<mgrwt>
<rscale>  2 0.41376535E+03</rscale>
<asrwt>0</asrwt>
<pdfrwt beam="1">  1       21 0.68935590E-01 0.41376535E+03</pdfrwt>
<pdfrwt beam="2">  1       21 0.58787610E-01 0.41376535E+03</pdfrwt>
<totfact> 0.46148951E+03</totfact>
</mgrwt>
</event>
<event>
 4    1  0.5013722E-002  0.4429182E+03  0.7818608E-02  0.1029855E+00
         21   -1    0    0  503  502  0.00000000000E+00  0.00000000000E+00  0.33750596974E+03  0.33750596974E+03  0.00000000000E+00 0.  1.
         21   -1    0    0  501  503 -0.00000000000E+00 -0.00000000000E+00 -0.10019135909E+04  0.10019135909E+04  0.00000000000E+00 0.  1.
    9000007    1    1    2  501    0  0.32572961033E+01  0.19017347753E+03 -0.76615122900E+03  0.88496568703E+03  0.40000000000E+03 0. -1.
   -9000007    1    1    2    0  502 -0.32572961033E+01 -0.19017347753E+03  0.10174360781E+03  0.45445387364E+03  0.40000000000E+03 0. -1.
<mgrwt>
<rscale>  2 0.44291823E+03</rscale>
<asrwt>0</asrwt>
<pdfrwt beam="1">  1       21 0.51923995E-01 0.44291823E+03</pdfrwt>
<pdfrwt beam="2">  1       21 0.15414055E+00 0.44291823E+03</pdfrwt>
<totfact> 0.82602101E+02</totfact>
</mgrwt>
</event>
<event>
 4    1  0.5013722E-002  0.4558051E+03  0.7818608E-02  0.1026005E+00
         21   -1    0    0  503  502  0.00000000000E+00  0.00000000000E+00  0.65822847656E+03  0.65822847656E+03  0.00000000000E+00 0.  1.
         21   -1    0    0  501  503 -0.00000000000E+00 -0.00000000000E+00 -0.31966405790E+03  0.31966405790E+03  0.00000000000E+00 0.  1.
    9000007    1    1    2  501    0 -0.12352461409E+02  0.21818739065E+03  0.11437252415E+03  0.46993552220E+03  0.40000000000E+03 0.  1.
   -9000007    1    1    2    0  502  0.12352461409E+02 -0.21818739065E+03  0.22419189452E+03  0.50795701227E+03  0.40000000000E+03 0.  1.
<mgrwt>
<rscale>  2 0.45580513E+03</rscale>
<asrwt>0</asrwt>
<pdfrwt beam="1">  1       21 0.10126592E+00 0.45580513E+03</pdfrwt>
<pdfrwt beam="2">  1       21 0.49179086E-01 0.45580513E+03</pdfrwt>
<totfact> 0.27210474E+03</totfact>
</mgrwt>
</event>
<event>
 4    1  0.5013722E-002  0.5020279E+03  0.7818608E-02  0.1013251E+00
         21   -1    0    0  501  502  0.00000000000E+00  0.00000000000E+00  0.24424500507E+03  0.24424500507E+03  0.00000000000E+00 0. -1.
         21   -1    0    0  502  503 -0.00000000000E+00 -0.00000000000E+00 -0.31881638332E+04  0.31881638332E+04  0.00000000000E+00 0.  1.
    9000007    1    1    2  501    0  0.10361955010E+03 -0.28512285499E+03 -0.60555067915E+02  0.50566685659E+03  0.40000000000E+03 0. -1.
   -9000007    1    1    2    0  503 -0.10361955010E+03  0.28512285499E+03 -0.28833637603E+04  0.29267419817E+04  0.40000000000E+03 0.  1.
<mgrwt>
<rscale>  2 0.50202794E+03</rscale>
<asrwt>0</asrwt>
<pdfrwt beam="1">  1       21 0.37576158E-01 0.50202794E+03</pdfrwt>
<pdfrwt beam="2">  1       21 0.49048670E+00 0.50202794E+03</pdfrwt>
<totfact> 0.10416464E+01</totfact>
</mgrwt>
</event>
<event>
 4    1  0.5013722E-002  0.4604050E+03  0.7818608E-02  0.1024664E+00
         21   -1    0    0  503  502  0.00000000000E+00  0.00000000000E+00  0.14872195387E+04  0.14872195387E+04  0.00000000000E+00 0.  1.
         21   -1    0    0  501  503 -0.00000000000E+00 -0.00000000000E+00 -0.22753705966E+03  0.22753705966E+03  0.00000000000E+00 0.  1.
    9000007    1    1    2  501    0  0.70981404701E+02 -0.21664343456E+03  0.10578843109E+03  0.47240229646E+03  0.40000000000E+03 0.  1.
   -9000007    1    1    2    0  502 -0.70981404701E+02  0.21664343456E+03  0.11538940480E+04  0.12423543019E+04  0.40000000000E+03 0.  1.
<mgrwt>
<rscale>  2 0.46040497E+03</rscale>
<asrwt>0</asrwt>
<pdfrwt beam="1">  1       21 0.22880300E+00 0.46040497E+03</pdfrwt>
<pdfrwt beam="2">  1       21 0.35005702E-01 0.46040497E+03</pdfrwt>
<totfact> 0.56953515E+02</totfact>
</mgrwt>
</event>
<event>
 4    1  0.5013722E-002  0.4088613E+03  0.7818608E-02  0.1040754E+00
         21   -1    0    0  503  502  0.00000000000E+00  0.00000000000E+00  0.14333440913E+04  0.14333440913E+04  0.00000000000E+00 0. -1.
         21   -1    0    0  501  503 -0.00000000000E+00 -0.00000000000E+00 -0.25546555270E+03  0.25546555270E+03  0.00000000000E+00 0. -1.
    9000007    1    1    2  501    0 -0.17826522888E+02 -0.82763165500E+02 -0.33559621786E+02  0.41023624254E+03  0.40000000000E+03 0. -1.
   -9000007    1    1    2    0  502  0.17826522888E+02  0.82763165500E+02  0.12114381604E+04  0.12785734015E+04  0.40000000000E+03 0. -1.
<mgrwt>
<rscale>  2 0.40886126E+03</rscale>
<asrwt>0</asrwt>
<pdfrwt beam="1">  1       21 0.22051447E+00 0.40886126E+03</pdfrwt>
<pdfrwt beam="2">  1       21 0.39302394E-01 0.40886126E+03</pdfrwt>
<totfact> 0.52152638E+02</totfact>
</mgrwt>
</event>
<event>
 4    1  0.5013722E-002  0.4196199E+03  0.7818608E-02  0.1037190E+00
         21   -1    0    0  503  502  0.00000000000E+00  0.00000000000E+00  0.17024418408E+04  0.17024418408E+04  0.00000000000E+00 0.  1.
         21   -1    0    0  501  503 -0.00000000000E+00 -0.00000000000E+00 -0.17901126607E+03  0.17901126607E+03  0.00000000000E+00 0.  1.
    9000007    1    1    2  501    0 -0.12679439900E+03  0.20167105463E+01  0.15044285137E+03  0.44577341584E+03  0.40000000000E+03 0.  1.
   -9000007    1    1    2    0  502  0.12679439900E+03 -0.20167105463E+01  0.13729877234E+04  0.14356796910E+04  0.40000000000E+03 0.  1.
<mgrwt>
<rscale>  2 0.41961993E+03</rscale>
<asrwt>0</asrwt>
<pdfrwt beam="1">  1       21 0.26191412E+00 0.41961993E+03</pdfrwt>
<pdfrwt beam="2">  1       21 0.27540196E-01 0.41961993E+03</pdfrwt>
<totfact> 0.58653107E+02</totfact>
</mgrwt>
</event>
<event>
 4    1  0.5013722E-002  0.5336295E+03  0.7818608E-02  0.1005356E+00
         21   -1    0    0  501  502  0.00000000000E+00  0.00000000000E+00  0.14904356412E+04  0.14904356412E+04  0.00000000000E+00 0.  1.
         21   -1    0    0  502  503 -0.00000000000E+00 -0.00000000000E+00 -0.22431691148E+03  0.22431691148E+03  0.00000000000E+00 0. -1.
    9000007    1    1    2  501    0  0.17098442658E+03 -0.30907075647E+03  0.96319405900E+03  0.11011372312E+04  0.40000000000E+03 0.  1.
   -9000007    1    1    2    0  503 -0.17098442658E+03  0.30907075647E+03  0.30292467073E+03  0.61361532149E+03  0.40000000000E+03 0. -1.
<mgrwt>
<rscale>  2 0.53362947E+03</rscale>
<asrwt>0</asrwt>
<pdfrwt beam="1">  1       21 0.22929778E+00 0.53362947E+03</pdfrwt>
<pdfrwt beam="2">  1       21 0.34510295E-01 0.53362947E+03</pdfrwt>
<totfact> 0.56288878E+02</totfact>
</mgrwt>
</event>
<event>
 4    1  0.5013722E-002  0.5664872E+03  0.7818608E-02  0.9977482E-01
         21   -1    0    0  503  502  0.00000000000E+00  0.00000000000E+00  0.42563548812E+03  0.42563548812E+03  0.00000000000E+00 0. -1.
         21   -1    0    0  501  503 -0.00000000000E+00 -0.00000000000E+00 -0.14322572386E+04  0.14322572386E+04  0.00000000000E+00 0.  1.
    9000007    1    1    2  501    0  0.18351794611E+01  0.40112885217E+03 -0.11425943326E+04  0.12753154640E+04  0.40000000000E+03 0.  1.
   -9000007    1    1    2    0  502 -0.18351794611E+01 -0.40112885217E+03  0.13597258210E+03  0.58257726269E+03  0.40000000000E+03 0. -1.
<mgrwt>
<rscale>  2 0.56648718E+03</rscale>
<asrwt>0</asrwt>
<pdfrwt beam="1">  1       21 0.65482383E-01 0.56648718E+03</pdfrwt>
<pdfrwt beam="2">  1       21 0.22034727E+00 0.56648718E+03</pdfrwt>
<totfact> 0.16242063E+02</totfact>
</mgrwt>
</event>
<event>
 4    1  0.5013722E-002  0.4457130E+03  0.7818608E-02  0.1029008E+00
         21   -1    0    0  503  502  0.00000000000E+00  0.00000000000E+00  0.74044640261E+03  0.74044640261E+03  0.00000000000E+00 0.  1.
         21   -1    0    0  501  503 -0.00000000000E+00 -0.00000000000E+00 -0.32846530321E+03  0.32846530321E+03  0.00000000000E+00 0.  1.
    9000007    1    1    2  501    0  0.90741881567E+02 -0.17443049789E+03 -0.22752728741E+02  0.44629337249E+03  0.40000000000E+03 0.  1.
   -9000007    1    1    2    0  502 -0.90741881567E+02  0.17443049789E+03  0.43473382814E+03  0.62261833333E+03  0.40000000000E+03 0.  1.
<mgrwt>
<rscale>  2 0.44571301E+03</rscale>
<asrwt>0</asrwt>
<pdfrwt beam="1">  1       21 0.11391483E+00 0.44571301E+03</pdfrwt>
<pdfrwt beam="2">  1       21 0.50533124E-01 0.44571301E+03</pdfrwt>
<totfact> 0.19274507E+03</totfact>
</mgrwt>
</event>
<event>
 4    1  0.5013722E-002  0.4067627E+03  0.7818608E-02  0.1041463E+00
         21   -1    0    0  501  502  0.00000000000E+00  0.00000000000E+00  0.11541760361E+04  0.11541760361E+04  0.00000000000E+00 0.  1.
         21   -1    0    0  502  503 -0.00000000000E+00 -0.00000000000E+00 -0.15015970911E+03  0.15015970911E+03  0.00000000000E+00 0.  1.
    9000007    1    1    2  501    0  0.73363664230E+02 -0.85829520156E+01  0.64084842865E+03  0.75904058047E+03  0.40000000000E+03 0.  1.
   -9000007    1    1    2    0  503 -0.73363664230E+02  0.85829520156E+01  0.36316789829E+03  0.54529516470E+03  0.40000000000E+03 0.  1.
<mgrwt>
<rscale>  2 0.40676270E+03</rscale>
<asrwt>0</asrwt>
<pdfrwt beam="1">  1       21 0.17756554E+00 0.40676270E+03</pdfrwt>
<pdfrwt beam="2">  1       21 0.23101494E-01 0.40676270E+03</pdfrwt>
<totfact> 0.29016236E+03</totfact>
</mgrwt>
</event>
<event>
 4    1  0.5013722E-002  0.4889494E+03  0.7818608E-02  0.1016704E+00
         21   -1    0    0  501  502  0.00000000000E+00  0.00000000000E+00  0.75061835934E+03  0.75061835934E+03  0.00000000000E+00 0. -1.
         21   -1    0    0  502  503 -0.00000000000E+00 -0.00000000000E+00 -0.38689463829E+03  0.38689463829E+03  0.00000000000E+00 0. -1.
    9000007    1    1    2  501    0 -0.25572552911E+03  0.11694409261E+03  0.42099682342E+03  0.64522073150E+03  0.40000000000E+03 0. -1.
   -9000007    1    1    2    0  503  0.25572552911E+03 -0.11694409261E+03 -0.57273102364E+02  0.49229226613E+03  0.40000000000E+03 0. -1.
<mgrwt>
<rscale>  2 0.48894935E+03</rscale>
<asrwt>0</asrwt>
<pdfrwt beam="1">  1       21 0.11547975E+00 0.48894935E+03</pdfrwt>
<pdfrwt beam="2">  1       21 0.59522252E-01 0.48894935E+03</pdfrwt>
<totfact> 0.12865028E+03</totfact>
</mgrwt>
</event>
<event>
 4    1  0.5013722E-002  0.4694718E+03  0.7818608E-02  0.1022069E+00
         21   -1    0    0  503  502  0.00000000000E+00  0.00000000000E+00  0.16884573662E+03  0.16884573662E+03  0.00000000000E+00 0. -1.
         21   -1    0    0  501  503 -0.00000000000E+00 -0.00000000000E+00 -0.13827932485E+04  0.13827932485E+04  0.00000000000E+00 0. -1.
    9000007    1    1    2  501    0  0.75092066939E+02  0.23401920558E+03 -0.79056705405E+03  0.91945640138E+03  0.40000000000E+03 0.  1.
   -9000007    1    1    2    0  502 -0.75092066939E+02 -0.23401920558E+03 -0.42338045780E+03  0.63218258371E+03  0.40000000000E+03 0.  1.
<mgrwt>
<rscale>  2 0.46947184E+03</rscale>
<asrwt>0</asrwt>
<pdfrwt beam="1">  1       21 0.25976267E-01 0.46947184E+03</pdfrwt>
<pdfrwt beam="2">  1       21 0.21273743E+00 0.46947184E+03</pdfrwt>
<totfact> 0.13008985E+03</totfact>
</mgrwt>
</event>
<event>
 4    1  0.5013722E-002  0.4130697E+03  0.7818608E-02  0.1039346E+00
         21   -1    0    0  501  502  0.00000000000E+00  0.00000000000E+00  0.18206696907E+03  0.18206696907E+03  0.00000000000E+00 0.  1.
         21   -1    0    0  502  503 -0.00000000000E+00 -0.00000000000E+00 -0.23080530897E+04  0.23080530897E+04  0.00000000000E+00 0.  1.
    9000007    1    1    2  501    0  0.95672855654E+02 -0.38383756489E+02 -0.10344097239E+03  0.42582466209E+03  0.40000000000E+03 0.  1.
   -9000007    1    1    2    0  503 -0.95672855654E+02  0.38383756489E+02 -0.20225451482E+04  0.20642953967E+04  0.40000000000E+03 0.  1.
<mgrwt>
<rscale>  2 0.41306974E+03</rscale>
<asrwt>0</asrwt>
<pdfrwt beam="1">  1       21 0.28010301E-01 0.41306974E+03</pdfrwt>
<pdfrwt beam="2">  1       21 0.35508512E+00 0.41306974E+03</pdfrwt>
<totfact> 0.15619809E+02</totfact>
</mgrwt>
</event>
<event>
 4    1  0.5013722E-002  0.4452317E+03  0.7818608E-02  0.1029154E+00
         21   -1    0    0  503  502  0.00000000000E+00  0.00000000000E+00  0.24722341865E+04  0.24722341865E+04  0.00000000000E+00 0. -1.
         21   -1    0    0  501  503 -0.00000000000E+00 -0.00000000000E+00 -0.12031368476E+03  0.12031368476E+03  0.00000000000E+00 0.  1.
    9000007    1    1    2  501    0  0.15217065530E+03 -0.12278162586E+03  0.42731274860E+03  0.61711216249E+03  0.40000000000E+03 0.  1.
   -9000007    1    1    2    0  502 -0.15217065530E+03  0.12278162586E+03  0.19246077531E+04  0.19754357087E+04  0.40000000000E+03 0. -1.
<mgrwt>
<rscale>  2 0.44523167E+03</rscale>
<asrwt>0</asrwt>
<pdfrwt beam="1">  1       21 0.38034368E+00 0.44523167E+03</pdfrwt>
<pdfrwt beam="2">  1       21 0.18509799E-01 0.44523167E+03</pdfrwt>
<totfact> 0.23647095E+02</totfact>
</mgrwt>
</event>
<event>
 4    1  0.5013722E-002  0.4638619E+03  0.7818608E-02  0.1023667E+00
         21   -1    0    0  503  502  0.00000000000E+00  0.00000000000E+00  0.58347335775E+03  0.58347335775E+03  0.00000000000E+00 0.  1.
         21   -1    0    0  501  503 -0.00000000000E+00 -0.00000000000E+00 -0.56937075418E+03  0.56937075418E+03  0.00000000000E+00 0.  1.
    9000007    1    1    2  501    0  0.20247464520E+03  0.11904551295E+03 -0.33509247976E+03  0.57223665218E+03  0.40000000000E+03 0.  1.
   -9000007    1    1    2    0  502 -0.20247464520E+03 -0.11904551295E+03  0.34919508333E+03  0.58060745976E+03  0.40000000000E+03 0.  1.
<mgrwt>
<rscale>  2 0.46386185E+03</rscale>
<asrwt>0</asrwt>
<pdfrwt beam="1">  1       21 0.89765132E-01 0.46386185E+03</pdfrwt>
<pdfrwt beam="2">  1       21 0.87595500E-01 0.46386185E+03</pdfrwt>
<totfact> 0.99969478E+02</totfact>
</mgrwt>
</event>
<event>
 4    1  0.5013722E-002  0.4603529E+03  0.7818608E-02  0.1024679E+00
         21   -1    0    0  503  502  0.00000000000E+00  0.00000000000E+00  0.10997330765E+04  0.10997330765E+04  0.00000000000E+00 0. -1.
         21   -1    0    0  501  503 -0.00000000000E+00 -0.00000000000E+00 -0.49414932493E+03  0.49414932493E+03  0.00000000000E+00 0. -1.
    9000007    1    1    2  501    0  0.22785855542E+03 -0.22915065720E+01 -0.31965209958E+03  0.56044824653E+03  0.40000000000E+03 0. -1.
   -9000007    1    1    2    0  502 -0.22785855542E+03  0.22915065720E+01  0.92523585118E+03  0.10334341549E+04  0.40000000000E+03 0. -1.
<mgrwt>
<rscale>  2 0.46035288E+03</rscale>
<asrwt>0</asrwt>
<pdfrwt beam="1">  1       21 0.16918970E+00 0.46035288E+03</pdfrwt>
<pdfrwt beam="2">  1       21 0.76022974E-01 0.46035288E+03</pdfrwt>
<totfact> 0.27185430E+02</totfact>
</mgrwt>
</event>
<event>
 4    1  0.5013722E-002  0.4848663E+03  0.7818608E-02  0.1017806E+00
         21   -1    0    0  501  502  0.00000000000E+00  0.00000000000E+00  0.39394747964E+03  0.39394747964E+03  0.00000000000E+00 0. -1.
         21   -1    0    0  502  503 -0.00000000000E+00 -0.00000000000E+00 -0.84996136527E+03  0.84996136527E+03  0.00000000000E+00 0.  1.
    9000007    1    1    2  501    0 -0.21892793986E+03  0.16482090603E+03  0.11145012641E+03  0.49751030602E+03  0.40000000000E+03 0.  1.
   -9000007    1    1    2    0  503  0.21892793986E+03 -0.16482090603E+03 -0.56746401204E+03  0.74639853890E+03  0.40000000000E+03 0.  1.
<mgrwt>
<rscale>  2 0.48486635E+03</rscale>
<asrwt>0</asrwt>
<pdfrwt beam="1">  1       21 0.60607305E-01 0.48486635E+03</pdfrwt>
<pdfrwt beam="2">  1       21 0.13076329E+00 0.48486635E+03</pdfrwt>
<totfact> 0.90057258E+02</totfact>
</mgrwt>
</event>
<event>
 4    1  0.5013722E-002  0.4143314E+03  0.7818608E-02  0.1038927E+00
         21   -1    0    0  503  502  0.00000000000E+00  0.00000000000E+00  0.59671511981E+03  0.59671511981E+03  0.00000000000E+00 0. -1.
         21   -1    0    0  501  503 -0.00000000000E+00 -0.00000000000E+00 -0.43907268252E+03  0.43907268252E+03  0.00000000000E+00 0. -1.
    9000007    1    1    2  501    0 -0.89555151855E+02 -0.60418299901E+02 -0.22527220222E+03  0.47161219373E+03  0.40000000000E+03 0.  1.
   -9000007    1    1    2    0  502  0.89555151855E+02  0.60418299901E+02  0.38291463951E+03  0.56417560860E+03  0.40000000000E+03 0.  1.
<mgrwt>
<rscale>  2 0.41433138E+03</rscale>
<asrwt>0</asrwt>
<pdfrwt beam="1">  1       21 0.91802327E-01 0.41433138E+03</pdfrwt>
<pdfrwt beam="2">  1       21 0.67549643E-01 0.41433138E+03</pdfrwt>
<totfact> 0.17547565E+03</totfact>
</mgrwt>
</event>
<event>
 4    1  0.5013722E-002  0.4081270E+03  0.7818608E-02  0.1041001E+00
         21   -1    0    0  503  502  0.00000000000E+00  0.00000000000E+00  0.26312053986E+03  0.26312053986E+03  0.00000000000E+00 0.  1.
         21   -1    0    0  501  503 -0.00000000000E+00 -0.00000000000E+00 -0.97109566903E+03  0.97109566903E+03  0.00000000000E+00 0.  1.
    9000007    1    1    2  501    0  0.80610670225E+02 -0.83412199165E+01  0.10111771138E+02  0.40825225538E+03  0.40000000000E+03 0.  1.
   -9000007    1    1    2    0  502 -0.80610670225E+02  0.83412199165E+01 -0.71808690031E+03  0.82596395352E+03  0.40000000000E+03 0.  1.
<mgrwt>
<rscale>  2 0.40812701E+03</rscale>
<asrwt>0</asrwt>
<pdfrwt beam="1">  1       21 0.40480082E-01 0.40812701E+03</pdfrwt>
<pdfrwt beam="2">  1       21 0.14939934E+00 0.40812701E+03</pdfrwt>
<totfact> 0.15400430E+03</totfact>
</mgrwt>
</event>
<event>
 4    1  0.5013722E-002  0.4315996E+03  0.7818608E-02  0.1033356E+00
         21   -1    0    0  501  502  0.00000000000E+00  0.00000000000E+00  0.12216808178E+04  0.12216808178E+04  0.00000000000E+00 0. -1.
         21   -1    0    0  502  503 -0.00000000000E+00 -0.00000000000E+00 -0.26000934509E+03  0.26000934509E+03  0.00000000000E+00 0. -1.
    9000007    1    1    2  501    0  0.84173742900E+02 -0.13853867661E+03  0.95726952216E+03  0.10500681511E+04  0.40000000000E+03 0. -1.
   -9000007    1    1    2    0  503 -0.84173742900E+02  0.13853867661E+03  0.44019505746E+01  0.43162201181E+03  0.40000000000E+03 0. -1.
<mgrwt>
<rscale>  2 0.43159956E+03</rscale>
<asrwt>0</asrwt>
<pdfrwt beam="1">  1       21 0.18795089E+00 0.43159956E+03</pdfrwt>
<pdfrwt beam="2">  1       21 0.40001439E-01 0.43159956E+03</pdfrwt>
<totfact> 0.81514746E+02</totfact>
</mgrwt>
</event>
<event>
 4    1  0.5013722E-002  0.4122702E+03  0.7818608E-02  0.1039612E+00
         21   -1    0    0  503  502  0.00000000000E+00  0.00000000000E+00  0.95831260059E+03  0.95831260059E+03  0.00000000000E+00 0.  1.
         21   -1    0    0  501  503 -0.00000000000E+00 -0.00000000000E+00 -0.17907742520E+03  0.17907742520E+03  0.00000000000E+00 0.  1.
    9000007    1    1    2  501    0 -0.81634278157E+02  0.57467965587E+02  0.33393169495E+03  0.53054415399E+03  0.40000000000E+03 0.  1.
   -9000007    1    1    2    0  502  0.81634278157E+02 -0.57467965587E+02  0.44530348044E+03  0.60684587181E+03  0.40000000000E+03 0.  1.
<mgrwt>
<rscale>  2 0.41227021E+03</rscale>
<asrwt>0</asrwt>
<pdfrwt beam="1">  1       21 0.14743270E+00 0.41227021E+03</pdfrwt>
<pdfrwt beam="2">  1       21 0.27550374E-01 0.41227021E+03</pdfrwt>
<totfact> 0.34520329E+03</totfact>
</mgrwt>
</event>
<event>
 4    1  0.5013722E-002  0.5671613E+03  0.7818608E-02  0.9975980E-01
         21   -1    0    0  503  502  0.00000000000E+00  0.00000000000E+00  0.70262027944E+03  0.70262027944E+03  0.00000000000E+00 0. -1.
         21   -1    0    0  501  503 -0.00000000000E+00 -0.00000000000E+00 -0.59773290300E+03  0.59773290300E+03  0.00000000000E+00 0.  1.
    9000007    1    1    2  501    0  0.18244062374E+03 -0.35831174411E+03 -0.26212134937E+03  0.62480356029E+03  0.40000000000E+03 0.  1.
   -9000007    1    1    2    0  502 -0.18244062374E+03  0.35831174411E+03  0.36700872582E+03  0.67554962214E+03  0.40000000000E+03 0. -1.
<mgrwt>
<rscale>  2 0.56716125E+03</rscale>
<asrwt>0</asrwt>
<pdfrwt beam="1">  1       21 0.10809543E+00 0.56716125E+03</pdfrwt>
<pdfrwt beam="2">  1       21 0.91958909E-01 0.56716125E+03</pdfrwt>
<totfact> 0.54574775E+02</totfact>
</mgrwt>
</event>
<event>
 4    1  0.5013722E-002  0.4202134E+03  0.7818608E-02  0.1036997E+00
         21   -1    0    0  503  502  0.00000000000E+00  0.00000000000E+00  0.88417124162E+03  0.88417124162E+03  0.00000000000E+00 0. -1.
         21   -1    0    0  501  503 -0.00000000000E+00 -0.00000000000E+00 -0.20218160114E+03  0.20218160114E+03  0.00000000000E+00 0. -1.
    9000007    1    1    2  501    0 -0.12777972794E+03  0.15862449631E+02  0.28095817732E+03  0.50548667004E+03  0.40000000000E+03 0.  1.
   -9000007    1    1    2    0  502  0.12777972794E+03 -0.15862449631E+02  0.40103146315E+03  0.58086617273E+03  0.40000000000E+03 0.  1.
<mgrwt>
<rscale>  2 0.42021337E+03</rscale>
<asrwt>0</asrwt>
<pdfrwt beam="1">  1       21 0.13602634E+00 0.42021337E+03</pdfrwt>
<pdfrwt beam="2">  1       21 0.31104862E-01 0.42021337E+03</pdfrwt>
<totfact> 0.33541720E+03</totfact>
</mgrwt>
</event>
<event>
 4    1  0.5013722E-002  0.4086458E+03  0.7818608E-02  0.1040826E+00
         21   -1    0    0  503  502  0.00000000000E+00  0.00000000000E+00  0.34194234990E+03  0.34194234990E+03  0.00000000000E+00 0.  1.
         21   -1    0    0  501  503 -0.00000000000E+00 -0.00000000000E+00 -0.61596570879E+03  0.61596570879E+03  0.00000000000E+00 0.  1.
    9000007    1    1    2  501    0  0.52667919656E+02 -0.64942164788E+02 -0.35500765845E+03  0.54131491027E+03  0.40000000000E+03 0.  1.
   -9000007    1    1    2    0  502 -0.52667919656E+02  0.64942164788E+02  0.80984299554E+02  0.41659314841E+03  0.40000000000E+03 0.  1.
<mgrwt>
<rscale>  2 0.40864581E+03</rscale>
<asrwt>0</asrwt>
<pdfrwt beam="1">  1       21 0.52606515E-01 0.40864581E+03</pdfrwt>
<pdfrwt beam="2">  1       21 0.94763955E-01 0.40864581E+03</pdfrwt>
<totfact> 0.28160478E+03</totfact>
</mgrwt>
</event>
<event>
 4    1  0.5013722E-002  0.4426740E+03  0.7818608E-02  0.1029930E+00
         21   -1    0    0  501  502  0.00000000000E+00  0.00000000000E+00  0.19466883106E+04  0.19466883106E+04  0.00000000000E+00 0. -1.
         21   -1    0    0  502  503 -0.00000000000E+00 -0.00000000000E+00 -0.10540786445E+03  0.10540786445E+03  0.00000000000E+00 0. -1.
    9000007    1    1    2  501    0  0.15397239001E+03  0.11069218088E+03  0.11383234674E+04  0.12213683196E+04  0.40000000000E+03 0. -1.
   -9000007    1    1    2    0  503 -0.15397239001E+03 -0.11069218088E+03  0.70295697880E+03  0.83072785546E+03  0.40000000000E+03 0. -1.
<mgrwt>
<rscale>  2 0.44267398E+03</rscale>
<asrwt>0</asrwt>
<pdfrwt beam="1">  1       21 0.29949048E+00 0.44267398E+03</pdfrwt>
<pdfrwt beam="2">  1       21 0.16216596E-01 0.44267398E+03</pdfrwt>
<totfact> 0.94707222E+02</totfact>
</mgrwt>
</event>
<event>
 4    1  0.5013722E-002  0.4601345E+03  0.7818608E-02  0.1024742E+00
         21   -1    0    0  503  502  0.00000000000E+00  0.00000000000E+00  0.14174463700E+04  0.14174463700E+04  0.00000000000E+00 0.  1.
         21   -1    0    0  501  503 -0.00000000000E+00 -0.00000000000E+00 -0.15793318585E+03  0.15793318585E+03  0.00000000000E+00 0.  1.
    9000007    1    1    2  501    0 -0.19120665109E+03  0.12314120006E+03  0.44633931816E+03  0.64104799002E+03  0.40000000000E+03 0.  1.
   -9000007    1    1    2    0  502  0.19120665109E+03 -0.12314120006E+03  0.81317386598E+03  0.93433156582E+03  0.40000000000E+03 0.  1.
<mgrwt>
<rscale>  2 0.46013448E+03</rscale>
<asrwt>0</asrwt>
<pdfrwt beam="1">  1       21 0.21806866E+00 0.46013448E+03</pdfrwt>
<pdfrwt beam="2">  1       21 0.24297414E-01 0.46013448E+03</pdfrwt>
<totfact> 0.13744189E+03</totfact>
</mgrwt>
</event>
<event>
 4    1  0.5013722E-002  0.4160633E+03  0.7818608E-02  0.1038355E+00
         21   -1    0    0  503  502  0.00000000000E+00  0.00000000000E+00  0.24631299248E+04  0.24631299248E+04  0.00000000000E+00 0.  1.
         21   -1    0    0  501  503 -0.00000000000E+00 -0.00000000000E+00 -0.74000665920E+02  0.74000665920E+02  0.00000000000E+00 0. -1.
    9000007    1    1    2  501    0  0.93426698391E+02  0.66182690411E+02  0.91011385625E+03  0.10007077135E+04  0.40000000000E+03 0. -1.
   -9000007    1    1    2    0  502 -0.93426698391E+02 -0.66182690411E+02  0.14790154026E+04  0.15364228772E+04  0.40000000000E+03 0.  1.
<mgrwt>
<rscale>  2 0.41606333E+03</rscale>
<asrwt>0</asrwt>
<pdfrwt beam="1">  1       21 0.37894300E+00 0.41606333E+03</pdfrwt>
<pdfrwt beam="2">  1       21 0.11384720E-01 0.41606333E+03</pdfrwt>
<totfact> 0.60419961E+02</totfact>
</mgrwt>
</event>
<event>
 4    1  0.5013722E-002  0.4836924E+03  0.7818608E-02  0.1018125E+00
         21   -1    0    0  503  502  0.00000000000E+00  0.00000000000E+00  0.15655889287E+03  0.15655889287E+03  0.00000000000E+00 0. -1.
         21   -1    0    0  501  503 -0.00000000000E+00 -0.00000000000E+00 -0.14949661399E+04  0.14949661399E+04  0.00000000000E+00 0.  1.
    9000007    1    1    2  501    0  0.24043768614E+03 -0.12707483504E+03 -0.68557082552E+03  0.83902660948E+03  0.40000000000E+03 0.  1.
   -9000007    1    1    2    0  502 -0.24043768614E+03  0.12707483504E+03 -0.65283642155E+03  0.81249842334E+03  0.40000000000E+03 0.  1.
<mgrwt>
<rscale>  2 0.48369236E+03</rscale>
<asrwt>0</asrwt>
<pdfrwt beam="1">  1       21 0.24085984E-01 0.48369236E+03</pdfrwt>
<pdfrwt beam="2">  1       21 0.22999479E+00 0.48369236E+03</pdfrwt>
<totfact> 0.11614669E+03</totfact>
</mgrwt>
</event>
<event>
 4    1  0.5013722E-002  0.4333584E+03  0.7818608E-02  0.1032804E+00
         21   -1    0    0  503  502  0.00000000000E+00  0.00000000000E+00  0.38791484722E+03  0.38791484722E+03  0.00000000000E+00 0. -1.
         21   -1    0    0  501  503 -0.00000000000E+00 -0.00000000000E+00 -0.55166013737E+03  0.55166013737E+03  0.00000000000E+00 0.  1.
    9000007    1    1    2  501    0  0.16485329201E+03  0.24957778334E+02 -0.24624496780E+03  0.49843362924E+03  0.40000000000E+03 0.  1.
   -9000007    1    1    2    0  502 -0.16485329201E+03 -0.24957778334E+02  0.82499677657E+02  0.44114135535E+03  0.40000000000E+03 0.  1.
<mgrwt>
<rscale>  2 0.43335840E+03</rscale>
<asrwt>0</asrwt>
<pdfrwt beam="1">  1       21 0.59679208E-01 0.43335840E+03</pdfrwt>
<pdfrwt beam="2">  1       21 0.84870790E-01 0.43335840E+03</pdfrwt>
<totfact> 0.27554317E+03</totfact>
</mgrwt>
</event>
<event>
 4    1  0.5013722E-002  0.7921230E+03  0.7818608E-02  0.9571489E-01
         21   -1    0    0  501  502  0.00000000000E+00  0.00000000000E+00  0.17047406375E+04  0.17047406375E+04  0.00000000000E+00 0.  1.
         21   -1    0    0  502  503 -0.00000000000E+00 -0.00000000000E+00 -0.50980290665E+03  0.50980290665E+03  0.00000000000E+00 0. -1.
    9000007    1    1    2  501    0 -0.62305483200E+03  0.28153412805E+03  0.11813077319E+04  0.14223033243E+04  0.40000000000E+03 0.  1.
   -9000007    1    1    2    0  503  0.62305483200E+03 -0.28153412805E+03  0.13629998887E+02  0.79224021976E+03  0.40000000000E+03 0. -1.
<mgrwt>
<rscale>  2 0.79212296E+03</rscale>
<asrwt>0</asrwt>
<pdfrwt beam="1">  1       21 0.26226779E+00 0.79212296E+03</pdfrwt>
<pdfrwt beam="2">  1       21 0.78431217E-01 0.79212296E+03</pdfrwt>
<totfact> 0.53574053E+01</totfact>
</mgrwt>
</event>
<event>
 4    1  0.5013722E-002  0.5286126E+03  0.7818608E-02  0.1006569E+00
         21   -1    0    0  503  502  0.00000000000E+00  0.00000000000E+00  0.63152010080E+03  0.63152010080E+03  0.00000000000E+00 0. -1.
         21   -1    0    0  501  503 -0.00000000000E+00 -0.00000000000E+00 -0.85960853145E+03  0.85960853145E+03  0.00000000000E+00 0.  1.
    9000007    1    1    2  501    0 -0.72265777893E+02 -0.33794819330E+03 -0.63340929449E+03  0.82500827775E+03  0.40000000000E+03 0.  1.
   -9000007    1    1    2    0  502  0.72265777893E+02  0.33794819330E+03  0.40532086384E+03  0.66612035450E+03  0.40000000000E+03 0. -1.
<mgrwt>
<rscale>  2 0.52861264E+03</rscale>
<asrwt>0</asrwt>
<pdfrwt beam="1">  1       21 0.97156938E-01 0.52861264E+03</pdfrwt>
<pdfrwt beam="2">  1       21 0.13224747E+00 0.52861264E+03</pdfrwt>
<totfact> 0.29001223E+02</totfact>
</mgrwt>
</event>
<event>
 4    1  0.5013722E-002  0.4441953E+03  0.7818608E-02  0.1029467E+00
         21   -1    0    0  501  502  0.00000000000E+00  0.00000000000E+00  0.80171196358E+03  0.80171196358E+03  0.00000000000E+00 0. -1.
         21   -1    0    0  502  503 -0.00000000000E+00 -0.00000000000E+00 -0.49606857087E+03  0.49606857087E+03  0.00000000000E+00 0. -1.
    9000007    1    1    2  501    0  0.18903415288E+03 -0.39692889976E+02  0.61343269762E+03  0.75736986405E+03  0.40000000000E+03 0. -1.
   -9000007    1    1    2    0  503 -0.18903415288E+03  0.39692889976E+02 -0.30778930490E+03  0.54041067040E+03  0.40000000000E+03 0. -1.
<mgrwt>
<rscale>  2 0.44419527E+03</rscale>
<asrwt>0</asrwt>
<pdfrwt beam="1">  1       21 0.12334030E+00 0.44419527E+03</pdfrwt>
<pdfrwt beam="2">  1       21 0.76318242E-01 0.44419527E+03</pdfrwt>
<totfact> 0.63542515E+02</totfact>
</mgrwt>
</event>
<event>
 4    1  0.5013722E-002  0.5068118E+03  0.7818608E-02  0.1012016E+00
         21   -1    0    0  501  502  0.00000000000E+00  0.00000000000E+00  0.15994894949E+04  0.15994894949E+04  0.00000000000E+00 0.  1.
         21   -1    0    0  502  503 -0.00000000000E+00 -0.00000000000E+00 -0.16351014825E+03  0.16351014825E+03  0.00000000000E+00 0. -1.
    9000007    1    1    2  501    0 -0.28456749808E+03  0.12601394734E+03  0.60013932478E+03  0.78550963396E+03  0.40000000000E+03 0. -1.
   -9000007    1    1    2    0  503  0.28456749808E+03 -0.12601394734E+03  0.83584002184E+03  0.97749000915E+03  0.40000000000E+03 0.  1.
<mgrwt>
<rscale>  2 0.50681178E+03</rscale>
<asrwt>0</asrwt>
<pdfrwt beam="1">  1       21 0.24607530E+00 0.50681178E+03</pdfrwt>
<pdfrwt beam="2">  1       21 0.25155408E-01 0.50681178E+03</pdfrwt>
<totfact> 0.83814313E+02</totfact>
</mgrwt>
</event>
<event>
 4    1  0.5013722E-002  0.5102709E+03  0.7818608E-02  0.1011132E+00
         21   -1    0    0  503  502  0.00000000000E+00  0.00000000000E+00  0.11155118694E+04  0.11155118694E+04  0.00000000000E+00 0.  1.
         21   -1    0    0  501  503 -0.00000000000E+00 -0.00000000000E+00 -0.40856081670E+03  0.40856081670E+03  0.00000000000E+00 0. -1.
    9000007    1    1    2  501    0  0.27881014705E+03 -0.15047018934E+03 -0.14546425373E+03  0.53059987287E+03  0.40000000000E+03 0. -1.
   -9000007    1    1    2    0  502 -0.27881014705E+03  0.15047018934E+03  0.85241530638E+03  0.99347281318E+03  0.40000000000E+03 0.  1.
<mgrwt>
<rscale>  2 0.51027088E+03</rscale>
<asrwt>0</asrwt>
<pdfrwt beam="1">  1       21 0.17161721E+00 0.51027088E+03</pdfrwt>
<pdfrwt beam="2">  1       21 0.62855511E-01 0.51027088E+03</pdfrwt>
<totfact> 0.39144222E+02</totfact>
</mgrwt>
</event>
<event>
 4    1  0.5013722E-002  0.4267773E+03  0.7818608E-02  0.1034883E+00
         21   -1    0    0  503  502  0.00000000000E+00  0.00000000000E+00  0.84095277380E+03  0.84095277380E+03  0.00000000000E+00 0. -1.
         21   -1    0    0  501  503 -0.00000000000E+00 -0.00000000000E+00 -0.41924228569E+03  0.41924228569E+03  0.00000000000E+00 0. -1.
    9000007    1    1    2  501    0 -0.14297532264E+03 -0.41193860401E+02 -0.22722626257E+03  0.48349834686E+03  0.40000000000E+03 0. -1.
   -9000007    1    1    2    0  502  0.14297532264E+03  0.41193860401E+02  0.64893675069E+03  0.77669671263E+03  0.40000000000E+03 0. -1.
<mgrwt>
<rscale>  2 0.42677732E+03</rscale>
<asrwt>0</asrwt>
<pdfrwt beam="1">  1       21 0.12937735E+00 0.42677732E+03</pdfrwt>
<pdfrwt beam="2">  1       21 0.64498813E-01 0.42677732E+03</pdfrwt>
<totfact> 0.82709380E+02</totfact>
</mgrwt>
</event>
<event>
 4    1  0.5013722E-002  0.4164532E+03  0.7818608E-02  0.1038227E+00
         21   -1    0    0  503  502  0.00000000000E+00  0.00000000000E+00  0.44340207835E+03  0.44340207835E+03  0.00000000000E+00 0.  1.
         21   -1    0    0  501  503 -0.00000000000E+00 -0.00000000000E+00 -0.78064399935E+03  0.78064399935E+03  0.00000000000E+00 0.  1.
    9000007    1    1    2  501    0 -0.40666992785E+02 -0.10853337385E+03 -0.60093162644E+03  0.73113071143E+03  0.40000000000E+03 0.  1.
   -9000007    1    1    2    0  502  0.40666992785E+02  0.10853337385E+03  0.26368970545E+03  0.49291536627E+03  0.40000000000E+03 0.  1.
<mgrwt>
<rscale>  2 0.41645324E+03</rscale>
<asrwt>0</asrwt>
<pdfrwt beam="1">  1       21 0.68215705E-01 0.41645324E+03</pdfrwt>
<pdfrwt beam="2">  1       21 0.12009908E+00 0.41645324E+03</pdfrwt>
<totfact> 0.88777225E+02</totfact>
</mgrwt>
</event>
<event>
 4    1  0.5013722E-002  0.4311111E+03  0.7818608E-02  0.1033510E+00
         21   -1    0    0  503  502  0.00000000000E+00  0.00000000000E+00  0.35968555110E+03  0.35968555110E+03  0.00000000000E+00 0.  1.
         21   -1    0    0  501  503 -0.00000000000E+00 -0.00000000000E+00 -0.65581147738E+03  0.65581147738E+03  0.00000000000E+00 0.  1.
    9000007    1    1    2  501    0 -0.16066265351E+03  0.66530173713E+01 -0.38189783170E+03  0.57593637211E+03  0.40000000000E+03 0.  1.
   -9000007    1    1    2    0  502  0.16066265351E+03 -0.66530173713E+01  0.85771905413E+02  0.43956065637E+03  0.40000000000E+03 0.  1.
<mgrwt>
<rscale>  2 0.43111107E+03</rscale>
<asrwt>0</asrwt>
<pdfrwt beam="1">  1       21 0.55336239E-01 0.43111107E+03</pdfrwt>
<pdfrwt beam="2">  1       21 0.10089407E+00 0.43111107E+03</pdfrwt>
<totfact> 0.21527635E+03</totfact>
</mgrwt>
</event>
<event>
 4    1  0.5013722E-002  0.5846153E+03  0.7818608E-02  0.9937849E-01
         21   -1    0    0  503  502  0.00000000000E+00  0.00000000000E+00  0.22844017246E+03  0.22844017246E+03  0.00000000000E+00 0. -1.
         21   -1    0    0  501  503 -0.00000000000E+00 -0.00000000000E+00 -0.21296241627E+04  0.21296241627E+04  0.00000000000E+00 0. -1.
    9000007    1    1    2  501    0  0.15008772926E+03  0.39905974851E+03 -0.15936457217E+04  0.16974927675E+04  0.40000000000E+03 0. -1.
   -9000007    1    1    2    0  502 -0.15008772926E+03 -0.39905974851E+03 -0.30753826847E+03  0.66057156760E+03  0.40000000000E+03 0. -1.
<mgrwt>
<rscale>  2 0.58461527E+03</rscale>
<asrwt>0</asrwt>
<pdfrwt beam="1">  1       21 0.35144641E-01 0.58461527E+03</pdfrwt>
<pdfrwt beam="2">  1       21 0.32763450E+00 0.58461527E+03</pdfrwt>
<totfact> 0.13198427E+02</totfact>
</mgrwt>
</event>
<event>
 4    1  0.5013722E-002  0.4499531E+03  0.7818608E-02  0.1027736E+00
         21   -1    0    0  503  502  0.00000000000E+00  0.00000000000E+00  0.68646543442E+03  0.68646543442E+03  0.00000000000E+00 0.  1.
         21   -1    0    0  501  503 -0.00000000000E+00 -0.00000000000E+00 -0.36946654025E+03  0.36946654025E+03  0.00000000000E+00 0.  1.
    9000007    1    1    2  501    0  0.18034414614E+03 -0.99668532155E+02 -0.78642861549E+02  0.45677404373E+03  0.40000000000E+03 0.  1.
   -9000007    1    1    2    0  502 -0.18034414614E+03  0.99668532155E+02  0.39564175571E+03  0.59915793094E+03  0.40000000000E+03 0.  1.
<mgrwt>
<rscale>  2 0.44995314E+03</rscale>
<asrwt>0</asrwt>
<pdfrwt beam="1">  1       21 0.10561007E+00 0.44995314E+03</pdfrwt>
<pdfrwt beam="2">  1       21 0.56841006E-01 0.44995314E+03</pdfrwt>
<totfact> 0.18029072E+03</totfact>
</mgrwt>
</event>
<event>
 4    1  0.5013722E-002  0.4103329E+03  0.7818608E-02  0.1040259E+00
         21   -1    0    0  501  502  0.00000000000E+00  0.00000000000E+00  0.52286032486E+03  0.52286032486E+03  0.00000000000E+00 0. -1.
         21   -1    0    0  502  503 -0.00000000000E+00 -0.00000000000E+00 -0.33939463529E+03  0.33939463529E+03  0.00000000000E+00 0. -1.
    9000007    1    1    2  501    0 -0.61632379035E+02 -0.67635428344E+02 -0.58048198889E+01  0.41037397243E+03  0.40000000000E+03 0.  1.
   -9000007    1    1    2    0  503  0.61632379035E+02  0.67635428344E+02  0.18927050946E+03  0.45188098772E+03  0.40000000000E+03 0.  1.
<mgrwt>
<rscale>  2 0.41033292E+03</rscale>
<asrwt>0</asrwt>
<pdfrwt beam="1">  1       21 0.80440050E-01 0.41033292E+03</pdfrwt>
<pdfrwt beam="2">  1       21 0.52214559E-01 0.41033292E+03</pdfrwt>
<totfact> 0.42015106E+03</totfact>
</mgrwt>
</event>
<event>
 4    1  0.5013722E-002  0.4004210E+03  0.7818608E-02  0.1043634E+00
         21   -1    0    0  501  502  0.00000000000E+00  0.00000000000E+00  0.70448444285E+03  0.70448444285E+03  0.00000000000E+00 0. -1.
         21   -1    0    0  502  503 -0.00000000000E+00 -0.00000000000E+00 -0.23655911419E+03  0.23655911419E+03  0.00000000000E+00 0. -1.
    9000007    1    1    2  501    0  0.14382142739E+01 -0.18301195367E+02  0.32555691291E+03  0.51606618350E+03  0.40000000000E+03 0. -1.
   -9000007    1    1    2    0  503 -0.14382142739E+01  0.18301195367E+02  0.14236841574E+03  0.42497737353E+03  0.40000000000E+03 0. -1.
<mgrwt>
<rscale>  2 0.40042103E+03</rscale>
<asrwt>0</asrwt>
<pdfrwt beam="1">  1       21 0.10838222E+00 0.40042103E+03</pdfrwt>
<pdfrwt beam="2">  1       21 0.36393710E-01 0.40042103E+03</pdfrwt>
<totfact> 0.43901572E+03</totfact>
</mgrwt>
</event>
<event>
 4    1  0.5013722E-002  0.7192446E+03  0.7818608E-02  0.9684876E-01
         21   -1    0    0  501  502  0.00000000000E+00  0.00000000000E+00  0.15132013501E+04  0.15132013501E+04  0.00000000000E+00 0.  1.
         21   -1    0    0  502  503 -0.00000000000E+00 -0.00000000000E+00 -0.39972715714E+03  0.39972715714E+03  0.00000000000E+00 0. -1.
    9000007    1    1    2  501    0  0.41972014857E+03  0.42561468378E+03  0.92063417187E+03  0.11682808483E+04  0.40000000000E+03 0. -1.
   -9000007    1    1    2    0  503 -0.41972014857E+03 -0.42561468378E+03  0.19284002107E+03  0.74464765889E+03  0.40000000000E+03 0. -1.
<mgrwt>
<rscale>  2 0.71924465E+03</rscale>
<asrwt>0</asrwt>
<pdfrwt beam="1">  1       21 0.23280020E+00 0.71924465E+03</pdfrwt>
<pdfrwt beam="2">  1       21 0.61496487E-01 0.71924465E+03</pdfrwt>
<totfact> 0.14650737E+02</totfact>
</mgrwt>
</event>
<event>
 4    1  0.5013722E-002  0.4200162E+03  0.7818608E-02  0.1037061E+00
         21   -1    0    0  503  502  0.00000000000E+00  0.00000000000E+00  0.98253740489E+03  0.98253740489E+03  0.00000000000E+00 0. -1.
         21   -1    0    0  501  503 -0.00000000000E+00 -0.00000000000E+00 -0.18011736909E+03  0.18011736909E+03  0.00000000000E+00 0. -1.
    9000007    1    1    2  501    0  0.10599822520E+03  0.71958257156E+02  0.36855455255E+03  0.55878982876E+03  0.40000000000E+03 0. -1.
   -9000007    1    1    2    0  502 -0.10599822520E+03 -0.71958257156E+02  0.43386548325E+03  0.60386494523E+03  0.40000000000E+03 0. -1.
<mgrwt>
<rscale>  2 0.42001621E+03</rscale>
<asrwt>0</asrwt>
<pdfrwt beam="1">  1       21 0.15115960E+00 0.42001621E+03</pdfrwt>
<pdfrwt beam="2">  1       21 0.27710365E-01 0.42001621E+03</pdfrwt>
<totfact> 0.31803073E+03</totfact>
</mgrwt>
</event>
<event>
 4    1  0.5013722E-002  0.4350745E+03  0.7818608E-02  0.1032269E+00
         21   -1    0    0  501  502  0.00000000000E+00  0.00000000000E+00  0.39514333985E+03  0.39514333985E+03  0.00000000000E+00 0.  1.
         21   -1    0    0  502  503 -0.00000000000E+00 -0.00000000000E+00 -0.72264089259E+03  0.72264089259E+03  0.00000000000E+00 0.  1.
    9000007    1    1    2  501    0 -0.15055648481E+02 -0.17047914526E+03  0.16074425437E+03  0.46381949812E+03  0.40000000000E+03 0.  1.
   -9000007    1    1    2    0  503  0.15055648481E+02  0.17047914526E+03 -0.48824180711E+03  0.65396473432E+03  0.40000000000E+03 0.  1.
<mgrwt>
<rscale>  2 0.43507449E+03</rscale>
<asrwt>0</asrwt>
<pdfrwt beam="1">  1       21 0.60791283E-01 0.43507449E+03</pdfrwt>
<pdfrwt beam="2">  1       21 0.11117552E+00 0.43507449E+03</pdfrwt>
<totfact> 0.13793041E+03</totfact>
</mgrwt>
</event>
<event>
 4    1  0.5013722E-002  0.4977979E+03  0.7818608E-02  0.1014355E+00
         21   -1    0    0  501  502  0.00000000000E+00  0.00000000000E+00  0.12809930295E+04  0.12809930295E+04  0.00000000000E+00 0. -1.
         21   -1    0    0  502  503 -0.00000000000E+00 -0.00000000000E+00 -0.19379478431E+03  0.19379478431E+03  0.00000000000E+00 0.  1.
    9000007    1    1    2  501    0 -0.47536285917E+02  0.29247751383E+03  0.57488842636E+03  0.76046005637E+03  0.40000000000E+03 0.  1.
   -9000007    1    1    2    0  503  0.47536285917E+02 -0.29247751383E+03  0.51230981885E+03  0.71432775745E+03  0.40000000000E+03 0.  1.
<mgrwt>
<rscale>  2 0.49779795E+03</rscale>
<asrwt>0</asrwt>
<pdfrwt beam="1">  1       21 0.19707585E+00 0.49779795E+03</pdfrwt>
<pdfrwt beam="2">  1       21 0.29814583E-01 0.49779795E+03</pdfrwt>
<totfact> 0.12433204E+03</totfact>
</mgrwt>
</event>
<event>
 4    1  0.5013722E-002  0.4148965E+03  0.7818608E-02  0.1038740E+00
         21   -1    0    0  501  502  0.00000000000E+00  0.00000000000E+00  0.82679476751E+03  0.82679476751E+03  0.00000000000E+00 0. -1.
         21   -1    0    0  502  503 -0.00000000000E+00 -0.00000000000E+00 -0.39196715780E+03  0.39196715780E+03  0.00000000000E+00 0.  1.
    9000007    1    1    2  501    0 -0.31162682279E+02  0.10567859877E+03  0.63466482595E+03  0.75824700481E+03  0.40000000000E+03 0. -1.
   -9000007    1    1    2    0  503  0.31162682279E+02 -0.10567859877E+03 -0.19983721624E+03  0.46051492049E+03  0.40000000000E+03 0.  1.
<mgrwt>
<rscale>  2 0.41489647E+03</rscale>
<asrwt>0</asrwt>
<pdfrwt beam="1">  1       21 0.12719920E+00 0.41489647E+03</pdfrwt>
<pdfrwt beam="2">  1       21 0.60302640E-01 0.41489647E+03</pdfrwt>
<totfact> 0.10075948E+03</totfact>
</mgrwt>
</event>
<event>
 4    1  0.5013722E-002  0.6250195E+03  0.7818608E-02  0.9854816E-01
         21   -1    0    0  503  502  0.00000000000E+00  0.00000000000E+00  0.28373911256E+03  0.28373911256E+03  0.00000000000E+00 0. -1.
         21   -1    0    0  501  503 -0.00000000000E+00 -0.00000000000E+00 -0.17954494207E+04  0.17954494207E+04  0.00000000000E+00 0.  1.
    9000007    1    1    2  501    0 -0.43220883874E+03 -0.20939174757E+03 -0.25385097145E+03  0.67460336491E+03  0.40000000000E+03 0. -1.
   -9000007    1    1    2    0  502  0.43220883874E+03  0.20939174757E+03 -0.12578593366E+04  0.14045851683E+04  0.40000000000E+03 0.  1.
<mgrwt>
<rscale>  2 0.62501951E+03</rscale>
<asrwt>0</asrwt>
<pdfrwt beam="1">  1       21 0.43652171E-01 0.62501951E+03</pdfrwt>
<pdfrwt beam="2">  1       21 0.27622299E+00 0.62501951E+03</pdfrwt>
<totfact> 0.17053539E+02</totfact>
</mgrwt>
</event>
<event>
 4    1  0.5013722E-002  0.6817939E+03  0.7818608E-02  0.9748884E-01
         21   -1    0    0  503  502  0.00000000000E+00  0.00000000000E+00  0.42272428359E+03  0.42272428359E+03  0.00000000000E+00 0. -1.
         21   -1    0    0  501  503 -0.00000000000E+00 -0.00000000000E+00 -0.12159113359E+04  0.12159113359E+04  0.00000000000E+00 0.  1.
    9000007    1    1    2  501    0 -0.19657455919E+03  0.51594701587E+03 -0.64995761866E+03  0.94195954614E+03  0.40000000000E+03 0.  1.
   -9000007    1    1    2    0  502  0.19657455919E+03 -0.51594701587E+03 -0.14322943364E+03  0.69667607334E+03  0.40000000000E+03 0.  1.
<mgrwt>
<rscale>  2 0.68179387E+03</rscale>
<asrwt>0</asrwt>
<pdfrwt beam="1">  1       21 0.65034506E-01 0.68179387E+03</pdfrwt>
<pdfrwt beam="2">  1       21 0.18706328E+00 0.68179387E+03</pdfrwt>
<totfact> 0.26412674E+02</totfact>
</mgrwt>
</event>
<event>
 4    1  0.5013722E-002  0.4046091E+03  0.7818608E-02  0.1042195E+00
         21   -1    0    0  503  502  0.00000000000E+00  0.00000000000E+00  0.12204195041E+03  0.12204195041E+03  0.00000000000E+00 0. -1.
         21   -1    0    0  501  503 -0.00000000000E+00 -0.00000000000E+00 -0.14534779866E+04  0.14534779866E+04  0.00000000000E+00 0. -1.
    9000007    1    1    2  501    0  0.55509454600E+02 -0.25045144509E+02 -0.88445702591E+03  0.97261132499E+03  0.40000000000E+03 0.  1.
   -9000007    1    1    2    0  502 -0.55509454600E+02  0.25045144509E+02 -0.44697901025E+03  0.60290861199E+03  0.40000000000E+03 0.  1.
<mgrwt>
<rscale>  2 0.40460914E+03</rscale>
<asrwt>0</asrwt>
<pdfrwt beam="1">  1       21 0.18775685E-01 0.40460914E+03</pdfrwt>
<pdfrwt beam="2">  1       21 0.22361199E+00 0.40460914E+03</pdfrwt>
<totfact> 0.21300990E+03</totfact>
</mgrwt>
</event>
<event>
 4    1  0.5013722E-002  0.5048124E+03  0.7818608E-02  0.1012530E+00
         21   -1    0    0  501  502  0.00000000000E+00  0.00000000000E+00  0.77312048188E+03  0.77312048188E+03  0.00000000000E+00 0.  1.
         21   -1    0    0  502  503 -0.00000000000E+00 -0.00000000000E+00 -0.11177682768E+04  0.11177682768E+04  0.00000000000E+00 0. -1.
    9000007    1    1    2  501    0 -0.27521932858E+03  0.13816609380E+03  0.62157319430E+03  0.80074264540E+03  0.40000000000E+03 0.  1.
   -9000007    1    1    2    0  503  0.27521932858E+03 -0.13816609380E+03 -0.96622098921E+03  0.10901461133E+04  0.40000000000E+03 0. -1.
<mgrwt>
<rscale>  2 0.50481239E+03</rscale>
<asrwt>0</asrwt>
<pdfrwt beam="1">  1       21 0.11894161E+00 0.50481239E+03</pdfrwt>
<pdfrwt beam="2">  1       21 0.17196435E+00 0.50481239E+03</pdfrwt>
<totfact> 0.86443850E+01</totfact>
</mgrwt>
</event>
<event>
 4    1  0.5013722E-002  0.4204709E+03  0.7818608E-02  0.1036913E+00
         21   -1    0    0  503  502  0.00000000000E+00  0.00000000000E+00  0.18116284925E+03  0.18116284925E+03  0.00000000000E+00 0.  1.
         21   -1    0    0  501  503 -0.00000000000E+00 -0.00000000000E+00 -0.12139113933E+04  0.12139113933E+04  0.00000000000E+00 0.  1.
    9000007    1    1    2  501    0 -0.57900569441E+01  0.12946906319E+03 -0.82524592331E+03  0.92618928790E+03  0.40000000000E+03 0.  1.
   -9000007    1    1    2    0  502  0.57900569441E+01 -0.12946906319E+03 -0.20750262075E+03  0.46888495466E+03  0.40000000000E+03 0.  1.
<mgrwt>
<rscale>  2 0.42047088E+03</rscale>
<asrwt>0</asrwt>
<pdfrwt beam="1">  1       21 0.27871208E-01 0.42047088E+03</pdfrwt>
<pdfrwt beam="2">  1       21 0.18675559E+00 0.42047088E+03</pdfrwt>
<totfact> 0.17267213E+03</totfact>
</mgrwt>
</event>
<event>
 4    1  0.5013722E-002  0.4096481E+03  0.7818608E-02  0.1040489E+00
         21   -1    0    0  503  502  0.00000000000E+00  0.00000000000E+00  0.50679002518E+03  0.50679002518E+03  0.00000000000E+00 0. -1.
         21   -1    0    0  501  503 -0.00000000000E+00 -0.00000000000E+00 -0.36335398581E+03  0.36335398581E+03  0.00000000000E+00 0.  1.
    9000007    1    1    2  501    0 -0.70574743582E+02 -0.53205303260E+02 -0.57853484949E+02  0.41371321522E+03  0.40000000000E+03 0.  1.
   -9000007    1    1    2    0  502  0.70574743582E+02  0.53205303260E+02  0.20128952432E+03  0.45643079577E+03  0.40000000000E+03 0. -1.
<mgrwt>
<rscale>  2 0.40964814E+03</rscale>
<asrwt>0</asrwt>
<pdfrwt beam="1">  1       21 0.77967696E-01 0.40964814E+03</pdfrwt>
<pdfrwt beam="2">  1       21 0.55900613E-01 0.40964814E+03</pdfrwt>
<totfact> 0.38999689E+03</totfact>
</mgrwt>
</event>
<event>
 4    1  0.5013722E-002  0.5037849E+03  0.7818608E-02  0.1012796E+00
         21   -1    0    0  501  502  0.00000000000E+00  0.00000000000E+00  0.13168465913E+03  0.13168465913E+03  0.00000000000E+00 0. -1.
         21   -1    0    0  502  503 -0.00000000000E+00 -0.00000000000E+00 -0.25423797193E+04  0.25423797193E+04  0.00000000000E+00 0. -1.
    9000007    1    1    2  501    0  0.19498924255E+03 -0.23617453448E+03 -0.54772252375E+03  0.74417684623E+03  0.40000000000E+03 0. -1.
   -9000007    1    1    2    0  503 -0.19498924255E+03  0.23617453448E+03 -0.18629725364E+04  0.19298875322E+04  0.40000000000E+03 0. -1.
<mgrwt>
<rscale>  2 0.50378489E+03</rscale>
<asrwt>0</asrwt>
<pdfrwt beam="1">  1       21 0.20259178E-01 0.50378489E+03</pdfrwt>
<pdfrwt beam="2">  1       21 0.39113534E+00 0.50378489E+03</pdfrwt>
<totfact> 0.16396435E+02</totfact>
</mgrwt>
</event>
<event>
 4    1  0.5013722E-002  0.4410748E+03  0.7818608E-02  0.1030418E+00
         21   -1    0    0  501  502  0.00000000000E+00  0.00000000000E+00  0.68364766433E+03  0.68364766433E+03  0.00000000000E+00 0. -1.
         21   -1    0    0  502  503 -0.00000000000E+00 -0.00000000000E+00 -0.40519073936E+03  0.40519073936E+03  0.00000000000E+00 0. -1.
    9000007    1    1    2  501    0 -0.33757169860E+02 -0.18277708905E+03  0.43626576943E+03  0.62038281115E+03  0.40000000000E+03 0. -1.
   -9000007    1    1    2    0  503  0.33757169860E+02  0.18277708905E+03 -0.15780884446E+03  0.46845559255E+03  0.40000000000E+03 0. -1.
<mgrwt>
<rscale>  2 0.44107484E+03</rscale>
<asrwt>0</asrwt>
<pdfrwt beam="1">  1       21 0.10517656E+00 0.44107484E+03</pdfrwt>
<pdfrwt beam="2">  1       21 0.62337037E-01 0.44107484E+03</pdfrwt>
<totfact> 0.14933665E+03</totfact>
</mgrwt>
</event>
<event>
 4    1  0.5013722E-002  0.5680639E+03  0.7818608E-02  0.9973972E-01
         21   -1    0    0  503  502  0.00000000000E+00  0.00000000000E+00  0.75152287347E+03  0.75152287347E+03  0.00000000000E+00 0.  1.
         21   -1    0    0  501  503 -0.00000000000E+00 -0.00000000000E+00 -0.10063086642E+04  0.10063086642E+04  0.00000000000E+00 0.  1.
    9000007    1    1    2  501    0 -0.33207011046E+03 -0.22896736392E+03 -0.79287877067E+03  0.97537344488E+03  0.40000000000E+03 0.  1.
   -9000007    1    1    2    0  502  0.33207011046E+03  0.22896736392E+03  0.53809297990E+03  0.78245809282E+03  0.40000000000E+03 0.  1.
<mgrwt>
<rscale>  2 0.56806392E+03</rscale>
<asrwt>0</asrwt>
<pdfrwt beam="1">  1       21 0.11561890E+00 0.56806392E+03</pdfrwt>
<pdfrwt beam="2">  1       21 0.15481672E+00 0.56806392E+03</pdfrwt>
<totfact> 0.12134129E+02</totfact>
</mgrwt>
</event>
<event>
 4    1  0.5013722E-002  0.6043849E+03  0.7818608E-02  0.9896350E-01
         21   -1    0    0  503  502  0.00000000000E+00  0.00000000000E+00  0.28310715650E+04  0.28310715650E+04  0.00000000000E+00 0. -1.
         21   -1    0    0  501  503 -0.00000000000E+00 -0.00000000000E+00 -0.13785077137E+03  0.13785077137E+03  0.00000000000E+00 0.  1.
    9000007    1    1    2  501    0 -0.17288922972E+03 -0.41879642436E+03  0.97101338006E+03  0.11437430284E+04  0.40000000000E+03 0. -1.
   -9000007    1    1    2    0  502  0.17288922972E+03  0.41879642436E+03  0.17222074136E+04  0.18251793079E+04  0.40000000000E+03 0.  1.
<mgrwt>
<rscale>  2 0.60438492E+03</rscale>
<asrwt>0</asrwt>
<pdfrwt beam="1">  1       21 0.43554943E+00 0.60438492E+03</pdfrwt>
<pdfrwt beam="2">  1       21 0.21207813E-01 0.60438492E+03</pdfrwt>
<totfact> 0.72726674E+01</totfact>
</mgrwt>
</event>
<event>
 4    1  0.5013722E-002  0.4281607E+03  0.7818608E-02  0.1034443E+00
         21   -1    0    0  501  502  0.00000000000E+00  0.00000000000E+00  0.13533769395E+03  0.13533769395E+03  0.00000000000E+00 0. -1.
         21   -1    0    0  502  503 -0.00000000000E+00 -0.00000000000E+00 -0.13949325593E+04  0.13949325593E+04  0.00000000000E+00 0. -1.
    9000007    1    1    2  501    0 -0.12301566927E+03  0.90491463363E+02 -0.75998303727E+03  0.87229340062E+03  0.40000000000E+03 0.  1.
   -9000007    1    1    2    0  503  0.12301566927E+03 -0.90491463363E+02 -0.49961182804E+03  0.65797685259E+03  0.40000000000E+03 0.  1.
<mgrwt>
<rscale>  2 0.42816067E+03</rscale>
<asrwt>0</asrwt>
<pdfrwt beam="1">  1       21 0.20821184E-01 0.42816067E+03</pdfrwt>
<pdfrwt beam="2">  1       21 0.21460500E+00 0.42816067E+03</pdfrwt>
<totfact> 0.19759719E+03</totfact>
</mgrwt>
</event>
<event>
 4    1  0.5013722E-002  0.4125615E+03  0.7818608E-02  0.1039515E+00
         21   -1    0    0  503  502  0.00000000000E+00  0.00000000000E+00  0.23593716842E+03  0.23593716842E+03  0.00000000000E+00 0. -1.
         21   -1    0    0  501  503 -0.00000000000E+00 -0.00000000000E+00 -0.10091219307E+04  0.10091219307E+04  0.00000000000E+00 0. -1.
    9000007    1    1    2  501    0  0.10102680296E+03  0.73341427801E+00 -0.71899820132E+03  0.82895438132E+03  0.40000000000E+03 0. -1.
   -9000007    1    1    2    0  502 -0.10102680296E+03 -0.73341427801E+00 -0.54186560995E+02  0.41610471784E+03  0.40000000000E+03 0. -1.
<mgrwt>
<rscale>  2 0.41256145E+03</rscale>
<asrwt>0</asrwt>
<pdfrwt beam="1">  1       21 0.36298026E-01 0.41256145E+03</pdfrwt>
<pdfrwt beam="2">  1       21 0.15524953E+00 0.41256145E+03</pdfrwt>
<totfact> 0.17302071E+03</totfact>
</mgrwt>
</event>
<event>
 4    1  0.5013722E-002  0.5814372E+03  0.7818608E-02  0.9944684E-01
         21   -1    0    0  501  502  0.00000000000E+00  0.00000000000E+00  0.68714291842E+03  0.68714291842E+03  0.00000000000E+00 0. -1.
         21   -1    0    0  502  503 -0.00000000000E+00 -0.00000000000E+00 -0.72030016357E+03  0.72030016357E+03  0.00000000000E+00 0.  1.
    9000007    1    1    2  501    0  0.28499474222E+03 -0.31120290943E+03  0.37961201303E+03  0.69438788466E+03  0.40000000000E+03 0. -1.
   -9000007    1    1    2    0  503 -0.28499474222E+03  0.31120290943E+03 -0.41276925818E+03  0.71305519732E+03  0.40000000000E+03 0.  1.
<mgrwt>
<rscale>  2 0.58143723E+03</rscale>
<asrwt>0</asrwt>
<pdfrwt beam="1">  1       21 0.10571430E+00 0.58143723E+03</pdfrwt>
<pdfrwt beam="2">  1       21 0.11081541E+00 0.58143723E+03</pdfrwt>
<totfact> 0.36334595E+02</totfact>
</mgrwt>
</event>
<event>
 4    1  0.5013722E-002  0.5179444E+03  0.7818608E-02  0.1009198E+00
         21   -1    0    0  501  502  0.00000000000E+00  0.00000000000E+00  0.22252410670E+03  0.22252410670E+03  0.00000000000E+00 0.  1.
         21   -1    0    0  502  503 -0.00000000000E+00 -0.00000000000E+00 -0.12209647027E+04  0.12209647027E+04  0.00000000000E+00 0. -1.
    9000007    1    1    2  501    0  0.11507347748E+03  0.30826051271E+03 -0.41815399623E+03  0.66567200142E+03  0.40000000000E+03 0.  1.
   -9000007    1    1    2    0  503 -0.11507347748E+03 -0.30826051271E+03 -0.58028659982E+03  0.77781680802E+03  0.40000000000E+03 0. -1.
<mgrwt>
<rscale>  2 0.51794445E+03</rscale>
<asrwt>0</asrwt>
<pdfrwt beam="1">  1       21 0.34234478E-01 0.51794445E+03</pdfrwt>
<pdfrwt beam="2">  1       21 0.18784072E+00 0.51794445E+03</pdfrwt>
<totfact> 0.10809890E+03</totfact>
</mgrwt>
</event>
<event>
 4    1  0.5013722E-002  0.4715344E+03  0.7818608E-02  0.1021488E+00
         21   -1    0    0  503  502  0.00000000000E+00  0.00000000000E+00  0.20354609894E+03  0.20354609894E+03  0.00000000000E+00 0.  1.
         21   -1    0    0  501  503 -0.00000000000E+00 -0.00000000000E+00 -0.12922489866E+04  0.12922489866E+04  0.00000000000E+00 0. -1.
    9000007    1    1    2  501    0 -0.16932716439E+03 -0.18350211268E+03 -0.25020184739E+03  0.53380303333E+03  0.40000000000E+03 0.  1.
   -9000007    1    1    2    0  502  0.16932716439E+03  0.18350211268E+03 -0.83850104025E+03  0.96199205218E+03  0.40000000000E+03 0. -1.
<mgrwt>
<rscale>  2 0.47153442E+03</rscale>
<asrwt>0</asrwt>
<pdfrwt beam="1">  1       21 0.31314784E-01 0.47153442E+03</pdfrwt>
<pdfrwt beam="2">  1       21 0.19880754E+00 0.47153442E+03</pdfrwt>
<totfact> 0.11096986E+03</totfact>
</mgrwt>
</event>
<event>
 4    1  0.5013722E-002  0.4978384E+03  0.7818608E-02  0.1014345E+00
         21   -1    0    0  501  502  0.00000000000E+00  0.00000000000E+00  0.58158710013E+03  0.58158710013E+03  0.00000000000E+00 0.  1.
         21   -1    0    0  502  503 -0.00000000000E+00 -0.00000000000E+00 -0.16583998610E+04  0.16583998610E+04  0.00000000000E+00 0.  1.
    9000007    1    1    2  501    0 -0.19981714326E+03  0.21889764830E+03  0.42702261803E+03  0.65588976778E+03  0.40000000000E+03 0.  1.
   -9000007    1    1    2    0  503  0.19981714326E+03 -0.21889764830E+03 -0.15038353789E+04  0.15840971933E+04  0.40000000000E+03 0.  1.
<mgrwt>
<rscale>  2 0.49783840E+03</rscale>
<asrwt>0</asrwt>
<pdfrwt beam="1">  1       21 0.89474941E-01 0.49783840E+03</pdfrwt>
<pdfrwt beam="2">  1       21 0.25513843E+00 0.49783840E+03</pdfrwt>
<totfact> 0.49554148E+01</totfact>
</mgrwt>
</event>
<event>
 4    1  0.5013722E-002  0.4214048E+03  0.7818608E-02  0.1036610E+00
         21   -1    0    0  503  502  0.00000000000E+00  0.00000000000E+00  0.86178374757E+02  0.86178374757E+02  0.00000000000E+00 0.  1.
         21   -1    0    0  501  503 -0.00000000000E+00 -0.00000000000E+00 -0.21062772365E+04  0.21062772365E+04  0.00000000000E+00 0.  1.
    9000007    1    1    2  501    0 -0.89543950501E+02  0.97794929481E+02 -0.11714250738E+04  0.12449171341E+04  0.40000000000E+03 0.  1.
   -9000007    1    1    2    0  502  0.89543950501E+02 -0.97794929481E+02 -0.84867378791E+03  0.94753847710E+03  0.40000000000E+03 0.  1.
<mgrwt>
<rscale>  2 0.42140475E+03</rscale>
<asrwt>0</asrwt>
<pdfrwt beam="1">  1       21 0.13258211E-01 0.42140475E+03</pdfrwt>
<pdfrwt beam="2">  1       21 0.32404266E+00 0.42140475E+03</pdfrwt>
<totfact> 0.99045405E+02</totfact>
</mgrwt>
</event>
<event>
 4    1  0.5013722E-002  0.4209470E+03  0.7818608E-02  0.1036759E+00
         21   -1    0    0  501  502  0.00000000000E+00  0.00000000000E+00  0.71094842076E+03  0.71094842076E+03  0.00000000000E+00 0.  1.
         21   -1    0    0  502  503 -0.00000000000E+00 -0.00000000000E+00 -0.33155545151E+03  0.33155545151E+03  0.00000000000E+00 0.  1.
    9000007    1    1    2  501    0  0.13108045804E+03 -0.37826399332E+01  0.44942026905E+03  0.61577185148E+03  0.40000000000E+03 0.  1.
   -9000007    1    1    2    0  503 -0.13108045804E+03  0.37826399332E+01 -0.70027299800E+02  0.42673202078E+03  0.40000000000E+03 0.  1.
<mgrwt>
<rscale>  2 0.42094702E+03</rscale>
<asrwt>0</asrwt>
<pdfrwt beam="1">  1       21 0.10937668E+00 0.42094702E+03</pdfrwt>
<pdfrwt beam="2">  1       21 0.51008531E-01 0.42094702E+03</pdfrwt>
<totfact> 0.21107487E+03</totfact>
</mgrwt>
</event>
<event>
 4    1  0.5013722E-002  0.4079289E+03  0.7818608E-02  0.1041068E+00
         21   -1    0    0  503  502  0.00000000000E+00  0.00000000000E+00  0.62912172314E+03  0.62912172314E+03  0.00000000000E+00 0. -1.
         21   -1    0    0  501  503 -0.00000000000E+00 -0.00000000000E+00 -0.34770219610E+03  0.34770219610E+03  0.00000000000E+00 0. -1.
    9000007    1    1    2  501    0  0.23418037507E+02  0.76535003968E+02  0.37962080032E+03  0.55724138697E+03  0.40000000000E+03 0. -1.
   -9000007    1    1    2    0  502 -0.23418037507E+02 -0.76535003968E+02 -0.98201273276E+02  0.41958253227E+03  0.40000000000E+03 0. -1.
<mgrwt>
<rscale>  2 0.40792893E+03</rscale>
<asrwt>0</asrwt>
<pdfrwt beam="1">  1       21 0.96787958E-01 0.40792893E+03</pdfrwt>
<pdfrwt beam="2">  1       21 0.53492645E-01 0.40792893E+03</pdfrwt>
<totfact> 0.25837150E+03</totfact>
</mgrwt>
</event>
<event>
 4    1  0.5013722E-002  0.4522009E+03  0.7818608E-02  0.1027068E+00
         21   -1    0    0  503  502  0.00000000000E+00  0.00000000000E+00  0.11333004369E+03  0.11333004369E+03  0.00000000000E+00 0. -1.
         21   -1    0    0  501  503 -0.00000000000E+00 -0.00000000000E+00 -0.31097694333E+04  0.31097694333E+04  0.00000000000E+00 0. -1.
    9000007    1    1    2  501    0 -0.20683918839E+03  0.41269835755E+02 -0.25423548845E+04  0.25822575409E+04  0.40000000000E+03 0. -1.
   -9000007    1    1    2    0  502  0.20683918839E+03 -0.41269835755E+02 -0.45408450516E+03  0.64084193607E+03  0.40000000000E+03 0. -1.
<mgrwt>
<rscale>  2 0.45220089E+03</rscale>
<asrwt>0</asrwt>
<pdfrwt beam="1">  1       21 0.17435390E-01 0.45220089E+03</pdfrwt>
<pdfrwt beam="2">  1       21 0.47842611E+00 0.45220089E+03</pdfrwt>
<totfact> 0.59008488E+01</totfact>
</mgrwt>
</event>
<event>
 4    1  0.5013722E-002  0.5641244E+03  0.7818608E-02  0.9982765E-01
         21   -1    0    0  503  502  0.00000000000E+00  0.00000000000E+00  0.11077110508E+04  0.11077110508E+04  0.00000000000E+00 0.  1.
         21   -1    0    0  501  503 -0.00000000000E+00 -0.00000000000E+00 -0.20613466256E+04  0.20613466256E+04  0.00000000000E+00 0. -1.
    9000007    1    1    2  501    0 -0.14987793928E+03  0.36847381408E+03 -0.19467866917E+04  0.20268731513E+04  0.40000000000E+03 0. -1.
   -9000007    1    1    2    0  502  0.14987793928E+03 -0.36847381408E+03  0.99315111695E+03  0.11421845251E+04  0.40000000000E+03 0.  1.
<mgrwt>
<rscale>  2 0.56412441E+03</rscale>
<asrwt>0</asrwt>
<pdfrwt beam="1">  1       21 0.17041709E+00 0.56412441E+03</pdfrwt>
<pdfrwt beam="2">  1       21 0.31713025E+00 0.56412441E+03</pdfrwt>
<totfact> 0.37661896E+00</totfact>
</mgrwt>
</event>
<event>
 4    1  0.5013722E-002  0.5111370E+03  0.7818608E-02  0.1010912E+00
         21   -1    0    0  503  502  0.00000000000E+00  0.00000000000E+00  0.13572140770E+03  0.13572140770E+03  0.00000000000E+00 0. -1.
         21   -1    0    0  501  503 -0.00000000000E+00 -0.00000000000E+00 -0.22299538466E+04  0.22299538466E+04  0.00000000000E+00 0. -1.
    9000007    1    1    2  501    0 -0.84429705657E+02 -0.30681052205E+03 -0.14845457442E+04  0.15700755199E+04  0.40000000000E+03 0. -1.
   -9000007    1    1    2    0  502  0.84429705657E+02  0.30681052205E+03 -0.60968669465E+03  0.79559973433E+03  0.40000000000E+03 0. -1.
<mgrwt>
<rscale>  2 0.51113704E+03</rscale>
<asrwt>0</asrwt>
<pdfrwt beam="1">  1       21 0.20880218E-01 0.51113704E+03</pdfrwt>
<pdfrwt beam="2">  1       21 0.34306979E+00 0.51113704E+03</pdfrwt>
<totfact> 0.30789078E+02</totfact>
</mgrwt>
</event>
<event>
 4    1  0.5013722E-002  0.4101417E+03  0.7818608E-02  0.1040323E+00
         21   -1    0    0  503  502  0.00000000000E+00  0.00000000000E+00  0.64657417004E+03  0.64657417004E+03  0.00000000000E+00 0. -1.
         21   -1    0    0  501  503 -0.00000000000E+00 -0.00000000000E+00 -0.40774668284E+03  0.40774668284E+03  0.00000000000E+00 0. -1.
    9000007    1    1    2  501    0 -0.20053202311E+02 -0.88397121553E+02 -0.19773524193E+03  0.45531901775E+03  0.40000000000E+03 0. -1.
   -9000007    1    1    2    0  502  0.20053202311E+02  0.88397121553E+02  0.43656272913E+03  0.59900183513E+03  0.40000000000E+03 0. -1.
<mgrwt>
<rscale>  2 0.41014166E+03</rscale>
<asrwt>0</asrwt>
<pdfrwt beam="1">  1       21 0.99472949E-01 0.41014166E+03</pdfrwt>
<pdfrwt beam="2">  1       21 0.62730259E-01 0.41014166E+03</pdfrwt>
<totfact> 0.17093403E+03</totfact>
</mgrwt>
</event>
<event>
 4    1  0.5013722E-002  0.4017199E+03  0.7818608E-02  0.1043186E+00
         21   -1    0    0  503  502  0.00000000000E+00  0.00000000000E+00  0.14911663436E+03  0.14911663436E+03  0.00000000000E+00 0. -1.
         21   -1    0    0  501  503 -0.00000000000E+00 -0.00000000000E+00 -0.10934983318E+04  0.10934983318E+04  0.00000000000E+00 0. -1.
    9000007    1    1    2  501    0 -0.13755377411E+02 -0.34491679831E+02 -0.40912753674E+03  0.57337965407E+03  0.40000000000E+03 0. -1.
   -9000007    1    1    2    0  502  0.13755377411E+02  0.34491679831E+02 -0.53525416069E+03  0.66923531207E+03  0.40000000000E+03 0. -1.
<mgrwt>
<rscale>  2 0.40171991E+03</rscale>
<asrwt>0</asrwt>
<pdfrwt beam="1">  1       21 0.22941020E-01 0.40171991E+03</pdfrwt>
<pdfrwt beam="2">  1       21 0.16823052E+00 0.40171991E+03</pdfrwt>
<totfact> 0.34393074E+03</totfact>
</mgrwt>
</event>
<event>
 4    1  0.5013722E-002  0.4285441E+03  0.7818608E-02  0.1034321E+00
         21   -1    0    0  501  502  0.00000000000E+00  0.00000000000E+00  0.68906058474E+03  0.68906058474E+03  0.00000000000E+00 0.  1.
         21   -1    0    0  502  503 -0.00000000000E+00 -0.00000000000E+00 -0.27049785843E+03  0.27049785843E+03  0.00000000000E+00 0.  1.
    9000007    1    1    2  501    0 -0.13928216471E+03  0.65195886956E+02  0.15111692407E+03  0.45440769120E+03  0.40000000000E+03 0.  1.
   -9000007    1    1    2    0  503  0.13928216471E+03 -0.65195886956E+02  0.26744580223E+03  0.50515075197E+03  0.40000000000E+03 0.  1.
<mgrwt>
<rscale>  2 0.42854408E+03</rscale>
<asrwt>0</asrwt>
<pdfrwt beam="1">  1       21 0.10600932E+00 0.42854408E+03</pdfrwt>
<pdfrwt beam="2">  1       21 0.41615055E-01 0.42854408E+03</pdfrwt>
<totfact> 0.34855536E+03</totfact>
</mgrwt>
</event>
<event>
 4    1  0.5013722E-002  0.4127979E+03  0.7818608E-02  0.1039436E+00
         21   -1    0    0  503  502  0.00000000000E+00  0.00000000000E+00  0.18605248459E+04  0.18605248459E+04  0.00000000000E+00 0.  1.
         21   -1    0    0  501  503 -0.00000000000E+00 -0.00000000000E+00 -0.10173197785E+03  0.10173197785E+03  0.00000000000E+00 0.  1.
    9000007    1    1    2  501    0 -0.10047529266E+03 -0.17517312279E+02  0.56958549016E+03  0.70344137728E+03  0.40000000000E+03 0.  1.
   -9000007    1    1    2    0  502  0.10047529266E+03  0.17517312279E+02  0.11892073779E+04  0.12588154465E+04  0.40000000000E+03 0.  1.
<mgrwt>
<rscale>  2 0.41279794E+03</rscale>
<asrwt>0</asrwt>
<pdfrwt beam="1">  1       21 0.28623457E+00 0.41279794E+03</pdfrwt>
<pdfrwt beam="2">  1       21 0.15651075E-01 0.41279794E+03</pdfrwt>
<totfact> 0.12353447E+03</totfact>
</mgrwt>
</event>
<event>
 4    1  0.5013722E-002  0.4280878E+03  0.7818608E-02  0.1034466E+00
         21   -1    0    0  501  502  0.00000000000E+00  0.00000000000E+00  0.15194288749E+03  0.15194288749E+03  0.00000000000E+00 0.  1.
         21   -1    0    0  502  503 -0.00000000000E+00 -0.00000000000E+00 -0.15071510621E+04  0.15071510621E+04  0.00000000000E+00 0.  1.
    9000007    1    1    2  501    0  0.11059532860E+03  0.10501337345E+03 -0.30685611269E+03  0.52670656841E+03  0.40000000000E+03 0.  1.
   -9000007    1    1    2    0  503 -0.11059532860E+03 -0.10501337345E+03 -0.10483520619E+04  0.11323873811E+04  0.40000000000E+03 0.  1.
<mgrwt>
<rscale>  2 0.42808777E+03</rscale>
<asrwt>0</asrwt>
<pdfrwt beam="1">  1       21 0.23375830E-01 0.42808777E+03</pdfrwt>
<pdfrwt beam="2">  1       21 0.23186938E+00 0.42808777E+03</pdfrwt>
<totfact> 0.12294800E+03</totfact>
</mgrwt>
</event>
<event>
 4    1  0.5013722E-002  0.4653389E+03  0.7818608E-02  0.1023244E+00
         21   -1    0    0  501  502  0.00000000000E+00  0.00000000000E+00  0.71093941605E+03  0.71093941605E+03  0.00000000000E+00 0. -1.
         21   -1    0    0  502  503 -0.00000000000E+00 -0.00000000000E+00 -0.32792830493E+03  0.32792830493E+03  0.00000000000E+00 0.  1.
    9000007    1    1    2  501    0 -0.12213149228E+03  0.20402012123E+03  0.33009727874E+03  0.57053003839E+03  0.40000000000E+03 0. -1.
   -9000007    1    1    2    0  503  0.12213149228E+03 -0.20402012123E+03  0.52913832371E+02  0.46833768259E+03  0.40000000000E+03 0.  1.
<mgrwt>
<rscale>  2 0.46533892E+03</rscale>
<asrwt>0</asrwt>
<pdfrwt beam="1">  1       21 0.10937529E+00 0.46533892E+03</pdfrwt>
<pdfrwt beam="2">  1       21 0.50450509E-01 0.46533892E+03</pdfrwt>
<totfact> 0.21244271E+03</totfact>
</mgrwt>
</event>
<event>
 4    1  0.5013722E-002  0.5366257E+03  0.7818608E-02  0.1004638E+00
         21   -1    0    0  501  502  0.00000000000E+00  0.00000000000E+00  0.20974020934E+04  0.20974020934E+04  0.00000000000E+00 0.  1.
         21   -1    0    0  502  503 -0.00000000000E+00 -0.00000000000E+00 -0.21656935973E+03  0.21656935973E+03  0.00000000000E+00 0. -1.
    9000007    1    1    2  501    0  0.54177246861E+01 -0.35768386174E+03  0.16404038618E+04  0.17259466755E+04  0.40000000000E+03 0.  1.
   -9000007    1    1    2    0  503 -0.54177246861E+01  0.35768386174E+03  0.24042887180E+03  0.58802477761E+03  0.40000000000E+03 0. -1.
<mgrwt>
<rscale>  2 0.53662566E+03</rscale>
<asrwt>0</asrwt>
<pdfrwt beam="1">  1       21 0.32267723E+00 0.53662566E+03</pdfrwt>
<pdfrwt beam="2">  1       21 0.33318364E-01 0.53662566E+03</pdfrwt>
<totfact> 0.16158334E+02</totfact>
</mgrwt>
</event>
<event>
 4    1  0.5013722E-002  0.6876150E+03  0.7818608E-02  0.9738650E-01
         21   -1    0    0  503  502  0.00000000000E+00  0.00000000000E+00  0.70438479829E+03  0.70438479829E+03  0.00000000000E+00 0.  1.
         21   -1    0    0  501  503 -0.00000000000E+00 -0.00000000000E+00 -0.72465085882E+03  0.72465085882E+03  0.00000000000E+00 0. -1.
    9000007    1    1    2  501    0 -0.25479176074E+02  0.55871747211E+03 -0.20410780777E+03  0.71726870784E+03  0.40000000000E+03 0. -1.
   -9000007    1    1    2    0  502  0.25479176074E+02 -0.55871747211E+03  0.18384174724E+03  0.71176694927E+03  0.40000000000E+03 0. -1.
<mgrwt>
<rscale>  2 0.68761501E+03</rscale>
<asrwt>0</asrwt>
<pdfrwt beam="1">  1       21 0.10836689E+00 0.68761501E+03</pdfrwt>
<pdfrwt beam="2">  1       21 0.11148475E+00 0.68761501E+03</pdfrwt>
<totfact> 0.32502067E+02</totfact>
</mgrwt>
</event>
<event>
 4    1  0.5013722E-002  0.4151830E+03  0.7818608E-02  0.1038646E+00
         21   -1    0    0  501  502  0.00000000000E+00  0.00000000000E+00  0.26168389933E+04  0.26168389933E+04  0.00000000000E+00 0.  1.
         21   -1    0    0  502  503 -0.00000000000E+00 -0.00000000000E+00 -0.22719280012E+03  0.22719280012E+03  0.00000000000E+00 0.  1.
    9000007    1    1    2  501    0 -0.74323759256E+02 -0.82782230786E+02  0.23930859477E+04  0.24288345501E+04  0.40000000000E+03 0.  1.
   -9000007    1    1    2    0  503  0.74323759256E+02  0.82782230786E+02 -0.34397545074E+01  0.41519724329E+03  0.40000000000E+03 0.  1.
<mgrwt>
<rscale>  2 0.41518299E+03</rscale>
<asrwt>0</asrwt>
<pdfrwt beam="1">  1       21 0.40259059E+00 0.41518299E+03</pdfrwt>
<pdfrwt beam="2">  1       21 0.34952740E-01 0.41518299E+03</pdfrwt>
<totfact> 0.50514817E+01</totfact>
</mgrwt>
</event>
<event>
 4    1  0.5013722E-002  0.7797132E+03  0.7818608E-02  0.9589855E-01
         21   -1    0    0  501  502  0.00000000000E+00  0.00000000000E+00  0.62050703747E+03  0.62050703747E+03  0.00000000000E+00 0. -1.
         21   -1    0    0  502  503 -0.00000000000E+00 -0.00000000000E+00 -0.98192389862E+03  0.98192389862E+03  0.00000000000E+00 0.  1.
    9000007    1    1    2  501    0 -0.21335760115E+03  0.63437469320E+03 -0.14316269925E+03  0.79274729630E+03  0.40000000000E+03 0.  1.
   -9000007    1    1    2    0  503  0.21335760115E+03 -0.63437469320E+03 -0.21825416190E+03  0.80968363978E+03  0.40000000000E+03 0. -1.
<mgrwt>
<rscale>  2 0.77971323E+03</rscale>
<asrwt>0</asrwt>
<pdfrwt beam="1">  1       21 0.95462622E-01 0.77971323E+03</pdfrwt>
<pdfrwt beam="2">  1       21 0.15106521E+00 0.77971323E+03</pdfrwt>
<totfact> 0.19431126E+02</totfact>
</mgrwt>
</event>
<event>
 4    1  0.5013722E-002  0.6010265E+03  0.7818608E-02  0.9903279E-01
         21   -1    0    0  503  502  0.00000000000E+00  0.00000000000E+00  0.92400333804E+03  0.92400333804E+03  0.00000000000E+00 0. -1.
         21   -1    0    0  501  503 -0.00000000000E+00 -0.00000000000E+00 -0.85951187789E+03  0.85951187789E+03  0.00000000000E+00 0. -1.
    9000007    1    1    2  501    0 -0.35036052793E+03 -0.28014346408E+03  0.69067251502E+03  0.91556615436E+03  0.40000000000E+03 0. -1.
   -9000007    1    1    2    0  502  0.35036052793E+03  0.28014346408E+03 -0.62618105487E+03  0.86794906157E+03  0.40000000000E+03 0. -1.
<mgrwt>
<rscale>  2 0.60102651E+03</rscale>
<asrwt>0</asrwt>
<pdfrwt beam="1">  1       21 0.14215436E+00 0.60102651E+03</pdfrwt>
<pdfrwt beam="2">  1       21 0.13223260E+00 0.60102651E+03</pdfrwt>
<totfact> 0.10684820E+02</totfact>
</mgrwt>
</event>
<event>
 4    1  0.5013722E-002  0.4797636E+03  0.7818608E-02  0.1019200E+00
         21   -1    0    0  503  502  0.00000000000E+00  0.00000000000E+00  0.18004008880E+03  0.18004008880E+03  0.00000000000E+00 0. -1.
         21   -1    0    0  501  503 -0.00000000000E+00 -0.00000000000E+00 -0.16894813358E+04  0.16894813358E+04  0.00000000000E+00 0. -1.
    9000007    1    1    2  501    0 -0.26387190608E+03 -0.23339776206E+02 -0.12157818976E+04  0.13070190322E+04  0.40000000000E+03 0. -1.
   -9000007    1    1    2    0  502  0.26387190608E+03  0.23339776206E+02 -0.29365934939E+03  0.56250239240E+03  0.40000000000E+03 0. -1.
<mgrwt>
<rscale>  2 0.47976362E+03</rscale>
<asrwt>0</asrwt>
<pdfrwt beam="1">  1       21 0.27698475E-01 0.47976362E+03</pdfrwt>
<pdfrwt beam="2">  1       21 0.25992021E+00 0.47976362E+03</pdfrwt>
<totfact> 0.57756664E+02</totfact>
</mgrwt>
</event>
<event>
 4    1  0.5013722E-002  0.4754894E+03  0.7818608E-02  0.1020382E+00
         21   -1    0    0  501  502  0.00000000000E+00  0.00000000000E+00  0.37245581670E+03  0.37245581670E+03  0.00000000000E+00 0.  1.
         21   -1    0    0  502  503 -0.00000000000E+00 -0.00000000000E+00 -0.65793778341E+03  0.65793778341E+03  0.00000000000E+00 0.  1.
    9000007    1    1    2  501    0 -0.24907250111E+03 -0.63663654538E+02  0.57416811779E+00  0.47548974898E+03  0.40000000000E+03 0.  1.
   -9000007    1    1    2    0  503  0.24907250111E+03  0.63663654538E+02 -0.28605613483E+03  0.55490385112E+03  0.40000000000E+03 0.  1.
<mgrwt>
<rscale>  2 0.47548940E+03</rscale>
<asrwt>0</asrwt>
<pdfrwt beam="1">  1       21 0.57300896E-01 0.47548940E+03</pdfrwt>
<pdfrwt beam="2">  1       21 0.10122120E+00 0.47548940E+03</pdfrwt>
<totfact> 0.19476236E+03</totfact>
</mgrwt>
</event>
<event>
 4    1  0.5013722E-002  0.4737133E+03  0.7818608E-02  0.1020877E+00
         21   -1    0    0  501  502  0.00000000000E+00  0.00000000000E+00  0.14302726771E+04  0.14302726771E+04  0.00000000000E+00 0.  1.
         21   -1    0    0  502  503 -0.00000000000E+00 -0.00000000000E+00 -0.32488267237E+03  0.32488267237E+03  0.00000000000E+00 0. -1.
    9000007    1    1    2  501    0 -0.22795116558E+03 -0.11154617789E+03  0.11837388039E+04  0.12750066038E+04  0.40000000000E+03 0.  1.
   -9000007    1    1    2    0  503  0.22795116558E+03  0.11154617789E+03 -0.78348799191E+02  0.48014874573E+03  0.40000000000E+03 0. -1.
<mgrwt>
<rscale>  2 0.47371329E+03</rscale>
<asrwt>0</asrwt>
<pdfrwt beam="1">  1       21 0.22004195E+00 0.47371329E+03</pdfrwt>
<pdfrwt beam="2">  1       21 0.49981950E-01 0.47371329E+03</pdfrwt>
<totfact> 0.30709745E+02</totfact>
</mgrwt>
</event>
<event>
 4    1  0.5013722E-002  0.4526061E+03  0.7818608E-02  0.1026948E+00
         21   -1    0    0  501  502  0.00000000000E+00  0.00000000000E+00  0.15150807205E+04  0.15150807205E+04  0.00000000000E+00 0. -1.
         21   -1    0    0  502  503 -0.00000000000E+00 -0.00000000000E+00 -0.50183029119E+03  0.50183029119E+03  0.00000000000E+00 0.  1.
    9000007    1    1    2  501    0  0.11638071177E+03  0.17694016877E+03  0.13685854806E+04  0.14414848286E+04  0.40000000000E+03 0. -1.
   -9000007    1    1    2    0  503 -0.11638071177E+03 -0.17694016877E+03 -0.35533505135E+03  0.57542618303E+03  0.40000000000E+03 0.  1.
<mgrwt>
<rscale>  2 0.45260611E+03</rscale>
<asrwt>0</asrwt>
<pdfrwt beam="1">  1       21 0.23308934E+00 0.45260611E+03</pdfrwt>
<pdfrwt beam="2">  1       21 0.77204661E-01 0.45260611E+03</pdfrwt>
<totfact> 0.98351008E+01</totfact>
</mgrwt>
</event>
<event>
 4    1  0.5013722E-002  0.5682299E+03  0.7818608E-02  0.9973603E-01
         21   -1    0    0  501  502  0.00000000000E+00  0.00000000000E+00  0.20334405843E+03  0.20334405843E+03  0.00000000000E+00 0. -1.
         21   -1    0    0  502  503 -0.00000000000E+00 -0.00000000000E+00 -0.16298277188E+04  0.16298277188E+04  0.00000000000E+00 0. -1.
    9000007    1    1    2  501    0  0.33687370601E+03  0.22226405692E+03 -0.56618818138E+03  0.80215600823E+03  0.40000000000E+03 0. -1.
   -9000007    1    1    2    0  503 -0.33687370601E+03 -0.22226405692E+03 -0.86029547902E+03  0.10310157690E+04  0.40000000000E+03 0. -1.
<mgrwt>
<rscale>  2 0.56822989E+03</rscale>
<asrwt>0</asrwt>
<pdfrwt beam="1">  1       21 0.31283702E-01 0.56822989E+03</pdfrwt>
<pdfrwt beam="2">  1       21 0.25074272E+00 0.56822989E+03</pdfrwt>
<totfact> 0.49624316E+02</totfact>
</mgrwt>
</event>
<event>
 4    1  0.5013722E-002  0.4030980E+03  0.7818608E-02  0.1042712E+00
         21   -1    0    0  501  502  0.00000000000E+00  0.00000000000E+00  0.39210480945E+03  0.39210480945E+03  0.00000000000E+00 0. -1.
         21   -1    0    0  502  503 -0.00000000000E+00 -0.00000000000E+00 -0.51198587829E+03  0.51198587829E+03  0.00000000000E+00 0. -1.
    9000007    1    1    2  501    0  0.16460477558E+02 -0.47085917285E+02 -0.25729531173E+03  0.47821429126E+03  0.40000000000E+03 0. -1.
   -9000007    1    1    2    0  503 -0.16460477558E+02  0.47085917285E+02  0.13741424290E+03  0.42587639648E+03  0.40000000000E+03 0. -1.
<mgrwt>
<rscale>  2 0.40309804E+03</rscale>
<asrwt>0</asrwt>
<pdfrwt beam="1">  1       21 0.60323817E-01 0.40309804E+03</pdfrwt>
<pdfrwt beam="2">  1       21 0.78767059E-01 0.40309804E+03</pdfrwt>
<totfact> 0.32366294E+03</totfact>
</mgrwt>
</event>
<event>
 4    1  0.5013722E-002  0.4583073E+03  0.7818608E-02  0.1025273E+00
         21   -1    0    0  501  502  0.00000000000E+00  0.00000000000E+00  0.12975585954E+04  0.12975585954E+04  0.00000000000E+00 0. -1.
         21   -1    0    0  502  503 -0.00000000000E+00 -0.00000000000E+00 -0.16536484579E+03  0.16536484579E+03  0.00000000000E+00 0.  1.
    9000007    1    1    2  501    0  0.21225993638E+03 -0.70649332539E+02  0.67231882901E+03  0.81366959918E+03  0.40000000000E+03 0. -1.
   -9000007    1    1    2    0  503 -0.21225993638E+03  0.70649332539E+02  0.45987492060E+03  0.64925384202E+03  0.40000000000E+03 0. -1.
<mgrwt>
<rscale>  2 0.45830733E+03</rscale>
<asrwt>0</asrwt>
<pdfrwt beam="1">  1       21 0.19962439E+00 0.45830733E+03</pdfrwt>
<pdfrwt beam="2">  1       21 0.25440746E-01 0.45830733E+03</pdfrwt>
<totfact> 0.16608804E+03</totfact>
</mgrwt>
</event>
<event>
 4    1  0.5013722E-002  0.4520256E+03  0.7818608E-02  0.1027120E+00
         21   -1    0    0  501  502  0.00000000000E+00  0.00000000000E+00  0.48078803645E+03  0.48078803645E+03  0.00000000000E+00 0.  1.
         21   -1    0    0  502  503 -0.00000000000E+00 -0.00000000000E+00 -0.12057891882E+04  0.12057891882E+04  0.00000000000E+00 0.  1.
    9000007    1    1    2  501    0 -0.11400256000E+03  0.17700448806E+03  0.31609639601E+03  0.55158327028E+03  0.40000000000E+03 0.  1.
   -9000007    1    1    2    0  503  0.11400256000E+03 -0.17700448806E+03 -0.10410975477E+04  0.11349939543E+04  0.40000000000E+03 0.  1.
<mgrwt>
<rscale>  2 0.45202563E+03</rscale>
<asrwt>0</asrwt>
<pdfrwt beam="1">  1       21 0.73967391E-01 0.45202563E+03</pdfrwt>
<pdfrwt beam="2">  1       21 0.18550603E+00 0.45202563E+03</pdfrwt>
<totfact> 0.22246861E+02</totfact>
</mgrwt>
</event>
<event>
 4    1  0.5013722E-002  0.4981213E+03  0.7818608E-02  0.1014270E+00
         21   -1    0    0  501  502  0.00000000000E+00  0.00000000000E+00  0.17661209601E+03  0.17661209601E+03  0.00000000000E+00 0.  1.
         21   -1    0    0  502  503 -0.00000000000E+00 -0.00000000000E+00 -0.22453006384E+04  0.22453006384E+04  0.00000000000E+00 0. -1.
    9000007    1    1    2  501    0 -0.27729072648E+03 -0.10599392951E+03 -0.29349350257E+03  0.57815507966E+03  0.40000000000E+03 0.  1.
   -9000007    1    1    2    0  503  0.27729072648E+03  0.10599392951E+03 -0.17751950398E+04  0.18437576547E+04  0.40000000000E+03 0. -1.
<mgrwt>
<rscale>  2 0.49812133E+03</rscale>
<asrwt>0</asrwt>
<pdfrwt beam="1">  1       21 0.27171091E-01 0.49812133E+03</pdfrwt>
<pdfrwt beam="2">  1       21 0.34543087E+00 0.49812133E+03</pdfrwt>
<totfact> 0.17987494E+02</totfact>
</mgrwt>
</event>
<event>
 4    1  0.5013722E-002  0.4030957E+03  0.7818608E-02  0.1042713E+00
         21   -1    0    0  503  502  0.00000000000E+00  0.00000000000E+00  0.10736413053E+04  0.10736413053E+04  0.00000000000E+00 0.  1.
         21   -1    0    0  501  503 -0.00000000000E+00 -0.00000000000E+00 -0.20881290824E+03  0.20881290824E+03  0.00000000000E+00 0.  1.
    9000007    1    1    2  501    0  0.35031678497E+02 -0.35481237641E+02  0.76881757752E+03  0.86808214140E+03  0.40000000000E+03 0.  1.
   -9000007    1    1    2    0  502 -0.35031678497E+02  0.35481237641E+02  0.96010819588E+02  0.41437207218E+03  0.40000000000E+03 0.  1.
<mgrwt>
<rscale>  2 0.40309569E+03</rscale>
<asrwt>0</asrwt>
<pdfrwt beam="1">  1       21 0.16517558E+00 0.40309569E+03</pdfrwt>
<pdfrwt beam="2">  1       21 0.32125063E-01 0.40309569E+03</pdfrwt>
<totfact> 0.18706787E+03</totfact>
</mgrwt>
</event>
<event>
 4    1  0.5013722E-002  0.6804685E+03  0.7818608E-02  0.9751229E-01
         21   -1    0    0  501  502  0.00000000000E+00  0.00000000000E+00  0.33648634386E+03  0.33648634386E+03  0.00000000000E+00 0.  1.
         21   -1    0    0  502  503 -0.00000000000E+00 -0.00000000000E+00 -0.15634165150E+04  0.15634165150E+04  0.00000000000E+00 0.  1.
    9000007    1    1    2  501    0 -0.52892752065E+03 -0.15255489836E+03 -0.28464571894E+03  0.73760457186E+03  0.40000000000E+03 0.  1.
   -9000007    1    1    2    0  503  0.52892752065E+03  0.15255489836E+03 -0.94228445220E+03  0.11622982870E+04  0.40000000000E+03 0.  1.
<mgrwt>
<rscale>  2 0.68046846E+03</rscale>
<asrwt>0</asrwt>
<pdfrwt beam="1">  1       21 0.51767130E-01 0.68046846E+03</pdfrwt>
<pdfrwt beam="2">  1       21 0.24052562E+00 0.68046846E+03</pdfrwt>
<totfact> 0.19342081E+02</totfact>
</mgrwt>
</event>
<event>
 4    1  0.5013722E-002  0.4402078E+03  0.7818608E-02  0.1030683E+00
         21   -1    0    0  501  502  0.00000000000E+00  0.00000000000E+00  0.34173892284E+03  0.34173892284E+03  0.00000000000E+00 0. -1.
         21   -1    0    0  502  503 -0.00000000000E+00 -0.00000000000E+00 -0.89491449558E+03  0.89491449558E+03  0.00000000000E+00 0. -1.
    9000007    1    1    2  501    0  0.16842164076E+03 -0.73600431464E+02  0.97673396532E+02  0.45091347837E+03  0.40000000000E+03 0. -1.
   -9000007    1    1    2    0  503 -0.16842164076E+03  0.73600431464E+02 -0.65084896927E+03  0.78573994005E+03  0.40000000000E+03 0. -1.
<mgrwt>
<rscale>  2 0.44020776E+03</rscale>
<asrwt>0</asrwt>
<pdfrwt beam="1">  1       21 0.52575219E-01 0.44020776E+03</pdfrwt>
<pdfrwt beam="2">  1       21 0.13767915E+00 0.44020776E+03</pdfrwt>
<totfact> 0.10912107E+03</totfact>
</mgrwt>
</event>
<event>
 4    1  0.5013722E-002  0.4702931E+03  0.7818608E-02  0.1021838E+00
         21   -1    0    0  503  502  0.00000000000E+00  0.00000000000E+00  0.12988932931E+04  0.12988932931E+04  0.00000000000E+00 0.  1.
         21   -1    0    0  501  503 -0.00000000000E+00 -0.00000000000E+00 -0.20080376914E+03  0.20080376914E+03  0.00000000000E+00 0.  1.
    9000007    1    1    2  501    0  0.17126920239E+03  0.17844448360E+03  0.84139709675E+03  0.96391112030E+03  0.40000000000E+03 0.  1.
   -9000007    1    1    2    0  502 -0.17126920239E+03 -0.17844448360E+03  0.25669242723E+03  0.53578594197E+03  0.40000000000E+03 0.  1.
<mgrwt>
<rscale>  2 0.47029307E+03</rscale>
<asrwt>0</asrwt>
<pdfrwt beam="1">  1       21 0.19982973E+00 0.47029307E+03</pdfrwt>
<pdfrwt beam="2">  1       21 0.30892888E-01 0.47029307E+03</pdfrwt>
<totfact> 0.11229531E+03</totfact>
</mgrwt>
</event>
<event>
 4    1  0.5013722E-002  0.4323201E+03  0.7818608E-02  0.1033130E+00
         21   -1    0    0  501  502  0.00000000000E+00  0.00000000000E+00  0.36532978157E+03  0.36532978157E+03  0.00000000000E+00 0.  1.
         21   -1    0    0  502  503 -0.00000000000E+00 -0.00000000000E+00 -0.93698372694E+03  0.93698372694E+03  0.00000000000E+00 0.  1.
    9000007    1    1    2  501    0 -0.14975911289E+03 -0.66879570845E+02  0.15291867595E+03  0.45856819596E+03  0.40000000000E+03 0.  1.
   -9000007    1    1    2    0  503  0.14975911289E+03  0.66879570845E+02 -0.72457262132E+03  0.84374531255E+03  0.40000000000E+03 0.  1.
<mgrwt>
<rscale>  2 0.43232010E+03</rscale>
<asrwt>0</asrwt>
<pdfrwt beam="1">  1       21 0.56204582E-01 0.43232010E+03</pdfrwt>
<pdfrwt beam="2">  1       21 0.14415134E+00 0.43232010E+03</pdfrwt>
<totfact> 0.83914677E+02</totfact>
</mgrwt>
</event>
<event>
 4    1  0.5013722E-002  0.4195360E+03  0.7818608E-02  0.1037217E+00
         21   -1    0    0  501  502  0.00000000000E+00  0.00000000000E+00  0.24007408016E+03  0.24007408016E+03  0.00000000000E+00 0.  1.
         21   -1    0    0  502  503 -0.00000000000E+00 -0.00000000000E+00 -0.96057463308E+03  0.96057463308E+03  0.00000000000E+00 0.  1.
    9000007    1    1    2  501    0  0.65030207886E+02  0.10854283894E+03 -0.68145602219E+02  0.42503446793E+03  0.40000000000E+03 0.  1.
   -9000007    1    1    2    0  503 -0.65030207886E+02 -0.10854283894E+03 -0.65235495071E+03  0.77561424531E+03  0.40000000000E+03 0.  1.
<mgrwt>
<rscale>  2 0.41953602E+03</rscale>
<asrwt>0</asrwt>
<pdfrwt beam="1">  1       21 0.36934475E-01 0.41953602E+03</pdfrwt>
<pdfrwt beam="2">  1       21 0.14778071E+00 0.41953602E+03</pdfrwt>
<totfact> 0.19037563E+03</totfact>
</mgrwt>
</event>
<event>
 4    1  0.5013722E-002  0.4062675E+03  0.7818608E-02  0.1041631E+00
         21   -1    0    0  501  502  0.00000000000E+00  0.00000000000E+00  0.87959961952E+03  0.87959961952E+03  0.00000000000E+00 0. -1.
         21   -1    0    0  502  503 -0.00000000000E+00 -0.00000000000E+00 -0.29140095943E+03  0.29140095943E+03  0.00000000000E+00 0. -1.
    9000007    1    1    2  501    0 -0.55312802718E+02  0.44652132690E+02  0.64346975000E+03  0.76099056385E+03  0.40000000000E+03 0. -1.
   -9000007    1    1    2    0  503  0.55312802718E+02 -0.44652132690E+02 -0.55271089913E+02  0.41001001510E+03  0.40000000000E+03 0. -1.
<mgrwt>
<rscale>  2 0.40626755E+03</rscale>
<asrwt>0</asrwt>
<pdfrwt beam="1">  1       21 0.13532302E+00 0.40626755E+03</pdfrwt>
<pdfrwt beam="2">  1       21 0.44830917E-01 0.40626755E+03</pdfrwt>
<totfact> 0.16233093E+03</totfact>
</mgrwt>
</event>
<event>
 4    1  0.5013722E-002  0.4525204E+03  0.7818608E-02  0.1026973E+00
         21   -1    0    0  501  502  0.00000000000E+00  0.00000000000E+00  0.50742553373E+03  0.50742553373E+03  0.00000000000E+00 0. -1.
         21   -1    0    0  502  503 -0.00000000000E+00 -0.00000000000E+00 -0.55847030320E+03  0.55847030320E+03  0.00000000000E+00 0.  1.
    9000007    1    1    2  501    0  0.94500945205E+02 -0.18932592161E+03  0.25516970296E+03  0.51950583303E+03  0.40000000000E+03 0.  1.
   -9000007    1    1    2    0  503 -0.94500945205E+02  0.18932592161E+03 -0.30621447244E+03  0.54639000391E+03  0.40000000000E+03 0.  1.
<mgrwt>
<rscale>  2 0.45252042E+03</rscale>
<asrwt>0</asrwt>
<pdfrwt beam="1">  1       21 0.78065466E-01 0.45252042E+03</pdfrwt>
<pdfrwt beam="2">  1       21 0.85918509E-01 0.45252042E+03</pdfrwt>
<totfact> 0.14557148E+03</totfact>
</mgrwt>
</event>
<event>
 4    1  0.5013722E-002  0.5468522E+03  0.7818608E-02  0.1002225E+00
         21   -1    0    0  503  502  0.00000000000E+00  0.00000000000E+00  0.25356290800E+03  0.25356290800E+03  0.00000000000E+00 0. -1.
         21   -1    0    0  501  503 -0.00000000000E+00 -0.00000000000E+00 -0.12443578538E+04  0.12443578538E+04  0.00000000000E+00 0. -1.
    9000007    1    1    2  501    0  0.37145022674E+03 -0.32742331488E+02 -0.66654270697E+03  0.86216385417E+03  0.40000000000E+03 0. -1.
   -9000007    1    1    2    0  502 -0.37145022674E+03  0.32742331488E+02 -0.32425223882E+03  0.63575690763E+03  0.40000000000E+03 0. -1.
<mgrwt>
<rscale>  2 0.54685220E+03</rscale>
<asrwt>0</asrwt>
<pdfrwt beam="1">  1       21 0.39009679E-01 0.54685220E+03</pdfrwt>
<pdfrwt beam="2">  1       21 0.19143967E+00 0.54685220E+03</pdfrwt>
<totfact> 0.77354211E+02</totfact>
</mgrwt>
</event>
<event>
 4    1  0.5013722E-002  0.4061399E+03  0.7818608E-02  0.1041674E+00
         21   -1    0    0  503  502  0.00000000000E+00  0.00000000000E+00  0.84413417329E+03  0.84413417329E+03  0.00000000000E+00 0.  1.
         21   -1    0    0  501  503 -0.00000000000E+00 -0.00000000000E+00 -0.26894518445E+03  0.26894518445E+03  0.00000000000E+00 0.  1.
    9000007    1    1    2  501    0  0.81375282162E+01 -0.69881418560E+02 -0.34242942874E+01  0.40615435221E+03  0.40000000000E+03 0.  1.
   -9000007    1    1    2    0  502 -0.81375282162E+01  0.69881418560E+02  0.57861328314E+03  0.70692500553E+03  0.40000000000E+03 0.  1.
<mgrwt>
<rscale>  2 0.40613992E+03</rscale>
<asrwt>0</asrwt>
<pdfrwt beam="1">  1       21 0.12986679E+00 0.40613992E+03</pdfrwt>
<pdfrwt beam="2">  1       21 0.41376183E-01 0.40613992E+03</pdfrwt>
<totfact> 0.21340751E+03</totfact>
</mgrwt>
</event>
<event>
 4    1  0.5013722E-002  0.8519410E+03  0.7818608E-02  0.9487735E-01
         21   -1    0    0  503  502  0.00000000000E+00  0.00000000000E+00  0.63159642878E+03  0.63159642878E+03  0.00000000000E+00 0.  1.
         21   -1    0    0  501  503 -0.00000000000E+00 -0.00000000000E+00 -0.11755514807E+04  0.11755514807E+04  0.00000000000E+00 0. -1.
    9000007    1    1    2  501    0 -0.34610362038E+03  0.66784414295E+03 -0.40737129658E+03  0.94432774426E+03  0.40000000000E+03 0. -1.
   -9000007    1    1    2    0  502  0.34610362038E+03 -0.66784414295E+03 -0.13658375537E+03  0.86282016524E+03  0.40000000000E+03 0.  1.
<mgrwt>
<rscale>  2 0.85194103E+03</rscale>
<asrwt>0</asrwt>
<pdfrwt beam="1">  1       21 0.97168683E-01 0.85194103E+03</pdfrwt>
<pdfrwt beam="2">  1       21 0.18085407E+00 0.85194103E+03</pdfrwt>
<totfact> 0.10860257E+02</totfact>
</mgrwt>
</event>
<event>
 4    1  0.5013722E-002  0.4225638E+03  0.7818608E-02  0.1036235E+00
         21   -1    0    0  501  502  0.00000000000E+00  0.00000000000E+00  0.10417960971E+04  0.10417960971E+04  0.00000000000E+00 0. -1.
         21   -1    0    0  502  503 -0.00000000000E+00 -0.00000000000E+00 -0.19125746165E+03  0.19125746165E+03  0.00000000000E+00 0. -1.
    9000007    1    1    2  501    0  0.34075548451E+02 -0.13190526595E+03  0.62394446540E+03  0.75356939833E+03  0.40000000000E+03 0. -1.
   -9000007    1    1    2    0  503 -0.34075548451E+02  0.13190526595E+03  0.22659417005E+03  0.47948416041E+03  0.40000000000E+03 0. -1.
<mgrwt>
<rscale>  2 0.42256377E+03</rscale>
<asrwt>0</asrwt>
<pdfrwt beam="1">  1       21 0.16027632E+00 0.42256377E+03</pdfrwt>
<pdfrwt beam="2">  1       21 0.29424226E-01 0.42256377E+03</pdfrwt>
<totfact> 0.24026420E+03</totfact>
</mgrwt>
</event>
<event>
 4    1  0.5013722E-002  0.4086681E+03  0.7818608E-02  0.1040819E+00
         21   -1    0    0  501  502  0.00000000000E+00  0.00000000000E+00  0.25406991719E+04  0.25406991719E+04  0.00000000000E+00 0. -1.
         21   -1    0    0  502  503 -0.00000000000E+00 -0.00000000000E+00 -0.68420129297E+02  0.68420129297E+02  0.00000000000E+00 0. -1.
    9000007    1    1    2  501    0  0.43366136587E+02 -0.71616845193E+02  0.97764072696E+03  0.10596183206E+04  0.40000000000E+03 0. -1.
   -9000007    1    1    2    0  503 -0.43366136587E+02  0.71616845193E+02  0.14946383157E+04  0.15495009806E+04  0.40000000000E+03 0. -1.
<mgrwt>
<rscale>  2 0.40866807E+03</rscale>
<asrwt>0</asrwt>
<pdfrwt beam="1">  1       21 0.39087672E+00 0.40866807E+03</pdfrwt>
<pdfrwt beam="2">  1       21 0.10526176E-01 0.40866807E+03</pdfrwt>
<totfact> 0.58836368E+02</totfact>
</mgrwt>
</event>
<event>
 4    1  0.5013722E-002  0.4336466E+03  0.7818608E-02  0.1032714E+00
         21   -1    0    0  501  502  0.00000000000E+00  0.00000000000E+00  0.85053982654E+03  0.85053982654E+03  0.00000000000E+00 0.  1.
         21   -1    0    0  502  503 -0.00000000000E+00 -0.00000000000E+00 -0.25476322192E+03  0.25476322192E+03  0.00000000000E+00 0. -1.
    9000007    1    1    2  501    0 -0.79094919144E+01 -0.16729269363E+03  0.49879683681E+03  0.66094454368E+03  0.40000000000E+03 0.  1.
   -9000007    1    1    2    0  503  0.79094919144E+01  0.16729269363E+03  0.96979767808E+02  0.44435850478E+03  0.40000000000E+03 0. -1.
<mgrwt>
<rscale>  2 0.43364664E+03</rscale>
<asrwt>0</asrwt>
<pdfrwt beam="1">  1       21 0.13085228E+00 0.43364664E+03</pdfrwt>
<pdfrwt beam="2">  1       21 0.39194342E-01 0.43364664E+03</pdfrwt>
<totfact> 0.23134801E+03</totfact>
</mgrwt>
</event>
<event>
 4    1  0.5013722E-002  0.5361446E+03  0.7818608E-02  0.1004753E+00
         21   -1    0    0  503  502  0.00000000000E+00  0.00000000000E+00  0.42847054813E+04  0.42847054813E+04  0.00000000000E+00 0. -1.
         21   -1    0    0  501  503 -0.00000000000E+00 -0.00000000000E+00 -0.70257763991E+02  0.70257763991E+02  0.00000000000E+00 0. -1.
    9000007    1    1    2  501    0 -0.15698003204E+03  0.32063728236E+03  0.16446916629E+04  0.17298733085E+04  0.40000000000E+03 0. -1.
   -9000007    1    1    2    0  502  0.15698003204E+03 -0.32063728236E+03  0.25697560544E+04  0.26250899368E+04  0.40000000000E+03 0. -1.
<mgrwt>
<rscale>  2 0.53614457E+03</rscale>
<asrwt>0</asrwt>
<pdfrwt beam="1">  1       21 0.65918526E+00 0.53614457E+03</pdfrwt>
<pdfrwt beam="2">  1       21 0.10808890E-01 0.53614457E+03</pdfrwt>
<totfact> 0.55510544E+00</totfact>
</mgrwt>
</event>
<event>
 4    1  0.5013722E-002  0.4932490E+03  0.7818608E-02  0.1015556E+00
         21   -1    0    0  501  502  0.00000000000E+00  0.00000000000E+00  0.86786590574E+03  0.86786590574E+03  0.00000000000E+00 0.  1.
         21   -1    0    0  502  503 -0.00000000000E+00 -0.00000000000E+00 -0.31813747827E+03  0.31813747827E+03  0.00000000000E+00 0. -1.
    9000007    1    1    2  501    0 -0.27465870157E+03  0.88640592896E+02  0.47927301643E+03  0.68774790536E+03  0.40000000000E+03 0.  1.
   -9000007    1    1    2    0  503  0.27465870157E+03 -0.88640592896E+02  0.70455411040E+02  0.49825547865E+03  0.40000000000E+03 0. -1.
<mgrwt>
<rscale>  2 0.49324898E+03</rscale>
<asrwt>0</asrwt>
<pdfrwt beam="1">  1       21 0.13351783E+00 0.49324898E+03</pdfrwt>
<pdfrwt beam="2">  1       21 0.48944228E-01 0.49324898E+03</pdfrwt>
<totfact> 0.13490101E+03</totfact>
</mgrwt>
</event>
<event>
 4    1  0.5013722E-002  0.5239432E+03  0.7818608E-02  0.1007712E+00
         21   -1    0    0  501  502  0.00000000000E+00  0.00000000000E+00  0.18355749267E+03  0.18355749267E+03  0.00000000000E+00 0.  1.
         21   -1    0    0  502  503 -0.00000000000E+00 -0.00000000000E+00 -0.15812610011E+04  0.15812610011E+04  0.00000000000E+00 0. -1.
    9000007    1    1    2  501    0 -0.56036592457E+02 -0.33373094336E+03 -0.49339165834E+03  0.71968866238E+03  0.40000000000E+03 0. -1.
   -9000007    1    1    2    0  503  0.56036592457E+02  0.33373094336E+03 -0.90431185013E+03  0.10451298314E+04  0.40000000000E+03 0. -1.
<mgrwt>
<rscale>  2 0.52394317E+03</rscale>
<asrwt>0</asrwt>
<pdfrwt beam="1">  1       21 0.28239614E-01 0.52394317E+03</pdfrwt>
<pdfrwt beam="2">  1       21 0.24327092E+00 0.52394317E+03</pdfrwt>
<totfact> 0.68995735E+02</totfact>
</mgrwt>
</event>
<event>
 4    1  0.5013722E-002  0.4064012E+03  0.7818608E-02  0.1041585E+00
         21   -1    0    0  501  502  0.00000000000E+00  0.00000000000E+00  0.32121936894E+03  0.32121936894E+03  0.00000000000E+00 0.  1.
         21   -1    0    0  502  503 -0.00000000000E+00 -0.00000000000E+00 -0.18070374134E+04  0.18070374134E+04  0.00000000000E+00 0.  1.
    9000007    1    1    2  501    0  0.54244955083E+02 -0.47110776188E+02  0.15718349420E+03  0.43573913209E+03  0.40000000000E+03 0.  1.
   -9000007    1    1    2    0  503 -0.54244955083E+02  0.47110776188E+02 -0.16430015387E+04  0.16925176503E+04  0.40000000000E+03 0.  1.
<mgrwt>
<rscale>  2 0.40640121E+03</rscale>
<asrwt>0</asrwt>
<pdfrwt beam="1">  1       21 0.49418363E-01 0.40640121E+03</pdfrwt>
<pdfrwt beam="2">  1       21 0.27800576E+00 0.40640121E+03</pdfrwt>
<totfact> 0.14376065E+02</totfact>
</mgrwt>
</event>
<event>
 4    1  0.5013722E-002  0.4642846E+03  0.7818608E-02  0.1023546E+00
         21   -1    0    0  503  502  0.00000000000E+00  0.00000000000E+00  0.86932524974E+03  0.86932524974E+03  0.00000000000E+00 0.  1.
         21   -1    0    0  501  503 -0.00000000000E+00 -0.00000000000E+00 -0.24799771287E+03  0.24799771287E+03  0.00000000000E+00 0.  1.
    9000007    1    1    2  501    0 -0.18065109073E+03 -0.15141138868E+03  0.31730297934E+03  0.56235345283E+03  0.40000000000E+03 0. -1.
   -9000007    1    1    2    0  502  0.18065109073E+03  0.15141138868E+03  0.30402455752E+03  0.55496950978E+03  0.40000000000E+03 0. -1.
<mgrwt>
<rscale>  2 0.46428464E+03</rscale>
<asrwt>0</asrwt>
<pdfrwt beam="1">  1       21 0.13374235E+00 0.46428464E+03</pdfrwt>
<pdfrwt beam="2">  1       21 0.38153495E-01 0.46428464E+03</pdfrwt>
<totfact> 0.22825418E+03</totfact>
</mgrwt>
</event>
<event>
 4    1  0.5013722E-002  0.5368592E+03  0.7818608E-02  0.1004582E+00
         21   -1    0    0  501  502  0.00000000000E+00  0.00000000000E+00  0.17227490671E+04  0.17227490671E+04  0.00000000000E+00 0.  1.
         21   -1    0    0  502  503 -0.00000000000E+00 -0.00000000000E+00 -0.37633574464E+03  0.37633574464E+03  0.00000000000E+00 0.  1.
    9000007    1    1    2  501    0 -0.16626052959E+03  0.31713605961E+03  0.14554130751E+04  0.15512720791E+04  0.40000000000E+03 0.  1.
   -9000007    1    1    2    0  503  0.16626052959E+03 -0.31713605961E+03 -0.10899975268E+03  0.54781273268E+03  0.40000000000E+03 0.  1.
<mgrwt>
<rscale>  2 0.53685924E+03</rscale>
<asrwt>0</asrwt>
<pdfrwt beam="1">  1       21 0.26503831E+00 0.53685924E+03</pdfrwt>
<pdfrwt beam="2">  1       21 0.57897808E-01 0.53685924E+03</pdfrwt>
<totfact> 0.11355516E+02</totfact>
</mgrwt>
</event>
<event>
 4    1  0.5013722E-002  0.6118475E+03  0.7818608E-02  0.9881127E-01
         21   -1    0    0  503  502  0.00000000000E+00  0.00000000000E+00  0.30633031293E+03  0.30633031293E+03  0.00000000000E+00 0. -1.
         21   -1    0    0  501  503 -0.00000000000E+00 -0.00000000000E+00 -0.12760762713E+04  0.12760762713E+04  0.00000000000E+00 0. -1.
    9000007    1    1    2  501    0 -0.43191237015E+03 -0.16676039921E+03 -0.64764085903E+03  0.89095230429E+03  0.40000000000E+03 0. -1.
   -9000007    1    1    2    0  502  0.43191237015E+03  0.16676039921E+03 -0.32210509935E+03  0.69145427995E+03  0.40000000000E+03 0. -1.
<mgrwt>
<rscale>  2 0.61184747E+03</rscale>
<asrwt>0</asrwt>
<pdfrwt beam="1">  1       21 0.47127741E-01 0.61184747E+03</pdfrwt>
<pdfrwt beam="2">  1       21 0.19631942E+00 0.61184747E+03</pdfrwt>
<totfact> 0.47099574E+02</totfact>
</mgrwt>
</event>
<event>
 4    1  0.5013722E-002  0.5102003E+03  0.7818608E-02  0.1011150E+00
         21   -1    0    0  503  502  0.00000000000E+00  0.00000000000E+00  0.14258727521E+04  0.14258727521E+04  0.00000000000E+00 0. -1.
         21   -1    0    0  501  503 -0.00000000000E+00 -0.00000000000E+00 -0.19496166895E+03  0.19496166895E+03  0.00000000000E+00 0. -1.
    9000007    1    1    2  501    0 -0.30695852381E+03  0.77979728002E+02  0.81986943283E+03  0.96565535271E+03  0.40000000000E+03 0. -1.
   -9000007    1    1    2    0  502  0.30695852381E+03 -0.77979728002E+02  0.41104165034E+03  0.65517906837E+03  0.40000000000E+03 0. -1.
<mgrwt>
<rscale>  2 0.51020033E+03</rscale>
<asrwt>0</asrwt>
<pdfrwt beam="1">  1       21 0.21936503E+00 0.51020033E+03</pdfrwt>
<pdfrwt beam="2">  1       21 0.29994104E-01 0.51020033E+03</pdfrwt>
<totfact> 0.87198474E+02</totfact>
</mgrwt>
</event>
<event>
 4    1  0.5013722E-002  0.7882408E+03  0.7818608E-02  0.9577196E-01
         21   -1    0    0  503  502  0.00000000000E+00  0.00000000000E+00  0.32187382405E+03  0.32187382405E+03  0.00000000000E+00 0.  1.
         21   -1    0    0  501  503 -0.00000000000E+00 -0.00000000000E+00 -0.21338800918E+04  0.21338800918E+04  0.00000000000E+00 0. -1.
    9000007    1    1    2  501    0  0.67912216350E+03  0.10803735856E+02 -0.12852328811E+04  0.15076959880E+04  0.40000000000E+03 0. -1.
   -9000007    1    1    2    0  502 -0.67912216350E+03 -0.10803735856E+02 -0.52677338670E+03  0.94805792787E+03  0.40000000000E+03 0.  1.
<mgrwt>
<rscale>  2 0.78824085E+03</rscale>
<asrwt>0</asrwt>
<pdfrwt beam="1">  1       21 0.49519052E-01 0.78824085E+03</pdfrwt>
<pdfrwt beam="2">  1       21 0.32828923E+00 0.78824085E+03</pdfrwt>
<totfact> 0.58619860E+01</totfact>
</mgrwt>
</event>
<event>
 4    1  0.5013722E-002  0.4645245E+03  0.7818608E-02  0.1023477E+00
         21   -1    0    0  501  502  0.00000000000E+00  0.00000000000E+00  0.37306990995E+03  0.37306990995E+03  0.00000000000E+00 0.  1.
         21   -1    0    0  502  503 -0.00000000000E+00 -0.00000000000E+00 -0.65810794059E+03  0.65810794059E+03  0.00000000000E+00 0. -1.
    9000007    1    1    2  501    0  0.23614122327E+03 -0.45118167603E+01 -0.32195527409E+03  0.56518866968E+03  0.40000000000E+03 0. -1.
   -9000007    1    1    2    0  503 -0.23614122327E+03  0.45118167603E+01  0.36917243450E+02  0.46598918086E+03  0.40000000000E+03 0. -1.
<mgrwt>
<rscale>  2 0.46452452E+03</rscale>
<asrwt>0</asrwt>
<pdfrwt beam="1">  1       21 0.57395371E-01 0.46452452E+03</pdfrwt>
<pdfrwt beam="2">  1       21 0.10124738E+00 0.46452452E+03</pdfrwt>
<totfact> 0.19471858E+03</totfact>
</mgrwt>
</event>
<event>
 4    1  0.5013722E-002  0.4214491E+03  0.7818608E-02  0.1036596E+00
         21   -1    0    0  501  502  0.00000000000E+00  0.00000000000E+00  0.25335243463E+04  0.25335243463E+04  0.00000000000E+00 0. -1.
         21   -1    0    0  502  503 -0.00000000000E+00 -0.00000000000E+00 -0.14006877566E+03  0.14006877566E+03  0.00000000000E+00 0. -1.
    9000007    1    1    2  501    0 -0.10724454867E+03 -0.78217219533E+02  0.21414914547E+04  0.21825684358E+04  0.40000000000E+03 0. -1.
   -9000007    1    1    2    0  503  0.10724454867E+03  0.78217219533E+02  0.25196411598E+03  0.49102468613E+03  0.40000000000E+03 0. -1.
<mgrwt>
<rscale>  2 0.42144908E+03</rscale>
<asrwt>0</asrwt>
<pdfrwt beam="1">  1       21 0.38977294E+00 0.42144908E+03</pdfrwt>
<pdfrwt beam="2">  1       21 0.21549044E-01 0.42144908E+03</pdfrwt>
<totfact> 0.15695843E+02</totfact>
</mgrwt>
</event>
<event>
 4    1  0.5013722E-002  0.4365403E+03  0.7818608E-02  0.1031814E+00
         21   -1    0    0  503  502  0.00000000000E+00  0.00000000000E+00  0.35909780396E+03  0.35909780396E+03  0.00000000000E+00 0.  1.
         21   -1    0    0  501  503 -0.00000000000E+00 -0.00000000000E+00 -0.75364851271E+03  0.75364851271E+03  0.00000000000E+00 0.  1.
    9000007    1    1    2  501    0 -0.28799652472E+02  0.17244717076E+03 -0.49989676599E+03  0.66367478733E+03  0.40000000000E+03 0.  1.
   -9000007    1    1    2    0  502  0.28799652472E+02 -0.17244717076E+03  0.10534605725E+03  0.44907152934E+03  0.40000000000E+03 0.  1.
<mgrwt>
<rscale>  2 0.43654032E+03</rscale>
<asrwt>0</asrwt>
<pdfrwt beam="1">  1       21 0.55245817E-01 0.43654032E+03</pdfrwt>
<pdfrwt beam="2">  1       21 0.11594592E+00 0.43654032E+03</pdfrwt>
<totfact> 0.15287874E+03</totfact>
</mgrwt>
</event>
<event>
 4    1  0.5013722E-002  0.4425450E+03  0.7818608E-02  0.1029969E+00
         21   -1    0    0  501  502  0.00000000000E+00  0.00000000000E+00  0.24676878472E+03  0.24676878472E+03  0.00000000000E+00 0.  1.
         21   -1    0    0  502  503 -0.00000000000E+00 -0.00000000000E+00 -0.19731454281E+04  0.19731454281E+04  0.00000000000E+00 0. -1.
    9000007    1    1    2  501    0  0.12570643724E+03 -0.14157679664E+03 -0.50125825820E+01  0.44257341051E+03  0.40000000000E+03 0.  1.
   -9000007    1    1    2    0  503 -0.12570643724E+03  0.14157679664E+03 -0.17213640608E+04  0.17773408023E+04  0.40000000000E+03 0. -1.
<mgrwt>
<rscale>  2 0.44254502E+03</rscale>
<asrwt>0</asrwt>
<pdfrwt beam="1">  1       21 0.37964429E-01 0.44254502E+03</pdfrwt>
<pdfrwt beam="2">  1       21 0.30356083E+00 0.44254502E+03</pdfrwt>
<totfact> 0.17075470E+02</totfact>
</mgrwt>
</event>
<event>
 4    1  0.5013722E-002  0.6603108E+03  0.7818608E-02  0.9787622E-01
         21   -1    0    0  503  502  0.00000000000E+00  0.00000000000E+00  0.83360981452E+03  0.83360981452E+03  0.00000000000E+00 0.  1.
         21   -1    0    0  501  503 -0.00000000000E+00 -0.00000000000E+00 -0.94937640872E+03  0.94937640872E+03  0.00000000000E+00 0.  1.
    9000007    1    1    2  501    0  0.51166235019E+03 -0.11921428604E+03 -0.65529746430E+03  0.93028230839E+03  0.40000000000E+03 0.  1.
   -9000007    1    1    2    0  502 -0.51166235019E+03  0.11921428604E+03  0.53953087010E+03  0.85270391484E+03  0.40000000000E+03 0.  1.
<mgrwt>
<rscale>  2 0.66031084E+03</rscale>
<asrwt>0</asrwt>
<pdfrwt beam="1">  1       21 0.12824766E+00 0.66031084E+03</pdfrwt>
<pdfrwt beam="2">  1       21 0.14605791E+00 0.66031084E+03</pdfrwt>
<totfact> 0.10518929E+02</totfact>
</mgrwt>
</event>
<event>
 4    1  0.5013722E-002  0.4189324E+03  0.7818608E-02  0.1037414E+00
         21   -1    0    0  501  502  0.00000000000E+00  0.00000000000E+00  0.20980534062E+04  0.20980534062E+04  0.00000000000E+00 0.  1.
         21   -1    0    0  502  503 -0.00000000000E+00 -0.00000000000E+00 -0.84440052557E+02  0.84440052557E+02  0.00000000000E+00 0.  1.
    9000007    1    1    2  501    0  0.11443484116E+03  0.49081845170E+02  0.11122913164E+04  0.11885690274E+04  0.40000000000E+03 0.  1.
   -9000007    1    1    2    0  503 -0.11443484116E+03 -0.49081845170E+02  0.90132203727E+03  0.99392443136E+03  0.40000000000E+03 0.  1.
<mgrwt>
<rscale>  2 0.41893241E+03</rscale>
<asrwt>0</asrwt>
<pdfrwt beam="1">  1       21 0.32277741E+00 0.41893241E+03</pdfrwt>
<pdfrwt beam="2">  1       21 0.12990779E-01 0.41893241E+03</pdfrwt>
<totfact> 0.10478853E+03</totfact>
</mgrwt>
</event>
<event>
 4    1  0.5013722E-002  0.4020431E+03  0.7818608E-02  0.1043075E+00
         21   -1    0    0  501  502  0.00000000000E+00  0.00000000000E+00  0.80007532645E+03  0.80007532645E+03  0.00000000000E+00 0.  1.
         21   -1    0    0  502  503 -0.00000000000E+00 -0.00000000000E+00 -0.28107472099E+03  0.28107472099E+03  0.00000000000E+00 0.  1.
    9000007    1    1    2  501    0  0.34966292734E+02  0.20396801515E+02  0.54617106137E+03  0.67818986974E+03  0.40000000000E+03 0.  1.
   -9000007    1    1    2    0  503 -0.34966292734E+02 -0.20396801515E+02 -0.27170455909E+02  0.40296017770E+03  0.40000000000E+03 0.  1.
<mgrwt>
<rscale>  2 0.40204312E+03</rscale>
<asrwt>0</asrwt>
<pdfrwt beam="1">  1       21 0.12308851E+00 0.40204312E+03</pdfrwt>
<pdfrwt beam="2">  1       21 0.43242265E-01 0.40204312E+03</pdfrwt>
<totfact> 0.22393475E+03</totfact>
</mgrwt>
</event>
<event>
 4    1  0.5013722E-002  0.4915982E+03  0.7818608E-02  0.1015995E+00
         21   -1    0    0  501  502  0.00000000000E+00  0.00000000000E+00  0.16608065636E+03  0.16608065636E+03  0.00000000000E+00 0.  1.
         21   -1    0    0  502  503 -0.00000000000E+00 -0.00000000000E+00 -0.21143576012E+04  0.21143576012E+04  0.00000000000E+00 0. -1.
    9000007    1    1    2  501    0 -0.15729240106E+03  0.23859572232E+03 -0.16108123712E+04  0.16841571522E+04  0.40000000000E+03 0. -1.
   -9000007    1    1    2    0  503  0.15729240106E+03 -0.23859572232E+03 -0.33746457368E+03  0.59628110537E+03  0.40000000000E+03 0.  1.
<mgrwt>
<rscale>  2 0.49159823E+03</rscale>
<asrwt>0</asrwt>
<pdfrwt beam="1">  1       21 0.25550871E-01 0.49159823E+03</pdfrwt>
<pdfrwt beam="2">  1       21 0.32528577E+00 0.49159823E+03</pdfrwt>
<totfact> 0.27034428E+02</totfact>
</mgrwt>
</event>
<event>
 4    1  0.5013722E-002  0.4522537E+03  0.7818608E-02  0.1027052E+00
         21   -1    0    0  503  502  0.00000000000E+00  0.00000000000E+00  0.15836535083E+03  0.15836535083E+03  0.00000000000E+00 0. -1.
         21   -1    0    0  501  503 -0.00000000000E+00 -0.00000000000E+00 -0.27089072852E+04  0.27089072852E+04  0.00000000000E+00 0.  1.
    9000007    1    1    2  501    0 -0.37678926729E+02  0.20763847709E+03 -0.23122854353E+04  0.23560979125E+04  0.40000000000E+03 0.  1.
   -9000007    1    1    2    0  502  0.37678926729E+02 -0.20763847709E+03 -0.23825649905E+03  0.51117472358E+03  0.40000000000E+03 0. -1.
<mgrwt>
<rscale>  2 0.45225373E+03</rscale>
<asrwt>0</asrwt>
<pdfrwt beam="1">  1       21 0.24363900E-01 0.45225373E+03</pdfrwt>
<pdfrwt beam="2">  1       21 0.41675497E+00 0.45225373E+03</pdfrwt>
<totfact> 0.81265135E+01</totfact>
</mgrwt>
</event>
<event>
 4    1  0.5013722E-002  0.6750373E+03  0.7818608E-02  0.9760900E-01
         21   -1    0    0  501  502  0.00000000000E+00  0.00000000000E+00  0.44257691990E+03  0.44257691990E+03  0.00000000000E+00 0. -1.
         21   -1    0    0  502  503 -0.00000000000E+00 -0.00000000000E+00 -0.10786061335E+04  0.10786061335E+04  0.00000000000E+00 0.  1.
    9000007    1    1    2  501    0 -0.49558911664E+03  0.22375616548E+03 -0.15588463539E+03  0.69280257915E+03  0.40000000000E+03 0. -1.
   -9000007    1    1    2    0  503  0.49558911664E+03 -0.22375616548E+03 -0.48014457818E+03  0.82838047423E+03  0.40000000000E+03 0.  1.
<mgrwt>
<rscale>  2 0.67503733E+03</rscale>
<asrwt>0</asrwt>
<pdfrwt beam="1">  1       21 0.68088758E-01 0.67503733E+03</pdfrwt>
<pdfrwt beam="2">  1       21 0.16593940E+00 0.67503733E+03</pdfrwt>
<totfact> 0.33946064E+02</totfact>
</mgrwt>
</event>
<event>
 4    1  0.5013722E-002  0.4057105E+03  0.7818608E-02  0.1041820E+00
         21   -1    0    0  501  502  0.00000000000E+00  0.00000000000E+00  0.58592674724E+03  0.58592674724E+03  0.00000000000E+00 0. -1.
         21   -1    0    0  502  503 -0.00000000000E+00 -0.00000000000E+00 -0.36067155322E+03  0.36067155322E+03  0.00000000000E+00 0. -1.
    9000007    1    1    2  501    0  0.20265434538E+02  0.64732849881E+02 -0.10992762723E+03  0.42033928310E+03  0.40000000000E+03 0. -1.
   -9000007    1    1    2    0  503 -0.20265434538E+02 -0.64732849881E+02  0.33518282125E+03  0.52625901736E+03  0.40000000000E+03 0. -1.
<mgrwt>
<rscale>  2 0.40571052E+03</rscale>
<asrwt>0</asrwt>
<pdfrwt beam="1">  1       21 0.90142577E-01 0.40571052E+03</pdfrwt>
<pdfrwt beam="2">  1       21 0.55487931E-01 0.40571052E+03</pdfrwt>
<totfact> 0.28314480E+03</totfact>
</mgrwt>
</event>
<event>
 4    1  0.5013722E-002  0.4302224E+03  0.7818608E-02  0.1033790E+00
         21   -1    0    0  503  502  0.00000000000E+00  0.00000000000E+00  0.22390391730E+03  0.22390391730E+03  0.00000000000E+00 0. -1.
         21   -1    0    0  501  503 -0.00000000000E+00 -0.00000000000E+00 -0.10821649048E+04  0.10821649048E+04  0.00000000000E+00 0. -1.
    9000007    1    1    2  501    0  0.14288211917E+03 -0.68381689812E+02 -0.74644722798E+03  0.86155372417E+03  0.40000000000E+03 0. -1.
   -9000007    1    1    2    0  502 -0.14288211917E+03  0.68381689812E+02 -0.11181375954E+03  0.44451509795E+03  0.40000000000E+03 0. -1.
<mgrwt>
<rscale>  2 0.43022245E+03</rscale>
<asrwt>0</asrwt>
<pdfrwt beam="1">  1       21 0.34446757E-01 0.43022245E+03</pdfrwt>
<pdfrwt beam="2">  1       21 0.16648691E+00 0.43022245E+03</pdfrwt>
<totfact> 0.15711940E+03</totfact>
</mgrwt>
</event>
<event>
 4    1  0.5013722E-002  0.4223312E+03  0.7818608E-02  0.1036310E+00
         21   -1    0    0  501  502  0.00000000000E+00  0.00000000000E+00  0.33041512127E+03  0.33041512127E+03  0.00000000000E+00 0. -1.
         21   -1    0    0  502  503 -0.00000000000E+00 -0.00000000000E+00 -0.62436200935E+03  0.62436200935E+03  0.00000000000E+00 0. -1.
    9000007    1    1    2  501    0 -0.10288494258E+03  0.88195051368E+02  0.28696688582E+02  0.42330506544E+03  0.40000000000E+03 0. -1.
   -9000007    1    1    2    0  503  0.10288494258E+03 -0.88195051368E+02 -0.32264357667E+03  0.53147206517E+03  0.40000000000E+03 0. -1.
<mgrwt>
<rscale>  2 0.42233124E+03</rscale>
<asrwt>0</asrwt>
<pdfrwt beam="1">  1       21 0.50833096E-01 0.42233124E+03</pdfrwt>
<pdfrwt beam="2">  1       21 0.96055692E-01 0.42233124E+03</pdfrwt>
<totfact> 0.29177273E+03</totfact>
</mgrwt>
</event>
<event>
 4    1  0.5013722E-002  0.4443064E+03  0.7818608E-02  0.1029434E+00
         21   -1    0    0  501  502  0.00000000000E+00  0.00000000000E+00  0.65861171375E+03  0.65861171375E+03  0.00000000000E+00 0.  1.
         21   -1    0    0  502  503 -0.00000000000E+00 -0.00000000000E+00 -0.36164458004E+03  0.36164458004E+03  0.00000000000E+00 0.  1.
    9000007    1    1    2  501    0  0.42794218516E+02  0.18861813078E+03  0.35955122731E+03  0.57156384548E+03  0.40000000000E+03 0.  1.
   -9000007    1    1    2    0  503 -0.42794218516E+02 -0.18861813078E+03 -0.62584093595E+02  0.44869244831E+03  0.40000000000E+03 0.  1.
<mgrwt>
<rscale>  2 0.44430636E+03</rscale>
<asrwt>0</asrwt>
<pdfrwt beam="1">  1       21 0.10132488E+00 0.44430636E+03</pdfrwt>
<pdfrwt beam="2">  1       21 0.55637628E-01 0.44430636E+03</pdfrwt>
<totfact> 0.20949673E+03</totfact>
</mgrwt>
</event>
<event>
 4    1  0.5013722E-002  0.4391348E+03  0.7818608E-02  0.1031013E+00
         21   -1    0    0  501  502  0.00000000000E+00  0.00000000000E+00  0.14760601190E+04  0.14760601190E+04  0.00000000000E+00 0.  1.
         21   -1    0    0  502  503 -0.00000000000E+00 -0.00000000000E+00 -0.18528239262E+03  0.18528239262E+03  0.00000000000E+00 0. -1.
    9000007    1    1    2  501    0 -0.65786791023E+02  0.16885340425E+03  0.10964739169E+04  0.11811411535E+04  0.40000000000E+03 0.  1.
   -9000007    1    1    2    0  503  0.65786791023E+02 -0.16885340425E+03  0.19430380952E+03  0.48020135817E+03  0.40000000000E+03 0. -1.
<mgrwt>
<rscale>  2 0.43913480E+03</rscale>
<asrwt>0</asrwt>
<pdfrwt beam="1">  1       21 0.22708617E+00 0.43913480E+03</pdfrwt>
<pdfrwt beam="2">  1       21 0.28504984E-01 0.43913480E+03</pdfrwt>
<totfact> 0.88979984E+02</totfact>
</mgrwt>
</event>
<event>
 4    1  0.5013722E-002  0.4435278E+03  0.7818608E-02  0.1029670E+00
         21   -1    0    0  503  502  0.00000000000E+00  0.00000000000E+00  0.33677286238E+03  0.33677286238E+03  0.00000000000E+00 0. -1.
         21   -1    0    0  501  503 -0.00000000000E+00 -0.00000000000E+00 -0.61140231178E+03  0.61140231178E+03  0.00000000000E+00 0. -1.
    9000007    1    1    2  501    0  0.18776161688E+03  0.38242600224E+02 -0.37174563339E+02  0.44508299159E+03  0.40000000000E+03 0. -1.
   -9000007    1    1    2    0  502 -0.18776161688E+03 -0.38242600224E+02 -0.23745488606E+03  0.50309218257E+03  0.40000000000E+03 0. -1.
<mgrwt>
<rscale>  2 0.44352781E+03</rscale>
<asrwt>0</asrwt>
<pdfrwt beam="1">  1       21 0.51811210E-01 0.44352781E+03</pdfrwt>
<pdfrwt beam="2">  1       21 0.94061894E-01 0.44352781E+03</pdfrwt>
<totfact> 0.29226621E+03</totfact>
</mgrwt>
</event>
<event>
 4    1  0.5013722E-002  0.4209606E+03  0.7818608E-02  0.1036754E+00
         21   -1    0    0  503  502  0.00000000000E+00  0.00000000000E+00  0.15959769871E+04  0.15959769871E+04  0.00000000000E+00 0.  1.
         21   -1    0    0  501  503 -0.00000000000E+00 -0.00000000000E+00 -0.11126145625E+03  0.11126145625E+03  0.00000000000E+00 0. -1.
    9000007    1    1    2  501    0  0.10225315723E+03  0.82171425887E+02  0.70376948422E+03  0.82006056991E+03  0.40000000000E+03 0. -1.
   -9000007    1    1    2    0  502 -0.10225315723E+03 -0.82171425887E+02  0.78094604664E+03  0.88717787346E+03  0.40000000000E+03 0. -1.
<mgrwt>
<rscale>  2 0.42096063E+03</rscale>
<asrwt>0</asrwt>
<pdfrwt beam="1">  1       21 0.24553490E+00 0.42096063E+03</pdfrwt>
<pdfrwt beam="2">  1       21 0.17117148E-01 0.42096063E+03</pdfrwt>
<totfact> 0.18356875E+03</totfact>
</mgrwt>
</event>
<event>
 4    1  0.5013722E-002  0.4526427E+03  0.7818608E-02  0.1026937E+00
         21   -1    0    0  503  502  0.00000000000E+00  0.00000000000E+00  0.11243066915E+04  0.11243066915E+04  0.00000000000E+00 0.  1.
         21   -1    0    0  501  503 -0.00000000000E+00 -0.00000000000E+00 -0.21994180030E+03  0.21994180030E+03  0.00000000000E+00 0.  1.
    9000007    1    1    2  501    0  0.18011942555E+03  0.11154546400E+03  0.17387873584E+03  0.48489092874E+03  0.40000000000E+03 0.  1.
   -9000007    1    1    2    0  502 -0.18011942555E+03 -0.11154546400E+03  0.73048615536E+03  0.85935756305E+03  0.40000000000E+03 0.  1.
<mgrwt>
<rscale>  2 0.45264268E+03</rscale>
<asrwt>0</asrwt>
<pdfrwt beam="1">  1       21 0.17297026E+00 0.45264268E+03</pdfrwt>
<pdfrwt beam="2">  1       21 0.33837201E-01 0.45264268E+03</pdfrwt>
<totfact> 0.14472045E+03</totfact>
</mgrwt>
</event>
<event>
 4    1  0.5013722E-002  0.4169111E+03  0.7818608E-02  0.1038076E+00
         21   -1    0    0  501  502  0.00000000000E+00  0.00000000000E+00  0.38696068541E+03  0.38696068541E+03  0.00000000000E+00 0. -1.
         21   -1    0    0  502  503 -0.00000000000E+00 -0.00000000000E+00 -0.14164705225E+04  0.14164705225E+04  0.00000000000E+00 0. -1.
    9000007    1    1    2  501    0 -0.40214880838E+02  0.11044301583E+03  0.23039617195E+03  0.47633737250E+03  0.40000000000E+03 0. -1.
   -9000007    1    1    2    0  503  0.40214880838E+02 -0.11044301583E+03 -0.12599060090E+04  0.13270938354E+04  0.40000000000E+03 0. -1.
<mgrwt>
<rscale>  2 0.41691114E+03</rscale>
<asrwt>0</asrwt>
<pdfrwt beam="1">  1       21 0.59532413E-01 0.41691114E+03</pdfrwt>
<pdfrwt beam="2">  1       21 0.21791854E+00 0.41691114E+03</pdfrwt>
<totfact> 0.22414790E+02</totfact>
</mgrwt>
</event>
<event>
 4    1  0.5013722E-002  0.5455167E+03  0.7818608E-02  0.1002537E+00
         21   -1    0    0  501  502  0.00000000000E+00  0.00000000000E+00  0.33280788022E+03  0.33280788022E+03  0.00000000000E+00 0. -1.
         21   -1    0    0  502  503 -0.00000000000E+00 -0.00000000000E+00 -0.89733877314E+03  0.89733877314E+03  0.00000000000E+00 0. -1.
    9000007    1    1    2  501    0 -0.29929877110E+03 -0.21910886048E+03 -0.24574303675E+03  0.59831270021E+03  0.40000000000E+03 0. -1.
   -9000007    1    1    2    0  503  0.29929877110E+03  0.21910886048E+03 -0.31878785616E+03  0.63183395315E+03  0.40000000000E+03 0. -1.
<mgrwt>
<rscale>  2 0.54551668E+03</rscale>
<asrwt>0</asrwt>
<pdfrwt beam="1">  1       21 0.51201213E-01 0.54551668E+03</pdfrwt>
<pdfrwt beam="2">  1       21 0.13805212E+00 0.54551668E+03</pdfrwt>
<totfact> 0.11014923E+03</totfact>
</mgrwt>
</event>
<event>
 4    1  0.5013722E-002  0.4123257E+03  0.7818608E-02  0.1039593E+00
         21   -1    0    0  503  502  0.00000000000E+00  0.00000000000E+00  0.12773136534E+04  0.12773136534E+04  0.00000000000E+00 0.  1.
         21   -1    0    0  501  503 -0.00000000000E+00 -0.00000000000E+00 -0.15357204570E+03  0.15357204570E+03  0.00000000000E+00 0.  1.
    9000007    1    1    2  501    0 -0.53465055886E+02 -0.84581147324E+02  0.30066514531E+03  0.51030580272E+03  0.40000000000E+03 0.  1.
   -9000007    1    1    2    0  502  0.53465055886E+02  0.84581147324E+02  0.82307646242E+03  0.92057989641E+03  0.40000000000E+03 0.  1.
<mgrwt>
<rscale>  2 0.41232570E+03</rscale>
<asrwt>0</asrwt>
<pdfrwt beam="1">  1       21 0.19650979E+00 0.41232570E+03</pdfrwt>
<pdfrwt beam="2">  1       21 0.23626469E-01 0.41232570E+03</pdfrwt>
<totfact> 0.20529995E+03</totfact>
</mgrwt>
</event>
<event>
 4    1  0.5013722E-002  0.4326204E+03  0.7818608E-02  0.1033035E+00
         21   -1    0    0  503  502  0.00000000000E+00  0.00000000000E+00  0.13012965003E+04  0.13012965003E+04  0.00000000000E+00 0. -1.
         21   -1    0    0  501  503 -0.00000000000E+00 -0.00000000000E+00 -0.15200435840E+03  0.15200435840E+03  0.00000000000E+00 0.  1.
    9000007    1    1    2  501    0 -0.44094295550E+02  0.15879572120E+03  0.40609629258E+03  0.59335873367E+03  0.40000000000E+03 0.  1.
   -9000007    1    1    2    0  502  0.44094295550E+02 -0.15879572120E+03  0.74319584936E+03  0.85994212507E+03  0.40000000000E+03 0. -1.
<mgrwt>
<rscale>  2 0.43262037E+03</rscale>
<asrwt>0</asrwt>
<pdfrwt beam="1">  1       21 0.20019945E+00 0.43262037E+03</pdfrwt>
<pdfrwt beam="2">  1       21 0.23385287E-01 0.43262037E+03</pdfrwt>
<totfact> 0.19604973E+03</totfact>
</mgrwt>
</event>
<event>
 4    1  0.5013722E-002  0.6719452E+03  0.7818608E-02  0.9766450E-01
         21   -1    0    0  503  502  0.00000000000E+00  0.00000000000E+00  0.11491180296E+04  0.11491180296E+04  0.00000000000E+00 0. -1.
         21   -1    0    0  501  503 -0.00000000000E+00 -0.00000000000E+00 -0.54701145020E+03  0.54701145020E+03  0.00000000000E+00 0. -1.
    9000007    1    1    2  501    0  0.12743094395E+03 -0.52466344845E+03 -0.14905953771E+03  0.68827983074E+03  0.40000000000E+03 0. -1.
   -9000007    1    1    2    0  502 -0.12743094395E+03  0.52466344845E+03  0.75116611709E+03  0.10078496490E+04  0.40000000000E+03 0. -1.
<mgrwt>
<rscale>  2 0.67194522E+03</rscale>
<asrwt>0</asrwt>
<pdfrwt beam="1">  1       21 0.17678739E+00 0.67194522E+03</pdfrwt>
<pdfrwt beam="2">  1       21 0.84155608E-01 0.67194522E+03</pdfrwt>
<totfact> 0.17345382E+02</totfact>
</mgrwt>
</event>
<event>
 4    1  0.5013722E-002  0.5054831E+03  0.7818608E-02  0.1012358E+00
         21   -1    0    0  503  502  0.00000000000E+00  0.00000000000E+00  0.65145849955E+03  0.65145849955E+03  0.00000000000E+00 0. -1.
         21   -1    0    0  501  503 -0.00000000000E+00 -0.00000000000E+00 -0.52162834210E+03  0.52162834210E+03  0.00000000000E+00 0.  1.
    9000007    1    1    2  501    0 -0.23755389701E+02  0.30813768919E+03 -0.22723472890E+03  0.55421004688E+03  0.40000000000E+03 0.  1.
   -9000007    1    1    2    0  502  0.23755389701E+02 -0.30813768919E+03  0.35706488635E+03  0.61887679477E+03  0.40000000000E+03 0. -1.
<mgrwt>
<rscale>  2 0.50548309E+03</rscale>
<asrwt>0</asrwt>
<pdfrwt beam="1">  1       21 0.10022438E+00 0.50548309E+03</pdfrwt>
<pdfrwt beam="2">  1       21 0.80250515E-01 0.50548309E+03</pdfrwt>
<totfact> 0.92658373E+02</totfact>
</mgrwt>
</event>
<event>
 4    1  0.5013722E-002  0.7296113E+03  0.7818608E-02  0.9667891E-01
         21   -1    0    0  501  502  0.00000000000E+00  0.00000000000E+00  0.62584691459E+03  0.62584691459E+03  0.00000000000E+00 0. -1.
         21   -1    0    0  502  503 -0.00000000000E+00 -0.00000000000E+00 -0.85249452711E+03  0.85249452711E+03  0.00000000000E+00 0.  1.
    9000007    1    1    2  501    0 -0.24490135819E+03  0.55888813224E+03 -0.14835660538E+03  0.74454167242E+03  0.40000000000E+03 0.  1.
   -9000007    1    1    2    0  503  0.24490135819E+03 -0.55888813224E+03 -0.78291007134E+02  0.73379976928E+03  0.40000000000E+03 0. -1.
<mgrwt>
<rscale>  2 0.72961128E+03</rscale>
<asrwt>0</asrwt>
<pdfrwt beam="1">  1       21 0.96284141E-01 0.72961128E+03</pdfrwt>
<pdfrwt beam="2">  1       21 0.13115300E+00 0.72961128E+03</pdfrwt>
<totfact> 0.28288522E+02</totfact>
</mgrwt>
</event>
<event>
 4    1  0.5013722E-002  0.4176740E+03  0.7818608E-02  0.1037826E+00
         21   -1    0    0  503  502  0.00000000000E+00  0.00000000000E+00  0.69334021488E+03  0.69334021488E+03  0.00000000000E+00 0. -1.
         21   -1    0    0  501  503 -0.00000000000E+00 -0.00000000000E+00 -0.30067675226E+03  0.30067675226E+03  0.00000000000E+00 0. -1.
    9000007    1    1    2  501    0  0.10724641974E+03  0.54312004490E+02 -0.44415390403E+01  0.41769763663E+03  0.40000000000E+03 0. -1.
   -9000007    1    1    2    0  502 -0.10724641974E+03 -0.54312004490E+02  0.39710500166E+03  0.57631933051E+03  0.40000000000E+03 0. -1.
<mgrwt>
<rscale>  2 0.41767402E+03</rscale>
<asrwt>0</asrwt>
<pdfrwt beam="1">  1       21 0.10666772E+00 0.41767402E+03</pdfrwt>
<pdfrwt beam="2">  1       21 0.46257962E-01 0.41767402E+03</pdfrwt>
<totfact> 0.27649192E+03</totfact>
</mgrwt>
</event>
<event>
 4    1  0.5013722E-002  0.5098249E+03  0.7818608E-02  0.1011246E+00
         21   -1    0    0  501  502  0.00000000000E+00  0.00000000000E+00  0.27435366353E+03  0.27435366353E+03  0.00000000000E+00 0. -1.
         21   -1    0    0  502  503 -0.00000000000E+00 -0.00000000000E+00 -0.21348936153E+04  0.21348936153E+04  0.00000000000E+00 0.  1.
    9000007    1    1    2  501    0  0.19750331025E+03  0.24680739758E+03 -0.31849354770E+02  0.51081878436E+03  0.40000000000E+03 0. -1.
   -9000007    1    1    2    0  503 -0.19750331025E+03 -0.24680739758E+03 -0.18286905970E+04  0.18984284945E+04  0.40000000000E+03 0.  1.
<mgrwt>
<rscale>  2 0.50982492E+03</rscale>
<asrwt>0</asrwt>
<pdfrwt beam="1">  1       21 0.42208257E-01 0.50982492E+03</pdfrwt>
<pdfrwt beam="2">  1       21 0.32844517E+00 0.50982492E+03</pdfrwt>
<totfact> 0.93146336E+01</totfact>
</mgrwt>
</event>
<event>
 4    1  0.5013722E-002  0.4894449E+03  0.7818608E-02  0.1016571E+00
         21   -1    0    0  501  502  0.00000000000E+00  0.00000000000E+00  0.91130683317E+03  0.91130683317E+03  0.00000000000E+00 0.  1.
         21   -1    0    0  502  503 -0.00000000000E+00 -0.00000000000E+00 -0.27155094014E+03  0.27155094014E+03  0.00000000000E+00 0. -1.
    9000007    1    1    2  501    0  0.28726222307E+02 -0.28059073715E+03  0.21414040026E+03  0.53424008521E+03  0.40000000000E+03 0.  1.
   -9000007    1    1    2    0  503 -0.28726222307E+02  0.28059073715E+03  0.42561549278E+03  0.64861768810E+03  0.40000000000E+03 0.  1.
<mgrwt>
<rscale>  2 0.48944495E+03</rscale>
<asrwt>0</asrwt>
<pdfrwt beam="1">  1       21 0.14020105E+00 0.48944495E+03</pdfrwt>
<pdfrwt beam="2">  1       21 0.41777068E-01 0.48944495E+03</pdfrwt>
<totfact> 0.16557035E+03</totfact>
</mgrwt>
</event>
<event>
 4    1  0.5013722E-002  0.4431173E+03  0.7818608E-02  0.1029795E+00
         21   -1    0    0  501  502  0.00000000000E+00  0.00000000000E+00  0.78829657145E+03  0.78829657145E+03  0.00000000000E+00 0.  1.
         21   -1    0    0  502  503 -0.00000000000E+00 -0.00000000000E+00 -0.35468710085E+03  0.35468710085E+03  0.00000000000E+00 0.  1.
    9000007    1    1    2  501    0  0.71401324865E+02  0.17679017014E+03  0.52863872486E+03  0.68979113858E+03  0.40000000000E+03 0.  1.
   -9000007    1    1    2    0  503 -0.71401324865E+02 -0.17679017014E+03 -0.95029254265E+02  0.45319253372E+03  0.40000000000E+03 0.  1.
<mgrwt>
<rscale>  2 0.44311727E+03</rscale>
<asrwt>0</asrwt>
<pdfrwt beam="1">  1       21 0.12127640E+00 0.44311727E+03</pdfrwt>
<pdfrwt beam="2">  1       21 0.54567247E-01 0.44311727E+03</pdfrwt>
<totfact> 0.13977016E+03</totfact>
</mgrwt>
</event>
<event>
 4    1  0.5013722E-002  0.4101418E+03  0.7818608E-02  0.1040323E+00
         21   -1    0    0  501  502  0.00000000000E+00  0.00000000000E+00  0.36054768624E+03  0.36054768624E+03  0.00000000000E+00 0. -1.
         21   -1    0    0  502  503 -0.00000000000E+00 -0.00000000000E+00 -0.47838532057E+03  0.47838532057E+03  0.00000000000E+00 0. -1.
    9000007    1    1    2  501    0 -0.16106735786E+02  0.89201270592E+02  0.70376433235E+01  0.41020217215E+03  0.40000000000E+03 0.  1.
   -9000007    1    1    2    0  503  0.16106735786E+02 -0.89201270592E+02 -0.12487527765E+03  0.42873083465E+03  0.40000000000E+03 0.  1.
<mgrwt>
<rscale>  2 0.41014180E+03</rscale>
<asrwt>0</asrwt>
<pdfrwt beam="1">  1       21 0.55468875E-01 0.41014180E+03</pdfrwt>
<pdfrwt beam="2">  1       21 0.73597741E-01 0.41014180E+03</pdfrwt>
<totfact> 0.45225088E+03</totfact>
</mgrwt>
</event>
<event>
 4    1  0.5013722E-002  0.5067340E+03  0.7818608E-02  0.1012036E+00
         21   -1    0    0  503  502  0.00000000000E+00  0.00000000000E+00  0.57239771447E+03  0.57239771447E+03  0.00000000000E+00 0. -1.
         21   -1    0    0  501  503 -0.00000000000E+00 -0.00000000000E+00 -0.87993380235E+03  0.87993380235E+03  0.00000000000E+00 0.  1.
    9000007    1    1    2  501    0 -0.23889179180E+03 -0.19927377885E+03 -0.66218029437E+03  0.83382376398E+03  0.40000000000E+03 0.  1.
   -9000007    1    1    2    0  502  0.23889179180E+03  0.19927377885E+03  0.35464420649E+03  0.61850775284E+03  0.40000000000E+03 0. -1.
<mgrwt>
<rscale>  2 0.50673398E+03</rscale>
<asrwt>0</asrwt>
<pdfrwt beam="1">  1       21 0.88061186E-01 0.50673398E+03</pdfrwt>
<pdfrwt beam="2">  1       21 0.13537443E+00 0.50673398E+03</pdfrwt>
<totfact> 0.34815786E+02</totfact>
</mgrwt>
</event>
<event>
 4    1  0.5013722E-002  0.4056709E+03  0.7818608E-02  0.1041834E+00
         21   -1    0    0  503  502  0.00000000000E+00  0.00000000000E+00  0.29834989605E+03  0.29834989605E+03  0.00000000000E+00 0.  1.
         21   -1    0    0  501  503 -0.00000000000E+00 -0.00000000000E+00 -0.13315490490E+04  0.13315490490E+04  0.00000000000E+00 0.  1.
    9000007    1    1    2  501    0  0.63723485616E+02 -0.22543688571E+02 -0.11403143871E+04  0.12103246680E+04  0.40000000000E+03 0.  1.
   -9000007    1    1    2    0  502 -0.63723485616E+02  0.22543688571E+02  0.10711523422E+03  0.41957427700E+03  0.40000000000E+03 0.  1.
<mgrwt>
<rscale>  2 0.40567093E+03</rscale>
<asrwt>0</asrwt>
<pdfrwt beam="1">  1       21 0.45899984E-01 0.40567093E+03</pdfrwt>
<pdfrwt beam="2">  1       21 0.20485370E+00 0.40567093E+03</pdfrwt>
<totfact> 0.47806396E+02</totfact>
</mgrwt>
</event>
<event>
 4    1  0.5013722E-002  0.8411878E+03  0.7818608E-02  0.9502241E-01
         21   -1    0    0  503  502  0.00000000000E+00  0.00000000000E+00  0.23708912934E+04  0.23708912934E+04  0.00000000000E+00 0. -1.
         21   -1    0    0  501  503 -0.00000000000E+00 -0.00000000000E+00 -0.29978871644E+03  0.29978871644E+03  0.00000000000E+00 0.  1.
    9000007    1    1    2  501    0  0.14319797251E+03  0.72601052903E+03  0.94638011838E+03  0.12661880887E+04  0.40000000000E+03 0. -1.
   -9000007    1    1    2    0  502 -0.14319797251E+03 -0.72601052903E+03  0.11247224585E+04  0.14044919211E+04  0.40000000000E+03 0.  1.
<mgrwt>
<rscale>  2 0.84118782E+03</rscale>
<asrwt>0</asrwt>
<pdfrwt beam="1">  1       21 0.36475249E+00 0.84118782E+03</pdfrwt>
<pdfrwt beam="2">  1       21 0.46121343E-01 0.84118782E+03</pdfrwt>
<totfact> 0.39560087E+01</totfact>
</mgrwt>
</event>
<event>
 4    1  0.5013722E-002  0.4041976E+03  0.7818608E-02  0.1042336E+00
         21   -1    0    0  503  502  0.00000000000E+00  0.00000000000E+00  0.16189741396E+04  0.16189741396E+04  0.00000000000E+00 0.  1.
         21   -1    0    0  501  503 -0.00000000000E+00 -0.00000000000E+00 -0.10107808509E+03  0.10107808509E+03  0.00000000000E+00 0.  1.
    9000007    1    1    2  501    0  0.54445647186E+02  0.20281967361E+02  0.72420115779E+03  0.82936301077E+03  0.40000000000E+03 0. -1.
   -9000007    1    1    2    0  502 -0.54445647186E+02 -0.20281967361E+02  0.79369489669E+03  0.89068921388E+03  0.40000000000E+03 0. -1.
<mgrwt>
<rscale>  2 0.40419758E+03</rscale>
<asrwt>0</asrwt>
<pdfrwt beam="1">  1       21 0.24907293E+00 0.40419758E+03</pdfrwt>
<pdfrwt beam="2">  1       21 0.15550476E-01 0.40419758E+03</pdfrwt>
<totfact> 0.21063670E+03</totfact>
</mgrwt>
</event>
<event>
 4    1  0.5013722E-002  0.4267815E+03  0.7818608E-02  0.1034882E+00
         21   -1    0    0  503  502  0.00000000000E+00  0.00000000000E+00  0.19994593498E+03  0.19994593498E+03  0.00000000000E+00 0.  1.
         21   -1    0    0  501  503 -0.00000000000E+00 -0.00000000000E+00 -0.11836005252E+04  0.11836005252E+04  0.00000000000E+00 0.  1.
    9000007    1    1    2  501    0  0.47159850786E+02 -0.14113253110E+03 -0.82384221584E+03  0.92782457365E+03  0.40000000000E+03 0.  1.
   -9000007    1    1    2    0  502 -0.47159850786E+02  0.14113253110E+03 -0.15981237437E+03  0.45572188653E+03  0.40000000000E+03 0.  1.
<mgrwt>
<rscale>  2 0.42678149E+03</rscale>
<asrwt>0</asrwt>
<pdfrwt beam="1">  1       21 0.30760913E-01 0.42678149E+03</pdfrwt>
<pdfrwt beam="2">  1       21 0.18209239E+00 0.42678149E+03</pdfrwt>
<totfact> 0.15259616E+03</totfact>
</mgrwt>
</event>
<event>
 4    1  0.5013722E-002  0.4620148E+03  0.7818608E-02  0.1024198E+00
         21   -1    0    0  501  502  0.00000000000E+00  0.00000000000E+00  0.59136900846E+03  0.59136900846E+03  0.00000000000E+00 0.  1.
         21   -1    0    0  502  503 -0.00000000000E+00 -0.00000000000E+00 -0.36352538959E+03  0.36352538959E+03  0.00000000000E+00 0.  1.
    9000007    1    1    2  501    0  0.60335730769E+00  0.23120835059E+03  0.15406835393E+03  0.48702640904E+03  0.40000000000E+03 0.  1.
   -9000007    1    1    2    0  503 -0.60335730769E+00 -0.23120835059E+03  0.73775264936E+02  0.46786798901E+03  0.40000000000E+03 0.  1.
<mgrwt>
<rscale>  2 0.46201479E+03</rscale>
<asrwt>0</asrwt>
<pdfrwt beam="1">  1       21 0.90979847E-01 0.46201479E+03</pdfrwt>
<pdfrwt beam="2">  1       21 0.55926983E-01 0.46201479E+03</pdfrwt>
<totfact> 0.26665768E+03</totfact>
</mgrwt>
</event>
<event>
 4    1  0.5013722E-002  0.4205692E+03  0.7818608E-02  0.1036881E+00
         21   -1    0    0  501  502  0.00000000000E+00  0.00000000000E+00  0.52112370394E+03  0.52112370394E+03  0.00000000000E+00 0.  1.
         21   -1    0    0  502  503 -0.00000000000E+00 -0.00000000000E+00 -0.45737063795E+03  0.45737063795E+03  0.00000000000E+00 0. -1.
    9000007    1    1    2  501    0  0.44220692194E+02 -0.12215979912E+03  0.28033225217E+03  0.50543511725E+03  0.40000000000E+03 0.  1.
   -9000007    1    1    2    0  503 -0.44220692194E+02  0.12215979912E+03 -0.21657918617E+03  0.47305922465E+03  0.40000000000E+03 0. -1.
<mgrwt>
<rscale>  2 0.42056924E+03</rscale>
<asrwt>0</asrwt>
<pdfrwt beam="1">  1       21 0.80172878E-01 0.42056924E+03</pdfrwt>
<pdfrwt beam="2">  1       21 0.70364713E-01 0.42056924E+03</pdfrwt>
<totfact> 0.21929832E+03</totfact>
</mgrwt>
</event>
<event>
 4    1  0.5013722E-002  0.5060654E+03  0.7818608E-02  0.1012208E+00
         21   -1    0    0  503  502  0.00000000000E+00  0.00000000000E+00  0.50518154129E+03  0.50518154129E+03  0.00000000000E+00 0. -1.
         21   -1    0    0  501  503 -0.00000000000E+00 -0.00000000000E+00 -0.83539497417E+03  0.83539497417E+03  0.00000000000E+00 0. -1.
    9000007    1    1    2  501    0 -0.20249406407E+02 -0.30934148881E+03 -0.58539419594E+03  0.77381429284E+03  0.40000000000E+03 0. -1.
   -9000007    1    1    2    0  502  0.20249406407E+02  0.30934148881E+03  0.25518076306E+03  0.56676222262E+03  0.40000000000E+03 0. -1.
<mgrwt>
<rscale>  2 0.50606541E+03</rscale>
<asrwt>0</asrwt>
<pdfrwt beam="1">  1       21 0.77720237E-01 0.50606541E+03</pdfrwt>
<pdfrwt beam="2">  1       21 0.12852230E+00 0.50606541E+03</pdfrwt>
<totfact> 0.53384947E+02</totfact>
</mgrwt>
</event>
<event>
 4    1  0.5013722E-002  0.4654919E+03  0.7818608E-02  0.1023200E+00
         21   -1    0    0  503  502  0.00000000000E+00  0.00000000000E+00  0.29196330266E+03  0.29196330266E+03  0.00000000000E+00 0. -1.
         21   -1    0    0  501  503 -0.00000000000E+00 -0.00000000000E+00 -0.12596333913E+04  0.12596333913E+04  0.00000000000E+00 0. -1.
    9000007    1    1    2  501    0 -0.18220413560E+03 -0.15324615795E+03 -0.98108168866E+03  0.10859116040E+04  0.40000000000E+03 0. -1.
   -9000007    1    1    2    0  502  0.18220413560E+03  0.15324615795E+03  0.13411600025E+02  0.46568508992E+03  0.40000000000E+03 0. -1.
<mgrwt>
<rscale>  2 0.46549192E+03</rscale>
<asrwt>0</asrwt>
<pdfrwt beam="1">  1       21 0.44917431E-01 0.46549192E+03</pdfrwt>
<pdfrwt beam="2">  1       21 0.19378975E+00 0.46549192E+03</pdfrwt>
<totfact> 0.57526357E+02</totfact>
</mgrwt>
</event>
<event>
 4    1  0.5013722E-002  0.6757902E+03  0.7818608E-02  0.9759554E-01
         21   -1    0    0  503  502  0.00000000000E+00  0.00000000000E+00  0.42305445970E+03  0.42305445970E+03  0.00000000000E+00 0.  1.
         21   -1    0    0  501  503 -0.00000000000E+00 -0.00000000000E+00 -0.10799780654E+04  0.10799780654E+04  0.00000000000E+00 0.  1.
    9000007    1    1    2  501    0 -0.13994786021E+03  0.52640954619E+03 -0.34407175168E+03  0.75833883206E+03  0.40000000000E+03 0.  1.
   -9000007    1    1    2    0  502  0.13994786021E+03 -0.52640954619E+03 -0.31285185400E+03  0.74469369304E+03  0.40000000000E+03 0.  1.
<mgrwt>
<rscale>  2 0.67579021E+03</rscale>
<asrwt>0</asrwt>
<pdfrwt beam="1">  1       21 0.65085301E-01 0.67579021E+03</pdfrwt>
<pdfrwt beam="2">  1       21 0.16615047E+00 0.67579021E+03</pdfrwt>
<totfact> 0.37430532E+02</totfact>
</mgrwt>
</event>
<event>
 4    1  0.5013722E-002  0.5175424E+03  0.7818608E-02  0.1009299E+00
         21   -1    0    0  503  502  0.00000000000E+00  0.00000000000E+00  0.38922380613E+03  0.38922380613E+03  0.00000000000E+00 0.  1.
         21   -1    0    0  501  503 -0.00000000000E+00 -0.00000000000E+00 -0.69811610811E+03  0.69811610811E+03  0.00000000000E+00 0.  1.
    9000007    1    1    2  501    0  0.10380447101E+03  0.31156816232E+03 -0.89535862568E+02  0.52523019588E+03  0.40000000000E+03 0.  1.
   -9000007    1    1    2    0  502 -0.10380447101E+03 -0.31156816232E+03 -0.21935643941E+03  0.56210971837E+03  0.40000000000E+03 0.  1.
<mgrwt>
<rscale>  2 0.51754235E+03</rscale>
<asrwt>0</asrwt>
<pdfrwt beam="1">  1       21 0.59880586E-01 0.51754235E+03</pdfrwt>
<pdfrwt beam="2">  1       21 0.10740248E+00 0.51754235E+03</pdfrwt>
<totfact> 0.15062123E+03</totfact>
</mgrwt>
</event>
<event>
 4    1  0.5013722E-002  0.5206629E+03  0.7818608E-02  0.1008522E+00
         21   -1    0    0  501  502  0.00000000000E+00  0.00000000000E+00  0.22123195884E+03  0.22123195884E+03  0.00000000000E+00 0. -1.
         21   -1    0    0  502  503 -0.00000000000E+00 -0.00000000000E+00 -0.12315053599E+04  0.12315053599E+04  0.00000000000E+00 0.  1.
    9000007    1    1    2  501    0 -0.31111414853E+03  0.11957344425E+03 -0.45384486883E+03  0.69069891194E+03  0.40000000000E+03 0.  1.
   -9000007    1    1    2    0  503  0.31111414853E+03 -0.11957344425E+03 -0.55642853224E+03  0.76203840683E+03  0.40000000000E+03 0.  1.
<mgrwt>
<rscale>  2 0.52066287E+03</rscale>
<asrwt>0</asrwt>
<pdfrwt beam="1">  1       21 0.34035686E-01 0.52066287E+03</pdfrwt>
<pdfrwt beam="2">  1       21 0.18946237E+00 0.52066287E+03</pdfrwt>
<totfact> 0.10648780E+03</totfact>
</mgrwt>
</event>
<event>
 4    1  0.5013722E-002  0.4517092E+03  0.7818608E-02  0.1027214E+00
         21   -1    0    0  503  502  0.00000000000E+00  0.00000000000E+00  0.14451527889E+04  0.14451527889E+04  0.00000000000E+00 0.  1.
         21   -1    0    0  501  503 -0.00000000000E+00 -0.00000000000E+00 -0.18680215320E+03  0.18680215320E+03  0.00000000000E+00 0.  1.
    9000007    1    1    2  501    0  0.20974004095E+03 -0.70902359895E+01  0.22596892940E+03  0.50507733396E+03  0.40000000000E+03 0.  1.
   -9000007    1    1    2    0  502 -0.20974004095E+03  0.70902359895E+01  0.10323817063E+04  0.11268776082E+04  0.40000000000E+03 0.  1.
<mgrwt>
<rscale>  2 0.45170915E+03</rscale>
<asrwt>0</asrwt>
<pdfrwt beam="1">  1       21 0.22233119E+00 0.45170915E+03</pdfrwt>
<pdfrwt beam="2">  1       21 0.28738794E-01 0.45170915E+03</pdfrwt>
<totfact> 0.93273192E+02</totfact>
</mgrwt>
</event>
<event>
 4    1  0.5013722E-002  0.4856722E+03  0.7818608E-02  0.1017588E+00
         21   -1    0    0  501  502  0.00000000000E+00  0.00000000000E+00  0.25562342699E+03  0.25562342699E+03  0.00000000000E+00 0.  1.
         21   -1    0    0  502  503 -0.00000000000E+00 -0.00000000000E+00 -0.12133785071E+04  0.12133785071E+04  0.00000000000E+00 0.  1.
    9000007    1    1    2  501    0 -0.24661042687E+03  0.12272247113E+03 -0.11940937572E+03  0.50013608805E+03  0.40000000000E+03 0.  1.
   -9000007    1    1    2    0  503  0.24661042687E+03 -0.12272247113E+03 -0.83834570437E+03  0.96886584602E+03  0.40000000000E+03 0.  1.
<mgrwt>
<rscale>  2 0.48567222E+03</rscale>
<asrwt>0</asrwt>
<pdfrwt beam="1">  1       21 0.39326682E-01 0.48567222E+03</pdfrwt>
<pdfrwt beam="2">  1       21 0.18667361E+00 0.48567222E+03</pdfrwt>
<totfact> 0.84066062E+02</totfact>
</mgrwt>
</event>
<event>
 4    1  0.5013722E-002  0.4638755E+03  0.7818608E-02  0.1023663E+00
         21   -1    0    0  501  502  0.00000000000E+00  0.00000000000E+00  0.73575473473E+03  0.73575473473E+03  0.00000000000E+00 0. -1.
         21   -1    0    0  502  503 -0.00000000000E+00 -0.00000000000E+00 -0.45142888306E+03  0.45142888306E+03  0.00000000000E+00 0. -1.
    9000007    1    1    2  501    0  0.17212191914E+03  0.15985795667E+03  0.49440898978E+03  0.67795336900E+03  0.40000000000E+03 0. -1.
   -9000007    1    1    2    0  503 -0.17212191914E+03 -0.15985795667E+03 -0.21008313811E+03  0.50923024879E+03  0.40000000000E+03 0. -1.
<mgrwt>
<rscale>  2 0.46387555E+03</rscale>
<asrwt>0</asrwt>
<pdfrwt beam="1">  1       21 0.11319304E+00 0.46387555E+03</pdfrwt>
<pdfrwt beam="2">  1       21 0.69450597E-01 0.46387555E+03</pdfrwt>
<totfact> 0.96956769E+02</totfact>
</mgrwt>
</event>
<event>
 4    1  0.5013722E-002  0.4045210E+03  0.7818608E-02  0.1042225E+00
         21   -1    0    0  503  502  0.00000000000E+00  0.00000000000E+00  0.73918369564E+03  0.73918369564E+03  0.00000000000E+00 0.  1.
         21   -1    0    0  501  503 -0.00000000000E+00 -0.00000000000E+00 -0.25816631511E+03  0.25816631511E+03  0.00000000000E+00 0.  1.
    9000007    1    1    2  501    0 -0.39067279432E+02  0.45945701063E+02  0.52257936825E+02  0.40788252197E+03  0.40000000000E+03 0. -1.
   -9000007    1    1    2    0  502  0.39067279432E+02 -0.45945701063E+02  0.42875944370E+03  0.58946748878E+03  0.40000000000E+03 0. -1.
<mgrwt>
<rscale>  2 0.40452103E+03</rscale>
<asrwt>0</asrwt>
<pdfrwt beam="1">  1       21 0.11372057E+00 0.40452103E+03</pdfrwt>
<pdfrwt beam="2">  1       21 0.39717895E-01 0.40452103E+03</pdfrwt>
<totfact> 0.32552058E+03</totfact>
</mgrwt>
</event>
<event>
 4    1  0.5013722E-002  0.5184590E+03  0.7818608E-02  0.1009070E+00
         21   -1    0    0  501  502  0.00000000000E+00  0.00000000000E+00  0.53289625483E+03  0.53289625483E+03  0.00000000000E+00 0.  1.
         21   -1    0    0  502  503 -0.00000000000E+00 -0.00000000000E+00 -0.50447193179E+03  0.50447193179E+03  0.00000000000E+00 0. -1.
    9000007    1    1    2  501    0 -0.31332082305E+03  0.10310106274E+03  0.19821033512E+02  0.51883777876E+03  0.40000000000E+03 0. -1.
   -9000007    1    1    2    0  503  0.31332082305E+03 -0.10310106274E+03  0.86032895309E+01  0.51853040787E+03  0.40000000000E+03 0.  1.
<mgrwt>
<rscale>  2 0.51845903E+03</rscale>
<asrwt>0</asrwt>
<pdfrwt beam="1">  1       21 0.81984039E-01 0.51845903E+03</pdfrwt>
<pdfrwt beam="2">  1       21 0.77611066E-01 0.51845903E+03</pdfrwt>
<totfact> 0.16077280E+03</totfact>
</mgrwt>
</event>
<event>
 4    1  0.5013722E-002  0.4480329E+03  0.7818608E-02  0.1028310E+00
         21   -1    0    0  501  502  0.00000000000E+00  0.00000000000E+00  0.13388957651E+04  0.13388957651E+04  0.00000000000E+00 0.  1.
         21   -1    0    0  502  503 -0.00000000000E+00 -0.00000000000E+00 -0.21945271987E+03  0.21945271987E+03  0.00000000000E+00 0.  1.
    9000007    1    1    2  501    0  0.39421374258E+02  0.19793794101E+03  0.12114618783E+03  0.46412269075E+03  0.40000000000E+03 0.  1.
   -9000007    1    1    2    0  503 -0.39421374258E+02 -0.19793794101E+03  0.99829685741E+03  0.10942257942E+04  0.40000000000E+03 0.  1.
<mgrwt>
<rscale>  2 0.44803289E+03</rscale>
<asrwt>0</asrwt>
<pdfrwt beam="1">  1       21 0.20598396E+00 0.44803289E+03</pdfrwt>
<pdfrwt beam="2">  1       21 0.33761958E-01 0.44803289E+03</pdfrwt>
<totfact> 0.86423931E+02</totfact>
</mgrwt>
</event>
<event>
 4    1  0.5013722E-002  0.4602401E+03  0.7818608E-02  0.1024712E+00
         21   -1    0    0  503  502  0.00000000000E+00  0.00000000000E+00  0.46913297093E+03  0.46913297093E+03  0.00000000000E+00 0. -1.
         21   -1    0    0  501  503 -0.00000000000E+00 -0.00000000000E+00 -0.45913500003E+03  0.45913500003E+03  0.00000000000E+00 0. -1.
    9000007    1    1    2  501    0 -0.22367670747E+03 -0.42305142899E+02  0.64788505745E+02  0.46477795242E+03  0.40000000000E+03 0. -1.
   -9000007    1    1    2    0  502  0.22367670747E+03  0.42305142899E+02 -0.54790534840E+02  0.46349001854E+03  0.40000000000E+03 0. -1.
<mgrwt>
<rscale>  2 0.46024015E+03</rscale>
<asrwt>0</asrwt>
<pdfrwt beam="1">  1       21 0.72174304E-01 0.46024015E+03</pdfrwt>
<pdfrwt beam="2">  1       21 0.70636154E-01 0.46024015E+03</pdfrwt>
<totfact> 0.27240530E+03</totfact>
</mgrwt>
</event>
<event>
 4    1  0.5013722E-002  0.4260967E+03  0.7818608E-02  0.1035100E+00
         21   -1    0    0  501  502  0.00000000000E+00  0.00000000000E+00  0.72672558550E+03  0.72672558550E+03  0.00000000000E+00 0.  1.
         21   -1    0    0  502  503 -0.00000000000E+00 -0.00000000000E+00 -0.28468314393E+03  0.28468314393E+03  0.00000000000E+00 0. -1.
    9000007    1    1    2  501    0 -0.14422261418E+03  0.27535464749E+02  0.44078613563E+02  0.42837050369E+03  0.40000000000E+03 0. -1.
   -9000007    1    1    2    0  503  0.14422261418E+03 -0.27535464749E+02  0.39796382801E+03  0.58303822573E+03  0.40000000000E+03 0.  1.
<mgrwt>
<rscale>  2 0.42609666E+03</rscale>
<asrwt>0</asrwt>
<pdfrwt beam="1">  1       21 0.11180394E+00 0.42609666E+03</pdfrwt>
<pdfrwt beam="2">  1       21 0.43797407E-01 0.42609666E+03</pdfrwt>
<totfact> 0.27504009E+03</totfact>
</mgrwt>
</event>
<event>
 4    1  0.5013722E-002  0.4051517E+03  0.7818608E-02  0.1042010E+00
         21   -1    0    0  503  502  0.00000000000E+00  0.00000000000E+00  0.37476473028E+03  0.37476473028E+03  0.00000000000E+00 0. -1.
         21   -1    0    0  501  503 -0.00000000000E+00 -0.00000000000E+00 -0.85601130734E+03  0.85601130734E+03  0.00000000000E+00 0. -1.
    9000007    1    1    2  501    0 -0.97572001488E+01  0.63660873692E+02 -0.67065647568E+03  0.78353558832E+03  0.40000000000E+03 0. -1.
   -9000007    1    1    2    0  502  0.97572001488E+01 -0.63660873692E+02  0.18940989862E+03  0.44724044930E+03  0.40000000000E+03 0. -1.
<mgrwt>
<rscale>  2 0.40515171E+03</rscale>
<asrwt>0</asrwt>
<pdfrwt beam="1">  1       21 0.57656113E-01 0.40515171E+03</pdfrwt>
<pdfrwt beam="2">  1       21 0.13169405E+00 0.40515171E+03</pdfrwt>
<totfact> 0.10204236E+03</totfact>
</mgrwt>
</event>
<event>
 4    1  0.5013722E-002  0.4398143E+03  0.7818608E-02  0.1030804E+00
         21   -1    0    0  501  502  0.00000000000E+00  0.00000000000E+00  0.33560191052E+03  0.33560191052E+03  0.00000000000E+00 0. -1.
         21   -1    0    0  502  503 -0.00000000000E+00 -0.00000000000E+00 -0.78386146555E+03  0.78386146555E+03  0.00000000000E+00 0. -1.
    9000007    1    1    2  501    0  0.10883240688E+03  0.14694247715E+03  0.63837105333E+02  0.44442295215E+03  0.40000000000E+03 0. -1.
   -9000007    1    1    2    0  503 -0.10883240688E+03 -0.14694247715E+03 -0.51209666037E+03  0.67504042393E+03  0.40000000000E+03 0. -1.
<mgrwt>
<rscale>  2 0.43981426E+03</rscale>
<asrwt>0</asrwt>
<pdfrwt beam="1">  1       21 0.51631063E-01 0.43981426E+03</pdfrwt>
<pdfrwt beam="2">  1       21 0.12059407E+00 0.43981426E+03</pdfrwt>
<totfact> 0.15987865E+03</totfact>
</mgrwt>
</event>
<event>
 4    1  0.5013722E-002  0.4311660E+03  0.7818608E-02  0.1033492E+00
         21   -1    0    0  501  502  0.00000000000E+00  0.00000000000E+00  0.21461154699E+03  0.21461154699E+03  0.00000000000E+00 0.  1.
         21   -1    0    0  502  503 -0.00000000000E+00 -0.00000000000E+00 -0.99139651875E+03  0.99139651875E+03  0.00000000000E+00 0.  1.
    9000007    1    1    2  501    0  0.24489632638E+02  0.15907352551E+03 -0.17413738789E+03  0.46500318116E+03  0.40000000000E+03 0.  1.
   -9000007    1    1    2    0  503 -0.24489632638E+02 -0.15907352551E+03 -0.60264758387E+03  0.74100488458E+03  0.40000000000E+03 0.  1.
<mgrwt>
<rscale>  2 0.43116601E+03</rscale>
<asrwt>0</asrwt>
<pdfrwt beam="1">  1       21 0.33017161E-01 0.43116601E+03</pdfrwt>
<pdfrwt beam="2">  1       21 0.15252254E+00 0.43116601E+03</pdfrwt>
<totfact> 0.21813589E+03</totfact>
</mgrwt>
</event>
<event>
 4    1  0.5013722E-002  0.6243900E+03  0.7818608E-02  0.9856058E-01
         21   -1    0    0  501  502  0.00000000000E+00  0.00000000000E+00  0.72318744799E+03  0.72318744799E+03  0.00000000000E+00 0.  1.
         21   -1    0    0  502  503 -0.00000000000E+00 -0.00000000000E+00 -0.67673025867E+03  0.67673025867E+03  0.00000000000E+00 0.  1.
    9000007    1    1    2  501    0  0.76327985152E+01  0.47937944111E+03  0.33890194408E+03  0.71043468093E+03  0.40000000000E+03 0.  1.
   -9000007    1    1    2    0  503 -0.76327985152E+01 -0.47937944111E+03 -0.29244475476E+03  0.68948302572E+03  0.40000000000E+03 0.  1.
<mgrwt>
<rscale>  2 0.62439003E+03</rscale>
<asrwt>0</asrwt>
<pdfrwt beam="1">  1       21 0.11125961E+00 0.62439003E+03</pdfrwt>
<pdfrwt beam="2">  1       21 0.10411235E+00 0.62439003E+03</pdfrwt>
<totfact> 0.36817811E+02</totfact>
</mgrwt>
</event>
<event>
 4    1  0.5013722E-002  0.4184413E+03  0.7818608E-02  0.1037575E+00
         21   -1    0    0  501  502  0.00000000000E+00  0.00000000000E+00  0.12763073477E+04  0.12763073477E+04  0.00000000000E+00 0. -1.
         21   -1    0    0  502  503 -0.00000000000E+00 -0.00000000000E+00 -0.38153264309E+03  0.38153264309E+03  0.00000000000E+00 0. -1.
    9000007    1    1    2  501    0  0.15061525964E+02  0.12192735804E+03  0.11107466469E+04  0.11869503965E+04  0.40000000000E+03 0. -1.
   -9000007    1    1    2    0  503 -0.15061525964E+02 -0.12192735804E+03 -0.21597194224E+03  0.47088959432E+03  0.40000000000E+03 0. -1.
<mgrwt>
<rscale>  2 0.41844131E+03</rscale>
<asrwt>0</asrwt>
<pdfrwt beam="1">  1       21 0.19635498E+00 0.41844131E+03</pdfrwt>
<pdfrwt beam="2">  1       21 0.58697330E-01 0.41844131E+03</pdfrwt>
<totfact> 0.31965777E+02</totfact>
</mgrwt>
</event>
<event>
 4    1  0.5013722E-002  0.5100614E+03  0.7818608E-02  0.1011186E+00
         21   -1    0    0  501  502  0.00000000000E+00  0.00000000000E+00  0.86425408142E+03  0.86425408142E+03  0.00000000000E+00 0.  1.
         21   -1    0    0  502  503 -0.00000000000E+00 -0.00000000000E+00 -0.44304701413E+03  0.44304701413E+03  0.00000000000E+00 0.  1.
    9000007    1    1    2  501    0  0.24921755220E+03  0.19507244406E+03 -0.15947812521E+03  0.53441175060E+03  0.40000000000E+03 0.  1.
   -9000007    1    1    2    0  503 -0.24921755220E+03 -0.19507244406E+03  0.58068519249E+03  0.77288934495E+03  0.40000000000E+03 0.  1.
<mgrwt>
<rscale>  2 0.51006141E+03</rscale>
<asrwt>0</asrwt>
<pdfrwt beam="1">  1       21 0.13296217E+00 0.51006141E+03</pdfrwt>
<pdfrwt beam="2">  1       21 0.68161079E-01 0.51006141E+03</pdfrwt>
<totfact> 0.65758840E+02</totfact>
</mgrwt>
</event>
<event>
 4    1  0.5013722E-002  0.5575836E+03  0.7818608E-02  0.9997537E-01
         21   -1    0    0  501  502  0.00000000000E+00  0.00000000000E+00  0.14037186824E+04  0.14037186824E+04  0.00000000000E+00 0. -1.
         21   -1    0    0  502  503 -0.00000000000E+00 -0.00000000000E+00 -0.34468988730E+03  0.34468988730E+03  0.00000000000E+00 0. -1.
    9000007    1    1    2  501    0  0.31480682695E+03 -0.22758763291E+03  0.10521711909E+04  0.11907828030E+04  0.40000000000E+03 0. -1.
   -9000007    1    1    2    0  503 -0.31480682695E+03  0.22758763291E+03  0.68576041877E+01  0.55762576670E+03  0.40000000000E+03 0. -1.
<mgrwt>
<rscale>  2 0.55758360E+03</rscale>
<asrwt>0</asrwt>
<pdfrwt beam="1">  1       21 0.21595672E+00 0.55758360E+03</pdfrwt>
<pdfrwt beam="2">  1       21 0.53029214E-01 0.55758360E+03</pdfrwt>
<totfact> 0.27663556E+02</totfact>
</mgrwt>
</event>
<event>
 4    1  0.5013722E-002  0.6831012E+03  0.7818608E-02  0.9746576E-01
         21   -1    0    0  503  502  0.00000000000E+00  0.00000000000E+00  0.71654718455E+03  0.71654718455E+03  0.00000000000E+00 0. -1.
         21   -1    0    0  501  503 -0.00000000000E+00 -0.00000000000E+00 -0.66376789326E+03  0.66376789326E+03  0.00000000000E+00 0.  1.
    9000007    1    1    2  501    0 -0.17315559353E+03 -0.52596991048E+03 -0.68515452849E+02  0.68652864003E+03  0.40000000000E+03 0.  1.
   -9000007    1    1    2    0  502  0.17315559353E+03  0.52596991048E+03  0.12129474414E+03  0.69378643779E+03  0.40000000000E+03 0. -1.
<mgrwt>
<rscale>  2 0.68310117E+03</rscale>
<asrwt>0</asrwt>
<pdfrwt beam="1">  1       21 0.11023803E+00 0.68310117E+03</pdfrwt>
<pdfrwt beam="2">  1       21 0.10211814E+00 0.68310117E+03</pdfrwt>
<totfact> 0.38813260E+02</totfact>
</mgrwt>
</event>
<event>
 4    1  0.5013722E-002  0.6320548E+03  0.7818608E-02  0.9841047E-01
         21   -1    0    0  503  502  0.00000000000E+00  0.00000000000E+00  0.80982600903E+03  0.80982600903E+03  0.00000000000E+00 0.  1.
         21   -1    0    0  501  503 -0.00000000000E+00 -0.00000000000E+00 -0.75344504265E+03  0.75344504265E+03  0.00000000000E+00 0. -1.
    9000007    1    1    2  501    0 -0.44871412642E+03  0.19531746246E+03 -0.43109210523E+03  0.76507103042E+03  0.40000000000E+03 0. -1.
   -9000007    1    1    2    0  502  0.44871412642E+03 -0.19531746246E+03  0.48747307161E+03  0.79820002126E+03  0.40000000000E+03 0.  1.
<mgrwt>
<rscale>  2 0.63205481E+03</rscale>
<asrwt>0</asrwt>
<pdfrwt beam="1">  1       21 0.12458862E+00 0.63205481E+03</pdfrwt>
<pdfrwt beam="2">  1       21 0.11591462E+00 0.63205481E+03</pdfrwt>
<totfact> 0.21035987E+02</totfact>
</mgrwt>
</event>
<event>
 4    1  0.5013722E-002  0.4038281E+03  0.7818608E-02  0.1042462E+00
         21   -1    0    0  501  502  0.00000000000E+00  0.00000000000E+00  0.39052436504E+03  0.39052436504E+03  0.00000000000E+00 0. -1.
         21   -1    0    0  502  503 -0.00000000000E+00 -0.00000000000E+00 -0.44423209986E+03  0.44423209986E+03  0.00000000000E+00 0. -1.
    9000007    1    1    2  501    0 -0.52718486255E+02  0.17260303244E+02  0.75369214295E+02  0.41080126013E+03  0.40000000000E+03 0. -1.
   -9000007    1    1    2    0  503  0.52718486255E+02 -0.17260303244E+02 -0.12907694912E+03  0.42395520477E+03  0.40000000000E+03 0. -1.
<mgrwt>
<rscale>  2 0.40382813E+03</rscale>
<asrwt>0</asrwt>
<pdfrwt beam="1">  1       21 0.60080672E-01 0.40382813E+03</pdfrwt>
<pdfrwt beam="2">  1       21 0.68343400E-01 0.40382813E+03</pdfrwt>
<totfact> 0.45031001E+03</totfact>
</mgrwt>
</event>
<event>
 4    1  0.5013722E-002  0.4142577E+03  0.7818608E-02  0.1038952E+00
         21   -1    0    0  503  502  0.00000000000E+00  0.00000000000E+00  0.51823853942E+04  0.51823853942E+04  0.00000000000E+00 0. -1.
         21   -1    0    0  501  503 -0.00000000000E+00 -0.00000000000E+00 -0.37218129778E+02  0.37218129778E+02  0.00000000000E+00 0. -1.
    9000007    1    1    2  501    0  0.57619970110E+02 -0.91046035291E+02  0.17059381279E+04  0.17555154051E+04  0.40000000000E+03 0.  1.
   -9000007    1    1    2    0  502 -0.57619970110E+02  0.91046035291E+02  0.34392291366E+04  0.34640881189E+04  0.40000000000E+03 0.  1.
<mgrwt>
<rscale>  2 0.41425770E+03</rscale>
<asrwt>0</asrwt>
<pdfrwt beam="1">  1       21 0.79728949E+00 0.41425770E+03</pdfrwt>
<pdfrwt beam="2">  1       21 0.57258702E-02 0.41425770E+03</pdfrwt>
<totfact> 0.75061353E-01</totfact>
</mgrwt>
</event>
<event>
 4    1  0.5013722E-002  0.4007993E+03  0.7818608E-02  0.1043503E+00
         21   -1    0    0  503  502  0.00000000000E+00  0.00000000000E+00  0.13084986306E+03  0.13084986306E+03  0.00000000000E+00 0. -1.
         21   -1    0    0  501  503 -0.00000000000E+00 -0.00000000000E+00 -0.14793084473E+04  0.14793084473E+04  0.00000000000E+00 0. -1.
    9000007    1    1    2  501    0  0.56429498493E+01  0.24662113870E+02 -0.10062768382E+04  0.10831588701E+04  0.40000000000E+03 0. -1.
   -9000007    1    1    2    0  502 -0.56429498493E+01 -0.24662113870E+02 -0.34218174608E+03  0.52699944031E+03  0.40000000000E+03 0. -1.
<mgrwt>
<rscale>  2 0.40079928E+03</rscale>
<asrwt>0</asrwt>
<pdfrwt beam="1">  1       21 0.20130749E-01 0.40079928E+03</pdfrwt>
<pdfrwt beam="2">  1       21 0.22758590E+00 0.40079928E+03</pdfrwt>
<totfact> 0.17656150E+03</totfact>
</mgrwt>
</event>
<event>
 4    1  0.5013722E-002  0.4400831E+03  0.7818608E-02  0.1030721E+00
         21   -1    0    0  501  502  0.00000000000E+00  0.00000000000E+00  0.25949019253E+03  0.25949019253E+03  0.00000000000E+00 0. -1.
         21   -1    0    0  502  503 -0.00000000000E+00 -0.00000000000E+00 -0.75058972766E+03  0.75058972766E+03  0.00000000000E+00 0. -1.
    9000007    1    1    2  501    0  0.69909261230E+02  0.16966384090E+03 -0.20763783150E+03  0.48660722640E+03  0.40000000000E+03 0.  1.
   -9000007    1    1    2    0  503 -0.69909261230E+02 -0.16966384090E+03 -0.28346170363E+03  0.52347269379E+03  0.40000000000E+03 0.  1.
<mgrwt>
<rscale>  2 0.44008309E+03</rscale>
<asrwt>0</asrwt>
<pdfrwt beam="1">  1       21 0.39921569E-01 0.44008309E+03</pdfrwt>
<pdfrwt beam="2">  1       21 0.11547534E+00 0.44008309E+03</pdfrwt>
<totfact> 0.30584044E+03</totfact>
</mgrwt>
</event>
<event>
 4    1  0.5013722E-002  0.4729633E+03  0.7818608E-02  0.1021087E+00
         21   -1    0    0  503  502  0.00000000000E+00  0.00000000000E+00  0.18196904600E+04  0.18196904600E+04  0.00000000000E+00 0. -1.
         21   -1    0    0  501  503 -0.00000000000E+00 -0.00000000000E+00 -0.13786817883E+03  0.13786817883E+03  0.00000000000E+00 0. -1.
    9000007    1    1    2  501    0 -0.20826597243E+03 -0.14254661056E+03  0.51872714502E+03  0.70197728057E+03  0.40000000000E+03 0.  1.
   -9000007    1    1    2    0  502  0.20826597243E+03  0.14254661056E+03  0.11630951361E+04  0.12555813582E+04  0.40000000000E+03 0.  1.
<mgrwt>
<rscale>  2 0.47296327E+03</rscale>
<asrwt>0</asrwt>
<pdfrwt beam="1">  1       21 0.27995236E+00 0.47296327E+03</pdfrwt>
<pdfrwt beam="2">  1       21 0.21210490E-01 0.47296327E+03</pdfrwt>
<totfact> 0.73556560E+02</totfact>
</mgrwt>
</event>
<event>
 4    1  0.5013722E-002  0.4012169E+03  0.7818608E-02  0.1043359E+00
         21   -1    0    0  501  502  0.00000000000E+00  0.00000000000E+00  0.46360370737E+03  0.46360370737E+03  0.00000000000E+00 0.  1.
         21   -1    0    0  502  503 -0.00000000000E+00 -0.00000000000E+00 -0.36612234453E+03  0.36612234453E+03  0.00000000000E+00 0.  1.
    9000007    1    1    2  501    0 -0.23704246157E+02 -0.20324220239E+02  0.14299208833E+03  0.42593626582E+03  0.40000000000E+03 0.  1.
   -9000007    1    1    2    0  503  0.23704246157E+02  0.20324220239E+02 -0.45510725489E+02  0.40378978609E+03  0.40000000000E+03 0.  1.
<mgrwt>
<rscale>  2 0.40121686E+03</rscale>
<asrwt>0</asrwt>
<pdfrwt beam="1">  1       21 0.71323647E-01 0.40121686E+03</pdfrwt>
<pdfrwt beam="2">  1       21 0.56326515E-01 0.40121686E+03</pdfrwt>
<totfact> 0.47126032E+03</totfact>
</mgrwt>
</event>
<event>
 4    1  0.5013722E-002  0.4452938E+03  0.7818608E-02  0.1029135E+00
         21   -1    0    0  503  502  0.00000000000E+00  0.00000000000E+00  0.72328832822E+02  0.72328832822E+02  0.00000000000E+00 0. -1.
         21   -1    0    0  501  503 -0.00000000000E+00 -0.00000000000E+00 -0.28238445802E+04  0.28238445802E+04  0.00000000000E+00 0.  1.
    9000007    1    1    2  501    0 -0.17907059811E+03  0.78869017649E+02 -0.16230994781E+04  0.16830741270E+04  0.40000000000E+03 0.  1.
   -9000007    1    1    2    0  502  0.17907059811E+03 -0.78869017649E+02 -0.11284162693E+04  0.12130992860E+04  0.40000000000E+03 0. -1.
<mgrwt>
<rscale>  2 0.44529384E+03</rscale>
<asrwt>0</asrwt>
<pdfrwt beam="1">  1       21 0.11127516E-01 0.44529384E+03</pdfrwt>
<pdfrwt beam="2">  1       21 0.43443750E+00 0.44529384E+03</pdfrwt>
<totfact> 0.27075321E+02</totfact>
</mgrwt>
</event>
<event>
 4    1  0.5013722E-002  0.4660973E+03  0.7818608E-02  0.1023028E+00
         21   -1    0    0  501  502  0.00000000000E+00  0.00000000000E+00  0.59726007557E+03  0.59726007557E+03  0.00000000000E+00 0.  1.
         21   -1    0    0  502  503 -0.00000000000E+00 -0.00000000000E+00 -0.61561786697E+03  0.61561786697E+03  0.00000000000E+00 0.  1.
    9000007    1    1    2  501    0  0.14580799115E+03  0.18970154731E+03  0.37872804938E+03  0.60056771702E+03  0.40000000000E+03 0.  1.
   -9000007    1    1    2    0  503 -0.14580799115E+03 -0.18970154731E+03 -0.39708584078E+03  0.61231022552E+03  0.40000000000E+03 0.  1.
<mgrwt>
<rscale>  2 0.46609725E+03</rscale>
<asrwt>0</asrwt>
<pdfrwt beam="1">  1       21 0.91886166E-01 0.46609725E+03</pdfrwt>
<pdfrwt beam="2">  1       21 0.94710441E-01 0.46609725E+03</pdfrwt>
<totfact> 0.78482362E+02</totfact>
</mgrwt>
</event>
<event>
 4    1  0.5013722E-002  0.5451075E+03  0.7818608E-02  0.1002633E+00
         21   -1    0    0  503  502  0.00000000000E+00  0.00000000000E+00  0.15136353421E+03  0.15136353421E+03  0.00000000000E+00 0.  1.
         21   -1    0    0  501  503 -0.00000000000E+00 -0.00000000000E+00 -0.21451005724E+04  0.21451005724E+04  0.00000000000E+00 0.  1.
    9000007    1    1    2  501    0 -0.53322717825E+02  0.36646806418E+03 -0.13313245708E+04  0.14385990640E+04  0.40000000000E+03 0.  1.
   -9000007    1    1    2    0  502  0.53322717825E+02 -0.36646806418E+03 -0.66241246745E+03  0.85786504261E+03  0.40000000000E+03 0.  1.
<mgrwt>
<rscale>  2 0.54510747E+03</rscale>
<asrwt>0</asrwt>
<pdfrwt beam="1">  1       21 0.23286699E-01 0.54510747E+03</pdfrwt>
<pdfrwt beam="2">  1       21 0.33001545E+00 0.54510747E+03</pdfrwt>
<totfact> 0.29474623E+02</totfact>
</mgrwt>
</event>
<event>
 4    1  0.5013722E-002  0.4681939E+03  0.7818608E-02  0.1022431E+00
         21   -1    0    0  503  502  0.00000000000E+00  0.00000000000E+00  0.22303122675E+03  0.22303122675E+03  0.00000000000E+00 0. -1.
         21   -1    0    0  501  503 -0.00000000000E+00 -0.00000000000E+00 -0.12262684582E+04  0.12262684582E+04  0.00000000000E+00 0. -1.
    9000007    1    1    2  501    0  0.19742557700E+03 -0.14222740938E+03 -0.82447930071E+03  0.94814113492E+03  0.40000000000E+03 0. -1.
   -9000007    1    1    2    0  502 -0.19742557700E+03  0.14222740938E+03 -0.17875793071E+03  0.50115854998E+03  0.40000000000E+03 0. -1.
<mgrwt>
<rscale>  2 0.46819386E+03</rscale>
<asrwt>0</asrwt>
<pdfrwt beam="1">  1       21 0.34312496E-01 0.46819386E+03</pdfrwt>
<pdfrwt beam="2">  1       21 0.18865669E+00 0.46819386E+03</pdfrwt>
<totfact> 0.10838550E+03</totfact>
</mgrwt>
</event>
<event>
 4    1  0.5013722E-002  0.4009662E+03  0.7818608E-02  0.1043446E+00
         21   -1    0    0  501  502  0.00000000000E+00  0.00000000000E+00  0.15664440799E+03  0.15664440799E+03  0.00000000000E+00 0. -1.
         21   -1    0    0  502  503 -0.00000000000E+00 -0.00000000000E+00 -0.13194251497E+04  0.13194251497E+04  0.00000000000E+00 0. -1.
    9000007    1    1    2  501    0 -0.41738786860E+01 -0.27504600665E+02 -0.23356217166E+03  0.46403147776E+03  0.40000000000E+03 0. -1.
   -9000007    1    1    2    0  503  0.41738786860E+01  0.27504600665E+02 -0.92921857002E+03  0.10120380799E+04  0.40000000000E+03 0. -1.
<mgrwt>
<rscale>  2 0.40096624E+03</rscale>
<asrwt>0</asrwt>
<pdfrwt beam="1">  1       21 0.24099140E-01 0.40096624E+03</pdfrwt>
<pdfrwt beam="2">  1       21 0.20298848E+00 0.40096624E+03</pdfrwt>
<totfact> 0.17992132E+03</totfact>
</mgrwt>
</event>
<event>
 4    1  0.5013722E-002  0.4536585E+03  0.7818608E-02  0.1026637E+00
         21   -1    0    0  503  502  0.00000000000E+00  0.00000000000E+00  0.68491267372E+03  0.68491267372E+03  0.00000000000E+00 0. -1.
         21   -1    0    0  501  503 -0.00000000000E+00 -0.00000000000E+00 -0.35070320421E+03  0.35070320421E+03  0.00000000000E+00 0. -1.
    9000007    1    1    2  501    0 -0.17488633545E+03 -0.12337271652E+03  0.36304738042E+03  0.58104170069E+03  0.40000000000E+03 0. -1.
   -9000007    1    1    2    0  502  0.17488633545E+03  0.12337271652E+03 -0.28837910908E+02  0.45457417724E+03  0.40000000000E+03 0. -1.
<mgrwt>
<rscale>  2 0.45365853E+03</rscale>
<asrwt>0</asrwt>
<pdfrwt beam="1">  1       21 0.10537118E+00 0.45365853E+03</pdfrwt>
<pdfrwt beam="2">  1       21 0.53954339E-01 0.45365853E+03</pdfrwt>
<totfact> 0.20263078E+03</totfact>
</mgrwt>
</event>
<event>
 4    1  0.5013722E-002  0.4190513E+03  0.7818608E-02  0.1037375E+00
         21   -1    0    0  501  502  0.00000000000E+00  0.00000000000E+00  0.86793433265E+03  0.86793433265E+03  0.00000000000E+00 0.  1.
         21   -1    0    0  502  503 -0.00000000000E+00 -0.00000000000E+00 -0.33013887629E+03  0.33013887629E+03  0.00000000000E+00 0.  1.
    9000007    1    1    2  501    0 -0.96450978336E+02  0.79380359134E+02  0.64162876630E+03  0.76634946753E+03  0.40000000000E+03 0.  1.
   -9000007    1    1    2    0  503  0.96450978336E+02 -0.79380359134E+02 -0.10383330995E+03  0.43172374141E+03  0.40000000000E+03 0.  1.
<mgrwt>
<rscale>  2 0.41905135E+03</rscale>
<asrwt>0</asrwt>
<pdfrwt beam="1">  1       21 0.13352836E+00 0.41905135E+03</pdfrwt>
<pdfrwt beam="2">  1       21 0.50790597E-01 0.41905135E+03</pdfrwt>
<totfact> 0.12845848E+03</totfact>
</mgrwt>
</event>
<event>
 4    1  0.5013722E-002  0.4550260E+03  0.7818608E-02  0.1026234E+00
         21   -1    0    0  503  502  0.00000000000E+00  0.00000000000E+00  0.44448560313E+03  0.44448560313E+03  0.00000000000E+00 0. -1.
         21   -1    0    0  501  503 -0.00000000000E+00 -0.00000000000E+00 -0.48530617207E+03  0.48530617207E+03  0.00000000000E+00 0. -1.
    9000007    1    1    2  501    0 -0.32492916169E+02  0.21445958305E+03 -0.11357483746E+03  0.46898608302E+03  0.40000000000E+03 0. -1.
   -9000007    1    1    2    0  502  0.32492916169E+02 -0.21445958305E+03  0.72754268521E+02  0.46080569219E+03  0.40000000000E+03 0. -1.
<mgrwt>
<rscale>  2 0.45502605E+03</rscale>
<asrwt>0</asrwt>
<pdfrwt beam="1">  1       21 0.68382401E-01 0.45502605E+03</pdfrwt>
<pdfrwt beam="2">  1       21 0.74662488E-01 0.45502605E+03</pdfrwt>
<totfact> 0.27179663E+03</totfact>
</mgrwt>
</event>
<event>
 4    1  0.5013722E-002  0.4806833E+03  0.7818608E-02  0.1018948E+00
         21   -1    0    0  501  502  0.00000000000E+00  0.00000000000E+00  0.20830398551E+04  0.20830398551E+04  0.00000000000E+00 0. -1.
         21   -1    0    0  502  503 -0.00000000000E+00 -0.00000000000E+00 -0.16682776101E+03  0.16682776101E+03  0.00000000000E+00 0. -1.
    9000007    1    1    2  501    0 -0.11065009261E+03 -0.24251383013E+03  0.16093120255E+04  0.16795658951E+04  0.40000000000E+03 0. -1.
   -9000007    1    1    2    0  503  0.11065009261E+03  0.24251383013E+03  0.30690006860E+03  0.57030172094E+03  0.40000000000E+03 0. -1.
<mgrwt>
<rscale>  2 0.48068326E+03</rscale>
<asrwt>0</asrwt>
<pdfrwt beam="1">  1       21 0.32046765E+00 0.48068326E+03</pdfrwt>
<pdfrwt beam="2">  1       21 0.25665811E-01 0.48068326E+03</pdfrwt>
<totfact> 0.28845012E+02</totfact>
</mgrwt>
</event>
<event>
 4    1  0.5013722E-002  0.4621296E+03  0.7818608E-02  0.1024165E+00
         21   -1    0    0  503  502  0.00000000000E+00  0.00000000000E+00  0.37587340010E+03  0.37587340010E+03  0.00000000000E+00 0.  1.
         21   -1    0    0  501  503 -0.00000000000E+00 -0.00000000000E+00 -0.58633980371E+03  0.58633980371E+03  0.00000000000E+00 0.  1.
    9000007    1    1    2  501    0 -0.19968007152E+03 -0.11701108791E+03 -0.18990190897E+03  0.49962632105E+03  0.40000000000E+03 0.  1.
   -9000007    1    1    2    0  502  0.19968007152E+03  0.11701108791E+03 -0.20564494641E+02  0.46258688276E+03  0.40000000000E+03 0.  1.
<mgrwt>
<rscale>  2 0.46212956E+03</rscale>
<asrwt>0</asrwt>
<pdfrwt beam="1">  1       21 0.57826677E-01 0.46212956E+03</pdfrwt>
<pdfrwt beam="2">  1       21 0.90206123E-01 0.46212956E+03</pdfrwt>
<totfact> 0.25306241E+03</totfact>
</mgrwt>
</event>
<event>
 4    1  0.5013722E-002  0.4343179E+03  0.7818608E-02  0.1032505E+00
         21   -1    0    0  501  502  0.00000000000E+00  0.00000000000E+00  0.12266316894E+04  0.12266316894E+04  0.00000000000E+00 0. -1.
         21   -1    0    0  502  503 -0.00000000000E+00 -0.00000000000E+00 -0.28450453799E+03  0.28450453799E+03  0.00000000000E+00 0. -1.
    9000007    1    1    2  501    0  0.16026036106E+03  0.54301268592E+02  0.98322490213E+03  0.10748782346E+04  0.40000000000E+03 0. -1.
   -9000007    1    1    2    0  503 -0.16026036106E+03 -0.54301268592E+02 -0.41097750761E+02  0.43625799272E+03  0.40000000000E+03 0. -1.
<mgrwt>
<rscale>  2 0.43431787E+03</rscale>
<asrwt>0</asrwt>
<pdfrwt beam="1">  1       21 0.18871256E+00 0.43431787E+03</pdfrwt>
<pdfrwt beam="2">  1       21 0.43769930E-01 0.43431787E+03</pdfrwt>
<totfact> 0.66746913E+02</totfact>
</mgrwt>
</event>
<event>
 4    1  0.5013722E-002  0.4663277E+03  0.7818608E-02  0.1022962E+00
         21   -1    0    0  501  502  0.00000000000E+00  0.00000000000E+00  0.25112402229E+04  0.25112402229E+04  0.00000000000E+00 0. -1.
         21   -1    0    0  502  503 -0.00000000000E+00 -0.00000000000E+00 -0.25073076703E+03  0.25073076703E+03  0.00000000000E+00 0. -1.
    9000007    1    1    2  501    0 -0.22278564975E+03  0.88476375903E+02  0.22475978633E+04  0.22954645869E+04  0.40000000000E+03 0. -1.
   -9000007    1    1    2    0  503  0.22278564975E+03 -0.88476375903E+02  0.12911592607E+02  0.46650640301E+03  0.40000000000E+03 0. -1.
<mgrwt>
<rscale>  2 0.46632769E+03</rscale>
<asrwt>0</asrwt>
<pdfrwt beam="1">  1       21 0.38634463E+00 0.46632769E+03</pdfrwt>
<pdfrwt beam="2">  1       21 0.38573966E-01 0.46632769E+03</pdfrwt>
<totfact> 0.50499326E+01</totfact>
</mgrwt>
</event>
<event>
 4    1  0.5013722E-002  0.4127565E+03  0.7818608E-02  0.1039450E+00
         21   -1    0    0  501  502  0.00000000000E+00  0.00000000000E+00  0.39848002455E+03  0.39848002455E+03  0.00000000000E+00 0.  1.
         21   -1    0    0  502  503 -0.00000000000E+00 -0.00000000000E+00 -0.46633638221E+03  0.46633638221E+03  0.00000000000E+00 0.  1.
    9000007    1    1    2  501    0  0.10162591956E+03 -0.63321523548E+01  0.90785752769E+02  0.42262273553E+03  0.40000000000E+03 0.  1.
   -9000007    1    1    2    0  503 -0.10162591956E+03  0.63321523548E+01 -0.15864211043E+03  0.44219367124E+03  0.40000000000E+03 0.  1.
<mgrwt>
<rscale>  2 0.41275649E+03</rscale>
<asrwt>0</asrwt>
<pdfrwt beam="1">  1       21 0.61304619E-01 0.41275649E+03</pdfrwt>
<pdfrwt beam="2">  1       21 0.71744059E-01 0.41275649E+03</pdfrwt>
<totfact> 0.38501271E+03</totfact>
</mgrwt>
</event>
<event>
 4    1  0.5013722E-002  0.4405239E+03  0.7818608E-02  0.1030586E+00
         21   -1    0    0  503  502  0.00000000000E+00  0.00000000000E+00  0.15313161485E+03  0.15313161485E+03  0.00000000000E+00 0. -1.
         21   -1    0    0  501  503 -0.00000000000E+00 -0.00000000000E+00 -0.14939815081E+04  0.14939815081E+04  0.00000000000E+00 0. -1.
    9000007    1    1    2  501    0 -0.18191173083E+03  0.31135644005E+02 -0.99123193026E+03  0.10847128863E+04  0.40000000000E+03 0. -1.
   -9000007    1    1    2    0  502  0.18191173083E+03 -0.31135644005E+02 -0.34961796299E+03  0.56240023665E+03  0.40000000000E+03 0. -1.
<mgrwt>
<rscale>  2 0.44052390E+03</rscale>
<asrwt>0</asrwt>
<pdfrwt beam="1">  1       21 0.23558711E-01 0.44052390E+03</pdfrwt>
<pdfrwt beam="2">  1       21 0.22984330E+00 0.44052390E+03</pdfrwt>
<totfact> 0.12395661E+03</totfact>
</mgrwt>
</event>
<event>
 4    1  0.5013722E-002  0.4066084E+03  0.7818608E-02  0.1041515E+00
         21   -1    0    0  503  502  0.00000000000E+00  0.00000000000E+00  0.20908500487E+04  0.20908500487E+04  0.00000000000E+00 0. -1.
         21   -1    0    0  501  503 -0.00000000000E+00 -0.00000000000E+00 -0.91620129425E+02  0.91620129425E+02  0.00000000000E+00 0. -1.
    9000007    1    1    2  501    0  0.72757419005E+02  0.60644323909E+01  0.59579310643E+03  0.72131813025E+03  0.40000000000E+03 0.  1.
   -9000007    1    1    2    0  502 -0.72757419005E+02 -0.60644323909E+01  0.14034368129E+04  0.14611520479E+04  0.40000000000E+03 0.  1.
<mgrwt>
<rscale>  2 0.40660843E+03</rscale>
<asrwt>0</asrwt>
<pdfrwt beam="1">  1       21 0.32166920E+00 0.40660843E+03</pdfrwt>
<pdfrwt beam="2">  1       21 0.14095406E-01 0.40660843E+03</pdfrwt>
<totfact> 0.92282846E+02</totfact>
</mgrwt>
</event>
<event>
 4    1  0.5013722E-002  0.7163561E+03  0.7818608E-02  0.9689663E-01
         21   -1    0    0  503  502  0.00000000000E+00  0.00000000000E+00  0.30263403892E+03  0.30263403892E+03  0.00000000000E+00 0.  1.
         21   -1    0    0  501  503 -0.00000000000E+00 -0.00000000000E+00 -0.26860896053E+04  0.26860896053E+04  0.00000000000E+00 0.  1.
    9000007    1    1    2  501    0 -0.11773335459E+03  0.58249890549E+03 -0.20991430942E+04  0.22180098844E+04  0.40000000000E+03 0.  1.
   -9000007    1    1    2    0  502  0.11773335459E+03 -0.58249890549E+03 -0.28431247223E+03  0.77071375980E+03  0.40000000000E+03 0.  1.
<mgrwt>
<rscale>  2 0.71635614E+03</rscale>
<asrwt>0</asrwt>
<pdfrwt beam="1">  1       21 0.46559084E-01 0.71635614E+03</pdfrwt>
<pdfrwt beam="2">  1       21 0.41324454E+00 0.71635614E+03</pdfrwt>
<totfact> 0.19831758E+01</totfact>
</mgrwt>
</event>
<event>
 4    1  0.5013722E-002  0.4636206E+03  0.7818608E-02  0.1023736E+00
         21   -1    0    0  503  502  0.00000000000E+00  0.00000000000E+00  0.45953349059E+03  0.45953349059E+03  0.00000000000E+00 0.  1.
         21   -1    0    0  501  503 -0.00000000000E+00 -0.00000000000E+00 -0.51376549605E+03  0.51376549605E+03  0.00000000000E+00 0.  1.
    9000007    1    1    2  501    0 -0.50212321254E+02  0.22896013352E+03 -0.17276728384E+03  0.49476515067E+03  0.40000000000E+03 0.  1.
   -9000007    1    1    2    0  502  0.50212321254E+02 -0.22896013352E+03  0.11853527838E+03  0.47853383597E+03  0.40000000000E+03 0.  1.
<mgrwt>
<rscale>  2 0.46362056E+03</rscale>
<asrwt>0</asrwt>
<pdfrwt beam="1">  1       21 0.70697460E-01 0.46362056E+03</pdfrwt>
<pdfrwt beam="2">  1       21 0.79040845E-01 0.46362056E+03</pdfrwt>
<totfact> 0.22060997E+03</totfact>
</mgrwt>
</event>
<event>
 4    1  0.5013722E-002  0.4155270E+03  0.7818608E-02  0.1038532E+00
         21   -1    0    0  501  502  0.00000000000E+00  0.00000000000E+00  0.37341146751E+03  0.37341146751E+03  0.00000000000E+00 0. -1.
         21   -1    0    0  502  503 -0.00000000000E+00 -0.00000000000E+00 -0.47010861873E+03  0.47010861873E+03  0.00000000000E+00 0. -1.
    9000007    1    1    2  501    0  0.40048703504E+02 -0.10516062787E+03  0.56853108008E+01  0.41556585407E+03  0.40000000000E+03 0. -1.
   -9000007    1    1    2    0  503 -0.40048703504E+02  0.10516062787E+03 -0.10238246202E+03  0.42795423217E+03  0.40000000000E+03 0. -1.
<mgrwt>
<rscale>  2 0.41552696E+03</rscale>
<asrwt>0</asrwt>
<pdfrwt beam="1">  1       21 0.57447919E-01 0.41552696E+03</pdfrwt>
<pdfrwt beam="2">  1       21 0.72324402E-01 0.41552696E+03</pdfrwt>
<totfact> 0.43526471E+03</totfact>
</mgrwt>
</event>
<event>
 4    1  0.5013722E-002  0.5391364E+03  0.7818608E-02  0.1004040E+00
         21   -1    0    0  501  502  0.00000000000E+00  0.00000000000E+00  0.22156915811E+03  0.22156915811E+03  0.00000000000E+00 0.  1.
         21   -1    0    0  502  503 -0.00000000000E+00 -0.00000000000E+00 -0.17429491870E+04  0.17429491870E+04  0.00000000000E+00 0. -1.
    9000007    1    1    2  501    0  0.21725531866E+03  0.28890852956E+03 -0.12491923241E+04  0.13605695405E+04  0.40000000000E+03 0. -1.
   -9000007    1    1    2    0  503 -0.21725531866E+03 -0.28890852956E+03 -0.27218770477E+03  0.60394880459E+03  0.40000000000E+03 0.  1.
<mgrwt>
<rscale>  2 0.53913636E+03</rscale>
<asrwt>0</asrwt>
<pdfrwt beam="1">  1       21 0.34087563E-01 0.53913636E+03</pdfrwt>
<pdfrwt beam="2">  1       21 0.26814603E+00 0.53913636E+03</pdfrwt>
<totfact> 0.33038051E+02</totfact>
</mgrwt>
</event>
<event>
 4    1  0.5013722E-002  0.5076797E+03  0.7818608E-02  0.1011794E+00
         21   -1    0    0  501  502  0.00000000000E+00  0.00000000000E+00  0.15839081889E+03  0.15839081889E+03  0.00000000000E+00 0.  1.
         21   -1    0    0  502  503 -0.00000000000E+00 -0.00000000000E+00 -0.18128142278E+04  0.18128142278E+04  0.00000000000E+00 0.  1.
    9000007    1    1    2  501    0  0.29206410130E+03 -0.11152228100E+03 -0.51186159727E+03  0.72093061607E+03  0.40000000000E+03 0.  1.
   -9000007    1    1    2    0  503 -0.29206410130E+03  0.11152228100E+03 -0.11425618116E+04  0.12502744306E+04  0.40000000000E+03 0.  1.
<mgrwt>
<rscale>  2 0.50767968E+03</rscale>
<asrwt>0</asrwt>
<pdfrwt beam="1">  1       21 0.24367815E-01 0.50767968E+03</pdfrwt>
<pdfrwt beam="2">  1       21 0.27889453E+00 0.50767968E+03</pdfrwt>
<totfact> 0.56130689E+02</totfact>
</mgrwt>
</event>
<event>
 4    1  0.5013722E-002  0.5732699E+03  0.7818608E-02  0.9962469E-01
         21   -1    0    0  501  502  0.00000000000E+00  0.00000000000E+00  0.21948823644E+04  0.21948823644E+04  0.00000000000E+00 0. -1.
         21   -1    0    0  502  503 -0.00000000000E+00 -0.00000000000E+00 -0.36410232771E+03  0.36410232771E+03  0.00000000000E+00 0.  1.
    9000007    1    1    2  501    0  0.10256865885E+03 -0.39764065891E+03  0.18971626749E+04  0.19818841133E+04  0.40000000000E+03 0. -1.
   -9000007    1    1    2    0  503 -0.10256865885E+03  0.39764065891E+03 -0.66382638239E+02  0.57710057880E+03  0.40000000000E+03 0.  1.
<mgrwt>
<rscale>  2 0.57326994E+03</rscale>
<asrwt>0</asrwt>
<pdfrwt beam="1">  1       21 0.33767420E+00 0.57326994E+03</pdfrwt>
<pdfrwt beam="2">  1       21 0.56015744E-01 0.57326994E+03</pdfrwt>
<totfact> 0.43228209E+01</totfact>
</mgrwt>
</event>
<event>
 4    1  0.5013722E-002  0.4209283E+03  0.7818608E-02  0.1036765E+00
         21   -1    0    0  503  502  0.00000000000E+00  0.00000000000E+00  0.28926671997E+03  0.28926671997E+03  0.00000000000E+00 0. -1.
         21   -1    0    0  501  503 -0.00000000000E+00 -0.00000000000E+00 -0.62198528601E+03  0.62198528601E+03  0.00000000000E+00 0. -1.
    9000007    1    1    2  501    0  0.12251405430E+03  0.46593795442E+02 -0.11014292428E+03  0.43510014829E+03  0.40000000000E+03 0. -1.
   -9000007    1    1    2    0  502 -0.12251405430E+03 -0.46593795442E+02 -0.22257564176E+03  0.47615185769E+03  0.40000000000E+03 0. -1.
<mgrwt>
<rscale>  2 0.42092835E+03</rscale>
<asrwt>0</asrwt>
<pdfrwt beam="1">  1       21 0.44502573E-01 0.42092835E+03</pdfrwt>
<pdfrwt beam="2">  1       21 0.95690043E-01 0.42092835E+03</pdfrwt>
<totfact> 0.38998433E+03</totfact>
</mgrwt>
</event>
<event>
 4    1  0.5013722E-002  0.4253797E+03  0.7818608E-02  0.1035329E+00
         21   -1    0    0  503  502  0.00000000000E+00  0.00000000000E+00  0.17579862409E+03  0.17579862409E+03  0.00000000000E+00 0. -1.
         21   -1    0    0  501  503 -0.00000000000E+00 -0.00000000000E+00 -0.13274563377E+04  0.13274563377E+04  0.00000000000E+00 0. -1.
    9000007    1    1    2  501    0  0.12301517915E+03  0.76257266982E+02 -0.93205128217E+03  0.10245328192E+04  0.40000000000E+03 0. -1.
   -9000007    1    1    2    0  502 -0.12301517915E+03 -0.76257266982E+02 -0.21960643148E+03  0.47872214260E+03  0.40000000000E+03 0. -1.
<mgrwt>
<rscale>  2 0.42537972E+03</rscale>
<asrwt>0</asrwt>
<pdfrwt beam="1">  1       21 0.27045942E-01 0.42537972E+03</pdfrwt>
<pdfrwt beam="2">  1       21 0.20422405E+00 0.42537972E+03</pdfrwt>
<totfact> 0.13941215E+03</totfact>
</mgrwt>
</event>
<event>
 4    1  0.5013722E-002  0.5202922E+03  0.7818608E-02  0.1008614E+00
         21   -1    0    0  503  502  0.00000000000E+00  0.00000000000E+00  0.49595794322E+03  0.49595794322E+03  0.00000000000E+00 0.  1.
         21   -1    0    0  501  503 -0.00000000000E+00 -0.00000000000E+00 -0.10581628512E+04  0.10581628512E+04  0.00000000000E+00 0. -1.
    9000007    1    1    2  501    0  0.26380744470E+03  0.20275506160E+03 -0.82180532329E+03  0.97266025532E+03  0.40000000000E+03 0. -1.
   -9000007    1    1    2    0  502 -0.26380744470E+03 -0.20275506160E+03  0.25960041532E+03  0.58146053909E+03  0.40000000000E+03 0.  1.
<mgrwt>
<rscale>  2 0.52029221E+03</rscale>
<asrwt>0</asrwt>
<pdfrwt beam="1">  1       21 0.76301224E-01 0.52029221E+03</pdfrwt>
<pdfrwt beam="2">  1       21 0.16279428E+00 0.52029221E+03</pdfrwt>
<totfact> 0.29253019E+02</totfact>
</mgrwt>
</event>
<event>
 4    1  0.5013722E-002  0.4554272E+03  0.7818608E-02  0.1026116E+00
         21   -1    0    0  501  502  0.00000000000E+00  0.00000000000E+00  0.32501000336E+03  0.32501000336E+03  0.00000000000E+00 0. -1.
         21   -1    0    0  502  503 -0.00000000000E+00 -0.00000000000E+00 -0.72907950763E+03  0.72907950763E+03  0.00000000000E+00 0.  1.
    9000007    1    1    2  501    0 -0.16249485877E+03 -0.14494607504E+03 -0.15934172486E+02  0.45570587186E+03  0.40000000000E+03 0. -1.
   -9000007    1    1    2    0  503  0.16249485877E+03  0.14494607504E+03 -0.38813533178E+03  0.59838363913E+03  0.40000000000E+03 0.  1.
<mgrwt>
<rscale>  2 0.45542721E+03</rscale>
<asrwt>0</asrwt>
<pdfrwt beam="1">  1       21 0.50001540E-01 0.45542721E+03</pdfrwt>
<pdfrwt beam="2">  1       21 0.11216608E+00 0.45542721E+03</pdfrwt>
<totfact> 0.20412853E+03</totfact>
</mgrwt>
</event>
<event>
 4    1  0.5013722E-002  0.4455841E+03  0.7818608E-02  0.1029047E+00
         21   -1    0    0  503  502  0.00000000000E+00  0.00000000000E+00  0.25450603164E+03  0.25450603164E+03  0.00000000000E+00 0.  1.
         21   -1    0    0  501  503 -0.00000000000E+00 -0.00000000000E+00 -0.11251183266E+04  0.11251183266E+04  0.00000000000E+00 0.  1.
    9000007    1    1    2  501    0 -0.19181162074E+03  0.41875165941E+02 -0.81728585988E+03  0.93086057180E+03  0.40000000000E+03 0.  1.
   -9000007    1    1    2    0  502  0.19181162074E+03 -0.41875165941E+02 -0.53326435115E+02  0.44876378648E+03  0.40000000000E+03 0.  1.
<mgrwt>
<rscale>  2 0.44558414E+03</rscale>
<asrwt>0</asrwt>
<pdfrwt beam="1">  1       21 0.39154774E-01 0.44558414E+03</pdfrwt>
<pdfrwt beam="2">  1       21 0.17309513E+00 0.44558414E+03</pdfrwt>
<totfact> 0.10765614E+03</totfact>
</mgrwt>
</event>
<event>
 4    1  0.5013722E-002  0.6767241E+03  0.7818608E-02  0.9757886E-01
         21   -1    0    0  501  502  0.00000000000E+00  0.00000000000E+00  0.74034422447E+03  0.74034422447E+03  0.00000000000E+00 0.  1.
         21   -1    0    0  502  503 -0.00000000000E+00 -0.00000000000E+00 -0.63480034770E+03  0.63480034770E+03  0.00000000000E+00 0. -1.
    9000007    1    1    2  501    0  0.45745513702E+03  0.29780918777E+03 -0.57166473850E+02  0.67913439056E+03  0.40000000000E+03 0. -1.
   -9000007    1    1    2    0  503 -0.45745513702E+03 -0.29780918777E+03  0.16271035062E+03  0.69601018161E+03  0.40000000000E+03 0.  1.
<mgrwt>
<rscale>  2 0.67672411E+03</rscale>
<asrwt>0</asrwt>
<pdfrwt beam="1">  1       21 0.11389911E+00 0.67672411E+03</pdfrwt>
<pdfrwt beam="2">  1       21 0.97661593E-01 0.67672411E+03</pdfrwt>
<totfact> 0.39965037E+02</totfact>
</mgrwt>
</event>
<event>
 4    1  0.5013722E-002  0.5816115E+03  0.7818608E-02  0.9944308E-01
         21   -1    0    0  501  502  0.00000000000E+00  0.00000000000E+00  0.60608962476E+03  0.60608962476E+03  0.00000000000E+00 0.  1.
         21   -1    0    0  502  503 -0.00000000000E+00 -0.00000000000E+00 -0.57165717912E+03  0.57165717912E+03  0.00000000000E+00 0. -1.
    9000007    1    1    2  501    0 -0.21152741220E+03  0.36541491090E+03  0.10782858324E+03  0.59152253261E+03  0.40000000000E+03 0.  1.
   -9000007    1    1    2    0  503  0.21152741220E+03 -0.36541491090E+03 -0.73396137602E+02  0.58622427128E+03  0.40000000000E+03 0.  1.
<mgrwt>
<rscale>  2 0.58161147E+03</rscale>
<asrwt>0</asrwt>
<pdfrwt beam="1">  1       21 0.93244557E-01 0.58161147E+03</pdfrwt>
<pdfrwt beam="2">  1       21 0.87947259E-01 0.58161147E+03</pdfrwt>
<totfact> 0.86728261E+02</totfact>
</mgrwt>
</event>
<event>
 4    1  0.5013722E-002  0.5176560E+03  0.7818608E-02  0.1009270E+00
         21   -1    0    0  501  502  0.00000000000E+00  0.00000000000E+00  0.38419948652E+03  0.38419948652E+03  0.00000000000E+00 0. -1.
         21   -1    0    0  502  503 -0.00000000000E+00 -0.00000000000E+00 -0.85959404030E+03  0.85959404030E+03  0.00000000000E+00 0. -1.
    9000007    1    1    2  501    0  0.21335422601E+03  0.24989546161E+03  0.32384187198E+02  0.51866800853E+03  0.40000000000E+03 0. -1.
   -9000007    1    1    2    0  503 -0.21335422601E+03 -0.24989546161E+03 -0.50777874098E+03  0.72512551830E+03  0.40000000000E+03 0. -1.
<mgrwt>
<rscale>  2 0.51765603E+03</rscale>
<asrwt>0</asrwt>
<pdfrwt beam="1">  1       21 0.59107614E-01 0.51765603E+03</pdfrwt>
<pdfrwt beam="2">  1       21 0.13224524E+00 0.51765603E+03</pdfrwt>
<totfact> 0.91257171E+02</totfact>
</mgrwt>
</event>
<event>
 4    1  0.5013722E-002  0.4050928E+03  0.7818608E-02  0.1042030E+00
         21   -1    0    0  503  502  0.00000000000E+00  0.00000000000E+00  0.51969640176E+03  0.51969640176E+03  0.00000000000E+00 0.  1.
         21   -1    0    0  501  503 -0.00000000000E+00 -0.00000000000E+00 -0.37551079654E+03  0.37551079654E+03  0.00000000000E+00 0.  1.
    9000007    1    1    2  501    0  0.62607554809E+02  0.13433622045E+02 -0.10645248211E+03  0.41884639078E+03  0.40000000000E+03 0.  1.
   -9000007    1    1    2    0  502 -0.62607554809E+02 -0.13433622045E+02  0.25063808734E+03  0.47636080752E+03  0.40000000000E+03 0.  1.
<mgrwt>
<rscale>  2 0.40509279E+03</rscale>
<asrwt>0</asrwt>
<pdfrwt beam="1">  1       21 0.79953293E-01 0.40509279E+03</pdfrwt>
<pdfrwt beam="2">  1       21 0.57770892E-01 0.40509279E+03</pdfrwt>
<totfact> 0.34337363E+03</totfact>
</mgrwt>
</event>
<event>
 4    1  0.5013722E-002  0.4809074E+03  0.7818608E-02  0.1018886E+00
         21   -1    0    0  503  502  0.00000000000E+00  0.00000000000E+00  0.24860972496E+03  0.24860972496E+03  0.00000000000E+00 0. -1.
         21   -1    0    0  501  503 -0.00000000000E+00 -0.00000000000E+00 -0.98265080540E+03  0.98265080540E+03  0.00000000000E+00 0. -1.
    9000007    1    1    2  501    0 -0.11126644530E+03 -0.24267616250E+03 -0.22487161670E+03  0.53088528487E+03  0.40000000000E+03 0. -1.
   -9000007    1    1    2    0  502  0.11126644530E+03  0.24267616250E+03 -0.50916946374E+03  0.70037524549E+03  0.40000000000E+03 0. -1.
<mgrwt>
<rscale>  2 0.48090741E+03</rscale>
<asrwt>0</asrwt>
<pdfrwt beam="1">  1       21 0.38247650E-01 0.48090741E+03</pdfrwt>
<pdfrwt beam="2">  1       21 0.15117705E+00 0.48090741E+03</pdfrwt>
<totfact> 0.16260426E+03</totfact>
</mgrwt>
</event>
<event>
 4    1  0.5013722E-002  0.5124239E+03  0.7818608E-02  0.1010586E+00
         21   -1    0    0  503  502  0.00000000000E+00  0.00000000000E+00  0.13516962150E+03  0.13516962150E+03  0.00000000000E+00 0. -1.
         21   -1    0    0  501  503 -0.00000000000E+00 -0.00000000000E+00 -0.23367856042E+04  0.23367856042E+04  0.00000000000E+00 0. -1.
    9000007    1    1    2  501    0 -0.29959359303E+03  0.11323393006E+03 -0.59316222117E+03  0.78384926135E+03  0.40000000000E+03 0. -1.
   -9000007    1    1    2    0  502  0.29959359303E+03 -0.11323393006E+03 -0.16084537615E+04  0.16881059644E+04  0.40000000000E+03 0. -1.
<mgrwt>
<rscale>  2 0.51242389E+03</rscale>
<asrwt>0</asrwt>
<pdfrwt beam="1">  1       21 0.20795329E-01 0.51242389E+03</pdfrwt>
<pdfrwt beam="2">  1       21 0.35950543E+00 0.51242389E+03</pdfrwt>
<totfact> 0.24547596E+02</totfact>
</mgrwt>
</event>
<event>
 4    1  0.5013722E-002  0.5320327E+03  0.7818608E-02  0.1005740E+00
         21   -1    0    0  501  502  0.00000000000E+00  0.00000000000E+00  0.13735394091E+04  0.13735394091E+04  0.00000000000E+00 0. -1.
         21   -1    0    0  502  503 -0.00000000000E+00 -0.00000000000E+00 -0.29789597496E+03  0.29789597496E+03  0.00000000000E+00 0.  1.
    9000007    1    1    2  501    0 -0.32351884993E+03 -0.13562570525E+03  0.10017883922E+04  0.11343010010E+04  0.40000000000E+03 0. -1.
   -9000007    1    1    2    0  503  0.32351884993E+03  0.13562570525E+03  0.73855041904E+02  0.53713438300E+03  0.40000000000E+03 0.  1.
<mgrwt>
<rscale>  2 0.53203269E+03</rscale>
<asrwt>0</asrwt>
<pdfrwt beam="1">  1       21 0.21131375E+00 0.53203269E+03</pdfrwt>
<pdfrwt beam="2">  1       21 0.45830151E-01 0.53203269E+03</pdfrwt>
<totfact> 0.40924852E+02</totfact>
</mgrwt>
</event>
<event>
 4    1  0.5013722E-002  0.4030224E+03  0.7818608E-02  0.1042738E+00
         21   -1    0    0  503  502  0.00000000000E+00  0.00000000000E+00  0.13436728175E+04  0.13436728175E+04  0.00000000000E+00 0.  1.
         21   -1    0    0  501  503 -0.00000000000E+00 -0.00000000000E+00 -0.13418910806E+03  0.13418910806E+03  0.00000000000E+00 0.  1.
    9000007    1    1    2  501    0 -0.46502990077E+02  0.16265230813E+02  0.37205483559E+03  0.54849966865E+03  0.40000000000E+03 0.  1.
   -9000007    1    1    2    0  502  0.46502990077E+02 -0.16265230813E+02  0.83742887386E+03  0.92936225692E+03  0.40000000000E+03 0.  1.
<mgrwt>
<rscale>  2 0.40302244E+03</rscale>
<asrwt>0</asrwt>
<pdfrwt beam="1">  1       21 0.20671889E+00 0.40302244E+03</pdfrwt>
<pdfrwt beam="2">  1       21 0.20644479E-01 0.40302244E+03</pdfrwt>
<totfact> 0.22863202E+03</totfact>
</mgrwt>
</event>
<event>
 4    1  0.5013722E-002  0.4531020E+03  0.7818608E-02  0.1026801E+00
         21   -1    0    0  501  502  0.00000000000E+00  0.00000000000E+00  0.57472444594E+03  0.57472444594E+03  0.00000000000E+00 0.  1.
         21   -1    0    0  502  503 -0.00000000000E+00 -0.00000000000E+00 -0.85812315744E+03  0.85812315744E+03  0.00000000000E+00 0.  1.
    9000007    1    1    2  501    0  0.13367139592E+03 -0.16563022816E+03  0.40566098303E+03  0.60816301082E+03  0.40000000000E+03 0.  1.
   -9000007    1    1    2    0  503 -0.13367139592E+03  0.16563022816E+03 -0.68905969454E+03  0.82468459256E+03  0.40000000000E+03 0.  1.
<mgrwt>
<rscale>  2 0.45310199E+03</rscale>
<asrwt>0</asrwt>
<pdfrwt beam="1">  1       21 0.88419146E-01 0.45310199E+03</pdfrwt>
<pdfrwt beam="2">  1       21 0.13201895E+00 0.45310199E+03</pdfrwt>
<totfact> 0.37714095E+02</totfact>
</mgrwt>
</event>
<event>
 4    1  0.5013722E-002  0.4977464E+03  0.7818608E-02  0.1014369E+00
         21   -1    0    0  503  502  0.00000000000E+00  0.00000000000E+00  0.10069896377E+04  0.10069896377E+04  0.00000000000E+00 0.  1.
         21   -1    0    0  501  503 -0.00000000000E+00 -0.00000000000E+00 -0.24657711871E+03  0.24657711871E+03  0.00000000000E+00 0.  1.
    9000007    1    1    2  501    0  0.24269644963E+02 -0.29523295128E+03  0.40968108461E+03  0.64466278183E+03  0.40000000000E+03 0.  1.
   -9000007    1    1    2    0  502 -0.24269644963E+02  0.29523295128E+03  0.35073143434E+03  0.60890397455E+03  0.40000000000E+03 0.  1.
<mgrwt>
<rscale>  2 0.49774643E+03</rscale>
<asrwt>0</asrwt>
<pdfrwt beam="1">  1       21 0.15492148E+00 0.49774643E+03</pdfrwt>
<pdfrwt beam="2">  1       21 0.37934942E-01 0.49774643E+03</pdfrwt>
<totfact> 0.15366489E+03</totfact>
</mgrwt>
</event>
<event>
 4    1  0.5013722E-002  0.4045101E+03  0.7818608E-02  0.1042229E+00
         21   -1    0    0  503  502  0.00000000000E+00  0.00000000000E+00  0.52600775468E+03  0.52600775468E+03  0.00000000000E+00 0. -1.
         21   -1    0    0  501  503 -0.00000000000E+00 -0.00000000000E+00 -0.44108945370E+03  0.44108945370E+03  0.00000000000E+00 0. -1.
    9000007    1    1    2  501    0  0.33459960104E+02  0.50088551462E+02 -0.22006593345E+03  0.46049695654E+03  0.40000000000E+03 0. -1.
   -9000007    1    1    2    0  502 -0.33459960104E+02 -0.50088551462E+02  0.30498423443E+03  0.50660025184E+03  0.40000000000E+03 0. -1.
<mgrwt>
<rscale>  2 0.40451011E+03</rscale>
<asrwt>0</asrwt>
<pdfrwt beam="1">  1       21 0.80924270E-01 0.40451011E+03</pdfrwt>
<pdfrwt beam="2">  1       21 0.67859916E-01 0.40451011E+03</pdfrwt>
<totfact> 0.23431013E+03</totfact>
</mgrwt>
</event>
<event>
 4    1  0.5013722E-002  0.4981548E+03  0.7818608E-02  0.1014262E+00
         21   -1    0    0  501  502  0.00000000000E+00  0.00000000000E+00  0.11322724955E+04  0.11322724955E+04  0.00000000000E+00 0. -1.
         21   -1    0    0  502  503 -0.00000000000E+00 -0.00000000000E+00 -0.26864147375E+03  0.26864147375E+03  0.00000000000E+00 0. -1.
    9000007    1    1    2  501    0 -0.19825503113E+03 -0.22102752922E+03  0.13122181262E+03  0.51514793035E+03  0.40000000000E+03 0. -1.
   -9000007    1    1    2    0  503  0.19825503113E+03  0.22102752922E+03  0.73240920912E+03  0.88576603889E+03  0.40000000000E+03 0. -1.
<mgrwt>
<rscale>  2 0.49815482E+03</rscale>
<asrwt>0</asrwt>
<pdfrwt beam="1">  1       21 0.17419577E+00 0.49815482E+03</pdfrwt>
<pdfrwt beam="2">  1       21 0.41329458E-01 0.49815482E+03</pdfrwt>
<totfact> 0.92465723E+02</totfact>
</mgrwt>
</event>
<event>
 4    1  0.5013722E-002  0.4074090E+03  0.7818608E-02  0.1041244E+00
         21   -1    0    0  501  502  0.00000000000E+00  0.00000000000E+00  0.15285303179E+03  0.15285303179E+03  0.00000000000E+00 0.  1.
         21   -1    0    0  502  503 -0.00000000000E+00 -0.00000000000E+00 -0.26776990429E+04  0.26776990429E+04  0.00000000000E+00 0.  1.
    9000007    1    1    2  501    0  0.64637232422E+01 -0.77073534383E+02 -0.17122068236E+03  0.44192604753E+03  0.40000000000E+03 0.  1.
   -9000007    1    1    2    0  503 -0.64637232422E+01  0.77073534383E+02 -0.23536253287E+04  0.23886260271E+04  0.40000000000E+03 0.  1.
<mgrwt>
<rscale>  2 0.40740902E+03</rscale>
<asrwt>0</asrwt>
<pdfrwt beam="1">  1       21 0.23515853E-01 0.40740902E+03</pdfrwt>
<pdfrwt beam="2">  1       21 0.41195367E+00 0.40740902E+03</pdfrwt>
<totfact> 0.96688542E+01</totfact>
</mgrwt>
</event>
<event>
 4    1  0.5013722E-002  0.8407639E+03  0.7818608E-02  0.9502818E-01
         21   -1    0    0  501  502  0.00000000000E+00  0.00000000000E+00  0.11621611015E+04  0.11621611015E+04  0.00000000000E+00 0.  1.
         21   -1    0    0  502  503 -0.00000000000E+00 -0.00000000000E+00 -0.61826105212E+03  0.61826105212E+03  0.00000000000E+00 0.  1.
    9000007    1    1    2  501    0  0.67427635164E+01  0.73948522343E+03  0.38523143802E+03  0.92481734487E+03  0.40000000000E+03 0.  1.
   -9000007    1    1    2    0  503 -0.67427635164E+01 -0.73948522343E+03  0.15866861137E+03  0.85560480876E+03  0.40000000000E+03 0.  1.
<mgrwt>
<rscale>  2 0.84076386E+03</rscale>
<asrwt>0</asrwt>
<pdfrwt beam="1">  1       21 0.17879402E+00 0.84076386E+03</pdfrwt>
<pdfrwt beam="2">  1       21 0.95117085E-01 0.84076386E+03</pdfrwt>
<totfact> 0.11876954E+02</totfact>
</mgrwt>
</event>
<event>
 4    1  0.5013722E-002  0.5175321E+03  0.7818608E-02  0.1009301E+00
         21   -1    0    0  501  502  0.00000000000E+00  0.00000000000E+00  0.11589609449E+04  0.11589609449E+04  0.00000000000E+00 0.  1.
         21   -1    0    0  502  503 -0.00000000000E+00 -0.00000000000E+00 -0.25387728187E+03  0.25387728187E+03  0.00000000000E+00 0.  1.
    9000007    1    1    2  501    0  0.30930741152E+03 -0.11031040198E+03  0.24096311631E+03  0.57087886896E+03  0.40000000000E+03 0.  1.
   -9000007    1    1    2    0  503 -0.30930741152E+03  0.11031040198E+03  0.66412054670E+03  0.84195935778E+03  0.40000000000E+03 0.  1.
<mgrwt>
<rscale>  2 0.51753209E+03</rscale>
<asrwt>0</asrwt>
<pdfrwt beam="1">  1       21 0.17830168E+00 0.51753209E+03</pdfrwt>
<pdfrwt beam="2">  1       21 0.39058044E-01 0.51753209E+03</pdfrwt>
<totfact> 0.96387590E+02</totfact>
</mgrwt>
</event>
<event>
 4    1  0.5013722E-002  0.4034756E+03  0.7818608E-02  0.1042583E+00
         21   -1    0    0  501  502  0.00000000000E+00  0.00000000000E+00  0.48791191369E+03  0.48791191369E+03  0.00000000000E+00 0. -1.
         21   -1    0    0  502  503 -0.00000000000E+00 -0.00000000000E+00 -0.36867730473E+03  0.36867730473E+03  0.00000000000E+00 0. -1.
    9000007    1    1    2  501    0 -0.16181557243E+01 -0.52820243051E+02  0.19162911065E+03  0.44667025035E+03  0.40000000000E+03 0. -1.
   -9000007    1    1    2    0  503  0.16181557243E+01  0.52820243051E+02 -0.72394501692E+02  0.40991896806E+03  0.40000000000E+03 0. -1.
<mgrwt>
<rscale>  2 0.40347565E+03</rscale>
<asrwt>0</asrwt>
<pdfrwt beam="1">  1       21 0.75063371E-01 0.40347565E+03</pdfrwt>
<pdfrwt beam="2">  1       21 0.56719585E-01 0.40347565E+03</pdfrwt>
<totfact> 0.41313677E+03</totfact>
</mgrwt>
</event>
<event>
 4    1  0.5013722E-002  0.5135457E+03  0.7818608E-02  0.1010303E+00
         21   -1    0    0  501  502  0.00000000000E+00  0.00000000000E+00  0.50979088817E+03  0.50979088817E+03  0.00000000000E+00 0. -1.
         21   -1    0    0  502  503 -0.00000000000E+00 -0.00000000000E+00 -0.55500720086E+03  0.55500720086E+03  0.00000000000E+00 0.  1.
    9000007    1    1    2  501    0 -0.14122589950E+02 -0.32176041447E+03 -0.16132766509E+03  0.53828972440E+03  0.40000000000E+03 0.  1.
   -9000007    1    1    2    0  503  0.14122589950E+02  0.32176041447E+03  0.11611135240E+03  0.52650836463E+03  0.40000000000E+03 0. -1.
<mgrwt>
<rscale>  2 0.51354573E+03</rscale>
<asrwt>0</asrwt>
<pdfrwt beam="1">  1       21 0.78429368E-01 0.51354573E+03</pdfrwt>
<pdfrwt beam="2">  1       21 0.85385723E-01 0.51354573E+03</pdfrwt>
<totfact> 0.14292421E+03</totfact>
</mgrwt>
</event>
<event>
 4    1  0.5013722E-002  0.4221284E+03  0.7818608E-02  0.1036376E+00
         21   -1    0    0  501  502  0.00000000000E+00  0.00000000000E+00  0.11761292234E+04  0.11761292234E+04  0.00000000000E+00 0.  1.
         21   -1    0    0  502  503 -0.00000000000E+00 -0.00000000000E+00 -0.18912473810E+03  0.18912473810E+03  0.00000000000E+00 0.  1.
    9000007    1    1    2  501    0 -0.13480540884E+03 -0.44619369258E+01  0.79794292713E+03  0.90272106549E+03  0.40000000000E+03 0.  1.
   -9000007    1    1    2    0  503  0.13480540884E+03  0.44619369258E+01  0.18906155820E+03  0.46253289604E+03  0.40000000000E+03 0.  1.
<mgrwt>
<rscale>  2 0.42212842E+03</rscale>
<asrwt>0</asrwt>
<pdfrwt beam="1">  1       21 0.18094295E+00 0.42212842E+03</pdfrwt>
<pdfrwt beam="2">  1       21 0.29096114E-01 0.42212842E+03</pdfrwt>
<totfact> 0.17395384E+03</totfact>
</mgrwt>
</event>
<event>
 4    1  0.5013722E-002  0.4014298E+03  0.7818608E-02  0.1043286E+00
         21   -1    0    0  503  502  0.00000000000E+00  0.00000000000E+00  0.11087948821E+04  0.11087948821E+04  0.00000000000E+00 0.  1.
         21   -1    0    0  501  503 -0.00000000000E+00 -0.00000000000E+00 -0.16836727619E+03  0.16836727619E+03  0.00000000000E+00 0.  1.
    9000007    1    1    2  501    0  0.19633333853E+02 -0.27576236631E+02  0.23402335502E+03  0.46466423073E+03  0.40000000000E+03 0.  1.
   -9000007    1    1    2    0  502 -0.19633333853E+02  0.27576236631E+02  0.70640425092E+03  0.81249792759E+03  0.40000000000E+03 0.  1.
<mgrwt>
<rscale>  2 0.40142984E+03</rscale>
<asrwt>0</asrwt>
<pdfrwt beam="1">  1       21 0.17058382E+00 0.40142984E+03</pdfrwt>
<pdfrwt beam="2">  1       21 0.25902659E-01 0.40142984E+03</pdfrwt>
<totfact> 0.26142479E+03</totfact>
</mgrwt>
</event>
<event>
 4    1  0.5013722E-002  0.5063905E+03  0.7818608E-02  0.1012124E+00
         21   -1    0    0  501  502  0.00000000000E+00  0.00000000000E+00  0.46486084974E+03  0.46486084974E+03  0.00000000000E+00 0.  1.
         21   -1    0    0  502  503 -0.00000000000E+00 -0.00000000000E+00 -0.59776211887E+03  0.59776211887E+03  0.00000000000E+00 0. -1.
    9000007    1    1    2  501    0  0.17017073458E+03 -0.25975621608E+03  0.81148865128E+02  0.51285135177E+03  0.40000000000E+03 0. -1.
   -9000007    1    1    2    0  503 -0.17017073458E+03  0.25975621608E+03 -0.21405013426E+03  0.54977161684E+03  0.40000000000E+03 0.  1.
<mgrwt>
<rscale>  2 0.50639053E+03</rscale>
<asrwt>0</asrwt>
<pdfrwt beam="1">  1       21 0.71517054E-01 0.50639053E+03</pdfrwt>
<pdfrwt beam="2">  1       21 0.91963403E-01 0.50639053E+03</pdfrwt>
<totfact> 0.14841843E+03</totfact>
</mgrwt>
</event>
<event>
 4    1  0.5013722E-002  0.4691011E+03  0.7818608E-02  0.1022174E+00
         21   -1    0    0  503  502  0.00000000000E+00  0.00000000000E+00  0.15220113506E+03  0.15220113506E+03  0.00000000000E+00 0.  1.
         21   -1    0    0  501  503 -0.00000000000E+00 -0.00000000000E+00 -0.15649640369E+04  0.15649640369E+04  0.00000000000E+00 0.  1.
    9000007    1    1    2  501    0  0.11333037197E+03 -0.21728337320E+03 -0.94327942774E+03  0.10534856033E+04  0.40000000000E+03 0.  1.
   -9000007    1    1    2    0  502 -0.11333037197E+03  0.21728337320E+03 -0.46948347414E+03  0.66367956875E+03  0.40000000000E+03 0.  1.
<mgrwt>
<rscale>  2 0.46910110E+03</rscale>
<asrwt>0</asrwt>
<pdfrwt beam="1">  1       21 0.23415559E-01 0.46910110E+03</pdfrwt>
<pdfrwt beam="2">  1       21 0.24076370E+00 0.46910110E+03</pdfrwt>
<totfact> 0.10573438E+03</totfact>
</mgrwt>
</event>
<event>
 4    1  0.5013722E-002  0.4295903E+03  0.7818608E-02  0.1033989E+00
         21   -1    0    0  503  502  0.00000000000E+00  0.00000000000E+00  0.64405144823E+03  0.64405144823E+03  0.00000000000E+00 0.  1.
         21   -1    0    0  501  503 -0.00000000000E+00 -0.00000000000E+00 -0.29705815079E+03  0.29705815079E+03  0.00000000000E+00 0.  1.
    9000007    1    1    2  501    0 -0.38471155699E+02  0.15188094063E+03  0.26203184484E+03  0.50319830848E+03  0.40000000000E+03 0.  1.
   -9000007    1    1    2    0  502  0.38471155699E+02 -0.15188094063E+03  0.84961452598E+02  0.43791129053E+03  0.40000000000E+03 0.  1.
<mgrwt>
<rscale>  2 0.42959033E+03</rscale>
<asrwt>0</asrwt>
<pdfrwt beam="1">  1       21 0.99084838E-01 0.42959033E+03</pdfrwt>
<pdfrwt beam="2">  1       21 0.45701254E-01 0.42959033E+03</pdfrwt>
<totfact> 0.33811770E+03</totfact>
</mgrwt>
</event>
<event>
 4    1  0.5013722E-002  0.4433305E+03  0.7818608E-02  0.1029730E+00
         21   -1    0    0  503  502  0.00000000000E+00  0.00000000000E+00  0.40654203121E+03  0.40654203121E+03  0.00000000000E+00 0.  1.
         21   -1    0    0  501  503 -0.00000000000E+00 -0.00000000000E+00 -0.48364510848E+03  0.48364510848E+03  0.00000000000E+00 0.  1.
    9000007    1    1    2  501    0  0.33706741512E+02 -0.18816436298E+03 -0.47534760052E+02  0.44587164670E+03  0.40000000000E+03 0.  1.
   -9000007    1    1    2    0  502 -0.33706741512E+02  0.18816436298E+03 -0.29568317222E+02  0.44431549298E+03  0.40000000000E+03 0.  1.
<mgrwt>
<rscale>  2 0.44333054E+03</rscale>
<asrwt>0</asrwt>
<pdfrwt beam="1">  1       21 0.62544928E-01 0.44333054E+03</pdfrwt>
<pdfrwt beam="2">  1       21 0.74406939E-01 0.44333054E+03</pdfrwt>
<totfact> 0.33546262E+03</totfact>
</mgrwt>
</event>
<event>
 4    1  0.5013722E-002  0.4221735E+03  0.7818608E-02  0.1036361E+00
         21   -1    0    0  503  502  0.00000000000E+00  0.00000000000E+00  0.12738205033E+04  0.12738205033E+04  0.00000000000E+00 0. -1.
         21   -1    0    0  501  503 -0.00000000000E+00 -0.00000000000E+00 -0.14183640233E+03  0.14183640233E+03  0.00000000000E+00 0.  1.
    9000007    1    1    2  501    0 -0.73371092199E+02 -0.11334508664E+03  0.64831164849E+03  0.77365264777E+03  0.40000000000E+03 0. -1.
   -9000007    1    1    2    0  502  0.73371092199E+02  0.11334508664E+03  0.48367245251E+03  0.64200425789E+03  0.40000000000E+03 0.  1.
<mgrwt>
<rscale>  2 0.42217345E+03</rscale>
<asrwt>0</asrwt>
<pdfrwt beam="1">  1       21 0.19597238E+00 0.42217345E+03</pdfrwt>
<pdfrwt beam="2">  1       21 0.21820986E-01 0.42217345E+03</pdfrwt>
<totfact> 0.24016064E+03</totfact>
</mgrwt>
</event>
<event>
 4    1  0.5013722E-002  0.5079893E+03  0.7818608E-02  0.1011714E+00
         21   -1    0    0  503  502  0.00000000000E+00  0.00000000000E+00  0.21006262987E+04  0.21006262987E+04  0.00000000000E+00 0. -1.
         21   -1    0    0  501  503 -0.00000000000E+00 -0.00000000000E+00 -0.14346193016E+03  0.14346193016E+03  0.00000000000E+00 0. -1.
    9000007    1    1    2  501    0  0.30972987783E+03  0.46049716151E+02  0.14039306721E+04  0.14930085417E+04  0.40000000000E+03 0. -1.
   -9000007    1    1    2    0  502 -0.30972987783E+03 -0.46049716151E+02  0.55323369646E+03  0.75107968717E+03  0.40000000000E+03 0. -1.
<mgrwt>
<rscale>  2 0.50798934E+03</rscale>
<asrwt>0</asrwt>
<pdfrwt beam="1">  1       21 0.32317325E+00 0.50798934E+03</pdfrwt>
<pdfrwt beam="2">  1       21 0.22071068E-01 0.50798934E+03</pdfrwt>
<totfact> 0.36669331E+02</totfact>
</mgrwt>
</event>
<event>
 4    1  0.5013722E-002  0.5336436E+03  0.7818608E-02  0.1005352E+00
         21   -1    0    0  501  502  0.00000000000E+00  0.00000000000E+00  0.14677624829E+04  0.14677624829E+04  0.00000000000E+00 0.  1.
         21   -1    0    0  502  503 -0.00000000000E+00 -0.00000000000E+00 -0.29687754938E+03  0.29687754938E+03  0.00000000000E+00 0. -1.
    9000007    1    1    2  501    0 -0.26278022367E+03  0.23605515310E+03  0.11047866191E+04  0.12269184794E+04  0.40000000000E+03 0.  1.
   -9000007    1    1    2    0  503  0.26278022367E+03 -0.23605515310E+03  0.66098314370E+02  0.53772155287E+03  0.40000000000E+03 0. -1.
<mgrwt>
<rscale>  2 0.53364359E+03</rscale>
<asrwt>0</asrwt>
<pdfrwt beam="1">  1       21 0.22580961E+00 0.53364359E+03</pdfrwt>
<pdfrwt beam="2">  1       21 0.45673470E-01 0.53364359E+03</pdfrwt>
<totfact> 0.33200922E+02</totfact>
</mgrwt>
</event>
<event>
 4    1  0.5013722E-002  0.4247173E+03  0.7818608E-02  0.1035542E+00
         21   -1    0    0  501  502  0.00000000000E+00  0.00000000000E+00  0.44030114551E+03  0.44030114551E+03  0.00000000000E+00 0.  1.
         21   -1    0    0  502  503 -0.00000000000E+00 -0.00000000000E+00 -0.41240285165E+03  0.41240285165E+03  0.00000000000E+00 0.  1.
    9000007    1    1    2  501    0 -0.37956721191E+02 -0.13763749922E+03  0.48560365187E+02  0.42748438912E+03  0.40000000000E+03 0. -1.
   -9000007    1    1    2    0  503  0.37956721191E+02  0.13763749922E+03 -0.20662071322E+02  0.42521960804E+03  0.40000000000E+03 0. -1.
<mgrwt>
<rscale>  2 0.42471731E+03</rscale>
<asrwt>0</asrwt>
<pdfrwt beam="1">  1       21 0.67738637E-01 0.42471731E+03</pdfrwt>
<pdfrwt beam="2">  1       21 0.63446593E-01 0.42471731E+03</pdfrwt>
<totfact> 0.40437226E+03</totfact>
</mgrwt>
</event>
<event>
 4    1  0.5013722E-002  0.4106880E+03  0.7818608E-02  0.1040140E+00
         21   -1    0    0  503  502  0.00000000000E+00  0.00000000000E+00  0.10703371173E+03  0.10703371173E+03  0.00000000000E+00 0. -1.
         21   -1    0    0  501  503 -0.00000000000E+00 -0.00000000000E+00 -0.18926904447E+04  0.18926904447E+04  0.00000000000E+00 0. -1.
    9000007    1    1    2  501    0  0.77645608403E+02 -0.51340273303E+02 -0.13019466123E+04  0.13651848393E+04  0.40000000000E+03 0. -1.
   -9000007    1    1    2    0  502 -0.77645608403E+02  0.51340273303E+02 -0.48371012074E+03  0.63453931720E+03  0.40000000000E+03 0. -1.
<mgrwt>
<rscale>  2 0.41068804E+03</rscale>
<asrwt>0</asrwt>
<pdfrwt beam="1">  1       21 0.16466724E-01 0.41068804E+03</pdfrwt>
<pdfrwt beam="2">  1       21 0.29118315E+00 0.41068804E+03</pdfrwt>
<totfact> 0.10508983E+03</totfact>
</mgrwt>
</event>
<event>
 4    1  0.5013722E-002  0.5542336E+03  0.7818608E-02  0.1000519E+00
         21   -1    0    0  503  502  0.00000000000E+00  0.00000000000E+00  0.14283216161E+03  0.14283216161E+03  0.00000000000E+00 0.  1.
         21   -1    0    0  501  503 -0.00000000000E+00 -0.00000000000E+00 -0.21621972051E+04  0.21621972051E+04  0.00000000000E+00 0.  1.
    9000007    1    1    2  501    0 -0.36534076214E+03 -0.11705133396E+03 -0.92527713278E+03  0.10785697287E+04  0.40000000000E+03 0.  1.
   -9000007    1    1    2    0  502  0.36534076214E+03  0.11705133396E+03 -0.10940879108E+04  0.12264596380E+04  0.40000000000E+03 0.  1.
<mgrwt>
<rscale>  2 0.55423360E+03</rscale>
<asrwt>0</asrwt>
<pdfrwt beam="1">  1       21 0.21974179E-01 0.55423360E+03</pdfrwt>
<pdfrwt beam="2">  1       21 0.33264572E+00 0.55423360E+03</pdfrwt>
<totfact> 0.31632519E+02</totfact>
</mgrwt>
</event>
<event>
 4    1  0.5013722E-002  0.6925379E+03  0.7818608E-02  0.9730079E-01
         21   -1    0    0  503  502  0.00000000000E+00  0.00000000000E+00  0.97234929495E+03  0.97234929495E+03  0.00000000000E+00 0. -1.
         21   -1    0    0  501  503 -0.00000000000E+00 -0.00000000000E+00 -0.68904690880E+03  0.68904690880E+03  0.00000000000E+00 0. -1.
    9000007    1    1    2  501    0  0.35046845793E+03 -0.44359965448E+03 -0.30116611391E+03  0.75518860004E+03  0.40000000000E+03 0. -1.
   -9000007    1    1    2    0  502 -0.35046845793E+03  0.44359965448E+03  0.58446850005E+03  0.90620760371E+03  0.40000000000E+03 0. -1.
<mgrwt>
<rscale>  2 0.69253794E+03</rscale>
<asrwt>0</asrwt>
<pdfrwt beam="1">  1       21 0.14959220E+00 0.69253794E+03</pdfrwt>
<pdfrwt beam="2">  1       21 0.10600722E+00 0.69253794E+03</pdfrwt>
<totfact> 0.15831895E+02</totfact>
</mgrwt>
</event>
<event>
 4    1  0.5013722E-002  0.4204539E+03  0.7818608E-02  0.1036919E+00
         21   -1    0    0  503  502  0.00000000000E+00  0.00000000000E+00  0.10892567849E+04  0.10892567849E+04  0.00000000000E+00 0. -1.
         21   -1    0    0  501  503 -0.00000000000E+00 -0.00000000000E+00 -0.20912421654E+03  0.20912421654E+03  0.00000000000E+00 0.  1.
    9000007    1    1    2  501    0 -0.12755985628E+03  0.22582525639E+02  0.13286285045E+03  0.44094673650E+03  0.40000000000E+03 0.  1.
   -9000007    1    1    2    0  502  0.12755985628E+03 -0.22582525639E+02  0.74726971794E+03  0.85743426497E+03  0.40000000000E+03 0. -1.
<mgrwt>
<rscale>  2 0.42045391E+03</rscale>
<asrwt>0</asrwt>
<pdfrwt beam="1">  1       21 0.16757796E+00 0.42045391E+03</pdfrwt>
<pdfrwt beam="2">  1       21 0.32172957E-01 0.42045391E+03</pdfrwt>
<totfact> 0.17768703E+03</totfact>
</mgrwt>
</event>
<event>
 4    1  0.5013722E-002  0.6355807E+03  0.7818608E-02  0.9834219E-01
         21   -1    0    0  501  502  0.00000000000E+00  0.00000000000E+00  0.60289994231E+03  0.60289994231E+03  0.00000000000E+00 0. -1.
         21   -1    0    0  502  503 -0.00000000000E+00 -0.00000000000E+00 -0.83996101633E+03  0.83996101633E+03  0.00000000000E+00 0.  1.
    9000007    1    1    2  501    0 -0.43700125395E+03 -0.23020160553E+03  0.20595651881E+03  0.66811747678E+03  0.40000000000E+03 0. -1.
   -9000007    1    1    2    0  503  0.43700125395E+03  0.23020160553E+03 -0.44301759282E+03  0.77474348186E+03  0.40000000000E+03 0.  1.
<mgrwt>
<rscale>  2 0.63558074E+03</rscale>
<asrwt>0</asrwt>
<pdfrwt beam="1">  1       21 0.92753837E-01 0.63558074E+03</pdfrwt>
<pdfrwt beam="2">  1       21 0.12922477E+00 0.63558074E+03</pdfrwt>
<totfact> 0.33136933E+02</totfact>
</mgrwt>
</event>
<event>
 4    1  0.5013722E-002  0.4517637E+03  0.7818608E-02  0.1027197E+00
         21   -1    0    0  503  502  0.00000000000E+00  0.00000000000E+00  0.19504033498E+03  0.19504033498E+03  0.00000000000E+00 0. -1.
         21   -1    0    0  501  503 -0.00000000000E+00 -0.00000000000E+00 -0.12151820462E+04  0.12151820462E+04  0.00000000000E+00 0. -1.
    9000007    1    1    2  501    0 -0.12813009037E+03 -0.16635227106E+03 -0.77285478055E+03  0.89520662976E+03  0.40000000000E+03 0. -1.
   -9000007    1    1    2    0  502  0.12813009037E+03  0.16635227106E+03 -0.24728693069E+03  0.51501575144E+03  0.40000000000E+03 0. -1.
<mgrwt>
<rscale>  2 0.45176365E+03</rscale>
<asrwt>0</asrwt>
<pdfrwt beam="1">  1       21 0.30006205E-01 0.45176365E+03</pdfrwt>
<pdfrwt beam="2">  1       21 0.18695109E+00 0.45176365E+03</pdfrwt>
<totfact> 0.14672090E+03</totfact>
</mgrwt>
</event>
<event>
 4    1  0.5013722E-002  0.5178233E+03  0.7818608E-02  0.1009229E+00
         21   -1    0    0  501  502  0.00000000000E+00  0.00000000000E+00  0.18657567977E+04  0.18657567977E+04  0.00000000000E+00 0.  1.
         21   -1    0    0  502  503 -0.00000000000E+00 -0.00000000000E+00 -0.30414487977E+03  0.30414487977E+03  0.00000000000E+00 0. -1.
    9000007    1    1    2  501    0  0.30512954629E+02  0.32742922721E+03  0.15687760788E+04  0.16520288510E+04  0.40000000000E+03 0.  1.
   -9000007    1    1    2    0  503 -0.30512954629E+02 -0.32742922721E+03 -0.71641608042E+01  0.51787282650E+03  0.40000000000E+03 0. -1.
<mgrwt>
<rscale>  2 0.51782327E+03</rscale>
<asrwt>0</asrwt>
<pdfrwt beam="1">  1       21 0.28703950E+00 0.51782327E+03</pdfrwt>
<pdfrwt beam="2">  1       21 0.46791521E-01 0.51782327E+03</pdfrwt>
<totfact> 0.13313787E+02</totfact>
</mgrwt>
</event>
<event>
 4    1  0.5013722E-002  0.4280203E+03  0.7818608E-02  0.1034487E+00
         21   -1    0    0  503  502  0.00000000000E+00  0.00000000000E+00  0.59035460174E+03  0.59035460174E+03  0.00000000000E+00 0.  1.
         21   -1    0    0  501  503 -0.00000000000E+00 -0.00000000000E+00 -0.77573932013E+03  0.77573932013E+03  0.00000000000E+00 0. -1.
    9000007    1    1    2  501    0 -0.10830490759E+03 -0.10710455641E+03 -0.62176205852E+03  0.75484395502E+03  0.40000000000E+03 0. -1.
   -9000007    1    1    2    0  502  0.10830490759E+03  0.10710455641E+03  0.43637734012E+03  0.61124996686E+03  0.40000000000E+03 0.  1.
<mgrwt>
<rscale>  2 0.42802026E+03</rscale>
<asrwt>0</asrwt>
<pdfrwt beam="1">  1       21 0.90823785E-01 0.42802026E+03</pdfrwt>
<pdfrwt beam="2">  1       21 0.11934451E+00 0.42802026E+03</pdfrwt>
<totfact> 0.46438020E+02</totfact>
</mgrwt>
</event>
<event>
 4    1  0.5013722E-002  0.4045627E+03  0.7818608E-02  0.1042211E+00
         21   -1    0    0  501  502  0.00000000000E+00  0.00000000000E+00  0.26721002398E+03  0.26721002398E+03  0.00000000000E+00 0.  1.
         21   -1    0    0  502  503 -0.00000000000E+00 -0.00000000000E+00 -0.61272795621E+03  0.61272795621E+03  0.00000000000E+00 0. -1.
    9000007    1    1    2  501    0  0.30559577746E+02  0.52317558938E+02 -0.18089850279E+03  0.44316507430E+03  0.40000000000E+03 0. -1.
   -9000007    1    1    2    0  503 -0.30559577746E+02 -0.52317558938E+02 -0.16461942944E+03  0.43677290588E+03  0.40000000000E+03 0. -1.
<mgrwt>
<rscale>  2 0.40456275E+03</rscale>
<asrwt>0</asrwt>
<pdfrwt beam="1">  1       21 0.41109234E-01 0.40456275E+03</pdfrwt>
<pdfrwt beam="2">  1       21 0.94265840E-01 0.40456275E+03</pdfrwt>
<totfact> 0.47947594E+03</totfact>
</mgrwt>
</event>
<event>
 4    1  0.5013722E-002  0.4137836E+03  0.7818608E-02  0.1039109E+00
         21   -1    0    0  501  502  0.00000000000E+00  0.00000000000E+00  0.72988820447E+03  0.72988820447E+03  0.00000000000E+00 0.  1.
         21   -1    0    0  502  503 -0.00000000000E+00 -0.00000000000E+00 -0.24076365663E+03  0.24076365663E+03  0.00000000000E+00 0.  1.
    9000007    1    1    2  501    0  0.10538211625E+03  0.10556443231E+02  0.32234396191E+03  0.52452117088E+03  0.40000000000E+03 0. -1.
   -9000007    1    1    2    0  503 -0.10538211625E+03 -0.10556443231E+02  0.16678058593E+03  0.44613069023E+03  0.40000000000E+03 0. -1.
<mgrwt>
<rscale>  2 0.41378355E+03</rscale>
<asrwt>0</asrwt>
<pdfrwt beam="1">  1       21 0.11229049E+00 0.41378355E+03</pdfrwt>
<pdfrwt beam="2">  1       21 0.37040563E-01 0.41378355E+03</pdfrwt>
<totfact> 0.38601106E+03</totfact>
</mgrwt>
</event>
<event>
 4    1  0.5013722E-002  0.4136154E+03  0.7818608E-02  0.1039165E+00
         21   -1    0    0  503  502  0.00000000000E+00  0.00000000000E+00  0.72698082357E+03  0.72698082357E+03  0.00000000000E+00 0. -1.
         21   -1    0    0  501  503 -0.00000000000E+00 -0.00000000000E+00 -0.79052141260E+03  0.79052141260E+03  0.00000000000E+00 0. -1.
    9000007    1    1    2  501    0 -0.16882689886E+02  0.10388777001E+03 -0.66763592222E+03  0.78537597278E+03  0.40000000000E+03 0. -1.
   -9000007    1    1    2    0  502  0.16882689886E+02 -0.10388777001E+03  0.60409533318E+03  0.73212626339E+03  0.40000000000E+03 0. -1.
<mgrwt>
<rscale>  2 0.41361539E+03</rscale>
<asrwt>0</asrwt>
<pdfrwt beam="1">  1       21 0.11184320E+00 0.41361539E+03</pdfrwt>
<pdfrwt beam="2">  1       21 0.12161868E+00 0.41361539E+03</pdfrwt>
<totfact> 0.26886130E+02</totfact>
</mgrwt>
</event>
<event>
 4    1  0.5013722E-002  0.4480321E+03  0.7818608E-02  0.1028311E+00
         21   -1    0    0  501  502  0.00000000000E+00  0.00000000000E+00  0.48844287959E+03  0.48844287959E+03  0.00000000000E+00 0. -1.
         21   -1    0    0  502  503 -0.00000000000E+00 -0.00000000000E+00 -0.41132324927E+03  0.41132324927E+03  0.00000000000E+00 0.  1.
    9000007    1    1    2  501    0 -0.16880884309E+03 -0.11061804074E+03  0.51842585989E+02  0.45102154069E+03  0.40000000000E+03 0. -1.
   -9000007    1    1    2    0  503  0.16880884309E+03  0.11061804074E+03  0.25277044326E+02  0.44874458817E+03  0.40000000000E+03 0.  1.
<mgrwt>
<rscale>  2 0.44803212E+03</rscale>
<asrwt>0</asrwt>
<pdfrwt beam="1">  1       21 0.75145058E-01 0.44803212E+03</pdfrwt>
<pdfrwt beam="2">  1       21 0.63280500E-01 0.44803212E+03</pdfrwt>
<totfact> 0.31910597E+03</totfact>
</mgrwt>
</event>
<event>
 4    1  0.5013722E-002  0.4355986E+03  0.7818608E-02  0.1032106E+00
         21   -1    0    0  501  502  0.00000000000E+00  0.00000000000E+00  0.12917728854E+04  0.12917728854E+04  0.00000000000E+00 0.  1.
         21   -1    0    0  502  503 -0.00000000000E+00 -0.00000000000E+00 -0.14694615991E+03  0.14694615991E+03  0.00000000000E+00 0.  1.
    9000007    1    1    2  501    0  0.16426708240E+03 -0.52558956976E+02  0.55811948788E+03  0.70798550908E+03  0.40000000000E+03 0.  1.
   -9000007    1    1    2    0  503 -0.16426708240E+03  0.52558956976E+02  0.58670723765E+03  0.73073353627E+03  0.40000000000E+03 0.  1.
<mgrwt>
<rscale>  2 0.43559857E+03</rscale>
<asrwt>0</asrwt>
<pdfrwt beam="1">  1       21 0.19873428E+00 0.43559857E+03</pdfrwt>
<pdfrwt beam="2">  1       21 0.22607103E-01 0.43559857E+03</pdfrwt>
<totfact> 0.21375022E+03</totfact>
</mgrwt>
</event>
<event>
 4    1  0.5013722E-002  0.4516365E+03  0.7818608E-02  0.1027235E+00
         21   -1    0    0  501  502  0.00000000000E+00  0.00000000000E+00  0.31513098392E+03  0.31513098392E+03  0.00000000000E+00 0. -1.
         21   -1    0    0  502  503 -0.00000000000E+00 -0.00000000000E+00 -0.64907643712E+03  0.64907643712E+03  0.00000000000E+00 0.  1.
    9000007    1    1    2  501    0 -0.45601268179E+02  0.20468515534E+03 -0.14155402265E+03  0.47330014769E+03  0.40000000000E+03 0.  1.
   -9000007    1    1    2    0  503  0.45601268179E+02 -0.20468515534E+03 -0.19239143055E+03  0.49090727335E+03  0.40000000000E+03 0. -1.
<mgrwt>
<rscale>  2 0.45163646E+03</rscale>
<asrwt>0</asrwt>
<pdfrwt beam="1">  1       21 0.48481690E-01 0.45163646E+03</pdfrwt>
<pdfrwt beam="2">  1       21 0.99857913E-01 0.45163646E+03</pdfrwt>
<totfact> 0.29064800E+03</totfact>
</mgrwt>
</event>
<event>
 4    1  0.5013722E-002  0.4047816E+03  0.7818608E-02  0.1042136E+00
         21   -1    0    0  501  502  0.00000000000E+00  0.00000000000E+00  0.32297504855E+03  0.32297504855E+03  0.00000000000E+00 0.  1.
         21   -1    0    0  502  503 -0.00000000000E+00 -0.00000000000E+00 -0.73730389298E+03  0.73730389298E+03  0.00000000000E+00 0.  1.
    9000007    1    1    2  501    0  0.12047279066E+02  0.60852624667E+02  0.88927040499E+02  0.41443479269E+03  0.40000000000E+03 0.  1.
   -9000007    1    1    2    0  503 -0.12047279066E+02 -0.60852624667E+02 -0.50325588494E+03  0.64584414884E+03  0.40000000000E+03 0.  1.
<mgrwt>
<rscale>  2 0.40478164E+03</rscale>
<asrwt>0</asrwt>
<pdfrwt beam="1">  1       21 0.49688470E-01 0.40478164E+03</pdfrwt>
<pdfrwt beam="2">  1       21 0.11343137E+00 0.40478164E+03</pdfrwt>
<totfact> 0.20527122E+03</totfact>
</mgrwt>
</event>
<event>
 4    1  0.5013722E-002  0.5910745E+03  0.7818608E-02  0.9924099E-01
         21   -1    0    0  503  502  0.00000000000E+00  0.00000000000E+00  0.94514713904E+03  0.94514713904E+03  0.00000000000E+00 0.  1.
         21   -1    0    0  501  503 -0.00000000000E+00 -0.00000000000E+00 -0.37251127655E+03  0.37251127655E+03  0.00000000000E+00 0. -1.
    9000007    1    1    2  501    0 -0.22343210690E+03 -0.37342622248E+03  0.22852811805E+03  0.63371456569E+03  0.40000000000E+03 0. -1.
   -9000007    1    1    2    0  502  0.22343210690E+03  0.37342622248E+03  0.34410774445E+03  0.68394384990E+03  0.40000000000E+03 0.  1.
<mgrwt>
<rscale>  2 0.59107449E+03</rscale>
<asrwt>0</asrwt>
<pdfrwt beam="1">  1       21 0.14540725E+00 0.59107449E+03</pdfrwt>
<pdfrwt beam="2">  1       21 0.57309427E-01 0.59107449E+03</pdfrwt>
<totfact> 0.73909778E+02</totfact>
</mgrwt>
</event>
<event>
 4    1  0.5013722E-002  0.4384710E+03  0.7818608E-02  0.1031217E+00
         21   -1    0    0  501  502  0.00000000000E+00  0.00000000000E+00  0.63986947383E+03  0.63986947383E+03  0.00000000000E+00 0.  1.
         21   -1    0    0  502  503 -0.00000000000E+00 -0.00000000000E+00 -0.30323229448E+03  0.30323229448E+03  0.00000000000E+00 0.  1.
    9000007    1    1    2  501    0  0.15257288563E+03 -0.94754204505E+02  0.12325177109E+03  0.45546442647E+03  0.40000000000E+03 0.  1.
   -9000007    1    1    2    0  503 -0.15257288563E+03  0.94754204505E+02  0.21338540826E+03  0.48763734184E+03  0.40000000000E+03 0.  1.
<mgrwt>
<rscale>  2 0.43847103E+03</rscale>
<asrwt>0</asrwt>
<pdfrwt beam="1">  1       21 0.98441457E-01 0.43847103E+03</pdfrwt>
<pdfrwt beam="2">  1       21 0.46651122E-01 0.43847103E+03</pdfrwt>
<totfact> 0.32788895E+03</totfact>
</mgrwt>
</event>
<event>
 4    1  0.5013722E-002  0.4045460E+03  0.7818608E-02  0.1042217E+00
         21   -1    0    0  503  502  0.00000000000E+00  0.00000000000E+00  0.12583236993E+04  0.12583236993E+04  0.00000000000E+00 0. -1.
         21   -1    0    0  501  503 -0.00000000000E+00 -0.00000000000E+00 -0.13010280331E+03  0.13010280331E+03  0.00000000000E+00 0. -1.
    9000007    1    1    2  501    0 -0.50661283738E+02 -0.33028666451E+02  0.55150439980E+03  0.68396970801E+03  0.40000000000E+03 0. -1.
   -9000007    1    1    2    0  502  0.50661283738E+02  0.33028666451E+02  0.57671649616E+03  0.70445679457E+03  0.40000000000E+03 0. -1.
<mgrwt>
<rscale>  2 0.40454599E+03</rscale>
<asrwt>0</asrwt>
<pdfrwt beam="1">  1       21 0.19358825E+00 0.40454599E+03</pdfrwt>
<pdfrwt beam="2">  1       21 0.20015817E-01 0.40454599E+03</pdfrwt>
<totfact> 0.29618066E+03</totfact>
</mgrwt>
</event>
<event>
 4    1  0.5013722E-002  0.4452868E+03  0.7818608E-02  0.1029137E+00
         21   -1    0    0  501  502  0.00000000000E+00  0.00000000000E+00  0.61577174608E+03  0.61577174608E+03  0.00000000000E+00 0.  1.
         21   -1    0    0  502  503 -0.00000000000E+00 -0.00000000000E+00 -0.32298900192E+03  0.32298900192E+03  0.00000000000E+00 0.  1.
    9000007    1    1    2  501    0 -0.15092346155E+01  0.19564780560E+03  0.12045717688E+03  0.46129196079E+03  0.40000000000E+03 0.  1.
   -9000007    1    1    2    0  503  0.15092346155E+01 -0.19564780560E+03  0.17232556728E+03  0.47746878721E+03  0.40000000000E+03 0.  1.
<mgrwt>
<rscale>  2 0.44528681E+03</rscale>
<asrwt>0</asrwt>
<pdfrwt beam="1">  1       21 0.94734114E-01 0.44528681E+03</pdfrwt>
<pdfrwt beam="2">  1       21 0.49690616E-01 0.44528681E+03</pdfrwt>
<totfact> 0.31389648E+03</totfact>
</mgrwt>
</event>
<event>
 4    1  0.5013722E-002  0.4198494E+03  0.7818608E-02  0.1037115E+00
         21   -1    0    0  501  502  0.00000000000E+00  0.00000000000E+00  0.11994454449E+03  0.11994454449E+03  0.00000000000E+00 0.  1.
         21   -1    0    0  502  503 -0.00000000000E+00 -0.00000000000E+00 -0.16012568849E+04  0.16012568849E+04  0.00000000000E+00 0.  1.
    9000007    1    1    2  501    0 -0.52112976762E+02  0.11643790865E+03 -0.49390961907E+03  0.64824398240E+03  0.40000000000E+03 0.  1.
   -9000007    1    1    2    0  503  0.52112976762E+02 -0.11643790865E+03 -0.98740272131E+03  0.10729574470E+04  0.40000000000E+03 0.  1.
<mgrwt>
<rscale>  2 0.41984944E+03</rscale>
<asrwt>0</asrwt>
<pdfrwt beam="1">  1       21 0.18453008E-01 0.41984944E+03</pdfrwt>
<pdfrwt beam="2">  1       21 0.24634719E+00 0.41984944E+03</pdfrwt>
<totfact> 0.15766040E+03</totfact>
</mgrwt>
</event>
<event>
 4    1  0.5013722E-002  0.8087291E+03  0.7818608E-02  0.9547467E-01
         21   -1    0    0  501  502  0.00000000000E+00  0.00000000000E+00  0.51350253668E+03  0.51350253668E+03  0.00000000000E+00 0. -1.
         21   -1    0    0  502  503 -0.00000000000E+00 -0.00000000000E+00 -0.18290261316E+04  0.18290261316E+04  0.00000000000E+00 0.  1.
    9000007    1    1    2  501    0 -0.70282506935E+03 -0.89307000944E+01 -0.12370523340E+02  0.80882375420E+03  0.40000000000E+03 0. -1.
   -9000007    1    1    2    0  503  0.70282506935E+03  0.89307000944E+01 -0.13031530716E+04  0.15337049141E+04  0.40000000000E+03 0.  1.
<mgrwt>
<rscale>  2 0.80872915E+03</rscale>
<asrwt>0</asrwt>
<pdfrwt beam="1">  1       21 0.79000391E-01 0.80872915E+03</pdfrwt>
<pdfrwt beam="2">  1       21 0.28138863E+00 0.80872915E+03</pdfrwt>
<totfact> 0.39855892E+01</totfact>
</mgrwt>
</event>
<event>
 4    1  0.5013722E-002  0.5408876E+03  0.7818608E-02  0.1003625E+00
         21   -1    0    0  503  502  0.00000000000E+00  0.00000000000E+00  0.15879173466E+04  0.15879173466E+04  0.00000000000E+00 0. -1.
         21   -1    0    0  501  503 -0.00000000000E+00 -0.00000000000E+00 -0.31983994498E+03  0.31983994498E+03  0.00000000000E+00 0.  1.
    9000007    1    1    2  501    0  0.33186355868E+03 -0.14975298645E+03  0.12947991403E+02  0.54104253900E+03  0.40000000000E+03 0.  1.
   -9000007    1    1    2    0  502 -0.33186355868E+03  0.14975298645E+03  0.12551294102E+04  0.13667147526E+04  0.40000000000E+03 0. -1.
<mgrwt>
<rscale>  2 0.54088758E+03</rscale>
<asrwt>0</asrwt>
<pdfrwt beam="1">  1       21 0.24429497E+00 0.54088758E+03</pdfrwt>
<pdfrwt beam="2">  1       21 0.49206146E-01 0.54088758E+03</pdfrwt>
<totfact> 0.21613822E+02</totfact>
</mgrwt>
</event>
<event>
 4    1  0.5013722E-002  0.4190753E+03  0.7818608E-02  0.1037368E+00
         21   -1    0    0  501  502  0.00000000000E+00  0.00000000000E+00  0.15880424852E+03  0.15880424852E+03  0.00000000000E+00 0.  1.
         21   -1    0    0  502  503 -0.00000000000E+00 -0.00000000000E+00 -0.11587930706E+04  0.11587930706E+04  0.00000000000E+00 0.  1.
    9000007    1    1    2  501    0  0.42735104722E+02 -0.11746417455E+03 -0.64072368081E+03  0.76560496121E+03  0.40000000000E+03 0.  1.
   -9000007    1    1    2    0  503 -0.42735104722E+02  0.11746417455E+03 -0.35926514130E+03  0.55199235795E+03  0.40000000000E+03 0.  1.
<mgrwt>
<rscale>  2 0.41907532E+03</rscale>
<asrwt>0</asrwt>
<pdfrwt beam="1">  1       21 0.24431423E-01 0.41907532E+03</pdfrwt>
<pdfrwt beam="2">  1       21 0.17827586E+00 0.41907532E+03</pdfrwt>
<totfact> 0.25604967E+03</totfact>
</mgrwt>
</event>
<event>
 4    1  0.5013722E-002  0.4578002E+03  0.7818608E-02  0.1025421E+00
         21   -1    0    0  503  502  0.00000000000E+00  0.00000000000E+00  0.94479692590E+03  0.94479692590E+03  0.00000000000E+00 0. -1.
         21   -1    0    0  501  503 -0.00000000000E+00 -0.00000000000E+00 -0.22214983220E+03  0.22214983220E+03  0.00000000000E+00 0.  1.
    9000007    1    1    2  501    0  0.14959431021E+03 -0.16493189649E+03  0.33906342088E+03  0.56968850393E+03  0.40000000000E+03 0. -1.
   -9000007    1    1    2    0  502 -0.14959431021E+03  0.16493189649E+03  0.38358367282E+03  0.59725825418E+03  0.40000000000E+03 0.  1.
<mgrwt>
<rscale>  2 0.45780016E+03</rscale>
<asrwt>0</asrwt>
<pdfrwt beam="1">  1       21 0.14535337E+00 0.45780016E+03</pdfrwt>
<pdfrwt beam="2">  1       21 0.34176898E-01 0.45780016E+03</pdfrwt>
<totfact> 0.22940097E+03</totfact>
</mgrwt>
</event>
<event>
 4    1  0.5013722E-002  0.4459634E+03  0.7818608E-02  0.1028933E+00
         21   -1    0    0  503  502  0.00000000000E+00  0.00000000000E+00  0.14643550297E+03  0.14643550297E+03  0.00000000000E+00 0. -1.
         21   -1    0    0  501  503 -0.00000000000E+00 -0.00000000000E+00 -0.13775772307E+04  0.13775772307E+04  0.00000000000E+00 0. -1.
    9000007    1    1    2  501    0  0.63764997315E+02 -0.18659411063E+03 -0.52511087792E+03  0.68893016418E+03  0.40000000000E+03 0. -1.
   -9000007    1    1    2    0  502 -0.63764997315E+02  0.18659411063E+03 -0.70603084982E+03  0.83508256951E+03  0.40000000000E+03 0. -1.
<mgrwt>
<rscale>  2 0.44596338E+03</rscale>
<asrwt>0</asrwt>
<pdfrwt beam="1">  1       21 0.22528540E-01 0.44596338E+03</pdfrwt>
<pdfrwt beam="2">  1       21 0.21193495E+00 0.44596338E+03</pdfrwt>
<totfact> 0.17537167E+03</totfact>
</mgrwt>
</event>
<event>
 4    1  0.5013722E-002  0.4056394E+03  0.7818608E-02  0.1041844E+00
         21   -1    0    0  501  502  0.00000000000E+00  0.00000000000E+00  0.18675801233E+03  0.18675801233E+03  0.00000000000E+00 0. -1.
         21   -1    0    0  502  503 -0.00000000000E+00 -0.00000000000E+00 -0.15120025397E+04  0.15120025397E+04  0.00000000000E+00 0. -1.
    9000007    1    1    2  501    0 -0.59550845028E+02 -0.31574986766E+02 -0.11393610222E+03  0.42133682289E+03  0.40000000000E+03 0. -1.
   -9000007    1    1    2    0  503  0.59550845028E+02  0.31574986766E+02 -0.12113084252E+04  0.12774237292E+04  0.40000000000E+03 0. -1.
<mgrwt>
<rscale>  2 0.40563935E+03</rscale>
<asrwt>0</asrwt>
<pdfrwt beam="1">  1       21 0.28732004E-01 0.40563935E+03</pdfrwt>
<pdfrwt beam="2">  1       21 0.23261576E+00 0.40563935E+03</pdfrwt>
<totfact> 0.82289533E+02</totfact>
</mgrwt>
</event>
<event>
 4    1  0.5013722E-002  0.4428374E+03  0.7818608E-02  0.1029880E+00
         21   -1    0    0  503  502  0.00000000000E+00  0.00000000000E+00  0.10525098285E+03  0.10525098285E+03  0.00000000000E+00 0. -1.
         21   -1    0    0  501  503 -0.00000000000E+00 -0.00000000000E+00 -0.21215959734E+04  0.21215959734E+04  0.00000000000E+00 0. -1.
    9000007    1    1    2  501    0 -0.18468519475E+03  0.44680166291E+02 -0.61960947422E+03  0.76159099192E+03  0.40000000000E+03 0. -1.
   -9000007    1    1    2    0  502  0.18468519475E+03 -0.44680166291E+02 -0.13967355163E+04  0.14652559643E+04  0.40000000000E+03 0. -1.
<mgrwt>
<rscale>  2 0.44283737E+03</rscale>
<asrwt>0</asrwt>
<pdfrwt beam="1">  1       21 0.16192459E-01 0.44283737E+03</pdfrwt>
<pdfrwt beam="2">  1       21 0.32639937E+00 0.44283737E+03</pdfrwt>
<totfact> 0.65387724E+02</totfact>
</mgrwt>
</event>
<event>
 4    1  0.5013722E-002  0.4053522E+03  0.7818608E-02  0.1041942E+00
         21   -1    0    0  501  502  0.00000000000E+00  0.00000000000E+00  0.19353020017E+04  0.19353020017E+04  0.00000000000E+00 0. -1.
         21   -1    0    0  502  503 -0.00000000000E+00 -0.00000000000E+00 -0.98302896451E+02  0.98302896451E+02  0.00000000000E+00 0. -1.
    9000007    1    1    2  501    0  0.47519868141E+01  0.65481581206E+02  0.12939263825E+04  0.13559335906E+04  0.40000000000E+03 0. -1.
   -9000007    1    1    2    0  503 -0.47519868141E+01 -0.65481581206E+02  0.54307272277E+03  0.67767130755E+03  0.40000000000E+03 0. -1.
<mgrwt>
<rscale>  2 0.40535222E+03</rscale>
<asrwt>0</asrwt>
<pdfrwt beam="1">  1       21 0.29773874E+00 0.40535222E+03</pdfrwt>
<pdfrwt beam="2">  1       21 0.15123524E-01 0.40535222E+03</pdfrwt>
<totfact> 0.11282792E+03</totfact>
</mgrwt>
</event>
<event>
 4    1  0.5013722E-002  0.5193078E+03  0.7818608E-02  0.1008859E+00
         21   -1    0    0  501  502  0.00000000000E+00  0.00000000000E+00  0.77166535500E+03  0.77166535500E+03  0.00000000000E+00 0. -1.
         21   -1    0    0  502  503 -0.00000000000E+00 -0.00000000000E+00 -0.39602341187E+03  0.39602341187E+03  0.00000000000E+00 0. -1.
    9000007    1    1    2  501    0  0.24283832778E+03 -0.22518906108E+03  0.38797857002E+03  0.64823447723E+03  0.40000000000E+03 0. -1.
   -9000007    1    1    2    0  503 -0.24283832778E+03  0.22518906108E+03 -0.12336626891E+02  0.51945428965E+03  0.40000000000E+03 0. -1.
<mgrwt>
<rscale>  2 0.51930778E+03</rscale>
<asrwt>0</asrwt>
<pdfrwt beam="1">  1       21 0.11871775E+00 0.51930778E+03</pdfrwt>
<pdfrwt beam="2">  1       21 0.60926679E-01 0.51930778E+03</pdfrwt>
<totfact> 0.11276063E+03</totfact>
</mgrwt>
</event>
<event>
 4    1  0.5013722E-002  0.4166679E+03  0.7818608E-02  0.1038156E+00
         21   -1    0    0  503  502  0.00000000000E+00  0.00000000000E+00  0.43993209337E+03  0.43993209337E+03  0.00000000000E+00 0. -1.
         21   -1    0    0  501  503 -0.00000000000E+00 -0.00000000000E+00 -0.14393339580E+04  0.14393339580E+04  0.00000000000E+00 0. -1.
    9000007    1    1    2  501    0 -0.76734990541E+02  0.87885515047E+02 -0.13002229733E+04  0.13653541309E+04  0.40000000000E+03 0. -1.
   -9000007    1    1    2    0  502  0.76734990541E+02 -0.87885515047E+02  0.30082110868E+03  0.51391192043E+03  0.40000000000E+03 0. -1.
<mgrwt>
<rscale>  2 0.41666788E+03</rscale>
<asrwt>0</asrwt>
<pdfrwt beam="1">  1       21 0.67681861E-01 0.41666788E+03</pdfrwt>
<pdfrwt beam="2">  1       21 0.22143599E+00 0.41666788E+03</pdfrwt>
<totfact> 0.16034630E+02</totfact>
</mgrwt>
</event>
<event>
 4    1  0.5013722E-002  0.4106280E+03  0.7818608E-02  0.1040160E+00
         21   -1    0    0  503  502  0.00000000000E+00  0.00000000000E+00  0.28023875070E+03  0.28023875070E+03  0.00000000000E+00 0. -1.
         21   -1    0    0  501  503 -0.00000000000E+00 -0.00000000000E+00 -0.91986989251E+03  0.91986989251E+03  0.00000000000E+00 0.  1.
    9000007    1    1    2  501    0  0.11914548895E+02 -0.92051278717E+02 -0.67272826935E+03  0.78814891916E+03  0.40000000000E+03 0.  1.
   -9000007    1    1    2    0  502 -0.11914548895E+02  0.92051278717E+02  0.33097127537E+02  0.41195972405E+03  0.40000000000E+03 0. -1.
<mgrwt>
<rscale>  2 0.41062805E+03</rscale>
<asrwt>0</asrwt>
<pdfrwt beam="1">  1       21 0.43113653E-01 0.41062805E+03</pdfrwt>
<pdfrwt beam="2">  1       21 0.14151845E+00 0.41062805E+03</pdfrwt>
<totfact> 0.15615107E+03</totfact>
</mgrwt>
</event>
<event>
 4    1  0.5013722E-002  0.4186880E+03  0.7818608E-02  0.1037494E+00
         21   -1    0    0  503  502  0.00000000000E+00  0.00000000000E+00  0.48549660120E+03  0.48549660120E+03  0.00000000000E+00 0.  1.
         21   -1    0    0  501  503 -0.00000000000E+00 -0.00000000000E+00 -0.44143038212E+03  0.44143038212E+03  0.00000000000E+00 0.  1.
    9000007    1    1    2  501    0 -0.96002545239E+02 -0.77994342125E+02 -0.17570842993E+03  0.45406283535E+03  0.40000000000E+03 0.  1.
   -9000007    1    1    2    0  502  0.96002545239E+02  0.77994342125E+02  0.21977464900E+03  0.47286414797E+03  0.40000000000E+03 0.  1.
<mgrwt>
<rscale>  2 0.41868796E+03</rscale>
<asrwt>0</asrwt>
<pdfrwt beam="1">  1       21 0.74691785E-01 0.41868796E+03</pdfrwt>
<pdfrwt beam="2">  1       21 0.67912366E-01 0.41868796E+03</pdfrwt>
<totfact> 0.27949853E+03</totfact>
</mgrwt>
</event>
<event>
 4    1  0.5013722E-002  0.4429885E+03  0.7818608E-02  0.1029834E+00
         21   -1    0    0  503  502  0.00000000000E+00  0.00000000000E+00  0.11364744855E+04  0.11364744855E+04  0.00000000000E+00 0.  1.
         21   -1    0    0  501  503 -0.00000000000E+00 -0.00000000000E+00 -0.10809309133E+04  0.10809309133E+04  0.00000000000E+00 0.  1.
    9000007    1    1    2  501    0  0.15516653167E+03  0.11028233164E+03 -0.98852522930E+03  0.10832455743E+04  0.40000000000E+03 0.  1.
   -9000007    1    1    2    0  502 -0.15516653167E+03 -0.11028233164E+03  0.10440688016E+04  0.11341598246E+04  0.40000000000E+03 0.  1.
<mgrwt>
<rscale>  2 0.44298854E+03</rscale>
<asrwt>0</asrwt>
<pdfrwt beam="1">  1       21 0.17484223E+00 0.44298854E+03</pdfrwt>
<pdfrwt beam="2">  1       21 0.16629706E+00 0.44298854E+03</pdfrwt>
<totfact> 0.34877403E+01</totfact>
</mgrwt>
</event>
<event>
 4    1  0.5013722E-002  0.4161903E+03  0.7818608E-02  0.1038313E+00
         21   -1    0    0  503  502  0.00000000000E+00  0.00000000000E+00  0.39406876996E+03  0.39406876996E+03  0.00000000000E+00 0.  1.
         21   -1    0    0  501  503 -0.00000000000E+00 -0.00000000000E+00 -0.44742950195E+03  0.44742950195E+03  0.00000000000E+00 0.  1.
    9000007    1    1    2  501    0 -0.10486506697E+03 -0.47092023952E+02 -0.82503145813E+02  0.42428894643E+03  0.40000000000E+03 0. -1.
   -9000007    1    1    2    0  502  0.10486506697E+03  0.47092023952E+02  0.29142413818E+02  0.41720932549E+03  0.40000000000E+03 0. -1.
<mgrwt>
<rscale>  2 0.41619027E+03</rscale>
<asrwt>0</asrwt>
<pdfrwt beam="1">  1       21 0.60625965E-01 0.41619027E+03</pdfrwt>
<pdfrwt beam="2">  1       21 0.68835308E-01 0.41619027E+03</pdfrwt>
<totfact> 0.43247994E+03</totfact>
</mgrwt>
</event>
<event>
 4    1  0.5013722E-002  0.4009122E+03  0.7818608E-02  0.1043464E+00
         21   -1    0    0  501  502  0.00000000000E+00  0.00000000000E+00  0.11871383072E+04  0.11871383072E+04  0.00000000000E+00 0.  1.
         21   -1    0    0  502  503 -0.00000000000E+00 -0.00000000000E+00 -0.16380910358E+03  0.16380910358E+03  0.00000000000E+00 0.  1.
    9000007    1    1    2  501    0  0.24020143162E+02  0.12395808031E+02  0.79299656549E+03  0.88857986485E+03  0.40000000000E+03 0.  1.
   -9000007    1    1    2    0  503 -0.24020143162E+02 -0.12395808031E+02  0.23033263812E+03  0.46236754592E+03  0.40000000000E+03 0.  1.
<mgrwt>
<rscale>  2 0.40091224E+03</rscale>
<asrwt>0</asrwt>
<pdfrwt beam="1">  1       21 0.18263666E+00 0.40091224E+03</pdfrwt>
<pdfrwt beam="2">  1       21 0.25201401E-01 0.40091224E+03</pdfrwt>
<totfact> 0.22652671E+03</totfact>
</mgrwt>
</event>
<event>
 4    1  0.5013722E-002  0.4680872E+03  0.7818608E-02  0.1022461E+00
         21   -1    0    0  503  502  0.00000000000E+00  0.00000000000E+00  0.57601728859E+03  0.57601728859E+03  0.00000000000E+00 0.  1.
         21   -1    0    0  501  503 -0.00000000000E+00 -0.00000000000E+00 -0.43605161517E+03  0.43605161517E+03  0.00000000000E+00 0. -1.
    9000007    1    1    2  501    0 -0.24165294773E+03 -0.26635536614E+02 -0.11082909250E+03  0.48102877950E+03  0.40000000000E+03 0. -1.
   -9000007    1    1    2    0  502  0.24165294773E+03  0.26635536614E+02  0.25079476593E+03  0.53104012426E+03  0.40000000000E+03 0.  1.
<mgrwt>
<rscale>  2 0.46808717E+03</rscale>
<asrwt>0</asrwt>
<pdfrwt beam="1">  1       21 0.88618045E-01 0.46808717E+03</pdfrwt>
<pdfrwt beam="2">  1       21 0.67084864E-01 0.46808717E+03</pdfrwt>
<totfact> 0.18974316E+03</totfact>
</mgrwt>
</event>
<event>
 4    1  0.5013722E-002  0.4521505E+03  0.7818608E-02  0.1027083E+00
         21   -1    0    0  503  502  0.00000000000E+00  0.00000000000E+00  0.16867872395E+03  0.16867872395E+03  0.00000000000E+00 0.  1.
         21   -1    0    0  501  503 -0.00000000000E+00 -0.00000000000E+00 -0.14686390488E+04  0.14686390488E+04  0.00000000000E+00 0.  1.
    9000007    1    1    2  501    0  0.20953993832E+03 -0.23088158535E+02 -0.99219561257E+03  0.10903633259E+04  0.40000000000E+03 0.  1.
   -9000007    1    1    2    0  502 -0.20953993832E+03  0.23088158535E+02 -0.30776471226E+03  0.54695444685E+03  0.40000000000E+03 0.  1.
<mgrwt>
<rscale>  2 0.45215047E+03</rscale>
<asrwt>0</asrwt>
<pdfrwt beam="1">  1       21 0.25950573E-01 0.45215047E+03</pdfrwt>
<pdfrwt beam="2">  1       21 0.22594447E+00 0.45215047E+03</pdfrwt>
<totfact> 0.10810409E+03</totfact>
</mgrwt>
</event>
<event>
 4    1  0.5013722E-002  0.5117319E+03  0.7818608E-02  0.1010761E+00
         21   -1    0    0  503  502  0.00000000000E+00  0.00000000000E+00  0.14944055475E+04  0.14944055475E+04  0.00000000000E+00 0.  1.
         21   -1    0    0  501  503 -0.00000000000E+00 -0.00000000000E+00 -0.26252011153E+03  0.26252011153E+03  0.00000000000E+00 0. -1.
    9000007    1    1    2  501    0 -0.27865328123E+03 -0.15563393092E+03  0.10939951997E+03  0.52329516199E+03  0.40000000000E+03 0. -1.
   -9000007    1    1    2    0  502  0.27865328123E+03  0.15563393092E+03  0.11224859160E+04  0.12336304970E+04  0.40000000000E+03 0.  1.
<mgrwt>
<rscale>  2 0.51173193E+03</rscale>
<asrwt>0</asrwt>
<pdfrwt beam="1">  1       21 0.22990854E+00 0.51173193E+03</pdfrwt>
<pdfrwt beam="2">  1       21 0.40387710E-01 0.51173193E+03</pdfrwt>
<totfact> 0.40817911E+02</totfact>
</mgrwt>
</event>
<event>
 4    1  0.5013722E-002  0.8603634E+03  0.7818608E-02  0.9476532E-01
         21   -1    0    0  503  502  0.00000000000E+00  0.00000000000E+00  0.93855769897E+03  0.93855769897E+03  0.00000000000E+00 0. -1.
         21   -1    0    0  501  503 -0.00000000000E+00 -0.00000000000E+00 -0.12038350608E+04  0.12038350608E+04  0.00000000000E+00 0. -1.
    9000007    1    1    2  501    0 -0.61587641209E+03 -0.44824261305E+03 -0.76169396541E+03  0.11490878522E+04  0.40000000000E+03 0. -1.
   -9000007    1    1    2    0  502  0.61587641209E+03  0.44824261305E+03  0.49641660357E+03  0.99330490758E+03  0.40000000000E+03 0. -1.
<mgrwt>
<rscale>  2 0.86036341E+03</rscale>
<asrwt>0</asrwt>
<pdfrwt beam="1">  1       21 0.14439349E+00 0.86036341E+03</pdfrwt>
<pdfrwt beam="2">  1       21 0.18520539E+00 0.86036341E+03</pdfrwt>
<totfact> 0.36258925E+01</totfact>
</mgrwt>
</event>
<event>
 4    1  0.5013722E-002  0.5733353E+03  0.7818608E-02  0.9962325E-01
         21   -1    0    0  503  502  0.00000000000E+00  0.00000000000E+00  0.48737702552E+03  0.48737702552E+03  0.00000000000E+00 0.  1.
         21   -1    0    0  501  503 -0.00000000000E+00 -0.00000000000E+00 -0.12397569890E+04  0.12397569890E+04  0.00000000000E+00 0.  1.
    9000007    1    1    2  501    0 -0.40674709521E+03 -0.57185657746E+02 -0.95932401463E+03  0.11175938278E+04  0.40000000000E+03 0.  1.
   -9000007    1    1    2    0  502  0.40674709521E+03  0.57185657746E+02  0.20694405115E+03  0.60954018672E+03  0.40000000000E+03 0.  1.
<mgrwt>
<rscale>  2 0.57333533E+03</rscale>
<asrwt>0</asrwt>
<pdfrwt beam="1">  1       21 0.74981081E-01 0.57333533E+03</pdfrwt>
<pdfrwt beam="2">  1       21 0.19073184E+00 0.57333533E+03</pdfrwt>
<totfact> 0.18764623E+02</totfact>
</mgrwt>
</event>
<event>
 4    1  0.5013722E-002  0.4134644E+03  0.7818608E-02  0.1039215E+00
         21   -1    0    0  503  502  0.00000000000E+00  0.00000000000E+00  0.76153444195E+03  0.76153444195E+03  0.00000000000E+00 0. -1.
         21   -1    0    0  501  503 -0.00000000000E+00 -0.00000000000E+00 -0.38140432530E+03  0.38140432530E+03  0.00000000000E+00 0. -1.
    9000007    1    1    2  501    0  0.55403330283E+02 -0.88787746243E+02 -0.17648969968E+03  0.44955690072E+03  0.40000000000E+03 0. -1.
   -9000007    1    1    2    0  502 -0.55403330283E+02  0.88787746243E+02  0.55661981633E+03  0.69338186653E+03  0.40000000000E+03 0. -1.
<mgrwt>
<rscale>  2 0.41346438E+03</rscale>
<asrwt>0</asrwt>
<pdfrwt beam="1">  1       21 0.11715915E+00 0.41346438E+03</pdfrwt>
<pdfrwt beam="2">  1       21 0.58677588E-01 0.41346438E+03</pdfrwt>
<totfact> 0.13197263E+03</totfact>
</mgrwt>
</event>
<event>
 4    1  0.5013722E-002  0.9300091E+03  0.7818608E-02  0.9388827E-01
         21   -1    0    0  503  502  0.00000000000E+00  0.00000000000E+00  0.86732402459E+03  0.86732402459E+03  0.00000000000E+00 0. -1.
         21   -1    0    0  501  503 -0.00000000000E+00 -0.00000000000E+00 -0.11318696891E+04  0.11318696891E+04  0.00000000000E+00 0.  1.
    9000007    1    1    2  501    0  0.32488076838E+03  0.77418949005E+03 -0.47703680495E+03  0.10452181559E+04  0.40000000000E+03 0.  1.
   -9000007    1    1    2    0  502 -0.32488076838E+03 -0.77418949005E+03  0.21249114040E+03  0.95397555782E+03  0.40000000000E+03 0. -1.
<mgrwt>
<rscale>  2 0.93000908E+03</rscale>
<asrwt>0</asrwt>
<pdfrwt beam="1">  1       21 0.13343447E+00 0.93000908E+03</pdfrwt>
<pdfrwt beam="2">  1       21 0.17413380E+00 0.93000908E+03</pdfrwt>
<totfact> 0.52930977E+01</totfact>
</mgrwt>
</event>
<event>
 4    1  0.5013722E-002  0.4031430E+03  0.7818608E-02  0.1042697E+00
         21   -1    0    0  501  502  0.00000000000E+00  0.00000000000E+00  0.62307715952E+03  0.62307715952E+03  0.00000000000E+00 0.  1.
         21   -1    0    0  502  503 -0.00000000000E+00 -0.00000000000E+00 -0.32583591589E+03  0.32583591589E+03  0.00000000000E+00 0.  1.
    9000007    1    1    2  501    0  0.27162902633E+02 -0.42266929799E+02  0.36052275354E+03  0.54083359035E+03  0.40000000000E+03 0.  1.
   -9000007    1    1    2    0  503 -0.27162902633E+02  0.42266929799E+02 -0.63281509911E+02  0.40807948506E+03  0.40000000000E+03 0.  1.
<mgrwt>
<rscale>  2 0.40314305E+03</rscale>
<asrwt>0</asrwt>
<pdfrwt beam="1">  1       21 0.95858025E-01 0.40314305E+03</pdfrwt>
<pdfrwt beam="2">  1       21 0.50128602E-01 0.40314305E+03</pdfrwt>
<totfact> 0.30432371E+03</totfact>
</mgrwt>
</event>
<event>
 4    1  0.5013722E-002  0.5462235E+03  0.7818608E-02  0.1002372E+00
         21   -1    0    0  503  502  0.00000000000E+00  0.00000000000E+00  0.21108949647E+04  0.21108949647E+04  0.00000000000E+00 0. -1.
         21   -1    0    0  501  503 -0.00000000000E+00 -0.00000000000E+00 -0.14259967080E+03  0.14259967080E+03  0.00000000000E+00 0.  1.
    9000007    1    1    2  501    0 -0.18119217914E+03  0.32485307511E+03  0.10899234386E+04  0.12191362632E+04  0.40000000000E+03 0.  1.
   -9000007    1    1    2    0  502  0.18119217914E+03 -0.32485307511E+03  0.87837185528E+03  0.10343583723E+04  0.40000000000E+03 0.  1.
<mgrwt>
<rscale>  2 0.54622351E+03</rscale>
<asrwt>0</asrwt>
<pdfrwt beam="1">  1       21 0.32475305E+00 0.54622351E+03</pdfrwt>
<pdfrwt beam="2">  1       21 0.21938412E-01 0.54622351E+03</pdfrwt>
<totfact> 0.35597950E+02</totfact>
</mgrwt>
</event>
<event>
 4    1  0.5013722E-002  0.4524783E+03  0.7818608E-02  0.1026986E+00
         21   -1    0    0  501  502  0.00000000000E+00  0.00000000000E+00  0.80814677998E+03  0.80814677998E+03  0.00000000000E+00 0. -1.
         21   -1    0    0  502  503 -0.00000000000E+00 -0.00000000000E+00 -0.27769421567E+03  0.27769421567E+03  0.00000000000E+00 0. -1.
    9000007    1    1    2  501    0 -0.83649379699E+02  0.19426640287E+03  0.10444642649E+03  0.46437668978E+03  0.40000000000E+03 0. -1.
   -9000007    1    1    2    0  503  0.83649379699E+02 -0.19426640287E+03  0.42600613782E+03  0.62146430586E+03  0.40000000000E+03 0. -1.
<mgrwt>
<rscale>  2 0.45247835E+03</rscale>
<asrwt>0</asrwt>
<pdfrwt beam="1">  1       21 0.12433027E+00 0.45247835E+03</pdfrwt>
<pdfrwt beam="2">  1       21 0.42722187E-01 0.45247835E+03</pdfrwt>
<totfact> 0.21932917E+03</totfact>
</mgrwt>
</event>
<event>
 4    1  0.5013722E-002  0.4669864E+03  0.7818608E-02  0.1022774E+00
         21   -1    0    0  501  502  0.00000000000E+00  0.00000000000E+00  0.15324569133E+04  0.15324569133E+04  0.00000000000E+00 0. -1.
         21   -1    0    0  502  503 -0.00000000000E+00 -0.00000000000E+00 -0.18956042259E+03  0.18956042259E+03  0.00000000000E+00 0.  1.
    9000007    1    1    2  501    0 -0.24068234961E+03  0.12177957611E+02  0.11013403511E+04  0.11962553511E+04  0.40000000000E+03 0. -1.
   -9000007    1    1    2    0  503  0.24068234961E+03 -0.12177957611E+02  0.24155613961E+03  0.52576198479E+03  0.40000000000E+03 0.  1.
<mgrwt>
<rscale>  2 0.46698640E+03</rscale>
<asrwt>0</asrwt>
<pdfrwt beam="1">  1       21 0.23576259E+00 0.46698640E+03</pdfrwt>
<pdfrwt beam="2">  1       21 0.29163143E-01 0.46698640E+03</pdfrwt>
<totfact> 0.74000028E+02</totfact>
</mgrwt>
</event>
<event>
 4    1  0.5013722E-002  0.5958037E+03  0.7818608E-02  0.9914150E-01
         21   -1    0    0  501  502  0.00000000000E+00  0.00000000000E+00  0.20182679055E+04  0.20182679055E+04  0.00000000000E+00 0.  1.
         21   -1    0    0  502  503 -0.00000000000E+00 -0.00000000000E+00 -0.21184653447E+03  0.21184653447E+03  0.00000000000E+00 0.  1.
    9000007    1    1    2  501    0  0.23793112606E+03 -0.37198236336E+03  0.13626291280E+04  0.14871920656E+04  0.40000000000E+03 0.  1.
   -9000007    1    1    2    0  503 -0.23793112606E+03  0.37198236336E+03  0.44379224298E+03  0.74292237436E+03  0.40000000000E+03 0.  1.
<mgrwt>
<rscale>  2 0.59580374E+03</rscale>
<asrwt>0</asrwt>
<pdfrwt beam="1">  1       21 0.31050274E+00 0.59580374E+03</pdfrwt>
<pdfrwt beam="2">  1       21 0.32591776E-01 0.59580374E+03</pdfrwt>
<totfact> 0.19461704E+02</totfact>
</mgrwt>
</event>
<event>
 4    1  0.5013722E-002  0.4596718E+03  0.7818608E-02  0.1024876E+00
         21   -1    0    0  501  502  0.00000000000E+00  0.00000000000E+00  0.10788221186E+04  0.10788221186E+04  0.00000000000E+00 0. -1.
         21   -1    0    0  502  503 -0.00000000000E+00 -0.00000000000E+00 -0.19600937507E+03  0.19600937507E+03  0.00000000000E+00 0. -1.
    9000007    1    1    2  501    0  0.18375238812E+03 -0.13241319502E+03  0.45899761148E+03  0.64959756904E+03  0.40000000000E+03 0. -1.
   -9000007    1    1    2    0  503 -0.18375238812E+03  0.13241319502E+03  0.42381513208E+03  0.62523392465E+03  0.40000000000E+03 0. -1.
<mgrwt>
<rscale>  2 0.45967183E+03</rscale>
<asrwt>0</asrwt>
<pdfrwt beam="1">  1       21 0.16597263E+00 0.45967183E+03</pdfrwt>
<pdfrwt beam="2">  1       21 0.30155289E-01 0.45967183E+03</pdfrwt>
<totfact> 0.20439551E+03</totfact>
</mgrwt>
</event>
<event>
 4    1  0.5013722E-002  0.4135540E+03  0.7818608E-02  0.1039185E+00
         21   -1    0    0  503  502  0.00000000000E+00  0.00000000000E+00  0.62716638758E+03  0.62716638758E+03  0.00000000000E+00 0.  1.
         21   -1    0    0  501  503 -0.00000000000E+00 -0.00000000000E+00 -0.36352347709E+03  0.36352347709E+03  0.00000000000E+00 0.  1.
    9000007    1    1    2  501    0 -0.21089627146E+02 -0.10286941878E+03  0.37941871357E+03  0.56123564561E+03  0.40000000000E+03 0.  1.
   -9000007    1    1    2    0  502  0.21089627146E+02  0.10286941878E+03 -0.11577580308E+03  0.42945421906E+03  0.40000000000E+03 0.  1.
<mgrwt>
<rscale>  2 0.41355397E+03</rscale>
<asrwt>0</asrwt>
<pdfrwt beam="1">  1       21 0.96487136E-01 0.41355397E+03</pdfrwt>
<pdfrwt beam="2">  1       21 0.55926689E-01 0.41355397E+03</pdfrwt>
<totfact> 0.23599862E+03</totfact>
</mgrwt>
</event>
<event>
 4    1  0.5013722E-002  0.5031900E+03  0.7818608E-02  0.1012950E+00
         21   -1    0    0  501  502  0.00000000000E+00  0.00000000000E+00  0.64827232258E+03  0.64827232258E+03  0.00000000000E+00 0.  1.
         21   -1    0    0  502  503 -0.00000000000E+00 -0.00000000000E+00 -0.39303373898E+03  0.39303373898E+03  0.00000000000E+00 0. -1.
    9000007    1    1    2  501    0 -0.18770545278E+03  0.24076309276E+03  0.16878356999E+03  0.53074296730E+03  0.40000000000E+03 0. -1.
   -9000007    1    1    2    0  503  0.18770545278E+03 -0.24076309276E+03  0.86455013613E+02  0.51056309426E+03  0.40000000000E+03 0.  1.
<mgrwt>
<rscale>  2 0.50319003E+03</rscale>
<asrwt>0</asrwt>
<pdfrwt beam="1">  1       21 0.99734203E-01 0.50319003E+03</pdfrwt>
<pdfrwt beam="2">  1       21 0.60466729E-01 0.50319003E+03</pdfrwt>
<totfact> 0.17777653E+03</totfact>
</mgrwt>
</event>
<event>
 4    1  0.5013722E-002  0.8543982E+03  0.7818608E-02  0.9484453E-01
         21   -1    0    0  503  502  0.00000000000E+00  0.00000000000E+00  0.23240487002E+04  0.23240487002E+04  0.00000000000E+00 0.  1.
         21   -1    0    0  501  503 -0.00000000000E+00 -0.00000000000E+00 -0.47815244274E+03  0.47815244274E+03  0.00000000000E+00 0.  1.
    9000007    1    1    2  501    0 -0.15453464548E+02  0.75482275536E+03  0.17436215140E+04  0.19417034237E+04  0.40000000000E+03 0.  1.
   -9000007    1    1    2    0  502  0.15453464548E+02 -0.75482275536E+03  0.10227474342E+03  0.86049771919E+03  0.40000000000E+03 0.  1.
<mgrwt>
<rscale>  2 0.85439815E+03</rscale>
<asrwt>0</asrwt>
<pdfrwt beam="1">  1       21 0.35754595E+00 0.85439815E+03</pdfrwt>
<pdfrwt beam="2">  1       21 0.73561915E-01 0.85439815E+03</pdfrwt>
<totfact> 0.15566079E+01</totfact>
</mgrwt>
</event>
<event>
 4    1  0.5013722E-002  0.6128683E+03  0.7818608E-02  0.9879062E-01
         21   -1    0    0  503  502  0.00000000000E+00  0.00000000000E+00  0.57134428139E+03  0.57134428139E+03  0.00000000000E+00 0. -1.
         21   -1    0    0  501  503 -0.00000000000E+00 -0.00000000000E+00 -0.66133485745E+03  0.66133485745E+03  0.00000000000E+00 0. -1.
    9000007    1    1    2  501    0 -0.46388777471E+03 -0.20388693887E+02  0.24845732147E+01  0.61287334700E+03  0.40000000000E+03 0. -1.
   -9000007    1    1    2    0  502  0.46388777471E+03  0.20388693887E+02 -0.92475149272E+02  0.61980579184E+03  0.40000000000E+03 0. -1.
<mgrwt>
<rscale>  2 0.61286831E+03</rscale>
<asrwt>0</asrwt>
<pdfrwt beam="1">  1       21 0.87899120E-01 0.61286831E+03</pdfrwt>
<pdfrwt beam="2">  1       21 0.10174382E+00 0.61286831E+03</pdfrwt>
<totfact> 0.69565807E+02</totfact>
</mgrwt>
</event>
<event>
 4    1  0.5013722E-002  0.4830603E+03  0.7818608E-02  0.1018297E+00
         21   -1    0    0  501  502  0.00000000000E+00  0.00000000000E+00  0.10536363228E+04  0.10536363228E+04  0.00000000000E+00 0. -1.
         21   -1    0    0  502  503 -0.00000000000E+00 -0.00000000000E+00 -0.35815616395E+03  0.35815616395E+03  0.00000000000E+00 0. -1.
    9000007    1    1    2  501    0  0.15094408999E+03  0.22486244895E+03  0.78382326503E+03  0.92072045163E+03  0.40000000000E+03 0. -1.
   -9000007    1    1    2    0  503 -0.15094408999E+03 -0.22486244895E+03 -0.88343106196E+02  0.49107203511E+03  0.40000000000E+03 0. -1.
<mgrwt>
<rscale>  2 0.48306029E+03</rscale>
<asrwt>0</asrwt>
<pdfrwt beam="1">  1       21 0.16209789E+00 0.48306029E+03</pdfrwt>
<pdfrwt beam="2">  1       21 0.55100949E-01 0.48306029E+03</pdfrwt>
<totfact> 0.62113524E+02</totfact>
</mgrwt>
</event>
<event>
 4    1  0.5013722E-002  0.4084936E+03  0.7818608E-02  0.1040878E+00
         21   -1    0    0  503  502  0.00000000000E+00  0.00000000000E+00  0.46367034401E+03  0.46367034401E+03  0.00000000000E+00 0.  1.
         21   -1    0    0  501  503 -0.00000000000E+00 -0.00000000000E+00 -0.81755290744E+03  0.81755290744E+03  0.00000000000E+00 0.  1.
    9000007    1    1    2  501    0 -0.58075498023E+02  0.59112041593E+02 -0.65624758504E+03  0.77299928189E+03  0.40000000000E+03 0.  1.
   -9000007    1    1    2    0  502  0.58075498023E+02 -0.59112041593E+02  0.30236502161E+03  0.50822396955E+03  0.40000000000E+03 0.  1.
<mgrwt>
<rscale>  2 0.40849357E+03</rscale>
<asrwt>0</asrwt>
<pdfrwt beam="1">  1       21 0.71333899E-01 0.40849357E+03</pdfrwt>
<pdfrwt beam="2">  1       21 0.12577737E+00 0.40849357E+03</pdfrwt>
<totfact> 0.71623491E+02</totfact>
</mgrwt>
</event>
<event>
 4    1  0.5013722E-002  0.4039248E+03  0.7818608E-02  0.1042429E+00
         21   -1    0    0  503  502  0.00000000000E+00  0.00000000000E+00  0.95955136073E+03  0.95955136073E+03  0.00000000000E+00 0. -1.
         21   -1    0    0  501  503 -0.00000000000E+00 -0.00000000000E+00 -0.33463018156E+03  0.33463018156E+03  0.00000000000E+00 0. -1.
    9000007    1    1    2  501    0  0.65752225858E+00  0.56168024507E+02 -0.14137025541E+03  0.42794956295E+03  0.40000000000E+03 0. -1.
   -9000007    1    1    2    0  502 -0.65752225858E+00 -0.56168024507E+02  0.76629143458E+03  0.86623197934E+03  0.40000000000E+03 0. -1.
<mgrwt>
<rscale>  2 0.40392484E+03</rscale>
<asrwt>0</asrwt>
<pdfrwt beam="1">  1       21 0.14762328E+00 0.40392484E+03</pdfrwt>
<pdfrwt beam="2">  1       21 0.51481567E-01 0.40392484E+03</pdfrwt>
<totfact> 0.96314356E+02</totfact>
</mgrwt>
</event>
<event>
 4    1  0.5013722E-002  0.4590761E+03  0.7818608E-02  0.1025050E+00
         21   -1    0    0  501  502  0.00000000000E+00  0.00000000000E+00  0.68910403848E+03  0.68910403848E+03  0.00000000000E+00 0. -1.
         21   -1    0    0  502  503 -0.00000000000E+00 -0.00000000000E+00 -0.30591009263E+03  0.30591009263E+03  0.00000000000E+00 0.  1.
    9000007    1    1    2  501    0  0.13080768111E+03 -0.18341262633E+03  0.18370548563E+03  0.49446794273E+03  0.40000000000E+03 0.  1.
   -9000007    1    1    2    0  503 -0.13080768111E+03  0.18341262633E+03  0.19948846023E+03  0.50054618838E+03  0.40000000000E+03 0. -1.
<mgrwt>
<rscale>  2 0.45907607E+03</rscale>
<asrwt>0</asrwt>
<pdfrwt beam="1">  1       21 0.10601601E+00 0.45907607E+03</pdfrwt>
<pdfrwt beam="2">  1       21 0.47063091E-01 0.45907607E+03</pdfrwt>
<totfact> 0.26653222E+03</totfact>
</mgrwt>
</event>
<event>
 4    1  0.5013722E-002  0.4614920E+03  0.7818608E-02  0.1024349E+00
         21   -1    0    0  501  502  0.00000000000E+00  0.00000000000E+00  0.69171373522E+03  0.69171373522E+03  0.00000000000E+00 0. -1.
         21   -1    0    0  502  503 -0.00000000000E+00 -0.00000000000E+00 -0.57319469469E+03  0.57319469469E+03  0.00000000000E+00 0. -1.
    9000007    1    1    2  501    0 -0.15507918284E+03 -0.17007456564E+03  0.48953512939E+03  0.67277006008E+03  0.40000000000E+03 0. -1.
   -9000007    1    1    2    0  503  0.15507918284E+03  0.17007456564E+03 -0.37101608886E+03  0.59213836983E+03  0.40000000000E+03 0. -1.
<mgrwt>
<rscale>  2 0.46149205E+03</rscale>
<asrwt>0</asrwt>
<pdfrwt beam="1">  1       21 0.10641750E+00 0.46149205E+03</pdfrwt>
<pdfrwt beam="2">  1       21 0.88183800E-01 0.46149205E+03</pdfrwt>
<totfact> 0.65270987E+02</totfact>
</mgrwt>
</event>
<event>
 4    1  0.5013722E-002  0.4282419E+03  0.7818608E-02  0.1034417E+00
         21   -1    0    0  503  502  0.00000000000E+00  0.00000000000E+00  0.14194488670E+04  0.14194488670E+04  0.00000000000E+00 0. -1.
         21   -1    0    0  501  503 -0.00000000000E+00 -0.00000000000E+00 -0.15314622654E+03  0.15314622654E+03  0.00000000000E+00 0. -1.
    9000007    1    1    2  501    0  0.14991966030E+03 -0.30252348721E+02  0.32222099955E+03  0.53592675031E+03  0.40000000000E+03 0. -1.
   -9000007    1    1    2    0  502 -0.14991966030E+03  0.30252348721E+02  0.94408164094E+03  0.10366683433E+04  0.40000000000E+03 0. -1.
<mgrwt>
<rscale>  2 0.42824188E+03</rscale>
<asrwt>0</asrwt>
<pdfrwt beam="1">  1       21 0.21837674E+00 0.42824188E+03</pdfrwt>
<pdfrwt beam="2">  1       21 0.23560959E-01 0.42824188E+03</pdfrwt>
<totfact> 0.14737689E+03</totfact>
</mgrwt>
</event>
<event>
 4    1  0.5013722E-002  0.4768821E+03  0.7818608E-02  0.1019996E+00
         21   -1    0    0  503  502  0.00000000000E+00  0.00000000000E+00  0.30125300614E+03  0.30125300614E+03  0.00000000000E+00 0.  1.
         21   -1    0    0  501  503 -0.00000000000E+00 -0.00000000000E+00 -0.11978585256E+04  0.11978585256E+04  0.00000000000E+00 0.  1.
    9000007    1    1    2  501    0  0.20766903428E+03  0.15585290317E+03 -0.90411044365E+03  0.10221703623E+04  0.40000000000E+03 0.  1.
   -9000007    1    1    2    0  502 -0.20766903428E+03 -0.15585290317E+03  0.75049241966E+01  0.47694116945E+03  0.40000000000E+03 0.  1.
<mgrwt>
<rscale>  2 0.47688212E+03</rscale>
<asrwt>0</asrwt>
<pdfrwt beam="1">  1       21 0.46346616E-01 0.47688212E+03</pdfrwt>
<pdfrwt beam="2">  1       21 0.18428593E+00 0.47688212E+03</pdfrwt>
<totfact> 0.62277894E+02</totfact>
</mgrwt>
</event>
<event>
 4    1  0.5013722E-002  0.4515083E+03  0.7818608E-02  0.1027273E+00
         21   -1    0    0  501  502  0.00000000000E+00  0.00000000000E+00  0.45994617966E+03  0.45994617966E+03  0.00000000000E+00 0.  1.
         21   -1    0    0  502  503 -0.00000000000E+00 -0.00000000000E+00 -0.44370503522E+03  0.44370503522E+03  0.00000000000E+00 0. -1.
    9000007    1    1    2  501    0  0.70952575752E+02  0.19704191083E+03  0.22977372474E+02  0.45209262577E+03  0.40000000000E+03 0. -1.
   -9000007    1    1    2    0  503 -0.70952575752E+02 -0.19704191083E+03 -0.67362280295E+01  0.45155858911E+03  0.40000000000E+03 0.  1.
<mgrwt>
<rscale>  2 0.45150834E+03</rscale>
<asrwt>0</asrwt>
<pdfrwt beam="1">  1       21 0.70760951E-01 0.45150834E+03</pdfrwt>
<pdfrwt beam="2">  1       21 0.68262313E-01 0.45150834E+03</pdfrwt>
<totfact> 0.30857599E+03</totfact>
</mgrwt>
</event>
<event>
 4    1  0.5013722E-002  0.4077453E+03  0.7818608E-02  0.1041130E+00
         21   -1    0    0  503  502  0.00000000000E+00  0.00000000000E+00  0.47104578813E+03  0.47104578813E+03  0.00000000000E+00 0. -1.
         21   -1    0    0  501  503 -0.00000000000E+00 -0.00000000000E+00 -0.71388776302E+03  0.71388776302E+03  0.00000000000E+00 0. -1.
    9000007    1    1    2  501    0 -0.57715465811E+02  0.54084416880E+02 -0.54269477955E+03  0.67880322840E+03  0.40000000000E+03 0. -1.
   -9000007    1    1    2    0  502  0.57715465811E+02 -0.54084416880E+02  0.29985280466E+03  0.50613032275E+03  0.40000000000E+03 0. -1.
<mgrwt>
<rscale>  2 0.40774526E+03</rscale>
<asrwt>0</asrwt>
<pdfrwt beam="1">  1       21 0.72468583E-01 0.40774526E+03</pdfrwt>
<pdfrwt beam="2">  1       21 0.10982889E+00 0.40774526E+03</pdfrwt>
<totfact> 0.97266916E+02</totfact>
</mgrwt>
</event>
<event>
 4    1  0.5013722E-002  0.4564865E+03  0.7818608E-02  0.1025805E+00
         21   -1    0    0  501  502  0.00000000000E+00  0.00000000000E+00  0.18074715957E+04  0.18074715957E+04  0.00000000000E+00 0. -1.
         21   -1    0    0  502  503 -0.00000000000E+00 -0.00000000000E+00 -0.13924022778E+03  0.13924022778E+03  0.00000000000E+00 0.  1.
    9000007    1    1    2  501    0 -0.15339406262E+03  0.15763948914E+03  0.12378181981E+04  0.13193080908E+04  0.40000000000E+03 0. -1.
   -9000007    1    1    2    0  503  0.15339406262E+03 -0.15763948914E+03  0.43041316981E+03  0.62740373264E+03  0.40000000000E+03 0.  1.
<mgrwt>
<rscale>  2 0.45648652E+03</rscale>
<asrwt>0</asrwt>
<pdfrwt beam="1">  1       21 0.27807254E+00 0.45648652E+03</pdfrwt>
<pdfrwt beam="2">  1       21 0.21421575E-01 0.45648652E+03</pdfrwt>
<totfact> 0.74723862E+02</totfact>
</mgrwt>
</event>
<event>
 4    1  0.5013722E-002  0.4883602E+03  0.7818608E-02  0.1016863E+00
         21   -1    0    0  501  502  0.00000000000E+00  0.00000000000E+00  0.58057407988E+03  0.58057407988E+03  0.00000000000E+00 0.  1.
         21   -1    0    0  502  503 -0.00000000000E+00 -0.00000000000E+00 -0.55412354375E+03  0.55412354375E+03  0.00000000000E+00 0.  1.
    9000007    1    1    2  501    0 -0.28014485705E+03  0.38094084470E+01  0.30177224175E+03  0.57407502856E+03  0.40000000000E+03 0.  1.
   -9000007    1    1    2    0  503  0.28014485705E+03 -0.38094084470E+01 -0.27532170562E+03  0.56062259508E+03  0.40000000000E+03 0.  1.
<mgrwt>
<rscale>  2 0.48836017E+03</rscale>
<asrwt>0</asrwt>
<pdfrwt beam="1">  1       21 0.89319089E-01 0.48836017E+03</pdfrwt>
<pdfrwt beam="2">  1       21 0.85249776E-01 0.48836017E+03</pdfrwt>
<totfact> 0.10679864E+03</totfact>
</mgrwt>
</event>
<event>
 4    1  0.5013722E-002  0.4421183E+03  0.7818608E-02  0.1030099E+00
         21   -1    0    0  501  502  0.00000000000E+00  0.00000000000E+00  0.25498077741E+03  0.25498077741E+03  0.00000000000E+00 0. -1.
         21   -1    0    0  502  503 -0.00000000000E+00 -0.00000000000E+00 -0.84216340377E+03  0.84216340377E+03  0.00000000000E+00 0. -1.
    9000007    1    1    2  501    0 -0.14325071137E+03  0.12226120610E+03 -0.12927228935E+03  0.46062988789E+03  0.40000000000E+03 0.  1.
   -9000007    1    1    2    0  503  0.14325071137E+03 -0.12226120610E+03 -0.45791033701E+03  0.63651429329E+03  0.40000000000E+03 0.  1.
<mgrwt>
<rscale>  2 0.44211827E+03</rscale>
<asrwt>0</asrwt>
<pdfrwt beam="1">  1       21 0.39227811E-01 0.44211827E+03</pdfrwt>
<pdfrwt beam="2">  1       21 0.12956360E+00 0.44211827E+03</pdfrwt>
<totfact> 0.23616610E+03</totfact>
</mgrwt>
</event>
<event>
 4    1  0.5013722E-002  0.4004448E+03  0.7818608E-02  0.1043626E+00
         21   -1    0    0  503  502  0.00000000000E+00  0.00000000000E+00  0.98454606145E+03  0.98454606145E+03  0.00000000000E+00 0.  1.
         21   -1    0    0  501  503 -0.00000000000E+00 -0.00000000000E+00 -0.17900703539E+03  0.17900703539E+03  0.00000000000E+00 0.  1.
    9000007    1    1    2  501    0 -0.17531027931E+02 -0.69759096542E+01  0.57742903163E+03  0.70269501693E+03  0.40000000000E+03 0. -1.
   -9000007    1    1    2    0  502  0.17531027931E+02  0.69759096542E+01  0.22810999444E+03  0.46085807991E+03  0.40000000000E+03 0. -1.
<mgrwt>
<rscale>  2 0.40044475E+03</rscale>
<asrwt>0</asrwt>
<pdfrwt beam="1">  1       21 0.15146862E+00 0.40044475E+03</pdfrwt>
<pdfrwt beam="2">  1       21 0.27539544E-01 0.40044475E+03</pdfrwt>
<totfact> 0.32274676E+03</totfact>
</mgrwt>
</event>
<event>
 4    1  0.5013722E-002  0.4421682E+03  0.7818608E-02  0.1030084E+00
         21   -1    0    0  501  502  0.00000000000E+00  0.00000000000E+00  0.24128842671E+03  0.24128842671E+03  0.00000000000E+00 0.  1.
         21   -1    0    0  502  503 -0.00000000000E+00 -0.00000000000E+00 -0.81676377356E+03  0.81676377356E+03  0.00000000000E+00 0.  1.
    9000007    1    1    2  501    0  0.16355322081E+03  0.93611132056E+02 -0.33484978647E+03  0.55465041204E+03  0.40000000000E+03 0.  1.
   -9000007    1    1    2    0  503 -0.16355322081E+03 -0.93611132056E+02 -0.24062556038E+03  0.50340178823E+03  0.40000000000E+03 0.  1.
<mgrwt>
<rscale>  2 0.44216818E+03</rscale>
<asrwt>0</asrwt>
<pdfrwt beam="1">  1       21 0.37121297E-01 0.44216818E+03</pdfrwt>
<pdfrwt beam="2">  1       21 0.12565596E+00 0.44216818E+03</pdfrwt>
<totfact> 0.28614081E+03</totfact>
</mgrwt>
</event>
<event>
 4    1  0.5013722E-002  0.4833872E+03  0.7818608E-02  0.1018208E+00
         21   -1    0    0  501  502  0.00000000000E+00  0.00000000000E+00  0.10343980132E+04  0.10343980132E+04  0.00000000000E+00 0. -1.
         21   -1    0    0  502  503 -0.00000000000E+00 -0.00000000000E+00 -0.22616256044E+03  0.22616256044E+03  0.00000000000E+00 0. -1.
    9000007    1    1    2  501    0  0.74325094524E+02 -0.26103440048E+03  0.42588096131E+03  0.64423425174E+03  0.40000000000E+03 0. -1.
   -9000007    1    1    2    0  503 -0.74325094524E+02  0.26103440048E+03  0.38235449140E+03  0.61632632185E+03  0.40000000000E+03 0. -1.
<mgrwt>
<rscale>  2 0.48338719E+03</rscale>
<asrwt>0</asrwt>
<pdfrwt beam="1">  1       21 0.15913815E+00 0.48338719E+03</pdfrwt>
<pdfrwt beam="2">  1       21 0.34794241E-01 0.48338719E+03</pdfrwt>
<totfact> 0.17099769E+03</totfact>
</mgrwt>
</event>
<event>
 4    1  0.5013722E-002  0.4418175E+03  0.7818608E-02  0.1030191E+00
         21   -1    0    0  501  502  0.00000000000E+00  0.00000000000E+00  0.36178095294E+03  0.36178095294E+03  0.00000000000E+00 0.  1.
         21   -1    0    0  502  503 -0.00000000000E+00 -0.00000000000E+00 -0.83952199929E+03  0.83952199929E+03  0.00000000000E+00 0. -1.
    9000007    1    1    2  501    0 -0.11777825304E+03  0.14605140449E+03  0.12016649662E+03  0.45786757535E+03  0.40000000000E+03 0.  1.
   -9000007    1    1    2    0  503  0.11777825304E+03 -0.14605140449E+03 -0.59790754298E+03  0.74343537688E+03  0.40000000000E+03 0. -1.
<mgrwt>
<rscale>  2 0.44181753E+03</rscale>
<asrwt>0</asrwt>
<pdfrwt beam="1">  1       21 0.55658610E-01 0.44181753E+03</pdfrwt>
<pdfrwt beam="2">  1       21 0.12915723E+00 0.44181753E+03</pdfrwt>
<totfact> 0.11396792E+03</totfact>
</mgrwt>
</event>
<event>
 4    1  0.5013722E-002  0.4959693E+03  0.7818608E-02  0.1014836E+00
         21   -1    0    0  503  502  0.00000000000E+00  0.00000000000E+00  0.66754467409E+03  0.66754467409E+03  0.00000000000E+00 0.  1.
         21   -1    0    0  501  503 -0.00000000000E+00 -0.00000000000E+00 -0.56783693359E+03  0.56783693359E+03  0.00000000000E+00 0. -1.
    9000007    1    1    2  501    0 -0.23258898484E+03  0.17857193182E+03 -0.31612901650E+03  0.58815229811E+03  0.40000000000E+03 0. -1.
   -9000007    1    1    2    0  502  0.23258898484E+03 -0.17857193182E+03  0.41583675700E+03  0.64722930957E+03  0.40000000000E+03 0.  1.
<mgrwt>
<rscale>  2 0.49596932E+03</rscale>
<asrwt>0</asrwt>
<pdfrwt beam="1">  1       21 0.10269918E+00 0.49596932E+03</pdfrwt>
<pdfrwt beam="2">  1       21 0.87359528E-01 0.49596932E+03</pdfrwt>
<totfact> 0.71820883E+02</totfact>
</mgrwt>
</event>
<event>
 4    1  0.5013722E-002  0.4239807E+03  0.7818608E-02  0.1035778E+00
         21   -1    0    0  503  502  0.00000000000E+00  0.00000000000E+00  0.11581392228E+03  0.11581392228E+03  0.00000000000E+00 0.  1.
         21   -1    0    0  501  503 -0.00000000000E+00 -0.00000000000E+00 -0.15553923040E+04  0.15553923040E+04  0.00000000000E+00 0.  1.
    9000007    1    1    2  501    0 -0.41026110427E+02  0.13444888917E+03 -0.68159068721E+03  0.80269889151E+03  0.40000000000E+03 0.  1.
   -9000007    1    1    2    0  502  0.41026110427E+02 -0.13444888917E+03 -0.75798769451E+03  0.86850733478E+03  0.40000000000E+03 0.  1.
<mgrwt>
<rscale>  2 0.42398071E+03</rscale>
<asrwt>0</asrwt>
<pdfrwt beam="1">  1       21 0.17817528E-01 0.42398071E+03</pdfrwt>
<pdfrwt beam="2">  1       21 0.23929111E+00 0.42398071E+03</pdfrwt>
<totfact> 0.18578145E+03</totfact>
</mgrwt>
</event>
<event>
 4    1  0.5013722E-002  0.4848112E+03  0.7818608E-02  0.1017821E+00
         21   -1    0    0  503  502  0.00000000000E+00  0.00000000000E+00  0.77408506352E+03  0.77408506352E+03  0.00000000000E+00 0.  1.
         21   -1    0    0  501  503 -0.00000000000E+00 -0.00000000000E+00 -0.30455584226E+03  0.30455584226E+03  0.00000000000E+00 0.  1.
    9000007    1    1    2  501    0 -0.15473788187E+03 -0.22604878373E+03  0.20516207471E+03  0.52643455587E+03  0.40000000000E+03 0.  1.
   -9000007    1    1    2    0  502  0.15473788187E+03  0.22604878373E+03  0.26436714655E+03  0.55220634992E+03  0.40000000000E+03 0.  1.
<mgrwt>
<rscale>  2 0.48481116E+03</rscale>
<asrwt>0</asrwt>
<pdfrwt beam="1">  1       21 0.11909001E+00 0.48481116E+03</pdfrwt>
<pdfrwt beam="2">  1       21 0.46854745E-01 0.48481116E+03</pdfrwt>
<totfact> 0.19942333E+03</totfact>
</mgrwt>
</event>
<event>
 4    1  0.5013722E-002  0.4554422E+03  0.7818608E-02  0.1026111E+00
         21   -1    0    0  501  502  0.00000000000E+00  0.00000000000E+00  0.40536253250E+03  0.40536253250E+03  0.00000000000E+00 0. -1.
         21   -1    0    0  502  503 -0.00000000000E+00 -0.00000000000E+00 -0.54566220413E+03  0.54566220413E+03  0.00000000000E+00 0.  1.
    9000007    1    1    2  501    0  0.11165447073E+03 -0.18697834142E+03  0.48465493231E+02  0.45801367341E+03  0.40000000000E+03 0. -1.
   -9000007    1    1    2    0  503 -0.11165447073E+03  0.18697834142E+03 -0.18876516485E+03  0.49301106322E+03  0.40000000000E+03 0.  1.
<mgrwt>
<rscale>  2 0.45544223E+03</rscale>
<asrwt>0</asrwt>
<pdfrwt beam="1">  1       21 0.62363467E-01 0.45544223E+03</pdfrwt>
<pdfrwt beam="2">  1       21 0.83948031E-01 0.45544223E+03</pdfrwt>
<totfact> 0.25455955E+03</totfact>
</mgrwt>
</event>
<event>
 4    1  0.5013722E-002  0.6973074E+03  0.7818608E-02  0.9721848E-01
         21   -1    0    0  503  502  0.00000000000E+00  0.00000000000E+00  0.10414541557E+04  0.10414541557E+04  0.00000000000E+00 0.  1.
         21   -1    0    0  501  503 -0.00000000000E+00 -0.00000000000E+00 -0.73126594791E+03  0.73126594791E+03  0.00000000000E+00 0.  1.
    9000007    1    1    2  501    0 -0.37827012261E+03  0.42795948482E+03 -0.37785892021E+03  0.79310463994E+03  0.40000000000E+03 0.  1.
   -9000007    1    1    2    0  502  0.37827012261E+03 -0.42795948482E+03  0.68804712796E+03  0.97961546364E+03  0.40000000000E+03 0.  1.
<mgrwt>
<rscale>  2 0.69730740E+03</rscale>
<asrwt>0</asrwt>
<pdfrwt beam="1">  1       21 0.16022372E+00 0.69730740E+03</pdfrwt>
<pdfrwt beam="2">  1       21 0.11250245E+00 0.69730740E+03</pdfrwt>
<totfact> 0.11243748E+02</totfact>
</mgrwt>
</event>
<event>
 4    1  0.5013722E-002  0.4317960E+03  0.7818608E-02  0.1033294E+00
         21   -1    0    0  503  502  0.00000000000E+00  0.00000000000E+00  0.91666739465E+02  0.91666739465E+02  0.00000000000E+00 0. -1.
         21   -1    0    0  501  503 -0.00000000000E+00 -0.00000000000E+00 -0.21134530671E+04  0.21134530671E+04  0.00000000000E+00 0. -1.
    9000007    1    1    2  501    0  0.13099232888E+03  0.96378187981E+02 -0.12247055445E+04  0.12985959402E+04  0.40000000000E+03 0. -1.
   -9000007    1    1    2    0  502 -0.13099232888E+03 -0.96378187981E+02 -0.79708078322E+03  0.90652386638E+03  0.40000000000E+03 0. -1.
<mgrwt>
<rscale>  2 0.43179595E+03</rscale>
<asrwt>0</asrwt>
<pdfrwt beam="1">  1       21 0.14102578E-01 0.43179595E+03</pdfrwt>
<pdfrwt beam="2">  1       21 0.32514657E+00 0.43179595E+03</pdfrwt>
<totfact> 0.86538244E+02</totfact>
</mgrwt>
</event>
<event>
 4    1  0.5013722E-002  0.4074700E+03  0.7818608E-02  0.1041223E+00
         21   -1    0    0  503  502  0.00000000000E+00  0.00000000000E+00  0.41175697099E+03  0.41175697099E+03  0.00000000000E+00 0.  1.
         21   -1    0    0  501  503 -0.00000000000E+00 -0.00000000000E+00 -0.15886645317E+04  0.15886645317E+04  0.00000000000E+00 0.  1.
    9000007    1    1    2  501    0  0.58200996611E+02  0.51424284490E+02 -0.14524555431E+04  0.15085287262E+04  0.40000000000E+03 0.  1.
   -9000007    1    1    2    0  502 -0.58200996611E+02 -0.51424284490E+02  0.27554798235E+03  0.49189277655E+03  0.40000000000E+03 0.  1.
<mgrwt>
<rscale>  2 0.40747001E+03</rscale>
<asrwt>0</asrwt>
<pdfrwt beam="1">  1       21 0.63347227E-01 0.40747001E+03</pdfrwt>
<pdfrwt beam="2">  1       21 0.24440992E+00 0.40747001E+03</pdfrwt>
<totfact> 0.13426021E+02</totfact>
</mgrwt>
</event>
<event>
 4    1  0.5013722E-002  0.4162171E+03  0.7818608E-02  0.1038305E+00
         21   -1    0    0  501  502  0.00000000000E+00  0.00000000000E+00  0.22063313458E+03  0.22063313458E+03  0.00000000000E+00 0. -1.
         21   -1    0    0  502  503 -0.00000000000E+00 -0.00000000000E+00 -0.11244859349E+04  0.11244859349E+04  0.00000000000E+00 0.  1.
    9000007    1    1    2  501    0  0.90440533939E+02  0.71114053734E+02 -0.82137117024E+03  0.92080795942E+03  0.40000000000E+03 0.  1.
   -9000007    1    1    2    0  503 -0.90440533939E+02 -0.71114053734E+02 -0.82481630065E+02  0.42431111005E+03  0.40000000000E+03 0. -1.
<mgrwt>
<rscale>  2 0.41621713E+03</rscale>
<asrwt>0</asrwt>
<pdfrwt beam="1">  1       21 0.33943558E-01 0.41621713E+03</pdfrwt>
<pdfrwt beam="2">  1       21 0.17299784E+00 0.41621713E+03</pdfrwt>
<totfact> 0.14605687E+03</totfact>
</mgrwt>
</event>
<event>
 4    1  0.5013722E-002  0.4926877E+03  0.7818608E-02  0.1015705E+00
         21   -1    0    0  503  502  0.00000000000E+00  0.00000000000E+00  0.20580140250E+04  0.20580140250E+04  0.00000000000E+00 0. -1.
         21   -1    0    0  501  503 -0.00000000000E+00 -0.00000000000E+00 -0.20522724018E+03  0.20522724018E+03  0.00000000000E+00 0.  1.
    9000007    1    1    2  501    0 -0.27577210641E+03  0.81797956184E+02  0.18842835936E+03  0.52749066999E+03  0.40000000000E+03 0.  1.
   -9000007    1    1    2    0  502  0.27577210641E+03 -0.81797956184E+02  0.16643584255E+04  0.17357505952E+04  0.40000000000E+03 0. -1.
<mgrwt>
<rscale>  2 0.49268769E+03</rscale>
<asrwt>0</asrwt>
<pdfrwt beam="1">  1       21 0.31661753E+00 0.49268769E+03</pdfrwt>
<pdfrwt beam="2">  1       21 0.31573423E-01 0.49268769E+03</pdfrwt>
<totfact> 0.20062519E+02</totfact>
</mgrwt>
</event>
<event>
 4    1  0.5013722E-002  0.4326764E+03  0.7818608E-02  0.1033018E+00
         21   -1    0    0  503  502  0.00000000000E+00  0.00000000000E+00  0.42380604501E+03  0.42380604501E+03  0.00000000000E+00 0. -1.
         21   -1    0    0  501  503 -0.00000000000E+00 -0.00000000000E+00 -0.57477001663E+03  0.57477001663E+03  0.00000000000E+00 0.  1.
    9000007    1    1    2  501    0  0.15733210587E+03  0.49552884707E+02 -0.31569208320E+03  0.53560281115E+03  0.40000000000E+03 0.  1.
   -9000007    1    1    2    0  502 -0.15733210587E+03 -0.49552884707E+02  0.16472811158E+03  0.46297325049E+03  0.40000000000E+03 0. -1.
<mgrwt>
<rscale>  2 0.43267641E+03</rscale>
<asrwt>0</asrwt>
<pdfrwt beam="1">  1       21 0.65200930E-01 0.43267641E+03</pdfrwt>
<pdfrwt beam="2">  1       21 0.88426156E-01 0.43267641E+03</pdfrwt>
<totfact> 0.20594370E+03</totfact>
</mgrwt>
</event>
<event>
 4    1  0.5013722E-002  0.4677007E+03  0.7818608E-02  0.1022571E+00
         21   -1    0    0  503  502  0.00000000000E+00  0.00000000000E+00  0.31575472434E+03  0.31575472434E+03  0.00000000000E+00 0.  1.
         21   -1    0    0  501  503 -0.00000000000E+00 -0.00000000000E+00 -0.71430212654E+03  0.71430212654E+03  0.00000000000E+00 0. -1.
    9000007    1    1    2  501    0  0.19375460692E+03 -0.14561270778E+03 -0.28870331118E+03  0.54963033964E+03  0.40000000000E+03 0.  1.
   -9000007    1    1    2    0  502 -0.19375460692E+03  0.14561270778E+03 -0.10984409102E+03  0.48042651124E+03  0.40000000000E+03 0. -1.
<mgrwt>
<rscale>  2 0.46770066E+03</rscale>
<asrwt>0</asrwt>
<pdfrwt beam="1">  1       21 0.48577650E-01 0.46770066E+03</pdfrwt>
<pdfrwt beam="2">  1       21 0.10989263E+00 0.46770066E+03</pdfrwt>
<totfact> 0.22735567E+03</totfact>
</mgrwt>
</event>
<event>
 4    1  0.5013722E-002  0.4280509E+03  0.7818608E-02  0.1034477E+00
         21   -1    0    0  501  502  0.00000000000E+00  0.00000000000E+00  0.13947041007E+04  0.13947041007E+04  0.00000000000E+00 0. -1.
         21   -1    0    0  502  503 -0.00000000000E+00 -0.00000000000E+00 -0.14304173780E+03  0.14304173780E+03  0.00000000000E+00 0. -1.
    9000007    1    1    2  501    0  0.42191304939E+02 -0.14644939241E+03  0.40623698733E+03  0.59013220606E+03  0.40000000000E+03 0. -1.
   -9000007    1    1    2    0  503 -0.42191304939E+02  0.14644939241E+03  0.84542537556E+03  0.94761363244E+03  0.40000000000E+03 0. -1.
<mgrwt>
<rscale>  2 0.42805085E+03</rscale>
<asrwt>0</asrwt>
<pdfrwt beam="1">  1       21 0.21456985E+00 0.42805085E+03</pdfrwt>
<pdfrwt beam="2">  1       21 0.22006422E-01 0.42805085E+03</pdfrwt>
<totfact> 0.17783223E+03</totfact>
</mgrwt>
</event>
<event>
 4    1  0.5013722E-002  0.4379587E+03  0.7818608E-02  0.1031375E+00
         21   -1    0    0  503  502  0.00000000000E+00  0.00000000000E+00  0.10346883620E+04  0.10346883620E+04  0.00000000000E+00 0. -1.
         21   -1    0    0  501  503 -0.00000000000E+00 -0.00000000000E+00 -0.23886153068E+03  0.23886153068E+03  0.00000000000E+00 0. -1.
    9000007    1    1    2  501    0 -0.17253130902E+03 -0.45175252544E+02  0.69923154579E+03  0.82506521601E+03  0.40000000000E+03 0. -1.
   -9000007    1    1    2    0  502  0.17253130902E+03  0.45175252544E+02  0.96595285544E+02  0.44848467669E+03  0.40000000000E+03 0. -1.
<mgrwt>
<rscale>  2 0.43795874E+03</rscale>
<asrwt>0</asrwt>
<pdfrwt beam="1">  1       21 0.15918282E+00 0.43795874E+03</pdfrwt>
<pdfrwt beam="2">  1       21 0.36747928E-01 0.43795874E+03</pdfrwt>
<totfact> 0.15575114E+03</totfact>
</mgrwt>
</event>
<event>
 4    1  0.5013722E-002  0.6750458E+03  0.7818608E-02  0.9760885E-01
         21   -1    0    0  501  502  0.00000000000E+00  0.00000000000E+00  0.91417486616E+03  0.91417486616E+03  0.00000000000E+00 0.  1.
         21   -1    0    0  502  503 -0.00000000000E+00 -0.00000000000E+00 -0.50265555219E+03  0.50265555219E+03  0.00000000000E+00 0. -1.
    9000007    1    1    2  501    0 -0.45073865149E+03  0.30417354136E+03  0.14109974165E+03  0.68963469483E+03  0.40000000000E+03 0. -1.
   -9000007    1    1    2    0  503  0.45073865149E+03 -0.30417354136E+03  0.27041957232E+03  0.72719572352E+03  0.40000000000E+03 0.  1.
<mgrwt>
<rscale>  2 0.67504583E+03</rscale>
<asrwt>0</asrwt>
<pdfrwt beam="1">  1       21 0.14064229E+00 0.67504583E+03</pdfrwt>
<pdfrwt beam="2">  1       21 0.77331623E-01 0.67504583E+03</pdfrwt>
<totfact> 0.40150152E+02</totfact>
</mgrwt>
</event>
<event>
 4    1  0.5013722E-002  0.4212048E+03  0.7818608E-02  0.1036675E+00
         21   -1    0    0  501  502  0.00000000000E+00  0.00000000000E+00  0.11940311673E+04  0.11940311673E+04  0.00000000000E+00 0.  1.
         21   -1    0    0  502  503 -0.00000000000E+00 -0.00000000000E+00 -0.15334760854E+03  0.15334760854E+03  0.00000000000E+00 0.  1.
    9000007    1    1    2  501    0  0.13170627481E+03 -0.81827559707E+01  0.63908409748E+03  0.76540315127E+03  0.40000000000E+03 0.  1.
   -9000007    1    1    2    0  503 -0.13170627481E+03  0.81827559707E+01  0.40159946132E+03  0.58197562462E+03  0.40000000000E+03 0.  1.
<mgrwt>
<rscale>  2 0.42120482E+03</rscale>
<asrwt>0</asrwt>
<pdfrwt beam="1">  1       21 0.18369710E+00 0.42120482E+03</pdfrwt>
<pdfrwt beam="2">  1       21 0.23591941E-01 0.42120482E+03</pdfrwt>
<totfact> 0.25078679E+03</totfact>
</mgrwt>
</event>
<event>
 4    1  0.5013722E-002  0.6059530E+03  0.7818608E-02  0.9893132E-01
         21   -1    0    0  501  502  0.00000000000E+00  0.00000000000E+00  0.82502904531E+03  0.82502904531E+03  0.00000000000E+00 0.  1.
         21   -1    0    0  502  503 -0.00000000000E+00 -0.00000000000E+00 -0.44545733745E+03  0.44545733745E+03  0.00000000000E+00 0. -1.
    9000007    1    1    2  501    0  0.41372547887E+03  0.18976358777E+03  0.20900056957E+03  0.64098379791E+03  0.40000000000E+03 0. -1.
   -9000007    1    1    2    0  503 -0.41372547887E+03 -0.18976358777E+03  0.17057113830E+03  0.62950258485E+03  0.40000000000E+03 0. -1.
<mgrwt>
<rscale>  2 0.60595296E+03</rscale>
<asrwt>0</asrwt>
<pdfrwt beam="1">  1       21 0.12692754E+00 0.60595296E+03</pdfrwt>
<pdfrwt beam="2">  1       21 0.68531898E-01 0.60595296E+03</pdfrwt>
<totfact> 0.70919121E+02</totfact>
</mgrwt>
</event>
<event>
 4    1  0.5013722E-002  0.6283208E+03  0.7818608E-02  0.9848331E-01
         21   -1    0    0  501  502  0.00000000000E+00  0.00000000000E+00  0.74973215240E+03  0.74973215240E+03  0.00000000000E+00 0. -1.
         21   -1    0    0  502  503 -0.00000000000E+00 -0.00000000000E+00 -0.52752535032E+03  0.52752535032E+03  0.00000000000E+00 0. -1.
    9000007    1    1    2  501    0  0.29857278472E+03 -0.38162988502E+03  0.83937703489E+02  0.63390268574E+03  0.40000000000E+03 0. -1.
   -9000007    1    1    2    0  503 -0.29857278472E+03  0.38162988502E+03  0.13826909860E+03  0.64335481699E+03  0.40000000000E+03 0. -1.
<mgrwt>
<rscale>  2 0.62832084E+03</rscale>
<asrwt>0</asrwt>
<pdfrwt beam="1">  1       21 0.11534341E+00 0.62832084E+03</pdfrwt>
<pdfrwt beam="2">  1       21 0.81157746E-01 0.62832084E+03</pdfrwt>
<totfact> 0.61088817E+02</totfact>
</mgrwt>
</event>
<event>
 4    1  0.5013722E-002  0.4329231E+03  0.7818608E-02  0.1032941E+00
         21   -1    0    0  503  502  0.00000000000E+00  0.00000000000E+00  0.38603844102E+03  0.38603844102E+03  0.00000000000E+00 0.  1.
         21   -1    0    0  501  503 -0.00000000000E+00 -0.00000000000E+00 -0.74117477391E+03  0.74117477391E+03  0.00000000000E+00 0.  1.
    9000007    1    1    2  501    0  0.16498085921E+03  0.14272598866E+02 -0.50859111293E+03  0.66789768014E+03  0.40000000000E+03 0.  1.
   -9000007    1    1    2    0  502 -0.16498085921E+03 -0.14272598866E+02  0.15345478004E+03  0.45931553479E+03  0.40000000000E+03 0.  1.
<mgrwt>
<rscale>  2 0.43292308E+03</rscale>
<asrwt>0</asrwt>
<pdfrwt beam="1">  1       21 0.59390530E-01 0.43292308E+03</pdfrwt>
<pdfrwt beam="2">  1       21 0.11402689E+00 0.43292308E+03</pdfrwt>
<totfact> 0.13641142E+03</totfact>
</mgrwt>
</event>
<event>
 4    1  0.5013722E-002  0.5741427E+03  0.7818608E-02  0.9960553E-01
         21   -1    0    0  501  502  0.00000000000E+00  0.00000000000E+00  0.16451011854E+04  0.16451011854E+04  0.00000000000E+00 0. -1.
         21   -1    0    0  502  503 -0.00000000000E+00 -0.00000000000E+00 -0.26577859534E+03  0.26577859534E+03  0.00000000000E+00 0. -1.
    9000007    1    1    2  501    0 -0.30929319590E+03  0.27198814398E+03  0.11636181055E+04  0.12975542096E+04  0.40000000000E+03 0. -1.
   -9000007    1    1    2    0  503  0.30929319590E+03 -0.27198814398E+03  0.21570448452E+03  0.61332557107E+03  0.40000000000E+03 0. -1.
<mgrwt>
<rscale>  2 0.57414269E+03</rscale>
<asrwt>0</asrwt>
<pdfrwt beam="1">  1       21 0.25309248E+00 0.57414269E+03</pdfrwt>
<pdfrwt beam="2">  1       21 0.40889016E-01 0.57414269E+03</pdfrwt>
<totfact> 0.27720281E+02</totfact>
</mgrwt>
</event>
<event>
 4    1  0.5013722E-002  0.5527901E+03  0.7818608E-02  0.1000850E+00
         21   -1    0    0  503  502  0.00000000000E+00  0.00000000000E+00  0.58193424165E+03  0.58193424165E+03  0.00000000000E+00 0.  1.
         21   -1    0    0  501  503 -0.00000000000E+00 -0.00000000000E+00 -0.53029822629E+03  0.53029822629E+03  0.00000000000E+00 0. -1.
    9000007    1    1    2  501    0 -0.26349933833E+03  0.27594383122E+03  0.80848216835E+02  0.55867104225E+03  0.40000000000E+03 0.  1.
   -9000007    1    1    2    0  502  0.26349933833E+03 -0.27594383122E+03 -0.29212201475E+02  0.55356142568E+03  0.40000000000E+03 0.  1.
<mgrwt>
<rscale>  2 0.55279010E+03</rscale>
<asrwt>0</asrwt>
<pdfrwt beam="1">  1       21 0.89528345E-01 0.55279010E+03</pdfrwt>
<pdfrwt beam="2">  1       21 0.81584342E-01 0.55279010E+03</pdfrwt>
<totfact> 0.11510857E+03</totfact>
</mgrwt>
</event>
<event>
 4    1  0.5013722E-002  0.4933967E+03  0.7818608E-02  0.1015517E+00
         21   -1    0    0  501  502  0.00000000000E+00  0.00000000000E+00  0.61141517843E+03  0.61141517843E+03  0.00000000000E+00 0. -1.
         21   -1    0    0  502  503 -0.00000000000E+00 -0.00000000000E+00 -0.39875636624E+03  0.39875636624E+03  0.00000000000E+00 0. -1.
    9000007    1    1    2  501    0 -0.25237744296E+03 -0.14052021406E+03  0.12588278698E+03  0.50920210166E+03  0.40000000000E+03 0. -1.
   -9000007    1    1    2    0  503  0.25237744296E+03  0.14052021406E+03  0.86776025210E+02  0.50096944301E+03  0.40000000000E+03 0. -1.
<mgrwt>
<rscale>  2 0.49339670E+03</rscale>
<asrwt>0</asrwt>
<pdfrwt beam="1">  1       21 0.94063873E-01 0.49339670E+03</pdfrwt>
<pdfrwt beam="2">  1       21 0.61347133E-01 0.49339670E+03</pdfrwt>
<totfact> 0.19899647E+03</totfact>
</mgrwt>
</event>
<event>
 4    1  0.5013722E-002  0.4438931E+03  0.7818608E-02  0.1029559E+00
         21   -1    0    0  503  502  0.00000000000E+00  0.00000000000E+00  0.16928446227E+03  0.16928446227E+03  0.00000000000E+00 0. -1.
         21   -1    0    0  501  503 -0.00000000000E+00 -0.00000000000E+00 -0.11710013570E+04  0.11710013570E+04  0.00000000000E+00 0.  1.
    9000007    1    1    2  501    0 -0.67435563840E+02 -0.18025959704E+03 -0.44890875365E+03  0.63131620184E+03  0.40000000000E+03 0. -1.
   -9000007    1    1    2    0  502  0.67435563840E+02  0.18025959704E+03 -0.55280814110E+03  0.70896961745E+03  0.40000000000E+03 0.  1.
<mgrwt>
<rscale>  2 0.44389309E+03</rscale>
<asrwt>0</asrwt>
<pdfrwt beam="1">  1       21 0.26043763E-01 0.44389309E+03</pdfrwt>
<pdfrwt beam="2">  1       21 0.18015406E+00 0.44389309E+03</pdfrwt>
<totfact> 0.21702748E+03</totfact>
</mgrwt>
</event>
<event>
 4    1  0.5013722E-002  0.4023909E+03  0.7818608E-02  0.1042955E+00
         21   -1    0    0  503  502  0.00000000000E+00  0.00000000000E+00  0.81138274341E+03  0.81138274341E+03  0.00000000000E+00 0.  1.
         21   -1    0    0  501  503 -0.00000000000E+00 -0.00000000000E+00 -0.20559797481E+03  0.20559797481E+03  0.00000000000E+00 0.  1.
    9000007    1    1    2  501    0 -0.27809253013E+02  0.33839337584E+02  0.21574245497E+03  0.45657777234E+03  0.40000000000E+03 0.  1.
   -9000007    1    1    2    0  502  0.27809253013E+02 -0.33839337584E+02  0.39004231364E+03  0.56040294588E+03  0.40000000000E+03 0.  1.
<mgrwt>
<rscale>  2 0.40239092E+03</rscale>
<asrwt>0</asrwt>
<pdfrwt beam="1">  1       21 0.12482811E+00 0.40239092E+03</pdfrwt>
<pdfrwt beam="2">  1       21 0.31630458E-01 0.40239092E+03</pdfrwt>
<totfact> 0.40806344E+03</totfact>
</mgrwt>
</event>
<event>
 4    1  0.5013722E-002  0.4078983E+03  0.7818608E-02  0.1041079E+00
         21   -1    0    0  501  502  0.00000000000E+00  0.00000000000E+00  0.22857889810E+04  0.22857889810E+04  0.00000000000E+00 0.  1.
         21   -1    0    0  502  503 -0.00000000000E+00 -0.00000000000E+00 -0.15335822691E+03  0.15335822691E+03  0.00000000000E+00 0.  1.
    9000007    1    1    2  501    0 -0.78199548617E+02  0.16304004989E+02  0.19501868593E+04  0.19923879582E+04  0.40000000000E+03 0.  1.
   -9000007    1    1    2    0  503  0.78199548617E+02 -0.16304004989E+02  0.18224389480E+03  0.44675924968E+03  0.40000000000E+03 0.  1.
<mgrwt>
<rscale>  2 0.40789826E+03</rscale>
<asrwt>0</asrwt>
<pdfrwt beam="1">  1       21 0.35165982E+00 0.40789826E+03</pdfrwt>
<pdfrwt beam="2">  1       21 0.23593575E-01 0.40789826E+03</pdfrwt>
<totfact> 0.22986183E+02</totfact>
</mgrwt>
</event>
<event>
 4    1  0.5013722E-002  0.5142498E+03  0.7818608E-02  0.1010125E+00
         21   -1    0    0  503  502  0.00000000000E+00  0.00000000000E+00  0.22622808841E+03  0.22622808841E+03  0.00000000000E+00 0. -1.
         21   -1    0    0  501  503 -0.00000000000E+00 -0.00000000000E+00 -0.15542344804E+04  0.15542344804E+04  0.00000000000E+00 0.  1.
    9000007    1    1    2  501    0 -0.36357701074E+02  0.32114004165E+03 -0.11072306551E+04  0.12208245298E+04  0.40000000000E+03 0.  1.
   -9000007    1    1    2    0  502  0.36357701074E+02 -0.32114004165E+03 -0.22077573685E+03  0.55963803906E+03  0.40000000000E+03 0. -1.
<mgrwt>
<rscale>  2 0.51424975E+03</rscale>
<asrwt>0</asrwt>
<pdfrwt beam="1">  1       21 0.34804321E-01 0.51424975E+03</pdfrwt>
<pdfrwt beam="2">  1       21 0.23911300E+00 0.51424975E+03</pdfrwt>
<totfact> 0.48388761E+02</totfact>
</mgrwt>
</event>
<event>
 4    1  0.5013722E-002  0.4464588E+03  0.7818608E-02  0.1028783E+00
         21   -1    0    0  501  502  0.00000000000E+00  0.00000000000E+00  0.85510497752E+03  0.85510497752E+03  0.00000000000E+00 0.  1.
         21   -1    0    0  502  503 -0.00000000000E+00 -0.00000000000E+00 -0.66241827053E+03  0.66241827053E+03  0.00000000000E+00 0. -1.
    9000007    1    1    2  501    0  0.86297112702E+02  0.17854490862E+03  0.70718493456E+03  0.83632290877E+03  0.40000000000E+03 0.  1.
   -9000007    1    1    2    0  503 -0.86297112702E+02 -0.17854490862E+03 -0.51449822758E+03  0.68120033928E+03  0.40000000000E+03 0. -1.
<mgrwt>
<rscale>  2 0.44645882E+03</rscale>
<asrwt>0</asrwt>
<pdfrwt beam="1">  1       21 0.13155461E+00 0.44645882E+03</pdfrwt>
<pdfrwt beam="2">  1       21 0.10191050E+00 0.44645882E+03</pdfrwt>
<totfact> 0.27162222E+02</totfact>
</mgrwt>
</event>
<event>
 4    1  0.5013722E-002  0.4233405E+03  0.7818608E-02  0.1035985E+00
         21   -1    0    0  503  502  0.00000000000E+00  0.00000000000E+00  0.18984848534E+03  0.18984848534E+03  0.00000000000E+00 0.  1.
         21   -1    0    0  501  503 -0.00000000000E+00 -0.00000000000E+00 -0.96556433709E+03  0.96556433709E+03  0.00000000000E+00 0.  1.
    9000007    1    1    2  501    0 -0.75846290850E+02  0.11603675859E+03 -0.47419016749E+03  0.63566776238E+03  0.40000000000E+03 0.  1.
   -9000007    1    1    2    0  502  0.75846290850E+02 -0.11603675859E+03 -0.30152568426E+03  0.51974506005E+03  0.40000000000E+03 0.  1.
<mgrwt>
<rscale>  2 0.42334051E+03</rscale>
<asrwt>0</asrwt>
<pdfrwt beam="1">  1       21 0.29207460E-01 0.42334051E+03</pdfrwt>
<pdfrwt beam="2">  1       21 0.14854836E+00 0.42334051E+03</pdfrwt>
<totfact> 0.30013574E+03</totfact>
</mgrwt>
</event>
<event>
 4    1  0.5013722E-002  0.4189323E+03  0.7818608E-02  0.1037414E+00
         21   -1    0    0  501  502  0.00000000000E+00  0.00000000000E+00  0.13362106986E+03  0.13362106986E+03  0.00000000000E+00 0.  1.
         21   -1    0    0  502  503 -0.00000000000E+00 -0.00000000000E+00 -0.13188629771E+04  0.13188629771E+04  0.00000000000E+00 0.  1.
    9000007    1    1    2  501    0 -0.12427113016E+03  0.78072053232E+01 -0.54608398735E+03  0.68826738081E+03  0.40000000000E+03 0.  1.
   -9000007    1    1    2    0  503  0.12427113016E+03 -0.78072053232E+01 -0.63915791987E+03  0.76421666612E+03  0.40000000000E+03 0.  1.
<mgrwt>
<rscale>  2 0.41893229E+03</rscale>
<asrwt>0</asrwt>
<pdfrwt beam="1">  1       21 0.20557087E-01 0.41893229E+03</pdfrwt>
<pdfrwt beam="2">  1       21 0.20290201E+00 0.41893229E+03</pdfrwt>
<totfact> 0.24237400E+03</totfact>
</mgrwt>
</event>
<event>
 4    1  0.5013722E-002  0.4342718E+03  0.7818608E-02  0.1032519E+00
         21   -1    0    0  501  502  0.00000000000E+00  0.00000000000E+00  0.21545319021E+03  0.21545319021E+03  0.00000000000E+00 0.  1.
         21   -1    0    0  502  503 -0.00000000000E+00 -0.00000000000E+00 -0.96286547191E+03  0.96286547191E+03  0.00000000000E+00 0.  1.
    9000007    1    1    2  501    0  0.16240788530E+03  0.47070726502E+02 -0.55134978189E+03  0.70183940933E+03  0.40000000000E+03 0.  1.
   -9000007    1    1    2    0  503 -0.16240788530E+03 -0.47070726502E+02 -0.19606249981E+03  0.47647925278E+03  0.40000000000E+03 0.  1.
<mgrwt>
<rscale>  2 0.43427177E+03</rscale>
<asrwt>0</asrwt>
<pdfrwt beam="1">  1       21 0.33146644E-01 0.43427177E+03</pdfrwt>
<pdfrwt beam="2">  1       21 0.14813315E+00 0.43427177E+03</pdfrwt>
<totfact> 0.23397703E+03</totfact>
</mgrwt>
</event>
<event>
 4    1  0.5013722E-002  0.4708699E+03  0.7818608E-02  0.1021675E+00
         21   -1    0    0  503  502  0.00000000000E+00  0.00000000000E+00  0.31636397622E+03  0.31636397622E+03  0.00000000000E+00 0. -1.
         21   -1    0    0  501  503 -0.00000000000E+00 -0.00000000000E+00 -0.78808373450E+03  0.78808373450E+03  0.00000000000E+00 0. -1.
    9000007    1    1    2  501    0  0.19656715903E+03 -0.15192032144E+03 -0.41960364069E+03  0.63070250305E+03  0.40000000000E+03 0. -1.
   -9000007    1    1    2    0  502 -0.19656715903E+03  0.15192032144E+03 -0.52116117584E+02  0.47374520767E+03  0.40000000000E+03 0. -1.
<mgrwt>
<rscale>  2 0.47086987E+03</rscale>
<asrwt>0</asrwt>
<pdfrwt beam="1">  1       21 0.48671381E-01 0.47086987E+03</pdfrwt>
<pdfrwt beam="2">  1       21 0.12124365E+00 0.47086987E+03</pdfrwt>
<totfact> 0.17667321E+03</totfact>
</mgrwt>
</event>
<event>
 4    1  0.5013722E-002  0.4097852E+03  0.7818608E-02  0.1040443E+00
         21   -1    0    0  503  502  0.00000000000E+00  0.00000000000E+00  0.12374192704E+03  0.12374192704E+03  0.00000000000E+00 0.  1.
         21   -1    0    0  501  503 -0.00000000000E+00 -0.00000000000E+00 -0.17342063297E+04  0.17342063297E+04  0.00000000000E+00 0. -1.
    9000007    1    1    2  501    0  0.52629620700E+02  0.71791469621E+02 -0.12384580437E+04  0.13044930886E+04  0.40000000000E+03 0. -1.
   -9000007    1    1    2    0  502 -0.52629620700E+02 -0.71791469621E+02 -0.37200635896E+03  0.55345516818E+03  0.40000000000E+03 0.  1.
<mgrwt>
<rscale>  2 0.40978518E+03</rscale>
<asrwt>0</asrwt>
<pdfrwt beam="1">  1       21 0.19037221E-01 0.40978518E+03</pdfrwt>
<pdfrwt beam="2">  1       21 0.26680096E+00 0.40978518E+03</pdfrwt>
<totfact> 0.11219373E+03</totfact>
</mgrwt>
</event>
<event>
 4    1  0.5013722E-002  0.6439858E+03  0.7818608E-02  0.9818130E-01
         21   -1    0    0  501  502  0.00000000000E+00  0.00000000000E+00  0.20699795095E+04  0.20699795095E+04  0.00000000000E+00 0.  1.
         21   -1    0    0  502  503 -0.00000000000E+00 -0.00000000000E+00 -0.20060548448E+03  0.20060548448E+03  0.00000000000E+00 0.  1.
    9000007    1    1    2  501    0  0.90106214888E+02  0.49658698329E+03  0.97530299701E+03  0.11687316621E+04  0.40000000000E+03 0.  1.
   -9000007    1    1    2    0  503 -0.90106214888E+02 -0.49658698329E+03  0.89407102804E+03  0.11018533319E+04  0.40000000000E+03 0.  1.
<mgrwt>
<rscale>  2 0.64398584E+03</rscale>
<asrwt>0</asrwt>
<pdfrwt beam="1">  1       21 0.31845837E+00 0.64398584E+03</pdfrwt>
<pdfrwt beam="2">  1       21 0.30862384E-01 0.64398584E+03</pdfrwt>
<totfact> 0.19022123E+02</totfact>
</mgrwt>
</event>
<event>
 4    1  0.5013722E-002  0.5051713E+03  0.7818608E-02  0.1012438E+00
         21   -1    0    0  501  502  0.00000000000E+00  0.00000000000E+00  0.36815579196E+03  0.36815579196E+03  0.00000000000E+00 0. -1.
         21   -1    0    0  502  503 -0.00000000000E+00 -0.00000000000E+00 -0.14319490596E+04  0.14319490596E+04  0.00000000000E+00 0.  1.
    9000007    1    1    2  501    0  0.22966520852E+03  0.20603868795E+03  0.11458846303E+03  0.51800440616E+03  0.40000000000E+03 0. -1.
   -9000007    1    1    2    0  503 -0.22966520852E+03 -0.20603868795E+03 -0.11783817306E+04  0.12821004454E+04  0.40000000000E+03 0.  1.
<mgrwt>
<rscale>  2 0.50517131E+03</rscale>
<asrwt>0</asrwt>
<pdfrwt beam="1">  1       21 0.56639352E-01 0.50517131E+03</pdfrwt>
<pdfrwt beam="2">  1       21 0.22029986E+00 0.50517131E+03</pdfrwt>
<totfact> 0.23017180E+02</totfact>
</mgrwt>
</event>
<event>
 4    1  0.5013722E-002  0.6283023E+03  0.7818608E-02  0.9848367E-01
         21   -1    0    0  501  502  0.00000000000E+00  0.00000000000E+00  0.41988511523E+04  0.41988511523E+04  0.00000000000E+00 0.  1.
         21   -1    0    0  502  503 -0.00000000000E+00 -0.00000000000E+00 -0.21400565221E+03  0.21400565221E+03  0.00000000000E+00 0. -1.
    9000007    1    1    2  501    0 -0.42265818807E+03  0.23690462973E+03  0.36445639076E+04  0.36983252729E+04  0.40000000000E+03 0.  1.
   -9000007    1    1    2    0  503  0.42265818807E+03 -0.23690462973E+03  0.34028159257E+03  0.71453153169E+03  0.40000000000E+03 0. -1.
<mgrwt>
<rscale>  2 0.62830227E+03</rscale>
<asrwt>0</asrwt>
<pdfrwt beam="1">  1       21 0.64597704E+00 0.62830227E+03</pdfrwt>
<pdfrwt beam="2">  1       21 0.32923950E-01 0.62830227E+03</pdfrwt>
<totfact> 0.81187656E-01</totfact>
</mgrwt>
</event>
<event>
 4    1  0.5013722E-002  0.5685217E+03  0.7818608E-02  0.9972955E-01
         21   -1    0    0  501  502  0.00000000000E+00  0.00000000000E+00  0.28312343923E+03  0.28312343923E+03  0.00000000000E+00 0. -1.
         21   -1    0    0  502  503 -0.00000000000E+00 -0.00000000000E+00 -0.11482322246E+04  0.11482322246E+04  0.00000000000E+00 0.  1.
    9000007    1    1    2  501    0  0.11646719676E+03  0.38684922996E+03 -0.48689944821E+03  0.74852388560E+03  0.40000000000E+03 0. -1.
   -9000007    1    1    2    0  503 -0.11646719676E+03 -0.38684922996E+03 -0.37820933712E+03  0.68283177820E+03  0.40000000000E+03 0.  1.
<mgrwt>
<rscale>  2 0.56852171E+03</rscale>
<asrwt>0</asrwt>
<pdfrwt beam="1">  1       21 0.43557452E-01 0.56852171E+03</pdfrwt>
<pdfrwt beam="2">  1       21 0.17665111E+00 0.56852171E+03</pdfrwt>
<totfact> 0.77501925E+02</totfact>
</mgrwt>
</event>
<event>
 4    1  0.5013722E-002  0.5641502E+03  0.7818608E-02  0.9982708E-01
         21   -1    0    0  503  502  0.00000000000E+00  0.00000000000E+00  0.19067656042E+04  0.19067656042E+04  0.00000000000E+00 0. -1.
         21   -1    0    0  501  503 -0.00000000000E+00 -0.00000000000E+00 -0.50563071575E+03  0.50563071575E+03  0.00000000000E+00 0. -1.
    9000007    1    1    2  501    0 -0.23885630827E+03  0.31814008624E+03 -0.28666721690E+03  0.63280608698E+03  0.40000000000E+03 0. -1.
   -9000007    1    1    2    0  502  0.23885630827E+03 -0.31814008624E+03  0.16878021053E+04  0.17795902329E+04  0.40000000000E+03 0. -1.
<mgrwt>
<rscale>  2 0.56415020E+03</rscale>
<asrwt>0</asrwt>
<pdfrwt beam="1">  1       21 0.29334855E+00 0.56415020E+03</pdfrwt>
<pdfrwt beam="2">  1       21 0.77789342E-01 0.56415020E+03</pdfrwt>
<totfact> 0.38773940E+01</totfact>
</mgrwt>
</event>
<event>
 4    1  0.5013722E-002  0.9976814E+03  0.7818608E-02  0.9311092E-01
         21   -1    0    0  503  502  0.00000000000E+00  0.00000000000E+00  0.10109757029E+04  0.10109757029E+04  0.00000000000E+00 0.  1.
         21   -1    0    0  501  503 -0.00000000000E+00 -0.00000000000E+00 -0.11514627484E+04  0.11514627484E+04  0.00000000000E+00 0. -1.
    9000007    1    1    2  501    0 -0.57821263176E+03 -0.70784054972E+03 -0.48188409408E+03  0.11079622609E+04  0.40000000000E+03 0. -1.
   -9000007    1    1    2    0  502  0.57821263176E+03  0.70784054972E+03  0.34139704864E+03  0.10544761904E+04  0.40000000000E+03 0.  1.
<mgrwt>
<rscale>  2 0.99768136E+03</rscale>
<asrwt>0</asrwt>
<pdfrwt beam="1">  1       21 0.15553473E+00 0.99768136E+03</pdfrwt>
<pdfrwt beam="2">  1       21 0.17714811E+00 0.99768136E+03</pdfrwt>
<totfact> 0.32428563E+01</totfact>
</mgrwt>
</event>
<event>
 4    1  0.5013722E-002  0.5031779E+03  0.7818608E-02  0.1012953E+00
         21   -1    0    0  501  502  0.00000000000E+00  0.00000000000E+00  0.46034568347E+03  0.46034568347E+03  0.00000000000E+00 0.  1.
         21   -1    0    0  502  503 -0.00000000000E+00 -0.00000000000E+00 -0.66659768467E+03  0.66659768467E+03  0.00000000000E+00 0.  1.
    9000007    1    1    2  501    0  0.27983792796E+03 -0.12197857382E+03  0.13253819448E+03  0.52034066860E+03  0.40000000000E+03 0.  1.
   -9000007    1    1    2    0  503 -0.27983792796E+03  0.12197857382E+03 -0.33879019568E+03  0.60660269954E+03  0.40000000000E+03 0.  1.
<mgrwt>
<rscale>  2 0.50317794E+03</rscale>
<asrwt>0</asrwt>
<pdfrwt beam="1">  1       21 0.70822413E-01 0.50317794E+03</pdfrwt>
<pdfrwt beam="2">  1       21 0.10255349E+00 0.50317794E+03</pdfrwt>
<totfact> 0.11670020E+03</totfact>
</mgrwt>
</event>
<event>
 4    1  0.5013722E-002  0.4867899E+03  0.7818608E-02  0.1017286E+00
         21   -1    0    0  503  502  0.00000000000E+00  0.00000000000E+00  0.45583707885E+03  0.45583707885E+03  0.00000000000E+00 0. -1.
         21   -1    0    0  501  503 -0.00000000000E+00 -0.00000000000E+00 -0.10195518376E+04  0.10195518376E+04  0.00000000000E+00 0. -1.
    9000007    1    1    2  501    0 -0.24733670187E+03 -0.12565394779E+03 -0.79830914462E+03  0.93501970518E+03  0.40000000000E+03 0. -1.
   -9000007    1    1    2    0  502  0.24733670187E+03  0.12565394779E+03  0.23459438582E+03  0.54036921132E+03  0.40000000000E+03 0. -1.
<mgrwt>
<rscale>  2 0.48678985E+03</rscale>
<asrwt>0</asrwt>
<pdfrwt beam="1">  1       21 0.70128782E-01 0.48678985E+03</pdfrwt>
<pdfrwt beam="2">  1       21 0.15685413E+00 0.48678985E+03</pdfrwt>
<totfact> 0.39898364E+02</totfact>
</mgrwt>
</event>
<event>
 4    1  0.5013722E-002  0.5149317E+03  0.7818608E-02  0.1009953E+00
         21   -1    0    0  503  502  0.00000000000E+00  0.00000000000E+00  0.19432528003E+04  0.19432528003E+04  0.00000000000E+00 0.  1.
         21   -1    0    0  501  503 -0.00000000000E+00 -0.00000000000E+00 -0.15387580302E+03  0.15387580302E+03  0.00000000000E+00 0. -1.
    9000007    1    1    2  501    0  0.32412369987E+03 -0.99230491780E+01  0.54181386469E+03  0.74747368094E+03  0.40000000000E+03 0. -1.
   -9000007    1    1    2    0  502 -0.32412369987E+03  0.99230491780E+01  0.12475631326E+04  0.13496549224E+04  0.40000000000E+03 0.  1.
<mgrwt>
<rscale>  2 0.51493168E+03</rscale>
<asrwt>0</asrwt>
<pdfrwt beam="1">  1       21 0.29896195E+00 0.51493168E+03</pdfrwt>
<pdfrwt beam="2">  1       21 0.23673202E-01 0.51493168E+03</pdfrwt>
<totfact> 0.44732990E+02</totfact>
</mgrwt>
</event>
<event>
 4    1  0.5013722E-002  0.4336343E+03  0.7818608E-02  0.1032718E+00
         21   -1    0    0  503  502  0.00000000000E+00  0.00000000000E+00  0.40804547161E+03  0.40804547161E+03  0.00000000000E+00 0. -1.
         21   -1    0    0  501  503 -0.00000000000E+00 -0.00000000000E+00 -0.48441067934E+03  0.48441067934E+03  0.00000000000E+00 0.  1.
    9000007    1    1    2  501    0 -0.16013244163E+03 -0.48952125950E+02 -0.13663995987E+03  0.45465282154E+03  0.40000000000E+03 0.  1.
   -9000007    1    1    2    0  502  0.16013244163E+03  0.48952125950E+02  0.60274752148E+02  0.43780332941E+03  0.40000000000E+03 0. -1.
<mgrwt>
<rscale>  2 0.43363430E+03</rscale>
<asrwt>0</asrwt>
<pdfrwt beam="1">  1       21 0.62776227E-01 0.43363430E+03</pdfrwt>
<pdfrwt beam="2">  1       21 0.74524720E-01 0.43363430E+03</pdfrwt>
<totfact> 0.33269471E+03</totfact>
</mgrwt>
</event>
<event>
 4    1  0.5013722E-002  0.5950424E+03  0.7818608E-02  0.9915745E-01
         21   -1    0    0  503  502  0.00000000000E+00  0.00000000000E+00  0.49011059573E+03  0.49011059573E+03  0.00000000000E+00 0. -1.
         21   -1    0    0  501  503 -0.00000000000E+00 -0.00000000000E+00 -0.14182543645E+04  0.14182543645E+04  0.00000000000E+00 0.  1.
    9000007    1    1    2  501    0  0.17876921641E+03  0.40263754819E+03 -0.11324175162E+04  0.12792360451E+04  0.40000000000E+03 0.  1.
   -9000007    1    1    2    0  502 -0.17876921641E+03 -0.40263754819E+03  0.20427374748E+03  0.62912891513E+03  0.40000000000E+03 0. -1.
<mgrwt>
<rscale>  2 0.59504237E+03</rscale>
<asrwt>0</asrwt>
<pdfrwt beam="1">  1       21 0.75401631E-01 0.59504237E+03</pdfrwt>
<pdfrwt beam="2">  1       21 0.21819298E+00 0.59504237E+03</pdfrwt>
<totfact> 0.12031654E+02</totfact>
</mgrwt>
</event>
<event>
 4    1  0.5013722E-002  0.4068737E+03  0.7818608E-02  0.1041425E+00
         21   -1    0    0  501  502  0.00000000000E+00  0.00000000000E+00  0.11639352181E+04  0.11639352181E+04  0.00000000000E+00 0. -1.
         21   -1    0    0  502  503 -0.00000000000E+00 -0.00000000000E+00 -0.44858470306E+03  0.44858470306E+03  0.00000000000E+00 0. -1.
    9000007    1    1    2  501    0 -0.71655736562E+02 -0.20290440062E+02  0.10239683287E+04  0.11018427223E+04  0.40000000000E+03 0. -1.
   -9000007    1    1    2    0  503  0.71655736562E+02  0.20290440062E+02 -0.30861781364E+03  0.51067719886E+03  0.40000000000E+03 0. -1.
<mgrwt>
<rscale>  2 0.40687375E+03</rscale>
<asrwt>0</asrwt>
<pdfrwt beam="1">  1       21 0.17906695E+00 0.40687375E+03</pdfrwt>
<pdfrwt beam="2">  1       21 0.69013032E-01 0.40687375E+03</pdfrwt>
<totfact> 0.29566785E+02</totfact>
</mgrwt>
</event>
<event>
 4    1  0.5013722E-002  0.4300029E+03  0.7818608E-02  0.1033859E+00
         21   -1    0    0  503  502  0.00000000000E+00  0.00000000000E+00  0.21459755602E+03  0.21459755602E+03  0.00000000000E+00 0.  1.
         21   -1    0    0  501  503 -0.00000000000E+00 -0.00000000000E+00 -0.10364992131E+04  0.10364992131E+04  0.00000000000E+00 0.  1.
    9000007    1    1    2  501    0  0.15684071376E+03 -0.17419842189E+02 -0.15400579713E+03  0.45674965347E+03  0.40000000000E+03 0.  1.
   -9000007    1    1    2    0  502 -0.15684071376E+03  0.17419842189E+02 -0.66789585990E+03  0.79434711561E+03  0.40000000000E+03 0.  1.
<mgrwt>
<rscale>  2 0.43000286E+03</rscale>
<asrwt>0</asrwt>
<pdfrwt beam="1">  1       21 0.33015009E-01 0.43000286E+03</pdfrwt>
<pdfrwt beam="2">  1       21 0.15946141E+00 0.43000286E+03</pdfrwt>
<totfact> 0.19310847E+03</totfact>
</mgrwt>
</event>
<event>
 4    1  0.5013722E-002  0.4048488E+03  0.7818608E-02  0.1042114E+00
         21   -1    0    0  503  502  0.00000000000E+00  0.00000000000E+00  0.11153202122E+03  0.11153202122E+03  0.00000000000E+00 0.  1.
         21   -1    0    0  501  503 -0.00000000000E+00 -0.00000000000E+00 -0.21698188023E+04  0.21698188023E+04  0.00000000000E+00 0.  1.
    9000007    1    1    2  501    0  0.47632643246E+02 -0.40419262522E+02 -0.16771520041E+04  0.17253235727E+04  0.40000000000E+03 0.  1.
   -9000007    1    1    2    0  502 -0.47632643246E+02  0.40419262522E+02 -0.38113477696E+03  0.55602725086E+03  0.40000000000E+03 0.  1.
<mgrwt>
<rscale>  2 0.40484884E+03</rscale>
<asrwt>0</asrwt>
<pdfrwt beam="1">  1       21 0.17158773E-01 0.40484884E+03</pdfrwt>
<pdfrwt beam="2">  1       21 0.33381826E+00 0.40484884E+03</pdfrwt>
<totfact> 0.54173720E+02</totfact>
</mgrwt>
</event>
<event>
 4    1  0.5013722E-002  0.4392840E+03  0.7818608E-02  0.1030967E+00
         21   -1    0    0  501  502  0.00000000000E+00  0.00000000000E+00  0.34439875125E+03  0.34439875125E+03  0.00000000000E+00 0.  1.
         21   -1    0    0  502  503 -0.00000000000E+00 -0.00000000000E+00 -0.56062956158E+03  0.56062956158E+03  0.00000000000E+00 0.  1.
    9000007    1    1    2  501    0  0.17563619569E+03 -0.46068783859E+02 -0.11890229067E+03  0.45509137633E+03  0.40000000000E+03 0.  1.
   -9000007    1    1    2    0  503 -0.17563619569E+03  0.46068783859E+02 -0.97328519654E+02  0.44993693649E+03  0.40000000000E+03 0.  1.
<mgrwt>
<rscale>  2 0.43928397E+03</rscale>
<asrwt>0</asrwt>
<pdfrwt beam="1">  1       21 0.52984423E-01 0.43928397E+03</pdfrwt>
<pdfrwt beam="2">  1       21 0.86250702E-01 0.43928397E+03</pdfrwt>
<totfact> 0.34258640E+03</totfact>
</mgrwt>
</event>
<event>
 4    1  0.5013722E-002  0.4347655E+03  0.7818608E-02  0.1032365E+00
         21   -1    0    0  503  502  0.00000000000E+00  0.00000000000E+00  0.97277746326E+03  0.97277746326E+03  0.00000000000E+00 0. -1.
         21   -1    0    0  501  503 -0.00000000000E+00 -0.00000000000E+00 -0.29118986905E+03  0.29118986905E+03  0.00000000000E+00 0. -1.
    9000007    1    1    2  501    0 -0.25890664947E+02 -0.16837673585E+03 -0.23735944458E+02  0.43541296118E+03  0.40000000000E+03 0.  1.
   -9000007    1    1    2    0  502  0.25890664947E+02  0.16837673585E+03  0.70532353868E+03  0.82855437113E+03  0.40000000000E+03 0.  1.
<mgrwt>
<rscale>  2 0.43476551E+03</rscale>
<asrwt>0</asrwt>
<pdfrwt beam="1">  1       21 0.14965807E+00 0.43476551E+03</pdfrwt>
<pdfrwt beam="2">  1       21 0.44798442E-01 0.43476551E+03</pdfrwt>
<totfact> 0.12275093E+03</totfact>
</mgrwt>
</event>
<event>
 4    1  0.5013722E-002  0.4141707E+03  0.7818608E-02  0.1038980E+00
         21   -1    0    0  503  502  0.00000000000E+00  0.00000000000E+00  0.40437947735E+03  0.40437947735E+03  0.00000000000E+00 0. -1.
         21   -1    0    0  501  503 -0.00000000000E+00 -0.00000000000E+00 -0.52206749989E+03  0.52206749989E+03  0.00000000000E+00 0. -1.
    9000007    1    1    2  501    0 -0.97432022456E+02 -0.45214857229E+02 -0.25940600664E+03  0.48870119562E+03  0.40000000000E+03 0. -1.
   -9000007    1    1    2    0  502  0.97432022456E+02  0.45214857229E+02  0.14171798410E+03  0.43774578163E+03  0.40000000000E+03 0. -1.
<mgrwt>
<rscale>  2 0.41417072E+03</rscale>
<asrwt>0</asrwt>
<pdfrwt beam="1">  1       21 0.62212228E-01 0.41417072E+03</pdfrwt>
<pdfrwt beam="2">  1       21 0.80318076E-01 0.41417072E+03</pdfrwt>
<totfact> 0.28795561E+03</totfact>
</mgrwt>
</event>
<event>
 4    1  0.5013722E-002  0.5021102E+03  0.7818608E-02  0.1013230E+00
         21   -1    0    0  501  502  0.00000000000E+00  0.00000000000E+00  0.39888870817E+03  0.39888870817E+03  0.00000000000E+00 0. -1.
         21   -1    0    0  502  503 -0.00000000000E+00 -0.00000000000E+00 -0.64800589880E+03  0.64800589880E+03  0.00000000000E+00 0. -1.
    9000007    1    1    2  501    0  0.28844721123E+03  0.94407695631E+02 -0.42401230897E+02  0.50389728223E+03  0.40000000000E+03 0. -1.
   -9000007    1    1    2    0  503 -0.28844721123E+03 -0.94407695631E+02 -0.20671595973E+03  0.54299732474E+03  0.40000000000E+03 0. -1.
<mgrwt>
<rscale>  2 0.50211015E+03</rscale>
<asrwt>0</asrwt>
<pdfrwt beam="1">  1       21 0.61367494E-01 0.50211015E+03</pdfrwt>
<pdfrwt beam="2">  1       21 0.99693214E-01 0.50211015E+03</pdfrwt>
<totfact> 0.17231339E+03</totfact>
</mgrwt>
</event>
<event>
 4    1  0.5013722E-002  0.4259556E+03  0.7818608E-02  0.1035145E+00
         21   -1    0    0  503  502  0.00000000000E+00  0.00000000000E+00  0.19853549660E+03  0.19853549660E+03  0.00000000000E+00 0.  1.
         21   -1    0    0  501  503 -0.00000000000E+00 -0.00000000000E+00 -0.93533767464E+03  0.93533767464E+03  0.00000000000E+00 0.  1.
    9000007    1    1    2  501    0  0.14623904469E+03 -0.72312124775E+01 -0.45426578416E+03  0.62273232715E+03  0.40000000000E+03 0.  1.
   -9000007    1    1    2    0  502 -0.14623904469E+03  0.72312124775E+01 -0.28253639388E+03  0.51114084409E+03  0.40000000000E+03 0.  1.
<mgrwt>
<rscale>  2 0.42595557E+03</rscale>
<asrwt>0</asrwt>
<pdfrwt beam="1">  1       21 0.30543922E-01 0.42595557E+03</pdfrwt>
<pdfrwt beam="2">  1       21 0.14389811E+00 0.42595557E+03</pdfrwt>
<totfact> 0.29886856E+03</totfact>
</mgrwt>
</event>
<event>
 4    1  0.5013722E-002  0.5116532E+03  0.7818608E-02  0.1010781E+00
         21   -1    0    0  501  502  0.00000000000E+00  0.00000000000E+00  0.26480929831E+04  0.26480929831E+04  0.00000000000E+00 0.  1.
         21   -1    0    0  502  503 -0.00000000000E+00 -0.00000000000E+00 -0.54574962923E+03  0.54574962923E+03  0.00000000000E+00 0.  1.
    9000007    1    1    2  501    0 -0.11186620421E+03 -0.29878907851E+03  0.24962360903E+04  0.25481333520E+04  0.40000000000E+03 0.  1.
   -9000007    1    1    2    0  503  0.11186620421E+03  0.29878907851E+03 -0.39389273642E+03  0.64570926034E+03  0.40000000000E+03 0.  1.
<mgrwt>
<rscale>  2 0.51165316E+03</rscale>
<asrwt>0</asrwt>
<pdfrwt beam="1">  1       21 0.40739891E+00 0.51165316E+03</pdfrwt>
<pdfrwt beam="2">  1       21 0.83961483E-01 0.51165316E+03</pdfrwt>
<totfact> 0.65607232E+00</totfact>
</mgrwt>
</event>
<event>
 4    1  0.5013722E-002  0.4795711E+03  0.7818608E-02  0.1019253E+00
         21   -1    0    0  503  502  0.00000000000E+00  0.00000000000E+00  0.51574508248E+03  0.51574508248E+03  0.00000000000E+00 0.  1.
         21   -1    0    0  501  503 -0.00000000000E+00 -0.00000000000E+00 -0.44632974920E+03  0.44632974920E+03  0.00000000000E+00 0.  1.
    9000007    1    1    2  501    0 -0.21940911886E+03 -0.14781079785E+03  0.20388191486E+02  0.48000424139E+03  0.40000000000E+03 0.  1.
   -9000007    1    1    2    0  502  0.21940911886E+03  0.14781079785E+03  0.49027141796E+02  0.48207059030E+03  0.40000000000E+03 0.  1.
<mgrwt>
<rscale>  2 0.47957105E+03</rscale>
<asrwt>0</asrwt>
<pdfrwt beam="1">  1       21 0.79345397E-01 0.47957105E+03</pdfrwt>
<pdfrwt beam="2">  1       21 0.68666116E-01 0.47957105E+03</pdfrwt>
<totfact> 0.23219176E+03</totfact>
</mgrwt>
</event>
<event>
 4    1  0.5013722E-002  0.4923116E+03  0.7818608E-02  0.1015805E+00
         21   -1    0    0  503  502  0.00000000000E+00  0.00000000000E+00  0.70032866228E+03  0.70032866228E+03  0.00000000000E+00 0. -1.
         21   -1    0    0  501  503 -0.00000000000E+00 -0.00000000000E+00 -0.76136445176E+03  0.76136445176E+03  0.00000000000E+00 0. -1.
    9000007    1    1    2  501    0  0.25814724866E+03 -0.12542207457E+03 -0.57027955122E+03  0.75338533655E+03  0.40000000000E+03 0. -1.
   -9000007    1    1    2    0  502 -0.25814724866E+03  0.12542207457E+03  0.50924376174E+03  0.70830777749E+03  0.40000000000E+03 0. -1.
<mgrwt>
<rscale>  2 0.49231159E+03</rscale>
<asrwt>0</asrwt>
<pdfrwt beam="1">  1       21 0.10774287E+00 0.49231159E+03</pdfrwt>
<pdfrwt beam="2">  1       21 0.11713299E+00 0.49231159E+03</pdfrwt>
<totfact> 0.31234579E+02</totfact>
</mgrwt>
</event>
<event>
 4    1  0.5013722E-002  0.4142357E+03  0.7818608E-02  0.1038959E+00
         21   -1    0    0  501  502  0.00000000000E+00  0.00000000000E+00  0.34744079150E+03  0.34744079150E+03  0.00000000000E+00 0. -1.
         21   -1    0    0  502  503 -0.00000000000E+00 -0.00000000000E+00 -0.50111518371E+03  0.50111518371E+03  0.00000000000E+00 0. -1.
    9000007    1    1    2  501    0  0.97132159091E+02  0.46439007792E+02 -0.25827822500E+02  0.41504013564E+03  0.40000000000E+03 0. -1.
   -9000007    1    1    2    0  503 -0.97132159091E+02 -0.46439007792E+02 -0.12784656971E+03  0.43351583957E+03  0.40000000000E+03 0. -1.
<mgrwt>
<rscale>  2 0.41423573E+03</rscale>
<asrwt>0</asrwt>
<pdfrwt beam="1">  1       21 0.53452430E-01 0.41423573E+03</pdfrwt>
<pdfrwt beam="2">  1       21 0.77094643E-01 0.41423573E+03</pdfrwt>
<totfact> 0.43994301E+03</totfact>
</mgrwt>
</event>
<event>
 4    1  0.5013722E-002  0.6310781E+03  0.7818608E-02  0.9842947E-01
         21   -1    0    0  503  502  0.00000000000E+00  0.00000000000E+00  0.10013434902E+04  0.10013434902E+04  0.00000000000E+00 0.  1.
         21   -1    0    0  501  503 -0.00000000000E+00 -0.00000000000E+00 -0.41330392213E+03  0.41330392213E+03  0.00000000000E+00 0. -1.
    9000007    1    1    2  501    0  0.22578621360E+02 -0.48759593982E+03  0.15669510142E+03  0.65024068581E+03  0.40000000000E+03 0. -1.
   -9000007    1    1    2    0  502 -0.22578621360E+02  0.48759593982E+03  0.43134446669E+03  0.76440672656E+03  0.40000000000E+03 0.  1.
<mgrwt>
<rscale>  2 0.63107812E+03</rscale>
<asrwt>0</asrwt>
<pdfrwt beam="1">  1       21 0.15405284E+00 0.63107812E+03</pdfrwt>
<pdfrwt beam="2">  1       21 0.63585219E-01 0.63107812E+03</pdfrwt>
<totfact> 0.49505179E+02</totfact>
</mgrwt>
</event>
<event>
 4    1  0.5013722E-002  0.4322795E+03  0.7818608E-02  0.1033142E+00
         21   -1    0    0  501  502  0.00000000000E+00  0.00000000000E+00  0.48920109411E+03  0.48920109411E+03  0.00000000000E+00 0. -1.
         21   -1    0    0  502  503 -0.00000000000E+00 -0.00000000000E+00 -0.39810884573E+03  0.39810884573E+03  0.00000000000E+00 0. -1.
    9000007    1    1    2  501    0 -0.23595510823E+02  0.16219982844E+03 -0.43749948825E+02  0.43448773343E+03  0.40000000000E+03 0. -1.
   -9000007    1    1    2    0  503  0.23595510823E+02 -0.16219982844E+03  0.13484219721E+03  0.45282220642E+03  0.40000000000E+03 0. -1.
<mgrwt>
<rscale>  2 0.43227946E+03</rscale>
<asrwt>0</asrwt>
<pdfrwt beam="1">  1       21 0.75261707E-01 0.43227946E+03</pdfrwt>
<pdfrwt beam="2">  1       21 0.61247515E-01 0.43227946E+03</pdfrwt>
<totfact> 0.34363646E+03</totfact>
</mgrwt>
</event>
<event>
 4    1  0.5013722E-002  0.4672675E+03  0.7818608E-02  0.1022694E+00
         21   -1    0    0  501  502  0.00000000000E+00  0.00000000000E+00  0.30674441064E+03  0.30674441064E+03  0.00000000000E+00 0.  1.
         21   -1    0    0  502  503 -0.00000000000E+00 -0.00000000000E+00 -0.20990497544E+04  0.20990497544E+04  0.00000000000E+00 0.  1.
    9000007    1    1    2  501    0  0.21041798686E+03  0.11858825332E+03  0.81749331497E+02  0.47436468694E+03  0.40000000000E+03 0.  1.
   -9000007    1    1    2    0  503 -0.21041798686E+03 -0.11858825332E+03 -0.18740546753E+04  0.19314294781E+04  0.40000000000E+03 0.  1.
<mgrwt>
<rscale>  2 0.46726749E+03</rscale>
<asrwt>0</asrwt>
<pdfrwt beam="1">  1       21 0.47191449E-01 0.46726749E+03</pdfrwt>
<pdfrwt beam="2">  1       21 0.32293072E+00 0.46726749E+03</pdfrwt>
<totfact> 0.81738893E+01</totfact>
</mgrwt>
</event>
<event>
 4    1  0.5013722E-002  0.5110741E+03  0.7818608E-02  0.1010928E+00
         21   -1    0    0  503  502  0.00000000000E+00  0.00000000000E+00  0.11376516583E+04  0.11376516583E+04  0.00000000000E+00 0. -1.
         21   -1    0    0  501  503 -0.00000000000E+00 -0.00000000000E+00 -0.27216808785E+03  0.27216808785E+03  0.00000000000E+00 0. -1.
    9000007    1    1    2  501    0  0.20390788937E+03 -0.24416851929E+03  0.15394131359E+03  0.53375520717E+03  0.40000000000E+03 0. -1.
   -9000007    1    1    2    0  502 -0.20390788937E+03  0.24416851929E+03  0.71154225683E+03  0.87606453895E+03  0.40000000000E+03 0. -1.
<mgrwt>
<rscale>  2 0.51107406E+03</rscale>
<asrwt>0</asrwt>
<pdfrwt beam="1">  1       21 0.17502333E+00 0.51107406E+03</pdfrwt>
<pdfrwt beam="2">  1       21 0.41872014E-01 0.51107406E+03</pdfrwt>
<totfact> 0.88320681E+02</totfact>
</mgrwt>
</event>
<event>
 4    1  0.5013722E-002  0.4125002E+03  0.7818608E-02  0.1039535E+00
         21   -1    0    0  501  502  0.00000000000E+00  0.00000000000E+00  0.51837595089E+03  0.51837595089E+03  0.00000000000E+00 0. -1.
         21   -1    0    0  502  503 -0.00000000000E+00 -0.00000000000E+00 -0.33222696630E+03  0.33222696630E+03  0.00000000000E+00 0. -1.
    9000007    1    1    2  501    0 -0.41181071170E+02 -0.91981158613E+02  0.13961243431E+03  0.43548598827E+03  0.40000000000E+03 0. -1.
   -9000007    1    1    2    0  503  0.41181071170E+02  0.91981158613E+02  0.46536550271E+02  0.41511692892E+03  0.40000000000E+03 0. -1.
<mgrwt>
<rscale>  2 0.41250020E+03</rscale>
<asrwt>0</asrwt>
<pdfrwt beam="1">  1       21 0.79750146E-01 0.41250020E+03</pdfrwt>
<pdfrwt beam="2">  1       21 0.51111841E-01 0.41250020E+03</pdfrwt>
<totfact> 0.44819323E+03</totfact>
</mgrwt>
</event>
<event>
 4    1  0.5013722E-002  0.4095427E+03  0.7818608E-02  0.1040525E+00
         21   -1    0    0  501  502  0.00000000000E+00  0.00000000000E+00  0.15170064026E+03  0.15170064026E+03  0.00000000000E+00 0. -1.
         21   -1    0    0  502  503 -0.00000000000E+00 -0.00000000000E+00 -0.17017264853E+04  0.17017264853E+04  0.00000000000E+00 0. -1.
    9000007    1    1    2  501    0  0.69576586662E+02  0.53705670308E+02 -0.22653656926E+03  0.46802138589E+03  0.40000000000E+03 0. -1.
   -9000007    1    1    2    0  503 -0.69576586662E+02 -0.53705670308E+02 -0.13234892758E+04  0.13854057397E+04  0.40000000000E+03 0. -1.
<mgrwt>
<rscale>  2 0.40954267E+03</rscale>
<asrwt>0</asrwt>
<pdfrwt beam="1">  1       21 0.23338561E-01 0.40954267E+03</pdfrwt>
<pdfrwt beam="2">  1       21 0.26180406E+00 0.40954267E+03</pdfrwt>
<totfact> 0.81526009E+02</totfact>
</mgrwt>
</event>
<event>
 4    1  0.5013722E-002  0.4442198E+03  0.7818608E-02  0.1029460E+00
         21   -1    0    0  501  502  0.00000000000E+00  0.00000000000E+00  0.12907972872E+03  0.12907972872E+03  0.00000000000E+00 0.  1.
         21   -1    0    0  502  503 -0.00000000000E+00 -0.00000000000E+00 -0.15760738422E+04  0.15760738422E+04  0.00000000000E+00 0.  1.
    9000007    1    1    2  501    0 -0.47773826632E+02  0.18721354789E+03 -0.87122523139E+03  0.97793898319E+03  0.40000000000E+03 0.  1.
   -9000007    1    1    2    0  503  0.47773826632E+02 -0.18721354789E+03 -0.57576888209E+03  0.72721458773E+03  0.40000000000E+03 0.  1.
<mgrwt>
<rscale>  2 0.44421982E+03</rscale>
<asrwt>0</asrwt>
<pdfrwt beam="1">  1       21 0.19858420E-01 0.44421982E+03</pdfrwt>
<pdfrwt beam="2">  1       21 0.24247290E+00 0.44421982E+03</pdfrwt>
<totfact> 0.14322334E+03</totfact>
</mgrwt>
</event>
<event>
 4    1  0.5013722E-002  0.4392533E+03  0.7818608E-02  0.1030976E+00
         21   -1    0    0  503  502  0.00000000000E+00  0.00000000000E+00  0.49394872636E+03  0.49394872636E+03  0.00000000000E+00 0.  1.
         21   -1    0    0  501  503 -0.00000000000E+00 -0.00000000000E+00 -0.59017456564E+03  0.59017456564E+03  0.00000000000E+00 0. -1.
    9000007    1    1    2  501    0 -0.45713051454E+02 -0.17565234947E+03 -0.36331965051E+03  0.57003912093E+03  0.40000000000E+03 0. -1.
   -9000007    1    1    2    0  502  0.45713051454E+02  0.17565234947E+03  0.26709381122E+03  0.51408417107E+03  0.40000000000E+03 0.  1.
<mgrwt>
<rscale>  2 0.43925327E+03</rscale>
<asrwt>0</asrwt>
<pdfrwt beam="1">  1       21 0.75992112E-01 0.43925327E+03</pdfrwt>
<pdfrwt beam="2">  1       21 0.90796086E-01 0.43925327E+03</pdfrwt>
<totfact> 0.13664945E+03</totfact>
</mgrwt>
</event>
<event>
 4    1  0.5013722E-002  0.4049635E+03  0.7818608E-02  0.1042074E+00
         21   -1    0    0  503  502  0.00000000000E+00  0.00000000000E+00  0.21139040218E+03  0.21139040218E+03  0.00000000000E+00 0. -1.
         21   -1    0    0  501  503 -0.00000000000E+00 -0.00000000000E+00 -0.87209538061E+03  0.87209538061E+03  0.00000000000E+00 0. -1.
    9000007    1    1    2  501    0  0.29092120669E+02 -0.56116528199E+02 -0.51037523124E+03  0.65151998656E+03  0.40000000000E+03 0.  1.
   -9000007    1    1    2    0  502 -0.29092120669E+02  0.56116528199E+02 -0.15032974719E+03  0.43196579623E+03  0.40000000000E+03 0.  1.
<mgrwt>
<rscale>  2 0.40496348E+03</rscale>
<asrwt>0</asrwt>
<pdfrwt beam="1">  1       21 0.32521600E-01 0.40496348E+03</pdfrwt>
<pdfrwt beam="2">  1       21 0.13416852E+00 0.40496348E+03</pdfrwt>
<totfact> 0.32004015E+03</totfact>
</mgrwt>
</event>
<event>
 4    1  0.5013722E-002  0.4839246E+03  0.7818608E-02  0.1018062E+00
         21   -1    0    0  501  502  0.00000000000E+00  0.00000000000E+00  0.57813634903E+03  0.57813634903E+03  0.00000000000E+00 0. -1.
         21   -1    0    0  502  503 -0.00000000000E+00 -0.00000000000E+00 -0.67612948107E+03  0.67612948107E+03  0.00000000000E+00 0. -1.
    9000007    1    1    2  501    0  0.19396939237E+03 -0.19120380035E+03  0.34808585700E+03  0.59610970659E+03  0.40000000000E+03 0. -1.
   -9000007    1    1    2    0  503 -0.19396939237E+03  0.19120380035E+03 -0.44607898905E+03  0.65815612351E+03  0.40000000000E+03 0. -1.
<mgrwt>
<rscale>  2 0.48392460E+03</rscale>
<asrwt>0</asrwt>
<pdfrwt beam="1">  1       21 0.88944054E-01 0.48392460E+03</pdfrwt>
<pdfrwt beam="2">  1       21 0.10401992E+00 0.48392460E+03</pdfrwt>
<totfact> 0.67025880E+02</totfact>
</mgrwt>
</event>
<event>
 4    1  0.5013722E-002  0.4592272E+03  0.7818608E-02  0.1025006E+00
         21   -1    0    0  503  502  0.00000000000E+00  0.00000000000E+00  0.16779650665E+04  0.16779650665E+04  0.00000000000E+00 0.  1.
         21   -1    0    0  501  503 -0.00000000000E+00 -0.00000000000E+00 -0.14156929150E+03  0.14156929150E+03  0.00000000000E+00 0.  1.
    9000007    1    1    2  501    0 -0.41832838070E+02  0.22167461737E+03  0.46342678305E+03  0.65242164708E+03  0.40000000000E+03 0.  1.
   -9000007    1    1    2    0  502  0.41832838070E+02 -0.22167461737E+03  0.10729689919E+04  0.11671127109E+04  0.40000000000E+03 0.  1.
<mgrwt>
<rscale>  2 0.45922720E+03</rscale>
<asrwt>0</asrwt>
<pdfrwt beam="1">  1       21 0.25814846E+00 0.45922720E+03</pdfrwt>
<pdfrwt beam="2">  1       21 0.21779892E-01 0.45922720E+03</pdfrwt>
<totfact> 0.95473998E+02</totfact>
</mgrwt>
</event>
<event>
 4    1  0.5013722E-002  0.4480631E+03  0.7818608E-02  0.1028301E+00
         21   -1    0    0  503  502  0.00000000000E+00  0.00000000000E+00  0.68634966949E+03  0.68634966949E+03  0.00000000000E+00 0.  1.
         21   -1    0    0  501  503 -0.00000000000E+00 -0.00000000000E+00 -0.29764913357E+03  0.29764913357E+03  0.00000000000E+00 0.  1.
    9000007    1    1    2  501    0  0.86240354960E+02  0.18254626775E+03  0.12966894092E+03  0.46644889638E+03  0.40000000000E+03 0.  1.
   -9000007    1    1    2    0  502 -0.86240354960E+02 -0.18254626775E+03  0.25903159500E+03  0.51754990668E+03  0.40000000000E+03 0.  1.
<mgrwt>
<rscale>  2 0.44806310E+03</rscale>
<asrwt>0</asrwt>
<pdfrwt beam="1">  1       21 0.10559226E+00 0.44806310E+03</pdfrwt>
<pdfrwt beam="2">  1       21 0.45792175E-01 0.44806310E+03</pdfrwt>
<totfact> 0.28627595E+03</totfact>
</mgrwt>
</event>
<event>
 4    1  0.5013722E-002  0.4652101E+03  0.7818608E-02  0.1023281E+00
         21   -1    0    0  503  502  0.00000000000E+00  0.00000000000E+00  0.90638643953E+03  0.90638643953E+03  0.00000000000E+00 0. -1.
         21   -1    0    0  501  503 -0.00000000000E+00 -0.00000000000E+00 -0.23970989511E+04  0.23970989511E+04  0.00000000000E+00 0.  1.
    9000007    1    1    2  501    0 -0.18914756053E+03 -0.14367901250E+03 -0.23126772356E+04  0.23590032756E+04  0.40000000000E+03 0.  1.
   -9000007    1    1    2    0  502  0.18914756053E+03  0.14367901250E+03  0.82196472395E+03  0.94448211508E+03  0.40000000000E+03 0. -1.
<mgrwt>
<rscale>  2 0.46521012E+03</rscale>
<asrwt>0</asrwt>
<pdfrwt beam="1">  1       21 0.13944407E+00 0.46521012E+03</pdfrwt>
<pdfrwt beam="2">  1       21 0.36878445E+00 0.46521012E+03</pdfrwt>
<totfact> 0.33949039E+00</totfact>
</mgrwt>
</event>
<event>
 4    1  0.5013722E-002  0.4956288E+03  0.7818608E-02  0.1014926E+00
         21   -1    0    0  501  502  0.00000000000E+00  0.00000000000E+00  0.11726021840E+04  0.11726021840E+04  0.00000000000E+00 0. -1.
         21   -1    0    0  502  503 -0.00000000000E+00 -0.00000000000E+00 -0.44479743586E+03  0.44479743586E+03  0.00000000000E+00 0. -1.
    9000007    1    1    2  501    0  0.29206351905E+03 -0.18622216514E+02  0.95210161330E+03  0.10733803465E+04  0.40000000000E+03 0. -1.
   -9000007    1    1    2    0  503 -0.29206351905E+03  0.18622216514E+02 -0.22429686516E+03  0.54401927340E+03  0.40000000000E+03 0. -1.
<mgrwt>
<rscale>  2 0.49562878E+03</rscale>
<asrwt>0</asrwt>
<pdfrwt beam="1">  1       21 0.18040034E+00 0.49562878E+03</pdfrwt>
<pdfrwt beam="2">  1       21 0.68430375E-01 0.49562878E+03</pdfrwt>
<totfact> 0.28189312E+02</totfact>
</mgrwt>
</event>
<event>
 4    1  0.5013722E-002  0.4755118E+03  0.7818608E-02  0.1020376E+00
         21   -1    0    0  501  502  0.00000000000E+00  0.00000000000E+00  0.19564996527E+03  0.19564996527E+03  0.00000000000E+00 0.  1.
         21   -1    0    0  502  503 -0.00000000000E+00 -0.00000000000E+00 -0.12297560956E+04  0.12297560956E+04  0.00000000000E+00 0. -1.
    9000007    1    1    2  501    0 -0.13576619514E+03 -0.21835524378E+03 -0.69195611891E+03  0.83959200969E+03  0.40000000000E+03 0. -1.
   -9000007    1    1    2    0  503  0.13576619514E+03  0.21835524378E+03 -0.34215001138E+03  0.58581405115E+03  0.40000000000E+03 0. -1.
<mgrwt>
<rscale>  2 0.47551180E+03</rscale>
<asrwt>0</asrwt>
<pdfrwt beam="1">  1       21 0.30099994E-01 0.47551180E+03</pdfrwt>
<pdfrwt beam="2">  1       21 0.18919325E+00 0.47551180E+03</pdfrwt>
<totfact> 0.13931488E+03</totfact>
</mgrwt>
</event>
<event>
 4    1  0.5013722E-002  0.6612482E+03  0.7818608E-02  0.9785899E-01
         21   -1    0    0  503  502  0.00000000000E+00  0.00000000000E+00  0.39615269868E+03  0.39615269868E+03  0.00000000000E+00 0. -1.
         21   -1    0    0  501  503 -0.00000000000E+00 -0.00000000000E+00 -0.14846784921E+04  0.14846784921E+04  0.00000000000E+00 0.  1.
    9000007    1    1    2  501    0  0.51209730738E+03 -0.12249687697E+03 -0.10206189409E+04  0.12161053242E+04  0.40000000000E+03 0.  1.
   -9000007    1    1    2    0  502 -0.51209730738E+03  0.12249687697E+03 -0.67906852557E+02  0.66472586659E+03  0.40000000000E+03 0. -1.
<mgrwt>
<rscale>  2 0.66124817E+03</rscale>
<asrwt>0</asrwt>
<pdfrwt beam="1">  1       21 0.60946570E-01 0.66124817E+03</pdfrwt>
<pdfrwt beam="2">  1       21 0.22841207E+00 0.66124817E+03</pdfrwt>
<totfact> 0.16282164E+02</totfact>
</mgrwt>
</event>
<event>
 4    1  0.5013722E-002  0.5100184E+03  0.7818608E-02  0.1011197E+00
         21   -1    0    0  503  502  0.00000000000E+00  0.00000000000E+00  0.59507615748E+03  0.59507615748E+03  0.00000000000E+00 0.  1.
         21   -1    0    0  501  503 -0.00000000000E+00 -0.00000000000E+00 -0.44603418141E+03  0.44603418141E+03  0.00000000000E+00 0.  1.
    9000007    1    1    2  501    0 -0.82340360352E+02 -0.30551405201E+03  0.92382989700E+00  0.51001923923E+03  0.40000000000E+03 0.  1.
   -9000007    1    1    2    0  502  0.82340360352E+02  0.30551405201E+03  0.14811814618E+03  0.53109109967E+03  0.40000000000E+03 0.  1.
<mgrwt>
<rscale>  2 0.51001840E+03</rscale>
<asrwt>0</asrwt>
<pdfrwt beam="1">  1       21 0.91550178E-01 0.51001840E+03</pdfrwt>
<pdfrwt beam="2">  1       21 0.68620643E-01 0.51001840E+03</pdfrwt>
<totfact> 0.16450380E+03</totfact>
</mgrwt>
</event>
<event>
 4    1  0.5013722E-002  0.4214599E+03  0.7818608E-02  0.1036592E+00
         21   -1    0    0  501  502  0.00000000000E+00  0.00000000000E+00  0.63835523979E+03  0.63835523979E+03  0.00000000000E+00 0.  1.
         21   -1    0    0  502  503 -0.00000000000E+00 -0.00000000000E+00 -0.30002839586E+03  0.30002839586E+03  0.00000000000E+00 0.  1.
    9000007    1    1    2  501    0 -0.29456489403E+02  0.12946340925E+03  0.29554584602E+03  0.51475800742E+03  0.40000000000E+03 0.  1.
   -9000007    1    1    2    0  503  0.29456489403E+02 -0.12946340925E+03  0.42780997907E+02  0.42362562822E+03  0.40000000000E+03 0.  1.
<mgrwt>
<rscale>  2 0.42145991E+03</rscale>
<asrwt>0</asrwt>
<pdfrwt beam="1">  1       21 0.98208498E-01 0.42145991E+03</pdfrwt>
<pdfrwt beam="2">  1       21 0.46158215E-01 0.42145991E+03</pdfrwt>
<totfact> 0.33933120E+03</totfact>
</mgrwt>
</event>
<event>
 4    1  0.5013722E-002  0.5860454E+03  0.7818608E-02  0.9934788E-01
         21   -1    0    0  503  502  0.00000000000E+00  0.00000000000E+00  0.12271948273E+04  0.12271948273E+04  0.00000000000E+00 0. -1.
         21   -1    0    0  501  503 -0.00000000000E+00 -0.00000000000E+00 -0.40452904580E+03  0.40452904580E+03  0.00000000000E+00 0. -1.
    9000007    1    1    2  501    0  0.54863829949E+02  0.42478128846E+03 -0.41577199276E+02  0.58751837960E+03  0.40000000000E+03 0. -1.
   -9000007    1    1    2    0  502 -0.54863829949E+02 -0.42478128846E+03  0.86424298080E+03  0.10442054935E+04  0.40000000000E+03 0. -1.
<mgrwt>
<rscale>  2 0.58604538E+03</rscale>
<asrwt>0</asrwt>
<pdfrwt beam="1">  1       21 0.18879920E+00 0.58604538E+03</pdfrwt>
<pdfrwt beam="2">  1       21 0.62235238E-01 0.58604538E+03</pdfrwt>
<totfact> 0.29306584E+02</totfact>
</mgrwt>
</event>
<event>
 4    1  0.5013722E-002  0.5982097E+03  0.7818608E-02  0.9909127E-01
         21   -1    0    0  503  502  0.00000000000E+00  0.00000000000E+00  0.17496228544E+04  0.17496228544E+04  0.00000000000E+00 0. -1.
         21   -1    0    0  501  503 -0.00000000000E+00 -0.00000000000E+00 -0.26499988040E+03  0.26499988040E+03  0.00000000000E+00 0. -1.
    9000007    1    1    2  501    0 -0.36128242540E+03 -0.25948005971E+03  0.26113859398E+03  0.65272372223E+03  0.40000000000E+03 0. -1.
   -9000007    1    1    2    0  502  0.36128242540E+03  0.25948005971E+03  0.12234843800E+04  0.13618990125E+04  0.40000000000E+03 0. -1.
<mgrwt>
<rscale>  2 0.59820974E+03</rscale>
<asrwt>0</asrwt>
<pdfrwt beam="1">  1       21 0.26917274E+00 0.59820974E+03</pdfrwt>
<pdfrwt beam="2">  1       21 0.40769213E-01 0.59820974E+03</pdfrwt>
<totfact> 0.21971154E+02</totfact>
</mgrwt>
</event>
<event>
 4    1  0.5013722E-002  0.4690434E+03  0.7818608E-02  0.1022191E+00
         21   -1    0    0  503  502  0.00000000000E+00  0.00000000000E+00  0.42832430803E+03  0.42832430803E+03  0.00000000000E+00 0.  1.
         21   -1    0    0  501  503 -0.00000000000E+00 -0.00000000000E+00 -0.60977639503E+03  0.60977639503E+03  0.00000000000E+00 0. -1.
    9000007    1    1    2  501    0  0.22929149493E+03  0.86180779578E+02 -0.29682830985E+03  0.55507545608E+03  0.40000000000E+03 0.  1.
   -9000007    1    1    2    0  502 -0.22929149493E+03 -0.86180779578E+02  0.11537622285E+03  0.48302524698E+03  0.40000000000E+03 0.  1.
<mgrwt>
<rscale>  2 0.46904341E+03</rscale>
<asrwt>0</asrwt>
<pdfrwt beam="1">  1       21 0.65896047E-01 0.46904341E+03</pdfrwt>
<pdfrwt beam="2">  1       21 0.93811753E-01 0.46904341E+03</pdfrwt>
<totfact> 0.17240185E+03</totfact>
</mgrwt>
</event>
<event>
 4    1  0.5013722E-002  0.4022330E+03  0.7818608E-02  0.1043009E+00
         21   -1    0    0  503  502  0.00000000000E+00  0.00000000000E+00  0.50578488744E+03  0.50578488744E+03  0.00000000000E+00 0. -1.
         21   -1    0    0  501  503 -0.00000000000E+00 -0.00000000000E+00 -0.42241884087E+03  0.42241884087E+03  0.00000000000E+00 0. -1.
    9000007    1    1    2  501    0  0.32171182577E+02  0.27502217672E+02 -0.18697274399E+03  0.44356528715E+03  0.40000000000E+03 0. -1.
   -9000007    1    1    2    0  502 -0.32171182577E+02 -0.27502217672E+02  0.27033879057E+03  0.48463844116E+03  0.40000000000E+03 0. -1.
<mgrwt>
<rscale>  2 0.40223296E+03</rscale>
<asrwt>0</asrwt>
<pdfrwt beam="1">  1       21 0.77813060E-01 0.40223296E+03</pdfrwt>
<pdfrwt beam="2">  1       21 0.64987514E-01 0.40223296E+03</pdfrwt>
<totfact> 0.28259231E+03</totfact>
</mgrwt>
</event>
<event>
 4    1  0.5013722E-002  0.4205762E+03  0.7818608E-02  0.1036879E+00
         21   -1    0    0  503  502  0.00000000000E+00  0.00000000000E+00  0.11607469055E+04  0.11607469055E+04  0.00000000000E+00 0. -1.
         21   -1    0    0  501  503 -0.00000000000E+00 -0.00000000000E+00 -0.36958955385E+03  0.36958955385E+03  0.00000000000E+00 0. -1.
    9000007    1    1    2  501    0 -0.19276322917E+02  0.12850211549E+03 -0.19100253002E+03  0.46191594126E+03  0.40000000000E+03 0. -1.
   -9000007    1    1    2    0  502  0.19276322917E+02 -0.12850211549E+03  0.98215988164E+03  0.10684205181E+04  0.40000000000E+03 0. -1.
<mgrwt>
<rscale>  2 0.42057624E+03</rscale>
<asrwt>0</asrwt>
<pdfrwt beam="1">  1       21 0.17857645E+00 0.42057624E+03</pdfrwt>
<pdfrwt beam="2">  1       21 0.56859932E-01 0.42057624E+03</pdfrwt>
<totfact> 0.45340627E+02</totfact>
</mgrwt>
</event>
<event>
 4    1  0.5013722E-002  0.5058180E+03  0.7818608E-02  0.1012271E+00
         21   -1    0    0  503  502  0.00000000000E+00  0.00000000000E+00  0.64293431844E+03  0.64293431844E+03  0.00000000000E+00 0.  1.
         21   -1    0    0  501  503 -0.00000000000E+00 -0.00000000000E+00 -0.40704316577E+03  0.40704316577E+03  0.00000000000E+00 0. -1.
    9000007    1    1    2  501    0  0.27338422630E+03  0.14530299925E+03  0.39452929746E+02  0.50735434407E+03  0.40000000000E+03 0. -1.
   -9000007    1    1    2    0  502 -0.27338422630E+03 -0.14530299925E+03  0.19643822292E+03  0.54262314013E+03  0.40000000000E+03 0.  1.
<mgrwt>
<rscale>  2 0.50581805E+03</rscale>
<asrwt>0</asrwt>
<pdfrwt beam="1">  1       21 0.98912973E-01 0.50581805E+03</pdfrwt>
<pdfrwt beam="2">  1       21 0.62622025E-01 0.50581805E+03</pdfrwt>
<totfact> 0.16774226E+03</totfact>
</mgrwt>
</event>
<event>
 4    1  0.5013722E-002  0.4580382E+03  0.7818608E-02  0.1025352E+00
         21   -1    0    0  501  502  0.00000000000E+00  0.00000000000E+00  0.40341516456E+03  0.40341516456E+03  0.00000000000E+00 0.  1.
         21   -1    0    0  502  503 -0.00000000000E+00 -0.00000000000E+00 -0.76986594458E+03  0.76986594458E+03  0.00000000000E+00 0. -1.
    9000007    1    1    2  501    0  0.28451136588E+02  0.22133576763E+03  0.15094524627E+03  0.48226907072E+03  0.40000000000E+03 0.  1.
   -9000007    1    1    2    0  503 -0.28451136588E+02 -0.22133576763E+03 -0.51739602630E+03  0.69101203841E+03  0.40000000000E+03 0. -1.
<mgrwt>
<rscale>  2 0.45803820E+03</rscale>
<asrwt>0</asrwt>
<pdfrwt beam="1">  1       21 0.62063872E-01 0.45803820E+03</pdfrwt>
<pdfrwt beam="2">  1       21 0.11844091E+00 0.45803820E+03</pdfrwt>
<totfact> 0.11144578E+03</totfact>
</mgrwt>
</event>
<event>
 4    1  0.5013722E-002  0.4387592E+03  0.7818608E-02  0.1031128E+00
         21   -1    0    0  503  502  0.00000000000E+00  0.00000000000E+00  0.48614251692E+03  0.48614251692E+03  0.00000000000E+00 0.  1.
         21   -1    0    0  501  503 -0.00000000000E+00 -0.00000000000E+00 -0.39805596287E+03  0.39805596287E+03  0.00000000000E+00 0.  1.
    9000007    1    1    2  501    0 -0.90009388431E+02 -0.15623039221E+03  0.75860717649E+02  0.44526899054E+03  0.40000000000E+03 0.  1.
   -9000007    1    1    2    0  502  0.90009388431E+02  0.15623039221E+03  0.12225836408E+02  0.43892948925E+03  0.40000000000E+03 0.  1.
<mgrwt>
<rscale>  2 0.43875919E+03</rscale>
<asrwt>0</asrwt>
<pdfrwt beam="1">  1       21 0.74791157E-01 0.43875919E+03</pdfrwt>
<pdfrwt beam="2">  1       21 0.61239379E-01 0.43875919E+03</pdfrwt>
<totfact> 0.34787960E+03</totfact>
</mgrwt>
</event>
<event>
 4    1  0.5013722E-002  0.4274907E+03  0.7818608E-02  0.1034656E+00
         21   -1    0    0  501  502  0.00000000000E+00  0.00000000000E+00  0.22252475030E+03  0.22252475030E+03  0.00000000000E+00 0.  1.
         21   -1    0    0  502  503 -0.00000000000E+00 -0.00000000000E+00 -0.13424360750E+04  0.13424360750E+04  0.00000000000E+00 0.  1.
    9000007    1    1    2  501    0  0.14703871022E+03 -0.33584883147E+02 -0.72401012439E+02  0.43357840500E+03  0.40000000000E+03 0.  1.
   -9000007    1    1    2    0  503 -0.14703871022E+03  0.33584883147E+02 -0.10475103122E+04  0.11313824203E+04  0.40000000000E+03 0.  1.
<mgrwt>
<rscale>  2 0.42749073E+03</rscale>
<asrwt>0</asrwt>
<pdfrwt beam="1">  1       21 0.34234577E-01 0.42749073E+03</pdfrwt>
<pdfrwt beam="2">  1       21 0.20652863E+00 0.42749073E+03</pdfrwt>
<totfact> 0.84179338E+02</totfact>
</mgrwt>
</event>
<event>
 4    1  0.5013722E-002  0.6133135E+03  0.7818608E-02  0.9878163E-01
         21   -1    0    0  503  502  0.00000000000E+00  0.00000000000E+00  0.25064220059E+04  0.25064220059E+04  0.00000000000E+00 0.  1.
         21   -1    0    0  501  503 -0.00000000000E+00 -0.00000000000E+00 -0.22842454390E+03  0.22842454390E+03  0.00000000000E+00 0.  1.
    9000007    1    1    2  501    0  0.20950128647E+03 -0.41504532786E+03  0.33815558170E+03  0.70035891559E+03  0.40000000000E+03 0.  1.
   -9000007    1    1    2    0  502 -0.20950128647E+03  0.41504532786E+03  0.19398418803E+04  0.20344876342E+04  0.40000000000E+03 0.  1.
<mgrwt>
<rscale>  2 0.61331347E+03</rscale>
<asrwt>0</asrwt>
<pdfrwt beam="1">  1       21 0.38560337E+00 0.61331347E+03</pdfrwt>
<pdfrwt beam="2">  1       21 0.35142239E-01 0.61331347E+03</pdfrwt>
<totfact> 0.56569121E+01</totfact>
</mgrwt>
</event>
<event>
 4    1  0.5013722E-002  0.5393359E+03  0.7818608E-02  0.1003993E+00
         21   -1    0    0  503  502  0.00000000000E+00  0.00000000000E+00  0.54907338354E+03  0.54907338354E+03  0.00000000000E+00 0.  1.
         21   -1    0    0  501  503 -0.00000000000E+00 -0.00000000000E+00 -0.10171334556E+04  0.10171334556E+04  0.00000000000E+00 0. -1.
    9000007    1    1    2  501    0  0.19249663143E+03 -0.30631402194E+03 -0.77610097211E+03  0.94510102743E+03  0.40000000000E+03 0. -1.
   -9000007    1    1    2    0  502 -0.19249663143E+03  0.30631402194E+03  0.30804090009E+03  0.62110581166E+03  0.40000000000E+03 0.  1.
<mgrwt>
<rscale>  2 0.53933592E+03</rscale>
<asrwt>0</asrwt>
<pdfrwt beam="1">  1       21 0.84472829E-01 0.53933592E+03</pdfrwt>
<pdfrwt beam="2">  1       21 0.15648207E+00 0.53933592E+03</pdfrwt>
<totfact> 0.25601563E+02</totfact>
</mgrwt>
</event>
<event>
 4    1  0.5013722E-002  0.5636803E+03  0.7818608E-02  0.9983762E-01
         21   -1    0    0  503  502  0.00000000000E+00  0.00000000000E+00  0.11866751865E+04  0.11866751865E+04  0.00000000000E+00 0.  1.
         21   -1    0    0  501  503 -0.00000000000E+00 -0.00000000000E+00 -0.27328495582E+03  0.27328495582E+03  0.00000000000E+00 0.  1.
    9000007    1    1    2  501    0 -0.18008767997E+03 -0.35398284350E+03  0.35283322370E+03  0.66500128550E+03  0.40000000000E+03 0.  1.
   -9000007    1    1    2    0  502  0.18008767997E+03  0.35398284350E+03  0.56055700700E+03  0.79495885684E+03  0.40000000000E+03 0.  1.
<mgrwt>
<rscale>  2 0.56368025E+03</rscale>
<asrwt>0</asrwt>
<pdfrwt beam="1">  1       21 0.18256541E+00 0.56368025E+03</pdfrwt>
<pdfrwt beam="2">  1       21 0.42043840E-01 0.56368025E+03</pdfrwt>
<totfact> 0.75866367E+02</totfact>
</mgrwt>
</event>
<event>
 4    1  0.5013722E-002  0.4676495E+03  0.7818608E-02  0.1022586E+00
         21   -1    0    0  501  502  0.00000000000E+00  0.00000000000E+00  0.19361158635E+03  0.19361158635E+03  0.00000000000E+00 0.  1.
         21   -1    0    0  502  503 -0.00000000000E+00 -0.00000000000E+00 -0.12607406470E+04  0.12607406470E+04  0.00000000000E+00 0.  1.
    9000007    1    1    2  501    0 -0.24052618520E+03 -0.29038535715E+02 -0.29900121884E+03  0.55506559179E+03  0.40000000000E+03 0.  1.
   -9000007    1    1    2    0  503  0.24052618520E+03  0.29038535715E+02 -0.76812784183E+03  0.89928664158E+03  0.40000000000E+03 0.  1.
<mgrwt>
<rscale>  2 0.46764953E+03</rscale>
<asrwt>0</asrwt>
<pdfrwt beam="1">  1       21 0.29786398E-01 0.46764953E+03</pdfrwt>
<pdfrwt beam="2">  1       21 0.19396010E+00 0.46764953E+03</pdfrwt>
<totfact> 0.13241727E+03</totfact>
</mgrwt>
</event>
<event>
 4    1  0.5013722E-002  0.4092118E+03  0.7818608E-02  0.1040636E+00
         21   -1    0    0  501  502  0.00000000000E+00  0.00000000000E+00  0.14907730832E+03  0.14907730832E+03  0.00000000000E+00 0. -1.
         21   -1    0    0  502  503 -0.00000000000E+00 -0.00000000000E+00 -0.11389322025E+04  0.11389322025E+04  0.00000000000E+00 0. -1.
    9000007    1    1    2  501    0 -0.61499948019E+02 -0.60597481795E+02 -0.57044451804E+03  0.70204077273E+03  0.40000000000E+03 0. -1.
   -9000007    1    1    2    0  503  0.61499948019E+02  0.60597481795E+02 -0.41941037615E+03  0.58596873810E+03  0.40000000000E+03 0. -1.
<mgrwt>
<rscale>  2 0.40921180E+03</rscale>
<asrwt>0</asrwt>
<pdfrwt beam="1">  1       21 0.22934971E-01 0.40921180E+03</pdfrwt>
<pdfrwt beam="2">  1       21 0.17522034E+00 0.40921180E+03</pdfrwt>
<totfact> 0.30541675E+03</totfact>
</mgrwt>
</event>
<event>
 4    1  0.5013722E-002  0.4448751E+03  0.7818608E-02  0.1029261E+00
         21   -1    0    0  503  502  0.00000000000E+00  0.00000000000E+00  0.78755449344E+03  0.78755449344E+03  0.00000000000E+00 0. -1.
         21   -1    0    0  501  503 -0.00000000000E+00 -0.00000000000E+00 -0.27126684191E+03  0.27126684191E+03  0.00000000000E+00 0. -1.
    9000007    1    1    2  501    0  0.12717446842E+03 -0.14744660846E+03  0.11451895879E+03  0.45937831869E+03  0.40000000000E+03 0. -1.
   -9000007    1    1    2    0  502 -0.12717446842E+03  0.14744660846E+03  0.40176869273E+03  0.59944301666E+03  0.40000000000E+03 0. -1.
<mgrwt>
<rscale>  2 0.44487509E+03</rscale>
<asrwt>0</asrwt>
<pdfrwt beam="1">  1       21 0.12116223E+00 0.44487509E+03</pdfrwt>
<pdfrwt beam="2">  1       21 0.41733361E-01 0.44487509E+03</pdfrwt>
<totfact> 0.24669798E+03</totfact>
</mgrwt>
</event>
<event>
 4    1  0.5013722E-002  0.4717245E+03  0.7818608E-02  0.1021435E+00
         21   -1    0    0  501  502  0.00000000000E+00  0.00000000000E+00  0.67718630228E+03  0.67718630228E+03  0.00000000000E+00 0.  1.
         21   -1    0    0  502  503 -0.00000000000E+00 -0.00000000000E+00 -0.33015950955E+03  0.33015950955E+03  0.00000000000E+00 0. -1.
    9000007    1    1    2  501    0  0.96990396574E+01 -0.24985975878E+03  0.20812066124E+03  0.51559497676E+03  0.40000000000E+03 0.  1.
   -9000007    1    1    2    0  503 -0.96990396574E+01  0.24985975878E+03  0.13890613149E+03  0.49175083507E+03  0.40000000000E+03 0. -1.
<mgrwt>
<rscale>  2 0.47172446E+03</rscale>
<asrwt>0</asrwt>
<pdfrwt beam="1">  1       21 0.10418251E+00 0.47172446E+03</pdfrwt>
<pdfrwt beam="2">  1       21 0.50793771E-01 0.47172446E+03</pdfrwt>
<totfact> 0.23559325E+03</totfact>
</mgrwt>
</event>
<event>
 4    1  0.5013722E-002  0.4438753E+03  0.7818608E-02  0.1029564E+00
         21   -1    0    0  503  502  0.00000000000E+00  0.00000000000E+00  0.23454664410E+03  0.23454664410E+03  0.00000000000E+00 0. -1.
         21   -1    0    0  501  503 -0.00000000000E+00 -0.00000000000E+00 -0.99431977006E+03  0.99431977006E+03  0.00000000000E+00 0. -1.
    9000007    1    1    2  501    0 -0.18777305328E+03 -0.42030434607E+02 -0.62192584221E+03  0.76407920413E+03  0.40000000000E+03 0. -1.
   -9000007    1    1    2    0  502  0.18777305328E+03  0.42030434607E+02 -0.13784728374E+03  0.46478721003E+03  0.40000000000E+03 0. -1.
<mgrwt>
<rscale>  2 0.44387529E+03</rscale>
<asrwt>0</asrwt>
<pdfrwt beam="1">  1       21 0.36084099E-01 0.44387529E+03</pdfrwt>
<pdfrwt beam="2">  1       21 0.15297227E+00 0.44387529E+03</pdfrwt>
<totfact> 0.17992570E+03</totfact>
</mgrwt>
</event>
<event>
 4    1  0.5013722E-002  0.5188661E+03  0.7818608E-02  0.1008969E+00
         21   -1    0    0  503  502  0.00000000000E+00  0.00000000000E+00  0.45453460800E+03  0.45453460800E+03  0.00000000000E+00 0. -1.
         21   -1    0    0  501  503 -0.00000000000E+00 -0.00000000000E+00 -0.62765567801E+03  0.62765567801E+03  0.00000000000E+00 0. -1.
    9000007    1    1    2  501    0  0.11842630758E+03 -0.30854057856E+03  0.41857452752E+02  0.52055175083E+03  0.40000000000E+03 0. -1.
   -9000007    1    1    2    0  502 -0.11842630758E+03  0.30854057856E+03 -0.21497852276E+03  0.56163853517E+03  0.40000000000E+03 0. -1.
<mgrwt>
<rscale>  2 0.51886615E+03</rscale>
<asrwt>0</asrwt>
<pdfrwt beam="1">  1       21 0.69928401E-01 0.51886615E+03</pdfrwt>
<pdfrwt beam="2">  1       21 0.96562412E-01 0.51886615E+03</pdfrwt>
<totfact> 0.13831033E+03</totfact>
</mgrwt>
</event>
<event>
 4    1  0.5013722E-002  0.4493222E+03  0.7818608E-02  0.1027924E+00
         21   -1    0    0  501  502  0.00000000000E+00  0.00000000000E+00  0.46693417764E+03  0.46693417764E+03  0.00000000000E+00 0.  1.
         21   -1    0    0  502  503 -0.00000000000E+00 -0.00000000000E+00 -0.59010556160E+03  0.59010556160E+03  0.00000000000E+00 0.  1.
    9000007    1    1    2  501    0  0.17312407509E+03 -0.10917195432E+03  0.21166104961E+03  0.49667983743E+03  0.40000000000E+03 0.  1.
   -9000007    1    1    2    0  503 -0.17312407509E+03  0.10917195432E+03 -0.33483243356E+03  0.56035990181E+03  0.40000000000E+03 0.  1.
<mgrwt>
<rscale>  2 0.44932222E+03</rscale>
<asrwt>0</asrwt>
<pdfrwt beam="1">  1       21 0.71836027E-01 0.44932222E+03</pdfrwt>
<pdfrwt beam="2">  1       21 0.90785471E-01 0.44932222E+03</pdfrwt>
<totfact> 0.15471687E+03</totfact>
</mgrwt>
</event>
<event>
 4    1  0.5013722E-002  0.5786555E+03  0.7818608E-02  0.9950706E-01
         21   -1    0    0  501  502  0.00000000000E+00  0.00000000000E+00  0.66337671694E+03  0.66337671694E+03  0.00000000000E+00 0.  1.
         21   -1    0    0  502  503 -0.00000000000E+00 -0.00000000000E+00 -0.51428332758E+03  0.51428332758E+03  0.00000000000E+00 0.  1.
    9000007    1    1    2  501    0  0.11486437425E+03 -0.40205520912E+03 -0.56052765732E+01  0.57868267192E+03  0.40000000000E+03 0.  1.
   -9000007    1    1    2    0  503 -0.11486437425E+03  0.40205520912E+03  0.15469866593E+03  0.59897737260E+03  0.40000000000E+03 0.  1.
<mgrwt>
<rscale>  2 0.57865552E+03</rscale>
<asrwt>0</asrwt>
<pdfrwt beam="1">  1       21 0.10205796E+00 0.57865552E+03</pdfrwt>
<pdfrwt beam="2">  1       21 0.79120512E-01 0.57865552E+03</pdfrwt>
<totfact> 0.89325421E+02</totfact>
</mgrwt>
</event>
<event>
 4    1  0.5013722E-002  0.5615882E+03  0.7818608E-02  0.9988467E-01
         21   -1    0    0  503  502  0.00000000000E+00  0.00000000000E+00  0.81839733873E+03  0.81839733873E+03  0.00000000000E+00 0. -1.
         21   -1    0    0  501  503 -0.00000000000E+00 -0.00000000000E+00 -0.41035072468E+03  0.41035072468E+03  0.00000000000E+00 0. -1.
    9000007    1    1    2  501    0  0.23730598261E+03 -0.31474938057E+03  0.52421161053E+02  0.56402950284E+03  0.40000000000E+03 0. -1.
   -9000007    1    1    2    0  502 -0.23730598261E+03  0.31474938057E+03  0.35562545299E+03  0.66471856057E+03  0.40000000000E+03 0. -1.
<mgrwt>
<rscale>  2 0.56158820E+03</rscale>
<asrwt>0</asrwt>
<pdfrwt beam="1">  1       21 0.12590728E+00 0.56158820E+03</pdfrwt>
<pdfrwt beam="2">  1       21 0.63130881E-01 0.56158820E+03</pdfrwt>
<totfact> 0.88312489E+02</totfact>
</mgrwt>
</event>
<event>
 4    1  0.5013722E-002  0.5281257E+03  0.7818608E-02  0.1006688E+00
         21   -1    0    0  503  502  0.00000000000E+00  0.00000000000E+00  0.58890160898E+03  0.58890160898E+03  0.00000000000E+00 0. -1.
         21   -1    0    0  501  503 -0.00000000000E+00 -0.00000000000E+00 -0.68316449325E+03  0.68316449325E+03  0.00000000000E+00 0.  1.
    9000007    1    1    2  501    0  0.15416225043E+03 -0.30846523238E+03 -0.39938308073E+03  0.66213566904E+03  0.40000000000E+03 0.  1.
   -9000007    1    1    2    0  502 -0.15416225043E+03  0.30846523238E+03  0.30512019646E+03  0.60993043319E+03  0.40000000000E+03 0. -1.
<mgrwt>
<rscale>  2 0.52812574E+03</rscale>
<asrwt>0</asrwt>
<pdfrwt beam="1">  1       21 0.90600247E-01 0.52812574E+03</pdfrwt>
<pdfrwt beam="2">  1       21 0.10510223E+00 0.52812574E+03</pdfrwt>
<totfact> 0.61483959E+02</totfact>
</mgrwt>
</event>
<event>
 4    1  0.5013722E-002  0.7216218E+03  0.7818608E-02  0.9680954E-01
         21   -1    0    0  501  502  0.00000000000E+00  0.00000000000E+00  0.48057345238E+03  0.48057345238E+03  0.00000000000E+00 0.  1.
         21   -1    0    0  502  503 -0.00000000000E+00 -0.00000000000E+00 -0.11285370074E+04  0.11285370074E+04  0.00000000000E+00 0. -1.
    9000007    1    1    2  501    0  0.51923054336E+03  0.30189011236E+03 -0.16339322222E+03  0.73988873634E+03  0.40000000000E+03 0. -1.
   -9000007    1    1    2    0  503 -0.51923054336E+03 -0.30189011236E+03 -0.48457033284E+03  0.86922172348E+03  0.40000000000E+03 0.  1.
<mgrwt>
<rscale>  2 0.72162178E+03</rscale>
<asrwt>0</asrwt>
<pdfrwt beam="1">  1       21 0.73934378E-01 0.72162178E+03</pdfrwt>
<pdfrwt beam="2">  1       21 0.17362108E+00 0.72162178E+03</pdfrwt>
<totfact> 0.24327537E+02</totfact>
</mgrwt>
</event>
<event>
 4    1  0.5013722E-002  0.4777153E+03  0.7818608E-02  0.1019765E+00
         21   -1    0    0  501  502  0.00000000000E+00  0.00000000000E+00  0.10540802168E+04  0.10540802168E+04  0.00000000000E+00 0.  1.
         21   -1    0    0  502  503 -0.00000000000E+00 -0.00000000000E+00 -0.33571746659E+03  0.33571746659E+03  0.00000000000E+00 0.  1.
    9000007    1    1    2  501    0  0.25791228911E+03 -0.41147898452E+02  0.77327492052E+03  0.90893674209E+03  0.40000000000E+03 0.  1.
   -9000007    1    1    2    0  503 -0.25791228911E+03  0.41147898452E+02 -0.54912170300E+02  0.48086094130E+03  0.40000000000E+03 0.  1.
<mgrwt>
<rscale>  2 0.47771529E+03</rscale>
<asrwt>0</asrwt>
<pdfrwt beam="1">  1       21 0.16216619E+00 0.47771529E+03</pdfrwt>
<pdfrwt beam="2">  1       21 0.51648842E-01 0.47771529E+03</pdfrwt>
<totfact> 0.71470065E+02</totfact>
</mgrwt>
</event>
<event>
 4    1  0.5013722E-002  0.6326623E+03  0.7818608E-02  0.9839867E-01
         21   -1    0    0  501  502  0.00000000000E+00  0.00000000000E+00  0.57832767974E+03  0.57832767974E+03  0.00000000000E+00 0. -1.
         21   -1    0    0  502  503 -0.00000000000E+00 -0.00000000000E+00 -0.87522066807E+03  0.87522066807E+03  0.00000000000E+00 0. -1.
    9000007    1    1    2  501    0  0.31201345009E+03 -0.37803325921E+03  0.18398903725E+03  0.65887290423E+03  0.40000000000E+03 0. -1.
   -9000007    1    1    2    0  503 -0.31201345009E+03  0.37803325921E+03 -0.48088202557E+03  0.79467544358E+03  0.40000000000E+03 0. -1.
<mgrwt>
<rscale>  2 0.63266226E+03</rscale>
<asrwt>0</asrwt>
<pdfrwt beam="1">  1       21 0.88973489E-01 0.63266226E+03</pdfrwt>
<pdfrwt beam="2">  1       21 0.13464933E+00 0.63266226E+03</pdfrwt>
<totfact> 0.32886112E+02</totfact>
</mgrwt>
</event>
<event>
 4    1  0.5013722E-002  0.5032306E+03  0.7818608E-02  0.1012939E+00
         21   -1    0    0  503  502  0.00000000000E+00  0.00000000000E+00  0.33405480490E+03  0.33405480490E+03  0.00000000000E+00 0. -1.
         21   -1    0    0  501  503 -0.00000000000E+00 -0.00000000000E+00 -0.80470313187E+03  0.80470313187E+03  0.00000000000E+00 0.  1.
    9000007    1    1    2  501    0  0.29202857698E+03 -0.89220739739E+02 -0.98275864478E+02  0.51273694592E+03  0.40000000000E+03 0. -1.
   -9000007    1    1    2    0  502 -0.29202857698E+03  0.89220739739E+02 -0.37237246249E+03  0.62602099085E+03  0.40000000000E+03 0. -1.
<mgrwt>
<rscale>  2 0.50323059E+03</rscale>
<asrwt>0</asrwt>
<pdfrwt beam="1">  1       21 0.51393048E-01 0.50323059E+03</pdfrwt>
<pdfrwt beam="2">  1       21 0.12380048E+00 0.50323059E+03</pdfrwt>
<totfact> 0.14738039E+03</totfact>
</mgrwt>
</event>
<event>
 4    1  0.5013722E-002  0.4382142E+03  0.7818608E-02  0.1031296E+00
         21   -1    0    0  503  502  0.00000000000E+00  0.00000000000E+00  0.24710288212E+03  0.24710288212E+03  0.00000000000E+00 0.  1.
         21   -1    0    0  501  503 -0.00000000000E+00 -0.00000000000E+00 -0.79529640537E+03  0.79529640537E+03  0.00000000000E+00 0.  1.
    9000007    1    1    2  501    0  0.16067095450E+03  0.78844839098E+02 -0.35286388821E+03  0.56262295356E+03  0.40000000000E+03 0.  1.
   -9000007    1    1    2    0  502 -0.16067095450E+03 -0.78844839098E+02 -0.19532963504E+03  0.47977633393E+03  0.40000000000E+03 0.  1.
<mgrwt>
<rscale>  2 0.43821418E+03</rscale>
<asrwt>0</asrwt>
<pdfrwt beam="1">  1       21 0.38015828E-01 0.43821418E+03</pdfrwt>
<pdfrwt beam="2">  1       21 0.12235329E+00 0.43821418E+03</pdfrwt>
<totfact> 0.29227611E+03</totfact>
</mgrwt>
</event>
<event>
 4    1  0.5013722E-002  0.5850117E+03  0.7818608E-02  0.9936999E-01
         21   -1    0    0  503  502  0.00000000000E+00  0.00000000000E+00  0.11976599769E+04  0.11976599769E+04  0.00000000000E+00 0.  1.
         21   -1    0    0  501  503 -0.00000000000E+00 -0.00000000000E+00 -0.29339106674E+03  0.29339106674E+03  0.00000000000E+00 0.  1.
    9000007    1    1    2  501    0 -0.42589223457E+03  0.29231204215E+02  0.33186861219E+03  0.67258860719E+03  0.40000000000E+03 0.  1.
   -9000007    1    1    2    0  502  0.42589223457E+03 -0.29231204215E+02  0.57240029799E+03  0.81846243647E+03  0.40000000000E+03 0.  1.
<mgrwt>
<rscale>  2 0.58501167E+03</rscale>
<asrwt>0</asrwt>
<pdfrwt beam="1">  1       21 0.18425538E+00 0.58501167E+03</pdfrwt>
<pdfrwt beam="2">  1       21 0.45137088E-01 0.58501167E+03</pdfrwt>
<totfact> 0.63122757E+02</totfact>
</mgrwt>
</event>
<event>
 4    1  0.5013722E-002  0.4030513E+03  0.7818608E-02  0.1042728E+00
         21   -1    0    0  501  502  0.00000000000E+00  0.00000000000E+00  0.81002401106E+03  0.81002401106E+03  0.00000000000E+00 0. -1.
         21   -1    0    0  502  503 -0.00000000000E+00 -0.00000000000E+00 -0.22057624326E+03  0.22057624326E+03  0.00000000000E+00 0. -1.
    9000007    1    1    2  501    0 -0.48369191842E+02  0.10523199085E+02  0.13945636556E+03  0.42649547985E+03  0.40000000000E+03 0.  1.
   -9000007    1    1    2    0  503  0.48369191842E+02 -0.10523199085E+02  0.44999140224E+03  0.60410477446E+03  0.40000000000E+03 0.  1.
<mgrwt>
<rscale>  2 0.40305126E+03</rscale>
<asrwt>0</asrwt>
<pdfrwt beam="1">  1       21 0.12461908E+00 0.40305126E+03</pdfrwt>
<pdfrwt beam="2">  1       21 0.33934807E-01 0.40305126E+03</pdfrwt>
<totfact> 0.35588420E+03</totfact>
</mgrwt>
</event>
<event>
 4    1  0.5013722E-002  0.5461453E+03  0.7818608E-02  0.1002390E+00
         21   -1    0    0  503  502  0.00000000000E+00  0.00000000000E+00  0.60195916823E+03  0.60195916823E+03  0.00000000000E+00 0.  1.
         21   -1    0    0  501  503 -0.00000000000E+00 -0.00000000000E+00 -0.54458842322E+03  0.54458842322E+03  0.00000000000E+00 0. -1.
    9000007    1    1    2  501    0  0.36777427189E+03 -0.54924964326E+02 -0.14341776020E+03  0.56466212970E+03  0.40000000000E+03 0. -1.
   -9000007    1    1    2    0  502 -0.36777427189E+03  0.54924964326E+02  0.20078850521E+03  0.58188546175E+03  0.40000000000E+03 0.  1.
<mgrwt>
<rscale>  2 0.54614528E+03</rscale>
<asrwt>0</asrwt>
<pdfrwt beam="1">  1       21 0.92609102E-01 0.54614528E+03</pdfrwt>
<pdfrwt beam="2">  1       21 0.83782835E-01 0.54614528E+03</pdfrwt>
<totfact> 0.10000051E+03</totfact>
</mgrwt>
</event>
<event>
 4    1  0.5013722E-002  0.4302036E+03  0.7818608E-02  0.1033796E+00
         21   -1    0    0  503  502  0.00000000000E+00  0.00000000000E+00  0.48505764771E+03  0.48505764771E+03  0.00000000000E+00 0. -1.
         21   -1    0    0  501  503 -0.00000000000E+00 -0.00000000000E+00 -0.40303752837E+03  0.40303752837E+03  0.00000000000E+00 0. -1.
    9000007    1    1    2  501    0 -0.85070610492E+02  0.13355937581E+03  0.14353309505E+03  0.45351611329E+03  0.40000000000E+03 0. -1.
   -9000007    1    1    2    0  502  0.85070610492E+02 -0.13355937581E+03 -0.61512975711E+02  0.43457906279E+03  0.40000000000E+03 0. -1.
<mgrwt>
<rscale>  2 0.43020357E+03</rscale>
<asrwt>0</asrwt>
<pdfrwt beam="1">  1       21 0.74624254E-01 0.43020357E+03</pdfrwt>
<pdfrwt beam="2">  1       21 0.62005773E-01 0.43020357E+03</pdfrwt>
<totfact> 0.34126182E+03</totfact>
</mgrwt>
</event>
<event>
 4    1  0.5013722E-002  0.4155272E+03  0.7818608E-02  0.1038532E+00
         21   -1    0    0  501  502  0.00000000000E+00  0.00000000000E+00  0.57566526690E+03  0.57566526690E+03  0.00000000000E+00 0.  1.
         21   -1    0    0  502  503 -0.00000000000E+00 -0.00000000000E+00 -0.10222975604E+04  0.10222975604E+04  0.00000000000E+00 0.  1.
    9000007    1    1    2  501    0 -0.10661191165E+03 -0.36010780249E+02  0.44830638240E+03  0.61126220928E+03  0.40000000000E+03 0.  1.
   -9000007    1    1    2    0  503  0.10661191165E+03  0.36010780249E+02 -0.89493867594E+03  0.98670061807E+03  0.40000000000E+03 0.  1.
<mgrwt>
<rscale>  2 0.41552723E+03</rscale>
<asrwt>0</asrwt>
<pdfrwt beam="1">  1       21 0.88563888E-01 0.41552723E+03</pdfrwt>
<pdfrwt beam="2">  1       21 0.15727655E+00 0.41552723E+03</pdfrwt>
<totfact> 0.23954068E+02</totfact>
</mgrwt>
</event>
<event>
 4    1  0.5013722E-002  0.5438873E+03  0.7818608E-02  0.1002919E+00
         21   -1    0    0  503  502  0.00000000000E+00  0.00000000000E+00  0.13532661419E+04  0.13532661419E+04  0.00000000000E+00 0.  1.
         21   -1    0    0  501  503 -0.00000000000E+00 -0.00000000000E+00 -0.22126566814E+03  0.22126566814E+03  0.00000000000E+00 0. -1.
    9000007    1    1    2  501    0  0.22046708871E+03 -0.29530949341E+03  0.47946334845E+03  0.72505071313E+03  0.40000000000E+03 0. -1.
   -9000007    1    1    2    0  502 -0.22046708871E+03  0.29530949341E+03  0.65253712532E+03  0.84948109692E+03  0.40000000000E+03 0.  1.
<mgrwt>
<rscale>  2 0.54388734E+03</rscale>
<asrwt>0</asrwt>
<pdfrwt beam="1">  1       21 0.20819479E+00 0.54388734E+03</pdfrwt>
<pdfrwt beam="2">  1       21 0.34040873E-01 0.54388734E+03</pdfrwt>
<totfact> 0.78900154E+02</totfact>
</mgrwt>
</event>
<event>
 4    1  0.5013722E-002  0.4222353E+03  0.7818608E-02  0.1036341E+00
         21   -1    0    0  501  502  0.00000000000E+00  0.00000000000E+00  0.96715615160E+02  0.96715615160E+02  0.00000000000E+00 0. -1.
         21   -1    0    0  502  503 -0.00000000000E+00 -0.00000000000E+00 -0.21402343041E+04  0.21402343041E+04  0.00000000000E+00 0.  1.
    9000007    1    1    2  501    0 -0.13357710562E+03  0.20970632594E+02 -0.60520180873E+03  0.73793755825E+03  0.40000000000E+03 0. -1.
   -9000007    1    1    2    0  503  0.13357710562E+03 -0.20970632594E+02 -0.14383168802E+04  0.14990123610E+04  0.40000000000E+03 0.  1.
<mgrwt>
<rscale>  2 0.42223526E+03</rscale>
<asrwt>0</asrwt>
<pdfrwt beam="1">  1       21 0.14879324E-01 0.42223526E+03</pdfrwt>
<pdfrwt beam="2">  1       21 0.32926684E+00 0.42223526E+03</pdfrwt>
<totfact> 0.74430239E+02</totfact>
</mgrwt>
</event>
<event>
 4    1  0.5013722E-002  0.4454040E+03  0.7818608E-02  0.1029102E+00
         21   -1    0    0  503  502  0.00000000000E+00  0.00000000000E+00  0.15750298951E+03  0.15750298951E+03  0.00000000000E+00 0.  1.
         21   -1    0    0  501  503 -0.00000000000E+00 -0.00000000000E+00 -0.12655271954E+04  0.12655271954E+04  0.00000000000E+00 0.  1.
    9000007    1    1    2  501    0  0.13308268824E+03 -0.14378360830E+03 -0.50516117054E+03  0.67347794036E+03  0.40000000000E+03 0.  1.
   -9000007    1    1    2    0  502 -0.13308268824E+03  0.14378360830E+03 -0.60286303538E+03  0.74955224457E+03  0.40000000000E+03 0.  1.
<mgrwt>
<rscale>  2 0.44540401E+03</rscale>
<asrwt>0</asrwt>
<pdfrwt beam="1">  1       21 0.24231230E-01 0.44540401E+03</pdfrwt>
<pdfrwt beam="2">  1       21 0.19469648E+00 0.44540401E+03</pdfrwt>
<totfact> 0.19815337E+03</totfact>
</mgrwt>
</event>
<event>
 4    1  0.5013722E-002  0.4248022E+03  0.7818608E-02  0.1035515E+00
         21   -1    0    0  503  502  0.00000000000E+00  0.00000000000E+00  0.87602771790E+03  0.87602771790E+03  0.00000000000E+00 0.  1.
         21   -1    0    0  501  503 -0.00000000000E+00 -0.00000000000E+00 -0.32214644183E+03  0.32214644183E+03  0.00000000000E+00 0.  1.
    9000007    1    1    2  501    0 -0.13941622667E+03  0.31938317184E+02  0.63667043925E+03  0.76537976755E+03  0.40000000000E+03 0.  1.
   -9000007    1    1    2    0  502  0.13941622667E+03 -0.31938317184E+02 -0.82789163180E+02  0.43279439218E+03  0.40000000000E+03 0.  1.
<mgrwt>
<rscale>  2 0.42480224E+03</rscale>
<asrwt>0</asrwt>
<pdfrwt beam="1">  1       21 0.13477349E+00 0.42480224E+03</pdfrwt>
<pdfrwt beam="2">  1       21 0.49560991E-01 0.42480224E+03</pdfrwt>
<totfact> 0.13175990E+03</totfact>
</mgrwt>
</event>
<event>
 4    1  0.5013722E-002  0.4820635E+03  0.7818608E-02  0.1018570E+00
         21   -1    0    0  503  502  0.00000000000E+00  0.00000000000E+00  0.54774297193E+03  0.54774297193E+03  0.00000000000E+00 0.  1.
         21   -1    0    0  501  503 -0.00000000000E+00 -0.00000000000E+00 -0.45699155547E+03  0.45699155547E+03  0.00000000000E+00 0. -1.
    9000007    1    1    2  501    0 -0.19224872121E+03  0.18821704180E+03  0.17982331651E+03  0.51451107936E+03  0.40000000000E+03 0.  1.
   -9000007    1    1    2    0  502  0.19224872121E+03 -0.18821704180E+03 -0.89071900043E+02  0.49022344804E+03  0.40000000000E+03 0. -1.
<mgrwt>
<rscale>  2 0.48206351E+03</rscale>
<asrwt>0</asrwt>
<pdfrwt beam="1">  1       21 0.84268149E-01 0.48206351E+03</pdfrwt>
<pdfrwt beam="2">  1       21 0.70306394E-01 0.48206351E+03</pdfrwt>
<totfact> 0.19125408E+03</totfact>
</mgrwt>
</event>
<event>
 4    1  0.5013722E-002  0.4692617E+03  0.7818608E-02  0.1022129E+00
         21   -1    0    0  501  502  0.00000000000E+00  0.00000000000E+00  0.29704222105E+03  0.29704222105E+03  0.00000000000E+00 0. -1.
         21   -1    0    0  502  503 -0.00000000000E+00 -0.00000000000E+00 -0.87065692472E+03  0.87065692472E+03  0.00000000000E+00 0. -1.
    9000007    1    1    2  501    0 -0.20901598392E+03 -0.12852579185E+03 -0.61787676255E+02  0.47331202989E+03  0.40000000000E+03 0. -1.
   -9000007    1    1    2    0  503  0.20901598392E+03  0.12852579185E+03 -0.51182702742E+03  0.69438711588E+03  0.40000000000E+03 0. -1.
<mgrwt>
<rscale>  2 0.46926172E+03</rscale>
<asrwt>0</asrwt>
<pdfrwt beam="1">  1       21 0.45698805E-01 0.46926172E+03</pdfrwt>
<pdfrwt beam="2">  1       21 0.13394722E+00 0.46926172E+03</pdfrwt>
<totfact> 0.15605768E+03</totfact>
</mgrwt>
</event>
<event>
 4    1  0.5013722E-002  0.4626251E+03  0.7818608E-02  0.1024023E+00
         21   -1    0    0  501  502  0.00000000000E+00  0.00000000000E+00  0.39700290109E+03  0.39700290109E+03  0.00000000000E+00 0.  1.
         21   -1    0    0  502  503 -0.00000000000E+00 -0.00000000000E+00 -0.57189364316E+03  0.57189364316E+03  0.00000000000E+00 0. -1.
    9000007    1    1    2  501    0  0.16073413438E+03 -0.16788831357E+03  0.28572058299E+02  0.46350653750E+03  0.40000000000E+03 0.  1.
   -9000007    1    1    2    0  503 -0.16073413438E+03  0.16788831357E+03 -0.20346280037E+03  0.50539000675E+03  0.40000000000E+03 0. -1.
<mgrwt>
<rscale>  2 0.46262506E+03</rscale>
<asrwt>0</asrwt>
<pdfrwt beam="1">  1       21 0.61077370E-01 0.46262506E+03</pdfrwt>
<pdfrwt beam="2">  1       21 0.87983637E-01 0.46262506E+03</pdfrwt>
<totfact> 0.23810190E+03</totfact>
</mgrwt>
</event>
<event>
 4    1  0.5013722E-002  0.4784786E+03  0.7818608E-02  0.1019554E+00
         21   -1    0    0  501  502  0.00000000000E+00  0.00000000000E+00  0.14268297336E+03  0.14268297336E+03  0.00000000000E+00 0.  1.
         21   -1    0    0  502  503 -0.00000000000E+00 -0.00000000000E+00 -0.16048544298E+04  0.16048544298E+04  0.00000000000E+00 0.  1.
    9000007    1    1    2  501    0  0.87686067739E+02 -0.24749322965E+03 -0.74315046554E+03  0.88386331501E+03  0.40000000000E+03 0.  1.
   -9000007    1    1    2    0  503 -0.87686067739E+02  0.24749322965E+03 -0.71902099091E+03  0.86367408816E+03  0.40000000000E+03 0.  1.
<mgrwt>
<rscale>  2 0.47847857E+03</rscale>
<asrwt>0</asrwt>
<pdfrwt beam="1">  1       21 0.21951228E-01 0.47847857E+03</pdfrwt>
<pdfrwt beam="2">  1       21 0.24690066E+00 0.47847857E+03</pdfrwt>
<totfact> 0.10924433E+03</totfact>
</mgrwt>
</event>
<event>
 4    1  0.5013722E-002  0.4292212E+03  0.7818608E-02  0.1034106E+00
         21   -1    0    0  503  502  0.00000000000E+00  0.00000000000E+00  0.15488611470E+03  0.15488611470E+03  0.00000000000E+00 0. -1.
         21   -1    0    0  501  503 -0.00000000000E+00 -0.00000000000E+00 -0.13309857298E+04  0.13309857298E+04  0.00000000000E+00 0. -1.
    9000007    1    1    2  501    0  0.72061602140E+01 -0.15549557625E+03 -0.83031036184E+03  0.93469037652E+03  0.40000000000E+03 0. -1.
   -9000007    1    1    2    0  502 -0.72061602140E+01  0.15549557625E+03 -0.34578925328E+03  0.55118146799E+03  0.40000000000E+03 0. -1.
<mgrwt>
<rscale>  2 0.42922116E+03</rscale>
<asrwt>0</asrwt>
<pdfrwt beam="1">  1       21 0.23828634E-01 0.42922116E+03</pdfrwt>
<pdfrwt beam="2">  1       21 0.20476703E+00 0.42922116E+03</pdfrwt>
<totfact> 0.17662072E+03</totfact>
</mgrwt>
</event>
<event>
 4    1  0.5013722E-002  0.4345938E+03  0.7818608E-02  0.1032419E+00
         21   -1    0    0  501  502  0.00000000000E+00  0.00000000000E+00  0.11147339856E+03  0.11147339856E+03  0.00000000000E+00 0. -1.
         21   -1    0    0  502  503 -0.00000000000E+00 -0.00000000000E+00 -0.20134734427E+04  0.20134734427E+04  0.00000000000E+00 0.  1.
    9000007    1    1    2  501    0 -0.13415668008E+03  0.10427734996E+03 -0.52799664060E+03  0.68385103130E+03  0.40000000000E+03 0. -1.
   -9000007    1    1    2    0  503  0.13415668008E+03 -0.10427734996E+03 -0.13740034036E+04  0.14410958100E+04  0.40000000000E+03 0.  1.
<mgrwt>
<rscale>  2 0.43459381E+03</rscale>
<asrwt>0</asrwt>
<pdfrwt beam="1">  1       21 0.17149754E-01 0.43459381E+03</pdfrwt>
<pdfrwt beam="2">  1       21 0.30976514E+00 0.43459381E+03</pdfrwt>
<totfact> 0.74330538E+02</totfact>
</mgrwt>
</event>
<event>
 4    1  0.5013722E-002  0.4554777E+03  0.7818608E-02  0.1026101E+00
         21   -1    0    0  501  502  0.00000000000E+00  0.00000000000E+00  0.29055220514E+03  0.29055220514E+03  0.00000000000E+00 0.  1.
         21   -1    0    0  502  503 -0.00000000000E+00 -0.00000000000E+00 -0.73540347502E+03  0.73540347502E+03  0.00000000000E+00 0.  1.
    9000007    1    1    2  501    0 -0.10559770819E+02 -0.21759694846E+03 -0.30989983256E+03  0.55090638675E+03  0.40000000000E+03 0.  1.
   -9000007    1    1    2    0  503  0.10559770819E+02  0.21759694846E+03 -0.13495143732E+03  0.47504929341E+03  0.40000000000E+03 0.  1.
<mgrwt>
<rscale>  2 0.45547771E+03</rscale>
<asrwt>0</asrwt>
<pdfrwt beam="1">  1       21 0.44700340E-01 0.45547771E+03</pdfrwt>
<pdfrwt beam="2">  1       21 0.11313900E+00 0.45547771E+03</pdfrwt>
<totfact> 0.25308355E+03</totfact>
</mgrwt>
</event>
<event>
 4    1  0.5013722E-002  0.4138876E+03  0.7818608E-02  0.1039074E+00
         21   -1    0    0  503  502  0.00000000000E+00  0.00000000000E+00  0.10827122069E+04  0.10827122069E+04  0.00000000000E+00 0. -1.
         21   -1    0    0  501  503 -0.00000000000E+00 -0.00000000000E+00 -0.25983580169E+03  0.25983580169E+03  0.00000000000E+00 0. -1.
    9000007    1    1    2  501    0 -0.56671999700E+01 -0.10616410959E+03 -0.83579345591E+01  0.41397196812E+03  0.40000000000E+03 0. -1.
   -9000007    1    1    2    0  502  0.56671999700E+01  0.10616410959E+03  0.83123433977E+03  0.92857604047E+03  0.40000000000E+03 0. -1.
<mgrwt>
<rscale>  2 0.41388759E+03</rscale>
<asrwt>0</asrwt>
<pdfrwt beam="1">  1       21 0.16657111E+00 0.41388759E+03</pdfrwt>
<pdfrwt beam="2">  1       21 0.39974739E-01 0.41388759E+03</pdfrwt>
<totfact> 0.11673004E+03</totfact>
</mgrwt>
</event>
<event>
 4    1  0.5013722E-002  0.4046546E+03  0.7818608E-02  0.1042180E+00
         21   -1    0    0  503  502  0.00000000000E+00  0.00000000000E+00  0.11163777359E+04  0.11163777359E+04  0.00000000000E+00 0.  1.
         21   -1    0    0  501  503 -0.00000000000E+00 -0.00000000000E+00 -0.14717162874E+03  0.14717162874E+03  0.00000000000E+00 0.  1.
    9000007    1    1    2  501    0  0.10243613960E+02  0.60336037578E+02  0.44792505540E+03  0.60364080736E+03  0.40000000000E+03 0.  1.
   -9000007    1    1    2    0  502 -0.10243613960E+02 -0.60336037578E+02  0.52128105181E+03  0.65990855733E+03  0.40000000000E+03 0.  1.
<mgrwt>
<rscale>  2 0.40465463E+03</rscale>
<asrwt>0</asrwt>
<pdfrwt beam="1">  1       21 0.17175042E+00 0.40465463E+03</pdfrwt>
<pdfrwt beam="2">  1       21 0.22641790E-01 0.40465463E+03</pdfrwt>
<totfact> 0.33218795E+03</totfact>
</mgrwt>
</event>
<event>
 4    1  0.5013722E-002  0.7763553E+03  0.7818608E-02  0.9594887E-01
         21   -1    0    0  501  502  0.00000000000E+00  0.00000000000E+00  0.57001523518E+03  0.57001523518E+03  0.00000000000E+00 0. -1.
         21   -1    0    0  502  503 -0.00000000000E+00 -0.00000000000E+00 -0.11368657381E+04  0.11368657381E+04  0.00000000000E+00 0.  1.
    9000007    1    1    2  501    0 -0.23032742176E+03 -0.62424102483E+03 -0.50907763314E+03  0.92837902544E+03  0.40000000000E+03 0.  1.
   -9000007    1    1    2    0  503  0.23032742176E+03  0.62424102483E+03 -0.57772869761E+02  0.77850194783E+03  0.40000000000E+03 0. -1.
<mgrwt>
<rscale>  2 0.77635532E+03</rscale>
<asrwt>0</asrwt>
<pdfrwt beam="1">  1       21 0.87694651E-01 0.77635532E+03</pdfrwt>
<pdfrwt beam="2">  1       21 0.17490242E+00 0.77635532E+03</pdfrwt>
<totfact> 0.15707482E+02</totfact>
</mgrwt>
</event>
<event>
 4    1  0.5013722E-002  0.4347578E+03  0.7818608E-02  0.1032367E+00
         21   -1    0    0  501  502  0.00000000000E+00  0.00000000000E+00  0.14140949146E+04  0.14140949146E+04  0.00000000000E+00 0.  1.
         21   -1    0    0  502  503 -0.00000000000E+00 -0.00000000000E+00 -0.32618732598E+03  0.32618732598E+03  0.00000000000E+00 0. -1.
    9000007    1    1    2  501    0 -0.13579287580E+03  0.10283289780E+03  0.12124473871E+04  0.12880384220E+04  0.40000000000E+03 0.  1.
   -9000007    1    1    2    0  503  0.13579287580E+03 -0.10283289780E+03 -0.12453979854E+03  0.45224381854E+03  0.40000000000E+03 0. -1.
<mgrwt>
<rscale>  2 0.43475776E+03</rscale>
<asrwt>0</asrwt>
<pdfrwt beam="1">  1       21 0.21755306E+00 0.43475776E+03</pdfrwt>
<pdfrwt beam="2">  1       21 0.50182667E-01 0.43475776E+03</pdfrwt>
<totfact> 0.32240617E+02</totfact>
</mgrwt>
</event>
<event>
 4    1  0.5013722E-002  0.4354492E+03  0.7818608E-02  0.1032152E+00
         21   -1    0    0  501  502  0.00000000000E+00  0.00000000000E+00  0.25496589761E+03  0.25496589761E+03  0.00000000000E+00 0.  1.
         21   -1    0    0  502  503 -0.00000000000E+00 -0.00000000000E+00 -0.10655190903E+04  0.10655190903E+04  0.00000000000E+00 0.  1.
    9000007    1    1    2  501    0  0.64041584353E+01  0.17197372221E+03 -0.42420451255E+02  0.43751053594E+03  0.40000000000E+03 0.  1.
   -9000007    1    1    2    0  503 -0.64041584353E+01 -0.17197372221E+03 -0.76813274143E+03  0.88297445197E+03  0.40000000000E+03 0.  1.
<mgrwt>
<rscale>  2 0.43544916E+03</rscale>
<asrwt>0</asrwt>
<pdfrwt beam="1">  1       21 0.39225522E-01 0.43544916E+03</pdfrwt>
<pdfrwt beam="2">  1       21 0.16392602E+00 0.43544916E+03</pdfrwt>
<totfact> 0.12571458E+03</totfact>
</mgrwt>
</event>
<event>
 4    1  0.5013722E-002  0.5411197E+03  0.7818608E-02  0.1003571E+00
         21   -1    0    0  503  502  0.00000000000E+00  0.00000000000E+00  0.33323046681E+03  0.33323046681E+03  0.00000000000E+00 0. -1.
         21   -1    0    0  501  503 -0.00000000000E+00 -0.00000000000E+00 -0.88581089589E+03  0.88581089589E+03  0.00000000000E+00 0. -1.
    9000007    1    1    2  501    0 -0.25042801262E+03 -0.26475711207E+03 -0.33089076113E+03  0.63427061551E+03  0.40000000000E+03 0. -1.
   -9000007    1    1    2    0  502  0.25042801262E+03  0.26475711207E+03 -0.22168966795E+03  0.58477074719E+03  0.40000000000E+03 0. -1.
<mgrwt>
<rscale>  2 0.54111969E+03</rscale>
<asrwt>0</asrwt>
<pdfrwt beam="1">  1       21 0.51266226E-01 0.54111969E+03</pdfrwt>
<pdfrwt beam="2">  1       21 0.13627860E+00 0.54111969E+03</pdfrwt>
<totfact> 0.11386079E+03</totfact>
</mgrwt>
</event>
<event>
 4    1  0.5013722E-002  0.5272734E+03  0.7818608E-02  0.1006896E+00
         21   -1    0    0  501  502  0.00000000000E+00  0.00000000000E+00  0.24786576378E+03  0.24786576378E+03  0.00000000000E+00 0. -1.
         21   -1    0    0  502  503 -0.00000000000E+00 -0.00000000000E+00 -0.12454719878E+04  0.12454719878E+04  0.00000000000E+00 0.  1.
    9000007    1    1    2  501    0 -0.13254765230E+03 -0.31693580727E+03 -0.73423766222E+03  0.90394807964E+03  0.40000000000E+03 0. -1.
   -9000007    1    1    2    0  503  0.13254765230E+03  0.31693580727E+03 -0.26336856183E+03  0.58938967196E+03  0.40000000000E+03 0. -1.
<mgrwt>
<rscale>  2 0.52727335E+03</rscale>
<asrwt>0</asrwt>
<pdfrwt beam="1">  1       21 0.38133195E-01 0.52727335E+03</pdfrwt>
<pdfrwt beam="2">  1       21 0.19161107E+00 0.52727335E+03</pdfrwt>
<totfact> 0.81442841E+02</totfact>
</mgrwt>
</event>
<event>
 4    1  0.5013722E-002  0.4223508E+03  0.7818608E-02  0.1036304E+00
         21   -1    0    0  501  502  0.00000000000E+00  0.00000000000E+00  0.62889437196E+03  0.62889437196E+03  0.00000000000E+00 0.  1.
         21   -1    0    0  502  503 -0.00000000000E+00 -0.00000000000E+00 -0.38713992343E+03  0.38713992343E+03  0.00000000000E+00 0. -1.
    9000007    1    1    2  501    0  0.11547445583E+03  0.71034282513E+02  0.38354835229E+03  0.57051692156E+03  0.40000000000E+03 0.  1.
   -9000007    1    1    2    0  503 -0.11547445583E+03 -0.71034282513E+02 -0.14179390377E+03  0.44551737383E+03  0.40000000000E+03 0. -1.
<mgrwt>
<rscale>  2 0.42235082E+03</rscale>
<asrwt>0</asrwt>
<pdfrwt beam="1">  1       21 0.96752980E-01 0.42235082E+03</pdfrwt>
<pdfrwt beam="2">  1       21 0.59559988E-01 0.42235082E+03</pdfrwt>
<totfact> 0.20375304E+03</totfact>
</mgrwt>
</event>
<event>
 4    1  0.5013722E-002  0.5178200E+03  0.7818608E-02  0.1009230E+00
         21   -1    0    0  503  502  0.00000000000E+00  0.00000000000E+00  0.60304858231E+03  0.60304858231E+03  0.00000000000E+00 0. -1.
         21   -1    0    0  501  503 -0.00000000000E+00 -0.00000000000E+00 -0.52148127292E+03  0.52148127292E+03  0.00000000000E+00 0.  1.
    9000007    1    1    2  501    0  0.11158582431E+03 -0.30933185922E+03 -0.17505436011E+03  0.54660920620E+03  0.40000000000E+03 0.  1.
   -9000007    1    1    2    0  502 -0.11158582431E+03  0.30933185922E+03  0.25662166949E+03  0.57792064902E+03  0.40000000000E+03 0.  1.
<mgrwt>
<rscale>  2 0.51782004E+03</rscale>
<asrwt>0</asrwt>
<pdfrwt beam="1">  1       21 0.92776705E-01 0.51782004E+03</pdfrwt>
<pdfrwt beam="2">  1       21 0.80227889E-01 0.51782004E+03</pdfrwt>
<totfact> 0.11122511E+03</totfact>
</mgrwt>
</event>
<event>
 4    1  0.5013722E-002  0.4751847E+03  0.7818608E-02  0.1020467E+00
         21   -1    0    0  503  502  0.00000000000E+00  0.00000000000E+00  0.55819324521E+03  0.55819324521E+03  0.00000000000E+00 0. -1.
         21   -1    0    0  501  503 -0.00000000000E+00 -0.00000000000E+00 -0.71554465433E+03  0.71554465433E+03  0.00000000000E+00 0. -1.
    9000007    1    1    2  501    0  0.56114790760E+02  0.25030311669E+03 -0.49855927080E+03  0.68873933129E+03  0.40000000000E+03 0. -1.
   -9000007    1    1    2    0  502 -0.56114790760E+02 -0.25030311669E+03  0.34120786169E+03  0.58499856824E+03  0.40000000000E+03 0. -1.
<mgrwt>
<rscale>  2 0.47518472E+03</rscale>
<asrwt>0</asrwt>
<pdfrwt beam="1">  1       21 0.85875883E-01 0.47518472E+03</pdfrwt>
<pdfrwt beam="2">  1       21 0.11008379E+00 0.47518472E+03</pdfrwt>
<totfact> 0.63515129E+02</totfact>
</mgrwt>
</event>
<event>
 4    1  0.5013722E-002  0.4740092E+03  0.7818608E-02  0.1020795E+00
         21   -1    0    0  503  502  0.00000000000E+00  0.00000000000E+00  0.34855407620E+03  0.34855407620E+03  0.00000000000E+00 0.  1.
         21   -1    0    0  501  503 -0.00000000000E+00 -0.00000000000E+00 -0.65377907781E+03  0.65377907781E+03  0.00000000000E+00 0.  1.
    9000007    1    1    2  501    0  0.21996404551E+03 -0.12767358898E+03 -0.21193319191E+03  0.51923058892E+03  0.40000000000E+03 0.  1.
   -9000007    1    1    2    0  502 -0.21996404551E+03  0.12767358898E+03 -0.93291809695E+02  0.48310256509E+03  0.40000000000E+03 0.  1.
<mgrwt>
<rscale>  2 0.47400921E+03</rscale>
<asrwt>0</asrwt>
<pdfrwt beam="1">  1       21 0.53623704E-01 0.47400921E+03</pdfrwt>
<pdfrwt beam="2">  1       21 0.10058140E+00 0.47400921E+03</pdfrwt>
<totfact> 0.22845551E+03</totfact>
</mgrwt>
</event>
<event>
 4    1  0.5013722E-002  0.4419219E+03  0.7818608E-02  0.1030159E+00
         21   -1    0    0  501  502  0.00000000000E+00  0.00000000000E+00  0.35139688941E+03  0.35139688941E+03  0.00000000000E+00 0.  1.
         21   -1    0    0  502  503 -0.00000000000E+00 -0.00000000000E+00 -0.62652673950E+03  0.62652673950E+03  0.00000000000E+00 0.  1.
    9000007    1    1    2  501    0  0.14951917085E+03 -0.11374950256E+03  0.26757583846E+02  0.44273118264E+03  0.40000000000E+03 0.  1.
   -9000007    1    1    2    0  503 -0.14951917085E+03  0.11374950256E+03 -0.30188743394E+03  0.53519244628E+03  0.40000000000E+03 0.  1.
<mgrwt>
<rscale>  2 0.44192186E+03</rscale>
<asrwt>0</asrwt>
<pdfrwt beam="1">  1       21 0.54061061E-01 0.44192186E+03</pdfrwt>
<pdfrwt beam="2">  1       21 0.96388728E-01 0.44192186E+03</pdfrwt>
<totfact> 0.25176626E+03</totfact>
</mgrwt>
</event>
<event>
 4    1  0.5013722E-002  0.4432940E+03  0.7818608E-02  0.1029741E+00
         21   -1    0    0  503  502  0.00000000000E+00  0.00000000000E+00  0.41287930191E+03  0.41287930191E+03  0.00000000000E+00 0. -1.
         21   -1    0    0  501  503 -0.00000000000E+00 -0.00000000000E+00 -0.56961022866E+03  0.56961022866E+03  0.00000000000E+00 0. -1.
    9000007    1    1    2  501    0  0.10942571285E+03  0.15663831891E+03 -0.27756514567E+03  0.52302194951E+03  0.40000000000E+03 0. -1.
   -9000007    1    1    2    0  502 -0.10942571285E+03 -0.15663831891E+03  0.12083421892E+03  0.45946758106E+03  0.40000000000E+03 0. -1.
<mgrwt>
<rscale>  2 0.44329398E+03</rscale>
<asrwt>0</asrwt>
<pdfrwt beam="1">  1       21 0.63519893E-01 0.44329398E+03</pdfrwt>
<pdfrwt beam="2">  1       21 0.87632343E-01 0.44329398E+03</pdfrwt>
<totfact> 0.22200504E+03</totfact>
</mgrwt>
</event>
<event>
 4    1  0.5013722E-002  0.4129756E+03  0.7818608E-02  0.1039377E+00
         21   -1    0    0  503  502  0.00000000000E+00  0.00000000000E+00  0.15064727673E+04  0.15064727673E+04  0.00000000000E+00 0.  1.
         21   -1    0    0  501  503 -0.00000000000E+00 -0.00000000000E+00 -0.20261243405E+03  0.20261243405E+03  0.00000000000E+00 0.  1.
    9000007    1    1    2  501    0  0.91475330954E+02  0.46701977770E+02  0.84289261771E+02  0.42148960907E+03  0.40000000000E+03 0.  1.
   -9000007    1    1    2    0  502 -0.91475330954E+02 -0.46701977770E+02  0.12195710715E+04  0.12875955923E+04  0.40000000000E+03 0.  1.
<mgrwt>
<rscale>  2 0.41297556E+03</rscale>
<asrwt>0</asrwt>
<pdfrwt beam="1">  1       21 0.23176503E+00 0.41297556E+03</pdfrwt>
<pdfrwt beam="2">  1       21 0.31171145E-01 0.41297556E+03</pdfrwt>
<totfact> 0.70590865E+02</totfact>
</mgrwt>
</event>
<event>
 4    1  0.5013722E-002  0.5010155E+03  0.7818608E-02  0.1013514E+00
         21   -1    0    0  501  502  0.00000000000E+00  0.00000000000E+00  0.14336119364E+04  0.14336119364E+04  0.00000000000E+00 0. -1.
         21   -1    0    0  502  503 -0.00000000000E+00 -0.00000000000E+00 -0.17650197495E+03  0.17650197495E+03  0.00000000000E+00 0. -1.
    9000007    1    1    2  501    0 -0.14623848021E+03 -0.26387658720E+03  0.55664622474E+03  0.74891359040E+03  0.40000000000E+03 0. -1.
   -9000007    1    1    2    0  503  0.14623848021E+03  0.26387658720E+03  0.70046373674E+03  0.86120032098E+03  0.40000000000E+03 0. -1.
<mgrwt>
<rscale>  2 0.50101552E+03</rscale>
<asrwt>0</asrwt>
<pdfrwt beam="1">  1       21 0.22055567E+00 0.50101552E+03</pdfrwt>
<pdfrwt beam="2">  1       21 0.27154151E-01 0.50101552E+03</pdfrwt>
<totfact> 0.10472700E+03</totfact>
</mgrwt>
</event>
<event>
 4    1  0.5013722E-002  0.5072973E+03  0.7818608E-02  0.1011892E+00
         21   -1    0    0  501  502  0.00000000000E+00  0.00000000000E+00  0.48582643247E+03  0.48582643247E+03  0.00000000000E+00 0.  1.
         21   -1    0    0  502  503 -0.00000000000E+00 -0.00000000000E+00 -0.72945492357E+03  0.72945492357E+03  0.00000000000E+00 0. -1.
    9000007    1    1    2  501    0  0.23804280526E+03  0.20170813220E+03  0.19614965335E+03  0.54389818371E+03  0.40000000000E+03 0.  1.
   -9000007    1    1    2    0  503 -0.23804280526E+03 -0.20170813220E+03 -0.43977814446E+03  0.67138317232E+03  0.40000000000E+03 0. -1.
<mgrwt>
<rscale>  2 0.50729730E+03</rscale>
<asrwt>0</asrwt>
<pdfrwt beam="1">  1       21 0.74742528E-01 0.50729730E+03</pdfrwt>
<pdfrwt beam="2">  1       21 0.11222383E+00 0.50729730E+03</pdfrwt>
<totfact> 0.82456711E+02</totfact>
</mgrwt>
</event>
<event>
 4    1  0.5013722E-002  0.4050793E+03  0.7818608E-02  0.1042035E+00
         21   -1    0    0  503  502  0.00000000000E+00  0.00000000000E+00  0.12117438100E+04  0.12117438100E+04  0.00000000000E+00 0.  1.
         21   -1    0    0  501  503 -0.00000000000E+00 -0.00000000000E+00 -0.26712254681E+03  0.26712254681E+03  0.00000000000E+00 0.  1.
    9000007    1    1    2  501    0  0.25157916000E+02 -0.58790741305E+02 -0.46904871733E+02  0.40778589847E+03  0.40000000000E+03 0.  1.
   -9000007    1    1    2    0  502 -0.25157916000E+02  0.58790741305E+02  0.99152613493E+03  0.10710804583E+04  0.40000000000E+03 0.  1.
<mgrwt>
<rscale>  2 0.40507934E+03</rscale>
<asrwt>0</asrwt>
<pdfrwt beam="1">  1       21 0.18642212E+00 0.40507934E+03</pdfrwt>
<pdfrwt beam="2">  1       21 0.41095777E-01 0.40507934E+03</pdfrwt>
<totfact> 0.80036689E+02</totfact>
</mgrwt>
</event>
<event>
 4    1  0.5013722E-002  0.4240290E+03  0.7818608E-02  0.1035763E+00
         21   -1    0    0  503  502  0.00000000000E+00  0.00000000000E+00  0.60785865834E+03  0.60785865834E+03  0.00000000000E+00 0.  1.
         21   -1    0    0  501  503 -0.00000000000E+00 -0.00000000000E+00 -0.41825311837E+03  0.41825311837E+03  0.00000000000E+00 0.  1.
    9000007    1    1    2  501    0  0.24666750967E+02  0.13853583425E+03 -0.18281136476E+03  0.46175818462E+03  0.40000000000E+03 0.  1.
   -9000007    1    1    2    0  502 -0.24666750967E+02 -0.13853583425E+03  0.37241690474E+03  0.56435359209E+03  0.40000000000E+03 0.  1.
<mgrwt>
<rscale>  2 0.42402904E+03</rscale>
<asrwt>0</asrwt>
<pdfrwt beam="1">  1       21 0.93516717E-01 0.42402904E+03</pdfrwt>
<pdfrwt beam="2">  1       21 0.64346633E-01 0.42402904E+03</pdfrwt>
<totfact> 0.18633984E+03</totfact>
</mgrwt>
</event>
<event>
 4    1  0.5013722E-002  0.6258815E+03  0.7818608E-02  0.9853119E-01
         21   -1    0    0  501  502  0.00000000000E+00  0.00000000000E+00  0.21947128767E+04  0.21947128767E+04  0.00000000000E+00 0. -1.
         21   -1    0    0  502  503 -0.00000000000E+00 -0.00000000000E+00 -0.61719081695E+03  0.61719081695E+03  0.00000000000E+00 0.  1.
    9000007    1    1    2  501    0  0.40534015027E+03 -0.25966700684E+03  0.19741106190E+04  0.20709515514E+04  0.40000000000E+03 0. -1.
   -9000007    1    1    2    0  503 -0.40534015027E+03  0.25966700684E+03 -0.39658855926E+03  0.74095214231E+03  0.40000000000E+03 0.  1.
<mgrwt>
<rscale>  2 0.62588145E+03</rscale>
<asrwt>0</asrwt>
<pdfrwt beam="1">  1       21 0.33764813E+00 0.62588145E+03</pdfrwt>
<pdfrwt beam="2">  1       21 0.94952434E-01 0.62588145E+03</pdfrwt>
<totfact> 0.12563630E+01</totfact>
</mgrwt>
</event>
<event>
 4    1  0.5013722E-002  0.4125899E+03  0.7818608E-02  0.1039505E+00
         21   -1    0    0  501  502  0.00000000000E+00  0.00000000000E+00  0.61289464000E+03  0.61289464000E+03  0.00000000000E+00 0.  1.
         21   -1    0    0  502  503 -0.00000000000E+00 -0.00000000000E+00 -0.38573590410E+03  0.38573590410E+03  0.00000000000E+00 0.  1.
    9000007    1    1    2  501    0 -0.56476768960E+02  0.83909545034E+02 -0.15061088675E+03  0.43921984972E+03  0.40000000000E+03 0.  1.
   -9000007    1    1    2    0  503  0.56476768960E+02 -0.83909545034E+02  0.37776962265E+03  0.55941069437E+03  0.40000000000E+03 0.  1.
<mgrwt>
<rscale>  2 0.41258991E+03</rscale>
<asrwt>0</asrwt>
<pdfrwt beam="1">  1       21 0.94291483E-01 0.41258991E+03</pdfrwt>
<pdfrwt beam="2">  1       21 0.59343986E-01 0.41258991E+03</pdfrwt>
<totfact> 0.21931041E+03</totfact>
</mgrwt>
</event>
<event>
 4    1  0.5013722E-002  0.4067226E+03  0.7818608E-02  0.1041476E+00
         21   -1    0    0  501  502  0.00000000000E+00  0.00000000000E+00  0.26439452902E+03  0.26439452902E+03  0.00000000000E+00 0. -1.
         21   -1    0    0  502  503 -0.00000000000E+00 -0.00000000000E+00 -0.66748441833E+03  0.66748441833E+03  0.00000000000E+00 0. -1.
    9000007    1    1    2  501    0  0.27447033747E+02 -0.68337016039E+02 -0.84922923827E+02  0.41549391140E+03  0.40000000000E+03 0. -1.
   -9000007    1    1    2    0  503 -0.27447033747E+02  0.68337016039E+02 -0.31816696549E+03  0.51638503595E+03  0.40000000000E+03 0. -1.
<mgrwt>
<rscale>  2 0.40672262E+03</rscale>
<asrwt>0</asrwt>
<pdfrwt beam="1">  1       21 0.40676082E-01 0.40672262E+03</pdfrwt>
<pdfrwt beam="2">  1       21 0.10268991E+00 0.40672262E+03</pdfrwt>
<totfact> 0.39828456E+03</totfact>
</mgrwt>
</event>
<event>
 4    1  0.5013722E-002  0.4328621E+03  0.7818608E-02  0.1032960E+00
         21   -1    0    0  503  502  0.00000000000E+00  0.00000000000E+00  0.15800061646E+03  0.15800061646E+03  0.00000000000E+00 0.  1.
         21   -1    0    0  501  503 -0.00000000000E+00 -0.00000000000E+00 -0.13738277455E+04  0.13738277455E+04  0.00000000000E+00 0.  1.
    9000007    1    1    2  501    0  0.58739482087E+02 -0.15465847161E+03 -0.89120536359E+03  0.99076564822E+03  0.40000000000E+03 0.  1.
   -9000007    1    1    2    0  502 -0.58739482087E+02  0.15465847161E+03 -0.32462176544E+03  0.54106271373E+03  0.40000000000E+03 0.  1.
<mgrwt>
<rscale>  2 0.43286207E+03</rscale>
<asrwt>0</asrwt>
<pdfrwt beam="1">  1       21 0.24307787E-01 0.43286207E+03</pdfrwt>
<pdfrwt beam="2">  1       21 0.21135812E+00 0.43286207E+03</pdfrwt>
<totfact> 0.15364550E+03</totfact>
</mgrwt>
</event>
<event>
 4    1  0.5013722E-002  0.4069729E+03  0.7818608E-02  0.1041392E+00
         21   -1    0    0  503  502  0.00000000000E+00  0.00000000000E+00  0.28299284545E+03  0.28299284545E+03  0.00000000000E+00 0.  1.
         21   -1    0    0  501  503 -0.00000000000E+00 -0.00000000000E+00 -0.59692732551E+03  0.59692732551E+03  0.00000000000E+00 0.  1.
    9000007    1    1    2  501    0 -0.57990030318E+02  0.47582798109E+02 -0.21845219844E+03  0.46189644867E+03  0.40000000000E+03 0. -1.
   -9000007    1    1    2    0  502  0.57990030318E+02 -0.47582798109E+02 -0.95482281615E+02  0.41802372229E+03  0.40000000000E+03 0. -1.
<mgrwt>
<rscale>  2 0.40697293E+03</rscale>
<asrwt>0</asrwt>
<pdfrwt beam="1">  1       21 0.43537361E-01 0.40697293E+03</pdfrwt>
<pdfrwt beam="2">  1       21 0.91834973E-01 0.40697293E+03</pdfrwt>
<totfact> 0.45261160E+03</totfact>
</mgrwt>
</event>
<event>
 4    1  0.5013722E-002  0.4412333E+03  0.7818608E-02  0.1030369E+00
         21   -1    0    0  503  502  0.00000000000E+00  0.00000000000E+00  0.33529137274E+03  0.33529137274E+03  0.00000000000E+00 0. -1.
         21   -1    0    0  501  503 -0.00000000000E+00 -0.00000000000E+00 -0.74286331042E+03  0.74286331042E+03  0.00000000000E+00 0. -1.
    9000007    1    1    2  501    0  0.16034840624E+03 -0.94737544695E+02 -0.45569303703E+03  0.63430509832E+03  0.40000000000E+03 0. -1.
   -9000007    1    1    2    0  502 -0.16034840624E+03  0.94737544695E+02  0.48121099346E+02  0.44384958484E+03  0.40000000000E+03 0. -1.
<mgrwt>
<rscale>  2 0.44123329E+03</rscale>
<asrwt>0</asrwt>
<pdfrwt beam="1">  1       21 0.51583288E-01 0.44123329E+03</pdfrwt>
<pdfrwt beam="2">  1       21 0.11428666E+00 0.44123329E+03</pdfrwt>
<totfact> 0.18329598E+03</totfact>
</mgrwt>
</event>
<event>
 4    1  0.5013722E-002  0.4100347E+03  0.7818608E-02  0.1040359E+00
         21   -1    0    0  503  502  0.00000000000E+00  0.00000000000E+00  0.93912848780E+02  0.93912848780E+02  0.00000000000E+00 0.  1.
         21   -1    0    0  501  503 -0.00000000000E+00 -0.00000000000E+00 -0.25645045925E+04  0.25645045925E+04  0.00000000000E+00 0.  1.
    9000007    1    1    2  501    0 -0.75547364482E+02  0.49203984319E+02 -0.19656449290E+04  0.20079562802E+04  0.40000000000E+03 0.  1.
   -9000007    1    1    2    0  502  0.75547364482E+02 -0.49203984319E+02 -0.50494681470E+03  0.65046116105E+03  0.40000000000E+03 0.  1.
<mgrwt>
<rscale>  2 0.41003468E+03</rscale>
<asrwt>0</asrwt>
<pdfrwt beam="1">  1       21 0.14448129E-01 0.41003468E+03</pdfrwt>
<pdfrwt beam="2">  1       21 0.39453922E+00 0.41003468E+03</pdfrwt>
<totfact> 0.31275909E+02</totfact>
</mgrwt>
</event>
<event>
 4    1  0.5013722E-002  0.5079411E+03  0.7818608E-02  0.1011727E+00
         21   -1    0    0  503  502  0.00000000000E+00  0.00000000000E+00  0.64745259298E+03  0.64745259298E+03  0.00000000000E+00 0.  1.
         21   -1    0    0  501  503 -0.00000000000E+00 -0.00000000000E+00 -0.73635367703E+03  0.73635367703E+03  0.00000000000E+00 0.  1.
    9000007    1    1    2  501    0 -0.29939222003E+03  0.91479160816E+02 -0.51312584804E+03  0.72201265516E+03  0.40000000000E+03 0.  1.
   -9000007    1    1    2    0  502  0.29939222003E+03 -0.91479160816E+02  0.42422476400E+03  0.66179361486E+03  0.40000000000E+03 0.  1.
<mgrwt>
<rscale>  2 0.50794108E+03</rscale>
<asrwt>0</asrwt>
<pdfrwt beam="1">  1       21 0.99608091E-01 0.50794108E+03</pdfrwt>
<pdfrwt beam="2">  1       21 0.11328518E+00 0.50794108E+03</pdfrwt>
<totfact> 0.40935899E+02</totfact>
</mgrwt>
</event>
<event>
 4    1  0.5013722E-002  0.4709668E+03  0.7818608E-02  0.1021648E+00
         21   -1    0    0  501  502  0.00000000000E+00  0.00000000000E+00  0.96185047410E+03  0.96185047410E+03  0.00000000000E+00 0. -1.
         21   -1    0    0  502  503 -0.00000000000E+00 -0.00000000000E+00 -0.29088161362E+03  0.29088161362E+03  0.00000000000E+00 0. -1.
    9000007    1    1    2  501    0  0.20751322535E+03  0.13692314158E+03  0.62061016342E+03  0.77908065073E+03  0.40000000000E+03 0. -1.
   -9000007    1    1    2    0  503 -0.20751322535E+03 -0.13692314158E+03  0.50358697061E+02  0.47365143699E+03  0.40000000000E+03 0. -1.
<mgrwt>
<rscale>  2 0.47096676E+03</rscale>
<asrwt>0</asrwt>
<pdfrwt beam="1">  1       21 0.14797699E+00 0.47096676E+03</pdfrwt>
<pdfrwt beam="2">  1       21 0.44751018E-01 0.47096676E+03</pdfrwt>
<totfact> 0.12494789E+03</totfact>
</mgrwt>
</event>
<event>
 4    1  0.5013722E-002  0.6021557E+03  0.7818608E-02  0.9900944E-01
         21   -1    0    0  503  502  0.00000000000E+00  0.00000000000E+00  0.87639136929E+03  0.87639136929E+03  0.00000000000E+00 0. -1.
         21   -1    0    0  501  503 -0.00000000000E+00 -0.00000000000E+00 -0.44198382192E+03  0.44198382192E+03  0.00000000000E+00 0. -1.
    9000007    1    1    2  501    0 -0.44392290319E+03 -0.74322887987E+02  0.50545607143E+02  0.60427336037E+03  0.40000000000E+03 0. -1.
   -9000007    1    1    2    0  502  0.44392290319E+03  0.74322887987E+02  0.38386194023E+03  0.71410183084E+03  0.40000000000E+03 0. -1.
<mgrwt>
<rscale>  2 0.60215566E+03</rscale>
<asrwt>0</asrwt>
<pdfrwt beam="1">  1       21 0.13482944E+00 0.60215566E+03</pdfrwt>
<pdfrwt beam="2">  1       21 0.67997512E-01 0.60215566E+03</pdfrwt>
<totfact> 0.61687603E+02</totfact>
</mgrwt>
</event>
<event>
 4    1  0.5013722E-002  0.4198829E+03  0.7818608E-02  0.1037104E+00
         21   -1    0    0  501  502  0.00000000000E+00  0.00000000000E+00  0.86992124606E+03  0.86992124606E+03  0.00000000000E+00 0. -1.
         21   -1    0    0  502  503 -0.00000000000E+00 -0.00000000000E+00 -0.24850938426E+03  0.24850938426E+03  0.00000000000E+00 0. -1.
    9000007    1    1    2  501    0 -0.12442795761E+03  0.28623395942E+02  0.55089654636E+03  0.69266775601E+03  0.40000000000E+03 0. -1.
   -9000007    1    1    2    0  503  0.12442795761E+03 -0.28623395942E+02  0.70515315442E+02  0.42576287431E+03  0.40000000000E+03 0. -1.
<mgrwt>
<rscale>  2 0.41988286E+03</rscale>
<asrwt>0</asrwt>
<pdfrwt beam="1">  1       21 0.13383404E+00 0.41988286E+03</pdfrwt>
<pdfrwt beam="2">  1       21 0.38232213E-01 0.41988286E+03</pdfrwt>
<totfact> 0.23084005E+03</totfact>
</mgrwt>
</event>
<event>
 4    1  0.5013722E-002  0.6347303E+03  0.7818608E-02  0.9835861E-01
         21   -1    0    0  501  502  0.00000000000E+00  0.00000000000E+00  0.31368998653E+03  0.31368998653E+03  0.00000000000E+00 0. -1.
         21   -1    0    0  502  503 -0.00000000000E+00 -0.00000000000E+00 -0.14621206959E+04  0.14621206959E+04  0.00000000000E+00 0. -1.
    9000007    1    1    2  501    0  0.45986041270E+03 -0.17723151331E+03 -0.88383257061E+03  0.10881372254E+04  0.40000000000E+03 0. -1.
   -9000007    1    1    2    0  503 -0.45986041270E+03  0.17723151331E+03 -0.26459813881E+03  0.68767345706E+03  0.40000000000E+03 0. -1.
<mgrwt>
<rscale>  2 0.63473034E+03</rscale>
<asrwt>0</asrwt>
<pdfrwt beam="1">  1       21 0.48259998E-01 0.63473034E+03</pdfrwt>
<pdfrwt beam="2">  1       21 0.22494164E+00 0.63473034E+03</pdfrwt>
<totfact> 0.28733336E+02</totfact>
</mgrwt>
</event>
<event>
 4    1  0.5013722E-002  0.4423226E+03  0.7818608E-02  0.1030037E+00
         21   -1    0    0  501  502  0.00000000000E+00  0.00000000000E+00  0.14738305483E+03  0.14738305483E+03  0.00000000000E+00 0.  1.
         21   -1    0    0  502  503 -0.00000000000E+00 -0.00000000000E+00 -0.13382776011E+04  0.13382776011E+04  0.00000000000E+00 0. -1.
    9000007    1    1    2  501    0  0.17167680210E+03 -0.78589780556E+02 -0.52874915544E+03  0.68936561226E+03  0.40000000000E+03 0.  1.
   -9000007    1    1    2    0  503 -0.17167680210E+03  0.78589780556E+02 -0.66214539083E+03  0.79629504368E+03  0.40000000000E+03 0. -1.
<mgrwt>
<rscale>  2 0.44232259E+03</rscale>
<asrwt>0</asrwt>
<pdfrwt beam="1">  1       21 0.22674317E-01 0.44232259E+03</pdfrwt>
<pdfrwt beam="2">  1       21 0.20588885E+00 0.44232259E+03</pdfrwt>
<totfact> 0.18999505E+03</totfact>
</mgrwt>
</event>
<event>
 4    1  0.5013722E-002  0.4167233E+03  0.7818608E-02  0.1038138E+00
         21   -1    0    0  501  502  0.00000000000E+00  0.00000000000E+00  0.81915977496E+03  0.81915977496E+03  0.00000000000E+00 0. -1.
         21   -1    0    0  502  503 -0.00000000000E+00 -0.00000000000E+00 -0.21364595043E+03  0.21364595043E+03  0.00000000000E+00 0. -1.
    9000007    1    1    2  501    0 -0.18938376333E+02  0.11532421326E+03  0.25737127615E+03  0.48979415069E+03  0.40000000000E+03 0. -1.
   -9000007    1    1    2    0  503  0.18938376333E+02 -0.11532421326E+03  0.34814254838E+03  0.54301157470E+03  0.40000000000E+03 0. -1.
<mgrwt>
<rscale>  2 0.41672333E+03</rscale>
<asrwt>0</asrwt>
<pdfrwt beam="1">  1       21 0.12602458E+00 0.41672333E+03</pdfrwt>
<pdfrwt beam="2">  1       21 0.32868608E-01 0.41672333E+03</pdfrwt>
<totfact> 0.36669569E+03</totfact>
</mgrwt>
</event>
<event>
 4    1  0.5013722E-002  0.4007919E+03  0.7818608E-02  0.1043506E+00
         21   -1    0    0  503  502  0.00000000000E+00  0.00000000000E+00  0.10345985589E+04  0.10345985589E+04  0.00000000000E+00 0.  1.
         21   -1    0    0  501  503 -0.00000000000E+00 -0.00000000000E+00 -0.41432702061E+03  0.41432702061E+03  0.00000000000E+00 0.  1.
    9000007    1    1    2  501    0  0.22470811426E+02  0.11368322702E+02 -0.26272432912E+03  0.47922672008E+03  0.40000000000E+03 0.  1.
   -9000007    1    1    2    0  502 -0.22470811426E+02 -0.11368322702E+02  0.88299586745E+03  0.96969885947E+03  0.40000000000E+03 0.  1.
<mgrwt>
<rscale>  2 0.40079194E+03</rscale>
<asrwt>0</asrwt>
<pdfrwt beam="1">  1       21 0.15916901E+00 0.40079194E+03</pdfrwt>
<pdfrwt beam="2">  1       21 0.63742619E-01 0.40079194E+03</pdfrwt>
<totfact> 0.49423619E+02</totfact>
</mgrwt>
</event>
<event>
 4    1  0.5013722E-002  0.4073679E+03  0.7818608E-02  0.1041258E+00
         21   -1    0    0  501  502  0.00000000000E+00  0.00000000000E+00  0.70528774212E+03  0.70528774212E+03  0.00000000000E+00 0.  1.
         21   -1    0    0  502  503 -0.00000000000E+00 -0.00000000000E+00 -0.11538838695E+04  0.11538838695E+04  0.00000000000E+00 0.  1.
    9000007    1    1    2  501    0 -0.58070526436E+01 -0.76908423197E+02  0.60511278127E+03  0.72945877572E+03  0.40000000000E+03 0.  1.
   -9000007    1    1    2    0  503  0.58070526436E+01  0.76908423197E+02 -0.10537089086E+04  0.11297128359E+04  0.40000000000E+03 0.  1.
<mgrwt>
<rscale>  2 0.40736793E+03</rscale>
<asrwt>0</asrwt>
<pdfrwt beam="1">  1       21 0.10850581E+00 0.40736793E+03</pdfrwt>
<pdfrwt beam="2">  1       21 0.17752059E+00 0.40736793E+03</pdfrwt>
<totfact> 0.10476807E+02</totfact>
</mgrwt>
</event>
<event>
 4    1  0.5013722E-002  0.4081490E+03  0.7818608E-02  0.1040994E+00
         21   -1    0    0  503  502  0.00000000000E+00  0.00000000000E+00  0.18940150099E+03  0.18940150099E+03  0.00000000000E+00 0. -1.
         21   -1    0    0  501  503 -0.00000000000E+00 -0.00000000000E+00 -0.89598666478E+03  0.89598666478E+03  0.00000000000E+00 0. -1.
    9000007    1    1    2  501    0  0.75765820480E+02  0.29070839732E+02 -0.42682632133E+03  0.59056437571E+03  0.40000000000E+03 0. -1.
   -9000007    1    1    2    0  502 -0.75765820480E+02 -0.29070839732E+02 -0.27975884247E+03  0.49482379007E+03  0.40000000000E+03 0. -1.
<mgrwt>
<rscale>  2 0.40814896E+03</rscale>
<asrwt>0</asrwt>
<pdfrwt beam="1">  1       21 0.29138692E-01 0.40814896E+03</pdfrwt>
<pdfrwt beam="2">  1       21 0.13784411E+00 0.40814896E+03</pdfrwt>
<totfact> 0.37046720E+03</totfact>
</mgrwt>
</event>
<event>
 4    1  0.5013722E-002  0.5321668E+03  0.7818608E-02  0.1005708E+00
         21   -1    0    0  501  502  0.00000000000E+00  0.00000000000E+00  0.63288240122E+03  0.63288240122E+03  0.00000000000E+00 0.  1.
         21   -1    0    0  502  503 -0.00000000000E+00 -0.00000000000E+00 -0.74417069055E+03  0.74417069055E+03  0.00000000000E+00 0.  1.
    9000007    1    1    2  501    0  0.80659359222E+02  0.34160727335E+03  0.37910350396E+03  0.65339186416E+03  0.40000000000E+03 0.  1.
   -9000007    1    1    2    0  503 -0.80659359222E+02 -0.34160727335E+03 -0.49039179328E+03  0.72366122761E+03  0.40000000000E+03 0.  1.
<mgrwt>
<rscale>  2 0.53216676E+03</rscale>
<asrwt>0</asrwt>
<pdfrwt beam="1">  1       21 0.97366524E-01 0.53216676E+03</pdfrwt>
<pdfrwt beam="2">  1       21 0.11448780E+00 0.53216676E+03</pdfrwt>
<totfact> 0.41730536E+02</totfact>
</mgrwt>
</event>
<event>
 4    1  0.5013722E-002  0.6131223E+03  0.7818608E-02  0.9878549E-01
         21   -1    0    0  501  502  0.00000000000E+00  0.00000000000E+00  0.24611291712E+04  0.24611291712E+04  0.00000000000E+00 0.  1.
         21   -1    0    0  502  503 -0.00000000000E+00 -0.00000000000E+00 -0.18076657865E+03  0.18076657865E+03  0.00000000000E+00 0.  1.
    9000007    1    1    2  501    0 -0.23661966598E+03 -0.39991256092E+03  0.16602881742E+04  0.17698801496E+04  0.40000000000E+03 0.  1.
   -9000007    1    1    2    0  503  0.23661966598E+03  0.39991256092E+03  0.62007441837E+03  0.87201560022E+03  0.40000000000E+03 0.  1.
<mgrwt>
<rscale>  2 0.61312227E+03</rscale>
<asrwt>0</asrwt>
<pdfrwt beam="1">  1       21 0.37863523E+00 0.61312227E+03</pdfrwt>
<pdfrwt beam="2">  1       21 0.27810245E-01 0.61312227E+03</pdfrwt>
<totfact> 0.10028242E+02</totfact>
</mgrwt>
</event>
<event>
 4    1  0.5013722E-002  0.4868257E+03  0.7818608E-02  0.1017276E+00
         21   -1    0    0  503  502  0.00000000000E+00  0.00000000000E+00  0.25044332818E+03  0.25044332818E+03  0.00000000000E+00 0.  1.
         21   -1    0    0  501  503 -0.00000000000E+00 -0.00000000000E+00 -0.20793291216E+04  0.20793291216E+04  0.00000000000E+00 0.  1.
    9000007    1    1    2  501    0  0.26878025729E+03 -0.68967164209E+02 -0.54561063358E+02  0.48987366339E+03  0.40000000000E+03 0.  1.
   -9000007    1    1    2    0  502 -0.26878025729E+03  0.68967164209E+02 -0.17743247301E+04  0.18398987864E+04  0.40000000000E+03 0.  1.
<mgrwt>
<rscale>  2 0.48682574E+03</rscale>
<asrwt>0</asrwt>
<pdfrwt beam="1">  1       21 0.38529742E-01 0.48682574E+03</pdfrwt>
<pdfrwt beam="2">  1       21 0.31989679E+00 0.48682574E+03</pdfrwt>
<totfact> 0.12846420E+02</totfact>
</mgrwt>
</event>
<event>
 4    1  0.5013722E-002  0.5778817E+03  0.7818608E-02  0.9952388E-01
         21   -1    0    0  503  502  0.00000000000E+00  0.00000000000E+00  0.18436165338E+03  0.18436165338E+03  0.00000000000E+00 0.  1.
         21   -1    0    0  501  503 -0.00000000000E+00 -0.00000000000E+00 -0.19098039569E+04  0.19098039569E+04  0.00000000000E+00 0.  1.
    9000007    1    1    2  501    0 -0.35380885754E+03  0.22083150876E+03 -0.62500539455E+03  0.85122206630E+03  0.40000000000E+03 0.  1.
   -9000007    1    1    2    0  502  0.35380885754E+03 -0.22083150876E+03 -0.11004369090E+04  0.12429435440E+04  0.40000000000E+03 0.  1.
<mgrwt>
<rscale>  2 0.57788170E+03</rscale>
<asrwt>0</asrwt>
<pdfrwt beam="1">  1       21 0.28363331E-01 0.57788170E+03</pdfrwt>
<pdfrwt beam="2">  1       21 0.29381599E+00 0.57788170E+03</pdfrwt>
<totfact> 0.32739162E+02</totfact>
</mgrwt>
</event>
<event>
 4    1  0.5013722E-002  0.4161617E+03  0.7818608E-02  0.1038323E+00
         21   -1    0    0  501  502  0.00000000000E+00  0.00000000000E+00  0.16675233822E+03  0.16675233822E+03  0.00000000000E+00 0.  1.
         21   -1    0    0  502  503 -0.00000000000E+00 -0.00000000000E+00 -0.15151746020E+04  0.15151746020E+04  0.00000000000E+00 0.  1.
    9000007    1    1    2  501    0 -0.36600049790E+02 -0.10886234726E+03 -0.20257520866E+03  0.46284693956E+03  0.40000000000E+03 0.  1.
   -9000007    1    1    2    0  503  0.36600049790E+02  0.10886234726E+03 -0.11458470551E+04  0.12190800007E+04  0.40000000000E+03 0.  1.
<mgrwt>
<rscale>  2 0.41616172E+03</rscale>
<asrwt>0</asrwt>
<pdfrwt beam="1">  1       21 0.25654206E-01 0.41616172E+03</pdfrwt>
<pdfrwt beam="2">  1       21 0.23310378E+00 0.41616172E+03</pdfrwt>
<totfact> 0.10146046E+03</totfact>
</mgrwt>
</event>
<event>
 4    1  0.5013722E-002  0.4273749E+03  0.7818608E-02  0.1034692E+00
         21   -1    0    0  503  502  0.00000000000E+00  0.00000000000E+00  0.15386626777E+04  0.15386626777E+04  0.00000000000E+00 0.  1.
         21   -1    0    0  501  503 -0.00000000000E+00 -0.00000000000E+00 -0.12686533547E+03  0.12686533547E+03  0.00000000000E+00 0.  1.
    9000007    1    1    2  501    0  0.38601363911E+02  0.14546210227E+03  0.91708416060E+03  0.10117769745E+04  0.40000000000E+03 0.  1.
   -9000007    1    1    2    0  502 -0.38601363911E+02 -0.14546210227E+03  0.49471318162E+03  0.65375103867E+03  0.40000000000E+03 0.  1.
<mgrwt>
<rscale>  2 0.42737488E+03</rscale>
<asrwt>0</asrwt>
<pdfrwt beam="1">  1       21 0.23671732E+00 0.42737488E+03</pdfrwt>
<pdfrwt beam="2">  1       21 0.19517745E-01 0.42737488E+03</pdfrwt>
<totfact> 0.16200158E+03</totfact>
</mgrwt>
</event>
<event>
 4    1  0.5013722E-002  0.4049961E+03  0.7818608E-02  0.1042063E+00
         21   -1    0    0  501  502  0.00000000000E+00  0.00000000000E+00  0.14284603902E+04  0.14284603902E+04  0.00000000000E+00 0. -1.
         21   -1    0    0  502  503 -0.00000000000E+00 -0.00000000000E+00 -0.24221539601E+03  0.24221539601E+03  0.00000000000E+00 0. -1.
    9000007    1    1    2  501    0  0.35142513759E+02  0.52790938152E+02  0.11989248399E+04  0.12654811935E+04  0.40000000000E+03 0. -1.
   -9000007    1    1    2    0  503 -0.35142513759E+02 -0.52790938152E+02 -0.12679845743E+02  0.40519459265E+03  0.40000000000E+03 0. -1.
<mgrwt>
<rscale>  2 0.40499615E+03</rscale>
<asrwt>0</asrwt>
<pdfrwt beam="1">  1       21 0.21976313E+00 0.40499615E+03</pdfrwt>
<pdfrwt beam="2">  1       21 0.37263908E-01 0.40499615E+03</pdfrwt>
<totfact> 0.58919975E+02</totfact>
</mgrwt>
</event>
<event>
 4    1  0.5013722E-002  0.4537694E+03  0.7818608E-02  0.1026604E+00
         21   -1    0    0  501  502  0.00000000000E+00  0.00000000000E+00  0.30678064650E+03  0.30678064650E+03  0.00000000000E+00 0. -1.
         21   -1    0    0  502  503 -0.00000000000E+00 -0.00000000000E+00 -0.77885904667E+03  0.77885904667E+03  0.00000000000E+00 0. -1.
    9000007    1    1    2  501    0  0.76731277783E+02 -0.20004750601E+03 -0.34211404548E+02  0.45505726437E+03  0.40000000000E+03 0. -1.
   -9000007    1    1    2    0  503 -0.76731277783E+02  0.20004750601E+03 -0.43786699562E+03  0.63058242880E+03  0.40000000000E+03 0. -1.
<mgrwt>
<rscale>  2 0.45376943E+03</rscale>
<asrwt>0</asrwt>
<pdfrwt beam="1">  1       21 0.47197023E-01 0.45376943E+03</pdfrwt>
<pdfrwt beam="2">  1       21 0.11982447E+00 0.45376943E+03</pdfrwt>
<totfact> 0.19556166E+03</totfact>
</mgrwt>
</event>
<event>
 4    1  0.5013722E-002  0.5874844E+03  0.7818608E-02  0.9931718E-01
         21   -1    0    0  501  502  0.00000000000E+00  0.00000000000E+00  0.22631440489E+04  0.22631440489E+04  0.00000000000E+00 0.  1.
         21   -1    0    0  502  503 -0.00000000000E+00 -0.00000000000E+00 -0.15327459411E+03  0.15327459411E+03  0.00000000000E+00 0.  1.
    9000007    1    1    2  501    0 -0.42389394269E+03 -0.73836372057E+02  0.96925086059E+03  0.11333953923E+04  0.40000000000E+03 0.  1.
   -9000007    1    1    2    0  503  0.42389394269E+03  0.73836372057E+02  0.11406185942E+04  0.12830232508E+04  0.40000000000E+03 0.  1.
<mgrwt>
<rscale>  2 0.58748437E+03</rscale>
<asrwt>0</asrwt>
<pdfrwt beam="1">  1       21 0.34817598E+00 0.58748437E+03</pdfrwt>
<pdfrwt beam="2">  1       21 0.23580708E-01 0.58748437E+03</pdfrwt>
<totfact> 0.21782102E+02</totfact>
</mgrwt>
</event>
<event>
 4    1  0.5013722E-002  0.4556384E+03  0.7818608E-02  0.1026054E+00
         21   -1    0    0  503  502  0.00000000000E+00  0.00000000000E+00  0.52034696615E+03  0.52034696615E+03  0.00000000000E+00 0. -1.
         21   -1    0    0  501  503 -0.00000000000E+00 -0.00000000000E+00 -0.47537404990E+03  0.47537404990E+03  0.00000000000E+00 0. -1.
    9000007    1    1    2  501    0 -0.21324924933E+03 -0.46163881269E+02 -0.17709901186E+03  0.48884599444E+03  0.40000000000E+03 0. -1.
   -9000007    1    1    2    0  502  0.21324924933E+03  0.46163881269E+02  0.22207192811E+03  0.50687502161E+03  0.40000000000E+03 0. -1.
<mgrwt>
<rscale>  2 0.45563839E+03</rscale>
<asrwt>0</asrwt>
<pdfrwt beam="1">  1       21 0.80053380E-01 0.45563839E+03</pdfrwt>
<pdfrwt beam="2">  1       21 0.73134469E-01 0.45563839E+03</pdfrwt>
<totfact> 0.19897674E+03</totfact>
</mgrwt>
</event>
<event>
 4    1  0.5013722E-002  0.4469668E+03  0.7818608E-02  0.1028630E+00
         21   -1    0    0  501  502  0.00000000000E+00  0.00000000000E+00  0.50839472830E+03  0.50839472830E+03  0.00000000000E+00 0.  1.
         21   -1    0    0  502  503 -0.00000000000E+00 -0.00000000000E+00 -0.51660731578E+03  0.51660731578E+03  0.00000000000E+00 0.  1.
    9000007    1    1    2  501    0 -0.13051019055E+03 -0.15081927232E+03 -0.25483544824E+03  0.51450993034E+03  0.40000000000E+03 0.  1.
   -9000007    1    1    2    0  503  0.13051019055E+03  0.15081927232E+03  0.24662286077E+03  0.51049211374E+03  0.40000000000E+03 0.  1.
<mgrwt>
<rscale>  2 0.44696685E+03</rscale>
<asrwt>0</asrwt>
<pdfrwt beam="1">  1       21 0.78214574E-01 0.44696685E+03</pdfrwt>
<pdfrwt beam="2">  1       21 0.79478048E-01 0.44696685E+03</pdfrwt>
<totfact> 0.17410529E+03</totfact>
</mgrwt>
</event>
<event>
 4    1  0.5013722E-002  0.4753020E+03  0.7818608E-02  0.1020434E+00
         21   -1    0    0  501  502  0.00000000000E+00  0.00000000000E+00  0.14103849120E+03  0.14103849120E+03  0.00000000000E+00 0. -1.
         21   -1    0    0  502  503 -0.00000000000E+00 -0.00000000000E+00 -0.22919456974E+04  0.22919456974E+04  0.00000000000E+00 0.  1.
    9000007    1    1    2  501    0  0.16409424997E+03  0.19744640516E+03 -0.40790142615E+03  0.62633503753E+03  0.40000000000E+03 0. -1.
   -9000007    1    1    2    0  503 -0.16409424997E+03 -0.19744640516E+03 -0.17430057800E+04  0.18066491511E+04  0.40000000000E+03 0.  1.
<mgrwt>
<rscale>  2 0.47530202E+03</rscale>
<asrwt>0</asrwt>
<pdfrwt beam="1">  1       21 0.21698229E-01 0.47530202E+03</pdfrwt>
<pdfrwt beam="2">  1       21 0.35260703E+00 0.47530202E+03</pdfrwt>
<totfact> 0.25503321E+02</totfact>
</mgrwt>
</event>
<event>
 4    1  0.5013722E-002  0.4793308E+03  0.7818608E-02  0.1019319E+00
         21   -1    0    0  503  502  0.00000000000E+00  0.00000000000E+00  0.14194945241E+04  0.14194945241E+04  0.00000000000E+00 0. -1.
         21   -1    0    0  501  503 -0.00000000000E+00 -0.00000000000E+00 -0.27580028256E+03  0.27580028256E+03  0.00000000000E+00 0. -1.
    9000007    1    1    2  501    0  0.93826792820E+02  0.24688977782E+03  0.27020465759E+02  0.48009179853E+03  0.40000000000E+03 0. -1.
   -9000007    1    1    2    0  502 -0.93826792820E+02 -0.24688977782E+03  0.11166737757E+04  0.12152030081E+04  0.40000000000E+03 0. -1.
<mgrwt>
<rscale>  2 0.47933081E+03</rscale>
<asrwt>0</asrwt>
<pdfrwt beam="1">  1       21 0.21838377E+00 0.47933081E+03</pdfrwt>
<pdfrwt beam="2">  1       21 0.42430814E-01 0.47933081E+03</pdfrwt>
<totfact> 0.44301191E+02</totfact>
</mgrwt>
</event>
<event>
 4    1  0.5013722E-002  0.1141623E+04  0.7818608E-02  0.9165547E-01
         21   -1    0    0  501  502  0.00000000000E+00  0.00000000000E+00  0.15721142976E+04  0.15721142976E+04  0.00000000000E+00 0.  1.
         21   -1    0    0  502  503 -0.00000000000E+00 -0.00000000000E+00 -0.84823981513E+03  0.84823981513E+03  0.00000000000E+00 0. -1.
    9000007    1    1    2  501    0  0.45457166937E+03 -0.96781590870E+03  0.54413556329E+03  0.12646685522E+04  0.40000000000E+03 0.  1.
   -9000007    1    1    2    0  503 -0.45457166937E+03  0.96781590870E+03  0.17973891918E+03  0.11556855605E+04  0.40000000000E+03 0. -1.
<mgrwt>
<rscale>  2 0.11416230E+04</rscale>
<asrwt>0</asrwt>
<pdfrwt beam="1">  1       21 0.24186374E+00 0.11416230E+04</pdfrwt>
<pdfrwt beam="2">  1       21 0.13049843E+00 0.11416230E+04</pdfrwt>
<totfact> 0.18380962E+01</totfact>
</mgrwt>
</event>
<event>
 4    1  0.5013722E-002  0.6393144E+03  0.7818608E-02  0.9827039E-01
         21   -1    0    0  501  502  0.00000000000E+00  0.00000000000E+00  0.28772688473E+03  0.28772688473E+03  0.00000000000E+00 0. -1.
         21   -1    0    0  502  503 -0.00000000000E+00 -0.00000000000E+00 -0.18912688457E+04  0.18912688457E+04  0.00000000000E+00 0. -1.
    9000007    1    1    2  501    0  0.34792277637E+03  0.35731307683E+03 -0.25821707635E+03  0.68949180685E+03  0.40000000000E+03 0. -1.
   -9000007    1    1    2    0  503 -0.34792277637E+03 -0.35731307683E+03 -0.13453248846E+04  0.14895039236E+04  0.40000000000E+03 0. -1.
<mgrwt>
<rscale>  2 0.63931439E+03</rscale>
<asrwt>0</asrwt>
<pdfrwt beam="1">  1       21 0.44265674E-01 0.63931439E+03</pdfrwt>
<pdfrwt beam="2">  1       21 0.29096444E+00 0.63931439E+03</pdfrwt>
<totfact> 0.13376511E+02</totfact>
</mgrwt>
</event>
<event>
 4    1  0.5013722E-002  0.4580801E+03  0.7818608E-02  0.1025340E+00
         21   -1    0    0  501  502  0.00000000000E+00  0.00000000000E+00  0.70886366418E+03  0.70886366418E+03  0.00000000000E+00 0. -1.
         21   -1    0    0  502  503 -0.00000000000E+00 -0.00000000000E+00 -0.30264725785E+03  0.30264725785E+03  0.00000000000E+00 0. -1.
    9000007    1    1    2  501    0 -0.78296135361E+02 -0.20906233868E+03  0.12826349039E+03  0.47569829644E+03  0.40000000000E+03 0. -1.
   -9000007    1    1    2    0  503  0.78296135361E+02  0.20906233868E+03  0.27795291594E+03  0.53581262559E+03  0.40000000000E+03 0. -1.
<mgrwt>
<rscale>  2 0.45808007E+03</rscale>
<asrwt>0</asrwt>
<pdfrwt beam="1">  1       21 0.10905595E+00 0.45808007E+03</pdfrwt>
<pdfrwt beam="2">  1       21 0.46561117E-01 0.45808007E+03</pdfrwt>
<totfact> 0.25430671E+03</totfact>
</mgrwt>
</event>
<event>
 4    1  0.5013722E-002  0.4753955E+03  0.7818608E-02  0.1020408E+00
         21   -1    0    0  501  502  0.00000000000E+00  0.00000000000E+00  0.10275129786E+04  0.10275129786E+04  0.00000000000E+00 0.  1.
         21   -1    0    0  502  503 -0.00000000000E+00 -0.00000000000E+00 -0.24015735862E+03  0.24015735862E+03  0.00000000000E+00 0.  1.
    9000007    1    1    2  501    0  0.11047479179E+03 -0.23194009271E+03  0.20981691754E+03  0.51963835993E+03  0.40000000000E+03 0.  1.
   -9000007    1    1    2    0  503 -0.11047479179E+03  0.23194009271E+03  0.57753870243E+03  0.74803197728E+03  0.40000000000E+03 0.  1.
<mgrwt>
<rscale>  2 0.47539551E+03</rscale>
<asrwt>0</asrwt>
<pdfrwt beam="1">  1       21 0.15807892E+00 0.47539551E+03</pdfrwt>
<pdfrwt beam="2">  1       21 0.36947286E-01 0.47539551E+03</pdfrwt>
<totfact> 0.15467283E+03</totfact>
</mgrwt>
</event>
<event>
 4    1  0.5013722E-002  0.4348234E+03  0.7818608E-02  0.1032347E+00
         21   -1    0    0  501  502  0.00000000000E+00  0.00000000000E+00  0.16235595026E+04  0.16235595026E+04  0.00000000000E+00 0.  1.
         21   -1    0    0  502  503 -0.00000000000E+00 -0.00000000000E+00 -0.42059151655E+03  0.42059151655E+03  0.00000000000E+00 0.  1.
    9000007    1    1    2  501    0  0.15225207070E+03 -0.76750764273E+02  0.14706187563E+04  0.15335549874E+04  0.40000000000E+03 0.  1.
   -9000007    1    1    2    0  503 -0.15225207070E+03  0.76750764273E+02 -0.26765077027E+03  0.51059603178E+03  0.40000000000E+03 0.  1.
<mgrwt>
<rscale>  2 0.43482338E+03</rscale>
<asrwt>0</asrwt>
<pdfrwt beam="1">  1       21 0.24977838E+00 0.43482338E+03</pdfrwt>
<pdfrwt beam="2">  1       21 0.64706388E-01 0.43482338E+03</pdfrwt>
<totfact> 0.11669820E+02</totfact>
</mgrwt>
</event>
<event>
 4    1  0.5013722E-002  0.6130224E+03  0.7818608E-02  0.9878751E-01
         21   -1    0    0  503  502  0.00000000000E+00  0.00000000000E+00  0.20671972497E+03  0.20671972497E+03  0.00000000000E+00 0. -1.
         21   -1    0    0  501  503 -0.00000000000E+00 -0.00000000000E+00 -0.18191325474E+04  0.18191325474E+04  0.00000000000E+00 0.  1.
    9000007    1    1    2  501    0 -0.14551783200E+03 -0.44115868463E+03 -0.83253965311E+03  0.10338852443E+04  0.40000000000E+03 0. -1.
   -9000007    1    1    2    0  502  0.14551783200E+03  0.44115868463E+03 -0.77987316928E+03  0.99196702799E+03  0.40000000000E+03 0. -1.
<mgrwt>
<rscale>  2 0.61302237E+03</rscale>
<asrwt>0</asrwt>
<pdfrwt beam="1">  1       21 0.31803035E-01 0.61302237E+03</pdfrwt>
<pdfrwt beam="2">  1       21 0.27986655E+00 0.61302237E+03</pdfrwt>
<totfact> 0.31206465E+02</totfact>
</mgrwt>
</event>
<event>
 4    1  0.5013722E-002  0.4157807E+03  0.7818608E-02  0.1038448E+00
         21   -1    0    0  503  502  0.00000000000E+00  0.00000000000E+00  0.77564411283E+03  0.77564411283E+03  0.00000000000E+00 0. -1.
         21   -1    0    0  501  503 -0.00000000000E+00 -0.00000000000E+00 -0.33887947391E+03  0.33887947391E+03  0.00000000000E+00 0. -1.
    9000007    1    1    2  501    0 -0.10357488549E+03 -0.46322813812E+02 -0.10765662052E+03  0.42949215118E+03  0.40000000000E+03 0. -1.
   -9000007    1    1    2    0  502  0.10357488549E+03  0.46322813812E+02  0.54442125944E+03  0.68503143556E+03  0.40000000000E+03 0. -1.
<mgrwt>
<rscale>  2 0.41578066E+03</rscale>
<asrwt>0</asrwt>
<pdfrwt beam="1">  1       21 0.11932986E+00 0.41578066E+03</pdfrwt>
<pdfrwt beam="2">  1       21 0.52135304E-01 0.41578066E+03</pdfrwt>
<totfact> 0.16245143E+03</totfact>
</mgrwt>
</event>
<event>
 4    1  0.5013722E-002  0.4641601E+03  0.7818608E-02  0.1023582E+00
         21   -1    0    0  503  502  0.00000000000E+00  0.00000000000E+00  0.57577592689E+03  0.57577592689E+03  0.00000000000E+00 0. -1.
         21   -1    0    0  501  503 -0.00000000000E+00 -0.00000000000E+00 -0.37465730750E+03  0.37465730750E+03  0.00000000000E+00 0.  1.
    9000007    1    1    2  501    0 -0.23784741100E+02  0.23426237818E+03  0.83620276587E+02  0.47163219398E+03  0.40000000000E+03 0.  1.
   -9000007    1    1    2    0  502  0.23784741100E+02 -0.23426237818E+03  0.11749834280E+03  0.47880104041E+03  0.40000000000E+03 0.  1.
<mgrwt>
<rscale>  2 0.46416008E+03</rscale>
<asrwt>0</asrwt>
<pdfrwt beam="1">  1       21 0.88580913E-01 0.46416008E+03</pdfrwt>
<pdfrwt beam="2">  1       21 0.57639585E-01 0.46416008E+03</pdfrwt>
<totfact> 0.26587095E+03</totfact>
</mgrwt>
</event>
<event>
 4    1  0.5013722E-002  0.4230031E+03  0.7818608E-02  0.1036093E+00
         21   -1    0    0  501  502  0.00000000000E+00  0.00000000000E+00  0.34591256272E+03  0.34591256272E+03  0.00000000000E+00 0. -1.
         21   -1    0    0  502  503 -0.00000000000E+00 -0.00000000000E+00 -0.81483110700E+03  0.81483110700E+03  0.00000000000E+00 0. -1.
    9000007    1    1    2  501    0 -0.17596593769E+02  0.13646231630E+03  0.11625838465E+03  0.43868851807E+03  0.40000000000E+03 0. -1.
   -9000007    1    1    2    0  503  0.17596593769E+02 -0.13646231630E+03 -0.58517692893E+03  0.72205515166E+03  0.40000000000E+03 0. -1.
<mgrwt>
<rscale>  2 0.42300308E+03</rscale>
<asrwt>0</asrwt>
<pdfrwt beam="1">  1       21 0.53217318E-01 0.42300308E+03</pdfrwt>
<pdfrwt beam="2">  1       21 0.12535863E+00 0.42300308E+03</pdfrwt>
<totfact> 0.13665626E+03</totfact>
</mgrwt>
</event>
<event>
 4    1  0.5013722E-002  0.4345810E+03  0.7818608E-02  0.1032423E+00
         21   -1    0    0  501  502  0.00000000000E+00  0.00000000000E+00  0.40260099423E+03  0.40260099423E+03  0.00000000000E+00 0. -1.
         21   -1    0    0  502  503 -0.00000000000E+00 -0.00000000000E+00 -0.47339558258E+03  0.47339558258E+03  0.00000000000E+00 0. -1.
    9000007    1    1    2  501    0  0.75999669024E+02 -0.15193636285E+03 -0.77114082206E+02  0.44136967468E+03  0.40000000000E+03 0. -1.
   -9000007    1    1    2    0  503 -0.75999669024E+02  0.15193636285E+03  0.63194938555E+01  0.43462690213E+03  0.40000000000E+03 0. -1.
<mgrwt>
<rscale>  2 0.43458096E+03</rscale>
<asrwt>0</asrwt>
<pdfrwt beam="1">  1       21 0.61938614E-01 0.43458096E+03</pdfrwt>
<pdfrwt beam="2">  1       21 0.72830090E-01 0.43458096E+03</pdfrwt>
<totfact> 0.36095272E+03</totfact>
</mgrwt>
</event>
<event>
 4    1  0.5013722E-002  0.4505434E+03  0.7818608E-02  0.1027560E+00
         21   -1    0    0  501  502  0.00000000000E+00  0.00000000000E+00  0.41234477209E+03  0.41234477209E+03  0.00000000000E+00 0.  1.
         21   -1    0    0  502  503 -0.00000000000E+00 -0.00000000000E+00 -0.13899748594E+04  0.13899748594E+04  0.00000000000E+00 0.  1.
    9000007    1    1    2  501    0 -0.30319399064E+02  0.20510991739E+03  0.23539169520E+03  0.50832921846E+03  0.40000000000E+03 0.  1.
   -9000007    1    1    2    0  503  0.30319399064E+02 -0.20510991739E+03 -0.12130217826E+04  0.12939904131E+04  0.40000000000E+03 0.  1.
<mgrwt>
<rscale>  2 0.45054339E+03</rscale>
<asrwt>0</asrwt>
<pdfrwt beam="1">  1       21 0.63437657E-01 0.45054339E+03</pdfrwt>
<pdfrwt beam="2">  1       21 0.21384229E+00 0.45054339E+03</pdfrwt>
<totfact> 0.20317182E+02</totfact>
</mgrwt>
</event>
<event>
 4    1  0.5013722E-002  0.4036804E+03  0.7818608E-02  0.1042513E+00
         21   -1    0    0  501  502  0.00000000000E+00  0.00000000000E+00  0.17342868427E+03  0.17342868427E+03  0.00000000000E+00 0.  1.
         21   -1    0    0  502  503 -0.00000000000E+00 -0.00000000000E+00 -0.10326403958E+04  0.10326403958E+04  0.00000000000E+00 0.  1.
    9000007    1    1    2  501    0  0.54360557981E+02  0.16747509388E+01 -0.24861953249E+03  0.47409866799E+03  0.40000000000E+03 0.  1.
   -9000007    1    1    2    0  503 -0.54360557981E+02 -0.16747509388E+01 -0.61059217909E+03  0.73197041212E+03  0.40000000000E+03 0.  1.
<mgrwt>
<rscale>  2 0.40368041E+03</rscale>
<asrwt>0</asrwt>
<pdfrwt beam="1">  1       21 0.26681337E-01 0.40368041E+03</pdfrwt>
<pdfrwt beam="2">  1       21 0.15886775E+00 0.40368041E+03</pdfrwt>
<totfact> 0.30090594E+03</totfact>
</mgrwt>
</event>
<event>
 4    1  0.5013722E-002  0.5390144E+03  0.7818608E-02  0.1004069E+00
         21   -1    0    0  501  502  0.00000000000E+00  0.00000000000E+00  0.59073190666E+03  0.59073190666E+03  0.00000000000E+00 0.  1.
         21   -1    0    0  502  503 -0.00000000000E+00 -0.00000000000E+00 -0.58746554998E+03  0.58746554998E+03  0.00000000000E+00 0. -1.
    9000007    1    1    2  501    0  0.10646656025E+03 -0.34525547891E+03  0.23932752935E+03  0.58975769641E+03  0.40000000000E+03 0.  1.
   -9000007    1    1    2    0  503 -0.10646656025E+03  0.34525547891E+03 -0.23606117267E+03  0.58843976022E+03  0.40000000000E+03 0. -1.
<mgrwt>
<rscale>  2 0.53901435E+03</rscale>
<asrwt>0</asrwt>
<pdfrwt beam="1">  1       21 0.90881832E-01 0.53901435E+03</pdfrwt>
<pdfrwt beam="2">  1       21 0.90379315E-01 0.53901435E+03</pdfrwt>
<totfact> 0.87666017E+02</totfact>
</mgrwt>
</event>
<event>
 4    1  0.5013722E-002  0.5005521E+03  0.7818608E-02  0.1013635E+00
         21   -1    0    0  501  502  0.00000000000E+00  0.00000000000E+00  0.12258965559E+04  0.12258965559E+04  0.00000000000E+00 0. -1.
         21   -1    0    0  502  503 -0.00000000000E+00 -0.00000000000E+00 -0.29002866218E+03  0.29002866218E+03  0.00000000000E+00 0.  1.
    9000007    1    1    2  501    0  0.53534655549E+02  0.29611905140E+03  0.87982269989E+03  0.10122452446E+04  0.40000000000E+03 0. -1.
   -9000007    1    1    2    0  503 -0.53534655549E+02 -0.29611905140E+03  0.56045193835E+02  0.50367997350E+03  0.40000000000E+03 0. -1.
<mgrwt>
<rscale>  2 0.50055215E+03</rscale>
<asrwt>0</asrwt>
<pdfrwt beam="1">  1       21 0.18859947E+00 0.50055215E+03</pdfrwt>
<pdfrwt beam="2">  1       21 0.44619795E-01 0.50055215E+03</pdfrwt>
<totfact> 0.62319070E+02</totfact>
</mgrwt>
</event>
<event>
 4    1  0.5013722E-002  0.4494963E+03  0.7818608E-02  0.1027872E+00
         21   -1    0    0  501  502  0.00000000000E+00  0.00000000000E+00  0.13033966285E+03  0.13033966285E+03  0.00000000000E+00 0. -1.
         21   -1    0    0  502  503 -0.00000000000E+00 -0.00000000000E+00 -0.16442719346E+04  0.16442719346E+04  0.00000000000E+00 0. -1.
    9000007    1    1    2  501    0 -0.14469621333E+03 -0.14529258512E+03 -0.54468276754E+03  0.70620552724E+03  0.40000000000E+03 0. -1.
   -9000007    1    1    2    0  503  0.14469621333E+03  0.14529258512E+03 -0.96924950421E+03  0.10684060702E+04  0.40000000000E+03 0. -1.
<mgrwt>
<rscale>  2 0.44949631E+03</rscale>
<asrwt>0</asrwt>
<pdfrwt beam="1">  1       21 0.20052256E-01 0.44949631E+03</pdfrwt>
<pdfrwt beam="2">  1       21 0.25296491E+00 0.44949631E+03</pdfrwt>
<totfact> 0.12086480E+03</totfact>
</mgrwt>
</event>
<event>
 4    1  0.5013722E-002  0.4214574E+03  0.7818608E-02  0.1036593E+00
         21   -1    0    0  501  502  0.00000000000E+00  0.00000000000E+00  0.72625969029E+03  0.72625969029E+03  0.00000000000E+00 0. -1.
         21   -1    0    0  502  503 -0.00000000000E+00 -0.00000000000E+00 -0.24850215247E+03  0.24850215247E+03  0.00000000000E+00 0.  1.
    9000007    1    1    2  501    0 -0.95495947683E+02 -0.92232436397E+02  0.30013364921E+03  0.51740361976E+03  0.40000000000E+03 0. -1.
   -9000007    1    1    2    0  503  0.95495947683E+02  0.92232436397E+02  0.17762388861E+03  0.45735822301E+03  0.40000000000E+03 0. -1.
<mgrwt>
<rscale>  2 0.42145735E+03</rscale>
<asrwt>0</asrwt>
<pdfrwt beam="1">  1       21 0.11173226E+00 0.42145735E+03</pdfrwt>
<pdfrwt beam="2">  1       21 0.38231101E-01 0.42145735E+03</pdfrwt>
<totfact> 0.36534849E+03</totfact>
</mgrwt>
</event>
<event>
 4    1  0.5013722E-002  0.4762557E+03  0.7818608E-02  0.1020169E+00
         21   -1    0    0  503  502  0.00000000000E+00  0.00000000000E+00  0.43601982106E+03  0.43601982106E+03  0.00000000000E+00 0. -1.
         21   -1    0    0  501  503 -0.00000000000E+00 -0.00000000000E+00 -0.52474297282E+03  0.52474297282E+03  0.00000000000E+00 0.  1.
    9000007    1    1    2  501    0  0.21715142373E+03  0.14023091885E+03 -0.89037145853E+02  0.48450703274E+03  0.40000000000E+03 0.  1.
   -9000007    1    1    2    0  502 -0.21715142373E+03 -0.14023091885E+03  0.31399409582E+00  0.47625576114E+03  0.40000000000E+03 0.  1.
<mgrwt>
<rscale>  2 0.47625566E+03</rscale>
<asrwt>0</asrwt>
<pdfrwt beam="1">  1       21 0.67079973E-01 0.47625566E+03</pdfrwt>
<pdfrwt beam="2">  1       21 0.80729688E-01 0.47625566E+03</pdfrwt>
<totfact> 0.23535663E+03</totfact>
</mgrwt>
</event>
<event>
 4    1  0.5013722E-002  0.4121027E+03  0.7818608E-02  0.1039668E+00
         21   -1    0    0  503  502  0.00000000000E+00  0.00000000000E+00  0.14875059361E+03  0.14875059361E+03  0.00000000000E+00 0. -1.
         21   -1    0    0  501  503 -0.00000000000E+00 -0.00000000000E+00 -0.27684123354E+04  0.27684123354E+04  0.00000000000E+00 0. -1.
    9000007    1    1    2  501    0 -0.78163284938E+02 -0.60984592815E+02 -0.24279050612E+04  0.24626310333E+04  0.40000000000E+03 0. -1.
   -9000007    1    1    2    0  502  0.78163284938E+02  0.60984592815E+02 -0.19175668050E+03  0.45453189568E+03  0.40000000000E+03 0. -1.
<mgrwt>
<rscale>  2 0.41210268E+03</rscale>
<asrwt>0</asrwt>
<pdfrwt beam="1">  1       21 0.22884708E-01 0.41210268E+03</pdfrwt>
<pdfrwt beam="2">  1       21 0.42590956E+00 0.41210268E+03</pdfrwt>
<totfact> 0.82305887E+01</totfact>
</mgrwt>
</event>
<event>
 4    1  0.5013722E-002  0.4431763E+03  0.7818608E-02  0.1029777E+00
         21   -1    0    0  503  502  0.00000000000E+00  0.00000000000E+00  0.66205066143E+03  0.66205066143E+03  0.00000000000E+00 0.  1.
         21   -1    0    0  501  503 -0.00000000000E+00 -0.00000000000E+00 -0.51849719553E+03  0.51849719553E+03  0.00000000000E+00 0.  1.
    9000007    1    1    2  501    0  0.13487041710E+03  0.13496372982E+03 -0.31431959714E+03  0.54332499199E+03  0.40000000000E+03 0.  1.
   -9000007    1    1    2    0  502 -0.13487041710E+03 -0.13496372982E+03  0.45787306304E+03  0.63722286497E+03  0.40000000000E+03 0.  1.
<mgrwt>
<rscale>  2 0.44317631E+03</rscale>
<asrwt>0</asrwt>
<pdfrwt beam="1">  1       21 0.10185395E+00 0.44317631E+03</pdfrwt>
<pdfrwt beam="2">  1       21 0.79768799E-01 0.44317631E+03</pdfrwt>
<totfact> 0.92580764E+02</totfact>
</mgrwt>
</event>
<event>
 4    1  0.5013722E-002  0.4535795E+03  0.7818608E-02  0.1026660E+00
         21   -1    0    0  503  502  0.00000000000E+00  0.00000000000E+00  0.14759611677E+03  0.14759611677E+03  0.00000000000E+00 0.  1.
         21   -1    0    0  501  503 -0.00000000000E+00 -0.00000000000E+00 -0.17726274887E+04  0.17726274887E+04  0.00000000000E+00 0. -1.
    9000007    1    1    2  501    0 -0.13817466267E+03 -0.16322421556E+03 -0.12563040198E+04  0.13356774207E+04  0.40000000000E+03 0. -1.
   -9000007    1    1    2    0  502  0.13817466267E+03  0.16322421556E+03 -0.36872735213E+03  0.58454618479E+03  0.40000000000E+03 0.  1.
<mgrwt>
<rscale>  2 0.45357952E+03</rscale>
<asrwt>0</asrwt>
<pdfrwt beam="1">  1       21 0.22707096E-01 0.45357952E+03</pdfrwt>
<pdfrwt beam="2">  1       21 0.27271191E+00 0.45357952E+03</pdfrwt>
<totfact> 0.72088342E+02</totfact>
</mgrwt>
</event>
<event>
 4    1  0.5013722E-002  0.6000618E+03  0.7818608E-02  0.9905278E-01
         21   -1    0    0  501  502  0.00000000000E+00  0.00000000000E+00  0.49984252378E+03  0.49984252378E+03  0.00000000000E+00 0.  1.
         21   -1    0    0  502  503 -0.00000000000E+00 -0.00000000000E+00 -0.91915726672E+03  0.91915726672E+03  0.00000000000E+00 0. -1.
    9000007    1    1    2  501    0 -0.40296588632E+02  0.44547761911E+03  0.12029108266E+03  0.61200005617E+03  0.40000000000E+03 0.  1.
   -9000007    1    1    2    0  503  0.40296588632E+02 -0.44547761911E+03 -0.53960582559E+03  0.80699973433E+03  0.40000000000E+03 0. -1.
<mgrwt>
<rscale>  2 0.60006177E+03</rscale>
<asrwt>0</asrwt>
<pdfrwt beam="1">  1       21 0.76898850E-01 0.60006177E+03</pdfrwt>
<pdfrwt beam="2">  1       21 0.14140881E+00 0.60006177E+03</pdfrwt>
<totfact> 0.41056003E+02</totfact>
</mgrwt>
</event>
<event>
 4    1  0.5013722E-002  0.4522266E+03  0.7818608E-02  0.1027060E+00
         21   -1    0    0  503  502  0.00000000000E+00  0.00000000000E+00  0.32605305468E+03  0.32605305468E+03  0.00000000000E+00 0. -1.
         21   -1    0    0  501  503 -0.00000000000E+00 -0.00000000000E+00 -0.22222139234E+04  0.22222139234E+04  0.00000000000E+00 0.  1.
    9000007    1    1    2  501    0 -0.13599178201E+03 -0.16129203719E+03 -0.20275259494E+04  0.20773469526E+04  0.40000000000E+03 0.  1.
   -9000007    1    1    2    0  502  0.13599178201E+03  0.16129203719E+03  0.13136508062E+03  0.47092002553E+03  0.40000000000E+03 0. -1.
<mgrwt>
<rscale>  2 0.45222659E+03</rscale>
<asrwt>0</asrwt>
<pdfrwt beam="1">  1       21 0.50162009E-01 0.45222659E+03</pdfrwt>
<pdfrwt beam="2">  1       21 0.34187906E+00 0.45222659E+03</pdfrwt>
<totfact> 0.55656422E+01</totfact>
</mgrwt>
</event>
<event>
 4    1  0.5013722E-002  0.4562182E+03  0.7818608E-02  0.1025884E+00
         21   -1    0    0  501  502  0.00000000000E+00  0.00000000000E+00  0.12390596724E+04  0.12390596724E+04  0.00000000000E+00 0. -1.
         21   -1    0    0  502  503 -0.00000000000E+00 -0.00000000000E+00 -0.36610127231E+03  0.36610127231E+03  0.00000000000E+00 0. -1.
    9000007    1    1    2  501    0  0.32039398919E+02 -0.21704488825E+03  0.10268916443E+04  0.11236731980E+04  0.40000000000E+03 0. -1.
   -9000007    1    1    2    0  503 -0.32039398919E+02  0.21704488825E+03 -0.15393324424E+03  0.48148774676E+03  0.40000000000E+03 0. -1.
<mgrwt>
<rscale>  2 0.45621816E+03</rscale>
<asrwt>0</asrwt>
<pdfrwt beam="1">  1       21 0.19062456E+00 0.45621816E+03</pdfrwt>
<pdfrwt beam="2">  1       21 0.56323273E-01 0.45621816E+03</pdfrwt>
<totfact> 0.37494523E+02</totfact>
</mgrwt>
</event>
<event>
 4    1  0.5013722E-002  0.4256869E+03  0.7818608E-02  0.1035231E+00
         21   -1    0    0  503  502  0.00000000000E+00  0.00000000000E+00  0.19665948685E+03  0.19665948685E+03  0.00000000000E+00 0.  1.
         21   -1    0    0  501  503 -0.00000000000E+00 -0.00000000000E+00 -0.10973249701E+04  0.10973249701E+04  0.00000000000E+00 0.  1.
    9000007    1    1    2  501    0  0.11441851305E+03  0.90098591588E+02 -0.70936231253E+03  0.82728727947E+03  0.40000000000E+03 0.  1.
   -9000007    1    1    2    0  502 -0.11441851305E+03 -0.90098591588E+02 -0.19130317071E+03  0.46669717747E+03  0.40000000000E+03 0.  1.
<mgrwt>
<rscale>  2 0.42568692E+03</rscale>
<asrwt>0</asrwt>
<pdfrwt beam="1">  1       21 0.30255306E-01 0.42568692E+03</pdfrwt>
<pdfrwt beam="2">  1       21 0.16881922E+00 0.42568692E+03</pdfrwt>
<totfact> 0.19624872E+03</totfact>
</mgrwt>
</event>
<event>
 4    1  0.5013722E-002  0.7819895E+03  0.7818608E-02  0.9586459E-01
         21   -1    0    0  501  502  0.00000000000E+00  0.00000000000E+00  0.13048532010E+04  0.13048532010E+04  0.00000000000E+00 0. -1.
         21   -1    0    0  502  503 -0.00000000000E+00 -0.00000000000E+00 -0.51561187336E+03  0.51561187336E+03  0.00000000000E+00 0.  1.
    9000007    1    1    2  501    0 -0.25215586030E+02 -0.67146978741E+03  0.11989074695E+03  0.79112659694E+03  0.40000000000E+03 0.  1.
   -9000007    1    1    2    0  503  0.25215586030E+02  0.67146978741E+03  0.66935058064E+03  0.10293384774E+04  0.40000000000E+03 0. -1.
<mgrwt>
<rscale>  2 0.78198945E+03</rscale>
<asrwt>0</asrwt>
<pdfrwt beam="1">  1       21 0.20074665E+00 0.78198945E+03</pdfrwt>
<pdfrwt beam="2">  1       21 0.79324904E-01 0.78198945E+03</pdfrwt>
<totfact> 0.13070354E+02</totfact>
</mgrwt>
</event>
<event>
 4    1  0.5013722E-002  0.4791165E+03  0.7818608E-02  0.1019378E+00
         21   -1    0    0  501  502  0.00000000000E+00  0.00000000000E+00  0.18531895811E+03  0.18531895811E+03  0.00000000000E+00 0. -1.
         21   -1    0    0  502  503 -0.00000000000E+00 -0.00000000000E+00 -0.12486505019E+04  0.12486505019E+04  0.00000000000E+00 0. -1.
    9000007    1    1    2  501    0  0.24121480881E+03  0.10662091274E+03 -0.46762652599E+03  0.66949770039E+03  0.40000000000E+03 0. -1.
   -9000007    1    1    2    0  503 -0.24121480881E+03 -0.10662091274E+03 -0.59570501781E+03  0.76447175963E+03  0.40000000000E+03 0. -1.
<mgrwt>
<rscale>  2 0.47911648E+03</rscale>
<asrwt>0</asrwt>
<pdfrwt beam="1">  1       21 0.28510608E-01 0.47911648E+03</pdfrwt>
<pdfrwt beam="2">  1       21 0.19210009E+00 0.47911648E+03</pdfrwt>
<totfact> 0.14798229E+03</totfact>
</mgrwt>
</event>
<event>
 4    1  0.5013722E-002  0.5191460E+03  0.7818608E-02  0.1008899E+00
         21   -1    0    0  503  502  0.00000000000E+00  0.00000000000E+00  0.16013488217E+04  0.16013488217E+04  0.00000000000E+00 0. -1.
         21   -1    0    0  501  503 -0.00000000000E+00 -0.00000000000E+00 -0.19156506694E+03  0.19156506694E+03  0.00000000000E+00 0. -1.
    9000007    1    1    2  501    0 -0.30562162338E+03 -0.12691732260E+03  0.39250633637E+03  0.65082548163E+03  0.40000000000E+03 0. -1.
   -9000007    1    1    2    0  502  0.30562162338E+03  0.12691732260E+03  0.10172774184E+04  0.11420884070E+04  0.40000000000E+03 0. -1.
<mgrwt>
<rscale>  2 0.51914601E+03</rscale>
<asrwt>0</asrwt>
<pdfrwt beam="1">  1       21 0.24636135E+00 0.51914601E+03</pdfrwt>
<pdfrwt beam="2">  1       21 0.29471550E-01 0.51914601E+03</pdfrwt>
<totfact> 0.60775952E+02</totfact>
</mgrwt>
</event>
<event>
 4    1  0.5013722E-002  0.5477109E+03  0.7818608E-02  0.1002025E+00
         21   -1    0    0  503  502  0.00000000000E+00  0.00000000000E+00  0.18757510883E+03  0.18757510883E+03  0.00000000000E+00 0. -1.
         21   -1    0    0  501  503 -0.00000000000E+00 -0.00000000000E+00 -0.22042976446E+04  0.22042976446E+04  0.00000000000E+00 0. -1.
    9000007    1    1    2  501    0  0.36745746865E+03 -0.70443181091E+02 -0.38181530656E+03  0.66766021399E+03  0.40000000000E+03 0. -1.
   -9000007    1    1    2    0  502 -0.36745746865E+03  0.70443181091E+02 -0.16349072292E+04  0.17242125394E+04  0.40000000000E+03 0. -1.
<mgrwt>
<rscale>  2 0.54771090E+03</rscale>
<asrwt>0</asrwt>
<pdfrwt beam="1">  1       21 0.28857709E-01 0.54771090E+03</pdfrwt>
<pdfrwt beam="2">  1       21 0.33912272E+00 0.54771090E+03</pdfrwt>
<totfact> 0.16996007E+02</totfact>
</mgrwt>
</event>
<event>
 4    1  0.5013722E-002  0.4004282E+03  0.7818608E-02  0.1043632E+00
         21   -1    0    0  501  502  0.00000000000E+00  0.00000000000E+00  0.31922429398E+03  0.31922429398E+03  0.00000000000E+00 0.  1.
         21   -1    0    0  502  503 -0.00000000000E+00 -0.00000000000E+00 -0.66260664141E+03  0.66260664141E+03  0.00000000000E+00 0.  1.
    9000007    1    1    2  501    0  0.15698511712E+02  0.98122745098E+01  0.69782629185E+02  0.40646320785E+03  0.40000000000E+03 0.  1.
   -9000007    1    1    2    0  503 -0.15698511712E+02 -0.98122745098E+01 -0.41316497661E+03  0.57536772755E+03  0.40000000000E+03 0.  1.
<mgrwt>
<rscale>  2 0.40042818E+03</rscale>
<asrwt>0</asrwt>
<pdfrwt beam="1">  1       21 0.49111430E-01 0.40042818E+03</pdfrwt>
<pdfrwt beam="2">  1       21 0.10193948E+00 0.40042818E+03</pdfrwt>
<totfact> 0.27426829E+03</totfact>
</mgrwt>
</event>
<event>
 4    1  0.5013722E-002  0.4069675E+03  0.7818608E-02  0.1041393E+00
         21   -1    0    0  503  502  0.00000000000E+00  0.00000000000E+00  0.91989442257E+03  0.91989442257E+03  0.00000000000E+00 0. -1.
         21   -1    0    0  501  503 -0.00000000000E+00 -0.00000000000E+00 -0.32459816166E+03  0.32459816166E+03  0.00000000000E+00 0. -1.
    9000007    1    1    2  501    0 -0.56375907848E+02  0.49439874364E+02 -0.11759536415E+03  0.42361682430E+03  0.40000000000E+03 0. -1.
   -9000007    1    1    2    0  502  0.56375907848E+02 -0.49439874364E+02  0.71289162506E+03  0.82087575993E+03  0.40000000000E+03 0. -1.
<mgrwt>
<rscale>  2 0.40696750E+03</rscale>
<asrwt>0</asrwt>
<pdfrwt beam="1">  1       21 0.14152222E+00 0.40696750E+03</pdfrwt>
<pdfrwt beam="2">  1       21 0.49938179E-01 0.40696750E+03</pdfrwt>
<totfact> 0.11487899E+03</totfact>
</mgrwt>
</event>
<event>
 4    1  0.5013722E-002  0.4164472E+03  0.7818608E-02  0.1038229E+00
         21   -1    0    0  503  502  0.00000000000E+00  0.00000000000E+00  0.26021629174E+04  0.26021629174E+04  0.00000000000E+00 0.  1.
         21   -1    0    0  501  503 -0.00000000000E+00 -0.00000000000E+00 -0.62714518060E+03  0.62714518060E+03  0.00000000000E+00 0.  1.
    9000007    1    1    2  501    0  0.10924659993E+02 -0.11536426687E+03 -0.53893999749E+03  0.68109073049E+03  0.40000000000E+03 0.  1.
   -9000007    1    1    2    0  502 -0.10924659993E+02  0.11536426687E+03  0.25139577343E+04  0.25482173675E+04  0.40000000000E+03 0.  1.
<mgrwt>
<rscale>  2 0.41644719E+03</rscale>
<asrwt>0</asrwt>
<pdfrwt beam="1">  1       21 0.40033275E+00 0.41644719E+03</pdfrwt>
<pdfrwt beam="2">  1       21 0.96483875E-01 0.41644719E+03</pdfrwt>
<totfact> 0.56641266E+00</totfact>
</mgrwt>
</event>
<event>
 4    1  0.5013722E-002  0.4203098E+03  0.7818608E-02  0.1036966E+00
         21   -1    0    0  501  502  0.00000000000E+00  0.00000000000E+00  0.38227607223E+03  0.38227607223E+03  0.00000000000E+00 0. -1.
         21   -1    0    0  502  503 -0.00000000000E+00 -0.00000000000E+00 -0.50477142098E+03  0.50477142098E+03  0.00000000000E+00 0. -1.
    9000007    1    1    2  501    0  0.99757477107E+02  0.81907174123E+02 -0.19016086159E+03  0.46132579886E+03  0.40000000000E+03 0. -1.
   -9000007    1    1    2    0  503 -0.99757477107E+02 -0.81907174123E+02  0.67665512839E+02  0.42572169435E+03  0.40000000000E+03 0. -1.
<mgrwt>
<rscale>  2 0.42030981E+03</rscale>
<asrwt>0</asrwt>
<pdfrwt beam="1">  1       21 0.58811704E-01 0.42030981E+03</pdfrwt>
<pdfrwt beam="2">  1       21 0.77657141E-01 0.42030981E+03</pdfrwt>
<totfact> 0.35112809E+03</totfact>
</mgrwt>
</event>
<event>
 4    1  0.5013722E-002  0.4401316E+03  0.7818608E-02  0.1030706E+00
         21   -1    0    0  503  502  0.00000000000E+00  0.00000000000E+00  0.15496368499E+03  0.15496368499E+03  0.00000000000E+00 0. -1.
         21   -1    0    0  501  503 -0.00000000000E+00 -0.00000000000E+00 -0.18290984625E+04  0.18290984625E+04  0.00000000000E+00 0. -1.
    9000007    1    1    2  501    0 -0.17834740801E+03  0.43681285050E+02 -0.13952235516E+04  0.14629985001E+04  0.40000000000E+03 0. -1.
   -9000007    1    1    2    0  502  0.17834740801E+03 -0.43681285050E+02 -0.27891122594E+03  0.52106364732E+03  0.40000000000E+03 0. -1.
<mgrwt>
<rscale>  2 0.44013163E+03</rscale>
<asrwt>0</asrwt>
<pdfrwt beam="1">  1       21 0.23840567E-01 0.44013163E+03</pdfrwt>
<pdfrwt beam="2">  1       21 0.28139976E+00 0.44013163E+03</pdfrwt>
<totfact> 0.58584057E+02</totfact>
</mgrwt>
</event>
<event>
 4    1  0.5013722E-002  0.5000400E+03  0.7818608E-02  0.1013768E+00
         21   -1    0    0  503  502  0.00000000000E+00  0.00000000000E+00  0.58445233328E+03  0.58445233328E+03  0.00000000000E+00 0. -1.
         21   -1    0    0  501  503 -0.00000000000E+00 -0.00000000000E+00 -0.51544016542E+03  0.51544016542E+03  0.00000000000E+00 0.  1.
    9000007    1    1    2  501    0  0.14166871631E+03  0.26451832102E+03 -0.19223748225E+03  0.53571934529E+03  0.40000000000E+03 0.  1.
   -9000007    1    1    2    0  502 -0.14166871631E+03 -0.26451832102E+03  0.26124965011E+03  0.56417315340E+03  0.40000000000E+03 0.  1.
<mgrwt>
<rscale>  2 0.50003997E+03</rscale>
<asrwt>0</asrwt>
<pdfrwt beam="1">  1       21 0.89915743E-01 0.50003997E+03</pdfrwt>
<pdfrwt beam="2">  1       21 0.79298487E-01 0.50003997E+03</pdfrwt>
<totfact> 0.12389195E+03</totfact>
</mgrwt>
</event>
<event>
 4    1  0.5013722E-002  0.4195136E+03  0.7818608E-02  0.1037225E+00
         21   -1    0    0  501  502  0.00000000000E+00  0.00000000000E+00  0.50461388497E+03  0.50461388497E+03  0.00000000000E+00 0. -1.
         21   -1    0    0  502  503 -0.00000000000E+00 -0.00000000000E+00 -0.35171710563E+03  0.35171710563E+03  0.00000000000E+00 0. -1.
    9000007    1    1    2  501    0  0.11841637847E+03 -0.44375881341E+02  0.37221718166E+02  0.42116162437E+03  0.40000000000E+03 0.  1.
   -9000007    1    1    2    0  503 -0.11841637847E+03  0.44375881341E+02  0.11567506118E+03  0.43516936624E+03  0.40000000000E+03 0.  1.
<mgrwt>
<rscale>  2 0.41951360E+03</rscale>
<asrwt>0</asrwt>
<pdfrwt beam="1">  1       21 0.77632906E-01 0.41951360E+03</pdfrwt>
<pdfrwt beam="2">  1       21 0.54110324E-01 0.41951360E+03</pdfrwt>
<totfact> 0.42095702E+03</totfact>
</mgrwt>
</event>
<event>
 4    1  0.5013722E-002  0.4310087E+03  0.7818608E-02  0.1033542E+00
         21   -1    0    0  501  502  0.00000000000E+00  0.00000000000E+00  0.19311584961E+04  0.19311584961E+04  0.00000000000E+00 0. -1.
         21   -1    0    0  502  503 -0.00000000000E+00 -0.00000000000E+00 -0.11816387220E+03  0.11816387220E+03  0.00000000000E+00 0. -1.
    9000007    1    1    2  501    0  0.16026096494E+03  0.92172710201E+01  0.13483098167E+04  0.14155238948E+04  0.40000000000E+03 0. -1.
   -9000007    1    1    2    0  503 -0.16026096494E+03 -0.92172710201E+01  0.46468480723E+03  0.63379847352E+03  0.40000000000E+03 0. -1.
<mgrwt>
<rscale>  2 0.43100874E+03</rscale>
<asrwt>0</asrwt>
<pdfrwt beam="1">  1       21 0.29710129E+00 0.43100874E+03</pdfrwt>
<pdfrwt beam="2">  1       21 0.18179059E-01 0.43100874E+03</pdfrwt>
<totfact> 0.79528402E+02</totfact>
</mgrwt>
</event>
<event>
 4    1  0.5013722E-002  0.4156173E+03  0.7818608E-02  0.1038502E+00
         21   -1    0    0  503  502  0.00000000000E+00  0.00000000000E+00  0.84173631339E+03  0.84173631339E+03  0.00000000000E+00 0.  1.
         21   -1    0    0  501  503 -0.00000000000E+00 -0.00000000000E+00 -0.23208745416E+03  0.23208745416E+03  0.00000000000E+00 0.  1.
    9000007    1    1    2  501    0  0.33340944892E+02 -0.10782460349E+03  0.12213108518E+03  0.43319021883E+03  0.40000000000E+03 0. -1.
   -9000007    1    1    2    0  502 -0.33340944892E+02  0.10782460349E+03  0.48751777405E+03  0.64063354872E+03  0.40000000000E+03 0. -1.
<mgrwt>
<rscale>  2 0.41561733E+03</rscale>
<asrwt>0</asrwt>
<pdfrwt beam="1">  1       21 0.12949789E+00 0.41561733E+03</pdfrwt>
<pdfrwt beam="2">  1       21 0.35705763E-01 0.41561733E+03</pdfrwt>
<totfact> 0.28946265E+03</totfact>
</mgrwt>
</event>
<event>
 4    1  0.5013722E-002  0.4607289E+03  0.7818608E-02  0.1024570E+00
         21   -1    0    0  501  502  0.00000000000E+00  0.00000000000E+00  0.37217269457E+03  0.37217269457E+03  0.00000000000E+00 0. -1.
         21   -1    0    0  502  503 -0.00000000000E+00 -0.00000000000E+00 -0.57753249050E+03  0.57753249050E+03  0.00000000000E+00 0. -1.
    9000007    1    1    2  501    0 -0.17309365887E+03  0.14936431168E+03 -0.49748692562E+02  0.46340699688E+03  0.40000000000E+03 0. -1.
   -9000007    1    1    2    0  503  0.17309365887E+03 -0.14936431168E+03 -0.15561110336E+03  0.48629818819E+03  0.40000000000E+03 0. -1.
<mgrwt>
<rscale>  2 0.46072889E+03</rscale>
<asrwt>0</asrwt>
<pdfrwt beam="1">  1       21 0.57257338E-01 0.46072889E+03</pdfrwt>
<pdfrwt beam="2">  1       21 0.88851152E-01 0.46072889E+03</pdfrwt>
<totfact> 0.26814001E+03</totfact>
</mgrwt>
</event>
<event>
 4    1  0.5013722E-002  0.5036122E+03  0.7818608E-02  0.1012840E+00
         21   -1    0    0  503  502  0.00000000000E+00  0.00000000000E+00  0.67628955408E+03  0.67628955408E+03  0.00000000000E+00 0. -1.
         21   -1    0    0  501  503 -0.00000000000E+00 -0.00000000000E+00 -0.40121941396E+03  0.40121941396E+03  0.00000000000E+00 0. -1.
    9000007    1    1    2  501    0  0.30281322207E+03 -0.43925197368E+02 -0.12467570955E+00  0.50361223770E+03  0.40000000000E+03 0. -1.
   -9000007    1    1    2    0  502 -0.30281322207E+03  0.43925197368E+02  0.27519481583E+03  0.57389673033E+03  0.40000000000E+03 0. -1.
<mgrwt>
<rscale>  2 0.50361222E+03</rscale>
<asrwt>0</asrwt>
<pdfrwt beam="1">  1       21 0.10404455E+00 0.50361222E+03</pdfrwt>
<pdfrwt beam="2">  1       21 0.61726064E-01 0.50361222E+03</pdfrwt>
<totfact> 0.15311101E+03</totfact>
</mgrwt>
</event>
<event>
 4    1  0.5013722E-002  0.5613784E+03  0.7818608E-02  0.9988941E-01
         21   -1    0    0  501  502  0.00000000000E+00  0.00000000000E+00  0.44738444332E+03  0.44738444332E+03  0.00000000000E+00 0. -1.
         21   -1    0    0  502  503 -0.00000000000E+00 -0.00000000000E+00 -0.79379077888E+03  0.79379077888E+03  0.00000000000E+00 0. -1.
    9000007    1    1    2  501    0  0.18828458172E+03 -0.34596913486E+03 -0.38143749346E+03  0.67870486031E+03  0.40000000000E+03 0. -1.
   -9000007    1    1    2    0  503 -0.18828458172E+03  0.34596913486E+03  0.35031157897E+02  0.56247036190E+03  0.40000000000E+03 0. -1.
<mgrwt>
<rscale>  2 0.56137842E+03</rscale>
<asrwt>0</asrwt>
<pdfrwt beam="1">  1       21 0.68828376E-01 0.56137842E+03</pdfrwt>
<pdfrwt beam="2">  1       21 0.12212166E+00 0.56137842E+03</pdfrwt>
<totfact> 0.78757528E+02</totfact>
</mgrwt>
</event>
<event>
 4    1  0.5013722E-002  0.4621320E+03  0.7818608E-02  0.1024165E+00
         21   -1    0    0  503  502  0.00000000000E+00  0.00000000000E+00  0.17059181816E+03  0.17059181816E+03  0.00000000000E+00 0. -1.
         21   -1    0    0  501  503 -0.00000000000E+00 -0.00000000000E+00 -0.17967879288E+04  0.17967879288E+04  0.00000000000E+00 0. -1.
    9000007    1    1    2  501    0  0.12528452839E+03 -0.19460147615E+03 -0.13547977532E+04  0.14314478334E+04  0.40000000000E+03 0. -1.
   -9000007    1    1    2    0  502 -0.12528452839E+03  0.19460147615E+03 -0.27139835741E+03  0.53593191356E+03  0.40000000000E+03 0. -1.
<mgrwt>
<rscale>  2 0.46213196E+03</rscale>
<asrwt>0</asrwt>
<pdfrwt beam="1">  1       21 0.26244895E-01 0.46213196E+03</pdfrwt>
<pdfrwt beam="2">  1       21 0.27642891E+00 0.46213196E+03</pdfrwt>
<totfact> 0.51440561E+02</totfact>
</mgrwt>
</event>
<event>
 4    1  0.5013722E-002  0.4345380E+03  0.7818608E-02  0.1032436E+00
         21   -1    0    0  503  502  0.00000000000E+00  0.00000000000E+00  0.33722857160E+03  0.33722857160E+03  0.00000000000E+00 0. -1.
         21   -1    0    0  501  503 -0.00000000000E+00 -0.00000000000E+00 -0.14445748171E+04  0.14445748171E+04  0.00000000000E+00 0.  1.
    9000007    1    1    2  501    0 -0.13408758996E+03  0.10413337764E+03 -0.12508533673E+04  0.13241817808E+04  0.40000000000E+03 0.  1.
   -9000007    1    1    2    0  502  0.13408758996E+03 -0.10413337764E+03  0.14350712171E+03  0.45762160799E+03  0.40000000000E+03 0. -1.
<mgrwt>
<rscale>  2 0.43453796E+03</rscale>
<asrwt>0</asrwt>
<pdfrwt beam="1">  1       21 0.51881320E-01 0.43453796E+03</pdfrwt>
<pdfrwt beam="2">  1       21 0.22224227E+00 0.43453796E+03</pdfrwt>
<totfact> 0.28033789E+02</totfact>
</mgrwt>
</event>
<event>
 4    1  0.5013722E-002  0.4180933E+03  0.7818608E-02  0.1037689E+00
         21   -1    0    0  501  502  0.00000000000E+00  0.00000000000E+00  0.34656948967E+03  0.34656948967E+03  0.00000000000E+00 0. -1.
         21   -1    0    0  502  503 -0.00000000000E+00 -0.00000000000E+00 -0.65083188901E+03  0.65083188901E+03  0.00000000000E+00 0. -1.
    9000007    1    1    2  501    0 -0.46792284513E+02 -0.11230535684E+03  0.84436842126E+02  0.42653439647E+03  0.40000000000E+03 0. -1.
   -9000007    1    1    2    0  503  0.46792284513E+02  0.11230535684E+03 -0.38869924146E+03  0.57086698221E+03  0.40000000000E+03 0. -1.
<mgrwt>
<rscale>  2 0.41809330E+03</rscale>
<asrwt>0</asrwt>
<pdfrwt beam="1">  1       21 0.53318383E-01 0.41809330E+03</pdfrwt>
<pdfrwt beam="2">  1       21 0.10012798E+00 0.41809330E+03</pdfrwt>
<totfact> 0.23877609E+03</totfact>
</mgrwt>
</event>
<event>
 4    1  0.5013722E-002  0.4218156E+03  0.7818608E-02  0.1036477E+00
         21   -1    0    0  501  502  0.00000000000E+00  0.00000000000E+00  0.16267058813E+04  0.16267058813E+04  0.00000000000E+00 0. -1.
         21   -1    0    0  502  503 -0.00000000000E+00 -0.00000000000E+00 -0.17096349136E+03  0.17096349136E+03  0.00000000000E+00 0. -1.
    9000007    1    1    2  501    0 -0.14878592448E+02  0.13306761452E+03  0.12673344434E+04  0.13356889436E+04  0.40000000000E+03 0. -1.
   -9000007    1    1    2    0  503  0.14878592448E+02 -0.13306761452E+03  0.18840794654E+03  0.46198042910E+03  0.40000000000E+03 0. -1.
<mgrwt>
<rscale>  2 0.42181556E+03</rscale>
<asrwt>0</asrwt>
<pdfrwt beam="1">  1       21 0.25026243E+00 0.42181556E+03</pdfrwt>
<pdfrwt beam="2">  1       21 0.26302077E-01 0.42181556E+03</pdfrwt>
<totfact> 0.75486165E+02</totfact>
</mgrwt>
</event>
<event>
 4    1  0.5013722E-002  0.4363207E+03  0.7818608E-02  0.1031882E+00
         21   -1    0    0  501  502  0.00000000000E+00  0.00000000000E+00  0.91059162393E+03  0.91059162393E+03  0.00000000000E+00 0.  1.
         21   -1    0    0  502  503 -0.00000000000E+00 -0.00000000000E+00 -0.34206656210E+03  0.34206656210E+03  0.00000000000E+00 0.  1.
    9000007    1    1    2  501    0 -0.13013097134E+03  0.11593836419E+03  0.67480689972E+03  0.80357957036E+03  0.40000000000E+03 0.  1.
   -9000007    1    1    2    0  503  0.13013097134E+03 -0.11593836419E+03 -0.10628183789E+03  0.44907861568E+03  0.40000000000E+03 0.  1.
<mgrwt>
<rscale>  2 0.43632072E+03</rscale>
<asrwt>0</asrwt>
<pdfrwt beam="1">  1       21 0.14009102E+00 0.43632072E+03</pdfrwt>
<pdfrwt beam="2">  1       21 0.52625625E-01 0.43632072E+03</pdfrwt>
<totfact> 0.10416711E+03</totfact>
</mgrwt>
</event>
<event>
 4    1  0.5013722E-002  0.4310934E+03  0.7818608E-02  0.1033515E+00
         21   -1    0    0  503  502  0.00000000000E+00  0.00000000000E+00  0.15929475702E+03  0.15929475702E+03  0.00000000000E+00 0.  1.
         21   -1    0    0  501  503 -0.00000000000E+00 -0.00000000000E+00 -0.14650083149E+04  0.14650083149E+04  0.00000000000E+00 0.  1.
    9000007    1    1    2  501    0 -0.12515868216E+03 -0.10088039503E+03 -0.10193657665E+04  0.11067737419E+04  0.40000000000E+03 0.  1.
   -9000007    1    1    2    0  502  0.12515868216E+03  0.10088039503E+03 -0.28634779141E+03  0.51752933006E+03  0.40000000000E+03 0.  1.
<mgrwt>
<rscale>  2 0.43109344E+03</rscale>
<asrwt>0</asrwt>
<pdfrwt beam="1">  1       21 0.24506886E-01 0.43109344E+03</pdfrwt>
<pdfrwt beam="2">  1       21 0.22538590E+00 0.43109344E+03</pdfrwt>
<totfact> 0.12307204E+03</totfact>
</mgrwt>
</event>
<event>
 4    1  0.5013722E-002  0.7919671E+03  0.7818608E-02  0.9571718E-01
         21   -1    0    0  501  502  0.00000000000E+00  0.00000000000E+00  0.40122407675E+03  0.40122407675E+03  0.00000000000E+00 0. -1.
         21   -1    0    0  502  503 -0.00000000000E+00 -0.00000000000E+00 -0.16640056560E+04  0.16640056560E+04  0.00000000000E+00 0.  1.
    9000007    1    1    2  501    0  0.48156110789E+03  0.48508848263E+03 -0.88549057205E+03  0.11879837919E+04  0.40000000000E+03 0. -1.
   -9000007    1    1    2    0  503 -0.48156110789E+03 -0.48508848263E+03 -0.37729100718E+03  0.87724594084E+03  0.40000000000E+03 0.  1.
<mgrwt>
<rscale>  2 0.79196713E+03</rscale>
<asrwt>0</asrwt>
<pdfrwt beam="1">  1       21 0.61726781E-01 0.79196713E+03</pdfrwt>
<pdfrwt beam="2">  1       21 0.25600087E+00 0.79196713E+03</pdfrwt>
<totfact> 0.10118923E+02</totfact>
</mgrwt>
</event>
<event>
 4    1  0.5013722E-002  0.4269205E+03  0.7818608E-02  0.1034837E+00
         21   -1    0    0  503  502  0.00000000000E+00  0.00000000000E+00  0.14688321498E+04  0.14688321498E+04  0.00000000000E+00 0. -1.
         21   -1    0    0  501  503 -0.00000000000E+00 -0.00000000000E+00 -0.12710735155E+03  0.12710735155E+03  0.00000000000E+00 0. -1.
    9000007    1    1    2  501    0 -0.14918963922E+03 -0.18903250654E+01  0.79389509203E+03  0.90140475866E+03  0.40000000000E+03 0. -1.
   -9000007    1    1    2    0  502  0.14918963922E+03  0.18903250654E+01  0.54782970621E+03  0.69453474268E+03  0.40000000000E+03 0. -1.
<mgrwt>
<rscale>  2 0.42692051E+03</rscale>
<asrwt>0</asrwt>
<pdfrwt beam="1">  1       21 0.22597416E+00 0.42692051E+03</pdfrwt>
<pdfrwt beam="2">  1       21 0.19554978E-01 0.42692051E+03</pdfrwt>
<totfact> 0.18852658E+03</totfact>
</mgrwt>
</event>
<event>
 4    1  0.5013722E-002  0.5199686E+03  0.7818608E-02  0.1008694E+00
         21   -1    0    0  501  502  0.00000000000E+00  0.00000000000E+00  0.63574523285E+03  0.63574523285E+03  0.00000000000E+00 0. -1.
         21   -1    0    0  502  503 -0.00000000000E+00 -0.00000000000E+00 -0.44050795629E+03  0.44050795629E+03  0.00000000000E+00 0. -1.
    9000007    1    1    2  501    0 -0.23984877769E+03  0.22986938066E+03  0.19768345698E+03  0.55627881272E+03  0.40000000000E+03 0. -1.
   -9000007    1    1    2    0  503  0.23984877769E+03 -0.22986938066E+03 -0.24461804219E+01  0.51997437641E+03  0.40000000000E+03 0. -1.
<mgrwt>
<rscale>  2 0.51996862E+03</rscale>
<asrwt>0</asrwt>
<pdfrwt beam="1">  1       21 0.97806959E-01 0.51996862E+03</pdfrwt>
<pdfrwt beam="2">  1       21 0.67770455E-01 0.51996862E+03</pdfrwt>
<totfact> 0.14384945E+03</totfact>
</mgrwt>
</event>
<event>
 4    1  0.5013722E-002  0.4454655E+03  0.7818608E-02  0.1029083E+00
         21   -1    0    0  503  502  0.00000000000E+00  0.00000000000E+00  0.12673995357E+04  0.12673995357E+04  0.00000000000E+00 0. -1.
         21   -1    0    0  501  503 -0.00000000000E+00 -0.00000000000E+00 -0.17966542965E+03  0.17966542965E+03  0.00000000000E+00 0.  1.
    9000007    1    1    2  501    0 -0.19577574183E+03  0.10553307238E+02  0.28446807529E+03  0.52854668596E+03  0.40000000000E+03 0.  1.
   -9000007    1    1    2    0  502  0.19577574183E+03 -0.10553307238E+02  0.80326603074E+03  0.91851827936E+03  0.40000000000E+03 0.  1.
<mgrwt>
<rscale>  2 0.44546550E+03</rscale>
<asrwt>0</asrwt>
<pdfrwt beam="1">  1       21 0.19498454E+00 0.44546550E+03</pdfrwt>
<pdfrwt beam="2">  1       21 0.27640836E-01 0.44546550E+03</pdfrwt>
<totfact> 0.15254246E+03</totfact>
</mgrwt>
</event>
<event>
 4    1  0.5013722E-002  0.8710521E+03  0.7818608E-02  0.9462509E-01
         21   -1    0    0  503  502  0.00000000000E+00  0.00000000000E+00  0.35117809747E+03  0.35117809747E+03  0.00000000000E+00 0.  1.
         21   -1    0    0  501  503 -0.00000000000E+00 -0.00000000000E+00 -0.21995065438E+04  0.21995065438E+04  0.00000000000E+00 0. -1.
    9000007    1    1    2  501    0  0.97679137955E+02 -0.76758752764E+03 -0.10939298476E+04  0.13983613046E+04  0.40000000000E+03 0. -1.
   -9000007    1    1    2    0  502 -0.97679137955E+02  0.76758752764E+03 -0.75439859872E+03  0.11523233367E+04  0.40000000000E+03 0.  1.
<mgrwt>
<rscale>  2 0.87105214E+03</rscale>
<asrwt>0</asrwt>
<pdfrwt beam="1">  1       21 0.54027400E-01 0.87105214E+03</pdfrwt>
<pdfrwt beam="2">  1       21 0.33838562E+00 0.87105214E+03</pdfrwt>
<totfact> 0.40780348E+01</totfact>
</mgrwt>
</event>
<event>
 4    1  0.5013722E-002  0.4739118E+03  0.7818608E-02  0.1020822E+00
         21   -1    0    0  503  502  0.00000000000E+00  0.00000000000E+00  0.23680680396E+04  0.23680680396E+04  0.00000000000E+00 0.  1.
         21   -1    0    0  501  503 -0.00000000000E+00 -0.00000000000E+00 -0.17107892263E+03  0.17107892263E+03  0.00000000000E+00 0.  1.
    9000007    1    1    2  501    0  0.17803363762E+03  0.18137378716E+03  0.25098983778E+03  0.53627262233E+03  0.40000000000E+03 0.  1.
   -9000007    1    1    2    0  502 -0.17803363762E+03 -0.18137378716E+03  0.19459992792E+04  0.20028743399E+04  0.40000000000E+03 0.  1.
<mgrwt>
<rscale>  2 0.47391183E+03</rscale>
<asrwt>0</asrwt>
<pdfrwt beam="1">  1       21 0.36431814E+00 0.47391183E+03</pdfrwt>
<pdfrwt beam="2">  1       21 0.26319836E-01 0.47391183E+03</pdfrwt>
<totfact> 0.14855234E+02</totfact>
</mgrwt>
</event>
<event>
 4    1  0.5013722E-002  0.4134468E+03  0.7818608E-02  0.1039220E+00
         21   -1    0    0  503  502  0.00000000000E+00  0.00000000000E+00  0.15913845450E+03  0.15913845450E+03  0.00000000000E+00 0.  1.
         21   -1    0    0  501  503 -0.00000000000E+00 -0.00000000000E+00 -0.11709839158E+04  0.11709839158E+04  0.00000000000E+00 0.  1.
    9000007    1    1    2  501    0 -0.21227413584E+02 -0.10240923159E+03 -0.31467144979E+03  0.51957326251E+03  0.40000000000E+03 0.  1.
   -9000007    1    1    2    0  502  0.21227413584E+02  0.10240923159E+03 -0.69717401153E+03  0.81054910780E+03  0.40000000000E+03 0.  1.
<mgrwt>
<rscale>  2 0.41344680E+03</rscale>
<asrwt>0</asrwt>
<pdfrwt beam="1">  1       21 0.24482840E-01 0.41344680E+03</pdfrwt>
<pdfrwt beam="2">  1       21 0.18015137E+00 0.41344680E+03</pdfrwt>
<totfact> 0.24796483E+03</totfact>
</mgrwt>
</event>
<event>
 4    1  0.5013722E-002  0.4012054E+03  0.7818608E-02  0.1043363E+00
         21   -1    0    0  501  502  0.00000000000E+00  0.00000000000E+00  0.39355533294E+03  0.39355533294E+03  0.00000000000E+00 0.  1.
         21   -1    0    0  502  503 -0.00000000000E+00 -0.00000000000E+00 -0.50833360293E+03  0.50833360293E+03  0.00000000000E+00 0.  1.
    9000007    1    1    2  501    0  0.30260718563E+02  0.70746720950E+01  0.14194775981E+03  0.42557599625E+03  0.40000000000E+03 0. -1.
   -9000007    1    1    2    0  503 -0.30260718563E+02 -0.70746720950E+01 -0.25672602979E+03  0.47631293962E+03  0.40000000000E+03 0. -1.
<mgrwt>
<rscale>  2 0.40120539E+03</rscale>
<asrwt>0</asrwt>
<pdfrwt beam="1">  1       21 0.60546974E-01 0.40120539E+03</pdfrwt>
<pdfrwt beam="2">  1       21 0.78205170E-01 0.40120539E+03</pdfrwt>
<totfact> 0.32662331E+03</totfact>
</mgrwt>
</event>
<event>
 4    1  0.5013722E-002  0.5413819E+03  0.7818608E-02  0.1003509E+00
         21   -1    0    0  503  502  0.00000000000E+00  0.00000000000E+00  0.53644064564E+03  0.53644064564E+03  0.00000000000E+00 0. -1.
         21   -1    0    0  501  503 -0.00000000000E+00 -0.00000000000E+00 -0.56266062100E+03  0.56266062100E+03  0.00000000000E+00 0. -1.
    9000007    1    1    2  501    0 -0.31670365259E+03  0.18108879710E+03 -0.10662280709E+03  0.55178145944E+03  0.40000000000E+03 0. -1.
   -9000007    1    1    2    0  502  0.31670365259E+03 -0.18108879710E+03  0.80402831727E+02  0.54731980719E+03  0.40000000000E+03 0. -1.
<mgrwt>
<rscale>  2 0.54138189E+03</rscale>
<asrwt>0</asrwt>
<pdfrwt beam="1">  1       21 0.82529330E-01 0.54138189E+03</pdfrwt>
<pdfrwt beam="2">  1       21 0.86563172E-01 0.54138189E+03</pdfrwt>
<totfact> 0.12181594E+03</totfact>
</mgrwt>
</event>
<event>
 4    1  0.5013722E-002  0.6010931E+03  0.7818608E-02  0.9903141E-01
         21   -1    0    0  503  502  0.00000000000E+00  0.00000000000E+00  0.33859707222E+03  0.33859707222E+03  0.00000000000E+00 0.  1.
         21   -1    0    0  501  503 -0.00000000000E+00 -0.00000000000E+00 -0.11909796394E+04  0.11909796394E+04  0.00000000000E+00 0.  1.
    9000007    1    1    2  501    0  0.44342704968E+03  0.68449914639E+02 -0.67285754629E+03  0.90224731466E+03  0.40000000000E+03 0.  1.
   -9000007    1    1    2    0  502 -0.44342704968E+03 -0.68449914639E+02 -0.17952502091E+03  0.62732939699E+03  0.40000000000E+03 0.  1.
<mgrwt>
<rscale>  2 0.60109312E+03</rscale>
<asrwt>0</asrwt>
<pdfrwt beam="1">  1       21 0.52091858E-01 0.60109312E+03</pdfrwt>
<pdfrwt beam="2">  1       21 0.18322763E+00 0.60109312E+03</pdfrwt>
<totfact> 0.47028351E+02</totfact>
</mgrwt>
</event>
<event>
 4    1  0.5013722E-002  0.4054839E+03  0.7818608E-02  0.1041897E+00
         21   -1    0    0  503  502  0.00000000000E+00  0.00000000000E+00  0.28602877860E+03  0.28602877860E+03  0.00000000000E+00 0. -1.
         21   -1    0    0  501  503 -0.00000000000E+00 -0.00000000000E+00 -0.59622034550E+03  0.59622034550E+03  0.00000000000E+00 0. -1.
    9000007    1    1    2  501    0 -0.55907517979E+02  0.35937691120E+02 -0.23865483927E+03  0.47050324177E+03  0.40000000000E+03 0. -1.
   -9000007    1    1    2    0  502  0.55907517979E+02 -0.35937691120E+02 -0.71536727632E+02  0.41174588232E+03  0.40000000000E+03 0. -1.
<mgrwt>
<rscale>  2 0.40548387E+03</rscale>
<asrwt>0</asrwt>
<pdfrwt beam="1">  1       21 0.44004428E-01 0.40548387E+03</pdfrwt>
<pdfrwt beam="2">  1       21 0.91726207E-01 0.40548387E+03</pdfrwt>
<totfact> 0.44416471E+03</totfact>
</mgrwt>
</event>
<event>
 4    1  0.5013722E-002  0.4901014E+03  0.7818608E-02  0.1016395E+00
         21   -1    0    0  501  502  0.00000000000E+00  0.00000000000E+00  0.88739218425E+03  0.88739218425E+03  0.00000000000E+00 0.  1.
         21   -1    0    0  502  503 -0.00000000000E+00 -0.00000000000E+00 -0.27199050105E+03  0.27199050105E+03  0.00000000000E+00 0. -1.
    9000007    1    1    2  501    0  0.89349581682E+01 -0.28305403731E+03  0.34793723170E+03  0.60104886550E+03  0.40000000000E+03 0.  1.
   -9000007    1    1    2    0  503 -0.89349581682E+01  0.28305403731E+03  0.26746445150E+03  0.55833381980E+03  0.40000000000E+03 0.  1.
<mgrwt>
<rscale>  2 0.49010144E+03</rscale>
<asrwt>0</asrwt>
<pdfrwt beam="1">  1       21 0.13652187E+00 0.49010144E+03</pdfrwt>
<pdfrwt beam="2">  1       21 0.41844693E-01 0.49010144E+03</pdfrwt>
<totfact> 0.17706469E+03</totfact>
</mgrwt>
</event>
<event>
 4    1  0.5013722E-002  0.6634586E+03  0.7818608E-02  0.9781848E-01
         21   -1    0    0  501  502  0.00000000000E+00  0.00000000000E+00  0.15238687347E+04  0.15238687347E+04  0.00000000000E+00 0. -1.
         21   -1    0    0  502  503 -0.00000000000E+00 -0.00000000000E+00 -0.29267812186E+03  0.29267812186E+03  0.00000000000E+00 0.  1.
    9000007    1    1    2  501    0  0.52617367049E+03  0.57607203819E+02  0.51178931504E+03  0.83791743295E+03  0.40000000000E+03 0.  1.
   -9000007    1    1    2    0  503 -0.52617367049E+03 -0.57607203819E+02  0.71940129776E+03  0.97862942356E+03  0.40000000000E+03 0. -1.
<mgrwt>
<rscale>  2 0.66345861E+03</rscale>
<asrwt>0</asrwt>
<pdfrwt beam="1">  1       21 0.23444134E+00 0.66345861E+03</pdfrwt>
<pdfrwt beam="2">  1       21 0.45027404E-01 0.66345861E+03</pdfrwt>
<totfact> 0.28642761E+02</totfact>
</mgrwt>
</event>
<event>
 4    1  0.5013722E-002  0.4582522E+03  0.7818608E-02  0.1025289E+00
         21   -1    0    0  501  502  0.00000000000E+00  0.00000000000E+00  0.61715072375E+03  0.61715072375E+03  0.00000000000E+00 0.  1.
         21   -1    0    0  502  503 -0.00000000000E+00 -0.00000000000E+00 -0.43140986200E+03  0.43140986200E+03  0.00000000000E+00 0.  1.
    9000007    1    1    2  501    0  0.33567867957E+02  0.22106163048E+03 -0.14811101711E+03  0.48159310587E+03  0.40000000000E+03 0.  1.
   -9000007    1    1    2    0  503 -0.33567867957E+02 -0.22106163048E+03  0.33385187885E+03  0.56696747988E+03  0.40000000000E+03 0.  1.
<mgrwt>
<rscale>  2 0.45825216E+03</rscale>
<asrwt>0</asrwt>
<pdfrwt beam="1">  1       21 0.94946266E-01 0.45825216E+03</pdfrwt>
<pdfrwt beam="2">  1       21 0.66370748E-01 0.45825216E+03</pdfrwt>
<totfact> 0.16551595E+03</totfact>
</mgrwt>
</event>
<event>
 4    1  0.5013722E-002  0.4177597E+03  0.7818608E-02  0.1037798E+00
         21   -1    0    0  503  502  0.00000000000E+00  0.00000000000E+00  0.12862468731E+04  0.12862468731E+04  0.00000000000E+00 0. -1.
         21   -1    0    0  501  503 -0.00000000000E+00 -0.00000000000E+00 -0.24023087253E+03  0.24023087253E+03  0.00000000000E+00 0. -1.
    9000007    1    1    2  501    0 -0.11611950464E+03 -0.32239830483E+02  0.19505589731E+02  0.41821479416E+03  0.40000000000E+03 0. -1.
   -9000007    1    1    2    0  502  0.11611950464E+03  0.32239830483E+02  0.10265104108E+04  0.11082629514E+04  0.40000000000E+03 0. -1.
<mgrwt>
<rscale>  2 0.41775967E+03</rscale>
<asrwt>0</asrwt>
<pdfrwt beam="1">  1       21 0.19788413E+00 0.41775967E+03</pdfrwt>
<pdfrwt beam="2">  1       21 0.36958597E-01 0.41775967E+03</pdfrwt>
<totfact> 0.82635715E+02</totfact>
</mgrwt>
</event>
<event>
 4    1  0.5013722E-002  0.5974983E+03  0.7818608E-02  0.9910610E-01
         21   -1    0    0  501  502  0.00000000000E+00  0.00000000000E+00  0.10021861135E+04  0.10021861135E+04  0.00000000000E+00 0.  1.
         21   -1    0    0  502  503 -0.00000000000E+00 -0.00000000000E+00 -0.52234511878E+03  0.52234511878E+03  0.00000000000E+00 0. -1.
    9000007    1    1    2  501    0 -0.37578787220E+03  0.23619422744E+03  0.66979138856E+03  0.89756600992E+03  0.40000000000E+03 0.  1.
   -9000007    1    1    2    0  503  0.37578787220E+03 -0.23619422744E+03 -0.18995039382E+03  0.62696522239E+03  0.40000000000E+03 0. -1.
<mgrwt>
<rscale>  2 0.59749832E+03</rscale>
<asrwt>0</asrwt>
<pdfrwt beam="1">  1       21 0.15418248E+00 0.59749832E+03</pdfrwt>
<pdfrwt beam="2">  1       21 0.80360788E-01 0.59749832E+03</pdfrwt>
<totfact> 0.29305916E+02</totfact>
</mgrwt>
</event>
<event>
 4    1  0.5013722E-002  0.4289793E+03  0.7818608E-02  0.1034183E+00
         21   -1    0    0  503  502  0.00000000000E+00  0.00000000000E+00  0.65368416972E+03  0.65368416972E+03  0.00000000000E+00 0. -1.
         21   -1    0    0  501  503 -0.00000000000E+00 -0.00000000000E+00 -0.28227623937E+03  0.28227623937E+03  0.00000000000E+00 0. -1.
    9000007    1    1    2  501    0 -0.11317580186E+03  0.10589830211E+03  0.16143356106E+03  0.45834921965E+03  0.40000000000E+03 0. -1.
   -9000007    1    1    2    0  502  0.11317580186E+03 -0.10589830211E+03  0.20997436929E+03  0.47761118944E+03  0.40000000000E+03 0. -1.
<mgrwt>
<rscale>  2 0.42897927E+03</rscale>
<asrwt>0</asrwt>
<pdfrwt beam="1">  1       21 0.10056680E+00 0.42897927E+03</pdfrwt>
<pdfrwt beam="2">  1       21 0.43427114E-01 0.42897927E+03</pdfrwt>
<totfact> 0.36295181E+03</totfact>
</mgrwt>
</event>
<event>
 4    1  0.5013722E-002  0.4223545E+03  0.7818608E-02  0.1036303E+00
         21   -1    0    0  501  502  0.00000000000E+00  0.00000000000E+00  0.48180226200E+03  0.48180226200E+03  0.00000000000E+00 0.  1.
         21   -1    0    0  502  503 -0.00000000000E+00 -0.00000000000E+00 -0.82433402627E+03  0.82433402627E+03  0.00000000000E+00 0.  1.
    9000007    1    1    2  501    0  0.96418144229E+02  0.95325176903E+02  0.31344069079E+03  0.52595476472E+03  0.40000000000E+03 0.  1.
   -9000007    1    1    2    0  503 -0.96418144229E+02 -0.95325176903E+02 -0.65597245506E+03  0.78018152355E+03  0.40000000000E+03 0.  1.
<mgrwt>
<rscale>  2 0.42235453E+03</rscale>
<asrwt>0</asrwt>
<pdfrwt beam="1">  1       21 0.74123426E-01 0.42235453E+03</pdfrwt>
<pdfrwt beam="2">  1       21 0.12682062E+00 0.42235453E+03</pdfrwt>
<totfact> 0.63864905E+02</totfact>
</mgrwt>
</event>
<event>
 4    1  0.5013722E-002  0.4850196E+03  0.7818608E-02  0.1017765E+00
         21   -1    0    0  501  502  0.00000000000E+00  0.00000000000E+00  0.85874918088E+03  0.85874918088E+03  0.00000000000E+00 0.  1.
         21   -1    0    0  502  503 -0.00000000000E+00 -0.00000000000E+00 -0.74689275869E+03  0.74689275869E+03  0.00000000000E+00 0. -1.
    9000007    1    1    2  501    0 -0.15930524264E+03 -0.22330657002E+03  0.69477896125E+03  0.84732625921E+03  0.40000000000E+03 0.  1.
   -9000007    1    1    2    0  503  0.15930524264E+03  0.22330657002E+03 -0.58292253906E+03  0.75831568036E+03  0.40000000000E+03 0. -1.
<mgrwt>
<rscale>  2 0.48501957E+03</rscale>
<asrwt>0</asrwt>
<pdfrwt beam="1">  1       21 0.13211526E+00 0.48501957E+03</pdfrwt>
<pdfrwt beam="2">  1       21 0.11490658E+00 0.48501957E+03</pdfrwt>
<totfact> 0.19584903E+02</totfact>
</mgrwt>
</event>
<event>
 4    1  0.5013722E-002  0.4022983E+03  0.7818608E-02  0.1042987E+00
         21   -1    0    0  501  502  0.00000000000E+00  0.00000000000E+00  0.52285510204E+03  0.52285510204E+03  0.00000000000E+00 0.  1.
         21   -1    0    0  502  503 -0.00000000000E+00 -0.00000000000E+00 -0.38076298416E+03  0.38076298416E+03  0.00000000000E+00 0.  1.
    9000007    1    1    2  501    0  0.27114540027E+02 -0.33298104190E+02  0.26645353555E+03  0.48253647389E+03  0.40000000000E+03 0.  1.
   -9000007    1    1    2    0  503 -0.27114540027E+02  0.33298104190E+02 -0.12436141767E+03  0.42108161231E+03  0.40000000000E+03 0.  1.
<mgrwt>
<rscale>  2 0.40229835E+03</rscale>
<asrwt>0</asrwt>
<pdfrwt beam="1">  1       21 0.80439247E-01 0.40229835E+03</pdfrwt>
<pdfrwt beam="2">  1       21 0.58578921E-01 0.40229835E+03</pdfrwt>
<totfact> 0.32889674E+03</totfact>
</mgrwt>
</event>
<event>
 4    1  0.5013722E-002  0.4830494E+03  0.7818608E-02  0.1018300E+00
         21   -1    0    0  501  502  0.00000000000E+00  0.00000000000E+00  0.39006442208E+03  0.39006442208E+03  0.00000000000E+00 0.  1.
         21   -1    0    0  502  503 -0.00000000000E+00 -0.00000000000E+00 -0.99858458454E+03  0.99858458454E+03  0.00000000000E+00 0.  1.
    9000007    1    1    2  501    0 -0.16134584490E+03 -0.21749531776E+03  0.13539137736E+03  0.50166474859E+03  0.40000000000E+03 0.  1.
   -9000007    1    1    2    0  503  0.16134584490E+03  0.21749531776E+03 -0.74391153982E+03  0.88698425803E+03  0.40000000000E+03 0.  1.
<mgrwt>
<rscale>  2 0.48304937E+03</rscale>
<asrwt>0</asrwt>
<pdfrwt beam="1">  1       21 0.60009912E-01 0.48304937E+03</pdfrwt>
<pdfrwt beam="2">  1       21 0.15362840E+00 0.48304937E+03</pdfrwt>
<totfact> 0.59864937E+02</totfact>
</mgrwt>
</event>
<event>
 4    1  0.5013722E-002  0.4753081E+03  0.7818608E-02  0.1020433E+00
         21   -1    0    0  503  502  0.00000000000E+00  0.00000000000E+00  0.18223322260E+04  0.18223322260E+04  0.00000000000E+00 0. -1.
         21   -1    0    0  501  503 -0.00000000000E+00 -0.00000000000E+00 -0.15002309566E+03  0.15002309566E+03  0.00000000000E+00 0. -1.
    9000007    1    1    2  501    0 -0.91376394495E+01 -0.25658196153E+03  0.42520285293E+03  0.63774231911E+03  0.40000000000E+03 0. -1.
   -9000007    1    1    2    0  502  0.91376394495E+01  0.25658196153E+03  0.12471062774E+04  0.13346130026E+04  0.40000000000E+03 0. -1.
<mgrwt>
<rscale>  2 0.47530811E+03</rscale>
<asrwt>0</asrwt>
<pdfrwt beam="1">  1       21 0.28035879E+00 0.47530811E+03</pdfrwt>
<pdfrwt beam="2">  1       21 0.23080478E-01 0.47530811E+03</pdfrwt>
<totfact> 0.62091693E+02</totfact>
</mgrwt>
</event>
<event>
 4    1  0.5013722E-002  0.5104215E+03  0.7818608E-02  0.1011094E+00
         21   -1    0    0  503  502  0.00000000000E+00  0.00000000000E+00  0.45022976123E+03  0.45022976123E+03  0.00000000000E+00 0.  1.
         21   -1    0    0  501  503 -0.00000000000E+00 -0.00000000000E+00 -0.57932683483E+03  0.57932683483E+03  0.00000000000E+00 0. -1.
    9000007    1    1    2  501    0  0.29992619722E+03 -0.10283180900E+03 -0.47087973983E+02  0.51258890157E+03  0.40000000000E+03 0.  1.
   -9000007    1    1    2    0  502 -0.29992619722E+03  0.10283180900E+03 -0.82009099621E+02  0.51696769449E+03  0.40000000000E+03 0. -1.
<mgrwt>
<rscale>  2 0.51042150E+03</rscale>
<asrwt>0</asrwt>
<pdfrwt beam="1">  1       21 0.69266117E-01 0.51042150E+03</pdfrwt>
<pdfrwt beam="2">  1       21 0.89127206E-01 0.51042150E+03</pdfrwt>
<totfact> 0.17165664E+03</totfact>
</mgrwt>
</event>
<event>
 4    1  0.5013722E-002  0.4453632E+03  0.7818608E-02  0.1029114E+00
         21   -1    0    0  501  502  0.00000000000E+00  0.00000000000E+00  0.19473355316E+03  0.19473355316E+03  0.00000000000E+00 0.  1.
         21   -1    0    0  502  503 -0.00000000000E+00 -0.00000000000E+00 -0.10246140303E+04  0.10246140303E+04  0.00000000000E+00 0.  1.
    9000007    1    1    2  501    0 -0.98706325028E+02  0.16913146836E+03 -0.36808781857E+03  0.57778632242E+03  0.40000000000E+03 0. -1.
   -9000007    1    1    2    0  503  0.98706325028E+02 -0.16913146836E+03 -0.46179265860E+03  0.64156126109E+03  0.40000000000E+03 0. -1.
<mgrwt>
<rscale>  2 0.44536321E+03</rscale>
<asrwt>0</asrwt>
<pdfrwt beam="1">  1       21 0.29959009E-01 0.44536321E+03</pdfrwt>
<pdfrwt beam="2">  1       21 0.15763292E+00 0.44536321E+03</pdfrwt>
<totfact> 0.24055355E+03</totfact>
</mgrwt>
</event>
<event>
 4    1  0.5013722E-002  0.4026960E+03  0.7818608E-02  0.1042850E+00
         21   -1    0    0  503  502  0.00000000000E+00  0.00000000000E+00  0.12348140911E+03  0.12348140911E+03  0.00000000000E+00 0. -1.
         21   -1    0    0  501  503 -0.00000000000E+00 -0.00000000000E+00 -0.26755235419E+04  0.26755235419E+04  0.00000000000E+00 0. -1.
    9000007    1    1    2  501    0  0.32389567862E+01  0.46406955557E+02 -0.22746374487E+04  0.23100085756E+04  0.40000000000E+03 0. -1.
   -9000007    1    1    2    0  502 -0.32389567862E+01 -0.46406955557E+02 -0.27740468402E+03  0.48899637532E+03  0.40000000000E+03 0. -1.
<mgrwt>
<rscale>  2 0.40269603E+03</rscale>
<asrwt>0</asrwt>
<pdfrwt beam="1">  1       21 0.18997139E-01 0.40269603E+03</pdfrwt>
<pdfrwt beam="2">  1       21 0.41161902E+00 0.40269603E+03</pdfrwt>
<totfact> 0.14661536E+02</totfact>
</mgrwt>
</event>
<event>
 4    1  0.5013722E-002  0.4785326E+03  0.7818608E-02  0.1019539E+00
         21   -1    0    0  503  502  0.00000000000E+00  0.00000000000E+00  0.11715738253E+04  0.11715738253E+04  0.00000000000E+00 0. -1.
         21   -1    0    0  501  503 -0.00000000000E+00 -0.00000000000E+00 -0.32639454904E+03  0.32639454904E+03  0.00000000000E+00 0.  1.
    9000007    1    1    2  501    0  0.12654013159E+03  0.23017612509E+03 -0.51796159458E+02  0.48132763852E+03  0.40000000000E+03 0.  1.
   -9000007    1    1    2    0  502 -0.12654013159E+03 -0.23017612509E+03  0.89697543572E+03  0.10166407358E+04  0.40000000000E+03 0. -1.
<mgrwt>
<rscale>  2 0.47853260E+03</rscale>
<asrwt>0</asrwt>
<pdfrwt beam="1">  1       21 0.18024212E+00 0.47853260E+03</pdfrwt>
<pdfrwt beam="2">  1       21 0.50214547E-01 0.47853260E+03</pdfrwt>
<totfact> 0.56056624E+02</totfact>
</mgrwt>
</event>
<event>
 4    1  0.5013722E-002  0.4116455E+03  0.7818608E-02  0.1039820E+00
         21   -1    0    0  503  502  0.00000000000E+00  0.00000000000E+00  0.51821014079E+03  0.51821014079E+03  0.00000000000E+00 0.  1.
         21   -1    0    0  501  503 -0.00000000000E+00 -0.00000000000E+00 -0.47061480221E+03  0.47061480221E+03  0.00000000000E+00 0.  1.
    9000007    1    1    2  501    0 -0.42231308618E+02 -0.87570213046E+02 -0.24932898062E+03  0.48126600360E+03  0.40000000000E+03 0.  1.
   -9000007    1    1    2    0  502  0.42231308618E+02  0.87570213046E+02  0.29692431920E+03  0.50755893941E+03  0.40000000000E+03 0.  1.
<mgrwt>
<rscale>  2 0.41164551E+03</rscale>
<asrwt>0</asrwt>
<pdfrwt beam="1">  1       21 0.79724637E-01 0.41164551E+03</pdfrwt>
<pdfrwt beam="2">  1       21 0.72402278E-01 0.41164551E+03</pdfrwt>
<totfact> 0.20904076E+03</totfact>
</mgrwt>
</event>
<event>
 4    1  0.5013722E-002  0.4372685E+03  0.7818608E-02  0.1031588E+00
         21   -1    0    0  501  502  0.00000000000E+00  0.00000000000E+00  0.10798919188E+04  0.10798919188E+04  0.00000000000E+00 0.  1.
         21   -1    0    0  502  503 -0.00000000000E+00 -0.00000000000E+00 -0.30570945248E+03  0.30570945248E+03  0.00000000000E+00 0. -1.
    9000007    1    1    2  501    0  0.15059719319E+03 -0.92326587817E+02  0.83652002764E+03  0.94391179146E+03  0.40000000000E+03 0.  1.
   -9000007    1    1    2    0  503 -0.15059719319E+03  0.92326587817E+02 -0.62337561269E+02  0.44168957986E+03  0.40000000000E+03 0. -1.
<mgrwt>
<rscale>  2 0.43726847E+03</rscale>
<asrwt>0</asrwt>
<pdfrwt beam="1">  1       21 0.16613722E+00 0.43726847E+03</pdfrwt>
<pdfrwt beam="2">  1       21 0.47032224E-01 0.43726847E+03</pdfrwt>
<totfact> 0.82929481E+02</totfact>
</mgrwt>
</event>
<event>
 4    1  0.5013722E-002  0.6551466E+03  0.7818608E-02  0.9797170E-01
         21   -1    0    0  501  502  0.00000000000E+00  0.00000000000E+00  0.96199570182E+03  0.96199570182E+03  0.00000000000E+00 0.  1.
         21   -1    0    0  502  503 -0.00000000000E+00 -0.00000000000E+00 -0.52870901911E+03  0.52870901911E+03  0.00000000000E+00 0. -1.
    9000007    1    1    2  501    0 -0.36274864226E+03 -0.37098587974E+03 -0.77848597439E+02  0.65975564003E+03  0.40000000000E+03 0. -1.
   -9000007    1    1    2    0  503  0.36274864226E+03  0.37098587974E+03  0.51113528015E+03  0.83094908090E+03  0.40000000000E+03 0.  1.
<mgrwt>
<rscale>  2 0.65514663E+03</rscale>
<asrwt>0</asrwt>
<pdfrwt beam="1">  1       21 0.14799934E+00 0.65514663E+03</pdfrwt>
<pdfrwt beam="2">  1       21 0.81339849E-01 0.65514663E+03</pdfrwt>
<totfact> 0.31268732E+02</totfact>
</mgrwt>
</event>
<event>
 4    1  0.5013722E-002  0.4957316E+03  0.7818608E-02  0.1014899E+00
         21   -1    0    0  501  502  0.00000000000E+00  0.00000000000E+00  0.93379094258E+03  0.93379094258E+03  0.00000000000E+00 0. -1.
         21   -1    0    0  502  503 -0.00000000000E+00 -0.00000000000E+00 -0.12182959455E+04  0.12182959455E+04  0.00000000000E+00 0.  1.
    9000007    1    1    2  501    0  0.14883212143E+03  0.25218814860E+03  0.81050577345E+03  0.95008919132E+03  0.40000000000E+03 0. -1.
   -9000007    1    1    2    0  503 -0.14883212143E+03 -0.25218814860E+03 -0.10950107764E+04  0.12019976968E+04  0.40000000000E+03 0.  1.
<mgrwt>
<rscale>  2 0.49573164E+03</rscale>
<asrwt>0</asrwt>
<pdfrwt beam="1">  1       21 0.14366015E+00 0.49573164E+03</pdfrwt>
<pdfrwt beam="2">  1       21 0.18743015E+00 0.49573164E+03</pdfrwt>
<totfact> 0.41202159E+01</totfact>
</mgrwt>
</event>
<event>
 4    1  0.5013722E-002  0.4099425E+03  0.7818608E-02  0.1040390E+00
         21   -1    0    0  503  502  0.00000000000E+00  0.00000000000E+00  0.29988319364E+03  0.29988319364E+03  0.00000000000E+00 0. -1.
         21   -1    0    0  501  503 -0.00000000000E+00 -0.00000000000E+00 -0.64814761610E+03  0.64814761610E+03  0.00000000000E+00 0.  1.
    9000007    1    1    2  501    0 -0.45346913858E+02 -0.77436887812E+02 -0.34854864824E+03  0.53808825891E+03  0.40000000000E+03 0. -1.
   -9000007    1    1    2    0  502  0.45346913858E+02  0.77436887812E+02  0.28422577601E+00  0.40994255082E+03  0.40000000000E+03 0. -1.
<mgrwt>
<rscale>  2 0.40994245E+03</rscale>
<asrwt>0</asrwt>
<pdfrwt beam="1">  1       21 0.46135876E-01 0.40994245E+03</pdfrwt>
<pdfrwt beam="2">  1       21 0.99715018E-01 0.40994245E+03</pdfrwt>
<totfact> 0.32885343E+03</totfact>
</mgrwt>
</event>
<event>
 4    1  0.5013722E-002  0.4484058E+03  0.7818608E-02  0.1028199E+00
         21   -1    0    0  503  502  0.00000000000E+00  0.00000000000E+00  0.12258247996E+03  0.12258247996E+03  0.00000000000E+00 0.  1.
         21   -1    0    0  501  503 -0.00000000000E+00 -0.00000000000E+00 -0.17563063395E+04  0.17563063395E+04  0.00000000000E+00 0.  1.
    9000007    1    1    2  501    0 -0.43273508136E+02  0.19797768443E+03 -0.10583397172E+04  0.11494132055E+04  0.40000000000E+03 0.  1.
   -9000007    1    1    2    0  502  0.43273508136E+02 -0.19797768443E+03 -0.57538414229E+03  0.72947561388E+03  0.40000000000E+03 0.  1.
<mgrwt>
<rscale>  2 0.44840580E+03</rscale>
<asrwt>0</asrwt>
<pdfrwt beam="1">  1       21 0.18858842E-01 0.44840580E+03</pdfrwt>
<pdfrwt beam="2">  1       21 0.27020099E+00 0.44840580E+03</pdfrwt>
<totfact> 0.10672274E+03</totfact>
</mgrwt>
</event>
<event>
 4    1  0.5013722E-002  0.4238311E+03  0.7818608E-02  0.1035827E+00
         21   -1    0    0  501  502  0.00000000000E+00  0.00000000000E+00  0.15494157804E+03  0.15494157804E+03  0.00000000000E+00 0.  1.
         21   -1    0    0  502  503 -0.00000000000E+00 -0.00000000000E+00 -0.11878992610E+04  0.11878992610E+04  0.00000000000E+00 0.  1.
    9000007    1    1    2  501    0  0.85292490018E+02  0.11116660695E+03 -0.41240583285E+03  0.59136401169E+03  0.40000000000E+03 0.  1.
   -9000007    1    1    2    0  503 -0.85292490018E+02 -0.11116660695E+03 -0.62055185011E+03  0.75147682734E+03  0.40000000000E+03 0.  1.
<mgrwt>
<rscale>  2 0.42383113E+03</rscale>
<asrwt>0</asrwt>
<pdfrwt beam="1">  1       21 0.23837166E-01 0.42383113E+03</pdfrwt>
<pdfrwt beam="2">  1       21 0.18275373E+00 0.42383113E+03</pdfrwt>
<totfact> 0.24928822E+03</totfact>
</mgrwt>
</event>
<event>
 4    1  0.5013722E-002  0.5159848E+03  0.7818608E-02  0.1009689E+00
         21   -1    0    0  501  502  0.00000000000E+00  0.00000000000E+00  0.61048804228E+03  0.61048804228E+03  0.00000000000E+00 0. -1.
         21   -1    0    0  502  503 -0.00000000000E+00 -0.00000000000E+00 -0.51193003770E+03  0.51193003770E+03  0.00000000000E+00 0. -1.
    9000007    1    1    2  501    0 -0.32305488796E+03  0.43310631938E+02  0.26525714155E+03  0.58017378657E+03  0.40000000000E+03 0. -1.
   -9000007    1    1    2    0  503  0.32305488796E+03 -0.43310631938E+02 -0.16669913697E+03  0.54224429342E+03  0.40000000000E+03 0. -1.
<mgrwt>
<rscale>  2 0.51598476E+03</rscale>
<asrwt>0</asrwt>
<pdfrwt beam="1">  1       21 0.93921238E-01 0.51598476E+03</pdfrwt>
<pdfrwt beam="2">  1       21 0.78758467E-01 0.51598476E+03</pdfrwt>
<totfact> 0.11279885E+03</totfact>
</mgrwt>
</event>
<event>
 4    1  0.5013722E-002  0.4202255E+03  0.7818608E-02  0.1036993E+00
         21   -1    0    0  503  502  0.00000000000E+00  0.00000000000E+00  0.11548800854E+04  0.11548800854E+04  0.00000000000E+00 0.  1.
         21   -1    0    0  501  503 -0.00000000000E+00 -0.00000000000E+00 -0.17201051481E+03  0.17201051481E+03  0.00000000000E+00 0.  1.
    9000007    1    1    2  501    0  0.12732180700E+03  0.19459208572E+02  0.27033833877E+03  0.49967221330E+03  0.40000000000E+03 0.  1.
   -9000007    1    1    2    0  502 -0.12732180700E+03 -0.19459208572E+02  0.71253123184E+03  0.82721838694E+03  0.40000000000E+03 0.  1.
<mgrwt>
<rscale>  2 0.42022554E+03</rscale>
<asrwt>0</asrwt>
<pdfrwt beam="1">  1       21 0.17767385E+00 0.42022554E+03</pdfrwt>
<pdfrwt beam="2">  1       21 0.26463157E-01 0.42022554E+03</pdfrwt>
<totfact> 0.22122941E+03</totfact>
</mgrwt>
</event>
<event>
 4    1  0.5013722E-002  0.4868251E+03  0.7818608E-02  0.1017276E+00
         21   -1    0    0  503  502  0.00000000000E+00  0.00000000000E+00  0.16671136999E+04  0.16671136999E+04  0.00000000000E+00 0.  1.
         21   -1    0    0  501  503 -0.00000000000E+00 -0.00000000000E+00 -0.17202140548E+03  0.17202140548E+03  0.00000000000E+00 0. -1.
    9000007    1    1    2  501    0 -0.20488362539E+03  0.18714000117E+03  0.36442186418E+03  0.60811345576E+03  0.40000000000E+03 0. -1.
   -9000007    1    1    2    0  502  0.20488362539E+03 -0.18714000117E+03  0.11306704302E+04  0.12310216496E+04  0.40000000000E+03 0.  1.
<mgrwt>
<rscale>  2 0.48682510E+03</rscale>
<asrwt>0</asrwt>
<pdfrwt beam="1">  1       21 0.25647902E+00 0.48682510E+03</pdfrwt>
<pdfrwt beam="2">  1       21 0.26464833E-01 0.48682510E+03</pdfrwt>
<totfact> 0.66074887E+02</totfact>
</mgrwt>
</event>
<event>
 4    1  0.5013722E-002  0.4909988E+03  0.7818608E-02  0.1016155E+00
         21   -1    0    0  503  502  0.00000000000E+00  0.00000000000E+00  0.46148450252E+03  0.46148450252E+03  0.00000000000E+00 0. -1.
         21   -1    0    0  501  503 -0.00000000000E+00 -0.00000000000E+00 -0.52734888386E+03  0.52734888386E+03  0.00000000000E+00 0.  1.
    9000007    1    1    2  501    0 -0.14945748075E+03 -0.24236799680E+03 -0.80825085441E+02  0.49760675122E+03  0.40000000000E+03 0. -1.
   -9000007    1    1    2    0  502  0.14945748075E+03  0.24236799680E+03  0.14960704098E+02  0.49122663516E+03  0.40000000000E+03 0.  1.
<mgrwt>
<rscale>  2 0.49099876E+03</rscale>
<asrwt>0</asrwt>
<pdfrwt beam="1">  1       21 0.70997616E-01 0.49099876E+03</pdfrwt>
<pdfrwt beam="2">  1       21 0.81130597E-01 0.49099876E+03</pdfrwt>
<totfact> 0.20373151E+03</totfact>
</mgrwt>
</event>
<event>
 4    1  0.5013722E-002  0.6632903E+03  0.7818608E-02  0.9782156E-01
         21   -1    0    0  501  502  0.00000000000E+00  0.00000000000E+00  0.29679185491E+03  0.29679185491E+03  0.00000000000E+00 0. -1.
         21   -1    0    0  502  503 -0.00000000000E+00 -0.00000000000E+00 -0.15300507173E+04  0.15300507173E+04  0.00000000000E+00 0. -1.
    9000007    1    1    2  501    0  0.52549532929E+03  0.61714041837E+02 -0.45537533799E+03  0.80456240436E+03  0.40000000000E+03 0. -1.
   -9000007    1    1    2    0  503 -0.52549532929E+03 -0.61714041837E+02 -0.77788352443E+03  0.10222801679E+04  0.40000000000E+03 0. -1.
<mgrwt>
<rscale>  2 0.66329026E+03</rscale>
<asrwt>0</asrwt>
<pdfrwt beam="1">  1       21 0.45660285E-01 0.66329026E+03</pdfrwt>
<pdfrwt beam="2">  1       21 0.23539242E+00 0.66329026E+03</pdfrwt>
<totfact> 0.27426971E+02</totfact>
</mgrwt>
</event>
<event>
 4    1  0.5013722E-002  0.4193082E+03  0.7818608E-02  0.1037292E+00
         21   -1    0    0  503  502  0.00000000000E+00  0.00000000000E+00  0.53119121501E+03  0.53119121501E+03  0.00000000000E+00 0.  1.
         21   -1    0    0  501  503 -0.00000000000E+00 -0.00000000000E+00 -0.33978496579E+03  0.33978496579E+03  0.00000000000E+00 0.  1.
    9000007    1    1    2  501    0 -0.12388165734E+03 -0.21741485744E+02  0.25642539854E+02  0.42009153417E+03  0.40000000000E+03 0.  1.
   -9000007    1    1    2    0  502  0.12388165734E+03  0.21741485744E+02  0.16576370937E+03  0.45088464663E+03  0.40000000000E+03 0.  1.
<mgrwt>
<rscale>  2 0.41930819E+03</rscale>
<asrwt>0</asrwt>
<pdfrwt beam="1">  1       21 0.81721725E-01 0.41930819E+03</pdfrwt>
<pdfrwt beam="2">  1       21 0.52274610E-01 0.41930819E+03</pdfrwt>
<totfact> 0.40275510E+03</totfact>
</mgrwt>
</event>
<event>
 4    1  0.5013722E-002  0.5176942E+03  0.7818608E-02  0.1009261E+00
         21   -1    0    0  501  502  0.00000000000E+00  0.00000000000E+00  0.19950220894E+03  0.19950220894E+03  0.00000000000E+00 0.  1.
         21   -1    0    0  502  503 -0.00000000000E+00 -0.00000000000E+00 -0.21581594692E+04  0.21581594692E+04  0.00000000000E+00 0.  1.
    9000007    1    1    2  501    0 -0.23832865683E+03  0.22628911162E+03 -0.25500989816E+03  0.57709389086E+03  0.40000000000E+03 0.  1.
   -9000007    1    1    2    0  503  0.23832865683E+03 -0.22628911162E+03 -0.17036473621E+04  0.17805677873E+04  0.40000000000E+03 0.  1.
<mgrwt>
<rscale>  2 0.51769423E+03</rscale>
<asrwt>0</asrwt>
<pdfrwt beam="1">  1       21 0.30692646E-01 0.51769423E+03</pdfrwt>
<pdfrwt beam="2">  1       21 0.33202455E+00 0.51769423E+03</pdfrwt>
<totfact> 0.16880356E+02</totfact>
</mgrwt>
</event>
<event>
 4    1  0.5013722E-002  0.4452842E+03  0.7818608E-02  0.1029138E+00
         21   -1    0    0  503  502  0.00000000000E+00  0.00000000000E+00  0.49869208498E+03  0.49869208498E+03  0.00000000000E+00 0. -1.
         21   -1    0    0  501  503 -0.00000000000E+00 -0.00000000000E+00 -0.97038927483E+03  0.97038927483E+03  0.00000000000E+00 0. -1.
    9000007    1    1    2  501    0 -0.13682767782E+03 -0.13984356753E+03 -0.80018981052E+03  0.91574110406E+03  0.40000000000E+03 0. -1.
   -9000007    1    1    2    0  502  0.13682767782E+03  0.13984356753E+03  0.32849262068E+03  0.55334025575E+03  0.40000000000E+03 0. -1.
<mgrwt>
<rscale>  2 0.44528422E+03</rscale>
<asrwt>0</asrwt>
<pdfrwt beam="1">  1       21 0.76721861E-01 0.44528422E+03</pdfrwt>
<pdfrwt beam="2">  1       21 0.14929066E+00 0.44528422E+03</pdfrwt>
<totfact> 0.37963428E+02</totfact>
</mgrwt>
</event>
<event>
 4    1  0.5013722E-002  0.4932473E+03  0.7818608E-02  0.1015557E+00
         21   -1    0    0  501  502  0.00000000000E+00  0.00000000000E+00  0.35918023963E+03  0.35918023963E+03  0.00000000000E+00 0. -1.
         21   -1    0    0  502  503 -0.00000000000E+00 -0.00000000000E+00 -0.92085230720E+03  0.92085230720E+03  0.00000000000E+00 0. -1.
    9000007    1    1    2  501    0 -0.26451489741E+03  0.11543309417E+03  0.48274753381E+02  0.49560405769E+03  0.40000000000E+03 0. -1.
   -9000007    1    1    2    0  503  0.26451489741E+03 -0.11543309417E+03 -0.60994682096E+03  0.78442848914E+03  0.40000000000E+03 0. -1.
<mgrwt>
<rscale>  2 0.49324733E+03</rscale>
<asrwt>0</asrwt>
<pdfrwt beam="1">  1       21 0.55258499E-01 0.49324733E+03</pdfrwt>
<pdfrwt beam="2">  1       21 0.14166958E+00 0.49324733E+03</pdfrwt>
<totfact> 0.88881781E+02</totfact>
</mgrwt>
</event>
<event>
 4    1  0.5013722E-002  0.6200788E+03  0.7818608E-02  0.9864603E-01
         21   -1    0    0  503  502  0.00000000000E+00  0.00000000000E+00  0.50837022970E+03  0.50837022970E+03  0.00000000000E+00 0. -1.
         21   -1    0    0  501  503 -0.00000000000E+00 -0.00000000000E+00 -0.22172110037E+04  0.22172110037E+04  0.00000000000E+00 0. -1.
    9000007    1    1    2  501    0  0.43823267046E+03  0.18013857391E+03 -0.19606172487E+04  0.20563360074E+04  0.40000000000E+03 0. -1.
   -9000007    1    1    2    0  502 -0.43823267046E+03 -0.18013857391E+03  0.25177647475E+03  0.66924522599E+03  0.40000000000E+03 0. -1.
<mgrwt>
<rscale>  2 0.62007885E+03</rscale>
<asrwt>0</asrwt>
<pdfrwt beam="1">  1       21 0.78210805E-01 0.62007885E+03</pdfrwt>
<pdfrwt beam="2">  1       21 0.34110938E+00 0.62007885E+03</pdfrwt>
<totfact> 0.18982221E+01</totfact>
</mgrwt>
</event>
<event>
 4    1  0.5013722E-002  0.4156482E+03  0.7818608E-02  0.1038492E+00
         21   -1    0    0  501  502  0.00000000000E+00  0.00000000000E+00  0.49907493777E+03  0.49907493777E+03  0.00000000000E+00 0.  1.
         21   -1    0    0  502  503 -0.00000000000E+00 -0.00000000000E+00 -0.37211790501E+03  0.37211790501E+03  0.00000000000E+00 0.  1.
    9000007    1    1    2  501    0  0.21525430376E+02  0.11090584021E+03  0.17851016128E+03  0.45235973210E+03  0.40000000000E+03 0.  1.
   -9000007    1    1    2    0  503 -0.21525430376E+02 -0.11090584021E+03 -0.51553128515E+02  0.41883311068E+03  0.40000000000E+03 0.  1.
<mgrwt>
<rscale>  2 0.41564823E+03</rscale>
<asrwt>0</asrwt>
<pdfrwt beam="1">  1       21 0.76780759E-01 0.41564823E+03</pdfrwt>
<pdfrwt beam="2">  1       21 0.57248909E-01 0.41564823E+03</pdfrwt>
<totfact> 0.38278232E+03</totfact>
</mgrwt>
</event>
<event>
 4    1  0.5013722E-002  0.4121090E+03  0.7818608E-02  0.1039666E+00
         21   -1    0    0  501  502  0.00000000000E+00  0.00000000000E+00  0.11111788884E+04  0.11111788884E+04  0.00000000000E+00 0. -1.
         21   -1    0    0  502  503 -0.00000000000E+00 -0.00000000000E+00 -0.17576953979E+03  0.17576953979E+03  0.00000000000E+00 0. -1.
    9000007    1    1    2  501    0  0.11414429428E+02 -0.98506364381E+02  0.70011032435E+03  0.81239661452E+03  0.40000000000E+03 0. -1.
   -9000007    1    1    2    0  503 -0.11414429428E+02  0.98506364381E+02  0.23529902422E+03  0.47455181363E+03  0.40000000000E+03 0. -1.
<mgrwt>
<rscale>  2 0.41210896E+03</rscale>
<asrwt>0</asrwt>
<pdfrwt beam="1">  1       21 0.17095059E+00 0.41210896E+03</pdfrwt>
<pdfrwt beam="2">  1       21 0.27041468E-01 0.41210896E+03</pdfrwt>
<totfact> 0.23774923E+03</totfact>
</mgrwt>
</event>
<event>
 4    1  0.5013722E-002  0.5402876E+03  0.7818608E-02  0.1003767E+00
         21   -1    0    0  503  502  0.00000000000E+00  0.00000000000E+00  0.53897213396E+03  0.53897213396E+03  0.00000000000E+00 0. -1.
         21   -1    0    0  501  503 -0.00000000000E+00 -0.00000000000E+00 -0.81843532651E+03  0.81843532651E+03  0.00000000000E+00 0. -1.
    9000007    1    1    2  501    0  0.26123133138E+03  0.25232702761E+03 -0.53445585326E+03  0.75996960231E+03  0.40000000000E+03 0. -1.
   -9000007    1    1    2    0  502 -0.26123133138E+03 -0.25232702761E+03  0.25499266070E+03  0.59743785816E+03  0.40000000000E+03 0. -1.
<mgrwt>
<rscale>  2 0.54028764E+03</rscale>
<asrwt>0</asrwt>
<pdfrwt beam="1">  1       21 0.82918790E-01 0.54028764E+03</pdfrwt>
<pdfrwt beam="2">  1       21 0.12591313E+00 0.54028764E+03</pdfrwt>
<totfact> 0.47816944E+02</totfact>
</mgrwt>
</event>
<event>
 4    1  0.5013722E-002  0.5158974E+03  0.7818608E-02  0.1009711E+00
         21   -1    0    0  503  502  0.00000000000E+00  0.00000000000E+00  0.85460526184E+03  0.85460526184E+03  0.00000000000E+00 0.  1.
         21   -1    0    0  501  503 -0.00000000000E+00 -0.00000000000E+00 -0.39500224671E+03  0.39500224671E+03  0.00000000000E+00 0. -1.
    9000007    1    1    2  501    0 -0.26874869304E+03  0.18418555481E+03 -0.57589703116E+02  0.51910187104E+03  0.40000000000E+03 0. -1.
   -9000007    1    1    2    0  502  0.26874869304E+03 -0.18418555481E+03  0.51719271825E+03  0.73050563750E+03  0.40000000000E+03 0.  1.
<mgrwt>
<rscale>  2 0.51589745E+03</rscale>
<asrwt>0</asrwt>
<pdfrwt beam="1">  1       21 0.13147773E+00 0.51589745E+03</pdfrwt>
<pdfrwt beam="2">  1       21 0.60769577E-01 0.51589745E+03</pdfrwt>
<totfact> 0.87232807E+02</totfact>
</mgrwt>
</event>
<event>
 4    1  0.5013722E-002  0.4380947E+03  0.7818608E-02  0.1031333E+00
         21   -1    0    0  501  502  0.00000000000E+00  0.00000000000E+00  0.94335047077E+03  0.94335047077E+03  0.00000000000E+00 0. -1.
         21   -1    0    0  502  503 -0.00000000000E+00 -0.00000000000E+00 -0.29006836035E+03  0.29006836035E+03  0.00000000000E+00 0. -1.
    9000007    1    1    2  501    0  0.17210567464E+03  0.48027515387E+02  0.66364045486E+03  0.79520164663E+03  0.40000000000E+03 0. -1.
   -9000007    1    1    2    0  503 -0.17210567464E+03 -0.48027515387E+02 -0.10358344435E+02  0.43821718449E+03  0.40000000000E+03 0. -1.
<mgrwt>
<rscale>  2 0.43809474E+03</rscale>
<asrwt>0</asrwt>
<pdfrwt beam="1">  1       21 0.14513084E+00 0.43809474E+03</pdfrwt>
<pdfrwt beam="2">  1       21 0.44625902E-01 0.43809474E+03</pdfrwt>
<totfact> 0.13424831E+03</totfact>
</mgrwt>
</event>
<event>
 4    1  0.5013722E-002  0.7693349E+03  0.7818608E-02  0.9605496E-01
         21   -1    0    0  503  502  0.00000000000E+00  0.00000000000E+00  0.14880532921E+04  0.14880532921E+04  0.00000000000E+00 0.  1.
         21   -1    0    0  501  503 -0.00000000000E+00 -0.00000000000E+00 -0.62860100500E+03  0.62860100500E+03  0.00000000000E+00 0.  1.
    9000007    1    1    2  501    0 -0.58127748480E+03  0.30658226192E+03 -0.21162576188E+03  0.79791081002E+03  0.40000000000E+03 0.  1.
   -9000007    1    1    2    0  502  0.58127748480E+03 -0.30658226192E+03  0.10710780489E+04  0.13187434870E+04  0.40000000000E+03 0.  1.
<mgrwt>
<rscale>  2 0.76933491E+03</rscale>
<asrwt>0</asrwt>
<pdfrwt beam="1">  1       21 0.22893127E+00 0.76933491E+03</pdfrwt>
<pdfrwt beam="2">  1       21 0.96707847E-01 0.76933491E+03</pdfrwt>
<totfact> 0.53260906E+01</totfact>
</mgrwt>
</event>
<event>
 4    1  0.5013722E-002  0.5800294E+03  0.7818608E-02  0.9947727E-01
         21   -1    0    0  503  502  0.00000000000E+00  0.00000000000E+00  0.38301543071E+03  0.38301543071E+03  0.00000000000E+00 0.  1.
         21   -1    0    0  501  503 -0.00000000000E+00 -0.00000000000E+00 -0.88214066602E+03  0.88214066602E+03  0.00000000000E+00 0. -1.
    9000007    1    1    2  501    0 -0.35422294428E+03 -0.22574371838E+03 -0.29085051395E+03  0.64886681384E+03  0.40000000000E+03 0.  1.
   -9000007    1    1    2    0  502  0.35422294428E+03  0.22574371838E+03 -0.20827472136E+03  0.61628928289E+03  0.40000000000E+03 0. -1.
<mgrwt>
<rscale>  2 0.58002941E+03</rscale>
<asrwt>0</asrwt>
<pdfrwt beam="1">  1       21 0.58925451E-01 0.58002941E+03</pdfrwt>
<pdfrwt beam="2">  1       21 0.13571395E+00 0.58002941E+03</pdfrwt>
<totfact> 0.83998145E+02</totfact>
</mgrwt>
</event>
<event>
 4    1  0.5013722E-002  0.4121435E+03  0.7818608E-02  0.1039654E+00
         21   -1    0    0  503  502  0.00000000000E+00  0.00000000000E+00  0.28630548641E+03  0.28630548641E+03  0.00000000000E+00 0. -1.
         21   -1    0    0  501  503 -0.00000000000E+00 -0.00000000000E+00 -0.59342240224E+03  0.59342240224E+03  0.00000000000E+00 0. -1.
    9000007    1    1    2  501    0  0.91817924300E+02  0.37838396046E+02 -0.16012064103E+03  0.44215483161E+03  0.40000000000E+03 0.  1.
   -9000007    1    1    2    0  502 -0.91817924300E+02 -0.37838396046E+02 -0.14699627481E+03  0.43757305704E+03  0.40000000000E+03 0.  1.
<mgrwt>
<rscale>  2 0.41214351E+03</rscale>
<asrwt>0</asrwt>
<pdfrwt beam="1">  1       21 0.44046998E-01 0.41214351E+03</pdfrwt>
<pdfrwt beam="2">  1       21 0.91295754E-01 0.41214351E+03</pdfrwt>
<totfact> 0.44712618E+03</totfact>
</mgrwt>
</event>
<event>
 4    1  0.5013722E-002  0.4552013E+03  0.7818608E-02  0.1026182E+00
         21   -1    0    0  503  502  0.00000000000E+00  0.00000000000E+00  0.19480615898E+04  0.19480615898E+04  0.00000000000E+00 0. -1.
         21   -1    0    0  501  503 -0.00000000000E+00 -0.00000000000E+00 -0.11907027016E+03  0.11907027016E+03  0.00000000000E+00 0. -1.
    9000007    1    1    2  501    0 -0.26526433992E+02 -0.21564914060E+03  0.57689338062E+03  0.73485656841E+03  0.40000000000E+03 0. -1.
   -9000007    1    1    2    0  502  0.26526433992E+02  0.21564914060E+03  0.12520979390E+04  0.13322752915E+04  0.40000000000E+03 0. -1.
<mgrwt>
<rscale>  2 0.45520128E+03</rscale>
<asrwt>0</asrwt>
<pdfrwt beam="1">  1       21 0.29970176E+00 0.45520128E+03</pdfrwt>
<pdfrwt beam="2">  1       21 0.18318505E-01 0.45520128E+03</pdfrwt>
<totfact> 0.74611082E+02</totfact>
</mgrwt>
</event>
<event>
 4    1  0.5013722E-002  0.4904045E+03  0.7818608E-02  0.1016314E+00
         21   -1    0    0  503  502  0.00000000000E+00  0.00000000000E+00  0.97669090878E+03  0.97669090878E+03  0.00000000000E+00 0.  1.
         21   -1    0    0  501  503 -0.00000000000E+00 -0.00000000000E+00 -0.46231804330E+03  0.46231804330E+03  0.00000000000E+00 0.  1.
    9000007    1    1    2  501    0  0.18388060533E+03  0.21606586239E+03 -0.23470849463E+03  0.54367693657E+03  0.40000000000E+03 0.  1.
   -9000007    1    1    2    0  502 -0.18388060533E+03 -0.21606586239E+03  0.74908136012E+03  0.89533201550E+03  0.40000000000E+03 0.  1.
<mgrwt>
<rscale>  2 0.49040446E+03</rscale>
<asrwt>0</asrwt>
<pdfrwt beam="1">  1       21 0.15026014E+00 0.49040446E+03</pdfrwt>
<pdfrwt beam="2">  1       21 0.71125853E-01 0.49040446E+03</pdfrwt>
<totfact> 0.43413391E+02</totfact>
</mgrwt>
</event>
<event>
 4    1  0.5013722E-002  0.4143711E+03  0.7818608E-02  0.1038914E+00
         21   -1    0    0  503  502  0.00000000000E+00  0.00000000000E+00  0.12375569444E+04  0.12375569444E+04  0.00000000000E+00 0.  1.
         21   -1    0    0  501  503 -0.00000000000E+00 -0.00000000000E+00 -0.14253552539E+03  0.14253552539E+03  0.00000000000E+00 0.  1.
    9000007    1    1    2  501    0 -0.41388373541E+02  0.99951857264E+02  0.43496362917E+03  0.60074681017E+03  0.40000000000E+03 0.  1.
   -9000007    1    1    2    0  502  0.41388373541E+02 -0.99951857264E+02  0.66005778986E+03  0.77934565963E+03  0.40000000000E+03 0.  1.
<mgrwt>
<rscale>  2 0.41437106E+03</rscale>
<asrwt>0</asrwt>
<pdfrwt beam="1">  1       21 0.19039337E+00 0.41437106E+03</pdfrwt>
<pdfrwt beam="2">  1       21 0.21928543E-01 0.41437106E+03</pdfrwt>
<totfact> 0.26041101E+03</totfact>
</mgrwt>
</event>
<event>
 4    1  0.5013722E-002  0.4069412E+03  0.7818608E-02  0.1041402E+00
         21   -1    0    0  501  502  0.00000000000E+00  0.00000000000E+00  0.46453226322E+03  0.46453226322E+03  0.00000000000E+00 0.  1.
         21   -1    0    0  502  503 -0.00000000000E+00 -0.00000000000E+00 -0.36643570066E+03  0.36643570066E+03  0.00000000000E+00 0.  1.
    9000007    1    1    2  501    0  0.45634834923E+02  0.59317830205E+02 -0.19401389901E+02  0.40740343281E+03  0.40000000000E+03 0. -1.
   -9000007    1    1    2    0  503 -0.45634834923E+02 -0.59317830205E+02  0.11749795246E+03  0.42356453106E+03  0.40000000000E+03 0. -1.
<mgrwt>
<rscale>  2 0.40694120E+03</rscale>
<asrwt>0</asrwt>
<pdfrwt beam="1">  1       21 0.71466502E-01 0.40694120E+03</pdfrwt>
<pdfrwt beam="2">  1       21 0.56374723E-01 0.40694120E+03</pdfrwt>
<totfact> 0.46726624E+03</totfact>
</mgrwt>
</event>
<event>
 4    1  0.5013722E-002  0.4625950E+03  0.7818608E-02  0.1024031E+00
         21   -1    0    0  501  502  0.00000000000E+00  0.00000000000E+00  0.81847833438E+03  0.81847833438E+03  0.00000000000E+00 0. -1.
         21   -1    0    0  502  503 -0.00000000000E+00 -0.00000000000E+00 -0.30621833812E+03  0.30621833812E+03  0.00000000000E+00 0. -1.
    9000007    1    1    2  501    0  0.21710512936E+03 -0.82821914564E+02  0.47113959403E+03  0.66027768688E+03  0.40000000000E+03 0. -1.
   -9000007    1    1    2    0  503 -0.21710512936E+03  0.82821914564E+02  0.41120402229E+02  0.46441898562E+03  0.40000000000E+03 0. -1.
<mgrwt>
<rscale>  2 0.46259497E+03</rscale>
<asrwt>0</asrwt>
<pdfrwt beam="1">  1       21 0.12591974E+00 0.46259497E+03</pdfrwt>
<pdfrwt beam="2">  1       21 0.47110514E-01 0.46259497E+03</pdfrwt>
<totfact> 0.17229544E+03</totfact>
</mgrwt>
</event>
<event>
 4    1  0.5013722E-002  0.8119151E+03  0.7818608E-02  0.9542929E-01
         21   -1    0    0  503  502  0.00000000000E+00  0.00000000000E+00  0.48179722011E+03  0.48179722011E+03  0.00000000000E+00 0. -1.
         21   -1    0    0  501  503 -0.00000000000E+00 -0.00000000000E+00 -0.14921167991E+04  0.14921167991E+04  0.00000000000E+00 0.  1.
    9000007    1    1    2  501    0 -0.54434970792E+03 -0.45043265241E+03 -0.22076535164E+03  0.84139379564E+03  0.40000000000E+03 0. -1.
   -9000007    1    1    2    0  502  0.54434970792E+03  0.45043265241E+03 -0.78955422734E+03  0.11325202236E+04  0.40000000000E+03 0.  1.
<mgrwt>
<rscale>  2 0.81191513E+03</rscale>
<asrwt>0</asrwt>
<pdfrwt beam="1">  1       21 0.74122651E-01 0.81191513E+03</pdfrwt>
<pdfrwt beam="2">  1       21 0.22955642E+00 0.81191513E+03</pdfrwt>
<totfact> 0.97754753E+01</totfact>
</mgrwt>
</event>
<event>
 4    1  0.5013722E-002  0.5387747E+03  0.7818608E-02  0.1004126E+00
         21   -1    0    0  503  502  0.00000000000E+00  0.00000000000E+00  0.40921553093E+03  0.40921553093E+03  0.00000000000E+00 0.  1.
         21   -1    0    0  501  503 -0.00000000000E+00 -0.00000000000E+00 -0.76463328966E+03  0.76463328966E+03  0.00000000000E+00 0.  1.
    9000007    1    1    2  501    0 -0.34100317932E+03  0.11830045149E+03 -0.33552148132E+03  0.63470688475E+03  0.40000000000E+03 0.  1.
   -9000007    1    1    2    0  502  0.34100317932E+03 -0.11830045149E+03 -0.19896277414E+02  0.53914193584E+03  0.40000000000E+03 0.  1.
<mgrwt>
<rscale>  2 0.53877469E+03</rscale>
<asrwt>0</asrwt>
<pdfrwt beam="1">  1       21 0.62956236E-01 0.53877469E+03</pdfrwt>
<pdfrwt beam="2">  1       21 0.11763589E+00 0.53877469E+03</pdfrwt>
<totfact> 0.10662146E+03</totfact>
</mgrwt>
</event>
<event>
 4    1  0.5013722E-002  0.4988255E+03  0.7818608E-02  0.1014086E+00
         21   -1    0    0  501  502  0.00000000000E+00  0.00000000000E+00  0.45838568698E+03  0.45838568698E+03  0.00000000000E+00 0.  1.
         21   -1    0    0  502  503 -0.00000000000E+00 -0.00000000000E+00 -0.55397720607E+03  0.55397720607E+03  0.00000000000E+00 0.  1.
    9000007    1    1    2  501    0  0.27729365433E+03 -0.10924781572E+03 -0.11958936469E+03  0.51296049762E+03  0.40000000000E+03 0.  1.
   -9000007    1    1    2    0  503 -0.27729365433E+03  0.10924781572E+03  0.23997845589E+02  0.49940239543E+03  0.40000000000E+03 0.  1.
<mgrwt>
<rscale>  2 0.49882548E+03</rscale>
<asrwt>0</asrwt>
<pdfrwt beam="1">  1       21 0.70520875E-01 0.49882548E+03</pdfrwt>
<pdfrwt beam="2">  1       21 0.85227263E-01 0.49882548E+03</pdfrwt>
<totfact> 0.18389954E+03</totfact>
</mgrwt>
</event>
<event>
 4    1  0.5013722E-002  0.4318970E+03  0.7818608E-02  0.1033262E+00
         21   -1    0    0  501  502  0.00000000000E+00  0.00000000000E+00  0.36265711823E+03  0.36265711823E+03  0.00000000000E+00 0. -1.
         21   -1    0    0  502  503 -0.00000000000E+00 -0.00000000000E+00 -0.64934774019E+03  0.64934774019E+03  0.00000000000E+00 0. -1.
    9000007    1    1    2  501    0  0.16209457228E+03 -0.16136401379E+02  0.87364882244E+02  0.44064459200E+03  0.40000000000E+03 0. -1.
   -9000007    1    1    2    0  503 -0.16209457228E+03  0.16136401379E+02 -0.37405550420E+03  0.57136026641E+03  0.40000000000E+03 0. -1.
<mgrwt>
<rscale>  2 0.43189702E+03</rscale>
<asrwt>0</asrwt>
<pdfrwt beam="1">  1       21 0.55793403E-01 0.43189702E+03</pdfrwt>
<pdfrwt beam="2">  1       21 0.99899652E-01 0.43189702E+03</pdfrwt>
<totfact> 0.21658038E+03</totfact>
</mgrwt>
</event>
<event>
 4    1  0.5013722E-002  0.4867538E+03  0.7818608E-02  0.1017295E+00
         21   -1    0    0  501  502  0.00000000000E+00  0.00000000000E+00  0.38440958800E+03  0.38440958800E+03  0.00000000000E+00 0.  1.
         21   -1    0    0  502  503 -0.00000000000E+00 -0.00000000000E+00 -0.63309623512E+03  0.63309623512E+03  0.00000000000E+00 0.  1.
    9000007    1    1    2  501    0 -0.22450178907E+03 -0.16287481966E+03 -0.20709641772E+03  0.52897843662E+03  0.40000000000E+03 0.  1.
   -9000007    1    1    2    0  503  0.22450178907E+03  0.16287481966E+03 -0.41590229396E+02  0.48852738650E+03  0.40000000000E+03 0.  1.
<mgrwt>
<rscale>  2 0.48675380E+03</rscale>
<asrwt>0</asrwt>
<pdfrwt beam="1">  1       21 0.59139937E-01 0.48675380E+03</pdfrwt>
<pdfrwt beam="2">  1       21 0.97399420E-01 0.48675380E+03</pdfrwt>
<totfact> 0.19879447E+03</totfact>
</mgrwt>
</event>
<event>
 4    1  0.5013722E-002  0.4334659E+03  0.7818608E-02  0.1032771E+00
         21   -1    0    0  503  502  0.00000000000E+00  0.00000000000E+00  0.45844301365E+03  0.45844301365E+03  0.00000000000E+00 0. -1.
         21   -1    0    0  501  503 -0.00000000000E+00 -0.00000000000E+00 -0.50860204670E+03  0.50860204670E+03  0.00000000000E+00 0. -1.
    9000007    1    1    2  501    0  0.16677013492E+03  0.89668956060E+01 -0.23813936238E+03  0.49457359314E+03  0.40000000000E+03 0. -1.
   -9000007    1    1    2    0  502 -0.16677013492E+03 -0.89668956060E+01  0.18798032933E+03  0.47247146721E+03  0.40000000000E+03 0. -1.
<mgrwt>
<rscale>  2 0.43346590E+03</rscale>
<asrwt>0</asrwt>
<pdfrwt beam="1">  1       21 0.70529695E-01 0.43346590E+03</pdfrwt>
<pdfrwt beam="2">  1       21 0.78246468E-01 0.43346590E+03</pdfrwt>
<totfact> 0.22956021E+03</totfact>
</mgrwt>
</event>
<event>
 4    1  0.5013722E-002  0.4241996E+03  0.7818608E-02  0.1035708E+00
         21   -1    0    0  503  502  0.00000000000E+00  0.00000000000E+00  0.90969374043E+03  0.90969374043E+03  0.00000000000E+00 0.  1.
         21   -1    0    0  501  503 -0.00000000000E+00 -0.00000000000E+00 -0.23451722237E+03  0.23451722237E+03  0.00000000000E+00 0.  1.
    9000007    1    1    2  501    0  0.94047162734E+02  0.10535860791E+03  0.11124248427E+03  0.43854326513E+03  0.40000000000E+03 0.  1.
   -9000007    1    1    2    0  502 -0.94047162734E+02 -0.10535860791E+03  0.56393403379E+03  0.70566769768E+03  0.40000000000E+03 0.  1.
<mgrwt>
<rscale>  2 0.42419961E+03</rscale>
<asrwt>0</asrwt>
<pdfrwt beam="1">  1       21 0.13995288E+00 0.42419961E+03</pdfrwt>
<pdfrwt beam="2">  1       21 0.36079573E-01 0.42419961E+03</pdfrwt>
<totfact> 0.23051766E+03</totfact>
</mgrwt>
</event>
<event>
 4    1  0.5013722E-002  0.4091394E+03  0.7818608E-02  0.1040660E+00
         21   -1    0    0  503  502  0.00000000000E+00  0.00000000000E+00  0.43033513003E+03  0.43033513003E+03  0.00000000000E+00 0. -1.
         21   -1    0    0  501  503 -0.00000000000E+00 -0.00000000000E+00 -0.42791001666E+03  0.42791001666E+03  0.00000000000E+00 0. -1.
    9000007    1    1    2  501    0 -0.39857541233E+02  0.76199838368E+02 -0.12820849045E+03  0.42875687281E+03  0.40000000000E+03 0. -1.
   -9000007    1    1    2    0  502  0.39857541233E+02 -0.76199838368E+02  0.13063360381E+03  0.42948827389E+03  0.40000000000E+03 0. -1.
<mgrwt>
<rscale>  2 0.40913939E+03</rscale>
<asrwt>0</asrwt>
<pdfrwt beam="1">  1       21 0.66205405E-01 0.40913939E+03</pdfrwt>
<pdfrwt beam="2">  1       21 0.65832310E-01 0.40913939E+03</pdfrwt>
<totfact> 0.39436283E+03</totfact>
</mgrwt>
</event>
<event>
 4    1  0.5013722E-002  0.4191199E+03  0.7818608E-02  0.1037353E+00
         21   -1    0    0  501  502  0.00000000000E+00  0.00000000000E+00  0.35613064655E+03  0.35613064655E+03  0.00000000000E+00 0.  1.
         21   -1    0    0  502  503 -0.00000000000E+00 -0.00000000000E+00 -0.10070365871E+04  0.10070365871E+04  0.00000000000E+00 0.  1.
    9000007    1    1    2  501    0  0.27366135878E+02  0.12211693774E+03  0.16138886044E+03  0.44911893319E+03  0.40000000000E+03 0.  1.
   -9000007    1    1    2    0  503 -0.27366135878E+02 -0.12211693774E+03 -0.81229480100E+03  0.91404830048E+03  0.40000000000E+03 0.  1.
<mgrwt>
<rscale>  2 0.41911985E+03</rscale>
<asrwt>0</asrwt>
<pdfrwt beam="1">  1       21 0.54789331E-01 0.41911985E+03</pdfrwt>
<pdfrwt beam="2">  1       21 0.15492870E+00 0.41911985E+03</pdfrwt>
<totfact> 0.73390268E+02</totfact>
</mgrwt>
</event>
<event>
 4    1  0.5013722E-002  0.4867500E+03  0.7818608E-02  0.1017296E+00
         21   -1    0    0  501  502  0.00000000000E+00  0.00000000000E+00  0.16824240296E+03  0.16824240296E+03  0.00000000000E+00 0. -1.
         21   -1    0    0  502  503 -0.00000000000E+00 -0.00000000000E+00 -0.14135286094E+04  0.14135286094E+04  0.00000000000E+00 0. -1.
    9000007    1    1    2  501    0 -0.20062868369E+03 -0.19150372754E+03 -0.57426319404E+03  0.75279729171E+03  0.40000000000E+03 0. -1.
   -9000007    1    1    2    0  503  0.20062868369E+03  0.19150372754E+03 -0.67102301242E+03  0.82897372068E+03  0.40000000000E+03 0. -1.
<mgrwt>
<rscale>  2 0.48674998E+03</rscale>
<asrwt>0</asrwt>
<pdfrwt beam="1">  1       21 0.25883447E-01 0.48674998E+03</pdfrwt>
<pdfrwt beam="2">  1       21 0.21746593E+00 0.48674998E+03</pdfrwt>
<totfact> 0.12116880E+03</totfact>
</mgrwt>
</event>
<event>
 4    1  0.5013722E-002  0.5515841E+03  0.7818608E-02  0.1001128E+00
         21   -1    0    0  501  502  0.00000000000E+00  0.00000000000E+00  0.70568108258E+03  0.70568108258E+03  0.00000000000E+00 0.  1.
         21   -1    0    0  502  503 -0.00000000000E+00 -0.00000000000E+00 -0.44812418500E+03  0.44812418500E+03  0.00000000000E+00 0.  1.
    9000007    1    1    2  501    0  0.37124837286E+03  0.80122530402E+02  0.24110141897E+03  0.60197580388E+03  0.40000000000E+03 0.  1.
   -9000007    1    1    2    0  503 -0.37124837286E+03 -0.80122530402E+02  0.16455478610E+02  0.55182946370E+03  0.40000000000E+03 0.  1.
<mgrwt>
<rscale>  2 0.55158406E+03</rscale>
<asrwt>0</asrwt>
<pdfrwt beam="1">  1       21 0.10856632E+00 0.55158406E+03</pdfrwt>
<pdfrwt beam="2">  1       21 0.68942182E-01 0.55158406E+03</pdfrwt>
<totfact> 0.10594145E+03</totfact>
</mgrwt>
</event>
<event>
 4    1  0.5013722E-002  0.4307839E+03  0.7818608E-02  0.1033613E+00
         21   -1    0    0  501  502  0.00000000000E+00  0.00000000000E+00  0.30793163311E+03  0.30793163311E+03  0.00000000000E+00 0.  1.
         21   -1    0    0  502  503 -0.00000000000E+00 -0.00000000000E+00 -0.94524679507E+03  0.94524679507E+03  0.00000000000E+00 0.  1.
    9000007    1    1    2  501    0 -0.36999013945E+02 -0.15558233216E+03  0.58569086870E+02  0.43474719901E+03  0.40000000000E+03 0.  1.
   -9000007    1    1    2    0  503  0.36999013945E+02  0.15558233216E+03 -0.69588424882E+03  0.81843122917E+03  0.40000000000E+03 0.  1.
<mgrwt>
<rscale>  2 0.43078392E+03</rscale>
<asrwt>0</asrwt>
<pdfrwt beam="1">  1       21 0.47374098E-01 0.43078392E+03</pdfrwt>
<pdfrwt beam="2">  1       21 0.14542258E+00 0.43078392E+03</pdfrwt>
<totfact> 0.11815058E+03</totfact>
</mgrwt>
</event>
<event>
 4    1  0.5013722E-002  0.4029255E+03  0.7818608E-02  0.1042771E+00
         21   -1    0    0  503  502  0.00000000000E+00  0.00000000000E+00  0.43974660700E+03  0.43974660700E+03  0.00000000000E+00 0. -1.
         21   -1    0    0  501  503 -0.00000000000E+00 -0.00000000000E+00 -0.67684858407E+03  0.67684858407E+03  0.00000000000E+00 0. -1.
    9000007    1    1    2  501    0 -0.48084445286E+02 -0.60724206920E+01 -0.49495671119E+03  0.63822498707E+03  0.40000000000E+03 0. -1.
   -9000007    1    1    2    0  502  0.48084445286E+02  0.60724206920E+01  0.25785473411E+03  0.47837020400E+03  0.40000000000E+03 0. -1.
<mgrwt>
<rscale>  2 0.40292554E+03</rscale>
<asrwt>0</asrwt>
<pdfrwt beam="1">  1       21 0.67653325E-01 0.40292554E+03</pdfrwt>
<pdfrwt beam="2">  1       21 0.10413055E+00 0.40292554E+03</pdfrwt>
<totfact> 0.12971634E+03</totfact>
</mgrwt>
</event>
<event>
 4    1  0.5013722E-002  0.4222518E+03  0.7818608E-02  0.1036336E+00
         21   -1    0    0  501  502  0.00000000000E+00  0.00000000000E+00  0.13034454310E+04  0.13034454310E+04  0.00000000000E+00 0. -1.
         21   -1    0    0  502  503 -0.00000000000E+00 -0.00000000000E+00 -0.16730827010E+03  0.16730827010E+03  0.00000000000E+00 0. -1.
    9000007    1    1    2  501    0 -0.13526120018E+03 -0.10040417968E+01  0.88214872831E+03  0.97799947813E+03  0.40000000000E+03 0. -1.
   -9000007    1    1    2    0  503  0.13526120018E+03  0.10040417968E+01  0.25398843262E+03  0.49275422299E+03  0.40000000000E+03 0. -1.
<mgrwt>
<rscale>  2 0.42225182E+03</rscale>
<asrwt>0</asrwt>
<pdfrwt beam="1">  1       21 0.20053006E+00 0.42225182E+03</pdfrwt>
<pdfrwt beam="2">  1       21 0.25739735E-01 0.42225182E+03</pdfrwt>
<totfact> 0.16269886E+03</totfact>
</mgrwt>
</event>
<event>
 4    1  0.5013722E-002  0.4905270E+03  0.7818608E-02  0.1016281E+00
         21   -1    0    0  503  502  0.00000000000E+00  0.00000000000E+00  0.55038891831E+03  0.55038891831E+03  0.00000000000E+00 0. -1.
         21   -1    0    0  501  503 -0.00000000000E+00 -0.00000000000E+00 -0.48814073118E+03  0.48814073118E+03  0.00000000000E+00 0. -1.
    9000007    1    1    2  501    0  0.34030113830E+02 -0.28188426194E+03 -0.13666029862E+03  0.50920803508E+03  0.40000000000E+03 0. -1.
   -9000007    1    1    2    0  502 -0.34030113830E+02  0.28188426194E+03  0.19890848574E+03  0.52932161440E+03  0.40000000000E+03 0. -1.
<mgrwt>
<rscale>  2 0.49052705E+03</rscale>
<asrwt>0</asrwt>
<pdfrwt beam="1">  1       21 0.84675218E-01 0.49052705E+03</pdfrwt>
<pdfrwt beam="2">  1       21 0.75098574E-01 0.49052705E+03</pdfrwt>
<totfact> 0.16231153E+03</totfact>
</mgrwt>
</event>
<event>
 4    1  0.5013722E-002  0.6379796E+03  0.7818608E-02  0.9829600E-01
         21   -1    0    0  503  502  0.00000000000E+00  0.00000000000E+00  0.74642264343E+03  0.74642264343E+03  0.00000000000E+00 0. -1.
         21   -1    0    0  501  503 -0.00000000000E+00 -0.00000000000E+00 -0.61412158831E+03  0.61412158831E+03  0.00000000000E+00 0.  1.
    9000007    1    1    2  501    0  0.49667681351E+03 -0.18170514248E+02 -0.16159204422E+03  0.65812613793E+03  0.40000000000E+03 0.  1.
   -9000007    1    1    2    0  502 -0.49667681351E+03  0.18170514248E+02  0.29389309935E+03  0.70241809381E+03  0.40000000000E+03 0. -1.
<mgrwt>
<rscale>  2 0.63797964E+03</rscale>
<asrwt>0</asrwt>
<pdfrwt beam="1">  1       21 0.11483425E+00 0.63797964E+03</pdfrwt>
<pdfrwt beam="2">  1       21 0.94480244E-01 0.63797964E+03</pdfrwt>
<totfact> 0.42929966E+02</totfact>
</mgrwt>
</event>
<event>
 4    1  0.5013722E-002  0.4611825E+03  0.7818608E-02  0.1024439E+00
         21   -1    0    0  503  502  0.00000000000E+00  0.00000000000E+00  0.13903219999E+03  0.13903219999E+03  0.00000000000E+00 0.  1.
         21   -1    0    0  501  503 -0.00000000000E+00 -0.00000000000E+00 -0.17672186849E+04  0.17672186849E+04  0.00000000000E+00 0.  1.
    9000007    1    1    2  501    0 -0.22685252457E+03  0.35031667076E+02 -0.11634560456E+04  0.12515267698E+04  0.40000000000E+03 0.  1.
   -9000007    1    1    2    0  502  0.22685252457E+03 -0.35031667076E+02 -0.46473043931E+03  0.65472411505E+03  0.40000000000E+03 0.  1.
<mgrwt>
<rscale>  2 0.46118249E+03</rscale>
<asrwt>0</asrwt>
<pdfrwt beam="1">  1       21 0.21389570E-01 0.46118249E+03</pdfrwt>
<pdfrwt beam="2">  1       21 0.27187978E+00 0.46118249E+03</pdfrwt>
<totfact> 0.81484144E+02</totfact>
</mgrwt>
</event>
<event>
 4    1  0.5013722E-002  0.4604786E+03  0.7818608E-02  0.1024642E+00
         21   -1    0    0  501  502  0.00000000000E+00  0.00000000000E+00  0.13979475665E+04  0.13979475665E+04  0.00000000000E+00 0. -1.
         21   -1    0    0  502  503 -0.00000000000E+00 -0.00000000000E+00 -0.44123293192E+03  0.44123293192E+03  0.00000000000E+00 0.  1.
    9000007    1    1    2  501    0  0.42830336729E+02 -0.22406728393E+03  0.12233027055E+04  0.13070998794E+04  0.40000000000E+03 0. -1.
   -9000007    1    1    2    0  503 -0.42830336729E+02  0.22406728393E+03 -0.26658807099E+03  0.53208061895E+03  0.40000000000E+03 0.  1.
<mgrwt>
<rscale>  2 0.46047865E+03</rscale>
<asrwt>0</asrwt>
<pdfrwt beam="1">  1       21 0.21506885E+00 0.46047865E+03</pdfrwt>
<pdfrwt beam="2">  1       21 0.67881990E-01 0.46047865E+03</pdfrwt>
<totfact> 0.17064547E+02</totfact>
</mgrwt>
</event>
<event>
 4    1  0.5013722E-002  0.4235670E+03  0.7818608E-02  0.1035912E+00
         21   -1    0    0  503  502  0.00000000000E+00  0.00000000000E+00  0.85141480224E+03  0.85141480224E+03  0.00000000000E+00 0. -1.
         21   -1    0    0  501  503 -0.00000000000E+00 -0.00000000000E+00 -0.21498902478E+03  0.21498902478E+03  0.00000000000E+00 0. -1.
    9000007    1    1    2  501    0 -0.18542727719E+02  0.13807676725E+03  0.24306554350E+03  0.48835426162E+03  0.40000000000E+03 0. -1.
   -9000007    1    1    2    0  502  0.18542727719E+02 -0.13807676725E+03  0.39336023396E+03  0.57804956541E+03  0.40000000000E+03 0. -1.
<mgrwt>
<rscale>  2 0.42356703E+03</rscale>
<asrwt>0</asrwt>
<pdfrwt beam="1">  1       21 0.13098689E+00 0.42356703E+03</pdfrwt>
<pdfrwt beam="2">  1       21 0.33075235E-01 0.42356703E+03</pdfrwt>
<totfact> 0.32688256E+03</totfact>
</mgrwt>
</event>
<event>
 4    1  0.5013722E-002  0.4149456E+03  0.7818608E-02  0.1038724E+00
         21   -1    0    0  501  502  0.00000000000E+00  0.00000000000E+00  0.47019276845E+03  0.47019276845E+03  0.00000000000E+00 0. -1.
         21   -1    0    0  502  503 -0.00000000000E+00 -0.00000000000E+00 -0.51680567161E+03  0.51680567161E+03  0.00000000000E+00 0. -1.
    9000007    1    1    2  501    0  0.10610035391E+03  0.30374055511E+02  0.24310812458E+03  0.48091727832E+03  0.40000000000E+03 0. -1.
   -9000007    1    1    2    0  503 -0.10610035391E+03 -0.30374055511E+02 -0.28972102774E+03  0.50608116174E+03  0.40000000000E+03 0. -1.
<mgrwt>
<rscale>  2 0.41494562E+03</rscale>
<asrwt>0</asrwt>
<pdfrwt beam="1">  1       21 0.72337349E-01 0.41494562E+03</pdfrwt>
<pdfrwt beam="2">  1       21 0.79508565E-01 0.41494562E+03</pdfrwt>
<totfact> 0.21049830E+03</totfact>
</mgrwt>
</event>
<event>
 4    1  0.5013722E-002  0.4691187E+03  0.7818608E-02  0.1022169E+00
         21   -1    0    0  501  502  0.00000000000E+00  0.00000000000E+00  0.25329433224E+03  0.25329433224E+03  0.00000000000E+00 0. -1.
         21   -1    0    0  502  503 -0.00000000000E+00 -0.00000000000E+00 -0.98343134566E+03  0.98343134566E+03  0.00000000000E+00 0. -1.
    9000007    1    1    2  501    0  0.15854417552E+03  0.18691206065E+03 -0.15398887723E+03  0.49374583373E+03  0.40000000000E+03 0. -1.
   -9000007    1    1    2    0  503 -0.15854417552E+03 -0.18691206065E+03 -0.57614813619E+03  0.74297984417E+03  0.40000000000E+03 0. -1.
<mgrwt>
<rscale>  2 0.46911872E+03</rscale>
<asrwt>0</asrwt>
<pdfrwt beam="1">  1       21 0.38968359E-01 0.46911872E+03</pdfrwt>
<pdfrwt beam="2">  1       21 0.15129713E+00 0.46911872E+03</pdfrwt>
<totfact> 0.15687277E+03</totfact>
</mgrwt>
</event>
<event>
 4    1  0.5013722E-002  0.4553899E+03  0.7818608E-02  0.1026127E+00
         21   -1    0    0  501  502  0.00000000000E+00  0.00000000000E+00  0.16695827203E+03  0.16695827203E+03  0.00000000000E+00 0.  1.
         21   -1    0    0  502  503 -0.00000000000E+00 -0.00000000000E+00 -0.13442558539E+04  0.13442558539E+04  0.00000000000E+00 0. -1.
    9000007    1    1    2  501    0 -0.19260964115E+03 -0.10139759418E+03 -0.38035661035E+03  0.59333893940E+03  0.40000000000E+03 0.  1.
   -9000007    1    1    2    0  503  0.19260964115E+03  0.10139759418E+03 -0.79694097149E+03  0.91787518651E+03  0.40000000000E+03 0. -1.
<mgrwt>
<rscale>  2 0.45538988E+03</rscale>
<asrwt>0</asrwt>
<pdfrwt beam="1">  1       21 0.25685887E-01 0.45538988E+03</pdfrwt>
<pdfrwt beam="2">  1       21 0.20680860E+00 0.45538988E+03</pdfrwt>
<totfact> 0.14628327E+03</totfact>
</mgrwt>
</event>
<event>
 4    1  0.5013722E-002  0.4797552E+03  0.7818608E-02  0.1019202E+00
         21   -1    0    0  503  502  0.00000000000E+00  0.00000000000E+00  0.14681206562E+04  0.14681206562E+04  0.00000000000E+00 0.  1.
         21   -1    0    0  501  503 -0.00000000000E+00 -0.00000000000E+00 -0.26545802531E+03  0.26545802531E+03  0.00000000000E+00 0. -1.
    9000007    1    1    2  501    0 -0.12321920065E+03 -0.23448258817E+03  0.46710846909E+02  0.48202381558E+03  0.40000000000E+03 0. -1.
   -9000007    1    1    2    0  502  0.12321920065E+03  0.23448258817E+03  0.11559517840E+04  0.12515548660E+04  0.40000000000E+03 0.  1.
<mgrwt>
<rscale>  2 0.47975520E+03</rscale>
<asrwt>0</asrwt>
<pdfrwt beam="1">  1       21 0.22586471E+00 0.47975520E+03</pdfrwt>
<pdfrwt beam="2">  1       21 0.40839697E-01 0.47975520E+03</pdfrwt>
<totfact> 0.42951436E+02</totfact>
</mgrwt>
</event>
<event>
 4    1  0.5013722E-002  0.5839311E+03  0.7818608E-02  0.9939316E-01
         21   -1    0    0  503  502  0.00000000000E+00  0.00000000000E+00  0.77263432884E+03  0.77263432884E+03  0.00000000000E+00 0. -1.
         21   -1    0    0  501  503 -0.00000000000E+00 -0.00000000000E+00 -0.45619789423E+03  0.45619789423E+03  0.00000000000E+00 0. -1.
    9000007    1    1    2  501    0 -0.36934023851E+03  0.21110024856E+03  0.47244035410E+02  0.58583916360E+03  0.40000000000E+03 0. -1.
   -9000007    1    1    2    0  502  0.36934023851E+03 -0.21110024856E+03  0.26919239921E+03  0.64299305947E+03  0.40000000000E+03 0. -1.
<mgrwt>
<rscale>  2 0.58393110E+03</rscale>
<asrwt>0</asrwt>
<pdfrwt beam="1">  1       21 0.11886682E+00 0.58393110E+03</pdfrwt>
<pdfrwt beam="2">  1       21 0.70184292E-01 0.58393110E+03</pdfrwt>
<totfact> 0.80167054E+02</totfact>
</mgrwt>
</event>
<event>
 4    1  0.5013722E-002  0.4742229E+03  0.7818608E-02  0.1020735E+00
         21   -1    0    0  501  502  0.00000000000E+00  0.00000000000E+00  0.54760780222E+03  0.54760780222E+03  0.00000000000E+00 0.  1.
         21   -1    0    0  502  503 -0.00000000000E+00 -0.00000000000E+00 -0.59044886502E+03  0.59044886502E+03  0.00000000000E+00 0. -1.
    9000007    1    1    2  501    0 -0.23000400823E+03 -0.10947830480E+03  0.29256476614E+03  0.55720865518E+03  0.40000000000E+03 0.  1.
   -9000007    1    1    2    0  503  0.23000400823E+03  0.10947830480E+03 -0.33540582894E+03  0.58084801206E+03  0.40000000000E+03 0.  1.
<mgrwt>
<rscale>  2 0.47422288E+03</rscale>
<asrwt>0</asrwt>
<pdfrwt beam="1">  1       21 0.84247354E-01 0.47422288E+03</pdfrwt>
<pdfrwt beam="2">  1       21 0.90838287E-01 0.47422288E+03</pdfrwt>
<totfact> 0.10606613E+03</totfact>
</mgrwt>
</event>
<event>
 4    1  0.5013722E-002  0.5086651E+03  0.7818608E-02  0.1011542E+00
         21   -1    0    0  503  502  0.00000000000E+00  0.00000000000E+00  0.61756596244E+03  0.61756596244E+03  0.00000000000E+00 0. -1.
         21   -1    0    0  501  503 -0.00000000000E+00 -0.00000000000E+00 -0.42392298890E+03  0.42392298890E+03  0.00000000000E+00 0. -1.
    9000007    1    1    2  501    0 -0.15278366463E+03 -0.27458578075E+03  0.40520619015E+02  0.51027651302E+03  0.40000000000E+03 0. -1.
   -9000007    1    1    2    0  502  0.15278366463E+03  0.27458578075E+03  0.15312235453E+03  0.53121243832E+03  0.40000000000E+03 0. -1.
<mgrwt>
<rscale>  2 0.50866511E+03</rscale>
<asrwt>0</asrwt>
<pdfrwt beam="1">  1       21 0.95010148E-01 0.50866511E+03</pdfrwt>
<pdfrwt beam="2">  1       21 0.65218921E-01 0.50866511E+03</pdfrwt>
<totfact> 0.16875348E+03</totfact>
</mgrwt>
</event>
<event>
 4    1  0.5013722E-002  0.4190866E+03  0.7818608E-02  0.1037364E+00
         21   -1    0    0  503  502  0.00000000000E+00  0.00000000000E+00  0.55534011253E+03  0.55534011253E+03  0.00000000000E+00 0. -1.
         21   -1    0    0  501  503 -0.00000000000E+00 -0.00000000000E+00 -0.35378809185E+03  0.35378809185E+03  0.00000000000E+00 0. -1.
    9000007    1    1    2  501    0  0.87487544878E+02  0.89328298906E+02 -0.47265504859E+02  0.42174357546E+03  0.40000000000E+03 0. -1.
   -9000007    1    1    2    0  502 -0.87487544878E+02 -0.89328298906E+02  0.24881752554E+03  0.48738462892E+03  0.40000000000E+03 0. -1.
<mgrwt>
<rscale>  2 0.41908664E+03</rscale>
<asrwt>0</asrwt>
<pdfrwt beam="1">  1       21 0.85436941E-01 0.41908664E+03</pdfrwt>
<pdfrwt beam="2">  1       21 0.54428937E-01 0.41908664E+03</pdfrwt>
<totfact> 0.33305704E+03</totfact>
</mgrwt>
</event>
<event>
 4    1  0.5013722E-002  0.4558533E+03  0.7818608E-02  0.1025991E+00
         21   -1    0    0  503  502  0.00000000000E+00  0.00000000000E+00  0.37552478879E+03  0.37552478879E+03  0.00000000000E+00 0. -1.
         21   -1    0    0  501  503 -0.00000000000E+00 -0.00000000000E+00 -0.56444362942E+03  0.56444362942E+03  0.00000000000E+00 0. -1.
    9000007    1    1    2  501    0  0.89026485992E+02  0.19969116187E+03 -0.16030338384E+03  0.48321780825E+03  0.40000000000E+03 0. -1.
   -9000007    1    1    2    0  502 -0.89026485992E+02 -0.19969116187E+03 -0.28615456794E+02  0.45675060997E+03  0.40000000000E+03 0. -1.
<mgrwt>
<rscale>  2 0.45585335E+03</rscale>
<asrwt>0</asrwt>
<pdfrwt beam="1">  1       21 0.57773045E-01 0.45585335E+03</pdfrwt>
<pdfrwt beam="2">  1       21 0.86837481E-01 0.45585335E+03</pdfrwt>
<totfact> 0.27803588E+03</totfact>
</mgrwt>
</event>
<event>
 4    1  0.5013722E-002  0.4585793E+03  0.7818608E-02  0.1025194E+00
         21   -1    0    0  503  502  0.00000000000E+00  0.00000000000E+00  0.38027439862E+03  0.38027439862E+03  0.00000000000E+00 0. -1.
         21   -1    0    0  501  503 -0.00000000000E+00 -0.00000000000E+00 -0.70447654230E+03  0.70447654230E+03  0.00000000000E+00 0. -1.
    9000007    1    1    2  501    0 -0.18739138825E+03 -0.12320487442E+03 -0.41359487161E+03  0.61754003214E+03  0.40000000000E+03 0. -1.
   -9000007    1    1    2    0  502  0.18739138825E+03  0.12320487442E+03  0.89392727927E+02  0.46721090878E+03  0.40000000000E+03 0. -1.
<mgrwt>
<rscale>  2 0.45857930E+03</rscale>
<asrwt>0</asrwt>
<pdfrwt beam="1">  1       21 0.58503754E-01 0.45857930E+03</pdfrwt>
<pdfrwt beam="2">  1       21 0.10838101E+00 0.45857930E+03</pdfrwt>
<totfact> 0.15830123E+03</totfact>
</mgrwt>
</event>
<event>
 4    1  0.5013722E-002  0.4193945E+03  0.7818608E-02  0.1037264E+00
         21   -1    0    0  503  502  0.00000000000E+00  0.00000000000E+00  0.74581536300E+03  0.74581536300E+03  0.00000000000E+00 0.  1.
         21   -1    0    0  501  503 -0.00000000000E+00 -0.00000000000E+00 -0.35812666811E+03  0.35812666811E+03  0.00000000000E+00 0.  1.
    9000007    1    1    2  501    0  0.12365245304E+03 -0.24531585595E+02 -0.12870097916E+03  0.43869769759E+03  0.40000000000E+03 0.  1.
   -9000007    1    1    2    0  502 -0.12365245304E+03  0.24531585595E+02  0.51638967404E+03  0.66524433353E+03  0.40000000000E+03 0.  1.
<mgrwt>
<rscale>  2 0.41939448E+03</rscale>
<asrwt>0</asrwt>
<pdfrwt beam="1">  1       21 0.11474083E+00 0.41939448E+03</pdfrwt>
<pdfrwt beam="2">  1       21 0.55096410E-01 0.41939448E+03</pdfrwt>
<totfact> 0.15896376E+03</totfact>
</mgrwt>
</event>
<event>
 4    1  0.5013722E-002  0.5107150E+03  0.7818608E-02  0.1011019E+00
         21   -1    0    0  503  502  0.00000000000E+00  0.00000000000E+00  0.90831317425E+03  0.90831317425E+03  0.00000000000E+00 0.  1.
         21   -1    0    0  501  503 -0.00000000000E+00 -0.00000000000E+00 -0.29773819097E+03  0.29773819097E+03  0.00000000000E+00 0.  1.
    9000007    1    1    2  501    0 -0.31672732779E+03  0.22662476087E+02  0.19161473344E+03  0.54547776679E+03  0.40000000000E+03 0. -1.
   -9000007    1    1    2    0  502  0.31672732779E+03 -0.22662476087E+02  0.41896024984E+03  0.66057359842E+03  0.40000000000E+03 0. -1.
<mgrwt>
<rscale>  2 0.51071498E+03</rscale>
<asrwt>0</asrwt>
<pdfrwt beam="1">  1       21 0.13974049E+00 0.51071498E+03</pdfrwt>
<pdfrwt beam="2">  1       21 0.45805876E-01 0.51071498E+03</pdfrwt>
<totfact> 0.13673169E+03</totfact>
</mgrwt>
</event>
<event>
 4    1  0.5013722E-002  0.4568912E+03  0.7818608E-02  0.1025687E+00
         21   -1    0    0  503  502  0.00000000000E+00  0.00000000000E+00  0.89475751255E+03  0.89475751255E+03  0.00000000000E+00 0.  1.
         21   -1    0    0  501  503 -0.00000000000E+00 -0.00000000000E+00 -0.33551820301E+03  0.33551820301E+03  0.00000000000E+00 0. -1.
    9000007    1    1    2  501    0  0.11175538240E+03  0.19042126694E+03  0.61914513172E+03  0.76947398821E+03  0.40000000000E+03 0.  1.
   -9000007    1    1    2    0  502 -0.11175538240E+03 -0.19042126694E+03 -0.59905822180E+02  0.46080172735E+03  0.40000000000E+03 0. -1.
<mgrwt>
<rscale>  2 0.45689115E+03</rscale>
<asrwt>0</asrwt>
<pdfrwt beam="1">  1       21 0.13765500E+00 0.45689115E+03</pdfrwt>
<pdfrwt beam="2">  1       21 0.51618185E-01 0.45689115E+03</pdfrwt>
<totfact> 0.11275652E+03</totfact>
</mgrwt>
</event>
<event>
 4    1  0.5013722E-002  0.4264155E+03  0.7818608E-02  0.1034998E+00
         21   -1    0    0  501  502  0.00000000000E+00  0.00000000000E+00  0.35156986568E+03  0.35156986568E+03  0.00000000000E+00 0.  1.
         21   -1    0    0  502  503 -0.00000000000E+00 -0.00000000000E+00 -0.99225334346E+03  0.99225334346E+03  0.00000000000E+00 0. -1.
    9000007    1    1    2  501    0  0.13364176219E+03  0.63008551131E+02  0.14457405868E+03  0.45025754470E+03  0.40000000000E+03 0.  1.
   -9000007    1    1    2    0  503 -0.13364176219E+03 -0.63008551131E+02 -0.78525753646E+03  0.89356566445E+03  0.40000000000E+03 0. -1.
<mgrwt>
<rscale>  2 0.42641552E+03</rscale>
<asrwt>0</asrwt>
<pdfrwt beam="1">  1       21 0.54087671E-01 0.42641552E+03</pdfrwt>
<pdfrwt beam="2">  1       21 0.15265436E+00 0.42641552E+03</pdfrwt>
<totfact> 0.78293548E+02</totfact>
</mgrwt>
</event>
<event>
 4    1  0.5013722E-002  0.4889145E+03  0.7818608E-02  0.1016714E+00
         21   -1    0    0  501  502  0.00000000000E+00  0.00000000000E+00  0.33136768648E+03  0.33136768648E+03  0.00000000000E+00 0.  1.
         21   -1    0    0  502  503 -0.00000000000E+00 -0.00000000000E+00 -0.73819036646E+03  0.73819036646E+03  0.00000000000E+00 0.  1.
    9000007    1    1    2  501    0  0.20456753006E+03  0.19284572394E+03 -0.12267651653E+03  0.50407030790E+03  0.40000000000E+03 0.  1.
   -9000007    1    1    2    0  503 -0.20456753006E+03 -0.19284572394E+03 -0.28414616345E+03  0.56548774505E+03  0.40000000000E+03 0.  1.
<mgrwt>
<rscale>  2 0.48891446E+03</rscale>
<asrwt>0</asrwt>
<pdfrwt beam="1">  1       21 0.50979645E-01 0.48891446E+03</pdfrwt>
<pdfrwt beam="2">  1       21 0.11356775E+00 0.48891446E+03</pdfrwt>
<totfact> 0.18757741E+03</totfact>
</mgrwt>
</event>
<event>
 4    1  0.5013722E-002  0.4138699E+03  0.7818608E-02  0.1039080E+00
         21   -1    0    0  503  502  0.00000000000E+00  0.00000000000E+00  0.90063417502E+03  0.90063417502E+03  0.00000000000E+00 0. -1.
         21   -1    0    0  501  503 -0.00000000000E+00 -0.00000000000E+00 -0.24051272084E+03  0.24051272084E+03  0.00000000000E+00 0. -1.
    9000007    1    1    2  501    0  0.83283677967E+02  0.65970594800E+02  0.69060724720E+02  0.41959227125E+03  0.40000000000E+03 0. -1.
   -9000007    1    1    2    0  502 -0.83283677967E+02 -0.65970594800E+02  0.59106072946E+03  0.72155462461E+03  0.40000000000E+03 0. -1.
<mgrwt>
<rscale>  2 0.41386990E+03</rscale>
<asrwt>0</asrwt>
<pdfrwt beam="1">  1       21 0.13855910E+00 0.41386990E+03</pdfrwt>
<pdfrwt beam="2">  1       21 0.37001958E-01 0.41386990E+03</pdfrwt>
<totfact> 0.22584161E+03</totfact>
</mgrwt>
</event>
<event>
 4    1  0.5013722E-002  0.4438285E+03  0.7818608E-02  0.1029579E+00
         21   -1    0    0  501  502  0.00000000000E+00  0.00000000000E+00  0.10018975637E+04  0.10018975637E+04  0.00000000000E+00 0. -1.
         21   -1    0    0  502  503 -0.00000000000E+00 -0.00000000000E+00 -0.21558939663E+03  0.21558939663E+03  0.00000000000E+00 0.  1.
    9000007    1    1    2  501    0  0.16215549940E+03 -0.10338933566E+03  0.57376918169E+03  0.72539288291E+03  0.40000000000E+03 0. -1.
   -9000007    1    1    2    0  503 -0.16215549940E+03  0.10338933566E+03  0.21253898536E+03  0.49209407740E+03  0.40000000000E+03 0.  1.
<mgrwt>
<rscale>  2 0.44382853E+03</rscale>
<asrwt>0</asrwt>
<pdfrwt beam="1">  1       21 0.15413808E+00 0.44382853E+03</pdfrwt>
<pdfrwt beam="2">  1       21 0.33167600E-01 0.44382853E+03</pdfrwt>
<totfact> 0.20894717E+03</totfact>
</mgrwt>
</event>
<event>
 4    1  0.5013722E-002  0.7143200E+03  0.7818608E-02  0.9693052E-01
         21   -1    0    0  501  502  0.00000000000E+00  0.00000000000E+00  0.17807417080E+04  0.17807417080E+04  0.00000000000E+00 0. -1.
         21   -1    0    0  502  503 -0.00000000000E+00 -0.00000000000E+00 -0.50974748425E+03  0.50974748425E+03  0.00000000000E+00 0.  1.
    9000007    1    1    2  501    0 -0.58245475171E+03  0.10487868490E+03  0.13933334723E+04  0.15657685784E+04  0.40000000000E+03 0. -1.
   -9000007    1    1    2    0  503  0.58245475171E+03 -0.10487868490E+03 -0.12233924852E+03  0.72472061380E+03  0.40000000000E+03 0.  1.
<mgrwt>
<rscale>  2 0.71432001E+03</rscale>
<asrwt>0</asrwt>
<pdfrwt beam="1">  1       21 0.27396026E+00 0.71432001E+03</pdfrwt>
<pdfrwt beam="2">  1       21 0.78422691E-01 0.71432001E+03</pdfrwt>
<totfact> 0.46660001E+01</totfact>
</mgrwt>
</event>
<event>
 4    1  0.5013722E-002  0.4207483E+03  0.7818608E-02  0.1036823E+00
         21   -1    0    0  501  502  0.00000000000E+00  0.00000000000E+00  0.14854102408E+04  0.14854102408E+04  0.00000000000E+00 0. -1.
         21   -1    0    0  502  503 -0.00000000000E+00 -0.00000000000E+00 -0.12369442170E+03  0.12369442170E+03  0.00000000000E+00 0.  1.
    9000007    1    1    2  501    0  0.12675152649E+03 -0.31034871066E+02  0.83458402073E+03  0.93464410357E+03  0.40000000000E+03 0. -1.
   -9000007    1    1    2    0  503 -0.12675152649E+03  0.31034871066E+02  0.52713179836E+03  0.67446055891E+03  0.40000000000E+03 0.  1.
<mgrwt>
<rscale>  2 0.42074828E+03</rscale>
<asrwt>0</asrwt>
<pdfrwt beam="1">  1       21 0.22852464E+00 0.42074828E+03</pdfrwt>
<pdfrwt beam="2">  1       21 0.19029912E-01 0.42074828E+03</pdfrwt>
<totfact> 0.19186053E+03</totfact>
</mgrwt>
</event>
<event>
 4    1  0.5013722E-002  0.4209855E+03  0.7818608E-02  0.1036746E+00
         21   -1    0    0  503  502  0.00000000000E+00  0.00000000000E+00  0.62225385225E+03  0.62225385225E+03  0.00000000000E+00 0.  1.
         21   -1    0    0  501  503 -0.00000000000E+00 -0.00000000000E+00 -0.45432063774E+03  0.45432063774E+03  0.00000000000E+00 0. -1.
    9000007    1    1    2  501    0 -0.10945008761E+03  0.72453374085E+02 -0.24482571894E+03  0.48699943095E+03  0.40000000000E+03 0. -1.
   -9000007    1    1    2    0  502  0.10945008761E+03 -0.72453374085E+02  0.41275893345E+03  0.58957505904E+03  0.40000000000E+03 0.  1.
<mgrwt>
<rscale>  2 0.42098553E+03</rscale>
<asrwt>0</asrwt>
<pdfrwt beam="1">  1       21 0.95731362E-01 0.42098553E+03</pdfrwt>
<pdfrwt beam="2">  1       21 0.69895483E-01 0.42098553E+03</pdfrwt>
<totfact> 0.14668475E+03</totfact>
</mgrwt>
</event>
<event>
 4    1  0.5013722E-002  0.4135569E+03  0.7818608E-02  0.1039184E+00
         21   -1    0    0  501  502  0.00000000000E+00  0.00000000000E+00  0.18124972695E+03  0.18124972695E+03  0.00000000000E+00 0.  1.
         21   -1    0    0  502  503 -0.00000000000E+00 -0.00000000000E+00 -0.13229763084E+04  0.13229763084E+04  0.00000000000E+00 0.  1.
    9000007    1    1    2  501    0  0.10394484227E+03 -0.14993295394E+02 -0.16811325734E+03  0.44642064965E+03  0.40000000000E+03 0.  1.
   -9000007    1    1    2    0  503 -0.10394484227E+03  0.14993295394E+02 -0.97361332416E+03  0.10578053857E+04  0.40000000000E+03 0.  1.
<mgrwt>
<rscale>  2 0.41355692E+03</rscale>
<asrwt>0</asrwt>
<pdfrwt beam="1">  1       21 0.27884574E-01 0.41355692E+03</pdfrwt>
<pdfrwt beam="2">  1       21 0.20353481E+00 0.41355692E+03</pdfrwt>
<totfact> 0.13342616E+03</totfact>
</mgrwt>
</event>
<event>
 4    1  0.5013722E-002  0.4188631E+03  0.7818608E-02  0.1037437E+00
         21   -1    0    0  501  502  0.00000000000E+00  0.00000000000E+00  0.51462053838E+03  0.51462053838E+03  0.00000000000E+00 0.  1.
         21   -1    0    0  502  503 -0.00000000000E+00 -0.00000000000E+00 -0.52068762685E+03  0.52068762685E+03  0.00000000000E+00 0.  1.
    9000007    1    1    2  501    0  0.66791061244E+02 -0.10481063907E+03  0.30112662409E+03  0.51587165037E+03  0.40000000000E+03 0.  1.
   -9000007    1    1    2    0  503 -0.66791061244E+02  0.10481063907E+03 -0.30719371256E+03  0.51943651485E+03  0.40000000000E+03 0.  1.
<mgrwt>
<rscale>  2 0.41886312E+03</rscale>
<asrwt>0</asrwt>
<pdfrwt beam="1">  1       21 0.79172391E-01 0.41886312E+03</pdfrwt>
<pdfrwt beam="2">  1       21 0.80105788E-01 0.41886312E+03</pdfrwt>
<totfact> 0.16812049E+03</totfact>
</mgrwt>
</event>
<event>
 4    1  0.5013722E-002  0.6116465E+03  0.7818608E-02  0.9881534E-01
         21   -1    0    0  503  502  0.00000000000E+00  0.00000000000E+00  0.13950972771E+04  0.13950972771E+04  0.00000000000E+00 0. -1.
         21   -1    0    0  501  503 -0.00000000000E+00 -0.00000000000E+00 -0.31737755014E+03  0.31737755014E+03  0.00000000000E+00 0.  1.
    9000007    1    1    2  501    0 -0.33812947593E+03  0.31587964495E+03  0.20168195215E+03  0.64403967456E+03  0.40000000000E+03 0.  1.
   -9000007    1    1    2    0  502  0.33812947593E+03 -0.31587964495E+03  0.87603777483E+03  0.10684351527E+04  0.40000000000E+03 0. -1.
<mgrwt>
<rscale>  2 0.61164654E+03</rscale>
<asrwt>0</asrwt>
<pdfrwt beam="1">  1       21 0.21463035E+00 0.61164654E+03</pdfrwt>
<pdfrwt beam="2">  1       21 0.48827316E-01 0.61164654E+03</pdfrwt>
<totfact> 0.32971038E+02</totfact>
</mgrwt>
</event>
<event>
 4    1  0.5013722E-002  0.4292788E+03  0.7818608E-02  0.1034088E+00
         21   -1    0    0  501  502  0.00000000000E+00  0.00000000000E+00  0.26054876206E+03  0.26054876206E+03  0.00000000000E+00 0. -1.
         21   -1    0    0  502  503 -0.00000000000E+00 -0.00000000000E+00 -0.14068032321E+04  0.14068032321E+04  0.00000000000E+00 0. -1.
    9000007    1    1    2  501    0 -0.14698931281E+03  0.51714842072E+02  0.14744336836E+02  0.42953192947E+03  0.40000000000E+03 0. -1.
   -9000007    1    1    2    0  503  0.14698931281E+03 -0.51714842072E+02 -0.11609988069E+04  0.12378200647E+04  0.40000000000E+03 0. -1.
<mgrwt>
<rscale>  2 0.42927879E+03</rscale>
<asrwt>0</asrwt>
<pdfrwt beam="1">  1       21 0.40084425E-01 0.42927879E+03</pdfrwt>
<pdfrwt beam="2">  1       21 0.21643127E+00 0.42927879E+03</pdfrwt>
<totfact> 0.52606490E+02</totfact>
</mgrwt>
</event>
<event>
 4    1  0.5013722E-002  0.4270308E+03  0.7818608E-02  0.1034802E+00
         21   -1    0    0  501  502  0.00000000000E+00  0.00000000000E+00  0.69040072197E+03  0.69040072197E+03  0.00000000000E+00 0. -1.
         21   -1    0    0  502  503 -0.00000000000E+00 -0.00000000000E+00 -0.26527318202E+03  0.26527318202E+03  0.00000000000E+00 0. -1.
    9000007    1    1    2  501    0 -0.14928197796E+03 -0.83770843423E+01  0.24393718396E+03  0.49179328402E+03  0.40000000000E+03 0. -1.
   -9000007    1    1    2    0  503  0.14928197796E+03  0.83770843423E+01  0.18119035598E+03  0.46388061997E+03  0.40000000000E+03 0. -1.
<mgrwt>
<rscale>  2 0.42703078E+03</rscale>
<asrwt>0</asrwt>
<pdfrwt beam="1">  1       21 0.10621550E+00 0.42703078E+03</pdfrwt>
<pdfrwt beam="2">  1       21 0.40811259E-01 0.42703078E+03</pdfrwt>
<totfact> 0.36136372E+03</totfact>
</mgrwt>
</event>
<event>
 4    1  0.5013722E-002  0.4498169E+03  0.7818608E-02  0.1027777E+00
         21   -1    0    0  501  502  0.00000000000E+00  0.00000000000E+00  0.61111397589E+03  0.61111397589E+03  0.00000000000E+00 0. -1.
         21   -1    0    0  502  503 -0.00000000000E+00 -0.00000000000E+00 -0.46291758996E+03  0.46291758996E+03  0.00000000000E+00 0. -1.
    9000007    1    1    2  501    0 -0.19791578919E+03 -0.56254690054E+02 -0.21247413909E+03  0.49747412952E+03  0.40000000000E+03 0. -1.
   -9000007    1    1    2    0  503  0.19791578919E+03  0.56254690054E+02  0.36067052503E+03  0.57655743633E+03  0.40000000000E+03 0. -1.
<mgrwt>
<rscale>  2 0.44981691E+03</rscale>
<asrwt>0</asrwt>
<pdfrwt beam="1">  1       21 0.94017534E-01 0.44981691E+03</pdfrwt>
<pdfrwt beam="2">  1       21 0.71218091E-01 0.44981691E+03</pdfrwt>
<totfact> 0.14512670E+03</totfact>
</mgrwt>
</event>
<event>
 4    1  0.5013722E-002  0.4164892E+03  0.7818608E-02  0.1038215E+00
         21   -1    0    0  503  502  0.00000000000E+00  0.00000000000E+00  0.27442082717E+03  0.27442082717E+03  0.00000000000E+00 0.  1.
         21   -1    0    0  501  503 -0.00000000000E+00 -0.00000000000E+00 -0.63423449691E+03  0.63423449691E+03  0.00000000000E+00 0.  1.
    9000007    1    1    2  501    0 -0.10780060063E+03  0.42921488881E+02 -0.20622264161E+03  0.46474832072E+03  0.40000000000E+03 0.  1.
   -9000007    1    1    2    0  502  0.10780060063E+03 -0.42921488881E+02 -0.15359102814E+03  0.44390700336E+03  0.40000000000E+03 0.  1.
<mgrwt>
<rscale>  2 0.41648916E+03</rscale>
<asrwt>0</asrwt>
<pdfrwt beam="1">  1       21 0.42218589E-01 0.41648916E+03</pdfrwt>
<pdfrwt beam="2">  1       21 0.97574537E-01 0.41648916E+03</pdfrwt>
<totfact> 0.41592885E+03</totfact>
</mgrwt>
</event>
<event>
 4    1  0.5013722E-002  0.4003177E+03  0.7818608E-02  0.1043670E+00
         21   -1    0    0  503  502  0.00000000000E+00  0.00000000000E+00  0.98595153095E+02  0.98595153095E+02  0.00000000000E+00 0. -1.
         21   -1    0    0  501  503 -0.00000000000E+00 -0.00000000000E+00 -0.18202318606E+04  0.18202318606E+04  0.00000000000E+00 0. -1.
    9000007    1    1    2  501    0  0.91370048602E+01  0.13067034687E+02 -0.11747237589E+04  0.12410600880E+04  0.40000000000E+03 0.  1.
   -9000007    1    1    2    0  502 -0.91370048602E+01 -0.13067034687E+02 -0.54691294866E+03  0.67776692577E+03  0.40000000000E+03 0.  1.
<mgrwt>
<rscale>  2 0.40031766E+03</rscale>
<asrwt>0</asrwt>
<pdfrwt beam="1">  1       21 0.15168487E-01 0.40031766E+03</pdfrwt>
<pdfrwt beam="2">  1       21 0.28003564E+00 0.40031766E+03</pdfrwt>
<totfact> 0.14365583E+03</totfact>
</mgrwt>
</event>
<event>
 4    1  0.5013722E-002  0.5012342E+03  0.7818608E-02  0.1013457E+00
         21   -1    0    0  503  502  0.00000000000E+00  0.00000000000E+00  0.31201253636E+03  0.31201253636E+03  0.00000000000E+00 0. -1.
         21   -1    0    0  501  503 -0.00000000000E+00 -0.00000000000E+00 -0.98803952608E+03  0.98803952608E+03  0.00000000000E+00 0. -1.
    9000007    1    1    2  501    0 -0.15197840186E+03  0.26103318036E+03 -0.61763219843E+03  0.79542773928E+03  0.40000000000E+03 0. -1.
   -9000007    1    1    2    0  502  0.15197840186E+03 -0.26103318036E+03 -0.58394791295E+02  0.50462432317E+03  0.40000000000E+03 0. -1.
<mgrwt>
<rscale>  2 0.50123423E+03</rscale>
<asrwt>0</asrwt>
<pdfrwt beam="1">  1       21 0.48001930E-01 0.50123423E+03</pdfrwt>
<pdfrwt beam="2">  1       21 0.15200608E+00 0.50123423E+03</pdfrwt>
<totfact> 0.98999124E+02</totfact>
</mgrwt>
</event>
<event>
 4    1  0.5013722E-002  0.4878604E+03  0.7818608E-02  0.1016997E+00
         21   -1    0    0  503  502  0.00000000000E+00  0.00000000000E+00  0.71132652740E+03  0.71132652740E+03  0.00000000000E+00 0.  1.
         21   -1    0    0  501  503 -0.00000000000E+00 -0.00000000000E+00 -0.39069167033E+03  0.39069167033E+03  0.00000000000E+00 0. -1.
    9000007    1    1    2  501    0  0.27853903349E+03 -0.20584850266E+02 -0.48469091415E+02  0.49026215646E+03  0.40000000000E+03 0. -1.
   -9000007    1    1    2    0  502 -0.27853903349E+03  0.20584850266E+02  0.36910394848E+03  0.61175604126E+03  0.40000000000E+03 0.  1.
<mgrwt>
<rscale>  2 0.48786036E+03</rscale>
<asrwt>0</asrwt>
<pdfrwt beam="1">  1       21 0.10943485E+00 0.48786036E+03</pdfrwt>
<pdfrwt beam="2">  1       21 0.60106411E-01 0.48786036E+03</pdfrwt>
<totfact> 0.14406953E+03</totfact>
</mgrwt>
</event>
<event>
 4    1  0.5013722E-002  0.7702104E+03  0.7818608E-02  0.9604166E-01
         21   -1    0    0  503  502  0.00000000000E+00  0.00000000000E+00  0.82730644412E+03  0.82730644412E+03  0.00000000000E+00 0.  1.
         21   -1    0    0  501  503 -0.00000000000E+00 -0.00000000000E+00 -0.78647094644E+03  0.78647094644E+03  0.00000000000E+00 0. -1.
    9000007    1    1    2  501    0  0.31074688396E+03 -0.58022446044E+03 -0.21930130990E+03  0.80082277372E+03  0.40000000000E+03 0.  1.
   -9000007    1    1    2    0  502 -0.31074688396E+03  0.58022446044E+03  0.26013680758E+03  0.81295461684E+03  0.40000000000E+03 0.  1.
<mgrwt>
<rscale>  2 0.77021039E+03</rscale>
<asrwt>0</asrwt>
<pdfrwt beam="1">  1       21 0.12727791E+00 0.77021039E+03</pdfrwt>
<pdfrwt beam="2">  1       21 0.12099553E+00 0.77021039E+03</pdfrwt>
<totfact> 0.17067869E+02</totfact>
</mgrwt>
</event>
<event>
 4    1  0.5013722E-002  0.4296764E+03  0.7818608E-02  0.1033962E+00
         21   -1    0    0  503  502  0.00000000000E+00  0.00000000000E+00  0.24151271752E+04  0.24151271752E+04  0.00000000000E+00 0. -1.
         21   -1    0    0  501  503 -0.00000000000E+00 -0.00000000000E+00 -0.90942961746E+02  0.90942961746E+02  0.00000000000E+00 0. -1.
    9000007    1    1    2  501    0  0.14350844588E+03 -0.63459925188E+02  0.66177191086E+03  0.78902718467E+03  0.40000000000E+03 0. -1.
   -9000007    1    1    2    0  502 -0.14350844588E+03  0.63459925188E+02  0.16624123026E+04  0.17170429523E+04  0.40000000000E+03 0. -1.
<mgrwt>
<rscale>  2 0.42967643E+03</rscale>
<asrwt>0</asrwt>
<pdfrwt beam="1">  1       21 0.37155798E+00 0.42967643E+03</pdfrwt>
<pdfrwt beam="2">  1       21 0.13991227E-01 0.42967643E+03</pdfrwt>
<totfact> 0.45697983E+02</totfact>
</mgrwt>
</event>
<event>
 4    1  0.5013722E-002  0.4687958E+03  0.7818608E-02  0.1022261E+00
         21   -1    0    0  503  502  0.00000000000E+00  0.00000000000E+00  0.17465525376E+03  0.17465525376E+03  0.00000000000E+00 0. -1.
         21   -1    0    0  501  503 -0.00000000000E+00 -0.00000000000E+00 -0.12787849429E+04  0.12787849429E+04  0.00000000000E+00 0.  1.
    9000007    1    1    2  501    0  0.11062150609E+03 -0.21801924995E+03 -0.64403288239E+03  0.79658512700E+03  0.40000000000E+03 0.  1.
   -9000007    1    1    2    0  502 -0.11062150609E+03  0.21801924995E+03 -0.46009680678E+03  0.65685506969E+03  0.40000000000E+03 0. -1.
<mgrwt>
<rscale>  2 0.46879581E+03</rscale>
<asrwt>0</asrwt>
<pdfrwt beam="1">  1       21 0.26870038E-01 0.46879581E+03</pdfrwt>
<pdfrwt beam="2">  1       21 0.19673615E+00 0.46879581E+03</pdfrwt>
<totfact> 0.15536284E+03</totfact>
</mgrwt>
</event>
<event>
 4    1  0.5013722E-002  0.6247592E+03  0.7818608E-02  0.9855330E-01
         21   -1    0    0  501  502  0.00000000000E+00  0.00000000000E+00  0.52302979272E+03  0.52302979272E+03  0.00000000000E+00 0. -1.
         21   -1    0    0  502  503 -0.00000000000E+00 -0.00000000000E+00 -0.93388061713E+03  0.93388061713E+03  0.00000000000E+00 0.  1.
    9000007    1    1    2  501    0  0.10374966920E+03 -0.46857234076E+03  0.12107230311E+03  0.63638238109E+03  0.40000000000E+03 0. -1.
   -9000007    1    1    2    0  503 -0.10374966920E+03  0.46857234076E+03 -0.53192312753E+03  0.82052802876E+03  0.40000000000E+03 0.  1.
<mgrwt>
<rscale>  2 0.62475918E+03</rscale>
<asrwt>0</asrwt>
<pdfrwt beam="1">  1       21 0.80466122E-01 0.62475918E+03</pdfrwt>
<pdfrwt beam="2">  1       21 0.14367394E+00 0.62475918E+03</pdfrwt>
<totfact> 0.35112797E+02</totfact>
</mgrwt>
</event>
<event>
 4    1  0.5013722E-002  0.4121691E+03  0.7818608E-02  0.1039646E+00
         21   -1    0    0  503  502  0.00000000000E+00  0.00000000000E+00  0.12902914420E+04  0.12902914420E+04  0.00000000000E+00 0.  1.
         21   -1    0    0  501  503 -0.00000000000E+00 -0.00000000000E+00 -0.13209261195E+03  0.13209261195E+03  0.00000000000E+00 0.  1.
    9000007    1    1    2  501    0  0.80458687639E+01  0.99088997867E+02  0.61966839855E+03  0.74422596680E+03  0.40000000000E+03 0. -1.
   -9000007    1    1    2    0  502 -0.80458687639E+01 -0.99088997867E+02  0.53853043150E+03  0.67815808714E+03  0.40000000000E+03 0. -1.
<mgrwt>
<rscale>  2 0.41216910E+03</rscale>
<asrwt>0</asrwt>
<pdfrwt beam="1">  1       21 0.19850637E+00 0.41216910E+03</pdfrwt>
<pdfrwt beam="2">  1       21 0.20321941E-01 0.41216910E+03</pdfrwt>
<totfact> 0.26575982E+03</totfact>
</mgrwt>
</event>
<event>
 4    1  0.5013722E-002  0.5115093E+03  0.7818608E-02  0.1010818E+00
         21   -1    0    0  501  502  0.00000000000E+00  0.00000000000E+00  0.21959592835E+03  0.21959592835E+03  0.00000000000E+00 0.  1.
         21   -1    0    0  502  503 -0.00000000000E+00 -0.00000000000E+00 -0.12365953297E+04  0.12365953297E+04  0.00000000000E+00 0. -1.
    9000007    1    1    2  501    0  0.31667515920E+03  0.36859863892E+02 -0.64758723472E+03  0.82523392598E+03  0.40000000000E+03 0. -1.
   -9000007    1    1    2    0  503 -0.31667515920E+03 -0.36859863892E+02 -0.36941216662E+03  0.63095733205E+03  0.40000000000E+03 0. -1.
<mgrwt>
<rscale>  2 0.51150934E+03</rscale>
<asrwt>0</asrwt>
<pdfrwt beam="1">  1       21 0.33783989E-01 0.51150934E+03</pdfrwt>
<pdfrwt beam="2">  1       21 0.19024543E+00 0.51150934E+03</pdfrwt>
<totfact> 0.10714122E+03</totfact>
</mgrwt>
</event>
<event>
 4    1  0.5013722E-002  0.4239573E+03  0.7818608E-02  0.1035786E+00
         21   -1    0    0  501  502  0.00000000000E+00  0.00000000000E+00  0.18001451915E+04  0.18001451915E+04  0.00000000000E+00 0.  1.
         21   -1    0    0  502  503 -0.00000000000E+00 -0.00000000000E+00 -0.10501633155E+03  0.10501633155E+03  0.00000000000E+00 0.  1.
    9000007    1    1    2  501    0 -0.13459997292E+03  0.40281833398E+02  0.10589010056E+04  0.11406187437E+04  0.40000000000E+03 0.  1.
   -9000007    1    1    2    0  503  0.13459997292E+03 -0.40281833398E+02  0.63622785436E+03  0.76454277937E+03  0.40000000000E+03 0.  1.
<mgrwt>
<rscale>  2 0.42395728E+03</rscale>
<asrwt>0</asrwt>
<pdfrwt beam="1">  1       21 0.27694539E+00 0.42395728E+03</pdfrwt>
<pdfrwt beam="2">  1       21 0.16156360E-01 0.42395728E+03</pdfrwt>
<totfact> 0.13159553E+03</totfact>
</mgrwt>
</event>
<event>
 4    1  0.5013722E-002  0.4154056E+03  0.7818608E-02  0.1038572E+00
         21   -1    0    0  501  502  0.00000000000E+00  0.00000000000E+00  0.29846446581E+03  0.29846446581E+03  0.00000000000E+00 0.  1.
         21   -1    0    0  502  503 -0.00000000000E+00 -0.00000000000E+00 -0.58635516151E+03  0.58635516151E+03  0.00000000000E+00 0.  1.
    9000007    1    1    2  501    0 -0.10961740013E+03  0.23363372823E+02 -0.91659939294E+02  0.42539789148E+03  0.40000000000E+03 0.  1.
   -9000007    1    1    2    0  503  0.10961740013E+03 -0.23363372823E+02 -0.19623075641E+03  0.45942173584E+03  0.40000000000E+03 0.  1.
<mgrwt>
<rscale>  2 0.41540561E+03</rscale>
<asrwt>0</asrwt>
<pdfrwt beam="1">  1       21 0.45917610E-01 0.41540561E+03</pdfrwt>
<pdfrwt beam="2">  1       21 0.90208486E-01 0.41540561E+03</pdfrwt>
<totfact> 0.42117748E+03</totfact>
</mgrwt>
</event>
<event>
 4    1  0.5013722E-002  0.4009730E+03  0.7818608E-02  0.1043443E+00
         21   -1    0    0  503  502  0.00000000000E+00  0.00000000000E+00  0.17180764347E+03  0.17180764347E+03  0.00000000000E+00 0.  1.
         21   -1    0    0  501  503 -0.00000000000E+00 -0.00000000000E+00 -0.10486434692E+04  0.10486434692E+04  0.00000000000E+00 0.  1.
    9000007    1    1    2  501    0  0.93221768008E+00  0.27900960951E+02 -0.63858616181E+03  0.75403688153E+03  0.40000000000E+03 0. -1.
   -9000007    1    1    2    0  502 -0.93221768008E+00 -0.27900960951E+02 -0.23824966391E+03  0.46641423113E+03  0.40000000000E+03 0. -1.
<mgrwt>
<rscale>  2 0.40097298E+03</rscale>
<asrwt>0</asrwt>
<pdfrwt beam="1">  1       21 0.26431945E-01 0.40097298E+03</pdfrwt>
<pdfrwt beam="2">  1       21 0.16132977E+00 0.40097298E+03</pdfrwt>
<totfact> 0.29401755E+03</totfact>
</mgrwt>
</event>
<event>
 4    1  0.5013722E-002  0.4725426E+03  0.7818608E-02  0.1021205E+00
         21   -1    0    0  501  502  0.00000000000E+00  0.00000000000E+00  0.29295423165E+03  0.29295423165E+03  0.00000000000E+00 0. -1.
         21   -1    0    0  502  503 -0.00000000000E+00 -0.00000000000E+00 -0.14843408803E+04  0.14843408803E+04  0.00000000000E+00 0. -1.
    9000007    1    1    2  501    0  0.22971921450E+03  0.10259428974E+03  0.24128297364E+02  0.47315819821E+03  0.40000000000E+03 0.  1.
   -9000007    1    1    2    0  503 -0.22971921450E+03 -0.10259428974E+03 -0.12155149460E+04  0.13041369137E+04  0.40000000000E+03 0.  1.
<mgrwt>
<rscale>  2 0.47254260E+03</rscale>
<asrwt>0</asrwt>
<pdfrwt beam="1">  1       21 0.45069883E-01 0.47254260E+03</pdfrwt>
<pdfrwt beam="2">  1       21 0.22836013E+00 0.47254260E+03</pdfrwt>
<totfact> 0.33851022E+02</totfact>
</mgrwt>
</event>
<event>
 4    1  0.5013722E-002  0.5075688E+03  0.7818608E-02  0.1011822E+00
         21   -1    0    0  503  502  0.00000000000E+00  0.00000000000E+00  0.22289768110E+03  0.22289768110E+03  0.00000000000E+00 0. -1.
         21   -1    0    0  501  503 -0.00000000000E+00 -0.00000000000E+00 -0.15873082256E+04  0.15873082256E+04  0.00000000000E+00 0. -1.
    9000007    1    1    2  501    0  0.63438744574E+02  0.30594388331E+03 -0.11541157754E+04  0.12607971118E+04  0.40000000000E+03 0. -1.
   -9000007    1    1    2    0  502 -0.63438744574E+02 -0.30594388331E+03 -0.21029476914E+03  0.54940879496E+03  0.40000000000E+03 0. -1.
<mgrwt>
<rscale>  2 0.50756885E+03</rscale>
<asrwt>0</asrwt>
<pdfrwt beam="1">  1       21 0.34291950E-01 0.50756885E+03</pdfrwt>
<pdfrwt beam="2">  1       21 0.24420127E+00 0.50756885E+03</pdfrwt>
<totfact> 0.46494370E+02</totfact>
</mgrwt>
</event>
<event>
 4    1  0.5013722E-002  0.6481875E+03  0.7818608E-02  0.9810186E-01
         21   -1    0    0  503  502  0.00000000000E+00  0.00000000000E+00  0.72589529693E+03  0.72589529693E+03  0.00000000000E+00 0. -1.
         21   -1    0    0  501  503 -0.00000000000E+00 -0.00000000000E+00 -0.58764561249E+03  0.58764561249E+03  0.00000000000E+00 0.  1.
    9000007    1    1    2  501    0  0.32779036149E+03 -0.39076919848E+03 -0.11460741966E+02  0.64828885242E+03  0.40000000000E+03 0. -1.
   -9000007    1    1    2    0  502 -0.32779036149E+03  0.39076919848E+03  0.14971042641E+03  0.66525205700E+03  0.40000000000E+03 0.  1.
<mgrwt>
<rscale>  2 0.64818754E+03</rscale>
<asrwt>0</asrwt>
<pdfrwt beam="1">  1       21 0.11167620E+00 0.64818754E+03</pdfrwt>
<pdfrwt beam="2">  1       21 0.90407018E-01 0.64818754E+03</pdfrwt>
<totfact> 0.51038481E+02</totfact>
</mgrwt>
</event>
<event>
 4    1  0.5013722E-002  0.4976678E+03  0.7818608E-02  0.1014389E+00
         21   -1    0    0  501  502  0.00000000000E+00  0.00000000000E+00  0.96571520020E+02  0.96571520020E+02  0.00000000000E+00 0.  1.
         21   -1    0    0  502  503 -0.00000000000E+00 -0.00000000000E+00 -0.26514054590E+04  0.26514054590E+04  0.00000000000E+00 0.  1.
    9000007    1    1    2  501    0  0.15797615174E+03 -0.25043309054E+03 -0.10288941630E+04  0.11429332422E+04  0.40000000000E+03 0. -1.
   -9000007    1    1    2    0  503 -0.15797615174E+03  0.25043309054E+03 -0.15259397760E+04  0.16050437369E+04  0.40000000000E+03 0. -1.
<mgrwt>
<rscale>  2 0.49766776E+03</rscale>
<asrwt>0</asrwt>
<pdfrwt beam="1">  1       21 0.14857159E-01 0.49766776E+03</pdfrwt>
<pdfrwt beam="2">  1       21 0.40790847E+00 0.49766776E+03</pdfrwt>
<totfact> 0.23010761E+02</totfact>
</mgrwt>
</event>
<event>
 4    1  0.5013722E-002  0.4220533E+03  0.7818608E-02  0.1036400E+00
         21   -1    0    0  503  502  0.00000000000E+00  0.00000000000E+00  0.12206864292E+03  0.12206864292E+03  0.00000000000E+00 0.  1.
         21   -1    0    0  501  503 -0.00000000000E+00 -0.00000000000E+00 -0.14605599390E+04  0.14605599390E+04  0.00000000000E+00 0.  1.
    9000007    1    1    2  501    0  0.38873461455E+02  0.12891028120E+03 -0.64557264110E+03  0.77129309704E+03  0.40000000000E+03 0. -1.
   -9000007    1    1    2    0  502 -0.38873461455E+02 -0.12891028120E+03 -0.69291865496E+03  0.81133548486E+03  0.40000000000E+03 0. -1.
<mgrwt>
<rscale>  2 0.42205332E+03</rscale>
<asrwt>0</asrwt>
<pdfrwt beam="1">  1       21 0.18779792E-01 0.42205332E+03</pdfrwt>
<pdfrwt beam="2">  1       21 0.22470152E+00 0.42205332E+03</pdfrwt>
<totfact> 0.20781237E+03</totfact>
</mgrwt>
</event>
<event>
 4    1  0.5013722E-002  0.4122793E+03  0.7818608E-02  0.1039609E+00
         21   -1    0    0  503  502  0.00000000000E+00  0.00000000000E+00  0.28564494817E+04  0.28564494817E+04  0.00000000000E+00 0. -1.
         21   -1    0    0  501  503 -0.00000000000E+00 -0.00000000000E+00 -0.13117777350E+03  0.13117777350E+03  0.00000000000E+00 0. -1.
    9000007    1    1    2  501    0  0.93629621353E+02 -0.34752515639E+02  0.25845019086E+03  0.48659094165E+03  0.40000000000E+03 0. -1.
   -9000007    1    1    2    0  502 -0.93629621353E+02  0.34752515639E+02  0.24668215173E+04  0.25010363135E+04  0.40000000000E+03 0. -1.
<mgrwt>
<rscale>  2 0.41227933E+03</rscale>
<asrwt>0</asrwt>
<pdfrwt beam="1">  1       21 0.43945372E+00 0.41227933E+03</pdfrwt>
<pdfrwt beam="2">  1       21 0.20181198E-01 0.41227933E+03</pdfrwt>
<totfact> 0.85125196E+01</totfact>
</mgrwt>
</event>
<event>
 4    1  0.5013722E-002  0.6155542E+03  0.7818608E-02  0.9873651E-01
         21   -1    0    0  501  502  0.00000000000E+00  0.00000000000E+00  0.34847895115E+03  0.34847895115E+03  0.00000000000E+00 0.  1.
         21   -1    0    0  502  503 -0.00000000000E+00 -0.00000000000E+00 -0.15651176814E+04  0.15651176814E+04  0.00000000000E+00 0.  1.
    9000007    1    1    2  501    0  0.42442654423E+01  0.46785571148E+03 -0.79666700371E+02  0.62068813723E+03  0.40000000000E+03 0.  1.
   -9000007    1    1    2    0  503 -0.42442654423E+01 -0.46785571148E+03 -0.11369720299E+04  0.12929084954E+04  0.40000000000E+03 0.  1.
<mgrwt>
<rscale>  2 0.61555421E+03</rscale>
<asrwt>0</asrwt>
<pdfrwt beam="1">  1       21 0.53612146E-01 0.61555421E+03</pdfrwt>
<pdfrwt beam="2">  1       21 0.24078734E+00 0.61555421E+03</pdfrwt>
<totfact> 0.18309421E+02</totfact>
</mgrwt>
</event>
<event>
 4    1  0.5013722E-002  0.4680644E+03  0.7818608E-02  0.1022468E+00
         21   -1    0    0  503  502  0.00000000000E+00  0.00000000000E+00  0.14006156611E+04  0.14006156611E+04  0.00000000000E+00 0. -1.
         21   -1    0    0  501  503 -0.00000000000E+00 -0.00000000000E+00 -0.20560371488E+03  0.20560371488E+03  0.00000000000E+00 0. -1.
    9000007    1    1    2  501    0  0.18379088456E+03 -0.15907608197E+03  0.20470722945E+03  0.51087115684E+03  0.40000000000E+03 0. -1.
   -9000007    1    1    2    0  502 -0.18379088456E+03  0.15907608197E+03  0.99030471677E+03  0.10953482191E+04  0.40000000000E+03 0. -1.
<mgrwt>
<rscale>  2 0.46806441E+03</rscale>
<asrwt>0</asrwt>
<pdfrwt beam="1">  1       21 0.21547933E+00 0.46806441E+03</pdfrwt>
<pdfrwt beam="2">  1       21 0.31631342E-01 0.46806441E+03</pdfrwt>
<totfact> 0.84631311E+02</totfact>
</mgrwt>
</event>
<event>
 4    1  0.5013722E-002  0.4354952E+03  0.7818608E-02  0.1032138E+00
         21   -1    0    0  501  502  0.00000000000E+00  0.00000000000E+00  0.12696893358E+03  0.12696893358E+03  0.00000000000E+00 0.  1.
         21   -1    0    0  502  503 -0.00000000000E+00 -0.00000000000E+00 -0.16979624699E+04  0.16979624699E+04  0.00000000000E+00 0.  1.
    9000007    1    1    2  501    0 -0.23344883614E+02  0.17061971896E+03 -0.46903210316E+03  0.64003686291E+03  0.40000000000E+03 0.  1.
   -9000007    1    1    2    0  503  0.23344883614E+02 -0.17061971896E+03 -0.11019614332E+04  0.11848945406E+04  0.40000000000E+03 0.  1.
<mgrwt>
<rscale>  2 0.43549520E+03</rscale>
<asrwt>0</asrwt>
<pdfrwt beam="1">  1       21 0.19533681E-01 0.43549520E+03</pdfrwt>
<pdfrwt beam="2">  1       21 0.26122500E+00 0.43549520E+03</pdfrwt>
<totfact> 0.11392374E+03</totfact>
</mgrwt>
</event>
<event>
 4    1  0.5013722E-002  0.4154220E+03  0.7818608E-02  0.1038567E+00
         21   -1    0    0  501  502  0.00000000000E+00  0.00000000000E+00  0.32037035571E+03  0.32037035571E+03  0.00000000000E+00 0.  1.
         21   -1    0    0  502  503 -0.00000000000E+00 -0.00000000000E+00 -0.59101422192E+03  0.59101422192E+03  0.00000000000E+00 0.  1.
    9000007    1    1    2  501    0 -0.58540115292E+02  0.95647597323E+02 -0.27093063358E+03  0.49596251490E+03  0.40000000000E+03 0.  1.
   -9000007    1    1    2    0  503  0.58540115292E+02 -0.95647597323E+02  0.28676737673E+00  0.41542206274E+03  0.40000000000E+03 0.  1.
<mgrwt>
<rscale>  2 0.41542196E+03</rscale>
<asrwt>0</asrwt>
<pdfrwt beam="1">  1       21 0.49287748E-01 0.41542196E+03</pdfrwt>
<pdfrwt beam="2">  1       21 0.90925264E-01 0.41542196E+03</pdfrwt>
<totfact> 0.35602879E+03</totfact>
</mgrwt>
</event>
<event>
 4    1  0.5013722E-002  0.4401893E+03  0.7818608E-02  0.1030689E+00
         21   -1    0    0  501  502  0.00000000000E+00  0.00000000000E+00  0.17992915719E+03  0.17992915719E+03  0.00000000000E+00 0. -1.
         21   -1    0    0  502  503 -0.00000000000E+00 -0.00000000000E+00 -0.19299419128E+04  0.19299419128E+04  0.00000000000E+00 0. -1.
    9000007    1    1    2  501    0  0.15448700022E+03  0.99500574560E+02 -0.17365164647E+03  0.47320343606E+03  0.40000000000E+03 0. -1.
   -9000007    1    1    2    0  503 -0.15448700022E+03 -0.99500574560E+02 -0.15763611092E+04  0.16366676340E+04  0.40000000000E+03 0. -1.
<mgrwt>
<rscale>  2 0.44018927E+03</rscale>
<asrwt>0</asrwt>
<pdfrwt beam="1">  1       21 0.27681409E-01 0.44018927E+03</pdfrwt>
<pdfrwt beam="2">  1       21 0.29691413E+00 0.44018927E+03</pdfrwt>
<totfact> 0.35314810E+02</totfact>
</mgrwt>
</event>
<event>
 4    1  0.5013722E-002  0.4620290E+03  0.7818608E-02  0.1024194E+00
         21   -1    0    0  501  502  0.00000000000E+00  0.00000000000E+00  0.67948272179E+03  0.67948272179E+03  0.00000000000E+00 0. -1.
         21   -1    0    0  502  503 -0.00000000000E+00 -0.00000000000E+00 -0.40893073208E+03  0.40893073208E+03  0.00000000000E+00 0. -1.
    9000007    1    1    2  501    0  0.11956590994E+03 -0.19792624835E+03  0.39725164319E+03  0.60932723115E+03  0.40000000000E+03 0. -1.
   -9000007    1    1    2    0  503 -0.11956590994E+03  0.19792624835E+03 -0.12669965348E+03  0.47908622272E+03  0.40000000000E+03 0. -1.
<mgrwt>
<rscale>  2 0.46202901E+03</rscale>
<asrwt>0</asrwt>
<pdfrwt beam="1">  1       21 0.10453580E+00 0.46202901E+03</pdfrwt>
<pdfrwt beam="2">  1       21 0.62912420E-01 0.46202901E+03</pdfrwt>
<totfact> 0.14733705E+03</totfact>
</mgrwt>
</event>
<event>
 4    1  0.5013722E-002  0.6207120E+03  0.7818608E-02  0.9863343E-01
         21   -1    0    0  501  502  0.00000000000E+00  0.00000000000E+00  0.34094235714E+03  0.34094235714E+03  0.00000000000E+00 0.  1.
         21   -1    0    0  502  503 -0.00000000000E+00 -0.00000000000E+00 -0.11761839917E+04  0.11761839917E+04  0.00000000000E+00 0.  1.
    9000007    1    1    2  501    0  0.36339999048E+03  0.30532576826E+03 -0.56784656833E+03  0.84126874601E+03  0.40000000000E+03 0.  1.
   -9000007    1    1    2    0  503 -0.36339999048E+03 -0.30532576826E+03 -0.26739506621E+03  0.67585760281E+03  0.40000000000E+03 0.  1.
<mgrwt>
<rscale>  2 0.62071199E+03</rscale>
<asrwt>0</asrwt>
<pdfrwt beam="1">  1       21 0.52452671E-01 0.62071199E+03</pdfrwt>
<pdfrwt beam="2">  1       21 0.18095138E+00 0.62071199E+03</pdfrwt>
<totfact> 0.47766334E+02</totfact>
</mgrwt>
</event>
<event>
 4    1  0.5013722E-002  0.4068851E+03  0.7818608E-02  0.1041421E+00
         21   -1    0    0  503  502  0.00000000000E+00  0.00000000000E+00  0.42059518046E+03  0.42059518046E+03  0.00000000000E+00 0. -1.
         21   -1    0    0  501  503 -0.00000000000E+00 -0.00000000000E+00 -0.44390371655E+03  0.44390371655E+03  0.00000000000E+00 0. -1.
    9000007    1    1    2  501    0  0.28477662909E+02  0.68880227600E+02  0.13382317196E+03  0.42832709976E+03  0.40000000000E+03 0.  1.
   -9000007    1    1    2    0  502 -0.28477662909E+02 -0.68880227600E+02 -0.15713170804E+03  0.43617179724E+03  0.40000000000E+03 0.  1.
<mgrwt>
<rscale>  2 0.40688507E+03</rscale>
<asrwt>0</asrwt>
<pdfrwt beam="1">  1       21 0.64706951E-01 0.40688507E+03</pdfrwt>
<pdfrwt beam="2">  1       21 0.68292880E-01 0.40688507E+03</pdfrwt>
<totfact> 0.38266015E+03</totfact>
</mgrwt>
</event>
<event>
 4    1  0.5013722E-002  0.5017483E+03  0.7818608E-02  0.1013324E+00
         21   -1    0    0  503  502  0.00000000000E+00  0.00000000000E+00  0.10118738659E+04  0.10118738659E+04  0.00000000000E+00 0.  1.
         21   -1    0    0  501  503 -0.00000000000E+00 -0.00000000000E+00 -0.64755389881E+03  0.64755389881E+03  0.00000000000E+00 0. -1.
    9000007    1    1    2  501    0  0.22093270403E+03 -0.20721980958E+03 -0.46893512376E+03  0.68676885448E+03  0.40000000000E+03 0. -1.
   -9000007    1    1    2    0  502 -0.22093270403E+03  0.20721980958E+03  0.83325509082E+03  0.97265891019E+03  0.40000000000E+03 0.  1.
<mgrwt>
<rscale>  2 0.50174825E+03</rscale>
<asrwt>0</asrwt>
<pdfrwt beam="1">  1       21 0.15567290E+00 0.50174825E+03</pdfrwt>
<pdfrwt beam="2">  1       21 0.99623677E-01 0.50174825E+03</pdfrwt>
<totfact> 0.17803945E+02</totfact>
</mgrwt>
</event>
<event>
 4    1  0.5013722E-002  0.4672541E+03  0.7818608E-02  0.1022698E+00
         21   -1    0    0  501  502  0.00000000000E+00  0.00000000000E+00  0.24612825299E+04  0.24612825299E+04  0.00000000000E+00 0. -1.
         21   -1    0    0  502  503 -0.00000000000E+00 -0.00000000000E+00 -0.13821699808E+03  0.13821699808E+03  0.00000000000E+00 0. -1.
    9000007    1    1    2  501    0 -0.23946986717E+03 -0.31314350989E+02  0.19394568284E+04  0.19949484191E+04  0.40000000000E+03 0. -1.
   -9000007    1    1    2    0  503  0.23946986717E+03  0.31314350989E+02  0.38360870346E+03  0.60455110887E+03  0.40000000000E+03 0. -1.
<mgrwt>
<rscale>  2 0.46725411E+03</rscale>
<asrwt>0</asrwt>
<pdfrwt beam="1">  1       21 0.37865882E+00 0.46725411E+03</pdfrwt>
<pdfrwt beam="2">  1       21 0.21264155E-01 0.46725411E+03</pdfrwt>
<totfact> 0.18343741E+02</totfact>
</mgrwt>
</event>
<event>
 4    1  0.5013722E-002  0.5023285E+03  0.7818608E-02  0.1013173E+00
         21   -1    0    0  501  502  0.00000000000E+00  0.00000000000E+00  0.14612547507E+04  0.14612547507E+04  0.00000000000E+00 0. -1.
         21   -1    0    0  502  503 -0.00000000000E+00 -0.00000000000E+00 -0.22183036673E+03  0.22183036673E+03  0.00000000000E+00 0. -1.
    9000007    1    1    2  501    0  0.30330915155E+03 -0.18370440388E+02  0.10158219396E+04  0.11332378954E+04  0.40000000000E+03 0. -1.
   -9000007    1    1    2    0  503 -0.30330915155E+03  0.18370440388E+02  0.22360244435E+03  0.54984722206E+03  0.40000000000E+03 0. -1.
<mgrwt>
<rscale>  2 0.50232849E+03</rscale>
<asrwt>0</asrwt>
<pdfrwt beam="1">  1       21 0.22480842E+00 0.50232849E+03</pdfrwt>
<pdfrwt beam="2">  1       21 0.34127750E-01 0.50232849E+03</pdfrwt>
<totfact> 0.62311264E+02</totfact>
</mgrwt>
</event>
<event>
 4    1  0.5013722E-002  0.4510287E+03  0.7818608E-02  0.1027416E+00
         21   -1    0    0  501  502  0.00000000000E+00  0.00000000000E+00  0.35166485276E+04  0.35166485276E+04  0.00000000000E+00 0.  1.
         21   -1    0    0  502  503 -0.00000000000E+00 -0.00000000000E+00 -0.29043458383E+03  0.29043458383E+03  0.00000000000E+00 0.  1.
    9000007    1    1    2  501    0 -0.14722383362E+03 -0.14748580796E+03  0.33165657668E+04  0.33470935760E+04  0.40000000000E+03 0.  1.
   -9000007    1    1    2    0  503  0.14722383362E+03  0.14748580796E+03 -0.90351823106E+02  0.45998953540E+03  0.40000000000E+03 0.  1.
<mgrwt>
<rscale>  2 0.45102874E+03</rscale>
<asrwt>0</asrwt>
<pdfrwt beam="1">  1       21 0.54102282E+00 0.45102874E+03</pdfrwt>
<pdfrwt beam="2">  1       21 0.44682246E-01 0.45102874E+03</pdfrwt>
<totfact> 0.32575361E+00</totfact>
</mgrwt>
</event>
<event>
 4    1  0.5013722E-002  0.4073943E+03  0.7818608E-02  0.1041249E+00
         21   -1    0    0  503  502  0.00000000000E+00  0.00000000000E+00  0.24193300078E+04  0.24193300078E+04  0.00000000000E+00 0. -1.
         21   -1    0    0  501  503 -0.00000000000E+00 -0.00000000000E+00 -0.10592137935E+03  0.10592137935E+03  0.00000000000E+00 0. -1.
    9000007    1    1    2  501    0  0.71082572327E+02  0.30287673592E+02  0.40723830008E+03  0.57603221118E+03  0.40000000000E+03 0. -1.
   -9000007    1    1    2    0  502 -0.71082572327E+02 -0.30287673592E+02  0.19061703284E+04  0.19492191760E+04  0.40000000000E+03 0. -1.
<mgrwt>
<rscale>  2 0.40739425E+03</rscale>
<asrwt>0</asrwt>
<pdfrwt beam="1">  1       21 0.37220458E+00 0.40739425E+03</pdfrwt>
<pdfrwt beam="2">  1       21 0.16295599E-01 0.40739425E+03</pdfrwt>
<totfact> 0.34643770E+02</totfact>
</mgrwt>
</event>
<event>
 4    1  0.5013722E-002  0.4381282E+03  0.7818608E-02  0.1031323E+00
         21   -1    0    0  503  502  0.00000000000E+00  0.00000000000E+00  0.24335690011E+03  0.24335690011E+03  0.00000000000E+00 0.  1.
         21   -1    0    0  501  503 -0.00000000000E+00 -0.00000000000E+00 -0.89345824033E+03  0.89345824033E+03  0.00000000000E+00 0.  1.
    9000007    1    1    2  501    0  0.12459040960E+03  0.12819344569E+03 -0.51960462811E+03  0.67966557897E+03  0.40000000000E+03 0.  1.
   -9000007    1    1    2    0  502 -0.12459040960E+03 -0.12819344569E+03 -0.13049671212E+03  0.45714956147E+03  0.40000000000E+03 0.  1.
<mgrwt>
<rscale>  2 0.43812821E+03</rscale>
<asrwt>0</asrwt>
<pdfrwt beam="1">  1       21 0.37439522E-01 0.43812821E+03</pdfrwt>
<pdfrwt beam="2">  1       21 0.13745512E+00 0.43812821E+03</pdfrwt>
<totfact> 0.22301200E+03</totfact>
</mgrwt>
</event>
<event>
 4    1  0.5013722E-002  0.4200176E+03  0.7818608E-02  0.1037061E+00
         21   -1    0    0  501  502  0.00000000000E+00  0.00000000000E+00  0.47365293952E+03  0.47365293952E+03  0.00000000000E+00 0.  1.
         21   -1    0    0  502  503 -0.00000000000E+00 -0.00000000000E+00 -0.58893712457E+03  0.58893712457E+03  0.00000000000E+00 0.  1.
    9000007    1    1    2  501    0 -0.42290752385E+01  0.12805042231E+03  0.26447330393E+03  0.49634758408E+03  0.40000000000E+03 0.  1.
   -9000007    1    1    2    0  503  0.42290752385E+01 -0.12805042231E+03 -0.37975748898E+03  0.56624248001E+03  0.40000000000E+03 0.  1.
<mgrwt>
<rscale>  2 0.42001761E+03</rscale>
<asrwt>0</asrwt>
<pdfrwt beam="1">  1       21 0.72869683E-01 0.42001761E+03</pdfrwt>
<pdfrwt beam="2">  1       21 0.90605711E-01 0.42001761E+03</pdfrwt>
<totfact> 0.15228442E+03</totfact>
</mgrwt>
</event>
<event>
 4    1  0.5013722E-002  0.5062042E+03  0.7818608E-02  0.1012172E+00
         21   -1    0    0  503  502  0.00000000000E+00  0.00000000000E+00  0.17387882698E+03  0.17387882698E+03  0.00000000000E+00 0. -1.
         21   -1    0    0  501  503 -0.00000000000E+00 -0.00000000000E+00 -0.22068676696E+04  0.22068676696E+04  0.00000000000E+00 0.  1.
    9000007    1    1    2  501    0  0.69234064901E+01  0.31015285728E+03 -0.33037309041E+03  0.60447424040E+03  0.40000000000E+03 0. -1.
   -9000007    1    1    2    0  502 -0.69234064901E+01 -0.31015285728E+03 -0.17026157522E+04  0.17762722562E+04  0.40000000000E+03 0.  1.
<mgrwt>
<rscale>  2 0.50620424E+03</rscale>
<asrwt>0</asrwt>
<pdfrwt beam="1">  1       21 0.26750588E-01 0.50620424E+03</pdfrwt>
<pdfrwt beam="2">  1       21 0.33951811E+00 0.50620424E+03</pdfrwt>
<totfact> 0.20072927E+02</totfact>
</mgrwt>
</event>
<event>
 4    1  0.5013722E-002  0.4476331E+03  0.7818608E-02  0.1028430E+00
         21   -1    0    0  501  502  0.00000000000E+00  0.00000000000E+00  0.52490031246E+03  0.52490031246E+03  0.00000000000E+00 0. -1.
         21   -1    0    0  502  503 -0.00000000000E+00 -0.00000000000E+00 -0.57309079431E+03  0.57309079431E+03  0.00000000000E+00 0. -1.
    9000007    1    1    2  501    0  0.15133510735E+03  0.13218574433E+03  0.29313338798E+03  0.53507248936E+03  0.40000000000E+03 0. -1.
   -9000007    1    1    2    0  503 -0.15133510735E+03 -0.13218574433E+03 -0.34132386983E+03  0.56291861742E+03  0.40000000000E+03 0. -1.
<mgrwt>
<rscale>  2 0.44763309E+03</rscale>
<asrwt>0</asrwt>
<pdfrwt beam="1">  1       21 0.80753894E-01 0.44763309E+03</pdfrwt>
<pdfrwt beam="2">  1       21 0.88167815E-01 0.44763309E+03</pdfrwt>
<totfact> 0.12694156E+03</totfact>
</mgrwt>
</event>
<event>
 4    1  0.5013722E-002  0.4479178E+03  0.7818608E-02  0.1028345E+00
         21   -1    0    0  503  502  0.00000000000E+00  0.00000000000E+00  0.74894043383E+03  0.74894043383E+03  0.00000000000E+00 0.  1.
         21   -1    0    0  501  503 -0.00000000000E+00 -0.00000000000E+00 -0.45872714941E+03  0.45872714941E+03  0.00000000000E+00 0.  1.
    9000007    1    1    2  501    0 -0.89502212316E+02  0.18060937020E+03 -0.24436568689E+03  0.51024011950E+03  0.40000000000E+03 0.  1.
   -9000007    1    1    2    0  502  0.89502212316E+02 -0.18060937020E+03  0.53457897132E+03  0.69742746375E+03  0.40000000000E+03 0.  1.
<mgrwt>
<rscale>  2 0.44791784E+03</rscale>
<asrwt>0</asrwt>
<pdfrwt beam="1">  1       21 0.11522161E+00 0.44791784E+03</pdfrwt>
<pdfrwt beam="2">  1       21 0.70573407E-01 0.44791784E+03</pdfrwt>
<totfact> 0.90050779E+02</totfact>
</mgrwt>
</event>
<event>
 4    1  0.5013722E-002  0.4743096E+03  0.7818608E-02  0.1020711E+00
         21   -1    0    0  503  502  0.00000000000E+00  0.00000000000E+00  0.61653638203E+03  0.61653638203E+03  0.00000000000E+00 0.  1.
         21   -1    0    0  501  503 -0.00000000000E+00 -0.00000000000E+00 -0.64060970843E+03  0.64060970843E+03  0.00000000000E+00 0.  1.
    9000007    1    1    2  501    0  0.62803533419E+02 -0.24703296844E+03 -0.42441025258E+03  0.63646966448E+03  0.40000000000E+03 0.  1.
   -9000007    1    1    2    0  502 -0.62803533419E+02  0.24703296844E+03  0.40033692617E+03  0.62067642598E+03  0.40000000000E+03 0.  1.
<mgrwt>
<rscale>  2 0.47430957E+03</rscale>
<asrwt>0</asrwt>
<pdfrwt beam="1">  1       21 0.94851751E-01 0.47430957E+03</pdfrwt>
<pdfrwt beam="2">  1       21 0.98555340E-01 0.47430957E+03</pdfrwt>
<totfact> 0.65870378E+02</totfact>
</mgrwt>
</event>
<event>
 4    1  0.5013722E-002  0.4681894E+03  0.7818608E-02  0.1022432E+00
         21   -1    0    0  501  502  0.00000000000E+00  0.00000000000E+00  0.54168527749E+03  0.54168527749E+03  0.00000000000E+00 0. -1.
         21   -1    0    0  502  503 -0.00000000000E+00 -0.00000000000E+00 -0.48433084777E+03  0.48433084777E+03  0.00000000000E+00 0.  1.
    9000007    1    1    2  501    0 -0.24269664789E+03  0.17310792468E+02  0.23673690156E+03  0.52463862514E+03  0.40000000000E+03 0. -1.
   -9000007    1    1    2    0  503  0.24269664789E+03 -0.17310792468E+02 -0.17938247183E+03  0.50137750013E+03  0.40000000000E+03 0.  1.
<mgrwt>
<rscale>  2 0.46818941E+03</rscale>
<asrwt>0</asrwt>
<pdfrwt beam="1">  1       21 0.83336197E-01 0.46818941E+03</pdfrwt>
<pdfrwt beam="2">  1       21 0.74512438E-01 0.46818941E+03</pdfrwt>
<totfact> 0.17290979E+03</totfact>
</mgrwt>
</event>
<event>
 4    1  0.5013722E-002  0.4523623E+03  0.7818608E-02  0.1027020E+00
         21   -1    0    0  503  502  0.00000000000E+00  0.00000000000E+00  0.84723246186E+03  0.84723246186E+03  0.00000000000E+00 0. -1.
         21   -1    0    0  501  503 -0.00000000000E+00 -0.00000000000E+00 -0.27647290061E+03  0.27647290061E+03  0.00000000000E+00 0. -1.
    9000007    1    1    2  501    0 -0.20508428892E+03  0.50715460642E+02  0.85633442761E+02  0.46039625327E+03  0.40000000000E+03 0. -1.
   -9000007    1    1    2    0  502  0.20508428892E+03 -0.50715460642E+02  0.48512611848E+03  0.66330910920E+03  0.40000000000E+03 0. -1.
<mgrwt>
<rscale>  2 0.45236227E+03</rscale>
<asrwt>0</asrwt>
<pdfrwt beam="1">  1       21 0.13034346E+00 0.45236227E+03</pdfrwt>
<pdfrwt beam="2">  1       21 0.42534293E-01 0.45236227E+03</pdfrwt>
<totfact> 0.19593761E+03</totfact>
</mgrwt>
</event>
<event>
 4    1  0.5013722E-002  0.6501866E+03  0.7818608E-02  0.9806429E-01
         21   -1    0    0  501  502  0.00000000000E+00  0.00000000000E+00  0.54541121042E+03  0.54541121042E+03  0.00000000000E+00 0.  1.
         21   -1    0    0  502  503 -0.00000000000E+00 -0.00000000000E+00 -0.12671790292E+04  0.12671790292E+04  0.00000000000E+00 0.  1.
    9000007    1    1    2  501    0  0.67401756280E+02  0.50813352777E+03  0.20388732970E+03  0.68140496183E+03  0.40000000000E+03 0.  1.
   -9000007    1    1    2    0  503 -0.67401756280E+02 -0.50813352777E+03 -0.92565514848E+03  0.11311852778E+04  0.40000000000E+03 0.  1.
<mgrwt>
<rscale>  2 0.65018665E+03</rscale>
<asrwt>0</asrwt>
<pdfrwt beam="1">  1       21 0.83909417E-01 0.65018665E+03</pdfrwt>
<pdfrwt beam="2">  1       21 0.19495062E+00 0.65018665E+03</pdfrwt>
<totfact> 0.13117580E+02</totfact>
</mgrwt>
</event>
<event>
 4    1  0.5013722E-002  0.8916335E+03  0.7818608E-02  0.9436101E-01
         21   -1    0    0  503  502  0.00000000000E+00  0.00000000000E+00  0.77699691360E+03  0.77699691360E+03  0.00000000000E+00 0.  1.
         21   -1    0    0  501  503 -0.00000000000E+00 -0.00000000000E+00 -0.35877038640E+04  0.35877038640E+04  0.00000000000E+00 0.  1.
    9000007    1    1    2  501    0  0.31423981233E+03 -0.73230025401E+03 -0.32504507739E+04  0.33705252640E+04  0.40000000000E+03 0.  1.
   -9000007    1    1    2    0  502 -0.31423981233E+03  0.73230025401E+03  0.43974382346E+03  0.99417551365E+03  0.40000000000E+03 0.  1.
<mgrwt>
<rscale>  2 0.89163351E+03</rscale>
<asrwt>0</asrwt>
<pdfrwt beam="1">  1       21 0.11953799E+00 0.89163351E+03</pdfrwt>
<pdfrwt beam="2">  1       21 0.55195444E+00 0.89163351E+03</pdfrwt>
<totfact> 0.21467192E-01</totfact>
</mgrwt>
</event>
<event>
 4    1  0.5013722E-002  0.5855434E+03  0.7818608E-02  0.9935861E-01
         21   -1    0    0  503  502  0.00000000000E+00  0.00000000000E+00  0.18391671830E+03  0.18391671830E+03  0.00000000000E+00 0.  1.
         21   -1    0    0  501  503 -0.00000000000E+00 -0.00000000000E+00 -0.19906360717E+04  0.19906360717E+04  0.00000000000E+00 0. -1.
    9000007    1    1    2  501    0 -0.31040440195E+03  0.29412606496E+03 -0.11773573925E+04  0.13149264103E+04  0.40000000000E+03 0. -1.
   -9000007    1    1    2    0  502  0.31040440195E+03 -0.29412606496E+03 -0.62936196088E+03  0.85962637968E+03  0.40000000000E+03 0.  1.
<mgrwt>
<rscale>  2 0.58554337E+03</rscale>
<asrwt>0</asrwt>
<pdfrwt beam="1">  1       21 0.28294880E-01 0.58554337E+03</pdfrwt>
<pdfrwt beam="2">  1       21 0.30625170E+00 0.58554337E+03</pdfrwt>
<totfact> 0.27542517E+02</totfact>
</mgrwt>
</event>
<event>
 4    1  0.5013722E-002  0.4239729E+03  0.7818608E-02  0.1035781E+00
         21   -1    0    0  501  502  0.00000000000E+00  0.00000000000E+00  0.40946527108E+03  0.40946527108E+03  0.00000000000E+00 0.  1.
         21   -1    0    0  502  503 -0.00000000000E+00 -0.00000000000E+00 -0.68680462999E+03  0.68680462999E+03  0.00000000000E+00 0.  1.
    9000007    1    1    2  501    0 -0.13730029269E+03  0.30027075531E+02  0.19058384222E+03  0.46483889312E+03  0.40000000000E+03 0.  1.
   -9000007    1    1    2    0  503  0.13730029269E+03 -0.30027075531E+02 -0.46792320114E+03  0.63143100795E+03  0.40000000000E+03 0.  1.
<mgrwt>
<rscale>  2 0.42397287E+03</rscale>
<asrwt>0</asrwt>
<pdfrwt beam="1">  1       21 0.62994657E-01 0.42397287E+03</pdfrwt>
<pdfrwt beam="2">  1       21 0.10566225E+00 0.42397287E+03</pdfrwt>
<totfact> 0.14528779E+03</totfact>
</mgrwt>
</event>
<event>
 4    1  0.5013722E-002  0.4256849E+03  0.7818608E-02  0.1035232E+00
         21   -1    0    0  501  502  0.00000000000E+00  0.00000000000E+00  0.25370781401E+03  0.25370781401E+03  0.00000000000E+00 0.  1.
         21   -1    0    0  502  503 -0.00000000000E+00 -0.00000000000E+00 -0.10750725965E+04  0.10750725965E+04  0.00000000000E+00 0.  1.
    9000007    1    1    2  501    0  0.13637551368E+03  0.51081509828E+02 -0.25772748792E+02  0.42646434313E+03  0.40000000000E+03 0.  1.
   -9000007    1    1    2    0  503 -0.13637551368E+03 -0.51081509828E+02 -0.79559203367E+03  0.90231606736E+03  0.40000000000E+03 0.  1.
<mgrwt>
<rscale>  2 0.42568486E+03</rscale>
<asrwt>0</asrwt>
<pdfrwt beam="1">  1       21 0.39031972E-01 0.42568486E+03</pdfrwt>
<pdfrwt beam="2">  1       21 0.16539578E+00 0.42568486E+03</pdfrwt>
<totfact> 0.12438896E+03</totfact>
</mgrwt>
</event>
<event>
 4    1  0.5013722E-002  0.4292836E+03  0.7818608E-02  0.1034087E+00
         21   -1    0    0  501  502  0.00000000000E+00  0.00000000000E+00  0.24243451194E+04  0.24243451194E+04  0.00000000000E+00 0. -1.
         21   -1    0    0  502  503 -0.00000000000E+00 -0.00000000000E+00 -0.97555194517E+02  0.97555194517E+02  0.00000000000E+00 0. -1.
    9000007    1    1    2  501    0 -0.10275074807E+02 -0.15549546808E+03  0.17559198289E+04  0.18076334980E+04  0.40000000000E+03 0. -1.
   -9000007    1    1    2    0  503  0.10275074807E+02  0.15549546808E+03  0.57087009598E+03  0.71426681586E+03  0.40000000000E+03 0. -1.
<mgrwt>
<rscale>  2 0.42928361E+03</rscale>
<asrwt>0</asrwt>
<pdfrwt beam="1">  1       21 0.37297613E+00 0.42928361E+03</pdfrwt>
<pdfrwt beam="2">  1       21 0.15008493E-01 0.42928361E+03</pdfrwt>
<totfact> 0.39339369E+02</totfact>
</mgrwt>
</event>
<event>
 4    1  0.5013722E-002  0.4447849E+03  0.7818608E-02  0.1029289E+00
         21   -1    0    0  503  502  0.00000000000E+00  0.00000000000E+00  0.53426833670E+03  0.53426833670E+03  0.00000000000E+00 0. -1.
         21   -1    0    0  501  503 -0.00000000000E+00 -0.00000000000E+00 -0.37880195211E+03  0.37880195211E+03  0.00000000000E+00 0. -1.
    9000007    1    1    2  501    0 -0.19450825619E+03 -0.36337847190E+00  0.14617361944E+03  0.46818833901E+03  0.40000000000E+03 0. -1.
   -9000007    1    1    2    0  502  0.19450825619E+03  0.36337847190E+00  0.92927651516E+01  0.44488194979E+03  0.40000000000E+03 0. -1.
<mgrwt>
<rscale>  2 0.44478488E+03</rscale>
<asrwt>0</asrwt>
<pdfrwt beam="1">  1       21 0.82195129E-01 0.44478488E+03</pdfrwt>
<pdfrwt beam="2">  1       21 0.58277223E-01 0.44478488E+03</pdfrwt>
<totfact> 0.31141980E+03</totfact>
</mgrwt>
</event>
<event>
 4    1  0.5013722E-002  0.4024650E+03  0.7818608E-02  0.1042929E+00
         21   -1    0    0  503  502  0.00000000000E+00  0.00000000000E+00  0.13667998330E+03  0.13667998330E+03  0.00000000000E+00 0.  1.
         21   -1    0    0  501  503 -0.00000000000E+00 -0.00000000000E+00 -0.12732417169E+04  0.12732417169E+04  0.00000000000E+00 0.  1.
    9000007    1    1    2  501    0 -0.27237184692E+02 -0.35159649495E+02 -0.75377289481E+03  0.85448911177E+03  0.40000000000E+03 0.  1.
   -9000007    1    1    2    0  502  0.27237184692E+02  0.35159649495E+02 -0.38278883879E+03  0.55543258842E+03  0.40000000000E+03 0.  1.
<mgrwt>
<rscale>  2 0.40246499E+03</rscale>
<asrwt>0</asrwt>
<pdfrwt beam="1">  1       21 0.21027689E-01 0.40246499E+03</pdfrwt>
<pdfrwt beam="2">  1       21 0.19588335E+00 0.40246499E+03</pdfrwt>
<totfact> 0.26046327E+03</totfact>
</mgrwt>
</event>
<event>
 4    1  0.5013722E-002  0.4777900E+03  0.7818608E-02  0.1019744E+00
         21   -1    0    0  503  502  0.00000000000E+00  0.00000000000E+00  0.27022943002E+03  0.27022943002E+03  0.00000000000E+00 0. -1.
         21   -1    0    0  501  503 -0.00000000000E+00 -0.00000000000E+00 -0.11143939448E+04  0.11143939448E+04  0.00000000000E+00 0. -1.
    9000007    1    1    2  501    0  0.19740115568E+03  0.17121934266E+03 -0.76261341875E+03  0.89992361121E+03  0.40000000000E+03 0.  1.
   -9000007    1    1    2    0  502 -0.19740115568E+03 -0.17121934266E+03 -0.81551096023E+02  0.48469976359E+03  0.40000000000E+03 0.  1.
<mgrwt>
<rscale>  2 0.47779000E+03</rscale>
<asrwt>0</asrwt>
<pdfrwt beam="1">  1       21 0.41573758E-01 0.47779000E+03</pdfrwt>
<pdfrwt beam="2">  1       21 0.17144522E+00 0.47779000E+03</pdfrwt>
<totfact> 0.96423363E+02</totfact>
</mgrwt>
</event>
<event>
 4    1  0.5013722E-002  0.4829420E+03  0.7818608E-02  0.1018330E+00
         21   -1    0    0  503  502  0.00000000000E+00  0.00000000000E+00  0.61181388535E+03  0.61181388535E+03  0.00000000000E+00 0.  1.
         21   -1    0    0  501  503 -0.00000000000E+00 -0.00000000000E+00 -0.10695069263E+04  0.10695069263E+04  0.00000000000E+00 0.  1.
    9000007    1    1    2  501    0 -0.17030082792E+03  0.21031061992E+03 -0.90324250553E+03  0.10242460411E+04  0.40000000000E+03 0.  1.
   -9000007    1    1    2    0  502  0.17030082792E+03 -0.21031061992E+03  0.44554946454E+03  0.65707477063E+03  0.40000000000E+03 0.  1.
<mgrwt>
<rscale>  2 0.48294195E+03</rscale>
<asrwt>0</asrwt>
<pdfrwt beam="1">  1       21 0.94125213E-01 0.48294195E+03</pdfrwt>
<pdfrwt beam="2">  1       21 0.16453953E+00 0.48294195E+03</pdfrwt>
<totfact> 0.17645814E+02</totfact>
</mgrwt>
</event>
<event>
 4    1  0.5013722E-002  0.4024508E+03  0.7818608E-02  0.1042934E+00
         21   -1    0    0  503  502  0.00000000000E+00  0.00000000000E+00  0.13642442917E+03  0.13642442917E+03  0.00000000000E+00 0.  1.
         21   -1    0    0  501  503 -0.00000000000E+00 -0.00000000000E+00 -0.12228128545E+04  0.12228128545E+04  0.00000000000E+00 0.  1.
    9000007    1    1    2  501    0 -0.44238398919E+02 -0.30957795410E+01 -0.65913346993E+03  0.77228463081E+03  0.40000000000E+03 0.  1.
   -9000007    1    1    2    0  502  0.44238398919E+02  0.30957795410E+01 -0.42725495539E+03  0.58695265286E+03  0.40000000000E+03 0.  1.
<mgrwt>
<rscale>  2 0.40245077E+03</rscale>
<asrwt>0</asrwt>
<pdfrwt beam="1">  1       21 0.20988374E-01 0.40245077E+03</pdfrwt>
<pdfrwt beam="2">  1       21 0.18812505E+00 0.40245077E+03</pdfrwt>
<totfact> 0.29503312E+03</totfact>
</mgrwt>
</event>
<event>
 4    1  0.5013722E-002  0.6070387E+03  0.7818608E-02  0.9890910E-01
         21   -1    0    0  503  502  0.00000000000E+00  0.00000000000E+00  0.85396100426E+03  0.85396100426E+03  0.00000000000E+00 0.  1.
         21   -1    0    0  501  503 -0.00000000000E+00 -0.00000000000E+00 -0.43271807782E+03  0.43271807782E+03  0.00000000000E+00 0. -1.
    9000007    1    1    2  501    0  0.23047089716E+03  0.39418161475E+03  0.17668266532E+03  0.63222839550E+03  0.40000000000E+03 0. -1.
   -9000007    1    1    2    0  502 -0.23047089716E+03 -0.39418161475E+03  0.24456026112E+03  0.65445068658E+03  0.40000000000E+03 0.  1.
<mgrwt>
<rscale>  2 0.60703870E+03</rscale>
<asrwt>0</asrwt>
<pdfrwt beam="1">  1       21 0.13137862E+00 0.60703870E+03</pdfrwt>
<pdfrwt beam="2">  1       21 0.66572012E-01 0.60703870E+03</pdfrwt>
<totfact> 0.69163174E+02</totfact>
</mgrwt>
</event>
<event>
 4    1  0.5013722E-002  0.4099071E+03  0.7818608E-02  0.1040402E+00
         21   -1    0    0  503  502  0.00000000000E+00  0.00000000000E+00  0.79245158691E+03  0.79245158691E+03  0.00000000000E+00 0. -1.
         21   -1    0    0  501  503 -0.00000000000E+00 -0.00000000000E+00 -0.92327639526E+03  0.92327639526E+03  0.00000000000E+00 0. -1.
    9000007    1    1    2  501    0 -0.54123967774E+02 -0.71375398757E+02 -0.81835606296E+03  0.91527618631E+03  0.40000000000E+03 0. -1.
   -9000007    1    1    2    0  502  0.54123967774E+02  0.71375398757E+02  0.68753125461E+03  0.80045179586E+03  0.40000000000E+03 0. -1.
<mgrwt>
<rscale>  2 0.40990713E+03</rscale>
<asrwt>0</asrwt>
<pdfrwt beam="1">  1       21 0.12191563E+00 0.40990713E+03</pdfrwt>
<pdfrwt beam="2">  1       21 0.14204252E+00 0.40990713E+03</pdfrwt>
<totfact> 0.14491272E+02</totfact>
</mgrwt>
</event>
<event>
 4    1  0.5013722E-002  0.4459505E+03  0.7818608E-02  0.1028937E+00
         21   -1    0    0  501  502  0.00000000000E+00  0.00000000000E+00  0.17385765167E+03  0.17385765167E+03  0.00000000000E+00 0. -1.
         21   -1    0    0  502  503 -0.00000000000E+00 -0.00000000000E+00 -0.11838184154E+04  0.11838184154E+04  0.00000000000E+00 0. -1.
    9000007    1    1    2  501    0  0.17479877923E+03 -0.91198687018E+02 -0.38028971495E+03  0.58608197467E+03  0.40000000000E+03 0.  1.
   -9000007    1    1    2    0  503 -0.17479877923E+03  0.91198687018E+02 -0.62967104875E+03  0.77159409236E+03  0.40000000000E+03 0.  1.
<mgrwt>
<rscale>  2 0.44595046E+03</rscale>
<asrwt>0</asrwt>
<pdfrwt beam="1">  1       21 0.26747332E-01 0.44595046E+03</pdfrwt>
<pdfrwt beam="2">  1       21 0.18212590E+00 0.44595046E+03</pdfrwt>
<totfact> 0.19936343E+03</totfact>
</mgrwt>
</event>
<event>
 4    1  0.5013722E-002  0.5315404E+03  0.7818608E-02  0.1005859E+00
         21   -1    0    0  503  502  0.00000000000E+00  0.00000000000E+00  0.29982625803E+03  0.29982625803E+03  0.00000000000E+00 0. -1.
         21   -1    0    0  501  503 -0.00000000000E+00 -0.00000000000E+00 -0.19013630560E+04  0.19013630560E+04  0.00000000000E+00 0.  1.
    9000007    1    1    2  501    0 -0.17066295335E+03  0.30562935794E+03 -0.15824173705E+04  0.16693052095E+04  0.40000000000E+03 0.  1.
   -9000007    1    1    2    0  502  0.17066295335E+03 -0.30562935794E+03 -0.19119427430E+02  0.53188410447E+03  0.40000000000E+03 0. -1.
<mgrwt>
<rscale>  2 0.53154035E+03</rscale>
<asrwt>0</asrwt>
<pdfrwt beam="1">  1       21 0.46127117E-01 0.53154035E+03</pdfrwt>
<pdfrwt beam="2">  1       21 0.29251739E+00 0.53154035E+03</pdfrwt>
<totfact> 0.12621685E+02</totfact>
</mgrwt>
</event>
<event>
 4    1  0.5013722E-002  0.4210452E+03  0.7818608E-02  0.1036727E+00
         21   -1    0    0  501  502  0.00000000000E+00  0.00000000000E+00  0.72001167609E+03  0.72001167609E+03  0.00000000000E+00 0.  1.
         21   -1    0    0  502  503 -0.00000000000E+00 -0.00000000000E+00 -0.25023773554E+03  0.25023773554E+03  0.00000000000E+00 0.  1.
    9000007    1    1    2  501    0 -0.64919578300E+01 -0.13128930025E+03  0.29638149088E+03  0.51489903283E+03  0.40000000000E+03 0.  1.
   -9000007    1    1    2    0  503  0.64919578300E+01  0.13128930025E+03  0.17339244967E+03  0.45535037881E+03  0.40000000000E+03 0.  1.
<mgrwt>
<rscale>  2 0.42104516E+03</rscale>
<asrwt>0</asrwt>
<pdfrwt beam="1">  1       21 0.11077103E+00 0.42104516E+03</pdfrwt>
<pdfrwt beam="2">  1       21 0.38498114E-01 0.42104516E+03</pdfrwt>
<totfact> 0.36805004E+03</totfact>
</mgrwt>
</event>
<event>
 4    1  0.5013722E-002  0.4400533E+03  0.7818608E-02  0.1030730E+00
         21   -1    0    0  501  502  0.00000000000E+00  0.00000000000E+00  0.10541987133E+04  0.10541987133E+04  0.00000000000E+00 0.  1.
         21   -1    0    0  502  503 -0.00000000000E+00 -0.00000000000E+00 -0.74838038569E+03  0.74838038569E+03  0.00000000000E+00 0.  1.
    9000007    1    1    2  501    0 -0.12765718921E+03 -0.13172156370E+03  0.93581207571E+03  0.10341137120E+04  0.40000000000E+03 0.  1.
   -9000007    1    1    2    0  503  0.12765718921E+03  0.13172156370E+03 -0.62999374812E+03  0.76846538697E+03  0.40000000000E+03 0.  1.
<mgrwt>
<rscale>  2 0.44005332E+03</rscale>
<asrwt>0</asrwt>
<pdfrwt beam="1">  1       21 0.16218442E+00 0.44005332E+03</pdfrwt>
<pdfrwt beam="2">  1       21 0.11513544E+00 0.44005332E+03</pdfrwt>
<totfact> 0.11465389E+02</totfact>
</mgrwt>
</event>
<event>
 4    1  0.5013722E-002  0.4438438E+03  0.7818608E-02  0.1029574E+00
         21   -1    0    0  503  502  0.00000000000E+00  0.00000000000E+00  0.60745343231E+03  0.60745343231E+03  0.00000000000E+00 0. -1.
         21   -1    0    0  501  503 -0.00000000000E+00 -0.00000000000E+00 -0.89404393409E+03  0.89404393409E+03  0.00000000000E+00 0. -1.
    9000007    1    1    2  501    0  0.10720131916E+03  0.15970348289E+03 -0.74260989889E+03  0.86513975011E+03  0.40000000000E+03 0. -1.
   -9000007    1    1    2    0  502 -0.10720131916E+03 -0.15970348289E+03  0.45601939711E+03  0.63635761630E+03  0.40000000000E+03 0. -1.
<mgrwt>
<rscale>  2 0.44384381E+03</rscale>
<asrwt>0</asrwt>
<pdfrwt beam="1">  1       21 0.93454374E-01 0.44384381E+03</pdfrwt>
<pdfrwt beam="2">  1       21 0.13754522E+00 0.44384381E+03</pdfrwt>
<totfact> 0.29833794E+02</totfact>
</mgrwt>
</event>
<event>
 4    1  0.5013722E-002  0.4019568E+03  0.7818608E-02  0.1043104E+00
         21   -1    0    0  503  502  0.00000000000E+00  0.00000000000E+00  0.85857208236E+03  0.85857208236E+03  0.00000000000E+00 0.  1.
         21   -1    0    0  501  503 -0.00000000000E+00 -0.00000000000E+00 -0.21627809285E+03  0.21627809285E+03  0.00000000000E+00 0.  1.
    9000007    1    1    2  501    0  0.55183016705E+01  0.39227380403E+02  0.12745048947E+03  0.42167862916E+03  0.40000000000E+03 0.  1.
   -9000007    1    1    2    0  502 -0.55183016705E+01 -0.39227380403E+02  0.51484350004E+03  0.65317154605E+03  0.40000000000E+03 0.  1.
<mgrwt>
<rscale>  2 0.40195676E+03</rscale>
<asrwt>0</asrwt>
<pdfrwt beam="1">  1       21 0.13208801E+00 0.40195676E+03</pdfrwt>
<pdfrwt beam="2">  1       21 0.33273553E-01 0.40195676E+03</pdfrwt>
<totfact> 0.31878852E+03</totfact>
</mgrwt>
</event>
<event>
 4    1  0.5013722E-002  0.4079754E+03  0.7818608E-02  0.1041053E+00
         21   -1    0    0  501  502  0.00000000000E+00  0.00000000000E+00  0.80810848409E+02  0.80810848409E+02  0.00000000000E+00 0.  1.
         21   -1    0    0  502  503 -0.00000000000E+00 -0.00000000000E+00 -0.26102578269E+04  0.26102578269E+04  0.00000000000E+00 0.  1.
    9000007    1    1    2  501    0  0.18341745682E+02 -0.78150584656E+02 -0.64675668274E+03  0.76468172476E+03  0.40000000000E+03 0. -1.
   -9000007    1    1    2    0  503 -0.18341745682E+02  0.78150584656E+02 -0.18826902957E+04  0.19263869505E+04  0.40000000000E+03 0. -1.
<mgrwt>
<rscale>  2 0.40797541E+03</rscale>
<asrwt>0</asrwt>
<pdfrwt beam="1">  1       21 0.12432436E-01 0.40797541E+03</pdfrwt>
<pdfrwt beam="2">  1       21 0.40157818E+00 0.40797541E+03</pdfrwt>
<totfact> 0.37210316E+02</totfact>
</mgrwt>
</event>
<event>
 4    1  0.5013722E-002  0.4407203E+03  0.7818608E-02  0.1030526E+00
         21   -1    0    0  501  502  0.00000000000E+00  0.00000000000E+00  0.21135810851E+03  0.21135810851E+03  0.00000000000E+00 0.  1.
         21   -1    0    0  502  503 -0.00000000000E+00 -0.00000000000E+00 -0.12627579790E+04  0.12627579790E+04  0.00000000000E+00 0.  1.
    9000007    1    1    2  501    0 -0.35661016208E+02 -0.18155615050E+03 -0.14112652449E+03  0.46276456193E+03  0.40000000000E+03 0.  1.
   -9000007    1    1    2    0  503  0.35661016208E+02  0.18155615050E+03 -0.91027334600E+03  0.10113515256E+04  0.40000000000E+03 0.  1.
<mgrwt>
<rscale>  2 0.44072026E+03</rscale>
<asrwt>0</asrwt>
<pdfrwt beam="1">  1       21 0.32516632E-01 0.44072026E+03</pdfrwt>
<pdfrwt beam="2">  1       21 0.19427046E+00 0.44072026E+03</pdfrwt>
<totfact> 0.11194498E+03</totfact>
</mgrwt>
</event>
<event>
 4    1  0.5013722E-002  0.4236664E+03  0.7818608E-02  0.1035880E+00
         21   -1    0    0  501  502  0.00000000000E+00  0.00000000000E+00  0.15993878569E+04  0.15993878569E+04  0.00000000000E+00 0.  1.
         21   -1    0    0  502  503 -0.00000000000E+00 -0.00000000000E+00 -0.17651633950E+03  0.17651633950E+03  0.00000000000E+00 0.  1.
    9000007    1    1    2  501    0 -0.12723632404E+03 -0.57481778519E+02  0.12473178367E+04  0.13173059716E+04  0.40000000000E+03 0.  1.
   -9000007    1    1    2    0  503  0.12723632404E+03  0.57481778519E+02  0.17555368072E+03  0.45859822485E+03  0.40000000000E+03 0.  1.
<mgrwt>
<rscale>  2 0.42366642E+03</rscale>
<asrwt>0</asrwt>
<pdfrwt beam="1">  1       21 0.24605966E+00 0.42366642E+03</pdfrwt>
<pdfrwt beam="2">  1       21 0.27156361E-01 0.42366642E+03</pdfrwt>
<totfact> 0.75172966E+02</totfact>
</mgrwt>
</event>
<event>
 4    1  0.5013722E-002  0.4874482E+03  0.7818608E-02  0.1017108E+00
         21   -1    0    0  503  502  0.00000000000E+00  0.00000000000E+00  0.22386448752E+03  0.22386448752E+03  0.00000000000E+00 0. -1.
         21   -1    0    0  501  503 -0.00000000000E+00 -0.00000000000E+00 -0.13737502719E+04  0.13737502719E+04  0.00000000000E+00 0.  1.
    9000007    1    1    2  501    0  0.79658026646E+02  0.26694625737E+03 -0.19403345779E+03  0.52464720363E+03  0.40000000000E+03 0. -1.
   -9000007    1    1    2    0  502 -0.79658026646E+02 -0.26694625737E+03 -0.95585232656E+03  0.10729675558E+04  0.40000000000E+03 0.  1.
<mgrwt>
<rscale>  2 0.48744816E+03</rscale>
<asrwt>0</asrwt>
<pdfrwt beam="1">  1       21 0.34440691E-01 0.48744816E+03</pdfrwt>
<pdfrwt beam="2">  1       21 0.21134619E+00 0.48744816E+03</pdfrwt>
<totfact> 0.75197030E+02</totfact>
</mgrwt>
</event>
<event>
 4    1  0.5013722E-002  0.4340150E+03  0.7818608E-02  0.1032599E+00
         21   -1    0    0  501  502  0.00000000000E+00  0.00000000000E+00  0.35001729937E+03  0.35001729937E+03  0.00000000000E+00 0. -1.
         21   -1    0    0  502  503 -0.00000000000E+00 -0.00000000000E+00 -0.53997969034E+03  0.53997969034E+03  0.00000000000E+00 0. -1.
    9000007    1    1    2  501    0  0.11986157404E+03 -0.11833093249E+03 -0.69223643458E+02  0.43950076147E+03  0.40000000000E+03 0. -1.
   -9000007    1    1    2    0  503 -0.11986157404E+03  0.11833093249E+03 -0.12073874751E+03  0.45049622825E+03  0.40000000000E+03 0. -1.
<mgrwt>
<rscale>  2 0.43401498E+03</rscale>
<asrwt>0</asrwt>
<pdfrwt beam="1">  1       21 0.53848816E-01 0.43401498E+03</pdfrwt>
<pdfrwt beam="2">  1       21 0.83073798E-01 0.43401498E+03</pdfrwt>
<totfact> 0.36188646E+03</totfact>
</mgrwt>
</event>
<event>
 4    1  0.5013722E-002  0.4262861E+03  0.7818608E-02  0.1035040E+00
         21   -1    0    0  503  502  0.00000000000E+00  0.00000000000E+00  0.37726116682E+03  0.37726116682E+03  0.00000000000E+00 0.  1.
         21   -1    0    0  501  503 -0.00000000000E+00 -0.00000000000E+00 -0.56316640168E+03  0.56316640168E+03  0.00000000000E+00 0.  1.
    9000007    1    1    2  501    0  0.34213785811E+02 -0.14335024764E+03 -0.27181313684E+03  0.50557121951E+03  0.40000000000E+03 0.  1.
   -9000007    1    1    2    0  502 -0.34213785811E+02  0.14335024764E+03  0.85907901971E+02  0.43485634899E+03  0.40000000000E+03 0.  1.
<mgrwt>
<rscale>  2 0.42628614E+03</rscale>
<asrwt>0</asrwt>
<pdfrwt beam="1">  1       21 0.58040180E-01 0.42628614E+03</pdfrwt>
<pdfrwt beam="2">  1       21 0.86640985E-01 0.42628614E+03</pdfrwt>
<totfact> 0.27973305E+03</totfact>
</mgrwt>
</event>
<event>
 4    1  0.5013722E-002  0.4701302E+03  0.7818608E-02  0.1021883E+00
         21   -1    0    0  503  502  0.00000000000E+00  0.00000000000E+00  0.36805843965E+03  0.36805843965E+03  0.00000000000E+00 0.  1.
         21   -1    0    0  501  503 -0.00000000000E+00 -0.00000000000E+00 -0.12802958088E+04  0.12802958088E+04  0.00000000000E+00 0.  1.
    9000007    1    1    2  501    0  0.17230720519E+03  0.17701019365E+03 -0.10566722939E+04  0.11565373830E+04  0.40000000000E+03 0.  1.
   -9000007    1    1    2    0  502 -0.17230720519E+03 -0.17701019365E+03  0.14443492477E+03  0.49181686542E+03  0.40000000000E+03 0.  1.
<mgrwt>
<rscale>  2 0.47013018E+03</rscale>
<asrwt>0</asrwt>
<pdfrwt beam="1">  1       21 0.56624375E-01 0.47013018E+03</pdfrwt>
<pdfrwt beam="2">  1       21 0.19696859E+00 0.47013018E+03</pdfrwt>
<totfact> 0.33336225E+02</totfact>
</mgrwt>
</event>
<event>
 4    1  0.5013722E-002  0.4072531E+03  0.7818608E-02  0.1041297E+00
         21   -1    0    0  501  502  0.00000000000E+00  0.00000000000E+00  0.44506052304E+03  0.44506052304E+03  0.00000000000E+00 0.  1.
         21   -1    0    0  502  503 -0.00000000000E+00 -0.00000000000E+00 -0.56005012589E+03  0.56005012589E+03  0.00000000000E+00 0.  1.
    9000007    1    1    2  501    0  0.74628789499E+02 -0.16901017226E+02  0.23320637205E+03  0.46929768013E+03  0.40000000000E+03 0.  1.
   -9000007    1    1    2    0  503 -0.74628789499E+02  0.16901017226E+02 -0.34819597490E+03  0.53581296881E+03  0.40000000000E+03 0.  1.
<mgrwt>
<rscale>  2 0.40725312E+03</rscale>
<asrwt>0</asrwt>
<pdfrwt beam="1">  1       21 0.68470849E-01 0.40725312E+03</pdfrwt>
<pdfrwt beam="2">  1       21 0.86161558E-01 0.40725312E+03</pdfrwt>
<totfact> 0.19827280E+03</totfact>
</mgrwt>
</event>
<event>
 4    1  0.5013722E-002  0.4396475E+03  0.7818608E-02  0.1030855E+00
         21   -1    0    0  501  502  0.00000000000E+00  0.00000000000E+00  0.39008962781E+03  0.39008962781E+03  0.00000000000E+00 0.  1.
         21   -1    0    0  502  503 -0.00000000000E+00 -0.00000000000E+00 -0.65645841024E+03  0.65645841024E+03  0.00000000000E+00 0. -1.
    9000007    1    1    2  501    0  0.11683104855E+03 -0.14014444507E+03  0.12592341830E+03  0.45732555873E+03  0.40000000000E+03 0.  1.
   -9000007    1    1    2    0  503 -0.11683104855E+03  0.14014444507E+03 -0.39229220073E+03  0.58922247932E+03  0.40000000000E+03 0. -1.
<mgrwt>
<rscale>  2 0.43964754E+03</rscale>
<asrwt>0</asrwt>
<pdfrwt beam="1">  1       21 0.60013790E-01 0.43964754E+03</pdfrwt>
<pdfrwt beam="2">  1       21 0.10099360E+00 0.43964754E+03</pdfrwt>
<totfact> 0.17941612E+03</totfact>
</mgrwt>
</event>
<event>
 4    1  0.5013722E-002  0.5446299E+03  0.7818608E-02  0.1002745E+00
         21   -1    0    0  501  502  0.00000000000E+00  0.00000000000E+00  0.35177304065E+03  0.35177304065E+03  0.00000000000E+00 0.  1.
         21   -1    0    0  502  503 -0.00000000000E+00 -0.00000000000E+00 -0.96905825828E+03  0.96905825828E+03  0.00000000000E+00 0.  1.
    9000007    1    1    2  501    0 -0.27407483276E+03 -0.24800135384E+03 -0.70657043983E+02  0.54919404888E+03  0.40000000000E+03 0.  1.
   -9000007    1    1    2    0  503  0.27407483276E+03  0.24800135384E+03 -0.54662817364E+03  0.77163725006E+03  0.40000000000E+03 0.  1.
<mgrwt>
<rscale>  2 0.54462986E+03</rscale>
<asrwt>0</asrwt>
<pdfrwt beam="1">  1       21 0.54118929E-01 0.54462986E+03</pdfrwt>
<pdfrwt beam="2">  1       21 0.14908589E+00 0.54462986E+03</pdfrwt>
<totfact> 0.79472990E+02</totfact>
</mgrwt>
</event>
<event>
 4    1  0.5013722E-002  0.4750705E+03  0.7818608E-02  0.1020499E+00
         21   -1    0    0  501  502  0.00000000000E+00  0.00000000000E+00  0.22689127447E+03  0.22689127447E+03  0.00000000000E+00 0. -1.
         21   -1    0    0  502  503 -0.00000000000E+00 -0.00000000000E+00 -0.10220053824E+04  0.10220053824E+04  0.00000000000E+00 0. -1.
    9000007    1    1    2  501    0 -0.25620238090E+03  0.72364747015E+01 -0.29551499821E+03  0.55948292263E+03  0.40000000000E+03 0. -1.
   -9000007    1    1    2    0  503  0.25620238090E+03 -0.72364747015E+01 -0.49959910975E+03  0.68941373428E+03  0.40000000000E+03 0. -1.
<mgrwt>
<rscale>  2 0.47507055E+03</rscale>
<asrwt>0</asrwt>
<pdfrwt beam="1">  1       21 0.34906349E-01 0.47507055E+03</pdfrwt>
<pdfrwt beam="2">  1       21 0.15723160E+00 0.47507055E+03</pdfrwt>
<totfact> 0.17624375E+03</totfact>
</mgrwt>
</event>
<event>
 4    1  0.5013722E-002  0.5503289E+03  0.7818608E-02  0.1001418E+00
         21   -1    0    0  501  502  0.00000000000E+00  0.00000000000E+00  0.31874053650E+03  0.31874053650E+03  0.00000000000E+00 0.  1.
         21   -1    0    0  502  503 -0.00000000000E+00 -0.00000000000E+00 -0.10003527783E+04  0.10003527783E+04  0.00000000000E+00 0. -1.
    9000007    1    1    2  501    0 -0.86874074142E+02  0.36785155942E+03 -0.19310304370E+03  0.58322436507E+03  0.40000000000E+03 0.  1.
   -9000007    1    1    2    0  503  0.86874074142E+02 -0.36785155942E+03 -0.48850919805E+03  0.73586894968E+03  0.40000000000E+03 0. -1.
<mgrwt>
<rscale>  2 0.55032888E+03</rscale>
<asrwt>0</asrwt>
<pdfrwt beam="1">  1       21 0.49037005E-01 0.55032888E+03</pdfrwt>
<pdfrwt beam="2">  1       21 0.15390043E+00 0.55032888E+03</pdfrwt>
<totfact> 0.89827891E+02</totfact>
</mgrwt>
</event>
<event>
 4    1  0.5013722E-002  0.5337443E+03  0.7818608E-02  0.1005328E+00
         21   -1    0    0  503  502  0.00000000000E+00  0.00000000000E+00  0.72215444261E+03  0.72215444261E+03  0.00000000000E+00 0.  1.
         21   -1    0    0  501  503 -0.00000000000E+00 -0.00000000000E+00 -0.39893695691E+03  0.39893695691E+03  0.00000000000E+00 0.  1.
    9000007    1    1    2  501    0 -0.29695859476E+03 -0.19156869534E+03  0.10242909648E+03  0.54348384690E+03  0.40000000000E+03 0.  1.
   -9000007    1    1    2    0  502  0.29695859476E+03  0.19156869534E+03  0.22078838922E+03  0.57760755263E+03  0.40000000000E+03 0.  1.
<mgrwt>
<rscale>  2 0.53374429E+03</rscale>
<asrwt>0</asrwt>
<pdfrwt beam="1">  1       21 0.11110068E+00 0.53374429E+03</pdfrwt>
<pdfrwt beam="2">  1       21 0.61374916E-01 0.53374429E+03</pdfrwt>
<totfact> 0.13042290E+03</totfact>
</mgrwt>
</event>
<event>
 4    1  0.5013722E-002  0.4400847E+03  0.7818608E-02  0.1030721E+00
         21   -1    0    0  503  502  0.00000000000E+00  0.00000000000E+00  0.13666400035E+03  0.13666400035E+03  0.00000000000E+00 0.  1.
         21   -1    0    0  501  503 -0.00000000000E+00 -0.00000000000E+00 -0.14979117271E+04  0.14979117271E+04  0.00000000000E+00 0.  1.
    9000007    1    1    2  501    0  0.21306368675E+02  0.18226523454E+03 -0.49086094747E+03  0.65925643480E+03  0.40000000000E+03 0.  1.
   -9000007    1    1    2    0  502 -0.21306368675E+02 -0.18226523454E+03 -0.87038677930E+03  0.97531929266E+03  0.40000000000E+03 0.  1.
<mgrwt>
<rscale>  2 0.44008474E+03</rscale>
<asrwt>0</asrwt>
<pdfrwt beam="1">  1       21 0.21025231E-01 0.44008474E+03</pdfrwt>
<pdfrwt beam="2">  1       21 0.23044795E+00 0.44008474E+03</pdfrwt>
<totfact> 0.15294760E+03</totfact>
</mgrwt>
</event>
<event>
 4    1  0.5013722E-002  0.5371142E+03  0.7818608E-02  0.1004521E+00
         21   -1    0    0  503  502  0.00000000000E+00  0.00000000000E+00  0.51417058280E+03  0.51417058280E+03  0.00000000000E+00 0.  1.
         21   -1    0    0  501  503 -0.00000000000E+00 -0.00000000000E+00 -0.56274220752E+03  0.56274220752E+03  0.00000000000E+00 0.  1.
    9000007    1    1    2  501    0 -0.34559653328E+03 -0.95156147030E+02 -0.53535993957E+02  0.53977565597E+03  0.40000000000E+03 0.  1.
   -9000007    1    1    2    0  502  0.34559653328E+03  0.95156147030E+02  0.49643692416E+01  0.53713713435E+03  0.40000000000E+03 0.  1.
<mgrwt>
<rscale>  2 0.53711419E+03</rscale>
<asrwt>0</asrwt>
<pdfrwt beam="1">  1       21 0.79103166E-01 0.53711419E+03</pdfrwt>
<pdfrwt beam="2">  1       21 0.86575725E-01 0.53711419E+03</pdfrwt>
<totfact> 0.13457724E+03</totfact>
</mgrwt>
</event>
<event>
 4    1  0.5013722E-002  0.4959080E+03  0.7818608E-02  0.1014853E+00
         21   -1    0    0  503  502  0.00000000000E+00  0.00000000000E+00  0.99211921193E+03  0.99211921193E+03  0.00000000000E+00 0. -1.
         21   -1    0    0  501  503 -0.00000000000E+00 -0.00000000000E+00 -0.32927138124E+03  0.32927138124E+03  0.00000000000E+00 0. -1.
    9000007    1    1    2  501    0 -0.19688415408E+03 -0.21716667699E+03  0.29369026671E+01  0.49591668768E+03  0.40000000000E+03 0. -1.
   -9000007    1    1    2    0  502  0.19688415408E+03  0.21716667699E+03  0.65991092802E+03  0.82547390549E+03  0.40000000000E+03 0. -1.
<mgrwt>
<rscale>  2 0.49590799E+03</rscale>
<asrwt>0</asrwt>
<pdfrwt beam="1">  1       21 0.15263372E+00 0.49590799E+03</pdfrwt>
<pdfrwt beam="2">  1       21 0.50657136E-01 0.49590799E+03</pdfrwt>
<totfact> 0.87472157E+02</totfact>
</mgrwt>
</event>
<event>
 4    1  0.5013722E-002  0.4376168E+03  0.7818608E-02  0.1031481E+00
         21   -1    0    0  503  502  0.00000000000E+00  0.00000000000E+00  0.15568331246E+03  0.15568331246E+03  0.00000000000E+00 0. -1.
         21   -1    0    0  501  503 -0.00000000000E+00 -0.00000000000E+00 -0.13236679832E+04  0.13236679832E+04  0.00000000000E+00 0. -1.
    9000007    1    1    2  501    0  0.12850134298E+03  0.12245751181E+03 -0.78063589298E+03  0.89493063126E+03  0.40000000000E+03 0. -1.
   -9000007    1    1    2    0  502 -0.12850134298E+03 -0.12245751181E+03 -0.38734877773E+03  0.58442066438E+03  0.40000000000E+03 0. -1.
<mgrwt>
<rscale>  2 0.43761677E+03</rscale>
<asrwt>0</asrwt>
<pdfrwt beam="1">  1       21 0.23951279E-01 0.43761677E+03</pdfrwt>
<pdfrwt beam="2">  1       21 0.20364123E+00 0.43761677E+03</pdfrwt>
<totfact> 0.17721570E+03</totfact>
</mgrwt>
</event>
<event>
 4    1  0.5013722E-002  0.4860715E+03  0.7818608E-02  0.1017480E+00
         21   -1    0    0  503  502  0.00000000000E+00  0.00000000000E+00  0.17212677270E+04  0.17212677270E+04  0.00000000000E+00 0. -1.
         21   -1    0    0  501  503 -0.00000000000E+00 -0.00000000000E+00 -0.15314293099E+03  0.15314293099E+03  0.00000000000E+00 0. -1.
    9000007    1    1    2  501    0 -0.48911164547E+02 -0.27179618041E+03  0.48226341133E+03  0.68472144965E+03  0.40000000000E+03 0. -1.
   -9000007    1    1    2    0  502  0.48911164547E+02  0.27179618041E+03  0.10858613847E+04  0.11896892084E+04  0.40000000000E+03 0. -1.
<mgrwt>
<rscale>  2 0.48607146E+03</rscale>
<asrwt>0</asrwt>
<pdfrwt beam="1">  1       21 0.26481041E+00 0.48607146E+03</pdfrwt>
<pdfrwt beam="2">  1       21 0.23560452E-01 0.48607146E+03</pdfrwt>
<totfact> 0.73738024E+02</totfact>
</mgrwt>
</event>
<event>
 4    1  0.5013722E-002  0.4855577E+03  0.7818608E-02  0.1017619E+00
         21   -1    0    0  503  502  0.00000000000E+00  0.00000000000E+00  0.30198237625E+03  0.30198237625E+03  0.00000000000E+00 0. -1.
         21   -1    0    0  501  503 -0.00000000000E+00 -0.00000000000E+00 -0.78072863059E+03  0.78072863059E+03  0.00000000000E+00 0. -1.
    9000007    1    1    2  501    0 -0.27165958906E+03 -0.44354593758E+02 -0.23954855608E+03  0.54143307346E+03  0.40000000000E+03 0. -1.
   -9000007    1    1    2    0  502  0.27165958906E+03  0.44354593758E+02 -0.23919769827E+03  0.54127793339E+03  0.40000000000E+03 0. -1.
<mgrwt>
<rscale>  2 0.48555768E+03</rscale>
<asrwt>0</asrwt>
<pdfrwt beam="1">  1       21 0.46458827E-01 0.48555768E+03</pdfrwt>
<pdfrwt beam="2">  1       21 0.12011210E+00 0.48555768E+03</pdfrwt>
<totfact> 0.19859343E+03</totfact>
</mgrwt>
</event>
<event>
 4    1  0.5013722E-002  0.4226449E+03  0.7818608E-02  0.1036209E+00
         21   -1    0    0  503  502  0.00000000000E+00  0.00000000000E+00  0.14653805792E+04  0.14653805792E+04  0.00000000000E+00 0.  1.
         21   -1    0    0  501  503 -0.00000000000E+00 -0.00000000000E+00 -0.13782717064E+03  0.13782717064E+03  0.00000000000E+00 0. -1.
    9000007    1    1    2  501    0 -0.87687556158E+01 -0.13620502958E+03  0.39127276246E+03  0.57595405703E+03  0.40000000000E+03 0. -1.
   -9000007    1    1    2    0  502  0.87687556158E+01  0.13620502958E+03  0.93628064611E+03  0.10272536928E+04  0.40000000000E+03 0.  1.
<mgrwt>
<rscale>  2 0.42264489E+03</rscale>
<asrwt>0</asrwt>
<pdfrwt beam="1">  1       21 0.22544316E+00 0.42264489E+03</pdfrwt>
<pdfrwt beam="2">  1       21 0.21204181E-01 0.42264489E+03</pdfrwt>
<totfact> 0.16316840E+03</totfact>
</mgrwt>
</event>
<event>
 4    1  0.5013722E-002  0.7534236E+03  0.7818608E-02  0.9629995E-01
         21   -1    0    0  503  502  0.00000000000E+00  0.00000000000E+00  0.11968644458E+04  0.11968644458E+04  0.00000000000E+00 0. -1.
         21   -1    0    0  501  503 -0.00000000000E+00 -0.00000000000E+00 -0.63940410791E+03  0.63940410791E+03  0.00000000000E+00 0.  1.
    9000007    1    1    2  501    0  0.60791701037E+03 -0.19515111747E+03 -0.18784941470E+03  0.77648854000E+03  0.40000000000E+03 0.  1.
   -9000007    1    1    2    0  502 -0.60791701037E+03  0.19515111747E+03  0.74530975260E+03  0.10597800137E+04  0.40000000000E+03 0. -1.
<mgrwt>
<rscale>  2 0.75342355E+03</rscale>
<asrwt>0</asrwt>
<pdfrwt beam="1">  1       21 0.18413299E+00 0.75342355E+03</pdfrwt>
<pdfrwt beam="2">  1       21 0.98369863E-01 0.75342355E+03</pdfrwt>
<totfact> 0.10282215E+02</totfact>
</mgrwt>
</event>
<event>
 4    1  0.5013722E-002  0.4182407E+03  0.7818608E-02  0.1037640E+00
         21   -1    0    0  501  502  0.00000000000E+00  0.00000000000E+00  0.75552503319E+02  0.75552503319E+02  0.00000000000E+00 0.  1.
         21   -1    0    0  502  503 -0.00000000000E+00 -0.00000000000E+00 -0.23875500600E+04  0.23875500600E+04  0.00000000000E+00 0.  1.
    9000007    1    1    2  501    0 -0.32895591631E+02 -0.11765699415E+03 -0.13702641320E+04  0.14326720070E+04  0.40000000000E+03 0.  1.
   -9000007    1    1    2    0  503  0.32895591631E+02  0.11765699415E+03 -0.94173342471E+03  0.10304305563E+04  0.40000000000E+03 0.  1.
<mgrwt>
<rscale>  2 0.41824071E+03</rscale>
<asrwt>0</asrwt>
<pdfrwt beam="1">  1       21 0.11623463E-01 0.41824071E+03</pdfrwt>
<pdfrwt beam="2">  1       21 0.36731536E+00 0.41824071E+03</pdfrwt>
<totfact> 0.68662932E+02</totfact>
</mgrwt>
</event>
<event>
 4    1  0.5013722E-002  0.5826926E+03  0.7818608E-02  0.9941978E-01
         21   -1    0    0  501  502  0.00000000000E+00  0.00000000000E+00  0.79756708466E+03  0.79756708466E+03  0.00000000000E+00 0. -1.
         21   -1    0    0  502  503 -0.00000000000E+00 -0.00000000000E+00 -0.43889847149E+03  0.43889847149E+03  0.00000000000E+00 0.  1.
    9000007    1    1    2  501    0 -0.14384979178E+03  0.39854477014E+03  0.72157703236E+02  0.58714344971E+03  0.40000000000E+03 0.  1.
   -9000007    1    1    2    0  503  0.14384979178E+03 -0.39854477014E+03  0.28651090994E+03  0.64932210644E+03  0.40000000000E+03 0. -1.
<mgrwt>
<rscale>  2 0.58269263E+03</rscale>
<asrwt>0</asrwt>
<pdfrwt beam="1">  1       21 0.12270263E+00 0.58269263E+03</pdfrwt>
<pdfrwt beam="2">  1       21 0.67522842E-01 0.58269263E+03</pdfrwt>
<totfact> 0.80655006E+02</totfact>
</mgrwt>
</event>
<event>
 4    1  0.5013722E-002  0.8103211E+03  0.7818608E-02  0.9545197E-01
         21   -1    0    0  503  502  0.00000000000E+00  0.00000000000E+00  0.89087486344E+03  0.89087486344E+03  0.00000000000E+00 0.  1.
         21   -1    0    0  501  503 -0.00000000000E+00 -0.00000000000E+00 -0.95360473789E+03  0.95360473789E+03  0.00000000000E+00 0.  1.
    9000007    1    1    2  501    0  0.36128570453E+03  0.60505613225E+03 -0.47084828003E+03  0.93718642024E+03  0.40000000000E+03 0.  1.
   -9000007    1    1    2    0  502 -0.36128570453E+03 -0.60505613225E+03  0.40811840558E+03  0.90729318109E+03  0.40000000000E+03 0.  1.
<mgrwt>
<rscale>  2 0.81032110E+03</rscale>
<asrwt>0</asrwt>
<pdfrwt beam="1">  1       21 0.13705767E+00 0.81032110E+03</pdfrwt>
<pdfrwt beam="2">  1       21 0.14670842E+00 0.81032110E+03</pdfrwt>
<totfact> 0.82998954E+01</totfact>
</mgrwt>
</event>
<event>
 4    1  0.5013722E-002  0.4400016E+03  0.7818608E-02  0.1030746E+00
         21   -1    0    0  501  502  0.00000000000E+00  0.00000000000E+00  0.37042640444E+03  0.37042640444E+03  0.00000000000E+00 0.  1.
         21   -1    0    0  502  503 -0.00000000000E+00 -0.00000000000E+00 -0.52268938852E+03  0.52268938852E+03  0.00000000000E+00 0.  1.
    9000007    1    1    2  501    0 -0.17864997050E+03 -0.41055841550E+02 -0.80260944110E+02  0.44726190676E+03  0.40000000000E+03 0. -1.
   -9000007    1    1    2    0  503  0.17864997050E+03  0.41055841550E+02 -0.72002039970E+02  0.44585388621E+03  0.40000000000E+03 0. -1.
<mgrwt>
<rscale>  2 0.44000158E+03</rscale>
<asrwt>0</asrwt>
<pdfrwt beam="1">  1       21 0.56988677E-01 0.44000158E+03</pdfrwt>
<pdfrwt beam="2">  1       21 0.80413753E-01 0.44000158E+03</pdfrwt>
<totfact> 0.34455557E+03</totfact>
</mgrwt>
</event>
<event>
 4    1  0.5013722E-002  0.4561107E+03  0.7818608E-02  0.1025915E+00
         21   -1    0    0  503  502  0.00000000000E+00  0.00000000000E+00  0.12547025928E+04  0.12547025928E+04  0.00000000000E+00 0.  1.
         21   -1    0    0  501  503 -0.00000000000E+00 -0.00000000000E+00 -0.62091153024E+03  0.62091153024E+03  0.00000000000E+00 0.  1.
    9000007    1    1    2  501    0  0.21867586464E+03 -0.14759574533E+02 -0.48599212982E+03  0.66650230987E+03  0.40000000000E+03 0.  1.
   -9000007    1    1    2    0  502 -0.21867586464E+03  0.14759574533E+02  0.11197831924E+04  0.12091118132E+04  0.40000000000E+03 0.  1.
<mgrwt>
<rscale>  2 0.45611071E+03</rscale>
<asrwt>0</asrwt>
<pdfrwt beam="1">  1       21 0.19303117E+00 0.45611071E+03</pdfrwt>
<pdfrwt beam="2">  1       21 0.95524851E-01 0.45611071E+03</pdfrwt>
<totfact> 0.10846023E+02</totfact>
</mgrwt>
</event>
<event>
 4    1  0.5013722E-002  0.4306273E+03  0.7818608E-02  0.1033662E+00
         21   -1    0    0  503  502  0.00000000000E+00  0.00000000000E+00  0.51124145812E+03  0.51124145812E+03  0.00000000000E+00 0.  1.
         21   -1    0    0  501  503 -0.00000000000E+00 -0.00000000000E+00 -0.45167796050E+03  0.45167796050E+03  0.00000000000E+00 0.  1.
    9000007    1    1    2  501    0 -0.15646418295E+03 -0.30965641645E+02 -0.18387981452E+03  0.46824320358E+03  0.40000000000E+03 0.  1.
   -9000007    1    1    2    0  502  0.15646418295E+03  0.30965641645E+02  0.24344331213E+03  0.49467621504E+03  0.40000000000E+03 0.  1.
<mgrwt>
<rscale>  2 0.43062735E+03</rscale>
<asrwt>0</asrwt>
<pdfrwt beam="1">  1       21 0.78652532E-01 0.43062735E+03</pdfrwt>
<pdfrwt beam="2">  1       21 0.69488917E-01 0.43062735E+03</pdfrwt>
<totfact> 0.23481455E+03</totfact>
</mgrwt>
</event>
<event>
 4    1  0.5013722E-002  0.4016371E+03  0.7818608E-02  0.1043214E+00
         21   -1    0    0  501  502  0.00000000000E+00  0.00000000000E+00  0.99849204859E+02  0.99849204859E+02  0.00000000000E+00 0.  1.
         21   -1    0    0  502  503 -0.00000000000E+00 -0.00000000000E+00 -0.16923775156E+04  0.16923775156E+04  0.00000000000E+00 0.  1.
    9000007    1    1    2  501    0 -0.34683960750E+02 -0.10458251827E+02 -0.60534685476E+03  0.72646897162E+03  0.40000000000E+03 0. -1.
   -9000007    1    1    2    0  503  0.34683960750E+02  0.10458251827E+02 -0.98718145594E+03  0.10657577488E+04  0.40000000000E+03 0. -1.
<mgrwt>
<rscale>  2 0.40163709E+03</rscale>
<asrwt>0</asrwt>
<pdfrwt beam="1">  1       21 0.15361417E-01 0.40163709E+03</pdfrwt>
<pdfrwt beam="2">  1       21 0.26036576E+00 0.40163709E+03</pdfrwt>
<totfact> 0.18418921E+03</totfact>
</mgrwt>
</event>
<event>
 4    1  0.5013722E-002  0.4315835E+03  0.7818608E-02  0.1033361E+00
         21   -1    0    0  501  502  0.00000000000E+00  0.00000000000E+00  0.19581653880E+03  0.19581653880E+03  0.00000000000E+00 0.  1.
         21   -1    0    0  502  503 -0.00000000000E+00 -0.00000000000E+00 -0.10924149776E+04  0.10924149776E+04  0.00000000000E+00 0.  1.
    9000007    1    1    2  501    0 -0.13377365685E+03 -0.91481762743E+02 -0.67986912159E+03  0.80528648733E+03  0.40000000000E+03 0.  1.
   -9000007    1    1    2    0  503  0.13377365685E+03  0.91481762743E+02 -0.21672931723E+03  0.48294502909E+03  0.40000000000E+03 0.  1.
<mgrwt>
<rscale>  2 0.43158348E+03</rscale>
<asrwt>0</asrwt>
<pdfrwt beam="1">  1       21 0.30125622E-01 0.43158348E+03</pdfrwt>
<pdfrwt beam="2">  1       21 0.16806384E+00 0.43158348E+03</pdfrwt>
<totfact> 0.19995776E+03</totfact>
</mgrwt>
</event>
<event>
 4    1  0.5013722E-002  0.4041286E+03  0.7818608E-02  0.1042359E+00
         21   -1    0    0  503  502  0.00000000000E+00  0.00000000000E+00  0.12479940537E+03  0.12479940537E+03  0.00000000000E+00 0.  1.
         21   -1    0    0  501  503 -0.00000000000E+00 -0.00000000000E+00 -0.13427841219E+04  0.13427841219E+04  0.00000000000E+00 0.  1.
    9000007    1    1    2  501    0  0.79544134043E+01  0.57067278037E+02 -0.49201476961E+03  0.63670910189E+03  0.40000000000E+03 0.  1.
   -9000007    1    1    2    0  502 -0.79544134043E+01 -0.57067278037E+02 -0.72596994690E+03  0.83087442536E+03  0.40000000000E+03 0.  1.
<mgrwt>
<rscale>  2 0.40412863E+03</rscale>
<asrwt>0</asrwt>
<pdfrwt beam="1">  1       21 0.19199909E-01 0.40412863E+03</pdfrwt>
<pdfrwt beam="2">  1       21 0.20658217E+00 0.40412863E+03</pdfrwt>
<totfact> 0.26279014E+03</totfact>
</mgrwt>
</event>
<event>
 4    1  0.5013722E-002  0.5834929E+03  0.7818608E-02  0.9940257E-01
         21   -1    0    0  503  502  0.00000000000E+00  0.00000000000E+00  0.15050918624E+04  0.15050918624E+04  0.00000000000E+00 0. -1.
         21   -1    0    0  501  503 -0.00000000000E+00 -0.00000000000E+00 -0.28626566220E+03  0.28626566220E+03  0.00000000000E+00 0. -1.
    9000007    1    1    2  501    0 -0.42297420232E+03  0.39456803833E+02  0.19916045427E+03  0.61654594455E+03  0.40000000000E+03 0. -1.
   -9000007    1    1    2    0  502  0.42297420232E+03 -0.39456803833E+02  0.10196657460E+04  0.11748115801E+04  0.40000000000E+03 0. -1.
<mgrwt>
<rscale>  2 0.58349294E+03</rscale>
<asrwt>0</asrwt>
<pdfrwt beam="1">  1       21 0.23155259E+00 0.58349294E+03</pdfrwt>
<pdfrwt beam="2">  1       21 0.44040872E-01 0.58349294E+03</pdfrwt>
<totfact> 0.32261751E+02</totfact>
</mgrwt>
</event>
<event>
 4    1  0.5013722E-002  0.4450490E+03  0.7818608E-02  0.1029209E+00
         21   -1    0    0  503  502  0.00000000000E+00  0.00000000000E+00  0.29010062600E+03  0.29010062600E+03  0.00000000000E+00 0. -1.
         21   -1    0    0  501  503 -0.00000000000E+00 -0.00000000000E+00 -0.17943120295E+04  0.17943120295E+04  0.00000000000E+00 0. -1.
    9000007    1    1    2  501    0  0.15063746574E+03 -0.12400389955E+03 -0.15724004846E+04  0.16341700943E+04  0.40000000000E+03 0. -1.
   -9000007    1    1    2    0  502 -0.15063746574E+03  0.12400389955E+03  0.68189081025E+02  0.45024256125E+03  0.40000000000E+03 0. -1.
<mgrwt>
<rscale>  2 0.44504900E+03</rscale>
<asrwt>0</asrwt>
<pdfrwt beam="1">  1       21 0.44630866E-01 0.44504900E+03</pdfrwt>
<pdfrwt beam="2">  1       21 0.27604800E+00 0.44504900E+03</pdfrwt>
<totfact> 0.17859657E+02</totfact>
</mgrwt>
</event>
<event>
 4    1  0.5013722E-002  0.5346270E+03  0.7818608E-02  0.1005116E+00
         21   -1    0    0  503  502  0.00000000000E+00  0.00000000000E+00  0.66317198476E+03  0.66317198476E+03  0.00000000000E+00 0.  1.
         21   -1    0    0  501  503 -0.00000000000E+00 -0.00000000000E+00 -0.64213736854E+03  0.64213736854E+03  0.00000000000E+00 0.  1.
    9000007    1    1    2  501    0  0.34242102411E+03  0.92595434029E+02 -0.36372567653E+03  0.64662387825E+03  0.40000000000E+03 0.  1.
   -9000007    1    1    2    0  502 -0.34242102411E+03 -0.92595434029E+02  0.38476029276E+03  0.65868547505E+03  0.40000000000E+03 0.  1.
<mgrwt>
<rscale>  2 0.53462704E+03</rscale>
<asrwt>0</asrwt>
<pdfrwt beam="1">  1       21 0.10202646E+00 0.53462704E+03</pdfrwt>
<pdfrwt beam="2">  1       21 0.98790363E-01 0.53462704E+03</pdfrwt>
<totfact> 0.53595556E+02</totfact>
</mgrwt>
</event>
<event>
 4    1  0.5013722E-002  0.4838021E+03  0.7818608E-02  0.1018095E+00
         21   -1    0    0  501  502  0.00000000000E+00  0.00000000000E+00  0.21667052477E+03  0.21667052477E+03  0.00000000000E+00 0. -1.
         21   -1    0    0  502  503 -0.00000000000E+00 -0.00000000000E+00 -0.16140768600E+04  0.16140768600E+04  0.00000000000E+00 0. -1.
    9000007    1    1    2  501    0  0.99069054951E+02  0.25347547281E+03 -0.17229215081E+03  0.51356506715E+03  0.40000000000E+03 0. -1.
   -9000007    1    1    2    0  503 -0.99069054951E+02 -0.25347547281E+03 -0.12251141844E+04  0.13171823176E+04  0.40000000000E+03 0. -1.
<mgrwt>
<rscale>  2 0.48380212E+03</rscale>
<asrwt>0</asrwt>
<pdfrwt beam="1">  1       21 0.33333927E-01 0.48380212E+03</pdfrwt>
<pdfrwt beam="2">  1       21 0.24831952E+00 0.48380212E+03</pdfrwt>
<totfact> 0.46953401E+02</totfact>
</mgrwt>
</event>
<event>
 4    1  0.5013722E-002  0.6297751E+03  0.7818608E-02  0.9845488E-01
         21   -1    0    0  501  502  0.00000000000E+00  0.00000000000E+00  0.35542445944E+03  0.35542445944E+03  0.00000000000E+00 0. -1.
         21   -1    0    0  502  503 -0.00000000000E+00 -0.00000000000E+00 -0.11166814794E+04  0.11166814794E+04  0.00000000000E+00 0. -1.
    9000007    1    1    2  501    0 -0.44712492362E+03  0.19156186960E+03 -0.36110408664E+03  0.72595647845E+03  0.40000000000E+03 0. -1.
   -9000007    1    1    2    0  503  0.44712492362E+03 -0.19156186960E+03 -0.40015293332E+03  0.74614946040E+03  0.40000000000E+03 0. -1.
<mgrwt>
<rscale>  2 0.62977508E+03</rscale>
<asrwt>0</asrwt>
<pdfrwt beam="1">  1       21 0.54680687E-01 0.62977508E+03</pdfrwt>
<pdfrwt beam="2">  1       21 0.17179715E+00 0.62977508E+03</pdfrwt>
<totfact> 0.50676825E+02</totfact>
</mgrwt>
</event>
<event>
 4    1  0.5013722E-002  0.4742200E+03  0.7818608E-02  0.1020736E+00
         21   -1    0    0  503  502  0.00000000000E+00  0.00000000000E+00  0.25290409810E+03  0.25290409810E+03  0.00000000000E+00 0. -1.
         21   -1    0    0  501  503 -0.00000000000E+00 -0.00000000000E+00 -0.10308082621E+04  0.10308082621E+04  0.00000000000E+00 0.  1.
    9000007    1    1    2  501    0 -0.24158952393E+03  0.80741243272E+02 -0.15106054280E+03  0.49769863776E+03  0.40000000000E+03 0. -1.
   -9000007    1    1    2    0  502  0.24158952393E+03 -0.80741243272E+02 -0.62684362119E+03  0.78601372244E+03  0.40000000000E+03 0.  1.
<mgrwt>
<rscale>  2 0.47422004E+03</rscale>
<asrwt>0</asrwt>
<pdfrwt beam="1">  1       21 0.38908323E-01 0.47422004E+03</pdfrwt>
<pdfrwt beam="2">  1       21 0.15858589E+00 0.47422004E+03</pdfrwt>
<totfact> 0.13796854E+03</totfact>
</mgrwt>
</event>
<event>
 4    1  0.5013722E-002  0.4068656E+03  0.7818608E-02  0.1041428E+00
         21   -1    0    0  501  502  0.00000000000E+00  0.00000000000E+00  0.59898703276E+03  0.59898703276E+03  0.00000000000E+00 0. -1.
         21   -1    0    0  502  503 -0.00000000000E+00 -0.00000000000E+00 -0.30019226992E+03  0.30019226992E+03  0.00000000000E+00 0. -1.
    9000007    1    1    2  501    0  0.73851186254E+02 -0.92522108814E+01  0.27605908668E+03  0.49167898110E+03  0.40000000000E+03 0. -1.
   -9000007    1    1    2    0  503 -0.73851186254E+02  0.92522108814E+01  0.22735676155E+02  0.40750032158E+03  0.40000000000E+03 0. -1.
<mgrwt>
<rscale>  2 0.40686558E+03</rscale>
<asrwt>0</asrwt>
<pdfrwt beam="1">  1       21 0.92151851E-01 0.40686558E+03</pdfrwt>
<pdfrwt beam="2">  1       21 0.46183426E-01 0.40686558E+03</pdfrwt>
<totfact> 0.39687960E+03</totfact>
</mgrwt>
</event>
<event>
 4    1  0.5013722E-002  0.4651196E+03  0.7818608E-02  0.1023307E+00
         21   -1    0    0  501  502  0.00000000000E+00  0.00000000000E+00  0.49942336066E+03  0.49942336066E+03  0.00000000000E+00 0.  1.
         21   -1    0    0  502  503 -0.00000000000E+00 -0.00000000000E+00 -0.43459877552E+03  0.43459877552E+03  0.00000000000E+00 0.  1.
    9000007    1    1    2  501    0  0.19218101726E+03  0.13929344560E+03  0.56536936345E+01  0.46515392252E+03  0.40000000000E+03 0.  1.
   -9000007    1    1    2    0  503 -0.19218101726E+03 -0.13929344560E+03  0.59170891501E+02  0.46886821366E+03  0.40000000000E+03 0.  1.
<mgrwt>
<rscale>  2 0.46511956E+03</rscale>
<asrwt>0</asrwt>
<pdfrwt beam="1">  1       21 0.76834363E-01 0.46511956E+03</pdfrwt>
<pdfrwt beam="2">  1       21 0.66861350E-01 0.46511956E+03</pdfrwt>
<totfact> 0.26674608E+03</totfact>
</mgrwt>
</event>
<event>
 4    1  0.5013722E-002  0.6702191E+03  0.7818608E-02  0.9769562E-01
         21   -1    0    0  503  502  0.00000000000E+00  0.00000000000E+00  0.12838624018E+04  0.12838624018E+04  0.00000000000E+00 0.  1.
         21   -1    0    0  501  503 -0.00000000000E+00 -0.00000000000E+00 -0.35048536511E+03  0.35048536511E+03  0.00000000000E+00 0. -1.
    9000007    1    1    2  501    0  0.32758681324E+03 -0.42647450035E+03  0.50074083873E+03  0.83662118502E+03  0.40000000000E+03 0. -1.
   -9000007    1    1    2    0  502 -0.32758681324E+03  0.42647450035E+03  0.43263619797E+03  0.79772658189E+03  0.40000000000E+03 0.  1.
<mgrwt>
<rscale>  2 0.67021908E+03</rscale>
<asrwt>0</asrwt>
<pdfrwt beam="1">  1       21 0.19751729E+00 0.67021908E+03</pdfrwt>
<pdfrwt beam="2">  1       21 0.53920826E-01 0.67021908E+03</pdfrwt>
<totfact> 0.33944870E+02</totfact>
</mgrwt>
</event>
<event>
 4    1  0.5013722E-002  0.4017225E+03  0.7818608E-02  0.1043185E+00
         21   -1    0    0  501  502  0.00000000000E+00  0.00000000000E+00  0.27642077225E+03  0.27642077225E+03  0.00000000000E+00 0.  1.
         21   -1    0    0  502  503 -0.00000000000E+00 -0.00000000000E+00 -0.67881517948E+03  0.67881517948E+03  0.00000000000E+00 0.  1.
    9000007    1    1    2  501    0 -0.35465718666E+02 -0.11097123120E+02 -0.22528904221E+02  0.40235371860E+03  0.40000000000E+03 0. -1.
   -9000007    1    1    2    0  503  0.35465718666E+02  0.11097123120E+02 -0.37986550301E+03  0.55288223314E+03  0.40000000000E+03 0. -1.
<mgrwt>
<rscale>  2 0.40172250E+03</rscale>
<asrwt>0</asrwt>
<pdfrwt beam="1">  1       21 0.42526273E-01 0.40172250E+03</pdfrwt>
<pdfrwt beam="2">  1       21 0.10443310E+00 0.40172250E+03</pdfrwt>
<totfact> 0.34932474E+03</totfact>
</mgrwt>
</event>
<event>
 4    1  0.5013722E-002  0.6491846E+03  0.7818608E-02  0.9808310E-01
         21   -1    0    0  501  502  0.00000000000E+00  0.00000000000E+00  0.15248443055E+04  0.15248443055E+04  0.00000000000E+00 0.  1.
         21   -1    0    0  502  503 -0.00000000000E+00 -0.00000000000E+00 -0.28675706916E+03  0.28675706916E+03  0.00000000000E+00 0.  1.
    9000007    1    1    2  501    0 -0.25035350668E+03  0.44582924470E+03  0.44675510411E+03  0.78805502142E+03  0.40000000000E+03 0.  1.
   -9000007    1    1    2    0  503  0.25035350668E+03 -0.44582924470E+03  0.79133213225E+03  0.10235463533E+04  0.40000000000E+03 0.  1.
<mgrwt>
<rscale>  2 0.64918456E+03</rscale>
<asrwt>0</asrwt>
<pdfrwt beam="1">  1       21 0.23459143E+00 0.64918456E+03</pdfrwt>
<pdfrwt beam="2">  1       21 0.44116473E-01 0.64918456E+03</pdfrwt>
<totfact> 0.29991263E+02</totfact>
</mgrwt>
</event>
<event>
 4    1  0.5013722E-002  0.4138830E+03  0.7818608E-02  0.1039076E+00
         21   -1    0    0  501  502  0.00000000000E+00  0.00000000000E+00  0.99741595491E+03  0.99741595491E+03  0.00000000000E+00 0. -1.
         21   -1    0    0  502  503 -0.00000000000E+00 -0.00000000000E+00 -0.17918876877E+03  0.17918876877E+03  0.00000000000E+00 0.  1.
    9000007    1    1    2  501    0 -0.79184130351E+02  0.70915459520E+02  0.28919064546E+03  0.50490628667E+03  0.40000000000E+03 0.  1.
   -9000007    1    1    2    0  503  0.79184130351E+02 -0.70915459520E+02  0.52903654069E+03  0.67169843701E+03  0.40000000000E+03 0. -1.
<mgrwt>
<rscale>  2 0.41388299E+03</rscale>
<asrwt>0</asrwt>
<pdfrwt beam="1">  1       21 0.15344861E+00 0.41388299E+03</pdfrwt>
<pdfrwt beam="2">  1       21 0.27567503E-01 0.41388299E+03</pdfrwt>
<totfact> 0.30917250E+03</totfact>
</mgrwt>
</event>
<event>
 4    1  0.5013722E-002  0.5256157E+03  0.7818608E-02  0.1007301E+00
         21   -1    0    0  501  502  0.00000000000E+00  0.00000000000E+00  0.85194434617E+03  0.85194434617E+03  0.00000000000E+00 0.  1.
         21   -1    0    0  502  503 -0.00000000000E+00 -0.00000000000E+00 -0.69879224508E+03  0.69879224508E+03  0.00000000000E+00 0.  1.
    9000007    1    1    2  501    0 -0.14507397397E+03 -0.30858614644E+03  0.64420525034E+03  0.83142785151E+03  0.40000000000E+03 0.  1.
   -9000007    1    1    2    0  503  0.14507397397E+03  0.30858614644E+03 -0.49105314924E+03  0.71930873975E+03  0.40000000000E+03 0.  1.
<mgrwt>
<rscale>  2 0.52561570E+03</rscale>
<asrwt>0</asrwt>
<pdfrwt beam="1">  1       21 0.13106836E+00 0.52561570E+03</pdfrwt>
<pdfrwt beam="2">  1       21 0.10750650E+00 0.52561570E+03</pdfrwt>
<totfact> 0.23185957E+02</totfact>
</mgrwt>
</event>
<event>
 4    1  0.5013722E-002  0.4969128E+03  0.7818608E-02  0.1014588E+00
         21   -1    0    0  503  502  0.00000000000E+00  0.00000000000E+00  0.74513904735E+03  0.74513904735E+03  0.00000000000E+00 0. -1.
         21   -1    0    0  501  503 -0.00000000000E+00 -0.00000000000E+00 -0.44725233929E+03  0.44725233929E+03  0.00000000000E+00 0.  1.
    9000007    1    1    2  501    0 -0.20421548055E+03 -0.21264611221E+03 -0.15452055941E+03  0.52038344979E+03  0.40000000000E+03 0.  1.
   -9000007    1    1    2    0  502  0.20421548055E+03  0.21264611221E+03  0.45240726747E+03  0.67200793686E+03  0.40000000000E+03 0. -1.
<mgrwt>
<rscale>  2 0.49691280E+03</rscale>
<asrwt>0</asrwt>
<pdfrwt beam="1">  1       21 0.11463678E+00 0.49691280E+03</pdfrwt>
<pdfrwt beam="2">  1       21 0.68808052E-01 0.49691280E+03</pdfrwt>
<totfact> 0.94679802E+02</totfact>
</mgrwt>
</event>
<event>
 4    1  0.5013722E-002  0.4908279E+03  0.7818608E-02  0.1016201E+00
         21   -1    0    0  503  502  0.00000000000E+00  0.00000000000E+00  0.37405430342E+03  0.37405430342E+03  0.00000000000E+00 0.  1.
         21   -1    0    0  501  503 -0.00000000000E+00 -0.00000000000E+00 -0.64960493563E+03  0.64960493563E+03  0.00000000000E+00 0.  1.
    9000007    1    1    2  501    0 -0.89493684512E+02  0.27000530830E+03 -0.90471244431E+02  0.49909621532E+03  0.40000000000E+03 0.  1.
   -9000007    1    1    2    0  502  0.89493684512E+02 -0.27000530830E+03 -0.18507938778E+03  0.52456302372E+03  0.40000000000E+03 0.  1.
<mgrwt>
<rscale>  2 0.49082786E+03</rscale>
<asrwt>0</asrwt>
<pdfrwt beam="1">  1       21 0.57546816E-01 0.49082786E+03</pdfrwt>
<pdfrwt beam="2">  1       21 0.99939220E-01 0.49082786E+03</pdfrwt>
<totfact> 0.19797868E+03</totfact>
</mgrwt>
</event>
<event>
 4    1  0.5013722E-002  0.4778590E+03  0.7818608E-02  0.1019725E+00
         21   -1    0    0  501  502  0.00000000000E+00  0.00000000000E+00  0.15758957214E+04  0.15758957214E+04  0.00000000000E+00 0.  1.
         21   -1    0    0  502  503 -0.00000000000E+00 -0.00000000000E+00 -0.22751323568E+03  0.22751323568E+03  0.00000000000E+00 0.  1.
    9000007    1    1    2  501    0 -0.20766889482E+03  0.15881717273E+03  0.12175446774E+04  0.13079618900E+04  0.40000000000E+03 0.  1.
   -9000007    1    1    2    0  503  0.20766889482E+03 -0.15881717273E+03  0.13083780838E+03  0.49544706714E+03  0.40000000000E+03 0.  1.
<mgrwt>
<rscale>  2 0.47785904E+03</rscale>
<asrwt>0</asrwt>
<pdfrwt beam="1">  1       21 0.24244549E+00 0.47785904E+03</pdfrwt>
<pdfrwt beam="2">  1       21 0.35002037E-01 0.47785904E+03</pdfrwt>
<totfact> 0.46393300E+02</totfact>
</mgrwt>
</event>
<event>
 4    1  0.5013722E-002  0.4639608E+03  0.7818608E-02  0.1023639E+00
         21   -1    0    0  501  502  0.00000000000E+00  0.00000000000E+00  0.16047011014E+04  0.16047011014E+04  0.00000000000E+00 0. -1.
         21   -1    0    0  502  503 -0.00000000000E+00 -0.00000000000E+00 -0.14950941668E+03  0.14950941668E+03  0.00000000000E+00 0.  1.
    9000007    1    1    2  501    0 -0.22999690980E+03  0.48590672476E+02  0.44640454451E+03  0.64384520603E+03  0.40000000000E+03 0.  1.
   -9000007    1    1    2    0  503  0.22999690980E+03 -0.48590672476E+02  0.10087871402E+04  0.11103653121E+04  0.40000000000E+03 0. -1.
<mgrwt>
<rscale>  2 0.46396081E+03</rscale>
<asrwt>0</asrwt>
<pdfrwt beam="1">  1       21 0.24687708E+00 0.46396081E+03</pdfrwt>
<pdfrwt beam="2">  1       21 0.23001450E-01 0.46396081E+03</pdfrwt>
<totfact> 0.10056096E+03</totfact>
</mgrwt>
</event>
<event>
 4    1  0.5013722E-002  0.4403909E+03  0.7818608E-02  0.1030627E+00
         21   -1    0    0  501  502  0.00000000000E+00  0.00000000000E+00  0.87411839874E+03  0.87411839874E+03  0.00000000000E+00 0. -1.
         21   -1    0    0  502  503 -0.00000000000E+00 -0.00000000000E+00 -0.37943766050E+03  0.37943766050E+03  0.00000000000E+00 0. -1.
    9000007    1    1    2  501    0 -0.17910346627E+03 -0.43198250583E+02  0.65123826133E+03  0.78616500400E+03  0.40000000000E+03 0. -1.
   -9000007    1    1    2    0  503  0.17910346627E+03  0.43198250583E+02 -0.15655752309E+03  0.46739105524E+03  0.40000000000E+03 0. -1.
<mgrwt>
<rscale>  2 0.44039090E+03</rscale>
<asrwt>0</asrwt>
<pdfrwt beam="1">  1       21 0.13447975E+00 0.44039090E+03</pdfrwt>
<pdfrwt beam="2">  1       21 0.58375025E-01 0.44039090E+03</pdfrwt>
<totfact> 0.92576465E+02</totfact>
</mgrwt>
</event>
<event>
 4    1  0.5013722E-002  0.4813833E+03  0.7818608E-02  0.1018756E+00
         21   -1    0    0  501  502  0.00000000000E+00  0.00000000000E+00  0.13160383709E+04  0.13160383709E+04  0.00000000000E+00 0.  1.
         21   -1    0    0  502  503 -0.00000000000E+00 -0.00000000000E+00 -0.17946656809E+03  0.17946656809E+03  0.00000000000E+00 0.  1.
    9000007    1    1    2  501    0 -0.74404850359E+02 -0.25728161193E+03  0.67098217746E+03  0.82580081864E+03  0.40000000000E+03 0.  1.
   -9000007    1    1    2    0  503  0.74404850359E+02  0.25728161193E+03  0.46558962534E+03  0.66970412036E+03  0.40000000000E+03 0.  1.
<mgrwt>
<rscale>  2 0.48138333E+03</rscale>
<asrwt>0</asrwt>
<pdfrwt beam="1">  1       21 0.20246744E+00 0.48138333E+03</pdfrwt>
<pdfrwt beam="2">  1       21 0.27610242E-01 0.48138333E+03</pdfrwt>
<totfact> 0.13411206E+03</totfact>
</mgrwt>
</event>
<event>
 4    1  0.5013722E-002  0.6525830E+03  0.7818608E-02  0.9801944E-01
         21   -1    0    0  503  502  0.00000000000E+00  0.00000000000E+00  0.12794227589E+04  0.12794227589E+04  0.00000000000E+00 0. -1.
         21   -1    0    0  501  503 -0.00000000000E+00 -0.00000000000E+00 -0.74078525214E+03  0.74078525214E+03  0.00000000000E+00 0. -1.
    9000007    1    1    2  501    0 -0.49065552314E+02  0.51328070307E+03 -0.48025082437E+03  0.81025018536E+03  0.40000000000E+03 0. -1.
   -9000007    1    1    2    0  502  0.49065552314E+02 -0.51328070307E+03  0.10188883311E+04  0.12099578256E+04  0.40000000000E+03 0. -1.
<mgrwt>
<rscale>  2 0.65258295E+03</rscale>
<asrwt>0</asrwt>
<pdfrwt beam="1">  1       21 0.19683427E+00 0.65258295E+03</pdfrwt>
<pdfrwt beam="2">  1       21 0.11396696E+00 0.65258295E+03</pdfrwt>
<totfact> 0.60280873E+01</totfact>
</mgrwt>
</event>
<event>
 4    1  0.5013722E-002  0.4449402E+03  0.7818608E-02  0.1029242E+00
         21   -1    0    0  503  502  0.00000000000E+00  0.00000000000E+00  0.41176938700E+03  0.41176938700E+03  0.00000000000E+00 0. -1.
         21   -1    0    0  501  503 -0.00000000000E+00 -0.00000000000E+00 -0.48082661430E+03  0.48082661430E+03  0.00000000000E+00 0. -1.
    9000007    1    1    2  501    0  0.12192159118E+03 -0.15200949726E+03 -0.38774372482E+02  0.44662648109E+03  0.40000000000E+03 0. -1.
   -9000007    1    1    2    0  502 -0.12192159118E+03  0.15200949726E+03 -0.30282854817E+02  0.44596952020E+03  0.40000000000E+03 0. -1.
<mgrwt>
<rscale>  2 0.44494018E+03</rscale>
<asrwt>0</asrwt>
<pdfrwt beam="1">  1       21 0.63349136E-01 0.44494018E+03</pdfrwt>
<pdfrwt beam="2">  1       21 0.73973325E-01 0.44494018E+03</pdfrwt>
<totfact> 0.33030573E+03</totfact>
</mgrwt>
</event>
<event>
 4    1  0.5013722E-002  0.4395654E+03  0.7818608E-02  0.1030880E+00
         21   -1    0    0  501  502  0.00000000000E+00  0.00000000000E+00  0.18831658968E+03  0.18831658968E+03  0.00000000000E+00 0.  1.
         21   -1    0    0  502  503 -0.00000000000E+00 -0.00000000000E+00 -0.10347607483E+04  0.10347607483E+04  0.00000000000E+00 0.  1.
    9000007    1    1    2  501    0  0.15867852428E+03  0.89659492438E+02 -0.47940853057E+03  0.65042312216E+03  0.40000000000E+03 0.  1.
   -9000007    1    1    2    0  503 -0.15867852428E+03 -0.89659492438E+02 -0.36703562807E+03  0.57265421585E+03  0.40000000000E+03 0.  1.
<mgrwt>
<rscale>  2 0.43956535E+03</rscale>
<asrwt>0</asrwt>
<pdfrwt beam="1">  1       21 0.28971784E-01 0.43956535E+03</pdfrwt>
<pdfrwt beam="2">  1       21 0.15919396E+00 0.43956535E+03</pdfrwt>
<totfact> 0.25071431E+03</totfact>
</mgrwt>
</event>
<event>
 4    1  0.5013722E-002  0.4063398E+03  0.7818608E-02  0.1041606E+00
         21   -1    0    0  503  502  0.00000000000E+00  0.00000000000E+00  0.86951119615E+03  0.86951119615E+03  0.00000000000E+00 0. -1.
         21   -1    0    0  501  503 -0.00000000000E+00 -0.00000000000E+00 -0.20003079812E+03  0.20003079812E+03  0.00000000000E+00 0. -1.
    9000007    1    1    2  501    0  0.48908494927E+02 -0.52153507755E+02  0.45514449405E+03  0.61013813166E+03  0.40000000000E+03 0. -1.
   -9000007    1    1    2    0  502 -0.48908494927E+02  0.52153507755E+02  0.21433590398E+03  0.45940386261E+03  0.40000000000E+03 0. -1.
<mgrwt>
<rscale>  2 0.40633980E+03</rscale>
<asrwt>0</asrwt>
<pdfrwt beam="1">  1       21 0.13377095E+00 0.40633980E+03</pdfrwt>
<pdfrwt beam="2">  1       21 0.30773970E-01 0.40633980E+03</pdfrwt>
<totfact> 0.35988917E+03</totfact>
</mgrwt>
</event>
<event>
 4    1  0.5013722E-002  0.6871693E+03  0.7818608E-02  0.9739429E-01
         21   -1    0    0  501  502  0.00000000000E+00  0.00000000000E+00  0.20150564149E+03  0.20150564149E+03  0.00000000000E+00 0. -1.
         21   -1    0    0  502  503 -0.00000000000E+00 -0.00000000000E+00 -0.27313034080E+04  0.27313034080E+04  0.00000000000E+00 0.  1.
    9000007    1    1    2  501    0  0.55806294082E+03  0.27703113020E+02 -0.71225039821E+03  0.98969810454E+03  0.40000000000E+03 0. -1.
   -9000007    1    1    2    0  503 -0.55806294082E+03 -0.27703113020E+02 -0.18175473683E+04  0.19431109450E+04  0.40000000000E+03 0.  1.
<mgrwt>
<rscale>  2 0.68716934E+03</rscale>
<asrwt>0</asrwt>
<pdfrwt beam="1">  1       21 0.31000872E-01 0.68716934E+03</pdfrwt>
<pdfrwt beam="2">  1       21 0.42020047E+00 0.68716934E+03</pdfrwt>
<totfact> 0.41907273E+01</totfact>
</mgrwt>
</event>
<event>
 4    1  0.5013722E-002  0.4014973E+03  0.7818608E-02  0.1043262E+00
         21   -1    0    0  501  502  0.00000000000E+00  0.00000000000E+00  0.80703440501E+03  0.80703440501E+03  0.00000000000E+00 0.  1.
         21   -1    0    0  502  503 -0.00000000000E+00 -0.00000000000E+00 -0.35972318457E+03  0.35972318457E+03  0.00000000000E+00 0.  1.
    9000007    1    1    2  501    0 -0.51538323480E+01 -0.34256207013E+02  0.61269945740E+03  0.73253032347E+03  0.40000000000E+03 0.  1.
   -9000007    1    1    2    0  503  0.51538323480E+01  0.34256207013E+02 -0.16538823696E+03  0.43422726611E+03  0.40000000000E+03 0.  1.
<mgrwt>
<rscale>  2 0.40149726E+03</rscale>
<asrwt>0</asrwt>
<pdfrwt beam="1">  1       21 0.12415914E+00 0.40149726E+03</pdfrwt>
<pdfrwt beam="2">  1       21 0.55342028E-01 0.40149726E+03</pdfrwt>
<totfact> 0.12999695E+03</totfact>
</mgrwt>
</event>
<event>
 4    1  0.5013722E-002  0.5703220E+03  0.7818608E-02  0.9968966E-01
         21   -1    0    0  501  502  0.00000000000E+00  0.00000000000E+00  0.83334620296E+03  0.83334620296E+03  0.00000000000E+00 0. -1.
         21   -1    0    0  502  503 -0.00000000000E+00 -0.00000000000E+00 -0.41408928549E+03  0.41408928549E+03  0.00000000000E+00 0. -1.
    9000007    1    1    2  501    0  0.11182524376E+03  0.39084824288E+03  0.35907917757E+03  0.67394739399E+03  0.40000000000E+03 0. -1.
   -9000007    1    1    2    0  503 -0.11182524376E+03 -0.39084824288E+03  0.60177739896E+02  0.57348809446E+03  0.40000000000E+03 0. -1.
<mgrwt>
<rscale>  2 0.57032204E+03</rscale>
<asrwt>0</asrwt>
<pdfrwt beam="1">  1       21 0.12820711E+00 0.57032204E+03</pdfrwt>
<pdfrwt beam="2">  1       21 0.63706044E-01 0.57032204E+03</pdfrwt>
<totfact> 0.82330190E+02</totfact>
</mgrwt>
</event>
<event>
 4    1  0.5013722E-002  0.5083151E+03  0.7818608E-02  0.1011631E+00
         21   -1    0    0  503  502  0.00000000000E+00  0.00000000000E+00  0.97392157031E+02  0.97392157031E+02  0.00000000000E+00 0.  1.
         21   -1    0    0  501  503 -0.00000000000E+00 -0.00000000000E+00 -0.31465388283E+04  0.31465388283E+04  0.00000000000E+00 0. -1.
    9000007    1    1    2  501    0  0.10162107343E+03 -0.29674468531E+03 -0.21669249395E+04  0.22257466038E+04  0.40000000000E+03 0.  1.
   -9000007    1    1    2    0  502 -0.10162107343E+03  0.29674468531E+03 -0.88222173177E+03  0.10181843816E+04  0.40000000000E+03 0.  1.
<mgrwt>
<rscale>  2 0.50831511E+03</rscale>
<asrwt>0</asrwt>
<pdfrwt beam="1">  1       21 0.14983411E-01 0.50831511E+03</pdfrwt>
<pdfrwt beam="2">  1       21 0.48408281E+00 0.50831511E+03</pdfrwt>
<totfact> 0.68803514E+01</totfact>
</mgrwt>
</event>
<event>
 4    1  0.5013722E-002  0.4353593E+03  0.7818608E-02  0.1032180E+00
         21   -1    0    0  503  502  0.00000000000E+00  0.00000000000E+00  0.12087396219E+03  0.12087396219E+03  0.00000000000E+00 0. -1.
         21   -1    0    0  501  503 -0.00000000000E+00 -0.00000000000E+00 -0.15683953533E+04  0.15683953533E+04  0.00000000000E+00 0. -1.
    9000007    1    1    2  501    0  0.16501047133E+03 -0.48055253451E+02 -0.73609039681E+03  0.85519988033E+03  0.40000000000E+03 0. -1.
   -9000007    1    1    2    0  502 -0.16501047133E+03  0.48055253451E+02 -0.71143099434E+03  0.83406943520E+03  0.40000000000E+03 0. -1.
<mgrwt>
<rscale>  2 0.43535935E+03</rscale>
<asrwt>0</asrwt>
<pdfrwt beam="1">  1       21 0.18595995E-01 0.43535935E+03</pdfrwt>
<pdfrwt beam="2">  1       21 0.24129158E+00 0.43535935E+03</pdfrwt>
<totfact> 0.16566858E+03</totfact>
</mgrwt>
</event>
<event>
 4    1  0.5013722E-002  0.4037267E+03  0.7818608E-02  0.1042497E+00
         21   -1    0    0  501  502  0.00000000000E+00  0.00000000000E+00  0.93702201496E+03  0.93702201496E+03  0.00000000000E+00 0. -1.
         21   -1    0    0  502  503 -0.00000000000E+00 -0.00000000000E+00 -0.20604026630E+03  0.20604026630E+03  0.00000000000E+00 0. -1.
    9000007    1    1    2  501    0 -0.30636002491E+02  0.45350606409E+02  0.59104387598E+03  0.71577098675E+03  0.40000000000E+03 0. -1.
   -9000007    1    1    2    0  503  0.30636002491E+02 -0.45350606409E+02  0.13993787268E+03  0.42729129451E+03  0.40000000000E+03 0. -1.
<mgrwt>
<rscale>  2 0.40372669E+03</rscale>
<asrwt>0</asrwt>
<pdfrwt beam="1">  1       21 0.14415723E+00 0.40372669E+03</pdfrwt>
<pdfrwt beam="2">  1       21 0.31698503E-01 0.40372669E+03</pdfrwt>
<totfact> 0.27876547E+03</totfact>
</mgrwt>
</event>
<event>
 4    1  0.5013722E-002  0.4619579E+03  0.7818608E-02  0.1024215E+00
         21   -1    0    0  501  502  0.00000000000E+00  0.00000000000E+00  0.77789432019E+03  0.77789432019E+03  0.00000000000E+00 0.  1.
         21   -1    0    0  502  503 -0.00000000000E+00 -0.00000000000E+00 -0.27464255917E+03  0.27464255917E+03  0.00000000000E+00 0.  1.
    9000007    1    1    2  501    0  0.13809153307E+03  0.18529928318E+03  0.26918330553E+03  0.53466320972E+03  0.40000000000E+03 0.  1.
   -9000007    1    1    2    0  503 -0.13809153307E+03 -0.18529928318E+03  0.23406845548E+03  0.51787366964E+03  0.40000000000E+03 0.  1.
<mgrwt>
<rscale>  2 0.46195789E+03</rscale>
<asrwt>0</asrwt>
<pdfrwt beam="1">  1       21 0.11967605E+00 0.46195789E+03</pdfrwt>
<pdfrwt beam="2">  1       21 0.42252702E-01 0.46195789E+03</pdfrwt>
<totfact> 0.24656821E+03</totfact>
</mgrwt>
</event>
<event>
 4    1  0.5013722E-002  0.5366562E+03  0.7818608E-02  0.1004631E+00
         21   -1    0    0  501  502  0.00000000000E+00  0.00000000000E+00  0.98067903031E+03  0.98067903031E+03  0.00000000000E+00 0.  1.
         21   -1    0    0  502  503 -0.00000000000E+00 -0.00000000000E+00 -0.62711386017E+03  0.62711386017E+03  0.00000000000E+00 0.  1.
    9000007    1    1    2  501    0 -0.10126785781E+03  0.34313951822E+03  0.76296891062E+03  0.93280301595E+03  0.40000000000E+03 0.  1.
   -9000007    1    1    2    0  503  0.10126785781E+03 -0.34313951822E+03 -0.40940374048E+03  0.67498987453E+03  0.40000000000E+03 0.  1.
<mgrwt>
<rscale>  2 0.53665623E+03</rscale>
<asrwt>0</asrwt>
<pdfrwt beam="1">  1       21 0.15087370E+00 0.53665623E+03</pdfrwt>
<pdfrwt beam="2">  1       21 0.96479055E-01 0.53665623E+03</pdfrwt>
<totfact> 0.20653598E+02</totfact>
</mgrwt>
</event>
<event>
 4    1  0.5013722E-002  0.5566948E+03  0.7818608E-02  0.9999561E-01
         21   -1    0    0  503  502  0.00000000000E+00  0.00000000000E+00  0.20235677682E+04  0.20235677682E+04  0.00000000000E+00 0.  1.
         21   -1    0    0  501  503 -0.00000000000E+00 -0.00000000000E+00 -0.18816414541E+03  0.18816414541E+03  0.00000000000E+00 0.  1.
    9000007    1    1    2  501    0  0.25311379784E+03  0.29298888406E+03  0.44065960212E+03  0.70999293362E+03  0.40000000000E+03 0.  1.
   -9000007    1    1    2    0  502 -0.25311379784E+03 -0.29298888406E+03  0.13947440206E+04  0.15017389800E+04  0.40000000000E+03 0.  1.
<mgrwt>
<rscale>  2 0.55669478E+03</rscale>
<asrwt>0</asrwt>
<pdfrwt beam="1">  1       21 0.31131810E+00 0.55669478E+03</pdfrwt>
<pdfrwt beam="2">  1       21 0.28948331E-01 0.55669478E+03</pdfrwt>
<totfact> 0.24854174E+02</totfact>
</mgrwt>
</event>
<event>
 4    1  0.5013722E-002  0.8929826E+03  0.7818608E-02  0.9434396E-01
         21   -1    0    0  503  502  0.00000000000E+00  0.00000000000E+00  0.15025176707E+04  0.15025176707E+04  0.00000000000E+00 0.  1.
         21   -1    0    0  501  503 -0.00000000000E+00 -0.00000000000E+00 -0.91217025604E+03  0.91217025604E+03  0.00000000000E+00 0. -1.
    9000007    1    1    2  501    0 -0.11234163049E+03  0.79044116062E+03 -0.48557518351E+03  0.10164650162E+04  0.40000000000E+03 0. -1.
   -9000007    1    1    2    0  502  0.11234163049E+03 -0.79044116062E+03  0.10759225982E+04  0.13982229106E+04  0.40000000000E+03 0.  1.
<mgrwt>
<rscale>  2 0.89298257E+03</rscale>
<asrwt>0</asrwt>
<pdfrwt beam="1">  1       21 0.23115656E+00 0.89298257E+03</pdfrwt>
<pdfrwt beam="2">  1       21 0.14033389E+00 0.89298257E+03</pdfrwt>
<totfact> 0.19007839E+01</totfact>
</mgrwt>
</event>
<event>
 4    1  0.5013722E-002  0.4880377E+03  0.7818608E-02  0.1016949E+00
         21   -1    0    0  503  502  0.00000000000E+00  0.00000000000E+00  0.16197041006E+04  0.16197041006E+04  0.00000000000E+00 0.  1.
         21   -1    0    0  501  503 -0.00000000000E+00 -0.00000000000E+00 -0.16333901542E+03  0.16333901542E+03  0.00000000000E+00 0. -1.
    9000007    1    1    2  501    0 -0.27568139566E+03  0.46696573373E+02  0.44666398836E+03  0.66158107619E+03  0.40000000000E+03 0.  1.
   -9000007    1    1    2    0  502  0.27568139566E+03 -0.46696573373E+02  0.10097010968E+04  0.11214620398E+04  0.40000000000E+03 0. -1.
<mgrwt>
<rscale>  2 0.48803771E+03</rscale>
<asrwt>0</asrwt>
<pdfrwt beam="1">  1       21 0.24918524E+00 0.48803771E+03</pdfrwt>
<pdfrwt beam="2">  1       21 0.25129080E-01 0.48803771E+03</pdfrwt>
<totfact> 0.81027387E+02</totfact>
</mgrwt>
</event>
<event>
 4    1  0.5013722E-002  0.7146961E+03  0.7818608E-02  0.9692425E-01
         21   -1    0    0  503  502  0.00000000000E+00  0.00000000000E+00  0.10925615360E+04  0.10925615360E+04  0.00000000000E+00 0.  1.
         21   -1    0    0  501  503 -0.00000000000E+00 -0.00000000000E+00 -0.48106681267E+03  0.48106681267E+03  0.00000000000E+00 0. -1.
    9000007    1    1    2  501    0  0.15742073288E+03  0.57097211635E+03  0.17369517124E+03  0.73550014092E+03  0.40000000000E+03 0.  1.
   -9000007    1    1    2    0  502 -0.15742073288E+03 -0.57097211635E+03  0.43779955205E+03  0.83812820771E+03  0.40000000000E+03 0. -1.
<mgrwt>
<rscale>  2 0.71469605E+03</rscale>
<asrwt>0</asrwt>
<pdfrwt beam="1">  1       21 0.16808639E+00 0.71469605E+03</pdfrwt>
<pdfrwt beam="2">  1       21 0.74010279E-01 0.71469605E+03</pdfrwt>
<totfact> 0.26717794E+02</totfact>
</mgrwt>
</event>
<event>
 4    1  0.5013722E-002  0.5052179E+03  0.7818608E-02  0.1012426E+00
         21   -1    0    0  503  502  0.00000000000E+00  0.00000000000E+00  0.91722294318E+03  0.91722294318E+03  0.00000000000E+00 0. -1.
         21   -1    0    0  501  503 -0.00000000000E+00 -0.00000000000E+00 -0.29883441910E+03  0.29883441910E+03  0.00000000000E+00 0. -1.
    9000007    1    1    2  501    0 -0.67487518109E+02  0.30114871513E+03  0.14973206086E+03  0.52693908924E+03  0.40000000000E+03 0. -1.
   -9000007    1    1    2    0  502  0.67487518109E+02 -0.30114871513E+03  0.46865646321E+03  0.68911827304E+03  0.40000000000E+03 0. -1.
<mgrwt>
<rscale>  2 0.50521789E+03</rscale>
<asrwt>0</asrwt>
<pdfrwt beam="1">  1       21 0.14111122E+00 0.50521789E+03</pdfrwt>
<pdfrwt beam="2">  1       21 0.45974526E-01 0.50521789E+03</pdfrwt>
<totfact> 0.13243936E+03</totfact>
</mgrwt>
</event>
<event>
 4    1  0.5013722E-002  0.4612804E+03  0.7818608E-02  0.1024411E+00
         21   -1    0    0  503  502  0.00000000000E+00  0.00000000000E+00  0.13532720319E+03  0.13532720319E+03  0.00000000000E+00 0.  1.
         21   -1    0    0  501  503 -0.00000000000E+00 -0.00000000000E+00 -0.19325776314E+04  0.19325776314E+04  0.00000000000E+00 0.  1.
    9000007    1    1    2  501    0  0.66212695942E+02 -0.21998969461E+03 -0.13450313209E+04  0.14219313770E+04  0.40000000000E+03 0.  1.
   -9000007    1    1    2    0  502 -0.66212695942E+02  0.21998969461E+03 -0.45221910736E+03  0.64597345758E+03  0.40000000000E+03 0.  1.
<mgrwt>
<rscale>  2 0.46128038E+03</rscale>
<asrwt>0</asrwt>
<pdfrwt beam="1">  1       21 0.20819570E-01 0.46128038E+03</pdfrwt>
<pdfrwt beam="2">  1       21 0.29731963E+00 0.46128038E+03</pdfrwt>
<totfact> 0.60268522E+02</totfact>
</mgrwt>
</event>
<event>
 4    1  0.5013722E-002  0.5162012E+03  0.7818608E-02  0.1009635E+00
         21   -1    0    0  501  502  0.00000000000E+00  0.00000000000E+00  0.15660318737E+04  0.15660318737E+04  0.00000000000E+00 0.  1.
         21   -1    0    0  502  503 -0.00000000000E+00 -0.00000000000E+00 -0.17378920385E+03  0.17378920385E+03  0.00000000000E+00 0.  1.
    9000007    1    1    2  501    0  0.91212912373E+02 -0.31327928266E+03  0.57027588279E+03  0.76920627066E+03  0.40000000000E+03 0.  1.
   -9000007    1    1    2    0  503 -0.91212912373E+02  0.31327928266E+03  0.82196678711E+03  0.97061480694E+03  0.40000000000E+03 0.  1.
<mgrwt>
<rscale>  2 0.51620122E+03</rscale>
<asrwt>0</asrwt>
<pdfrwt beam="1">  1       21 0.24092797E+00 0.51620122E+03</pdfrwt>
<pdfrwt beam="2">  1       21 0.26736802E-01 0.51620122E+03</pdfrwt>
<totfact> 0.79745378E+02</totfact>
</mgrwt>
</event>
<event>
 4    1  0.5013722E-002  0.5180354E+03  0.7818608E-02  0.1009176E+00
         21   -1    0    0  501  502  0.00000000000E+00  0.00000000000E+00  0.37994441315E+03  0.37994441315E+03  0.00000000000E+00 0.  1.
         21   -1    0    0  502  503 -0.00000000000E+00 -0.00000000000E+00 -0.11222812288E+04  0.11222812288E+04  0.00000000000E+00 0. -1.
    9000007    1    1    2  501    0  0.20706353938E+03 -0.25590108748E+03  0.86112464318E+02  0.52514382071E+03  0.40000000000E+03 0.  1.
   -9000007    1    1    2    0  503 -0.20706353938E+03  0.25590108748E+03 -0.82844927995E+03  0.97708182122E+03  0.40000000000E+03 0. -1.
<mgrwt>
<rscale>  2 0.51803540E+03</rscale>
<asrwt>0</asrwt>
<pdfrwt beam="1">  1       21 0.58452987E-01 0.51803540E+03</pdfrwt>
<pdfrwt beam="2">  1       21 0.17265865E+00 0.51803540E+03</pdfrwt>
<totfact> 0.44995940E+02</totfact>
</mgrwt>
</event>
<event>
 4    1  0.5013722E-002  0.4232115E+03  0.7818608E-02  0.1036026E+00
         21   -1    0    0  501  502  0.00000000000E+00  0.00000000000E+00  0.44133182219E+03  0.44133182219E+03  0.00000000000E+00 0.  1.
         21   -1    0    0  502  503 -0.00000000000E+00 -0.00000000000E+00 -0.70433279373E+03  0.70433279373E+03  0.00000000000E+00 0.  1.
    9000007    1    1    2  501    0  0.12350766104E+03 -0.62079537288E+02  0.24141372112E+03  0.48722540577E+03  0.40000000000E+03 0.  1.
   -9000007    1    1    2    0  503 -0.12350766104E+03  0.62079537288E+02 -0.50441469266E+03  0.65843921014E+03  0.40000000000E+03 0.  1.
<mgrwt>
<rscale>  2 0.42321154E+03</rscale>
<asrwt>0</asrwt>
<pdfrwt beam="1">  1       21 0.67897203E-01 0.42321154E+03</pdfrwt>
<pdfrwt beam="2">  1       21 0.10835889E+00 0.42321154E+03</pdfrwt>
<totfact> 0.11563136E+03</totfact>
</mgrwt>
</event>
<event>
 4    1  0.5013722E-002  0.5041224E+03  0.7818608E-02  0.1012708E+00
         21   -1    0    0  503  502  0.00000000000E+00  0.00000000000E+00  0.82608335941E+03  0.82608335941E+03  0.00000000000E+00 0.  1.
         21   -1    0    0  501  503 -0.00000000000E+00 -0.00000000000E+00 -0.35067089796E+03  0.35067089796E+03  0.00000000000E+00 0.  1.
    9000007    1    1    2  501    0 -0.18162944155E+03 -0.24728558961E+03  0.31606706198E+02  0.50511226549E+03  0.40000000000E+03 0.  1.
   -9000007    1    1    2    0  502  0.18162944155E+03  0.24728558961E+03  0.44380575525E+03  0.67164199189E+03  0.40000000000E+03 0.  1.
<mgrwt>
<rscale>  2 0.50412242E+03</rscale>
<asrwt>0</asrwt>
<pdfrwt beam="1">  1       21 0.12708975E+00 0.50412242E+03</pdfrwt>
<pdfrwt beam="2">  1       21 0.53949369E-01 0.50412242E+03</pdfrwt>
<totfact> 0.12404510E+03</totfact>
</mgrwt>
</event>
<event>
 4    1  0.5013722E-002  0.4863912E+03  0.7818608E-02  0.1017393E+00
         21   -1    0    0  503  502  0.00000000000E+00  0.00000000000E+00  0.51140118202E+03  0.51140118202E+03  0.00000000000E+00 0.  1.
         21   -1    0    0  501  503 -0.00000000000E+00 -0.00000000000E+00 -0.53892752563E+03  0.53892752563E+03  0.00000000000E+00 0. -1.
    9000007    1    1    2  501    0  0.23551129777E+03  0.14529579937E+03 -0.21139555622E+03  0.53034377707E+03  0.40000000000E+03 0. -1.
   -9000007    1    1    2    0  502 -0.23551129777E+03 -0.14529579937E+03  0.18386921260E+03  0.51998493058E+03  0.40000000000E+03 0.  1.
<mgrwt>
<rscale>  2 0.48639124E+03</rscale>
<asrwt>0</asrwt>
<pdfrwt beam="1">  1       21 0.78677105E-01 0.48639124E+03</pdfrwt>
<pdfrwt beam="2">  1       21 0.82911927E-01 0.48639124E+03</pdfrwt>
<totfact> 0.15343722E+03</totfact>
</mgrwt>
</event>
<event>
 4    1  0.5013722E-002  0.4052545E+03  0.7818608E-02  0.1041975E+00
         21   -1    0    0  501  502  0.00000000000E+00  0.00000000000E+00  0.59856527510E+02  0.59856527510E+02  0.00000000000E+00 0. -1.
         21   -1    0    0  502  503 -0.00000000000E+00 -0.00000000000E+00 -0.29094391056E+04  0.29094391056E+04  0.00000000000E+00 0. -1.
    9000007    1    1    2  501    0 -0.25297369496E+02  0.59927111045E+02 -0.10704933135E+04  0.11446340680E+04  0.40000000000E+03 0. -1.
   -9000007    1    1    2    0  503  0.25297369496E+02 -0.59927111045E+02 -0.17790892646E+04  0.18246615650E+04  0.40000000000E+03 0. -1.
<mgrwt>
<rscale>  2 0.40525451E+03</rscale>
<asrwt>0</asrwt>
<pdfrwt beam="1">  1       21 0.92086976E-02 0.40525451E+03</pdfrwt>
<pdfrwt beam="2">  1       21 0.44760596E+00 0.40525451E+03</pdfrwt>
<totfact> 0.31947339E+02</totfact>
</mgrwt>
</event>
<event>
 4    1  0.5013722E-002  0.9098268E+03  0.7818608E-02  0.9413380E-01
         21   -1    0    0  501  502  0.00000000000E+00  0.00000000000E+00  0.69202790625E+03  0.69202790625E+03  0.00000000000E+00 0. -1.
         21   -1    0    0  502  503 -0.00000000000E+00 -0.00000000000E+00 -0.13949899530E+04  0.13949899530E+04  0.00000000000E+00 0. -1.
    9000007    1    1    2  501    0 -0.16111055319E+03  0.80114181201E+03 -0.74542801114E+03  0.11762005497E+04  0.40000000000E+03 0. -1.
   -9000007    1    1    2    0  503  0.16111055319E+03 -0.80114181201E+03  0.42465964376E+02  0.91081730958E+03  0.40000000000E+03 0. -1.
<mgrwt>
<rscale>  2 0.90982680E+03</rscale>
<asrwt>0</asrwt>
<pdfrwt beam="1">  1       21 0.10646583E+00 0.90982680E+03</pdfrwt>
<pdfrwt beam="2">  1       21 0.21461384E+00 0.90982680E+03</pdfrwt>
<totfact> 0.49827684E+01</totfact>
</mgrwt>
</event>
<event>
 4    1  0.5013722E-002  0.5021335E+03  0.7818608E-02  0.1013224E+00
         21   -1    0    0  503  502  0.00000000000E+00  0.00000000000E+00  0.34815250973E+03  0.34815250973E+03  0.00000000000E+00 0.  1.
         21   -1    0    0  501  503 -0.00000000000E+00 -0.00000000000E+00 -0.12410549800E+04  0.12410549800E+04  0.00000000000E+00 0.  1.
    9000007    1    1    2  501    0  0.28554501132E+03  0.10296666723E+03 -0.95923251241E+03  0.10827119196E+04  0.40000000000E+03 0.  1.
   -9000007    1    1    2    0  502 -0.28554501132E+03 -0.10296666723E+03  0.66330042120E+02  0.50649557011E+03  0.40000000000E+03 0.  1.
<mgrwt>
<rscale>  2 0.50213354E+03</rscale>
<asrwt>0</asrwt>
<pdfrwt beam="1">  1       21 0.53561925E-01 0.50213354E+03</pdfrwt>
<pdfrwt beam="2">  1       21 0.19093154E+00 0.50213354E+03</pdfrwt>
<totfact> 0.40710343E+02</totfact>
</mgrwt>
</event>
<event>
 4    1  0.5013722E-002  0.4415578E+03  0.7818608E-02  0.1030270E+00
         21   -1    0    0  501  502  0.00000000000E+00  0.00000000000E+00  0.24819889850E+03  0.24819889850E+03  0.00000000000E+00 0. -1.
         21   -1    0    0  502  503 -0.00000000000E+00 -0.00000000000E+00 -0.12718432540E+04  0.12718432540E+04  0.00000000000E+00 0. -1.
    9000007    1    1    2  501    0 -0.11579668487E+03 -0.14684836367E+03 -0.41866653908E+02  0.44353819548E+03  0.40000000000E+03 0. -1.
   -9000007    1    1    2    0  503  0.11579668487E+03  0.14684836367E+03 -0.98177770162E+03  0.10765039570E+04  0.40000000000E+03 0. -1.
<mgrwt>
<rscale>  2 0.44155783E+03</rscale>
<asrwt>0</asrwt>
<pdfrwt beam="1">  1       21 0.38184446E-01 0.44155783E+03</pdfrwt>
<pdfrwt beam="2">  1       21 0.19566819E+00 0.44155783E+03</pdfrwt>
<totfact> 0.79086900E+02</totfact>
</mgrwt>
</event>
<event>
 4    1  0.5013722E-002  0.4607806E+03  0.7818608E-02  0.1024555E+00
         21   -1    0    0  503  502  0.00000000000E+00  0.00000000000E+00  0.66723482352E+03  0.66723482352E+03  0.00000000000E+00 0. -1.
         21   -1    0    0  501  503 -0.00000000000E+00 -0.00000000000E+00 -0.65256360804E+03  0.65256360804E+03  0.00000000000E+00 0. -1.
    9000007    1    1    2  501    0  0.22786684291E+03 -0.19886321113E+02 -0.46502227715E+03  0.65464836524E+03  0.40000000000E+03 0. -1.
   -9000007    1    1    2    0  502 -0.22786684291E+03  0.19886321113E+02  0.47969349263E+03  0.66515006633E+03  0.40000000000E+03 0. -1.
<mgrwt>
<rscale>  2 0.46078060E+03</rscale>
<asrwt>0</asrwt>
<pdfrwt beam="1">  1       21 0.10265151E+00 0.46078060E+03</pdfrwt>
<pdfrwt beam="2">  1       21 0.10039440E+00 0.46078060E+03</pdfrwt>
<totfact> 0.52302976E+02</totfact>
</mgrwt>
</event>
<event>
 4    1  0.5013722E-002  0.4365777E+03  0.7818608E-02  0.1031802E+00
         21   -1    0    0  503  502  0.00000000000E+00  0.00000000000E+00  0.16210132592E+03  0.16210132592E+03  0.00000000000E+00 0. -1.
         21   -1    0    0  501  503 -0.00000000000E+00 -0.00000000000E+00 -0.12791120035E+04  0.12791120035E+04  0.00000000000E+00 0. -1.
    9000007    1    1    2  501    0  0.10628911406E+03 -0.13893434215E+03 -0.76329186479E+03  0.87932621822E+03  0.40000000000E+03 0. -1.
   -9000007    1    1    2    0  502 -0.10628911406E+03  0.13893434215E+03 -0.35371881277E+03  0.56188711118E+03  0.40000000000E+03 0. -1.
<mgrwt>
<rscale>  2 0.43657774E+03</rscale>
<asrwt>0</asrwt>
<pdfrwt beam="1">  1       21 0.24938665E-01 0.43657774E+03</pdfrwt>
<pdfrwt beam="2">  1       21 0.19678647E+00 0.43657774E+03</pdfrwt>
<totfact> 0.18210183E+03</totfact>
</mgrwt>
</event>
<event>
 4    1  0.5013722E-002  0.4316625E+03  0.7818608E-02  0.1033336E+00
         21   -1    0    0  501  502  0.00000000000E+00  0.00000000000E+00  0.28470784860E+03  0.28470784860E+03  0.00000000000E+00 0.  1.
         21   -1    0    0  502  503 -0.00000000000E+00 -0.00000000000E+00 -0.14004358425E+04  0.14004358425E+04  0.00000000000E+00 0.  1.
    9000007    1    1    2  501    0 -0.13899012416E+03  0.83751154728E+02  0.57079262790E+02  0.43541997287E+03  0.40000000000E+03 0.  1.
   -9000007    1    1    2    0  503  0.13899012416E+03 -0.83751154728E+02 -0.11728072567E+04  0.12497237182E+04  0.40000000000E+03 0.  1.
<mgrwt>
<rscale>  2 0.43166250E+03</rscale>
<asrwt>0</asrwt>
<pdfrwt beam="1">  1       21 0.43801207E-01 0.43166250E+03</pdfrwt>
<pdfrwt beam="2">  1       21 0.21545167E+00 0.43166250E+03</pdfrwt>
<totfact> 0.44361168E+02</totfact>
</mgrwt>
</event>
<event>
 4    1  0.5013722E-002  0.4067586E+03  0.7818608E-02  0.1041464E+00
         21   -1    0    0  501  502  0.00000000000E+00  0.00000000000E+00  0.78536288689E+03  0.78536288689E+03  0.00000000000E+00 0.  1.
         21   -1    0    0  502  503 -0.00000000000E+00 -0.00000000000E+00 -0.65425726531E+03  0.65425726531E+03  0.00000000000E+00 0.  1.
    9000007    1    1    2  501    0  0.72383365906E+02  0.14602010270E+02  0.65825028026E+03  0.77378679352E+03  0.40000000000E+03 0.  1.
   -9000007    1    1    2    0  503 -0.72383365906E+02 -0.14602010270E+02 -0.52714465868E+03  0.66583335868E+03  0.40000000000E+03 0.  1.
<mgrwt>
<rscale>  2 0.40675861E+03</rscale>
<asrwt>0</asrwt>
<pdfrwt beam="1">  1       21 0.12082506E+00 0.40675861E+03</pdfrwt>
<pdfrwt beam="2">  1       21 0.10065496E+00 0.40675861E+03</pdfrwt>
<totfact> 0.35556718E+02</totfact>
</mgrwt>
</event>
<event>
 4    1  0.5013722E-002  0.4018522E+03  0.7818608E-02  0.1043140E+00
         21   -1    0    0  503  502  0.00000000000E+00  0.00000000000E+00  0.32004789909E+03  0.32004789909E+03  0.00000000000E+00 0. -1.
         21   -1    0    0  501  503 -0.00000000000E+00 -0.00000000000E+00 -0.58412613964E+03  0.58412613964E+03  0.00000000000E+00 0. -1.
    9000007    1    1    2  501    0 -0.10173829688E+02  0.37170487489E+02 -0.29888583033E+03  0.50081722367E+03  0.40000000000E+03 0. -1.
   -9000007    1    1    2    0  502  0.10173829688E+02 -0.37170487489E+02  0.34807589776E+02  0.40335681506E+03  0.40000000000E+03 0. -1.
<mgrwt>
<rscale>  2 0.40185215E+03</rscale>
<asrwt>0</asrwt>
<pdfrwt beam="1">  1       21 0.49238138E-01 0.40185215E+03</pdfrwt>
<pdfrwt beam="2">  1       21 0.89865560E-01 0.40185215E+03</pdfrwt>
<totfact> 0.36874170E+03</totfact>
</mgrwt>
</event>
<event>
 4    1  0.5013722E-002  0.4412587E+03  0.7818608E-02  0.1030361E+00
         21   -1    0    0  503  502  0.00000000000E+00  0.00000000000E+00  0.62704689078E+03  0.62704689078E+03  0.00000000000E+00 0. -1.
         21   -1    0    0  501  503 -0.00000000000E+00 -0.00000000000E+00 -0.43325643025E+03  0.43325643025E+03  0.00000000000E+00 0. -1.
    9000007    1    1    2  501    0 -0.18052211043E+03 -0.46054060102E+02 -0.18527961014E+03  0.47857887828E+03  0.40000000000E+03 0. -1.
   -9000007    1    1    2    0  502  0.18052211043E+03  0.46054060102E+02  0.37907007067E+03  0.58172444274E+03  0.40000000000E+03 0. -1.
<mgrwt>
<rscale>  2 0.44125866E+03</rscale>
<asrwt>0</asrwt>
<pdfrwt beam="1">  1       21 0.96468752E-01 0.44125866E+03</pdfrwt>
<pdfrwt beam="2">  1       21 0.66654836E-01 0.44125866E+03</pdfrwt>
<totfact> 0.15884594E+03</totfact>
</mgrwt>
</event>
<event>
 4    1  0.5013722E-002  0.5479486E+03  0.7818608E-02  0.1001970E+00
         21   -1    0    0  503  502  0.00000000000E+00  0.00000000000E+00  0.61594861013E+03  0.61594861013E+03  0.00000000000E+00 0. -1.
         21   -1    0    0  501  503 -0.00000000000E+00 -0.00000000000E+00 -0.50648820350E+03  0.50648820350E+03  0.00000000000E+00 0. -1.
    9000007    1    1    2  501    0  0.25449790188E+03 -0.27473351093E+03 -0.54061247652E+02  0.55060902879E+03  0.40000000000E+03 0. -1.
   -9000007    1    1    2    0  502 -0.25449790188E+03  0.27473351093E+03  0.16352165429E+03  0.57182778484E+03  0.40000000000E+03 0. -1.
<mgrwt>
<rscale>  2 0.54794861E+03</rscale>
<asrwt>0</asrwt>
<pdfrwt beam="1">  1       21 0.94761325E-01 0.54794861E+03</pdfrwt>
<pdfrwt beam="2">  1       21 0.77921262E-01 0.54794861E+03</pdfrwt>
<totfact> 0.11195528E+03</totfact>
</mgrwt>
</event>
<event>
 4    1  0.5013722E-002  0.4340208E+03  0.7818608E-02  0.1032597E+00
         21   -1    0    0  501  502  0.00000000000E+00  0.00000000000E+00  0.13072302720E+04  0.13072302720E+04  0.00000000000E+00 0.  1.
         21   -1    0    0  502  503 -0.00000000000E+00 -0.00000000000E+00 -0.14917960283E+03  0.14917960283E+03  0.00000000000E+00 0.  1.
    9000007    1    1    2  501    0  0.15083832831E+03  0.74978808462E+02  0.44467345254E+03  0.62137629694E+03  0.40000000000E+03 0.  1.
   -9000007    1    1    2    0  503 -0.15083832831E+03 -0.74978808462E+02  0.71337721665E+03  0.83503357791E+03  0.40000000000E+03 0.  1.
<mgrwt>
<rscale>  2 0.43402076E+03</rscale>
<asrwt>0</asrwt>
<pdfrwt beam="1">  1       21 0.20111234E+00 0.43402076E+03</pdfrwt>
<pdfrwt beam="2">  1       21 0.22950709E-01 0.43402076E+03</pdfrwt>
<totfact> 0.20032912E+03</totfact>
</mgrwt>
</event>
<event>
 4    1  0.5013722E-002  0.4399877E+03  0.7818608E-02  0.1030751E+00
         21   -1    0    0  501  502  0.00000000000E+00  0.00000000000E+00  0.28535894394E+03  0.28535894394E+03  0.00000000000E+00 0.  1.
         21   -1    0    0  502  503 -0.00000000000E+00 -0.00000000000E+00 -0.69278871305E+03  0.69278871305E+03  0.00000000000E+00 0. -1.
    9000007    1    1    2  501    0 -0.98989029302E+02  0.15424115214E+03 -0.13324597686E+03  0.45972127565E+03  0.40000000000E+03 0.  1.
   -9000007    1    1    2    0  503  0.98989029302E+02 -0.15424115214E+03 -0.27418379225E+03  0.51842638134E+03  0.40000000000E+03 0.  1.
<mgrwt>
<rscale>  2 0.43998768E+03</rscale>
<asrwt>0</asrwt>
<pdfrwt beam="1">  1       21 0.43901376E-01 0.43998768E+03</pdfrwt>
<pdfrwt beam="2">  1       21 0.10658288E+00 0.43998768E+03</pdfrwt>
<totfact> 0.30647854E+03</totfact>
</mgrwt>
</event>
<event>
 4    1  0.5013722E-002  0.5184933E+03  0.7818608E-02  0.1009062E+00
         21   -1    0    0  501  502  0.00000000000E+00  0.00000000000E+00  0.24886626415E+03  0.24886626415E+03  0.00000000000E+00 0. -1.
         21   -1    0    0  502  503 -0.00000000000E+00 -0.00000000000E+00 -0.15248471311E+04  0.15248471311E+04  0.00000000000E+00 0. -1.
    9000007    1    1    2  501    0  0.81868080060E+02 -0.31958239395E+03 -0.15910842952E+03  0.54235669204E+03  0.40000000000E+03 0. -1.
   -9000007    1    1    2    0  503 -0.81868080060E+02  0.31958239395E+03 -0.11168724374E+04  0.12313567032E+04  0.40000000000E+03 0. -1.
<mgrwt>
<rscale>  2 0.51849329E+03</rscale>
<asrwt>0</asrwt>
<pdfrwt beam="1">  1       21 0.38287118E-01 0.51849329E+03</pdfrwt>
<pdfrwt beam="2">  1       21 0.23459187E+00 0.51849329E+03</pdfrwt>
<totfact> 0.42439943E+02</totfact>
</mgrwt>
</event>
<event>
 4    1  0.5013722E-002  0.4760554E+03  0.7818608E-02  0.1020225E+00
         21   -1    0    0  501  502  0.00000000000E+00  0.00000000000E+00  0.61351256997E+03  0.61351256997E+03  0.00000000000E+00 0. -1.
         21   -1    0    0  502  503 -0.00000000000E+00 -0.00000000000E+00 -0.39492440649E+03  0.39492440649E+03  0.00000000000E+00 0. -1.
    9000007    1    1    2  501    0 -0.20920372744E+03  0.15120368636E+03  0.23749120394E+03  0.53200641565E+03  0.40000000000E+03 0.  1.
   -9000007    1    1    2    0  503  0.20920372744E+03 -0.15120368636E+03 -0.18903040461E+02  0.47643056082E+03  0.40000000000E+03 0.  1.
<mgrwt>
<rscale>  2 0.47605541E+03</rscale>
<asrwt>0</asrwt>
<pdfrwt beam="1">  1       21 0.94386550E-01 0.47605541E+03</pdfrwt>
<pdfrwt beam="2">  1       21 0.60757600E-01 0.47605541E+03</pdfrwt>
<totfact> 0.20284271E+03</totfact>
</mgrwt>
</event>
<event>
 4    1  0.5013722E-002  0.4145857E+03  0.7818608E-02  0.1038843E+00
         21   -1    0    0  503  502  0.00000000000E+00  0.00000000000E+00  0.44676424518E+03  0.44676424518E+03  0.00000000000E+00 0.  1.
         21   -1    0    0  501  503 -0.00000000000E+00 -0.00000000000E+00 -0.51160838259E+03  0.51160838259E+03  0.00000000000E+00 0. -1.
    9000007    1    1    2  501    0 -0.89935598869E+02  0.61586290254E+02 -0.27105935562E+03  0.49533267342E+03  0.40000000000E+03 0. -1.
   -9000007    1    1    2    0  502  0.89935598869E+02 -0.61586290254E+02  0.20621521821E+03  0.46303995434E+03  0.40000000000E+03 0.  1.
<mgrwt>
<rscale>  2 0.41458568E+03</rscale>
<asrwt>0</asrwt>
<pdfrwt beam="1">  1       21 0.68732960E-01 0.41458568E+03</pdfrwt>
<pdfrwt beam="2">  1       21 0.78708982E-01 0.41458568E+03</pdfrwt>
<totfact> 0.24175191E+03</totfact>
</mgrwt>
</event>
<event>
 4    1  0.5013722E-002  0.4293194E+03  0.7818608E-02  0.1034075E+00
         21   -1    0    0  503  502  0.00000000000E+00  0.00000000000E+00  0.51092600940E+03  0.51092600940E+03  0.00000000000E+00 0.  1.
         21   -1    0    0  501  503 -0.00000000000E+00 -0.00000000000E+00 -0.54530666882E+03  0.54530666882E+03  0.00000000000E+00 0.  1.
    9000007    1    1    2  501    0  0.20082869764E+02  0.15463444998E+03 -0.32443004091E+03  0.53811707483E+03  0.40000000000E+03 0.  1.
   -9000007    1    1    2    0  502 -0.20082869764E+02 -0.15463444998E+03  0.29004938149E+03  0.51811560339E+03  0.40000000000E+03 0.  1.
<mgrwt>
<rscale>  2 0.42931939E+03</rscale>
<asrwt>0</asrwt>
<pdfrwt beam="1">  1       21 0.78604002E-01 0.42931939E+03</pdfrwt>
<pdfrwt beam="2">  1       21 0.83893333E-01 0.42931939E+03</pdfrwt>
<totfact> 0.15291329E+03</totfact>
</mgrwt>
</event>
<event>
 4    1  0.5013722E-002  0.6229181E+03  0.7818608E-02  0.9858967E-01
         21   -1    0    0  501  502  0.00000000000E+00  0.00000000000E+00  0.31727896514E+03  0.31727896514E+03  0.00000000000E+00 0. -1.
         21   -1    0    0  502  503 -0.00000000000E+00 -0.00000000000E+00 -0.12360052654E+04  0.12360052654E+04  0.00000000000E+00 0.  1.
    9000007    1    1    2  501    0 -0.35463528223E+03  0.31978240893E+03 -0.37964743154E+03  0.72949238840E+03  0.40000000000E+03 0.  1.
   -9000007    1    1    2    0  503  0.35463528223E+03 -0.31978240893E+03 -0.53907886870E+03  0.82379184212E+03  0.40000000000E+03 0. -1.
<mgrwt>
<rscale>  2 0.62291811E+03</rscale>
<asrwt>0</asrwt>
<pdfrwt beam="1">  1       21 0.48812147E-01 0.62291811E+03</pdfrwt>
<pdfrwt beam="2">  1       21 0.19015466E+00 0.62291811E+03</pdfrwt>
<totfact> 0.48004022E+02</totfact>
</mgrwt>
</event>
<event>
 4    1  0.5013722E-002  0.4008961E+03  0.7818608E-02  0.1043470E+00
         21   -1    0    0  503  502  0.00000000000E+00  0.00000000000E+00  0.79226757513E+03  0.79226757513E+03  0.00000000000E+00 0. -1.
         21   -1    0    0  501  503 -0.00000000000E+00 -0.00000000000E+00 -0.20997148349E+03  0.20997148349E+03  0.00000000000E+00 0. -1.
    9000007    1    1    2  501    0  0.21337591695E+02 -0.16197809795E+02  0.19891038871E+03  0.44752989241E+03  0.40000000000E+03 0.  1.
   -9000007    1    1    2    0  502 -0.21337591695E+02  0.16197809795E+02  0.38338570294E+03  0.55470916621E+03  0.40000000000E+03 0.  1.
<mgrwt>
<rscale>  2 0.40089607E+03</rscale>
<asrwt>0</asrwt>
<pdfrwt beam="1">  1       21 0.12188732E+00 0.40089607E+03</pdfrwt>
<pdfrwt beam="2">  1       21 0.32303305E-01 0.40089607E+03</pdfrwt>
<totfact> 0.41609369E+03</totfact>
</mgrwt>
</event>
<event>
 4    1  0.5013722E-002  0.4458131E+03  0.7818608E-02  0.1028978E+00
         21   -1    0    0  503  502  0.00000000000E+00  0.00000000000E+00  0.91477567560E+03  0.91477567560E+03  0.00000000000E+00 0.  1.
         21   -1    0    0  501  503 -0.00000000000E+00 -0.00000000000E+00 -0.35166219880E+03  0.35166219880E+03  0.00000000000E+00 0. -1.
    9000007    1    1    2  501    0 -0.10497216483E+03 -0.16652386191E+03 -0.10990117194E+03  0.45915968853E+03  0.40000000000E+03 0. -1.
   -9000007    1    1    2    0  502  0.10497216483E+03  0.16652386191E+03  0.67301464874E+03  0.80727818588E+03  0.40000000000E+03 0.  1.
<mgrwt>
<rscale>  2 0.44581314E+03</rscale>
<asrwt>0</asrwt>
<pdfrwt beam="1">  1       21 0.14073472E+00 0.44581314E+03</pdfrwt>
<pdfrwt beam="2">  1       21 0.54101877E-01 0.44581314E+03</pdfrwt>
<totfact> 0.96569870E+02</totfact>
</mgrwt>
</event>
<event>
 4    1  0.5013722E-002  0.5045384E+03  0.7818608E-02  0.1012601E+00
         21   -1    0    0  503  502  0.00000000000E+00  0.00000000000E+00  0.39803953889E+03  0.39803953889E+03  0.00000000000E+00 0.  1.
         21   -1    0    0  501  503 -0.00000000000E+00 -0.00000000000E+00 -0.65470746109E+03  0.65470746109E+03  0.00000000000E+00 0.  1.
    9000007    1    1    2  501    0 -0.22668916322E+03  0.20777643329E+03 -0.20847247767E+03  0.54591189481E+03  0.40000000000E+03 0.  1.
   -9000007    1    1    2    0  502  0.22668916322E+03 -0.20777643329E+03 -0.48195444532E+02  0.50683510516E+03  0.40000000000E+03 0.  1.
<mgrwt>
<rscale>  2 0.50453843E+03</rscale>
<asrwt>0</asrwt>
<pdfrwt beam="1">  1       21 0.61236852E-01 0.50453843E+03</pdfrwt>
<pdfrwt beam="2">  1       21 0.10072422E+00 0.50453843E+03</pdfrwt>
<totfact> 0.16869172E+03</totfact>
</mgrwt>
</event>
<event>
 4    1  0.5013722E-002  0.6080684E+03  0.7818608E-02  0.9888807E-01
         21   -1    0    0  501  502  0.00000000000E+00  0.00000000000E+00  0.36829962943E+03  0.36829962943E+03  0.00000000000E+00 0. -1.
         21   -1    0    0  502  503 -0.00000000000E+00 -0.00000000000E+00 -0.18511157373E+04  0.18511157373E+04  0.00000000000E+00 0. -1.
    9000007    1    1    2  501    0 -0.45534586412E+03 -0.49063906542E+02  0.93172794732E+01  0.60813973279E+03  0.40000000000E+03 0. -1.
   -9000007    1    1    2    0  503  0.45534586412E+03  0.49063906542E+02 -0.14921333873E+04  0.16112756339E+04  0.40000000000E+03 0. -1.
<mgrwt>
<rscale>  2 0.60806835E+03</rscale>
<asrwt>0</asrwt>
<pdfrwt beam="1">  1       21 0.56661484E-01 0.60806835E+03</pdfrwt>
<pdfrwt beam="2">  1       21 0.28478703E+00 0.60806835E+03</pdfrwt>
<totfact> 0.87127746E+01</totfact>
</mgrwt>
</event>
<event>
 4    1  0.5013722E-002  0.5150002E+03  0.7818608E-02  0.1009936E+00
         21   -1    0    0  503  502  0.00000000000E+00  0.00000000000E+00  0.48468384714E+03  0.48468384714E+03  0.00000000000E+00 0.  1.
         21   -1    0    0  501  503 -0.00000000000E+00 -0.00000000000E+00 -0.86207142562E+03  0.86207142562E+03  0.00000000000E+00 0. -1.
    9000007    1    1    2  501    0 -0.15239913739E+03 -0.28635593654E+03 -0.59564733900E+03  0.78741410447E+03  0.40000000000E+03 0. -1.
   -9000007    1    1    2    0  502  0.15239913739E+03  0.28635593654E+03  0.21825976052E+03  0.55934116828E+03  0.40000000000E+03 0.  1.
<mgrwt>
<rscale>  2 0.51500021E+03</rscale>
<asrwt>0</asrwt>
<pdfrwt beam="1">  1       21 0.74566747E-01 0.51500021E+03</pdfrwt>
<pdfrwt beam="2">  1       21 0.13262637E+00 0.51500021E+03</pdfrwt>
<totfact> 0.53900397E+02</totfact>
</mgrwt>
</event>
<event>
 4    1  0.5013722E-002  0.4035627E+03  0.7818608E-02  0.1042553E+00
         21   -1    0    0  503  502  0.00000000000E+00  0.00000000000E+00  0.51613338883E+03  0.51613338883E+03  0.00000000000E+00 0.  1.
         21   -1    0    0  501  503 -0.00000000000E+00 -0.00000000000E+00 -0.32518512079E+03  0.32518512079E+03  0.00000000000E+00 0.  1.
    9000007    1    1    2  501    0  0.47927139973E+02 -0.23787650083E+02  0.16790536504E+03  0.43709847249E+03  0.40000000000E+03 0.  1.
   -9000007    1    1    2    0  502 -0.47927139973E+02  0.23787650083E+02  0.23042902992E+02  0.40422003713E+03  0.40000000000E+03 0.  1.
<mgrwt>
<rscale>  2 0.40356271E+03</rscale>
<asrwt>0</asrwt>
<pdfrwt beam="1">  1       21 0.79405136E-01 0.40356271E+03</pdfrwt>
<pdfrwt beam="2">  1       21 0.50028480E-01 0.40356271E+03</pdfrwt>
<totfact> 0.47536232E+03</totfact>
</mgrwt>
</event>
<event>
 4    1  0.5013722E-002  0.4442739E+03  0.7818608E-02  0.1029444E+00
         21   -1    0    0  501  502  0.00000000000E+00  0.00000000000E+00  0.19795113956E+03  0.19795113956E+03  0.00000000000E+00 0. -1.
         21   -1    0    0  502  503 -0.00000000000E+00 -0.00000000000E+00 -0.99730864550E+03  0.99730864550E+03  0.00000000000E+00 0. -1.
    9000007    1    1    2  501    0  0.56634684212E+02  0.18485613466E+03 -0.40808987773E+03  0.60325502591E+03  0.40000000000E+03 0. -1.
   -9000007    1    1    2    0  503 -0.56634684212E+02 -0.18485613466E+03 -0.39126762821E+03  0.59200475915E+03  0.40000000000E+03 0. -1.
<mgrwt>
<rscale>  2 0.44427388E+03</rscale>
<asrwt>0</asrwt>
<pdfrwt beam="1">  1       21 0.30454021E-01 0.44427388E+03</pdfrwt>
<pdfrwt beam="2">  1       21 0.15343210E+00 0.44427388E+03</pdfrwt>
<totfact> 0.25092478E+03</totfact>
</mgrwt>
</event>
<event>
 4    1  0.5013722E-002  0.4150807E+03  0.7818608E-02  0.1038679E+00
         21   -1    0    0  501  502  0.00000000000E+00  0.00000000000E+00  0.71705723707E+03  0.71705723707E+03  0.00000000000E+00 0.  1.
         21   -1    0    0  502  503 -0.00000000000E+00 -0.00000000000E+00 -0.38235409503E+03  0.38235409503E+03  0.00000000000E+00 0.  1.
    9000007    1    1    2  501    0 -0.83119707626E+02 -0.73369465061E+02  0.50244061023E+03  0.65171967210E+03  0.40000000000E+03 0.  1.
   -9000007    1    1    2    0  503  0.83119707626E+02  0.73369465061E+02 -0.16773746819E+03  0.44769166000E+03  0.40000000000E+03 0.  1.
<mgrwt>
<rscale>  2 0.41508067E+03</rscale>
<asrwt>0</asrwt>
<pdfrwt beam="1">  1       21 0.11031650E+00 0.41508067E+03</pdfrwt>
<pdfrwt beam="2">  1       21 0.58823707E-01 0.41508067E+03</pdfrwt>
<totfact> 0.15237325E+03</totfact>
</mgrwt>
</event>
<event>
 4    1  0.5013722E-002  0.4882865E+03  0.7818608E-02  0.1016882E+00
         21   -1    0    0  501  502  0.00000000000E+00  0.00000000000E+00  0.87595119740E+03  0.87595119740E+03  0.00000000000E+00 0.  1.
         21   -1    0    0  502  503 -0.00000000000E+00 -0.00000000000E+00 -0.56903648153E+03  0.56903648153E+03  0.00000000000E+00 0.  1.
    9000007    1    1    2  501    0  0.26382177678E+03  0.93924350543E+02  0.67529001084E+03  0.83333085402E+03  0.40000000000E+03 0.  1.
   -9000007    1    1    2    0  503 -0.26382177678E+03 -0.93924350543E+02 -0.36837529496E+03  0.61165682491E+03  0.40000000000E+03 0.  1.
<mgrwt>
<rscale>  2 0.48828651E+03</rscale>
<asrwt>0</asrwt>
<pdfrwt beam="1">  1       21 0.13476172E+00 0.48828651E+03</pdfrwt>
<pdfrwt beam="2">  1       21 0.87544074E-01 0.48828651E+03</pdfrwt>
<totfact> 0.36007837E+02</totfact>
</mgrwt>
</event>
<event>
 4    1  0.5013722E-002  0.4082534E+03  0.7818608E-02  0.1040959E+00
         21   -1    0    0  503  502  0.00000000000E+00  0.00000000000E+00  0.10566459517E+04  0.10566459517E+04  0.00000000000E+00 0.  1.
         21   -1    0    0  501  503 -0.00000000000E+00 -0.00000000000E+00 -0.16053617080E+03  0.16053617080E+03  0.00000000000E+00 0.  1.
    9000007    1    1    2  501    0 -0.15687053349E+02 -0.80154755070E+02  0.36767474180E+03  0.54941385508E+03  0.40000000000E+03 0.  1.
   -9000007    1    1    2    0  502  0.15687053349E+02  0.80154755070E+02  0.52843503907E+03  0.66776826738E+03  0.40000000000E+03 0.  1.
<mgrwt>
<rscale>  2 0.40825344E+03</rscale>
<asrwt>0</asrwt>
<pdfrwt beam="1">  1       21 0.16256091E+00 0.40825344E+03</pdfrwt>
<pdfrwt beam="2">  1       21 0.24697873E-01 0.40825344E+03</pdfrwt>
<totfact> 0.32744480E+03</totfact>
</mgrwt>
</event>
<event>
 4    1  0.5013722E-002  0.4360072E+03  0.7818608E-02  0.1031979E+00
         21   -1    0    0  501  502  0.00000000000E+00  0.00000000000E+00  0.69184038386E+03  0.69184038386E+03  0.00000000000E+00 0.  1.
         21   -1    0    0  502  503 -0.00000000000E+00 -0.00000000000E+00 -0.50617459126E+03  0.50617459126E+03  0.00000000000E+00 0.  1.
    9000007    1    1    2  501    0 -0.16738494149E+03 -0.45657402429E+02  0.49783831181E+03  0.66177435863E+03  0.40000000000E+03 0.  1.
   -9000007    1    1    2    0  503  0.16738494149E+03  0.45657402429E+02 -0.31217251920E+03  0.53624061649E+03  0.40000000000E+03 0.  1.
<mgrwt>
<rscale>  2 0.43600724E+03</rscale>
<asrwt>0</asrwt>
<pdfrwt beam="1">  1       21 0.10643698E+00 0.43600724E+03</pdfrwt>
<pdfrwt beam="2">  1       21 0.77873014E-01 0.43600724E+03</pdfrwt>
<totfact> 0.88098187E+02</totfact>
</mgrwt>
</event>
<event>
 4    1  0.5013722E-002  0.4825149E+03  0.7818608E-02  0.1018446E+00
         21   -1    0    0  501  502  0.00000000000E+00  0.00000000000E+00  0.72624316999E+03  0.72624316999E+03  0.00000000000E+00 0. -1.
         21   -1    0    0  502  503 -0.00000000000E+00 -0.00000000000E+00 -0.19337822318E+04  0.19337822318E+04  0.00000000000E+00 0.  1.
    9000007    1    1    2  501    0  0.90291132468E+02 -0.25429939959E+03  0.61100620603E+03  0.77855587920E+03  0.40000000000E+03 0. -1.
   -9000007    1    1    2    0  503 -0.90291132468E+02  0.25429939959E+03 -0.18185452678E+04  0.18814695226E+04  0.40000000000E+03 0.  1.
<mgrwt>
<rscale>  2 0.48251495E+03</rscale>
<asrwt>0</asrwt>
<pdfrwt beam="1">  1       21 0.11172972E+00 0.48251495E+03</pdfrwt>
<pdfrwt beam="2">  1       21 0.29750496E+00 0.48251495E+03</pdfrwt>
<totfact> 0.16119207E+01</totfact>
</mgrwt>
</event>
<event>
 4    1  0.5013722E-002  0.5694373E+03  0.7818608E-02  0.9970925E-01
         21   -1    0    0  503  502  0.00000000000E+00  0.00000000000E+00  0.59097864303E+03  0.59097864303E+03  0.00000000000E+00 0.  1.
         21   -1    0    0  501  503 -0.00000000000E+00 -0.00000000000E+00 -0.64491449272E+03  0.64491449272E+03  0.00000000000E+00 0. -1.
    9000007    1    1    2  501    0  0.20883129542E+03  0.34734463815E+03 -0.26567361480E+03  0.62836396873E+03  0.40000000000E+03 0.  1.
   -9000007    1    1    2    0  502 -0.20883129542E+03 -0.34734463815E+03  0.21173776511E+03  0.60752916701E+03  0.40000000000E+03 0.  1.
<mgrwt>
<rscale>  2 0.56943727E+03</rscale>
<asrwt>0</asrwt>
<pdfrwt beam="1">  1       21 0.90919791E-01 0.56943727E+03</pdfrwt>
<pdfrwt beam="2">  1       21 0.99217614E-01 0.56943727E+03</pdfrwt>
<totfact> 0.69234131E+02</totfact>
</mgrwt>
</event>
<event>
 4    1  0.5013722E-002  0.4357185E+03  0.7818608E-02  0.1032069E+00
         21   -1    0    0  503  502  0.00000000000E+00  0.00000000000E+00  0.93474141314E+03  0.93474141314E+03  0.00000000000E+00 0. -1.
         21   -1    0    0  501  503 -0.00000000000E+00 -0.00000000000E+00 -0.21786670267E+03  0.21786670267E+03  0.00000000000E+00 0. -1.
    9000007    1    1    2  501    0 -0.17058729512E+03  0.27396381534E+02  0.20842551453E+03  0.48300287999E+03  0.40000000000E+03 0. -1.
   -9000007    1    1    2    0  502  0.17058729512E+03 -0.27396381534E+02  0.50844919595E+03  0.66960523582E+03  0.40000000000E+03 0. -1.
<mgrwt>
<rscale>  2 0.43571847E+03</rscale>
<asrwt>0</asrwt>
<pdfrwt beam="1">  1       21 0.14380637E+00 0.43571847E+03</pdfrwt>
<pdfrwt beam="2">  1       21 0.33517955E-01 0.43571847E+03</pdfrwt>
<totfact> 0.24764999E+03</totfact>
</mgrwt>
</event>
<event>
 4    1  0.5013722E-002  0.4132815E+03  0.7818608E-02  0.1039275E+00
         21   -1    0    0  501  502  0.00000000000E+00  0.00000000000E+00  0.11716151198E+04  0.11716151198E+04  0.00000000000E+00 0.  1.
         21   -1    0    0  502  503 -0.00000000000E+00 -0.00000000000E+00 -0.21723940962E+03  0.21723940962E+03  0.00000000000E+00 0.  1.
    9000007    1    1    2  501    0  0.73554707074E+02  0.73425285977E+02  0.87545827406E+03  0.96810575722E+03  0.40000000000E+03 0.  1.
   -9000007    1    1    2    0  503 -0.73554707074E+02 -0.73425285977E+02  0.78917436073E+02  0.42074877216E+03  0.40000000000E+03 0.  1.
<mgrwt>
<rscale>  2 0.41328146E+03</rscale>
<asrwt>0</asrwt>
<pdfrwt beam="1">  1       21 0.18024848E+00 0.41328146E+03</pdfrwt>
<pdfrwt beam="2">  1       21 0.33421448E-01 0.41328146E+03</pdfrwt>
<totfact> 0.13400162E+03</totfact>
</mgrwt>
</event>
<event>
 4    1  0.5013722E-002  0.4312028E+03  0.7818608E-02  0.1033481E+00
         21   -1    0    0  501  502  0.00000000000E+00  0.00000000000E+00  0.43061628173E+03  0.43061628173E+03  0.00000000000E+00 0.  1.
         21   -1    0    0  502  503 -0.00000000000E+00 -0.00000000000E+00 -0.13898543685E+04  0.13898543685E+04  0.00000000000E+00 0.  1.
    9000007    1    1    2  501    0  0.14713828593E+03 -0.65469049110E+02  0.27611040662E+03  0.51202815179E+03  0.40000000000E+03 0.  1.
   -9000007    1    1    2    0  503 -0.14713828593E+03  0.65469049110E+02 -0.12353484934E+04  0.13084424984E+04  0.40000000000E+03 0.  1.
<mgrwt>
<rscale>  2 0.43120282E+03</rscale>
<asrwt>0</asrwt>
<pdfrwt beam="1">  1       21 0.66248659E-01 0.43120282E+03</pdfrwt>
<pdfrwt beam="2">  1       21 0.21382375E+00 0.43120282E+03</pdfrwt>
<totfact> 0.18658250E+02</totfact>
</mgrwt>
</event>
<event>
 4    1  0.5013722E-002  0.4342444E+03  0.7818608E-02  0.1032528E+00
         21   -1    0    0  503  502  0.00000000000E+00  0.00000000000E+00  0.74809742228E+03  0.74809742228E+03  0.00000000000E+00 0. -1.
         21   -1    0    0  501  503 -0.00000000000E+00 -0.00000000000E+00 -0.38876656182E+03  0.38876656182E+03  0.00000000000E+00 0. -1.
    9000007    1    1    2  501    0 -0.89832233362E+02  0.14317239433E+03 -0.15740677933E+03  0.46189290840E+03  0.40000000000E+03 0. -1.
   -9000007    1    1    2    0  502  0.89832233362E+02 -0.14317239433E+03  0.51673763979E+03  0.67497107570E+03  0.40000000000E+03 0. -1.
<mgrwt>
<rscale>  2 0.43424436E+03</rscale>
<asrwt>0</asrwt>
<pdfrwt beam="1">  1       21 0.11509191E+00 0.43424436E+03</pdfrwt>
<pdfrwt beam="2">  1       21 0.59810240E-01 0.43424436E+03</pdfrwt>
<totfact> 0.13117232E+03</totfact>
</mgrwt>
</event>
<event>
 4    1  0.5013722E-002  0.4558020E+03  0.7818608E-02  0.1026006E+00
         21   -1    0    0  501  502  0.00000000000E+00  0.00000000000E+00  0.69428168561E+03  0.69428168561E+03  0.00000000000E+00 0.  1.
         21   -1    0    0  502  503 -0.00000000000E+00 -0.00000000000E+00 -0.30752714675E+03  0.30752714675E+03  0.00000000000E+00 0. -1.
    9000007    1    1    2  501    0  0.13460343124E+03  0.17215510301E+03  0.11114012161E+03  0.46915625310E+03  0.40000000000E+03 0. -1.
   -9000007    1    1    2    0  503 -0.13460343124E+03 -0.17215510301E+03  0.27561441725E+03  0.53265257926E+03  0.40000000000E+03 0. -1.
<mgrwt>
<rscale>  2 0.45580200E+03</rscale>
<asrwt>0</asrwt>
<pdfrwt beam="1">  1       21 0.10681257E+00 0.45580200E+03</pdfrwt>
<pdfrwt beam="2">  1       21 0.47311869E-01 0.45580200E+03</pdfrwt>
<totfact> 0.25906432E+03</totfact>
</mgrwt>
</event>
<event>
 4    1  0.5013722E-002  0.4197512E+03  0.7818608E-02  0.1037147E+00
         21   -1    0    0  503  502  0.00000000000E+00  0.00000000000E+00  0.43344851986E+03  0.43344851986E+03  0.00000000000E+00 0.  1.
         21   -1    0    0  501  503 -0.00000000000E+00 -0.00000000000E+00 -0.41586031337E+03  0.41586031337E+03  0.00000000000E+00 0.  1.
    9000007    1    1    2  501    0 -0.71924759314E+02 -0.10496615301E+03 -0.54961023608E+02  0.42333412147E+03  0.40000000000E+03 0. -1.
   -9000007    1    1    2    0  502  0.71924759314E+02  0.10496615301E+03  0.72549230095E+02  0.42597471177E+03  0.40000000000E+03 0. -1.
<mgrwt>
<rscale>  2 0.41975119E+03</rscale>
<asrwt>0</asrwt>
<pdfrwt beam="1">  1       21 0.66684388E-01 0.41975119E+03</pdfrwt>
<pdfrwt beam="2">  1       21 0.63978509E-01 0.41975119E+03</pdfrwt>
<totfact> 0.41185474E+03</totfact>
</mgrwt>
</event>
<event>
 4    1  0.5013722E-002  0.4477842E+03  0.7818608E-02  0.1028385E+00
         21   -1    0    0  503  502  0.00000000000E+00  0.00000000000E+00  0.12186947322E+03  0.12186947322E+03  0.00000000000E+00 0. -1.
         21   -1    0    0  501  503 -0.00000000000E+00 -0.00000000000E+00 -0.16505323637E+04  0.16505323637E+04  0.00000000000E+00 0. -1.
    9000007    1    1    2  501    0  0.69263896752E+02 -0.18897939480E+03 -0.71439026746E+03  0.84312760202E+03  0.40000000000E+03 0. -1.
   -9000007    1    1    2    0  502 -0.69263896752E+02  0.18897939480E+03 -0.81427262305E+03  0.92927423492E+03  0.40000000000E+03 0. -1.
<mgrwt>
<rscale>  2 0.44778421E+03</rscale>
<asrwt>0</asrwt>
<pdfrwt beam="1">  1       21 0.18749151E-01 0.44778421E+03</pdfrwt>
<pdfrwt beam="2">  1       21 0.25392804E+00 0.44778421E+03</pdfrwt>
<totfact> 0.13556675E+03</totfact>
</mgrwt>
</event>
<event>
 4    1  0.5013722E-002  0.4472655E+03  0.7818608E-02  0.1028541E+00
         21   -1    0    0  503  502  0.00000000000E+00  0.00000000000E+00  0.29692845488E+03  0.29692845488E+03  0.00000000000E+00 0. -1.
         21   -1    0    0  501  503 -0.00000000000E+00 -0.00000000000E+00 -0.67372308252E+03  0.67372308252E+03  0.00000000000E+00 0.  1.
    9000007    1    1    2  501    0  0.84750879743E+01 -0.19993646925E+03 -0.18724126413E+03  0.48487700486E+03  0.40000000000E+03 0. -1.
   -9000007    1    1    2    0  502 -0.84750879743E+01  0.19993646925E+03 -0.18955336351E+03  0.48577453254E+03  0.40000000000E+03 0. -1.
<mgrwt>
<rscale>  2 0.44726549E+03</rscale>
<asrwt>0</asrwt>
<pdfrwt beam="1">  1       21 0.45681301E-01 0.44726549E+03</pdfrwt>
<pdfrwt beam="2">  1       21 0.10364970E+00 0.44726549E+03</pdfrwt>
<totfact> 0.30126595E+03</totfact>
</mgrwt>
</event>
<event>
 4    1  0.5013722E-002  0.8449109E+03  0.7818608E-02  0.9497193E-01
         21   -1    0    0  503  502  0.00000000000E+00  0.00000000000E+00  0.13948942614E+04  0.13948942614E+04  0.00000000000E+00 0.  1.
         21   -1    0    0  501  503 -0.00000000000E+00 -0.00000000000E+00 -0.11604847218E+04  0.11604847218E+04  0.00000000000E+00 0.  1.
    9000007    1    1    2  501    0  0.19299139170E+03  0.71876894930E+03 -0.83807420683E+03  0.11900600220E+04  0.40000000000E+03 0.  1.
   -9000007    1    1    2    0  502 -0.19299139170E+03 -0.71876894930E+03  0.10724837464E+04  0.13653189613E+04  0.40000000000E+03 0.  1.
<mgrwt>
<rscale>  2 0.84491093E+03</rscale>
<asrwt>0</asrwt>
<pdfrwt beam="1">  1       21 0.21459912E+00 0.84491093E+03</pdfrwt>
<pdfrwt beam="2">  1       21 0.17853611E+00 0.84491093E+03</pdfrwt>
<totfact> 0.12519434E+01</totfact>
</mgrwt>
</event>
<event>
 4    1  0.5013722E-002  0.7272160E+03  0.7818608E-02  0.9671789E-01
         21   -1    0    0  503  502  0.00000000000E+00  0.00000000000E+00  0.63587454337E+03  0.63587454337E+03  0.00000000000E+00 0. -1.
         21   -1    0    0  501  503 -0.00000000000E+00 -0.00000000000E+00 -0.84218029296E+03  0.84218029296E+03  0.00000000000E+00 0.  1.
    9000007    1    1    2  501    0 -0.25673447227E+03 -0.55039126325E+03 -0.18567901101E+03  0.75054635236E+03  0.40000000000E+03 0. -1.
   -9000007    1    1    2    0  502  0.25673447227E+03  0.55039126325E+03 -0.20626738582E+02  0.72750848397E+03  0.40000000000E+03 0.  1.
<mgrwt>
<rscale>  2 0.72721601E+03</rscale>
<asrwt>0</asrwt>
<pdfrwt beam="1">  1       21 0.97826853E-01 0.72721601E+03</pdfrwt>
<pdfrwt beam="2">  1       21 0.12956620E+00 0.72721601E+03</pdfrwt>
<totfact> 0.28118702E+02</totfact>
</mgrwt>
</event>
<event>
 4    1  0.5013722E-002  0.4273945E+03  0.7818608E-02  0.1034686E+00
         21   -1    0    0  503  502  0.00000000000E+00  0.00000000000E+00  0.71372535061E+02  0.71372535061E+02  0.00000000000E+00 0. -1.
         21   -1    0    0  501  503 -0.00000000000E+00 -0.00000000000E+00 -0.25648184971E+04  0.25648184971E+04  0.00000000000E+00 0. -1.
    9000007    1    1    2  501    0  0.63905688815E+02  0.13631621215E+03 -0.13076833189E+04  0.13757549597E+04  0.40000000000E+03 0. -1.
   -9000007    1    1    2    0  502 -0.63905688815E+02 -0.13631621215E+03 -0.11857626432E+04  0.12604360724E+04  0.40000000000E+03 0. -1.
<mgrwt>
<rscale>  2 0.42739449E+03</rscale>
<asrwt>0</asrwt>
<pdfrwt beam="1">  1       21 0.10980390E-01 0.42739449E+03</pdfrwt>
<pdfrwt beam="2">  1       21 0.39458747E+00 0.42739449E+03</pdfrwt>
<totfact> 0.50999324E+02</totfact>
</mgrwt>
</event>
<event>
 4    1  0.5013722E-002  0.4649383E+03  0.7818608E-02  0.1023359E+00
         21   -1    0    0  501  502  0.00000000000E+00  0.00000000000E+00  0.50819255929E+03  0.50819255929E+03  0.00000000000E+00 0.  1.
         21   -1    0    0  502  503 -0.00000000000E+00 -0.00000000000E+00 -0.15753769490E+04  0.15753769490E+04  0.00000000000E+00 0. -1.
    9000007    1    1    2  501    0  0.14073113209E+03  0.19068917573E+03  0.35650375450E+03  0.58588611543E+03  0.40000000000E+03 0.  1.
   -9000007    1    1    2    0  503 -0.14073113209E+03 -0.19068917573E+03 -0.14236881442E+04  0.14976833929E+04  0.40000000000E+03 0. -1.
<mgrwt>
<rscale>  2 0.46493829E+03</rscale>
<asrwt>0</asrwt>
<pdfrwt beam="1">  1       21 0.78183470E-01 0.46493829E+03</pdfrwt>
<pdfrwt beam="2">  1       21 0.24236569E+00 0.46493829E+03</pdfrwt>
<totfact> 0.83024549E+01</totfact>
</mgrwt>
</event>
<event>
 4    1  0.5013722E-002  0.6718754E+03  0.7818608E-02  0.9766576E-01
         21   -1    0    0  503  502  0.00000000000E+00  0.00000000000E+00  0.12464827857E+04  0.12464827857E+04  0.00000000000E+00 0.  1.
         21   -1    0    0  501  503 -0.00000000000E+00 -0.00000000000E+00 -0.50651506807E+03  0.50651506807E+03  0.00000000000E+00 0. -1.
    9000007    1    1    2  501    0 -0.50453962083E+03 -0.19197989804E+03 -0.97948330980E+02  0.67897745602E+03  0.40000000000E+03 0.  1.
   -9000007    1    1    2    0  502  0.50453962083E+03  0.19197989804E+03  0.83791604856E+03  0.10740203977E+04  0.40000000000E+03 0. -1.
<mgrwt>
<rscale>  2 0.67187537E+03</rscale>
<asrwt>0</asrwt>
<pdfrwt beam="1">  1       21 0.19176658E+00 0.67187537E+03</pdfrwt>
<pdfrwt beam="2">  1       21 0.77925395E-01 0.67187537E+03</pdfrwt>
<totfact> 0.16273443E+02</totfact>
</mgrwt>
</event>
<event>
 4    1  0.5013722E-002  0.4882958E+03  0.7818608E-02  0.1016880E+00
         21   -1    0    0  503  502  0.00000000000E+00  0.00000000000E+00  0.59048792094E+03  0.59048792094E+03  0.00000000000E+00 0.  1.
         21   -1    0    0  501  503 -0.00000000000E+00 -0.00000000000E+00 -0.45013211341E+03  0.45013211341E+03  0.00000000000E+00 0.  1.
    9000007    1    1    2  501    0 -0.18177207020E+03  0.21305339786E+03 -0.96770527305E+02  0.49779249773E+03  0.40000000000E+03 0.  1.
   -9000007    1    1    2    0  502  0.18177207020E+03 -0.21305339786E+03  0.23712633484E+03  0.54282753662E+03  0.40000000000E+03 0.  1.
<mgrwt>
<rscale>  2 0.48829585E+03</rscale>
<asrwt>0</asrwt>
<pdfrwt beam="1">  1       21 0.90844296E-01 0.48829585E+03</pdfrwt>
<pdfrwt beam="2">  1       21 0.69251094E-01 0.48829585E+03</pdfrwt>
<totfact> 0.16537821E+03</totfact>
</mgrwt>
</event>
<event>
 4    1  0.5013722E-002  0.4731070E+03  0.7818608E-02  0.1021047E+00
         21   -1    0    0  501  502  0.00000000000E+00  0.00000000000E+00  0.79058339372E+03  0.79058339372E+03  0.00000000000E+00 0. -1.
         21   -1    0    0  502  503 -0.00000000000E+00 -0.00000000000E+00 -0.29234932222E+03  0.29234932222E+03  0.00000000000E+00 0.  1.
    9000007    1    1    2  501    0 -0.24208435832E+03 -0.72286790070E+02  0.34532211732E+03  0.58572824865E+03  0.40000000000E+03 0.  1.
   -9000007    1    1    2    0  503  0.24208435832E+03  0.72286790070E+02  0.15291195419E+03  0.49720446729E+03  0.40000000000E+03 0.  1.
<mgrwt>
<rscale>  2 0.47310698E+03</rscale>
<asrwt>0</asrwt>
<pdfrwt beam="1">  1       21 0.12162821E+00 0.47310698E+03</pdfrwt>
<pdfrwt beam="2">  1       21 0.44976819E-01 0.47310698E+03</pdfrwt>
<totfact> 0.20681987E+03</totfact>
</mgrwt>
</event>
<event>
 4    1  0.5013722E-002  0.5734924E+03  0.7818608E-02  0.9961980E-01
         21   -1    0    0  501  502  0.00000000000E+00  0.00000000000E+00  0.26921784253E+04  0.26921784253E+04  0.00000000000E+00 0. -1.
         21   -1    0    0  502  503 -0.00000000000E+00 -0.00000000000E+00 -0.14523398879E+03  0.14523398879E+03  0.00000000000E+00 0. -1.
    9000007    1    1    2  501    0 -0.28692129263E+03  0.29422728369E+03  0.18388779660E+04  0.19262309562E+04  0.40000000000E+03 0. -1.
   -9000007    1    1    2    0  503  0.28692129263E+03 -0.29422728369E+03  0.70806647054E+03  0.91118145796E+03  0.40000000000E+03 0. -1.
<mgrwt>
<rscale>  2 0.57349239E+03</rscale>
<asrwt>0</asrwt>
<pdfrwt beam="1">  1       21 0.41418126E+00 0.57349239E+03</pdfrwt>
<pdfrwt beam="2">  1       21 0.22343693E-01 0.57349239E+03</pdfrwt>
<totfact> 0.92653259E+01</totfact>
</mgrwt>
</event>
<event>
 4    1  0.5013722E-002  0.5926180E+03  0.7818608E-02  0.9920841E-01
         21   -1    0    0  503  502  0.00000000000E+00  0.00000000000E+00  0.12559927202E+04  0.12559927202E+04  0.00000000000E+00 0.  1.
         21   -1    0    0  501  503 -0.00000000000E+00 -0.00000000000E+00 -0.40736368050E+03  0.40736368050E+03  0.00000000000E+00 0. -1.
    9000007    1    1    2  501    0 -0.42071800112E+03  0.11913227648E+03 -0.41421721128E+02  0.59406388103E+03  0.40000000000E+03 0. -1.
   -9000007    1    1    2    0  502  0.42071800112E+03 -0.11913227648E+03  0.89005076081E+03  0.10692925197E+04  0.40000000000E+03 0.  1.
<mgrwt>
<rscale>  2 0.59261804E+03</rscale>
<asrwt>0</asrwt>
<pdfrwt beam="1">  1       21 0.19322965E+00 0.59261804E+03</pdfrwt>
<pdfrwt beam="2">  1       21 0.62671336E-01 0.59261804E+03</pdfrwt>
<totfact> 0.26827339E+02</totfact>
</mgrwt>
</event>
<event>
 4    1  0.5013722E-002  0.5488247E+03  0.7818608E-02  0.1001766E+00
         21   -1    0    0  503  502  0.00000000000E+00  0.00000000000E+00  0.50123283117E+03  0.50123283117E+03  0.00000000000E+00 0. -1.
         21   -1    0    0  501  503 -0.00000000000E+00 -0.00000000000E+00 -0.89201909139E+03  0.89201909139E+03  0.00000000000E+00 0. -1.
    9000007    1    1    2  501    0 -0.85629490748E+02  0.36589093785E+03 -0.59333667439E+03  0.80824315479E+03  0.40000000000E+03 0. -1.
   -9000007    1    1    2    0  502  0.85629490748E+02 -0.36589093785E+03  0.20255041417E+03  0.58500876777E+03  0.40000000000E+03 0. -1.
<mgrwt>
<rscale>  2 0.54882473E+03</rscale>
<asrwt>0</asrwt>
<pdfrwt beam="1">  1       21 0.77112745E-01 0.54882473E+03</pdfrwt>
<pdfrwt beam="2">  1       21 0.13723370E+00 0.54882473E+03</pdfrwt>
<totfact> 0.45028817E+02</totfact>
</mgrwt>
</event>
<event>
 4    1  0.5013722E-002  0.5883044E+03  0.7818608E-02  0.9929972E-01
         21   -1    0    0  501  502  0.00000000000E+00  0.00000000000E+00  0.24154212534E+04  0.24154212534E+04  0.00000000000E+00 0.  1.
         21   -1    0    0  502  503 -0.00000000000E+00 -0.00000000000E+00 -0.20290296088E+03  0.20290296088E+03  0.00000000000E+00 0. -1.
    9000007    1    1    2  501    0  0.34034822738E+03  0.26507576324E+03  0.18158778647E+04  0.19087992288E+04  0.40000000000E+03 0.  1.
   -9000007    1    1    2    0  503 -0.34034822738E+03 -0.26507576324E+03  0.39664042782E+03  0.70952498555E+03  0.40000000000E+03 0. -1.
<mgrwt>
<rscale>  2 0.58830441E+03</rscale>
<asrwt>0</asrwt>
<pdfrwt beam="1">  1       21 0.37160325E+00 0.58830441E+03</pdfrwt>
<pdfrwt beam="2">  1       21 0.31215842E-01 0.58830441E+03</pdfrwt>
<totfact> 0.89329948E+01</totfact>
</mgrwt>
</event>
<event>
 4    1  0.5013722E-002  0.4747677E+03  0.7818608E-02  0.1020583E+00
         21   -1    0    0  503  502  0.00000000000E+00  0.00000000000E+00  0.77874137542E+03  0.77874137542E+03  0.00000000000E+00 0. -1.
         21   -1    0    0  501  503 -0.00000000000E+00 -0.00000000000E+00 -0.46415235162E+03  0.46415235162E+03  0.00000000000E+00 0.  1.
    9000007    1    1    2  501    0  0.13659817136E+03  0.21620659996E+03 -0.22397039077E+03  0.52494484494E+03  0.40000000000E+03 0.  1.
   -9000007    1    1    2    0  502 -0.13659817136E+03 -0.21620659996E+03  0.53855941457E+03  0.71794888210E+03  0.40000000000E+03 0. -1.
<mgrwt>
<rscale>  2 0.47476768E+03</rscale>
<asrwt>0</asrwt>
<pdfrwt beam="1">  1       21 0.11980637E+00 0.47476768E+03</pdfrwt>
<pdfrwt beam="2">  1       21 0.71408054E-01 0.47476768E+03</pdfrwt>
<totfact> 0.78592665E+02</totfact>
</mgrwt>
</event>
<event>
 4    1  0.5013722E-002  0.4373005E+03  0.7818608E-02  0.1031578E+00
         21   -1    0    0  501  502  0.00000000000E+00  0.00000000000E+00  0.11807356865E+04  0.11807356865E+04  0.00000000000E+00 0. -1.
         21   -1    0    0  502  503 -0.00000000000E+00 -0.00000000000E+00 -0.37295518116E+03  0.37295518116E+03  0.00000000000E+00 0.  1.
    9000007    1    1    2  501    0  0.29697154479E+02  0.17421199110E+03  0.98819948569E+03  0.10806340557E+04  0.40000000000E+03 0. -1.
   -9000007    1    1    2    0  503 -0.29697154479E+02 -0.17421199110E+03 -0.18041898039E+03  0.47305681193E+03  0.40000000000E+03 0.  1.
<mgrwt>
<rscale>  2 0.43730051E+03</rscale>
<asrwt>0</asrwt>
<pdfrwt beam="1">  1       21 0.18165164E+00 0.43730051E+03</pdfrwt>
<pdfrwt beam="2">  1       21 0.57377721E-01 0.43730051E+03</pdfrwt>
<totfact> 0.41938801E+02</totfact>
</mgrwt>
</event>
<event>
 4    1  0.5013722E-002  0.4545470E+03  0.7818608E-02  0.1026375E+00
         21   -1    0    0  503  502  0.00000000000E+00  0.00000000000E+00  0.18116691869E+04  0.18116691869E+04  0.00000000000E+00 0.  1.
         21   -1    0    0  501  503 -0.00000000000E+00 -0.00000000000E+00 -0.77040332892E+03  0.77040332892E+03  0.00000000000E+00 0.  1.
    9000007    1    1    2  501    0 -0.21589187174E+03 -0.19253330477E+01 -0.67101961944E+03  0.81048154628E+03  0.40000000000E+03 0.  1.
   -9000007    1    1    2    0  502  0.21589187174E+03  0.19253330477E+01  0.17122854774E+04  0.17715909696E+04  0.40000000000E+03 0.  1.
<mgrwt>
<rscale>  2 0.45454704E+03</rscale>
<asrwt>0</asrwt>
<pdfrwt beam="1">  1       21 0.27871834E+00 0.45454704E+03</pdfrwt>
<pdfrwt beam="2">  1       21 0.11852359E+00 0.45454704E+03</pdfrwt>
<totfact> 0.18408263E+01</totfact>
</mgrwt>
</event>
<event>
 4    1  0.5013722E-002  0.4779737E+03  0.7818608E-02  0.1019694E+00
         21   -1    0    0  501  502  0.00000000000E+00  0.00000000000E+00  0.41936784122E+03  0.41936784122E+03  0.00000000000E+00 0. -1.
         21   -1    0    0  502  503 -0.00000000000E+00 -0.00000000000E+00 -0.83134960708E+03  0.83134960708E+03  0.00000000000E+00 0.  1.
    9000007    1    1    2  501    0 -0.71815490472E+02 -0.25159769403E+03  0.16117328033E+03  0.50441618789E+03  0.40000000000E+03 0. -1.
   -9000007    1    1    2    0  503  0.71815490472E+02  0.25159769403E+03 -0.57315504619E+03  0.74630126041E+03  0.40000000000E+03 0.  1.
<mgrwt>
<rscale>  2 0.47797371E+03</rscale>
<asrwt>0</asrwt>
<pdfrwt beam="1">  1       21 0.64518130E-01 0.47797371E+03</pdfrwt>
<pdfrwt beam="2">  1       21 0.12789994E+00 0.47797371E+03</pdfrwt>
<totfact> 0.83301860E+02</totfact>
</mgrwt>
</event>
<event>
 4    1  0.5013722E-002  0.4283830E+03  0.7818608E-02  0.1034372E+00
         21   -1    0    0  503  502  0.00000000000E+00  0.00000000000E+00  0.22429200518E+03  0.22429200518E+03  0.00000000000E+00 0. -1.
         21   -1    0    0  501  503 -0.00000000000E+00 -0.00000000000E+00 -0.83394593651E+03  0.83394593651E+03  0.00000000000E+00 0.  1.
    9000007    1    1    2  501    0 -0.47778167547E+02  0.14570270678E+03 -0.37757063188E+03  0.57102680683E+03  0.40000000000E+03 0.  1.
   -9000007    1    1    2    0  502  0.47778167547E+02 -0.14570270678E+03 -0.23208329945E+03  0.48721113487E+03  0.40000000000E+03 0. -1.
<mgrwt>
<rscale>  2 0.42838304E+03</rscale>
<asrwt>0</asrwt>
<pdfrwt beam="1">  1       21 0.34506463E-01 0.42838304E+03</pdfrwt>
<pdfrwt beam="2">  1       21 0.12829937E+00 0.42838304E+03</pdfrwt>
<totfact> 0.31613015E+03</totfact>
</mgrwt>
</event>
<event>
 4    1  0.5013722E-002  0.4820490E+03  0.7818608E-02  0.1018574E+00
         21   -1    0    0  503  502  0.00000000000E+00  0.00000000000E+00  0.65560142113E+03  0.65560142113E+03  0.00000000000E+00 0. -1.
         21   -1    0    0  501  503 -0.00000000000E+00 -0.00000000000E+00 -0.36010437599E+03  0.36010437599E+03  0.00000000000E+00 0. -1.
    9000007    1    1    2  501    0  0.25049204402E+03  0.98106803161E+02  0.84052977858E+02  0.48932209436E+03  0.40000000000E+03 0. -1.
   -9000007    1    1    2    0  502 -0.25049204402E+03 -0.98106803161E+02  0.21144406728E+03  0.52638370276E+03  0.40000000000E+03 0. -1.
<mgrwt>
<rscale>  2 0.48204897E+03</rscale>
<asrwt>0</asrwt>
<pdfrwt beam="1">  1       21 0.10086176E+00 0.48204897E+03</pdfrwt>
<pdfrwt beam="2">  1       21 0.55400673E-01 0.48204897E+03</pdfrwt>
<totfact> 0.21088892E+03</totfact>
</mgrwt>
</event>
<event>
 4    1  0.5013722E-002  0.4515132E+03  0.7818608E-02  0.1027272E+00
         21   -1    0    0  501  502  0.00000000000E+00  0.00000000000E+00  0.89791719800E+03  0.89791719800E+03  0.00000000000E+00 0. -1.
         21   -1    0    0  502  503 -0.00000000000E+00 -0.00000000000E+00 -0.26517071948E+03  0.26517071948E+03  0.00000000000E+00 0. -1.
    9000007    1    1    2  501    0 -0.96170856293E+02 -0.18605189460E+03  0.53689466564E+03  0.70151266780E+03  0.40000000000E+03 0. -1.
   -9000007    1    1    2    0  503  0.96170856293E+02  0.18605189460E+03  0.95851812877E+02  0.46157524968E+03  0.40000000000E+03 0. -1.
<mgrwt>
<rscale>  2 0.45151317E+03</rscale>
<asrwt>0</asrwt>
<pdfrwt beam="1">  1       21 0.13814111E+00 0.45151317E+03</pdfrwt>
<pdfrwt beam="2">  1       21 0.40795496E-01 0.45151317E+03</pdfrwt>
<totfact> 0.18355972E+03</totfact>
</mgrwt>
</event>
<event>
 4    1  0.5013722E-002  0.4018451E+03  0.7818608E-02  0.1043143E+00
         21   -1    0    0  501  502  0.00000000000E+00  0.00000000000E+00  0.10630571284E+03  0.10630571284E+03  0.00000000000E+00 0.  1.
         21   -1    0    0  502  503 -0.00000000000E+00 -0.00000000000E+00 -0.18670389784E+04  0.18670389784E+04  0.00000000000E+00 0.  1.
    9000007    1    1    2  501    0  0.14143522705E+02  0.35768948824E+02 -0.45437224991E+03  0.60657530317E+03  0.40000000000E+03 0.  1.
   -9000007    1    1    2    0  503 -0.14143522705E+02 -0.35768948824E+02 -0.13063610156E+04  0.13667693881E+04  0.40000000000E+03 0.  1.
<mgrwt>
<rscale>  2 0.40184507E+03</rscale>
<asrwt>0</asrwt>
<pdfrwt beam="1">  1       21 0.16354727E-01 0.40184507E+03</pdfrwt>
<pdfrwt beam="2">  1       21 0.28723674E+00 0.40184507E+03</pdfrwt>
<totfact> 0.11298747E+03</totfact>
</mgrwt>
</event>
<event>
 4    1  0.5013722E-002  0.4371586E+03  0.7818608E-02  0.1031622E+00
         21   -1    0    0  501  502  0.00000000000E+00  0.00000000000E+00  0.54799212228E+03  0.54799212228E+03  0.00000000000E+00 0. -1.
         21   -1    0    0  502  503 -0.00000000000E+00 -0.00000000000E+00 -0.46216405016E+03  0.46216405016E+03  0.00000000000E+00 0. -1.
    9000007    1    1    2  501    0 -0.80275144093E+02 -0.15704638088E+03  0.29312705675E+03  0.52633747340E+03  0.40000000000E+03 0. -1.
   -9000007    1    1    2    0  503  0.80275144093E+02  0.15704638088E+03 -0.20729898463E+03  0.48381869903E+03  0.40000000000E+03 0. -1.
<mgrwt>
<rscale>  2 0.43715863E+03</rscale>
<asrwt>0</asrwt>
<pdfrwt beam="1">  1       21 0.84306480E-01 0.43715863E+03</pdfrwt>
<pdfrwt beam="2">  1       21 0.71102162E-01 0.43715863E+03</pdfrwt>
<totfact> 0.18938447E+03</totfact>
</mgrwt>
</event>
<event>
 4    1  0.5013722E-002  0.6615648E+03  0.7818608E-02  0.9785317E-01
         21   -1    0    0  503  502  0.00000000000E+00  0.00000000000E+00  0.10205094509E+04  0.10205094509E+04  0.00000000000E+00 0.  1.
         21   -1    0    0  501  503 -0.00000000000E+00 -0.00000000000E+00 -0.82407549336E+03  0.82407549336E+03  0.00000000000E+00 0.  1.
    9000007    1    1    2  501    0 -0.85459236385E+02  0.51996609786E+03  0.73691489713E+03  0.99030883548E+03  0.40000000000E+03 0.  1.
   -9000007    1    1    2    0  502  0.85459236385E+02 -0.51996609786E+03 -0.54048093959E+03  0.85427610880E+03  0.40000000000E+03 0.  1.
<mgrwt>
<rscale>  2 0.66156483E+03</rscale>
<asrwt>0</asrwt>
<pdfrwt beam="1">  1       21 0.15700145E+00 0.66156483E+03</pdfrwt>
<pdfrwt beam="2">  1       21 0.12678085E+00 0.66156483E+03</pdfrwt>
<totfact> 0.88757600E+01</totfact>
</mgrwt>
</event>
<event>
 4    1  0.5013722E-002  0.5303462E+03  0.7818608E-02  0.1006148E+00
         21   -1    0    0  503  502  0.00000000000E+00  0.00000000000E+00  0.31138700137E+04  0.31138700137E+04  0.00000000000E+00 0. -1.
         21   -1    0    0  501  503 -0.00000000000E+00 -0.00000000000E+00 -0.10223989160E+03  0.10223989160E+03  0.00000000000E+00 0. -1.
    9000007    1    1    2  501    0 -0.19209239033E+03  0.29046109794E+03  0.95691183439E+03  0.10940509104E+04  0.40000000000E+03 0. -1.
   -9000007    1    1    2    0  502  0.19209239033E+03 -0.29046109794E+03  0.20547182878E+04  0.21220589949E+04  0.40000000000E+03 0. -1.
<mgrwt>
<rscale>  2 0.53034624E+03</rscale>
<asrwt>0</asrwt>
<pdfrwt beam="1">  1       21 0.47905685E+00 0.53034624E+03</pdfrwt>
<pdfrwt beam="2">  1       21 0.15729217E-01 0.53034624E+03</pdfrwt>
<totfact> 0.67258614E+01</totfact>
</mgrwt>
</event>
<event>
 4    1  0.5013722E-002  0.5284168E+03  0.7818608E-02  0.1006617E+00
         21   -1    0    0  501  502  0.00000000000E+00  0.00000000000E+00  0.24730780197E+03  0.24730780197E+03  0.00000000000E+00 0.  1.
         21   -1    0    0  502  503 -0.00000000000E+00 -0.00000000000E+00 -0.12718923500E+04  0.12718923500E+04  0.00000000000E+00 0. -1.
    9000007    1    1    2  501    0  0.33132190632E+03 -0.97211502541E+02 -0.76684611819E+03  0.93127721480E+03  0.40000000000E+03 0. -1.
   -9000007    1    1    2    0  503 -0.33132190632E+03  0.97211502541E+02 -0.25773842985E+03  0.58792293717E+03  0.40000000000E+03 0.  1.
<mgrwt>
<rscale>  2 0.52841677E+03</rscale>
<asrwt>0</asrwt>
<pdfrwt beam="1">  1       21 0.38047354E-01 0.52841677E+03</pdfrwt>
<pdfrwt beam="2">  1       21 0.19567575E+00 0.52841677E+03</pdfrwt>
<totfact> 0.76721791E+02</totfact>
</mgrwt>
</event>
<event>
 4    1  0.5013722E-002  0.4900384E+03  0.7818608E-02  0.1016412E+00
         21   -1    0    0  503  502  0.00000000000E+00  0.00000000000E+00  0.34739776534E+03  0.34739776534E+03  0.00000000000E+00 0.  1.
         21   -1    0    0  501  503 -0.00000000000E+00 -0.00000000000E+00 -0.81110053375E+03  0.81110053375E+03  0.00000000000E+00 0.  1.
    9000007    1    1    2  501    0  0.70709394712E+02 -0.27411273507E+03 -0.45451730841E+03  0.66837384275E+03  0.40000000000E+03 0. -1.
   -9000007    1    1    2    0  502 -0.70709394712E+02  0.27411273507E+03 -0.91854599970E+01  0.49012445634E+03  0.40000000000E+03 0. -1.
<mgrwt>
<rscale>  2 0.49003838E+03</rscale>
<asrwt>0</asrwt>
<pdfrwt beam="1">  1       21 0.53445811E-01 0.49003838E+03</pdfrwt>
<pdfrwt beam="2">  1       21 0.12478470E+00 0.49003838E+03</pdfrwt>
<totfact> 0.13338897E+03</totfact>
</mgrwt>
</event>
<event>
 4    1  0.5013722E-002  0.4907998E+03  0.7818608E-02  0.1016209E+00
         21   -1    0    0  501  502  0.00000000000E+00  0.00000000000E+00  0.26828999233E+04  0.26828999233E+04  0.00000000000E+00 0.  1.
         21   -1    0    0  502  503 -0.00000000000E+00 -0.00000000000E+00 -0.11412562598E+03  0.11412562598E+03  0.00000000000E+00 0.  1.
    9000007    1    1    2  501    0  0.27900087947E+03  0.55163219902E+02  0.19302491275E+04  0.19916691909E+04  0.40000000000E+03 0.  1.
   -9000007    1    1    2    0  503 -0.27900087947E+03 -0.55163219902E+02  0.63852516983E+03  0.80535635844E+03  0.40000000000E+03 0.  1.
<mgrwt>
<rscale>  2 0.49079983E+03</rscale>
<asrwt>0</asrwt>
<pdfrwt beam="1">  1       21 0.41275379E+00 0.49079983E+03</pdfrwt>
<pdfrwt beam="2">  1       21 0.17557791E-01 0.49079983E+03</pdfrwt>
<totfact> 0.15725580E+02</totfact>
</mgrwt>
</event>
<event>
 4    1  0.5013722E-002  0.6373464E+03  0.7818608E-02  0.9830817E-01
         21   -1    0    0  501  502  0.00000000000E+00  0.00000000000E+00  0.12368377152E+04  0.12368377152E+04  0.00000000000E+00 0. -1.
         21   -1    0    0  502  503 -0.00000000000E+00 -0.00000000000E+00 -0.33683604173E+03  0.33683604173E+03  0.00000000000E+00 0. -1.
    9000007    1    1    2  501    0 -0.48537350406E+03  0.10306797192E+03  0.57432575503E+03  0.85793969378E+03  0.40000000000E+03 0. -1.
   -9000007    1    1    2    0  503  0.48537350406E+03 -0.10306797192E+03  0.32567591840E+03  0.71573406312E+03  0.40000000000E+03 0. -1.
<mgrwt>
<rscale>  2 0.63734641E+03</rscale>
<asrwt>0</asrwt>
<pdfrwt beam="1">  1       21 0.19028272E+00 0.63734641E+03</pdfrwt>
<pdfrwt beam="2">  1       21 0.51820930E-01 0.63734641E+03</pdfrwt>
<totfact> 0.41934885E+02</totfact>
</mgrwt>
</event>
<event>
 4    1  0.5013722E-002  0.6209682E+03  0.7818608E-02  0.9862834E-01
         21   -1    0    0  501  502  0.00000000000E+00  0.00000000000E+00  0.75906546699E+03  0.75906546699E+03  0.00000000000E+00 0.  1.
         21   -1    0    0  502  503 -0.00000000000E+00 -0.00000000000E+00 -0.14601157219E+04  0.14601157219E+04  0.00000000000E+00 0. -1.
    9000007    1    1    2  501    0  0.45781074586E+03 -0.12653375729E+03  0.54548957110E+03  0.82653514319E+03  0.40000000000E+03 0.  1.
   -9000007    1    1    2    0  503 -0.45781074586E+03  0.12653375729E+03 -0.12465398260E+04  0.13926460457E+04  0.40000000000E+03 0. -1.
<mgrwt>
<rscale>  2 0.62096817E+03</rscale>
<asrwt>0</asrwt>
<pdfrwt beam="1">  1       21 0.11677930E+00 0.62096817E+03</pdfrwt>
<pdfrwt beam="2">  1       21 0.22463319E+00 0.62096817E+03</pdfrwt>
<totfact> 0.37618669E+01</totfact>
</mgrwt>
</event>
<event>
 4    1  0.5013722E-002  0.4679700E+03  0.7818608E-02  0.1022495E+00
         21   -1    0    0  501  502  0.00000000000E+00  0.00000000000E+00  0.61035154283E+03  0.61035154283E+03  0.00000000000E+00 0.  1.
         21   -1    0    0  502  503 -0.00000000000E+00 -0.00000000000E+00 -0.40298303286E+03  0.40298303286E+03  0.00000000000E+00 0.  1.
    9000007    1    1    2  501    0  0.23192817395E+03  0.72147149990E+02  0.27144606780E+03  0.54099801926E+03  0.40000000000E+03 0.  1.
   -9000007    1    1    2    0  503 -0.23192817395E+03 -0.72147149990E+02 -0.64077557836E+02  0.47233655643E+03  0.40000000000E+03 0.  1.
<mgrwt>
<rscale>  2 0.46796997E+03</rscale>
<asrwt>0</asrwt>
<pdfrwt beam="1">  1       21 0.93900237E-01 0.46796997E+03</pdfrwt>
<pdfrwt beam="2">  1       21 0.61997390E-01 0.46796997E+03</pdfrwt>
<totfact> 0.19700335E+03</totfact>
</mgrwt>
</event>
<event>
 4    1  0.5013722E-002  0.4838541E+03  0.7818608E-02  0.1018081E+00
         21   -1    0    0  501  502  0.00000000000E+00  0.00000000000E+00  0.22922515568E+03  0.22922515568E+03  0.00000000000E+00 0. -1.
         21   -1    0    0  502  503 -0.00000000000E+00 -0.00000000000E+00 -0.11088517474E+04  0.11088517474E+04  0.00000000000E+00 0.  1.
    9000007    1    1    2  501    0 -0.25870521782E+03 -0.84772678851E+02 -0.25185157212E+03  0.54547594923E+03  0.40000000000E+03 0. -1.
   -9000007    1    1    2    0  503  0.25870521782E+03  0.84772678851E+02 -0.62777501956E+03  0.79260095382E+03  0.40000000000E+03 0.  1.
<mgrwt>
<rscale>  2 0.48385411E+03</rscale>
<asrwt>0</asrwt>
<pdfrwt beam="1">  1       21 0.35265409E-01 0.48385411E+03</pdfrwt>
<pdfrwt beam="2">  1       21 0.17059258E+00 0.48385411E+03</pdfrwt>
<totfact> 0.13672939E+03</totfact>
</mgrwt>
</event>
<event>
 4    1  0.5013722E-002  0.4477950E+03  0.7818608E-02  0.1028382E+00
         21   -1    0    0  501  502  0.00000000000E+00  0.00000000000E+00  0.49869887518E+03  0.49869887518E+03  0.00000000000E+00 0.  1.
         21   -1    0    0  502  503 -0.00000000000E+00 -0.00000000000E+00 -0.61586123660E+03  0.61586123660E+03  0.00000000000E+00 0.  1.
    9000007    1    1    2  501    0  0.15998628400E+03 -0.12216673082E+03  0.26974822101E+03  0.52276612737E+03  0.40000000000E+03 0.  1.
   -9000007    1    1    2    0  503 -0.15998628400E+03  0.12216673082E+03 -0.38691058243E+03  0.59179398441E+03  0.40000000000E+03 0.  1.
<mgrwt>
<rscale>  2 0.44779495E+03</rscale>
<asrwt>0</asrwt>
<pdfrwt beam="1">  1       21 0.76722904E-01 0.44779495E+03</pdfrwt>
<pdfrwt beam="2">  1       21 0.94747883E-01 0.44779495E+03</pdfrwt>
<totfact> 0.12036471E+03</totfact>
</mgrwt>
</event>
<event>
 4    1  0.5013722E-002  0.5231977E+03  0.7818608E-02  0.1007895E+00
         21   -1    0    0  503  502  0.00000000000E+00  0.00000000000E+00  0.67589272419E+03  0.67589272419E+03  0.00000000000E+00 0. -1.
         21   -1    0    0  501  503 -0.00000000000E+00 -0.00000000000E+00 -0.50102688061E+03  0.50102688061E+03  0.00000000000E+00 0.  1.
    9000007    1    1    2  501    0 -0.59832447575E+01  0.33719428808E+03 -0.17019045126E+03  0.55018231236E+03  0.40000000000E+03 0.  1.
   -9000007    1    1    2    0  502  0.59832447575E+01 -0.33719428808E+03  0.34505629483E+03  0.62673729244E+03  0.40000000000E+03 0. -1.
<mgrwt>
<rscale>  2 0.52319766E+03</rscale>
<asrwt>0</asrwt>
<pdfrwt beam="1">  1       21 0.10398350E+00 0.52319766E+03</pdfrwt>
<pdfrwt beam="2">  1       21 0.77081059E-01 0.52319766E+03</pdfrwt>
<totfact> 0.92315462E+02</totfact>
</mgrwt>
</event>
<event>
 4    1  0.5013722E-002  0.5693777E+03  0.7818608E-02  0.9971057E-01
         21   -1    0    0  503  502  0.00000000000E+00  0.00000000000E+00  0.29402621281E+03  0.29402621281E+03  0.00000000000E+00 0. -1.
         21   -1    0    0  501  503 -0.00000000000E+00 -0.00000000000E+00 -0.19521248812E+04  0.19521248812E+04  0.00000000000E+00 0.  1.
    9000007    1    1    2  501    0  0.31343365247E+03 -0.25680781594E+03 -0.15699249568E+04  0.16699866104E+04  0.40000000000E+03 0.  1.
   -9000007    1    1    2    0  502 -0.31343365247E+03  0.25680781594E+03 -0.88173711620E+02  0.57616448368E+03  0.40000000000E+03 0. -1.
<mgrwt>
<rscale>  2 0.56937765E+03</rscale>
<asrwt>0</asrwt>
<pdfrwt beam="1">  1       21 0.45234801E-01 0.56937765E+03</pdfrwt>
<pdfrwt beam="2">  1       21 0.30032691E+00 0.56937765E+03</pdfrwt>
<totfact> 0.11568815E+02</totfact>
</mgrwt>
</event>
<event>
 4    1  0.5013722E-002  0.4061638E+03  0.7818608E-02  0.1041666E+00
         21   -1    0    0  501  502  0.00000000000E+00  0.00000000000E+00  0.71785166263E+03  0.71785166263E+03  0.00000000000E+00 0. -1.
         21   -1    0    0  502  503 -0.00000000000E+00 -0.00000000000E+00 -0.24396682141E+03  0.24396682141E+03  0.00000000000E+00 0. -1.
    9000007    1    1    2  501    0  0.62640678989E+02  0.32329104902E+02  0.35279095655E+03  0.53798743918E+03  0.40000000000E+03 0. -1.
   -9000007    1    1    2    0  503 -0.62640678989E+02 -0.32329104902E+02  0.12109388468E+03  0.42383104487E+03  0.40000000000E+03 0. -1.
<mgrwt>
<rscale>  2 0.40616379E+03</rscale>
<asrwt>0</asrwt>
<pdfrwt beam="1">  1       21 0.11043872E+00 0.40616379E+03</pdfrwt>
<pdfrwt beam="2">  1       21 0.37533357E-01 0.40616379E+03</pdfrwt>
<totfact> 0.39273614E+03</totfact>
</mgrwt>
</event>
<event>
 4    1  0.5013722E-002  0.4558786E+03  0.7818608E-02  0.1025983E+00
         21   -1    0    0  503  502  0.00000000000E+00  0.00000000000E+00  0.79071860007E+03  0.79071860007E+03  0.00000000000E+00 0.  1.
         21   -1    0    0  501  503 -0.00000000000E+00 -0.00000000000E+00 -0.76625409486E+03  0.76625409486E+03  0.00000000000E+00 0. -1.
    9000007    1    1    2  501    0 -0.11634940359E+03  0.18517046916E+03 -0.61877042829E+03  0.76857148613E+03  0.40000000000E+03 0. -1.
   -9000007    1    1    2    0  502  0.11634940359E+03 -0.18517046916E+03  0.64323493350E+03  0.78840120880E+03  0.40000000000E+03 0.  1.
<mgrwt>
<rscale>  2 0.45587859E+03</rscale>
<asrwt>0</asrwt>
<pdfrwt beam="1">  1       21 0.12164902E+00 0.45587859E+03</pdfrwt>
<pdfrwt beam="2">  1       21 0.11788524E+00 0.45587859E+03</pdfrwt>
<totfact> 0.23055687E+02</totfact>
</mgrwt>
</event>
<event>
 4    1  0.5013722E-002  0.5327508E+03  0.7818608E-02  0.1005567E+00
         21   -1    0    0  503  502  0.00000000000E+00  0.00000000000E+00  0.39589482440E+03  0.39589482440E+03  0.00000000000E+00 0. -1.
         21   -1    0    0  501  503 -0.00000000000E+00 -0.00000000000E+00 -0.74863311916E+03  0.74863311916E+03  0.00000000000E+00 0.  1.
    9000007    1    1    2  501    0 -0.26091155428E+03 -0.23611145152E+03 -0.29415866156E+03  0.60856616309E+03  0.40000000000E+03 0.  1.
   -9000007    1    1    2    0  502  0.26091155428E+03  0.23611145152E+03 -0.58579633207E+02  0.53596178046E+03  0.40000000000E+03 0. -1.
<mgrwt>
<rscale>  2 0.53275084E+03</rscale>
<asrwt>0</asrwt>
<pdfrwt beam="1">  1       21 0.60906896E-01 0.53275084E+03</pdfrwt>
<pdfrwt beam="2">  1       21 0.11517433E+00 0.53275084E+03</pdfrwt>
<totfact> 0.12124335E+03</totfact>
</mgrwt>
</event>
<event>
 4    1  0.5013722E-002  0.4672557E+03  0.7818608E-02  0.1022698E+00
         21   -1    0    0  501  502  0.00000000000E+00  0.00000000000E+00  0.19470896117E+03  0.19470896117E+03  0.00000000000E+00 0.  1.
         21   -1    0    0  502  503 -0.00000000000E+00 -0.00000000000E+00 -0.11759947684E+04  0.11759947684E+04  0.00000000000E+00 0.  1.
    9000007    1    1    2  501    0 -0.98574806825E+02 -0.22047880760E+03 -0.34284484513E+03  0.57954334176E+03  0.40000000000E+03 0.  1.
   -9000007    1    1    2    0  503  0.98574806825E+02  0.22047880760E+03 -0.63844096209E+03  0.79116038780E+03  0.40000000000E+03 0.  1.
<mgrwt>
<rscale>  2 0.46725571E+03</rscale>
<asrwt>0</asrwt>
<pdfrwt beam="1">  1       21 0.29955226E-01 0.46725571E+03</pdfrwt>
<pdfrwt beam="2">  1       21 0.18092227E+00 0.46725571E+03</pdfrwt>
<totfact> 0.16111625E+03</totfact>
</mgrwt>
</event>
<event>
 4    1  0.5013722E-002  0.4933384E+03  0.7818608E-02  0.1015532E+00
         21   -1    0    0  501  502  0.00000000000E+00  0.00000000000E+00  0.41209510666E+03  0.41209510666E+03  0.00000000000E+00 0. -1.
         21   -1    0    0  502  503 -0.00000000000E+00 -0.00000000000E+00 -0.69176471739E+03  0.69176471739E+03  0.00000000000E+00 0. -1.
    9000007    1    1    2  501    0  0.25652559555E+03  0.13257977649E+03  0.71233170767E+02  0.49845455452E+03  0.40000000000E+03 0. -1.
   -9000007    1    1    2    0  503 -0.25652559555E+03 -0.13257977649E+03 -0.35090278150E+03  0.60540526953E+03  0.40000000000E+03 0. -1.
<mgrwt>
<rscale>  2 0.49333840E+03</rscale>
<asrwt>0</asrwt>
<pdfrwt beam="1">  1       21 0.63399249E-01 0.49333840E+03</pdfrwt>
<pdfrwt beam="2">  1       21 0.10642534E+00 0.49333840E+03</pdfrwt>
<totfact> 0.13696410E+03</totfact>
</mgrwt>
</event>
<event>
 4    1  0.5013722E-002  0.4808925E+03  0.7818608E-02  0.1018890E+00
         21   -1    0    0  503  502  0.00000000000E+00  0.00000000000E+00  0.12419666628E+03  0.12419666628E+03  0.00000000000E+00 0.  1.
         21   -1    0    0  501  503 -0.00000000000E+00 -0.00000000000E+00 -0.18923980210E+04  0.18923980210E+04  0.00000000000E+00 0. -1.
    9000007    1    1    2  501    0  0.23342443112E+03 -0.12950147537E+03 -0.10118354462E+04  0.11202984278E+04  0.40000000000E+03 0.  1.
   -9000007    1    1    2    0  502 -0.23342443112E+03  0.12950147537E+03 -0.75636590853E+03  0.89629625948E+03  0.40000000000E+03 0.  1.
<mgrwt>
<rscale>  2 0.48089250E+03</rscale>
<asrwt>0</asrwt>
<pdfrwt beam="1">  1       21 0.19107181E-01 0.48089250E+03</pdfrwt>
<pdfrwt beam="2">  1       21 0.29113813E+00 0.48089250E+03</pdfrwt>
<totfact> 0.76527076E+02</totfact>
</mgrwt>
</event>
<event>
 4    1  0.5013722E-002  0.6931534E+03  0.7818608E-02  0.9729013E-01
         21   -1    0    0  503  502  0.00000000000E+00  0.00000000000E+00  0.22812734707E+04  0.22812734707E+04  0.00000000000E+00 0.  1.
         21   -1    0    0  501  503 -0.00000000000E+00 -0.00000000000E+00 -0.39980383039E+03  0.39980383039E+03  0.00000000000E+00 0. -1.
    9000007    1    1    2  501    0 -0.56580646547E+03 -0.18018654016E+02  0.18571103959E+02  0.69340213020E+03  0.40000000000E+03 0. -1.
   -9000007    1    1    2    0  502  0.56580646547E+03  0.18018654016E+02  0.18628985364E+04  0.19876751709E+04  0.40000000000E+03 0.  1.
<mgrwt>
<rscale>  2 0.69315339E+03</rscale>
<asrwt>0</asrwt>
<pdfrwt beam="1">  1       21 0.35096514E+00 0.69315339E+03</pdfrwt>
<pdfrwt beam="2">  1       21 0.61508283E-01 0.69315339E+03</pdfrwt>
<totfact> 0.27431646E+01</totfact>
</mgrwt>
</event>
<event>
 4    1  0.5013722E-002  0.4796706E+03  0.7818608E-02  0.1019226E+00
         21   -1    0    0  501  502  0.00000000000E+00  0.00000000000E+00  0.19375857265E+04  0.19375857265E+04  0.00000000000E+00 0. -1.
         21   -1    0    0  502  503 -0.00000000000E+00 -0.00000000000E+00 -0.12305618935E+03  0.12305618935E+03  0.00000000000E+00 0. -1.
    9000007    1    1    2  501    0  0.10695406255E+02  0.26451753445E+03  0.11000534423E+04  0.12000839528E+04  0.40000000000E+03 0. -1.
   -9000007    1    1    2    0  503 -0.10695406255E+02 -0.26451753445E+03  0.71447609483E+03  0.86055796309E+03  0.40000000000E+03 0. -1.
<mgrwt>
<rscale>  2 0.47967063E+03</rscale>
<asrwt>0</asrwt>
<pdfrwt beam="1">  1       21 0.29809009E+00 0.47967063E+03</pdfrwt>
<pdfrwt beam="2">  1       21 0.18931723E-01 0.47967063E+03</pdfrwt>
<totfact> 0.70756712E+02</totfact>
</mgrwt>
</event>
<event>
 4    1  0.5013722E-002  0.4148263E+03  0.7818608E-02  0.1038763E+00
         21   -1    0    0  501  502  0.00000000000E+00  0.00000000000E+00  0.47235785401E+03  0.47235785401E+03  0.00000000000E+00 0.  1.
         21   -1    0    0  502  503 -0.00000000000E+00 -0.00000000000E+00 -0.96377881063E+03  0.96377881063E+03  0.00000000000E+00 0.  1.
    9000007    1    1    2  501    0  0.41468812024E+02 -0.10179007825E+03  0.32061135243E+03  0.52428286422E+03  0.40000000000E+03 0.  1.
   -9000007    1    1    2    0  503 -0.41468812024E+02  0.10179007825E+03 -0.81203230905E+03  0.91185380042E+03  0.40000000000E+03 0.  1.
<mgrwt>
<rscale>  2 0.41482633E+03</rscale>
<asrwt>0</asrwt>
<pdfrwt beam="1">  1       21 0.72670440E-01 0.41482633E+03</pdfrwt>
<pdfrwt beam="2">  1       21 0.14827366E+00 0.41482633E+03</pdfrwt>
<totfact> 0.44419532E+02</totfact>
</mgrwt>
</event>
<event>
 4    1  0.5013722E-002  0.4117311E+03  0.7818608E-02  0.1039792E+00
         21   -1    0    0  501  502  0.00000000000E+00  0.00000000000E+00  0.37672438403E+03  0.37672438403E+03  0.00000000000E+00 0.  1.
         21   -1    0    0  502  503 -0.00000000000E+00 -0.00000000000E+00 -0.60091245484E+03  0.60091245484E+03  0.00000000000E+00 0.  1.
    9000007    1    1    2  501    0 -0.83354138600E+02 -0.50740023751E+02  0.13287878876E+03  0.43264215575E+03  0.40000000000E+03 0.  1.
   -9000007    1    1    2    0  503  0.83354138600E+02  0.50740023751E+02 -0.35706685956E+03  0.54499468312E+03  0.40000000000E+03 0.  1.
<mgrwt>
<rscale>  2 0.41173106E+03</rscale>
<asrwt>0</asrwt>
<pdfrwt beam="1">  1       21 0.57957599E-01 0.41173106E+03</pdfrwt>
<pdfrwt beam="2">  1       21 0.92448068E-01 0.41173106E+03</pdfrwt>
<totfact> 0.24210751E+03</totfact>
</mgrwt>
</event>
<event>
 4    1  0.5013722E-002  0.4482751E+03  0.7818608E-02  0.1028238E+00
         21   -1    0    0  501  502  0.00000000000E+00  0.00000000000E+00  0.12241337985E+03  0.12241337985E+03  0.00000000000E+00 0. -1.
         21   -1    0    0  502  503 -0.00000000000E+00 -0.00000000000E+00 -0.18227137156E+04  0.18227137156E+04  0.00000000000E+00 0.  1.
    9000007    1    1    2  501    0  0.19096895885E+03 -0.66943111674E+02 -0.54355411509E+03  0.70455773325E+03  0.40000000000E+03 0. -1.
   -9000007    1    1    2    0  503 -0.19096895885E+03  0.66943111674E+02 -0.11567462206E+04  0.12405693622E+04  0.40000000000E+03 0.  1.
<mgrwt>
<rscale>  2 0.44827505E+03</rscale>
<asrwt>0</asrwt>
<pdfrwt beam="1">  1       21 0.18832829E-01 0.44827505E+03</pdfrwt>
<pdfrwt beam="2">  1       21 0.28041748E+00 0.44827505E+03</pdfrwt>
<totfact> 0.92841172E+02</totfact>
</mgrwt>
</event>
<event>
 4    1  0.5013722E-002  0.4347447E+03  0.7818608E-02  0.1032372E+00
         21   -1    0    0  501  502  0.00000000000E+00  0.00000000000E+00  0.16980900597E+04  0.16980900597E+04  0.00000000000E+00 0. -1.
         21   -1    0    0  502  503 -0.00000000000E+00 -0.00000000000E+00 -0.60434181406E+03  0.60434181406E+03  0.00000000000E+00 0.  1.
    9000007    1    1    2  501    0 -0.13917253970E+03  0.98152654540E+02  0.15866887369E+04  0.16451699266E+04  0.40000000000E+03 0. -1.
   -9000007    1    1    2    0  503  0.13917253970E+03 -0.98152654540E+02 -0.49294049123E+03  0.65726194724E+03  0.40000000000E+03 0.  1.
<mgrwt>
<rscale>  2 0.43474468E+03</rscale>
<asrwt>0</asrwt>
<pdfrwt beam="1">  1       21 0.26124462E+00 0.43474468E+03</pdfrwt>
<pdfrwt beam="2">  1       21 0.92975665E-01 0.43474468E+03</pdfrwt>
<totfact> 0.43207915E+01</totfact>
</mgrwt>
</event>
<event>
 4    1  0.5013722E-002  0.5168838E+03  0.7818608E-02  0.1009464E+00
         21   -1    0    0  501  502  0.00000000000E+00  0.00000000000E+00  0.14228546479E+04  0.14228546479E+04  0.00000000000E+00 0. -1.
         21   -1    0    0  502  503 -0.00000000000E+00 -0.00000000000E+00 -0.34289923788E+03  0.34289923788E+03  0.00000000000E+00 0. -1.
    9000007    1    1    2  501    0  0.14905846441E+03 -0.29146249905E+03  0.11338107181E+04  0.12460720519E+04  0.40000000000E+03 0. -1.
   -9000007    1    1    2    0  503 -0.14905846441E+03  0.29146249905E+03 -0.53855308116E+02  0.51968183379E+03  0.40000000000E+03 0. -1.
<mgrwt>
<rscale>  2 0.51688375E+03</rscale>
<asrwt>0</asrwt>
<pdfrwt beam="1">  1       21 0.21890071E+00 0.51688375E+03</pdfrwt>
<pdfrwt beam="2">  1       21 0.52753730E-01 0.51688375E+03</pdfrwt>
<totfact> 0.27255488E+02</totfact>
</mgrwt>
</event>
<event>
 4    1  0.5013722E-002  0.4112619E+03  0.7818608E-02  0.1039948E+00
         21   -1    0    0  501  502  0.00000000000E+00  0.00000000000E+00  0.29924068979E+04  0.29924068979E+04  0.00000000000E+00 0. -1.
         21   -1    0    0  502  503 -0.00000000000E+00 -0.00000000000E+00 -0.20594679361E+03  0.20594679361E+03  0.00000000000E+00 0. -1.
    9000007    1    1    2  501    0  0.84590431282E+02 -0.44506483403E+02  0.27553975977E+04  0.27859203667E+04  0.40000000000E+03 0. -1.
   -9000007    1    1    2    0  503 -0.84590431282E+02  0.44506483403E+02  0.31062506617E+02  0.41243332485E+03  0.40000000000E+03 0. -1.
<mgrwt>
<rscale>  2 0.41126192E+03</rscale>
<asrwt>0</asrwt>
<pdfrwt beam="1">  1       21 0.46037026E+00 0.41126192E+03</pdfrwt>
<pdfrwt beam="2">  1       21 0.31684124E-01 0.41126192E+03</pdfrwt>
<totfact> 0.25575323E+01</totfact>
</mgrwt>
</event>
<event>
 4    1  0.5013722E-002  0.4502247E+03  0.7818608E-02  0.1027655E+00
         21   -1    0    0  501  502  0.00000000000E+00  0.00000000000E+00  0.26923614017E+03  0.26923614017E+03  0.00000000000E+00 0. -1.
         21   -1    0    0  502  503 -0.00000000000E+00 -0.00000000000E+00 -0.85794625148E+03  0.85794625148E+03  0.00000000000E+00 0. -1.
    9000007    1    1    2  501    0 -0.20659162836E+03  0.47093882722E+01 -0.49158257536E+03  0.66660011074E+03  0.40000000000E+03 0. -1.
   -9000007    1    1    2    0  503  0.20659162836E+03 -0.47093882722E+01 -0.97127535955E+02  0.46058228091E+03  0.40000000000E+03 0. -1.
<mgrwt>
<rscale>  2 0.45022470E+03</rscale>
<asrwt>0</asrwt>
<pdfrwt beam="1">  1       21 0.41420945E-01 0.45022470E+03</pdfrwt>
<pdfrwt beam="2">  1       21 0.13199173E+00 0.45022470E+03</pdfrwt>
<totfact> 0.20053304E+03</totfact>
</mgrwt>
</event>
<event>
 4    1  0.5013722E-002  0.6826996E+03  0.7818608E-02  0.9747284E-01
         21   -1    0    0  503  502  0.00000000000E+00  0.00000000000E+00  0.47129910968E+03  0.47129910968E+03  0.00000000000E+00 0. -1.
         21   -1    0    0  501  503 -0.00000000000E+00 -0.00000000000E+00 -0.12885109553E+04  0.12885109553E+04  0.00000000000E+00 0. -1.
    9000007    1    1    2  501    0  0.42316541957E+03 -0.35638425604E+03 -0.83288697802E+03  0.10769305588E+04  0.40000000000E+03 0. -1.
   -9000007    1    1    2    0  502 -0.42316541957E+03  0.35638425604E+03  0.15675132357E+02  0.68287950624E+03  0.40000000000E+03 0. -1.
<mgrwt>
<rscale>  2 0.68269958E+03</rscale>
<asrwt>0</asrwt>
<pdfrwt beam="1">  1       21 0.72507556E-01 0.68269958E+03</pdfrwt>
<pdfrwt beam="2">  1       21 0.19823245E+00 0.68269958E+03</pdfrwt>
<totfact> 0.17279054E+02</totfact>
</mgrwt>
</event>
<event>
 4    1  0.5013722E-002  0.4627627E+03  0.7818608E-02  0.1023983E+00
         21   -1    0    0  501  502  0.00000000000E+00  0.00000000000E+00  0.46231882647E+03  0.46231882647E+03  0.00000000000E+00 0. -1.
         21   -1    0    0  502  503 -0.00000000000E+00 -0.00000000000E+00 -0.88620971730E+03  0.88620971730E+03  0.00000000000E+00 0. -1.
    9000007    1    1    2  501    0 -0.21801264080E+02 -0.23167661494E+03  0.25389097139E+03  0.52783517729E+03  0.40000000000E+03 0. -1.
   -9000007    1    1    2    0  503  0.21801264080E+02  0.23167661494E+03 -0.67778186222E+03  0.82069336648E+03  0.40000000000E+03 0. -1.
<mgrwt>
<rscale>  2 0.46276274E+03</rscale>
<asrwt>0</asrwt>
<pdfrwt beam="1">  1       21 0.71125974E-01 0.46276274E+03</pdfrwt>
<pdfrwt beam="2">  1       21 0.13633996E+00 0.46276274E+03</pdfrwt>
<totfact> 0.57040531E+02</totfact>
</mgrwt>
</event>
<event>
 4    1  0.5013722E-002  0.6231071E+03  0.7818608E-02  0.9858593E-01
         21   -1    0    0  501  502  0.00000000000E+00  0.00000000000E+00  0.17127962844E+04  0.17127962844E+04  0.00000000000E+00 0. -1.
         21   -1    0    0  502  503 -0.00000000000E+00 -0.00000000000E+00 -0.27905648917E+03  0.27905648917E+03  0.00000000000E+00 0.  1.
    9000007    1    1    2  501    0 -0.26210133487E+03 -0.39945628064E+03  0.28541499764E+03  0.68536424678E+03  0.40000000000E+03 0.  1.
   -9000007    1    1    2    0  503  0.26210133487E+03  0.39945628064E+03  0.11483247976E+04  0.13064885268E+04  0.40000000000E+03 0. -1.
<mgrwt>
<rscale>  2 0.62310708E+03</rscale>
<asrwt>0</asrwt>
<pdfrwt beam="1">  1       21 0.26350711E+00 0.62310708E+03</pdfrwt>
<pdfrwt beam="2">  1       21 0.42931769E-01 0.62310708E+03</pdfrwt>
<totfact> 0.21156937E+02</totfact>
</mgrwt>
</event>
<event>
 4    1  0.5013722E-002  0.4578869E+03  0.7818608E-02  0.1025396E+00
         21   -1    0    0  501  502  0.00000000000E+00  0.00000000000E+00  0.15226892154E+04  0.15226892154E+04  0.00000000000E+00 0.  1.
         21   -1    0    0  502  503 -0.00000000000E+00 -0.00000000000E+00 -0.19015924284E+03  0.19015924284E+03  0.00000000000E+00 0.  1.
    9000007    1    1    2  501    0 -0.97053019962E+02 -0.20060196099E+03  0.11161265981E+04  0.12063991953E+04  0.40000000000E+03 0.  1.
   -9000007    1    1    2    0  503  0.97053019962E+02  0.20060196099E+03  0.21640337441E+03  0.50644926290E+03  0.40000000000E+03 0.  1.
<mgrwt>
<rscale>  2 0.45788692E+03</rscale>
<asrwt>0</asrwt>
<pdfrwt beam="1">  1       21 0.23425987E+00 0.45788692E+03</pdfrwt>
<pdfrwt beam="2">  1       21 0.29255269E-01 0.45788692E+03</pdfrwt>
<totfact> 0.75483106E+02</totfact>
</mgrwt>
</event>
<event>
 4    1  0.5013722E-002  0.4105620E+03  0.7818608E-02  0.1040183E+00
         21   -1    0    0  501  502  0.00000000000E+00  0.00000000000E+00  0.37313362423E+03  0.37313362423E+03  0.00000000000E+00 0. -1.
         21   -1    0    0  502  503 -0.00000000000E+00 -0.00000000000E+00 -0.55035863618E+03  0.55035863618E+03  0.00000000000E+00 0. -1.
    9000007    1    1    2  501    0  0.92052415897E+02 -0.93556784686E+01  0.10684362118E+03  0.42423665021E+03  0.40000000000E+03 0.  1.
   -9000007    1    1    2    0  503 -0.92052415897E+02  0.93556784686E+01 -0.28406863313E+03  0.49925561020E+03  0.40000000000E+03 0.  1.
<mgrwt>
<rscale>  2 0.41056202E+03</rscale>
<asrwt>0</asrwt>
<pdfrwt beam="1">  1       21 0.57405173E-01 0.41056202E+03</pdfrwt>
<pdfrwt beam="2">  1       21 0.84670559E-01 0.41056202E+03</pdfrwt>
<totfact> 0.30416610E+03</totfact>
</mgrwt>
</event>
<event>
 4    1  0.5013722E-002  0.4901879E+03  0.7818608E-02  0.1016372E+00
         21   -1    0    0  503  502  0.00000000000E+00  0.00000000000E+00  0.13288851830E+04  0.13288851830E+04  0.00000000000E+00 0.  1.
         21   -1    0    0  501  503 -0.00000000000E+00 -0.00000000000E+00 -0.39048268365E+03  0.39048268365E+03  0.00000000000E+00 0. -1.
    9000007    1    1    2  501    0  0.22818020348E+03  0.16798213607E+03 -0.16074318550E+03  0.51587069599E+03  0.40000000000E+03 0. -1.
   -9000007    1    1    2    0  502 -0.22818020348E+03 -0.16798213607E+03  0.10991456849E+04  0.12034971707E+04  0.40000000000E+03 0.  1.
<mgrwt>
<rscale>  2 0.49018793E+03</rscale>
<asrwt>0</asrwt>
<pdfrwt beam="1">  1       21 0.20444387E+00 0.49018793E+03</pdfrwt>
<pdfrwt beam="2">  1       21 0.60074260E-01 0.49018793E+03</pdfrwt>
<totfact> 0.25859818E+02</totfact>
</mgrwt>
</event>
<event>
 4    1  0.5013722E-002  0.4556758E+03  0.7818608E-02  0.1026043E+00
         21   -1    0    0  503  502  0.00000000000E+00  0.00000000000E+00  0.12369594925E+04  0.12369594925E+04  0.00000000000E+00 0. -1.
         21   -1    0    0  501  503 -0.00000000000E+00 -0.00000000000E+00 -0.25997744404E+03  0.25997744404E+03  0.00000000000E+00 0. -1.
    9000007    1    1    2  501    0 -0.85854362654E+02  0.20067259827E+03  0.42970058045E+02  0.45769737728E+03  0.40000000000E+03 0. -1.
   -9000007    1    1    2    0  502  0.85854362654E+02 -0.20067259827E+03  0.93401199041E+03  0.10392395592E+04  0.40000000000E+03 0. -1.
<mgrwt>
<rscale>  2 0.45567583E+03</rscale>
<asrwt>0</asrwt>
<pdfrwt beam="1">  1       21 0.19030146E+00 0.45567583E+03</pdfrwt>
<pdfrwt beam="2">  1       21 0.39996530E-01 0.45567583E+03</pdfrwt>
<totfact> 0.77685988E+02</totfact>
</mgrwt>
</event>
<event>
 4    1  0.5013722E-002  0.4110682E+03  0.7818608E-02  0.1040013E+00
         21   -1    0    0  501  502  0.00000000000E+00  0.00000000000E+00  0.38540936487E+03  0.38540936487E+03  0.00000000000E+00 0. -1.
         21   -1    0    0  502  503 -0.00000000000E+00 -0.00000000000E+00 -0.46558305231E+03  0.46558305231E+03  0.00000000000E+00 0. -1.
    9000007    1    1    2  501    0  0.19468347880E+02  0.92725662337E+02 -0.14283266451E+03  0.43517609663E+03  0.40000000000E+03 0. -1.
   -9000007    1    1    2    0  503 -0.19468347880E+02 -0.92725662337E+02  0.62658977072E+02  0.41581632055E+03  0.40000000000E+03 0. -1.
<mgrwt>
<rscale>  2 0.41106820E+03</rscale>
<asrwt>0</asrwt>
<pdfrwt beam="1">  1       21 0.59293748E-01 0.41106820E+03</pdfrwt>
<pdfrwt beam="2">  1       21 0.71628162E-01 0.41106820E+03</pdfrwt>
<totfact> 0.41594971E+03</totfact>
</mgrwt>
</event>
<event>
 4    1  0.5013722E-002  0.4046684E+03  0.7818608E-02  0.1042175E+00
         21   -1    0    0  501  502  0.00000000000E+00  0.00000000000E+00  0.13388536029E+04  0.13388536029E+04  0.00000000000E+00 0.  1.
         21   -1    0    0  502  503 -0.00000000000E+00 -0.00000000000E+00 -0.12286844299E+03  0.12286844299E+03  0.00000000000E+00 0.  1.
    9000007    1    1    2  501    0 -0.17131832080E+02 -0.58847585806E+02  0.55876477304E+03  0.68990913142E+03  0.40000000000E+03 0. -1.
   -9000007    1    1    2    0  503  0.17131832080E+02  0.58847585806E+02  0.65722038685E+03  0.77181291446E+03  0.40000000000E+03 0. -1.
<mgrwt>
<rscale>  2 0.40466843E+03</rscale>
<asrwt>0</asrwt>
<pdfrwt beam="1">  1       21 0.20597747E+00 0.40466843E+03</pdfrwt>
<pdfrwt beam="2">  1       21 0.18902838E-01 0.40466843E+03</pdfrwt>
<totfact> 0.27305824E+03</totfact>
</mgrwt>
</event>
<event>
 4    1  0.5013722E-002  0.4660239E+03  0.7818608E-02  0.1023048E+00
         21   -1    0    0  503  502  0.00000000000E+00  0.00000000000E+00  0.16806056988E+03  0.16806056988E+03  0.00000000000E+00 0.  1.
         21   -1    0    0  501  503 -0.00000000000E+00 -0.00000000000E+00 -0.14272616022E+04  0.14272616022E+04  0.00000000000E+00 0.  1.
    9000007    1    1    2  501    0 -0.71669416217E+02  0.22812667723E+03 -0.87492047250E+03  0.99129416386E+03  0.40000000000E+03 0.  1.
   -9000007    1    1    2    0  502  0.71669416217E+02 -0.22812667723E+03 -0.38428055986E+03  0.60402800827E+03  0.40000000000E+03 0.  1.
<mgrwt>
<rscale>  2 0.46602391E+03</rscale>
<asrwt>0</asrwt>
<pdfrwt beam="1">  1       21 0.25855471E-01 0.46602391E+03</pdfrwt>
<pdfrwt beam="2">  1       21 0.21957871E+00 0.46602391E+03</pdfrwt>
<totfact> 0.11877006E+03</totfact>
</mgrwt>
</event>
<event>
 4    1  0.5013722E-002  0.5529162E+03  0.7818608E-02  0.1000821E+00
         21   -1    0    0  501  502  0.00000000000E+00  0.00000000000E+00  0.42014780354E+03  0.42014780354E+03  0.00000000000E+00 0. -1.
         21   -1    0    0  502  503 -0.00000000000E+00 -0.00000000000E+00 -0.10021901334E+04  0.10021901334E+04  0.00000000000E+00 0.  1.
    9000007    1    1    2  501    0 -0.35221422325E+03  0.14717850884E+03  0.81206390107E+02  0.55884778815E+03  0.40000000000E+03 0. -1.
   -9000007    1    1    2    0  503  0.35221422325E+03 -0.14717850884E+03 -0.66324871997E+03  0.86349014879E+03  0.40000000000E+03 0. -1.
<mgrwt>
<rscale>  2 0.55291624E+03</rscale>
<asrwt>0</asrwt>
<pdfrwt beam="1">  1       21 0.64638124E-01 0.55291624E+03</pdfrwt>
<pdfrwt beam="2">  1       21 0.15418310E+00 0.55291624E+03</pdfrwt>
<totfact> 0.48919489E+02</totfact>
</mgrwt>
</event>
<event>
 4    1  0.5013722E-002  0.7270348E+03  0.7818608E-02  0.9672084E-01
         21   -1    0    0  503  502  0.00000000000E+00  0.00000000000E+00  0.58294887190E+03  0.58294887190E+03  0.00000000000E+00 0.  1.
         21   -1    0    0  501  503 -0.00000000000E+00 -0.00000000000E+00 -0.13308478393E+04  0.13308478393E+04  0.00000000000E+00 0.  1.
    9000007    1    1    2  501    0 -0.55198748059E+03  0.25276363840E+03 -0.91413478689E+03  0.11679991628E+04  0.40000000000E+03 0.  1.
   -9000007    1    1    2    0  502  0.55198748059E+03 -0.25276363840E+03  0.16623581945E+03  0.74579754846E+03  0.40000000000E+03 0.  1.
<mgrwt>
<rscale>  2 0.72703482E+03</rscale>
<asrwt>0</asrwt>
<pdfrwt beam="1">  1       21 0.89684443E-01 0.72703482E+03</pdfrwt>
<pdfrwt beam="2">  1       21 0.20474582E+00 0.72703482E+03</pdfrwt>
<totfact> 0.93492335E+01</totfact>
</mgrwt>
</event>
<event>
 4    1  0.5013722E-002  0.4033822E+03  0.7818608E-02  0.1042615E+00
         21   -1    0    0  501  502  0.00000000000E+00  0.00000000000E+00  0.26365288897E+03  0.26365288897E+03  0.00000000000E+00 0. -1.
         21   -1    0    0  502  503 -0.00000000000E+00 -0.00000000000E+00 -0.12243536645E+04  0.12243536645E+04  0.00000000000E+00 0. -1.
    9000007    1    1    2  501    0 -0.47388461501E+02  0.21714639461E+02  0.43591870486E+02  0.40573075188E+03  0.40000000000E+03 0. -1.
   -9000007    1    1    2    0  503  0.47388461501E+02 -0.21714639461E+02 -0.10042926460E+04  0.10822758015E+04  0.40000000000E+03 0. -1.
<mgrwt>
<rscale>  2 0.40338219E+03</rscale>
<asrwt>0</asrwt>
<pdfrwt beam="1">  1       21 0.40561983E-01 0.40338219E+03</pdfrwt>
<pdfrwt beam="2">  1       21 0.18836210E+00 0.40338219E+03</pdfrwt>
<totfact> 0.79814085E+02</totfact>
</mgrwt>
</event>
<event>
 4    1  0.5013722E-002  0.5289699E+03  0.7818608E-02  0.1006482E+00
         21   -1    0    0  503  502  0.00000000000E+00  0.00000000000E+00  0.15704862253E+03  0.15704862253E+03  0.00000000000E+00 0.  1.
         21   -1    0    0  501  503 -0.00000000000E+00 -0.00000000000E+00 -0.17838828868E+04  0.17838828868E+04  0.00000000000E+00 0. -1.
    9000007    1    1    2  501    0 -0.13697077811E+03  0.31788066093E+03 -0.77925100302E+03  0.94182866507E+03  0.40000000000E+03 0.  1.
   -9000007    1    1    2    0  502  0.13697077811E+03 -0.31788066093E+03 -0.84758326127E+03  0.99910284427E+03  0.40000000000E+03 0. -1.
<mgrwt>
<rscale>  2 0.52896986E+03</rscale>
<asrwt>0</asrwt>
<pdfrwt beam="1">  1       21 0.24161326E-01 0.52896986E+03</pdfrwt>
<pdfrwt beam="2">  1       21 0.27444353E+00 0.52896986E+03</pdfrwt>
<totfact> 0.60141569E+02</totfact>
</mgrwt>
</event>
<event>
 4    1  0.5013722E-002  0.4470651E+03  0.7818608E-02  0.1028601E+00
         21   -1    0    0  503  502  0.00000000000E+00  0.00000000000E+00  0.75279725295E+03  0.75279725295E+03  0.00000000000E+00 0. -1.
         21   -1    0    0  501  503 -0.00000000000E+00 -0.00000000000E+00 -0.32155777990E+03  0.32155777990E+03  0.00000000000E+00 0. -1.
    9000007    1    1    2  501    0  0.19753695112E+03 -0.29092159620E+02 -0.86696282239E+01  0.44714915102E+03  0.40000000000E+03 0. -1.
   -9000007    1    1    2    0  502 -0.19753695112E+03  0.29092159620E+02  0.43990910127E+03  0.62720588182E+03  0.40000000000E+03 0. -1.
<mgrwt>
<rscale>  2 0.44706510E+03</rscale>
<asrwt>0</asrwt>
<pdfrwt beam="1">  1       21 0.11581496E+00 0.44706510E+03</pdfrwt>
<pdfrwt beam="2">  1       21 0.49470428E-01 0.44706510E+03</pdfrwt>
<totfact> 0.19338780E+03</totfact>
</mgrwt>
</event>
<event>
 4    1  0.5013722E-002  0.5203688E+03  0.7818608E-02  0.1008595E+00
         21   -1    0    0  501  502  0.00000000000E+00  0.00000000000E+00  0.13185842870E+04  0.13185842870E+04  0.00000000000E+00 0.  1.
         21   -1    0    0  502  503 -0.00000000000E+00 -0.00000000000E+00 -0.21321289064E+03  0.21321289064E+03  0.00000000000E+00 0.  1.
    9000007    1    1    2  501    0 -0.33106488032E+03 -0.34347929643E+02  0.40569335751E+03  0.65982636775E+03  0.40000000000E+03 0.  1.
   -9000007    1    1    2    0  503  0.33106488032E+03  0.34347929643E+02  0.69967803887E+03  0.87197080991E+03  0.40000000000E+03 0.  1.
<mgrwt>
<rscale>  2 0.52036885E+03</rscale>
<asrwt>0</asrwt>
<pdfrwt beam="1">  1       21 0.20285912E+00 0.52036885E+03</pdfrwt>
<pdfrwt beam="2">  1       21 0.32801984E-01 0.52036885E+03</pdfrwt>
<totfact> 0.93095655E+02</totfact>
</mgrwt>
</event>
<event>
 4    1  0.5013722E-002  0.4268187E+03  0.7818608E-02  0.1034870E+00
         21   -1    0    0  503  502  0.00000000000E+00  0.00000000000E+00  0.16311946457E+04  0.16311946457E+04  0.00000000000E+00 0. -1.
         21   -1    0    0  501  503 -0.00000000000E+00 -0.00000000000E+00 -0.13604086346E+03  0.13604086346E+03  0.00000000000E+00 0. -1.
    9000007    1    1    2  501    0  0.13347256246E+03  0.66024864963E+02  0.11214833984E+04  0.11999580079E+04  0.40000000000E+03 0. -1.
   -9000007    1    1    2    0  502 -0.13347256246E+03 -0.66024864963E+02  0.37367038382E+03  0.56727750129E+03  0.40000000000E+03 0. -1.
<mgrwt>
<rscale>  2 0.42681871E+03</rscale>
<asrwt>0</asrwt>
<pdfrwt beam="1">  1       21 0.25095301E+00 0.42681871E+03</pdfrwt>
<pdfrwt beam="2">  1       21 0.20929365E-01 0.42681871E+03</pdfrwt>
<totfact> 0.11591182E+03</totfact>
</mgrwt>
</event>
<event>
 4    1  0.5013722E-002  0.4092178E+03  0.7818608E-02  0.1040634E+00
         21   -1    0    0  503  502  0.00000000000E+00  0.00000000000E+00  0.10801064166E+03  0.10801064166E+03  0.00000000000E+00 0. -1.
         21   -1    0    0  501  503 -0.00000000000E+00 -0.00000000000E+00 -0.20850480499E+04  0.20850480499E+04  0.00000000000E+00 0. -1.
    9000007    1    1    2  501    0  0.86065680841E+02  0.72060049268E+01 -0.15437807506E+04  0.15970968141E+04  0.40000000000E+03 0. -1.
   -9000007    1    1    2    0  502 -0.86065680841E+02 -0.72060049268E+01 -0.43325665769E+03  0.59596187744E+03  0.40000000000E+03 0. -1.
<mgrwt>
<rscale>  2 0.40921782E+03</rscale>
<asrwt>0</asrwt>
<pdfrwt beam="1">  1       21 0.16617022E-01 0.40921782E+03</pdfrwt>
<pdfrwt beam="2">  1       21 0.32077663E+00 0.40921782E+03</pdfrwt>
<totfact> 0.68738436E+02</totfact>
</mgrwt>
</event>
<event>
 4    1  0.5013722E-002  0.4451739E+03  0.7818608E-02  0.1029171E+00
         21   -1    0    0  501  502  0.00000000000E+00  0.00000000000E+00  0.10545181211E+04  0.10545181211E+04  0.00000000000E+00 0.  1.
         21   -1    0    0  502  503 -0.00000000000E+00 -0.00000000000E+00 -0.77488696015E+03  0.77488696015E+03  0.00000000000E+00 0.  1.
    9000007    1    1    2  501    0 -0.80267505788E+02 -0.17814849254E+03  0.93590595961E+03  0.10363878247E+04  0.40000000000E+03 0.  1.
   -9000007    1    1    2    0  503  0.80267505788E+02  0.17814849254E+03 -0.65627479866E+03  0.79301725658E+03  0.40000000000E+03 0.  1.
<mgrwt>
<rscale>  2 0.44517385E+03</rscale>
<asrwt>0</asrwt>
<pdfrwt beam="1">  1       21 0.16223356E+00 0.44517385E+03</pdfrwt>
<pdfrwt beam="2">  1       21 0.11921338E+00 0.44517385E+03</pdfrwt>
<totfact> 0.10465789E+02</totfact>
</mgrwt>
</event>
<event>
 4    1  0.5013722E-002  0.4248147E+03  0.7818608E-02  0.1035511E+00
         21   -1    0    0  501  502  0.00000000000E+00  0.00000000000E+00  0.37192814632E+03  0.37192814632E+03  0.00000000000E+00 0. -1.
         21   -1    0    0  502  503 -0.00000000000E+00 -0.00000000000E+00 -0.49883981206E+03  0.49883981206E+03  0.00000000000E+00 0. -1.
    9000007    1    1    2  501    0 -0.14271394339E+03  0.10014477803E+02  0.84811802810E+01  0.42489938788E+03  0.40000000000E+03 0. -1.
   -9000007    1    1    2    0  503  0.14271394339E+03 -0.10014477803E+02 -0.13539284603E+03  0.44586857050E+03  0.40000000000E+03 0. -1.
<mgrwt>
<rscale>  2 0.42481474E+03</rscale>
<asrwt>0</asrwt>
<pdfrwt beam="1">  1       21 0.57219715E-01 0.42481474E+03</pdfrwt>
<pdfrwt beam="2">  1       21 0.76744586E-01 0.42481474E+03</pdfrwt>
<totfact> 0.38233985E+03</totfact>
</mgrwt>
</event>
<event>
 4    1  0.5013722E-002  0.5451613E+03  0.7818608E-02  0.1002620E+00
         21   -1    0    0  503  502  0.00000000000E+00  0.00000000000E+00  0.36322366747E+03  0.36322366747E+03  0.00000000000E+00 0. -1.
         21   -1    0    0  501  503 -0.00000000000E+00 -0.00000000000E+00 -0.84031402592E+03  0.84031402592E+03  0.00000000000E+00 0.  1.
    9000007    1    1    2  501    0  0.30934163272E+01  0.37039344281E+03 -0.33609758740E+03  0.64043927109E+03  0.40000000000E+03 0.  1.
   -9000007    1    1    2    0  502 -0.30934163272E+01 -0.37039344281E+03 -0.14099277105E+03  0.56309842229E+03  0.40000000000E+03 0.  1.
<mgrwt>
<rscale>  2 0.54516133E+03</rscale>
<asrwt>0</asrwt>
<pdfrwt beam="1">  1       21 0.55880564E-01 0.54516133E+03</pdfrwt>
<pdfrwt beam="2">  1       21 0.12927908E+00 0.54516133E+03</pdfrwt>
<totfact> 0.10840223E+03</totfact>
</mgrwt>
</event>
<event>
 4    1  0.5013722E-002  0.4486617E+03  0.7818608E-02  0.1028122E+00
         21   -1    0    0  501  502  0.00000000000E+00  0.00000000000E+00  0.66885141184E+03  0.66885141184E+03  0.00000000000E+00 0.  1.
         21   -1    0    0  502  503 -0.00000000000E+00 -0.00000000000E+00 -0.74388163752E+03  0.74388163752E+03  0.00000000000E+00 0.  1.
    9000007    1    1    2  501    0  0.44755558522E+02 -0.19822781599E+03  0.50754171053E+03  0.67741856704E+03  0.40000000000E+03 0.  1.
   -9000007    1    1    2    0  503 -0.44755558522E+02  0.19822781599E+03 -0.58257193621E+03  0.73531448232E+03  0.40000000000E+03 0.  1.
<mgrwt>
<rscale>  2 0.44866171E+03</rscale>
<asrwt>0</asrwt>
<pdfrwt beam="1">  1       21 0.10290022E+00 0.44866171E+03</pdfrwt>
<pdfrwt beam="2">  1       21 0.11444333E+00 0.44866171E+03</pdfrwt>
<totfact> 0.37828957E+02</totfact>
</mgrwt>
</event>
<event>
 4    1  0.5013722E-002  0.4131318E+03  0.7818608E-02  0.1039325E+00
         21   -1    0    0  501  502  0.00000000000E+00  0.00000000000E+00  0.43023176336E+03  0.43023176336E+03  0.00000000000E+00 0. -1.
         21   -1    0    0  502  503 -0.00000000000E+00 -0.00000000000E+00 -0.44641164640E+03  0.44641164640E+03  0.00000000000E+00 0. -1.
    9000007    1    1    2  501    0  0.53835165693E+02 -0.88202318798E+02  0.13816286054E+03  0.43562237103E+03  0.40000000000E+03 0. -1.
   -9000007    1    1    2    0  503 -0.53835165693E+02  0.88202318798E+02 -0.15434274358E+03  0.44102103873E+03  0.40000000000E+03 0. -1.
<mgrwt>
<rscale>  2 0.41313179E+03</rscale>
<asrwt>0</asrwt>
<pdfrwt beam="1">  1       21 0.66189502E-01 0.41313179E+03</pdfrwt>
<pdfrwt beam="2">  1       21 0.68678715E-01 0.41313179E+03</pdfrwt>
<totfact> 0.35848223E+03</totfact>
</mgrwt>
</event>
<event>
 4    1  0.5013722E-002  0.5326256E+03  0.7818608E-02  0.1005597E+00
         21   -1    0    0  503  502  0.00000000000E+00  0.00000000000E+00  0.37981516284E+03  0.37981516284E+03  0.00000000000E+00 0.  1.
         21   -1    0    0  501  503 -0.00000000000E+00 -0.00000000000E+00 -0.12228171232E+04  0.12228171232E+04  0.00000000000E+00 0. -1.
    9000007    1    1    2  501    0  0.16197071570E+03  0.31217858869E+03  0.78397189875E+02  0.53836428500E+03  0.40000000000E+03 0.  1.
   -9000007    1    1    2    0  502 -0.16197071570E+03 -0.31217858869E+03 -0.92139915018E+03  0.10642680010E+04  0.40000000000E+03 0. -1.
<mgrwt>
<rscale>  2 0.53262556E+03</rscale>
<asrwt>0</asrwt>
<pdfrwt beam="1">  1       21 0.58433102E-01 0.53262556E+03</pdfrwt>
<pdfrwt beam="2">  1       21 0.18812571E+00 0.53262556E+03</pdfrwt>
<totfact> 0.34777367E+02</totfact>
</mgrwt>
</event>
<event>
 4    1  0.5013722E-002  0.4331539E+03  0.7818608E-02  0.1032868E+00
         21   -1    0    0  501  502  0.00000000000E+00  0.00000000000E+00  0.12167107874E+04  0.12167107874E+04  0.00000000000E+00 0.  1.
         21   -1    0    0  502  503 -0.00000000000E+00 -0.00000000000E+00 -0.41230682364E+03  0.41230682364E+03  0.00000000000E+00 0.  1.
    9000007    1    1    2  501    0  0.16387175552E+03  0.27719776344E+02  0.10466404232E+04  0.11327305565E+04  0.40000000000E+03 0.  1.
   -9000007    1    1    2    0  503 -0.16387175552E+03 -0.27719776344E+02 -0.24223645938E+03  0.49628705455E+03  0.40000000000E+03 0.  1.
<mgrwt>
<rscale>  2 0.43315394E+03</rscale>
<asrwt>0</asrwt>
<pdfrwt beam="1">  1       21 0.18718627E+00 0.43315394E+03</pdfrwt>
<pdfrwt beam="2">  1       21 0.63431820E-01 0.43315394E+03</pdfrwt>
<totfact> 0.30875092E+02</totfact>
</mgrwt>
</event>
<event>
 4    1  0.5013722E-002  0.4634556E+03  0.7818608E-02  0.1023784E+00
         21   -1    0    0  503  502  0.00000000000E+00  0.00000000000E+00  0.14637078119E+04  0.14637078119E+04  0.00000000000E+00 0.  1.
         21   -1    0    0  501  503 -0.00000000000E+00 -0.00000000000E+00 -0.38874919788E+03  0.38874919788E+03  0.00000000000E+00 0. -1.
    9000007    1    1    2  501    0 -0.17521059855E+03 -0.15521711280E+03 -0.19331518656E+03  0.50215721373E+03  0.40000000000E+03 0. -1.
   -9000007    1    1    2    0  502  0.17521059855E+03  0.15521711280E+03  0.12682738006E+04  0.13502997961E+04  0.40000000000E+03 0.  1.
<mgrwt>
<rscale>  2 0.46345561E+03</rscale>
<asrwt>0</asrwt>
<pdfrwt beam="1">  1       21 0.22518581E+00 0.46345561E+03</pdfrwt>
<pdfrwt beam="2">  1       21 0.59807570E-01 0.46345561E+03</pdfrwt>
<totfact> 0.19431271E+02</totfact>
</mgrwt>
</event>
<event>
 4    1  0.5013722E-002  0.4832569E+03  0.7818608E-02  0.1018244E+00
         21   -1    0    0  503  502  0.00000000000E+00  0.00000000000E+00  0.17993120672E+03  0.17993120672E+03  0.00000000000E+00 0.  1.
         21   -1    0    0  501  503 -0.00000000000E+00 -0.00000000000E+00 -0.12986278572E+04  0.12986278572E+04  0.00000000000E+00 0.  1.
    9000007    1    1    2  501    0  0.26831601835E+03  0.39290614998E+02 -0.57654538182E+03  0.75229104436E+03  0.40000000000E+03 0.  1.
   -9000007    1    1    2    0  502 -0.26831601835E+03 -0.39290614998E+02 -0.54215126866E+03  0.72626801956E+03  0.40000000000E+03 0.  1.
<mgrwt>
<rscale>  2 0.48325691E+03</rscale>
<asrwt>0</asrwt>
<pdfrwt beam="1">  1       21 0.27681723E-01 0.48325691E+03</pdfrwt>
<pdfrwt beam="2">  1       21 0.19978891E+00 0.48325691E+03</pdfrwt>
<totfact> 0.13892535E+03</totfact>
</mgrwt>
</event>
<event>
 4    1  0.5013722E-002  0.4353327E+03  0.7818608E-02  0.1032189E+00
         21   -1    0    0  503  502  0.00000000000E+00  0.00000000000E+00  0.15800111671E+04  0.15800111671E+04  0.00000000000E+00 0.  1.
         21   -1    0    0  501  503 -0.00000000000E+00 -0.00000000000E+00 -0.12764502119E+03  0.12764502119E+03  0.00000000000E+00 0.  1.
    9000007    1    1    2  501    0  0.12602636796E+03  0.11675593206E+03  0.51647665672E+03  0.67547222743E+03  0.40000000000E+03 0.  1.
   -9000007    1    1    2    0  502 -0.12602636796E+03 -0.11675593206E+03  0.93588948920E+03  0.10321839609E+04  0.40000000000E+03 0.  1.
<mgrwt>
<rscale>  2 0.43533274E+03</rscale>
<asrwt>0</asrwt>
<pdfrwt beam="1">  1       21 0.24307863E+00 0.43533274E+03</pdfrwt>
<pdfrwt beam="2">  1       21 0.19637697E-01 0.43533274E+03</pdfrwt>
<totfact> 0.14566917E+03</totfact>
</mgrwt>
</event>
<event>
 4    1  0.5013722E-002  0.4320716E+03  0.7818608E-02  0.1033208E+00
         21   -1    0    0  501  502  0.00000000000E+00  0.00000000000E+00  0.39991646119E+03  0.39991646119E+03  0.00000000000E+00 0.  1.
         21   -1    0    0  502  503 -0.00000000000E+00 -0.00000000000E+00 -0.50069230938E+03  0.50069230938E+03  0.00000000000E+00 0.  1.
    9000007    1    1    2  501    0 -0.15748616424E+03 -0.43404571435E+02  0.66748960129E+02  0.43719706361E+03  0.40000000000E+03 0. -1.
   -9000007    1    1    2    0  503  0.15748616424E+03  0.43404571435E+02 -0.16752480832E+03  0.46341170697E+03  0.40000000000E+03 0. -1.
<mgrwt>
<rscale>  2 0.43207158E+03</rscale>
<asrwt>0</asrwt>
<pdfrwt beam="1">  1       21 0.61525610E-01 0.43207158E+03</pdfrwt>
<pdfrwt beam="2">  1       21 0.77029585E-01 0.43207158E+03</pdfrwt>
<totfact> 0.32267081E+03</totfact>
</mgrwt>
</event>
<event>
 4    1  0.5013722E-002  0.5113368E+03  0.7818608E-02  0.1010861E+00
         21   -1    0    0  501  502  0.00000000000E+00  0.00000000000E+00  0.30236833573E+03  0.30236833573E+03  0.00000000000E+00 0.  1.
         21   -1    0    0  502  503 -0.00000000000E+00 -0.00000000000E+00 -0.87059507946E+03  0.87059507946E+03  0.00000000000E+00 0. -1.
    9000007    1    1    2  501    0  0.27032546603E+03  0.16849162476E+03 -0.23595302200E+03  0.56315105770E+03  0.40000000000E+03 0. -1.
   -9000007    1    1    2    0  503 -0.27032546603E+03 -0.16849162476E+03 -0.33227372173E+03  0.60981235749E+03  0.40000000000E+03 0. -1.
<mgrwt>
<rscale>  2 0.51133676E+03</rscale>
<asrwt>0</asrwt>
<pdfrwt beam="1">  1       21 0.46518205E-01 0.51133676E+03</pdfrwt>
<pdfrwt beam="2">  1       21 0.13393771E+00 0.51133676E+03</pdfrwt>
<totfact> 0.14804749E+03</totfact>
</mgrwt>
</event>
<event>
 4    1  0.5013722E-002  0.4078696E+03  0.7818608E-02  0.1041088E+00
         21   -1    0    0  503  502  0.00000000000E+00  0.00000000000E+00  0.10798804384E+04  0.10798804384E+04  0.00000000000E+00 0. -1.
         21   -1    0    0  501  503 -0.00000000000E+00 -0.00000000000E+00 -0.24225583609E+03  0.24225583609E+03  0.00000000000E+00 0. -1.
    9000007    1    1    2  501    0  0.28142079054E+02  0.74603369195E+02  0.19922373341E+02  0.40835589902E+03  0.40000000000E+03 0. -1.
   -9000007    1    1    2    0  502 -0.28142079054E+02 -0.74603369195E+02  0.81770222896E+03  0.91378037545E+03  0.40000000000E+03 0. -1.
<mgrwt>
<rscale>  2 0.40786964E+03</rscale>
<asrwt>0</asrwt>
<pdfrwt beam="1">  1       21 0.16613545E+00 0.40786964E+03</pdfrwt>
<pdfrwt beam="2">  1       21 0.37270129E-01 0.40786964E+03</pdfrwt>
<totfact> 0.13609554E+03</totfact>
</mgrwt>
</event>
<event>
 4    1  0.5013722E-002  0.4223041E+03  0.7818608E-02  0.1036319E+00
         21   -1    0    0  503  502  0.00000000000E+00  0.00000000000E+00  0.34111839892E+03  0.34111839892E+03  0.00000000000E+00 0.  1.
         21   -1    0    0  501  503 -0.00000000000E+00 -0.00000000000E+00 -0.53392362416E+03  0.53392362416E+03  0.00000000000E+00 0.  1.
    9000007    1    1    2  501    0 -0.91940701002E+02 -0.99436595774E+02 -0.15952039673E+03  0.45142827343E+03  0.40000000000E+03 0.  1.
   -9000007    1    1    2    0  502  0.91940701002E+02  0.99436595774E+02 -0.33284828504E+02  0.42361374965E+03  0.40000000000E+03 0.  1.
<mgrwt>
<rscale>  2 0.42230407E+03</rscale>
<asrwt>0</asrwt>
<pdfrwt beam="1">  1       21 0.52479754E-01 0.42230407E+03</pdfrwt>
<pdfrwt beam="2">  1       21 0.82142096E-01 0.42230407E+03</pdfrwt>
<totfact> 0.39424520E+03</totfact>
</mgrwt>
</event>
<event>
 4    1  0.5013722E-002  0.4137734E+03  0.7818608E-02  0.1039112E+00
         21   -1    0    0  503  502  0.00000000000E+00  0.00000000000E+00  0.19807603613E+03  0.19807603613E+03  0.00000000000E+00 0. -1.
         21   -1    0    0  501  503 -0.00000000000E+00 -0.00000000000E+00 -0.12880742639E+04  0.12880742639E+04  0.00000000000E+00 0. -1.
    9000007    1    1    2  501    0  0.63347471127E+02 -0.84826277411E+02 -0.97118630111E+03  0.10556567770E+04  0.40000000000E+03 0. -1.
   -9000007    1    1    2    0  502 -0.63347471127E+02  0.84826277411E+02 -0.11881192668E+03  0.43049352302E+03  0.40000000000E+03 0. -1.
<mgrwt>
<rscale>  2 0.41377337E+03</rscale>
<asrwt>0</asrwt>
<pdfrwt beam="1">  1       21 0.30473236E-01 0.41377337E+03</pdfrwt>
<pdfrwt beam="2">  1       21 0.19816527E+00 0.41377337E+03</pdfrwt>
<totfact> 0.12150457E+03</totfact>
</mgrwt>
</event>
<event>
 4    1  0.5013722E-002  0.4448433E+03  0.7818608E-02  0.1029271E+00
         21   -1    0    0  503  502  0.00000000000E+00  0.00000000000E+00  0.12126756748E+04  0.12126756748E+04  0.00000000000E+00 0.  1.
         21   -1    0    0  501  503 -0.00000000000E+00 -0.00000000000E+00 -0.20721777556E+03  0.20721777556E+03  0.00000000000E+00 0. -1.
    9000007    1    1    2  501    0  0.15293060343E+03  0.12040695184E+03  0.17544845924E+03  0.47819218455E+03  0.40000000000E+03 0. -1.
   -9000007    1    1    2    0  502 -0.15293060343E+03 -0.12040695184E+03  0.83000943997E+03  0.94170126577E+03  0.40000000000E+03 0. -1.
<mgrwt>
<rscale>  2 0.44484335E+03</rscale>
<asrwt>0</asrwt>
<pdfrwt beam="1">  1       21 0.18656548E+00 0.44484335E+03</pdfrwt>
<pdfrwt beam="2">  1       21 0.31879658E-01 0.44484335E+03</pdfrwt>
<totfact> 0.13122685E+03</totfact>
</mgrwt>
</event>
<event>
 4    1  0.5013722E-002  0.5302164E+03  0.7818608E-02  0.1006180E+00
         21   -1    0    0  503  502  0.00000000000E+00  0.00000000000E+00  0.68493895020E+03  0.68493895020E+03  0.00000000000E+00 0. -1.
         21   -1    0    0  501  503 -0.00000000000E+00 -0.00000000000E+00 -0.48980636976E+03  0.48980636976E+03  0.00000000000E+00 0. -1.
    9000007    1    1    2  501    0  0.13679103904E+03 -0.32002749606E+03 -0.13886644817E+03  0.54809969625E+03  0.40000000000E+03 0. -1.
   -9000007    1    1    2    0  502 -0.13679103904E+03  0.32002749606E+03  0.33399902862E+03  0.62664562371E+03  0.40000000000E+03 0. -1.
<mgrwt>
<rscale>  2 0.53021636E+03</rscale>
<asrwt>0</asrwt>
<pdfrwt beam="1">  1       21 0.10537522E+00 0.53021636E+03</pdfrwt>
<pdfrwt beam="2">  1       21 0.75354826E-01 0.53021636E+03</pdfrwt>
<totfact> 0.93872088E+02</totfact>
</mgrwt>
</event>
<event>
 4    1  0.5013722E-002  0.4985410E+03  0.7818608E-02  0.1014160E+00
         21   -1    0    0  503  502  0.00000000000E+00  0.00000000000E+00  0.62051232898E+03  0.62051232898E+03  0.00000000000E+00 0.  1.
         21   -1    0    0  501  503 -0.00000000000E+00 -0.00000000000E+00 -0.72498561200E+03  0.72498561200E+03  0.00000000000E+00 0.  1.
    9000007    1    1    2  501    0 -0.29562439039E+03 -0.33902457928E+02 -0.50228160343E+03  0.70769341243E+03  0.40000000000E+03 0.  1.
   -9000007    1    1    2    0  502  0.29562439039E+03  0.33902457928E+02  0.39780832041E+03  0.63780452855E+03  0.40000000000E+03 0.  1.
<mgrwt>
<rscale>  2 0.49854103E+03</rscale>
<asrwt>0</asrwt>
<pdfrwt beam="1">  1       21 0.95463435E-01 0.49854103E+03</pdfrwt>
<pdfrwt beam="2">  1       21 0.11153625E+00 0.49854103E+03</pdfrwt>
<totfact> 0.47343654E+02</totfact>
</mgrwt>
</event>
<event>
 4    1  0.5013722E-002  0.4290140E+03  0.7818608E-02  0.1034172E+00
         21   -1    0    0  503  502  0.00000000000E+00  0.00000000000E+00  0.22656038060E+03  0.22656038060E+03  0.00000000000E+00 0.  1.
         21   -1    0    0  501  503 -0.00000000000E+00 -0.00000000000E+00 -0.10892981937E+04  0.10892981937E+04  0.00000000000E+00 0.  1.
    9000007    1    1    2  501    0  0.96081703015E+02  0.12174292032E+03 -0.76309671753E+03  0.87542540094E+03  0.40000000000E+03 0.  1.
   -9000007    1    1    2    0  502 -0.96081703015E+02 -0.12174292032E+03 -0.99641095614E+02  0.44043317341E+03  0.40000000000E+03 0.  1.
<mgrwt>
<rscale>  2 0.42901402E+03</rscale>
<asrwt>0</asrwt>
<pdfrwt beam="1">  1       21 0.34855443E-01 0.42901402E+03</pdfrwt>
<pdfrwt beam="2">  1       21 0.16758434E+00 0.42901402E+03</pdfrwt>
<totfact> 0.15068092E+03</totfact>
</mgrwt>
</event>
<event>
 4    1  0.5013722E-002  0.5006762E+03  0.7818608E-02  0.1013603E+00
         21   -1    0    0  503  502  0.00000000000E+00  0.00000000000E+00  0.77396701762E+03  0.77396701762E+03  0.00000000000E+00 0. -1.
         21   -1    0    0  501  503 -0.00000000000E+00 -0.00000000000E+00 -0.32389751938E+03  0.32389751938E+03  0.00000000000E+00 0. -1.
    9000007    1    1    2  501    0 -0.29953061278E+03 -0.30952199968E+02  0.22839083547E+03  0.55030809589E+03  0.40000000000E+03 0. -1.
   -9000007    1    1    2    0  502  0.29953061278E+03  0.30952199968E+02  0.22167866276E+03  0.54755644111E+03  0.40000000000E+03 0. -1.
<mgrwt>
<rscale>  2 0.50067617E+03</rscale>
<asrwt>0</asrwt>
<pdfrwt beam="1">  1       21 0.11907185E+00 0.50067617E+03</pdfrwt>
<pdfrwt beam="2">  1       21 0.49830388E-01 0.50067617E+03</pdfrwt>
<totfact> 0.17410692E+03</totfact>
</mgrwt>
</event>
<event>
 4    1  0.5013722E-002  0.4228273E+03  0.7818608E-02  0.1036150E+00
         21   -1    0    0  503  502  0.00000000000E+00  0.00000000000E+00  0.11842950918E+03  0.11842950918E+03  0.00000000000E+00 0.  1.
         21   -1    0    0  501  503 -0.00000000000E+00 -0.00000000000E+00 -0.19585772815E+04  0.19585772815E+04  0.00000000000E+00 0.  1.
    9000007    1    1    2  501    0 -0.11679055552E+03  0.71713909906E+02 -0.14172871156E+04  0.14790151070E+04  0.40000000000E+03 0.  1.
   -9000007    1    1    2    0  502  0.11679055552E+03 -0.71713909906E+02 -0.42286065671E+03  0.59799168366E+03  0.40000000000E+03 0.  1.
<mgrwt>
<rscale>  2 0.42282729E+03</rscale>
<asrwt>0</asrwt>
<pdfrwt beam="1">  1       21 0.18219923E-01 0.42282729E+03</pdfrwt>
<pdfrwt beam="2">  1       21 0.30131960E+00 0.42282729E+03</pdfrwt>
<totfact> 0.75063922E+02</totfact>
</mgrwt>
</event>
<event>
 4    1  0.5013722E-002  0.4890030E+03  0.7818608E-02  0.1016690E+00
         21   -1    0    0  503  502  0.00000000000E+00  0.00000000000E+00  0.20819474342E+03  0.20819474342E+03  0.00000000000E+00 0. -1.
         21   -1    0    0  501  503 -0.00000000000E+00 -0.00000000000E+00 -0.13979960414E+04  0.13979960414E+04  0.00000000000E+00 0. -1.
    9000007    1    1    2  501    0 -0.21903081904E+03  0.17649196219E+03 -0.93413105995E+03  0.10543835875E+04  0.40000000000E+03 0. -1.
   -9000007    1    1    2    0  502  0.21903081904E+03 -0.17649196219E+03 -0.25567023801E+03  0.55180719731E+03  0.40000000000E+03 0. -1.
<mgrwt>
<rscale>  2 0.48900298E+03</rscale>
<asrwt>0</asrwt>
<pdfrwt beam="1">  1       21 0.32029960E-01 0.48900298E+03</pdfrwt>
<pdfrwt beam="2">  1       21 0.21507632E+00 0.48900298E+03</pdfrwt>
<totfact> 0.82245648E+02</totfact>
</mgrwt>
</event>
<event>
 4    1  0.5013722E-002  0.5194351E+03  0.7818608E-02  0.1008827E+00
         21   -1    0    0  501  502  0.00000000000E+00  0.00000000000E+00  0.26259495991E+03  0.26259495991E+03  0.00000000000E+00 0.  1.
         21   -1    0    0  502  503 -0.00000000000E+00 -0.00000000000E+00 -0.10885461045E+04  0.10885461045E+04  0.00000000000E+00 0.  1.
    9000007    1    1    2  501    0 -0.19767327580E+03 -0.26596637887E+03 -0.57297684324E+03  0.77337914476E+03  0.40000000000E+03 0.  1.
   -9000007    1    1    2    0  503  0.19767327580E+03  0.26596637887E+03 -0.25297430134E+03  0.57776191965E+03  0.40000000000E+03 0.  1.
<mgrwt>
<rscale>  2 0.51943511E+03</rscale>
<asrwt>0</asrwt>
<pdfrwt beam="1">  1       21 0.40399225E-01 0.51943511E+03</pdfrwt>
<pdfrwt beam="2">  1       21 0.16746863E+00 0.51943511E+03</pdfrwt>
<totfact> 0.10763804E+03</totfact>
</mgrwt>
</event>
<event>
 4    1  0.5013722E-002  0.4345766E+03  0.7818608E-02  0.1032424E+00
         21   -1    0    0  501  502  0.00000000000E+00  0.00000000000E+00  0.16010281766E+03  0.16010281766E+03  0.00000000000E+00 0.  1.
         21   -1    0    0  502  503 -0.00000000000E+00 -0.00000000000E+00 -0.15118109888E+04  0.15118109888E+04  0.00000000000E+00 0.  1.
    9000007    1    1    2  501    0  0.14494370268E+03  0.88589770448E+02 -0.28398228550E+03  0.51913655511E+03  0.40000000000E+03 0.  1.
   -9000007    1    1    2    0  503 -0.14494370268E+03 -0.88589770448E+02 -0.10677258857E+04  0.11527772514E+04  0.40000000000E+03 0.  1.
<mgrwt>
<rscale>  2 0.43457660E+03</rscale>
<asrwt>0</asrwt>
<pdfrwt beam="1">  1       21 0.24631203E-01 0.43457660E+03</pdfrwt>
<pdfrwt beam="2">  1       21 0.23258630E+00 0.43457660E+03</pdfrwt>
<totfact> 0.10961107E+03</totfact>
</mgrwt>
</event>
<event>
 4    1  0.5013722E-002  0.5969148E+03  0.7818608E-02  0.9911828E-01
         21   -1    0    0  503  502  0.00000000000E+00  0.00000000000E+00  0.70580831510E+03  0.70580831510E+03  0.00000000000E+00 0. -1.
         21   -1    0    0  501  503 -0.00000000000E+00 -0.00000000000E+00 -0.50908600570E+03  0.50908600570E+03  0.00000000000E+00 0.  1.
    9000007    1    1    2  501    0  0.40546486903E+03  0.17862108578E+03  0.15395726310E+03  0.61644958526E+03  0.40000000000E+03 0. -1.
   -9000007    1    1    2    0  502 -0.40546486903E+03 -0.17862108578E+03  0.42765046300E+02  0.59844473554E+03  0.40000000000E+03 0.  1.
<mgrwt>
<rscale>  2 0.59691478E+03</rscale>
<asrwt>0</asrwt>
<pdfrwt beam="1">  1       21 0.10858590E+00 0.59691478E+03</pdfrwt>
<pdfrwt beam="2">  1       21 0.78320923E-01 0.59691478E+03</pdfrwt>
<totfact> 0.77962558E+02</totfact>
</mgrwt>
</event>
<event>
 4    1  0.5013722E-002  0.5129069E+03  0.7818608E-02  0.1010464E+00
         21   -1    0    0  501  502  0.00000000000E+00  0.00000000000E+00  0.48376971019E+03  0.48376971019E+03  0.00000000000E+00 0.  1.
         21   -1    0    0  502  503 -0.00000000000E+00 -0.00000000000E+00 -0.70513137001E+03  0.70513137001E+03  0.00000000000E+00 0. -1.
    9000007    1    1    2  501    0  0.23875466304E+03  0.21463855926E+03  0.17366143692E+03  0.54150881333E+03  0.40000000000E+03 0.  1.
   -9000007    1    1    2    0  503 -0.23875466304E+03 -0.21463855926E+03 -0.39502309674E+03  0.64739226687E+03  0.40000000000E+03 0. -1.
<mgrwt>
<rscale>  2 0.51290691E+03</rscale>
<asrwt>0</asrwt>
<pdfrwt beam="1">  1       21 0.74426110E-01 0.51290691E+03</pdfrwt>
<pdfrwt beam="2">  1       21 0.10848175E+00 0.51290691E+03</pdfrwt>
<totfact> 0.90415219E+02</totfact>
</mgrwt>
</event>
<event>
 4    1  0.5013722E-002  0.5137991E+03  0.7818608E-02  0.1010239E+00
         21   -1    0    0  501  502  0.00000000000E+00  0.00000000000E+00  0.35624491835E+03  0.35624491835E+03  0.00000000000E+00 0. -1.
         21   -1    0    0  502  503 -0.00000000000E+00 -0.00000000000E+00 -0.10983859686E+04  0.10983859686E+04  0.00000000000E+00 0.  1.
    9000007    1    1    2  501    0  0.28049890540E+03  0.15909075985E+03  0.43781835632E+02  0.51566108534E+03  0.40000000000E+03 0. -1.
   -9000007    1    1    2    0  503 -0.28049890540E+03 -0.15909075985E+03 -0.78592288589E+03  0.93896980163E+03  0.40000000000E+03 0.  1.
<mgrwt>
<rscale>  2 0.51379909E+03</rscale>
<asrwt>0</asrwt>
<pdfrwt beam="1">  1       21 0.54806911E-01 0.51379909E+03</pdfrwt>
<pdfrwt beam="2">  1       21 0.16898245E+00 0.51379909E+03</pdfrwt>
<totfact> 0.55153034E+02</totfact>
</mgrwt>
</event>
<event>
 4    1  0.5013722E-002  0.4169070E+03  0.7818608E-02  0.1038078E+00
         21   -1    0    0  501  502  0.00000000000E+00  0.00000000000E+00  0.76863541685E+03  0.76863541685E+03  0.00000000000E+00 0. -1.
         21   -1    0    0  502  503 -0.00000000000E+00 -0.00000000000E+00 -0.32859595840E+03  0.32859595840E+03  0.00000000000E+00 0. -1.
    9000007    1    1    2  501    0 -0.11751857068E+03 -0.89622874663E+00  0.52637631262E+03  0.67147854781E+03  0.40000000000E+03 0. -1.
   -9000007    1    1    2    0  503  0.11751857068E+03  0.89622874663E+00 -0.86336854177E+02  0.42575282744E+03  0.40000000000E+03 0. -1.
<mgrwt>
<rscale>  2 0.41690697E+03</rscale>
<asrwt>0</asrwt>
<pdfrwt beam="1">  1       21 0.11825160E+00 0.41690697E+03</pdfrwt>
<pdfrwt beam="2">  1       21 0.50553224E-01 0.41690697E+03</pdfrwt>
<totfact> 0.17743404E+03</totfact>
</mgrwt>
</event>
<event>
 4    1  0.5013722E-002  0.4517853E+03  0.7818608E-02  0.1027191E+00
         21   -1    0    0  503  502  0.00000000000E+00  0.00000000000E+00  0.43307597539E+03  0.43307597539E+03  0.00000000000E+00 0.  1.
         21   -1    0    0  501  503 -0.00000000000E+00 -0.00000000000E+00 -0.48270541310E+03  0.48270541310E+03  0.00000000000E+00 0.  1.
    9000007    1    1    2  501    0 -0.97653433755E+02  0.18594013102E+03  0.45560973340E+02  0.45407678617E+03  0.40000000000E+03 0.  1.
   -9000007    1    1    2    0  502  0.97653433755E+02 -0.18594013102E+03 -0.95190411054E+02  0.46170460232E+03  0.40000000000E+03 0.  1.
<mgrwt>
<rscale>  2 0.45178526E+03</rscale>
<asrwt>0</asrwt>
<pdfrwt beam="1">  1       21 0.66627073E-01 0.45178526E+03</pdfrwt>
<pdfrwt beam="2">  1       21 0.74262371E-01 0.45178526E+03</pdfrwt>
<totfact> 0.29196447E+03</totfact>
</mgrwt>
</event>
<event>
 4    1  0.5013722E-002  0.5371075E+03  0.7818608E-02  0.1004523E+00
         21   -1    0    0  503  502  0.00000000000E+00  0.00000000000E+00  0.29724463748E+03  0.29724463748E+03  0.00000000000E+00 0.  1.
         21   -1    0    0  501  503 -0.00000000000E+00 -0.00000000000E+00 -0.98599244797E+03  0.98599244797E+03  0.00000000000E+00 0. -1.
    9000007    1    1    2  501    0 -0.67529112806E+02 -0.35202888097E+03 -0.26402230320E+03  0.59849167973E+03  0.40000000000E+03 0. -1.
   -9000007    1    1    2    0  502  0.67529112806E+02  0.35202888097E+03 -0.42472550730E+03  0.68474540573E+03  0.40000000000E+03 0. -1.
<mgrwt>
<rscale>  2 0.53710754E+03</rscale>
<asrwt>0</asrwt>
<pdfrwt beam="1">  1       21 0.45729943E-01 0.53710754E+03</pdfrwt>
<pdfrwt beam="2">  1       21 0.15169115E+00 0.53710754E+03</pdfrwt>
<totfact> 0.10887574E+03</totfact>
</mgrwt>
</event>
<event>
 4    1  0.5013722E-002  0.5790006E+03  0.7818608E-02  0.9949957E-01
         21   -1    0    0  503  502  0.00000000000E+00  0.00000000000E+00  0.10075321290E+04  0.10075321290E+04  0.00000000000E+00 0.  1.
         21   -1    0    0  501  503 -0.00000000000E+00 -0.00000000000E+00 -0.33367775119E+03  0.33367775119E+03  0.00000000000E+00 0. -1.
    9000007    1    1    2  501    0 -0.38326644211E+03  0.16837010328E+03  0.30129046563E+03  0.65270023901E+03  0.40000000000E+03 0.  1.
   -9000007    1    1    2    0  502  0.38326644211E+03 -0.16837010328E+03  0.37256391216E+03  0.68850964116E+03  0.40000000000E+03 0.  1.
<mgrwt>
<rscale>  2 0.57900057E+03</rscale>
<asrwt>0</asrwt>
<pdfrwt beam="1">  1       21 0.15500494E+00 0.57900057E+03</pdfrwt>
<pdfrwt beam="2">  1       21 0.51335039E-01 0.57900057E+03</pdfrwt>
<totfact> 0.79066061E+02</totfact>
</mgrwt>
</event>
<event>
 4    1  0.5013722E-002  0.4868054E+03  0.7818608E-02  0.1017281E+00
         21   -1    0    0  501  502  0.00000000000E+00  0.00000000000E+00  0.13914257790E+04  0.13914257790E+04  0.00000000000E+00 0. -1.
         21   -1    0    0  502  503 -0.00000000000E+00 -0.00000000000E+00 -0.23938328385E+03  0.23938328385E+03  0.00000000000E+00 0. -1.
    9000007    1    1    2  501    0  0.22912074726E+03 -0.15647115374E+03  0.10140152112E+04  0.11248139345E+04  0.40000000000E+03 0. -1.
   -9000007    1    1    2    0  503 -0.22912074726E+03  0.15647115374E+03  0.13802728398E+03  0.50599512833E+03  0.40000000000E+03 0. -1.
<mgrwt>
<rscale>  2 0.48680544E+03</rscale>
<asrwt>0</asrwt>
<pdfrwt beam="1">  1       21 0.21406550E+00 0.48680544E+03</pdfrwt>
<pdfrwt beam="2">  1       21 0.36828198E-01 0.48680544E+03</pdfrwt>
<totfact> 0.63020565E+02</totfact>
</mgrwt>
</event>
<event>
 4    1  0.5013722E-002  0.4677738E+03  0.7818608E-02  0.1022550E+00
         21   -1    0    0  503  502  0.00000000000E+00  0.00000000000E+00  0.47868201848E+03  0.47868201848E+03  0.00000000000E+00 0. -1.
         21   -1    0    0  501  503 -0.00000000000E+00 -0.00000000000E+00 -0.45715388840E+03  0.45715388840E+03  0.00000000000E+00 0. -1.
    9000007    1    1    2  501    0 -0.17341820996E+03 -0.16952416644E+03  0.15127271915E+02  0.46801832540E+03  0.40000000000E+03 0. -1.
   -9000007    1    1    2    0  502  0.17341820996E+03  0.16952416644E+03  0.64008581662E+01  0.46781758148E+03  0.40000000000E+03 0. -1.
<mgrwt>
<rscale>  2 0.46777379E+03</rscale>
<asrwt>0</asrwt>
<pdfrwt beam="1">  1       21 0.73643388E-01 0.46777379E+03</pdfrwt>
<pdfrwt beam="2">  1       21 0.70331367E-01 0.46777379E+03</pdfrwt>
<totfact> 0.26208320E+03</totfact>
</mgrwt>
</event>
<event>
 4    1  0.5013722E-002  0.4666248E+03  0.7818608E-02  0.1022877E+00
         21   -1    0    0  503  502  0.00000000000E+00  0.00000000000E+00  0.33900034215E+03  0.33900034215E+03  0.00000000000E+00 0. -1.
         21   -1    0    0  501  503 -0.00000000000E+00 -0.00000000000E+00 -0.64238438713E+03  0.64238438713E+03  0.00000000000E+00 0.  1.
    9000007    1    1    2  501    0  0.13259903080E+03  0.20039021350E+03 -0.15743081743E+03  0.49246644851E+03  0.40000000000E+03 0.  1.
   -9000007    1    1    2    0  502 -0.13259903080E+03 -0.20039021350E+03 -0.14595322756E+03  0.48891828077E+03  0.40000000000E+03 0. -1.
<mgrwt>
<rscale>  2 0.46662484E+03</rscale>
<asrwt>0</asrwt>
<pdfrwt beam="1">  1       21 0.52153899E-01 0.46662484E+03</pdfrwt>
<pdfrwt beam="2">  1       21 0.98828367E-01 0.46662484E+03</pdfrwt>
<totfact> 0.25375465E+03</totfact>
</mgrwt>
</event>
<event>
 4    1  0.5013722E-002  0.5142742E+03  0.7818608E-02  0.1010119E+00
         21   -1    0    0  503  502  0.00000000000E+00  0.00000000000E+00  0.94004197024E+03  0.94004197024E+03  0.00000000000E+00 0. -1.
         21   -1    0    0  501  503 -0.00000000000E+00 -0.00000000000E+00 -0.28570086539E+03  0.28570086539E+03  0.00000000000E+00 0.  1.
    9000007    1    1    2  501    0  0.22158731780E+03  0.23532326615E+03  0.40282798110E+03  0.65325979622E+03  0.40000000000E+03 0.  1.
   -9000007    1    1    2    0  502 -0.22158731780E+03 -0.23532326615E+03  0.25151312375E+03  0.57248303942E+03  0.40000000000E+03 0. -1.
<mgrwt>
<rscale>  2 0.51427423E+03</rscale>
<asrwt>0</asrwt>
<pdfrwt beam="1">  1       21 0.14462184E+00 0.51427423E+03</pdfrwt>
<pdfrwt beam="2">  1       21 0.43953980E-01 0.51427423E+03</pdfrwt>
<totfact> 0.13580538E+03</totfact>
</mgrwt>
</event>
<event>
 4    1  0.5013722E-002  0.5557241E+03  0.7818608E-02  0.1000178E+00
         21   -1    0    0  503  502  0.00000000000E+00  0.00000000000E+00  0.16664732787E+04  0.16664732787E+04  0.00000000000E+00 0.  1.
         21   -1    0    0  501  503 -0.00000000000E+00 -0.00000000000E+00 -0.22705107114E+03  0.22705107114E+03  0.00000000000E+00 0.  1.
    9000007    1    1    2  501    0  0.25435012479E+02 -0.38494458261E+03  0.31381606109E+03  0.63820826674E+03  0.40000000000E+03 0.  1.
   -9000007    1    1    2    0  502 -0.25435012479E+02  0.38494458261E+03  0.11256061465E+04  0.12553160831E+04  0.40000000000E+03 0.  1.
<mgrwt>
<rscale>  2 0.55572410E+03</rscale>
<asrwt>0</asrwt>
<pdfrwt beam="1">  1       21 0.25638050E+00 0.55572410E+03</pdfrwt>
<pdfrwt beam="2">  1       21 0.34930935E-01 0.55572410E+03</pdfrwt>
<totfact> 0.36849856E+02</totfact>
</mgrwt>
</event>
<event>
 4    1  0.5013722E-002  0.4480189E+03  0.7818608E-02  0.1028314E+00
         21   -1    0    0  501  502  0.00000000000E+00  0.00000000000E+00  0.20471662451E+04  0.20471662451E+04  0.00000000000E+00 0.  1.
         21   -1    0    0  502  503 -0.00000000000E+00 -0.00000000000E+00 -0.10347863041E+03  0.10347863041E+03  0.00000000000E+00 0.  1.
    9000007    1    1    2  501    0 -0.12449906474E+03 -0.15881096365E+03  0.72550603556E+03  0.85268983044E+03  0.40000000000E+03 0.  1.
   -9000007    1    1    2    0  503  0.12449906474E+03  0.15881096365E+03  0.12181815792E+04  0.12979550451E+04  0.40000000000E+03 0.  1.
<mgrwt>
<rscale>  2 0.44801891E+03</rscale>
<asrwt>0</asrwt>
<pdfrwt beam="1">  1       21 0.31494862E+00 0.44801891E+03</pdfrwt>
<pdfrwt beam="2">  1       21 0.15919791E-01 0.44801891E+03</pdfrwt>
<totfact> 0.78899349E+02</totfact>
</mgrwt>
</event>
<event>
 4    1  0.5013722E-002  0.4381520E+03  0.7818608E-02  0.1031315E+00
         21   -1    0    0  501  502  0.00000000000E+00  0.00000000000E+00  0.10042337830E+04  0.10042337830E+04  0.00000000000E+00 0.  1.
         21   -1    0    0  502  503 -0.00000000000E+00 -0.00000000000E+00 -0.33561920718E+03  0.33561920718E+03  0.00000000000E+00 0.  1.
    9000007    1    1    2  501    0  0.89912055265E+01  0.17859546063E+03  0.77381309033E+03  0.88924905347E+03  0.40000000000E+03 0.  1.
   -9000007    1    1    2    0  503 -0.89912055265E+01 -0.17859546063E+03 -0.10519851450E+03  0.45060393672E+03  0.40000000000E+03 0.  1.
<mgrwt>
<rscale>  2 0.43815201E+03</rscale>
<asrwt>0</asrwt>
<pdfrwt beam="1">  1       21 0.15449750E+00 0.43815201E+03</pdfrwt>
<pdfrwt beam="2">  1       21 0.51633725E-01 0.43815201E+03</pdfrwt>
<totfact> 0.83248558E+02</totfact>
</mgrwt>
</event>
<event>
 4    1  0.5013722E-002  0.4738614E+03  0.7818608E-02  0.1020836E+00
         21   -1    0    0  501  502  0.00000000000E+00  0.00000000000E+00  0.19960851962E+03  0.19960851962E+03  0.00000000000E+00 0.  1.
         21   -1    0    0  502  503 -0.00000000000E+00 -0.00000000000E+00 -0.31724950439E+04  0.31724950439E+04  0.00000000000E+00 0.  1.
    9000007    1    1    2  501    0 -0.79783514237E+02 -0.24120364540E+03 -0.13190954740E+03  0.49187878222E+03  0.40000000000E+03 0.  1.
   -9000007    1    1    2    0  503  0.79783514237E+02  0.24120364540E+03 -0.28409769769E+04  0.28802247813E+04  0.40000000000E+03 0.  1.
<mgrwt>
<rscale>  2 0.47386138E+03</rscale>
<asrwt>0</asrwt>
<pdfrwt beam="1">  1       21 0.30709002E-01 0.47386138E+03</pdfrwt>
<pdfrwt beam="2">  1       21 0.48807618E+00 0.47386138E+03</pdfrwt>
<totfact> 0.16628996E+01</totfact>
</mgrwt>
</event>
<event>
 4    1  0.5013722E-002  0.4117047E+03  0.7818608E-02  0.1039800E+00
         21   -1    0    0  501  502  0.00000000000E+00  0.00000000000E+00  0.25274162896E+03  0.25274162896E+03  0.00000000000E+00 0. -1.
         21   -1    0    0  502  503 -0.00000000000E+00 -0.00000000000E+00 -0.95365471849E+03  0.95365471849E+03  0.00000000000E+00 0. -1.
    9000007    1    1    2  501    0  0.63034586015E+01 -0.97267949604E+02 -0.21860412975E+02  0.41228468958E+03  0.40000000000E+03 0.  1.
   -9000007    1    1    2    0  503 -0.63034586015E+01  0.97267949604E+02 -0.67905267655E+03  0.79411165786E+03  0.40000000000E+03 0.  1.
<mgrwt>
<rscale>  2 0.41170473E+03</rscale>
<asrwt>0</asrwt>
<pdfrwt beam="1">  1       21 0.38883329E-01 0.41170473E+03</pdfrwt>
<pdfrwt beam="2">  1       21 0.14671611E+00 0.41170473E+03</pdfrwt>
<totfact> 0.17537051E+03</totfact>
</mgrwt>
</event>
<event>
 4    1  0.5013722E-002  0.4806439E+03  0.7818608E-02  0.1018958E+00
         21   -1    0    0  501  502  0.00000000000E+00  0.00000000000E+00  0.30609168220E+04  0.30609168220E+04  0.00000000000E+00 0.  1.
         21   -1    0    0  502  503 -0.00000000000E+00 -0.00000000000E+00 -0.26697918099E+03  0.26697918099E+03  0.00000000000E+00 0.  1.
    9000007    1    1    2  501    0 -0.59727022050E+01  0.26642606411E+03  0.28062307809E+04  0.28470949609E+04  0.40000000000E+03 0.  1.
   -9000007    1    1    2    0  503  0.59727022050E+01 -0.26642606411E+03 -0.12293139853E+02  0.48080104211E+03  0.40000000000E+03 0.  1.
<mgrwt>
<rscale>  2 0.48064386E+03</rscale>
<asrwt>0</asrwt>
<pdfrwt beam="1">  1       21 0.47091025E+00 0.48064386E+03</pdfrwt>
<pdfrwt beam="2">  1       21 0.41073722E-01 0.48064386E+03</pdfrwt>
<totfact> 0.12082235E+01</totfact>
</mgrwt>
</event>
<event>
 4    1  0.5013722E-002  0.4824347E+03  0.7818608E-02  0.1018468E+00
         21   -1    0    0  501  502  0.00000000000E+00  0.00000000000E+00  0.39277651022E+03  0.39277651022E+03  0.00000000000E+00 0. -1.
         21   -1    0    0  502  503 -0.00000000000E+00 -0.00000000000E+00 -0.69606855160E+03  0.69606855160E+03  0.00000000000E+00 0. -1.
    9000007    1    1    2  501    0 -0.12977691406E+03 -0.23643434426E+03  0.58296471550E+02  0.48594415848E+03  0.40000000000E+03 0. -1.
   -9000007    1    1    2    0  503  0.12977691406E+03  0.23643434426E+03 -0.36158851293E+03  0.60290090334E+03  0.40000000000E+03 0. -1.
<mgrwt>
<rscale>  2 0.48243471E+03</rscale>
<asrwt>0</asrwt>
<pdfrwt beam="1">  1       21 0.60427156E-01 0.48243471E+03</pdfrwt>
<pdfrwt beam="2">  1       21 0.10708747E+00 0.48243471E+03</pdfrwt>
<totfact> 0.15056146E+03</totfact>
</mgrwt>
</event>
<event>
 4    1  0.5013722E-002  0.4270989E+03  0.7818608E-02  0.1034780E+00
         21   -1    0    0  501  502  0.00000000000E+00  0.00000000000E+00  0.61559219858E+03  0.61559219858E+03  0.00000000000E+00 0.  1.
         21   -1    0    0  502  503 -0.00000000000E+00 -0.00000000000E+00 -0.29867272658E+03  0.29867272658E+03  0.00000000000E+00 0.  1.
    9000007    1    1    2  501    0  0.11641296660E+03 -0.94135573414E+02  0.19901519442E+03  0.47119054806E+03  0.40000000000E+03 0.  1.
   -9000007    1    1    2    0  503 -0.11641296660E+03  0.94135573414E+02  0.11790427757E+03  0.44307437710E+03  0.40000000000E+03 0.  1.
<mgrwt>
<rscale>  2 0.42709892E+03</rscale>
<asrwt>0</asrwt>
<pdfrwt beam="1">  1       21 0.94706492E-01 0.42709892E+03</pdfrwt>
<pdfrwt beam="2">  1       21 0.45949650E-01 0.42709892E+03</pdfrwt>
<totfact> 0.37300768E+03</totfact>
</mgrwt>
</event>
<event>
 4    1  0.5013722E-002  0.4245519E+03  0.7818608E-02  0.1035595E+00
         21   -1    0    0  503  502  0.00000000000E+00  0.00000000000E+00  0.29331597395E+03  0.29331597395E+03  0.00000000000E+00 0. -1.
         21   -1    0    0  501  503 -0.00000000000E+00 -0.00000000000E+00 -0.68692346935E+03  0.68692346935E+03  0.00000000000E+00 0.  1.
    9000007    1    1    2  501    0 -0.99473000624E+02  0.10173201470E+03 -0.37666751027E+02  0.42621950307E+03  0.40000000000E+03 0. -1.
   -9000007    1    1    2    0  502  0.99473000624E+02 -0.10173201470E+03 -0.35594074437E+03  0.55401994023E+03  0.40000000000E+03 0.  1.
<mgrwt>
<rscale>  2 0.42455186E+03</rscale>
<asrwt>0</asrwt>
<pdfrwt beam="1">  1       21 0.45125535E-01 0.42455186E+03</pdfrwt>
<pdfrwt beam="2">  1       21 0.10568053E+00 0.42455186E+03</pdfrwt>
<totfact> 0.29719230E+03</totfact>
</mgrwt>
</event>
<event>
 4    1  0.5013722E-002  0.4886320E+03  0.7818608E-02  0.1016789E+00
         21   -1    0    0  501  502  0.00000000000E+00  0.00000000000E+00  0.44628504398E+03  0.44628504398E+03  0.00000000000E+00 0. -1.
         21   -1    0    0  502  503 -0.00000000000E+00 -0.00000000000E+00 -0.55879252901E+03  0.55879252901E+03  0.00000000000E+00 0.  1.
    9000007    1    1    2  501    0  0.42794271932E+02  0.27736244730E+03  0.47448841179E+02  0.49093041198E+03  0.40000000000E+03 0. -1.
   -9000007    1    1    2    0  503 -0.42794271932E+02 -0.27736244730E+03 -0.15995632621E+03  0.51414716101E+03  0.40000000000E+03 0.  1.
<mgrwt>
<rscale>  2 0.48863205E+03</rscale>
<asrwt>0</asrwt>
<pdfrwt beam="1">  1       21 0.68659238E-01 0.48863205E+03</pdfrwt>
<pdfrwt beam="2">  1       21 0.85968081E-01 0.48863205E+03</pdfrwt>
<totfact> 0.19207093E+03</totfact>
</mgrwt>
</event>
<event>
 4    1  0.5013722E-002  0.4318819E+03  0.7818608E-02  0.1033267E+00
         21   -1    0    0  503  502  0.00000000000E+00  0.00000000000E+00  0.27084915860E+03  0.27084915860E+03  0.00000000000E+00 0.  1.
         21   -1    0    0  501  503 -0.00000000000E+00 -0.00000000000E+00 -0.83377679462E+03  0.83377679462E+03  0.00000000000E+00 0.  1.
    9000007    1    1    2  501    0 -0.15155128683E+03  0.59617022971E+02 -0.51188622348E+03  0.66973837262E+03  0.40000000000E+03 0.  1.
   -9000007    1    1    2    0  502  0.15155128683E+03 -0.59617022971E+02 -0.51041412531E+02  0.43488758060E+03  0.40000000000E+03 0.  1.
<mgrwt>
<rscale>  2 0.43188191E+03</rscale>
<asrwt>0</asrwt>
<pdfrwt beam="1">  1       21 0.41669102E-01 0.43188191E+03</pdfrwt>
<pdfrwt beam="2">  1       21 0.12827335E+00 0.43188191E+03</pdfrwt>
<totfact> 0.21484687E+03</totfact>
</mgrwt>
</event>
<event>
 4    1  0.5013722E-002  0.4489061E+03  0.7818608E-02  0.1028049E+00
         21   -1    0    0  501  502  0.00000000000E+00  0.00000000000E+00  0.91288838632E+03  0.91288838632E+03  0.00000000000E+00 0. -1.
         21   -1    0    0  502  503 -0.00000000000E+00 -0.00000000000E+00 -0.23290404184E+03  0.23290404184E+03  0.00000000000E+00 0. -1.
    9000007    1    1    2  501    0 -0.10832348937E+03  0.17257680244E+03  0.20909991803E+03  0.49521662614E+03  0.40000000000E+03 0. -1.
   -9000007    1    1    2    0  503  0.10832348937E+03 -0.17257680244E+03  0.47088442645E+03  0.65057580201E+03  0.40000000000E+03 0. -1.
<mgrwt>
<rscale>  2 0.44890615E+03</rscale>
<asrwt>0</asrwt>
<pdfrwt beam="1">  1       21 0.14044436E+00 0.44890615E+03</pdfrwt>
<pdfrwt beam="2">  1       21 0.35831392E-01 0.44890615E+03</pdfrwt>
<totfact> 0.22934307E+03</totfact>
</mgrwt>
</event>
<event>
 4    1  0.5013722E-002  0.4299488E+03  0.7818608E-02  0.1033876E+00
         21   -1    0    0  503  502  0.00000000000E+00  0.00000000000E+00  0.20182340944E+03  0.20182340944E+03  0.00000000000E+00 0.  1.
         21   -1    0    0  501  503 -0.00000000000E+00 -0.00000000000E+00 -0.12307992895E+04  0.12307992895E+04  0.00000000000E+00 0.  1.
    9000007    1    1    2  501    0  0.14561220210E+03 -0.60440385855E+02 -0.87679259901E+03  0.97653531186E+03  0.40000000000E+03 0.  1.
   -9000007    1    1    2    0  502 -0.14561220210E+03  0.60440385855E+02 -0.15218328111E+03  0.45608738712E+03  0.40000000000E+03 0.  1.
<mgrwt>
<rscale>  2 0.42994878E+03</rscale>
<asrwt>0</asrwt>
<pdfrwt beam="1">  1       21 0.31049755E-01 0.42994878E+03</pdfrwt>
<pdfrwt beam="2">  1       21 0.18935374E+00 0.42994878E+03</pdfrwt>
<totfact> 0.13324624E+03</totfact>
</mgrwt>
</event>
<event>
 4    1  0.5013722E-002  0.4532789E+03  0.7818608E-02  0.1026749E+00
         21   -1    0    0  501  502  0.00000000000E+00  0.00000000000E+00  0.35488843887E+03  0.35488843887E+03  0.00000000000E+00 0. -1.
         21   -1    0    0  502  503 -0.00000000000E+00 -0.00000000000E+00 -0.82405795869E+03  0.82405795869E+03  0.00000000000E+00 0. -1.
    9000007    1    1    2  501    0  0.21315620930E+03  0.51200991618E+01  0.86904212202E+02  0.46153453508E+03  0.40000000000E+03 0. -1.
   -9000007    1    1    2    0  503 -0.21315620930E+03 -0.51200991618E+01 -0.55607373202E+03  0.71741186248E+03  0.40000000000E+03 0. -1.
<mgrwt>
<rscale>  2 0.45327893E+03</rscale>
<asrwt>0</asrwt>
<pdfrwt beam="1">  1       21 0.54598222E-01 0.45327893E+03</pdfrwt>
<pdfrwt beam="2">  1       21 0.12677815E+00 0.45327893E+03</pdfrwt>
<totfact> 0.12405978E+03</totfact>
</mgrwt>
</event>
<event>
 4    1  0.5013722E-002  0.4204241E+03  0.7818608E-02  0.1036928E+00
         21   -1    0    0  501  502  0.00000000000E+00  0.00000000000E+00  0.24029712732E+03  0.24029712732E+03  0.00000000000E+00 0.  1.
         21   -1    0    0  502  503 -0.00000000000E+00 -0.00000000000E+00 -0.77779144608E+03  0.77779144608E+03  0.00000000000E+00 0.  1.
    9000007    1    1    2  501    0  0.95117465595E+02 -0.87801213617E+02 -0.15015156748E+03  0.44643238972E+03  0.40000000000E+03 0. -1.
   -9000007    1    1    2    0  503 -0.95117465595E+02  0.87801213617E+02 -0.38734275127E+03  0.57165618368E+03  0.40000000000E+03 0. -1.
<mgrwt>
<rscale>  2 0.42042405E+03</rscale>
<asrwt>0</asrwt>
<pdfrwt beam="1">  1       21 0.36968789E-01 0.42042405E+03</pdfrwt>
<pdfrwt beam="2">  1       21 0.11966022E+00 0.42042405E+03</pdfrwt>
<totfact> 0.32968226E+03</totfact>
</mgrwt>
</event>
<event>
 4    1  0.5013722E-002  0.4262104E+03  0.7818608E-02  0.1035064E+00
         21   -1    0    0  501  502  0.00000000000E+00  0.00000000000E+00  0.58706154997E+03  0.58706154997E+03  0.00000000000E+00 0. -1.
         21   -1    0    0  502  503 -0.00000000000E+00 -0.00000000000E+00 -0.31372594527E+03  0.31372594527E+03  0.00000000000E+00 0. -1.
    9000007    1    1    2  501    0  0.97980071736E+02 -0.10979609138E+03  0.18936358106E+03  0.46638379257E+03  0.40000000000E+03 0. -1.
   -9000007    1    1    2    0  503 -0.97980071736E+02  0.10979609138E+03  0.83972023648E+02  0.43440370267E+03  0.40000000000E+03 0. -1.
<mgrwt>
<rscale>  2 0.42621037E+03</rscale>
<asrwt>0</asrwt>
<pdfrwt beam="1">  1       21 0.90317162E-01 0.42621037E+03</pdfrwt>
<pdfrwt beam="2">  1       21 0.48265530E-01 0.42621037E+03</pdfrwt>
<totfact> 0.37663516E+03</totfact>
</mgrwt>
</event>
<event>
 4    1  0.5013722E-002  0.4100837E+03  0.7818608E-02  0.1040343E+00
         21   -1    0    0  501  502  0.00000000000E+00  0.00000000000E+00  0.13085278258E+03  0.13085278258E+03  0.00000000000E+00 0.  1.
         21   -1    0    0  502  503 -0.00000000000E+00 -0.00000000000E+00 -0.13679082873E+04  0.13679082873E+04  0.00000000000E+00 0.  1.
    9000007    1    1    2  501    0  0.87700868724E+02 -0.21845745602E+02 -0.43423214732E+03  0.59726563331E+03  0.40000000000E+03 0.  1.
   -9000007    1    1    2    0  503 -0.87700868724E+02  0.21845745602E+02 -0.80282335745E+03  0.90149543662E+03  0.40000000000E+03 0.  1.
<mgrwt>
<rscale>  2 0.41008375E+03</rscale>
<asrwt>0</asrwt>
<pdfrwt beam="1">  1       21 0.20131196E-01 0.41008375E+03</pdfrwt>
<pdfrwt beam="2">  1       21 0.21044744E+00 0.41008375E+03</pdfrwt>
<totfact> 0.22604676E+03</totfact>
</mgrwt>
</event>
<event>
 4    1  0.5013722E-002  0.5105884E+03  0.7818608E-02  0.1011052E+00
         21   -1    0    0  503  502  0.00000000000E+00  0.00000000000E+00  0.13767386700E+04  0.13767386700E+04  0.00000000000E+00 0. -1.
         21   -1    0    0  501  503 -0.00000000000E+00 -0.00000000000E+00 -0.39282181514E+03  0.39282181514E+03  0.00000000000E+00 0. -1.
    9000007    1    1    2  501    0 -0.16701178262E+03  0.26982884107E+03 -0.14480492886E+03  0.53072498191E+03  0.40000000000E+03 0. -1.
   -9000007    1    1    2    0  502  0.16701178262E+03 -0.26982884107E+03  0.11287217837E+04  0.12388355032E+04  0.40000000000E+03 0. -1.
<mgrwt>
<rscale>  2 0.51058842E+03</rscale>
<asrwt>0</asrwt>
<pdfrwt beam="1">  1       21 0.21180595E+00 0.51058842E+03</pdfrwt>
<pdfrwt beam="2">  1       21 0.60434126E-01 0.51058842E+03</pdfrwt>
<totfact> 0.22613285E+02</totfact>
</mgrwt>
</event>
<event>
 4    1  0.5013722E-002  0.5105436E+03  0.7818608E-02  0.1011063E+00
         21   -1    0    0  503  502  0.00000000000E+00  0.00000000000E+00  0.83914434101E+03  0.83914434101E+03  0.00000000000E+00 0.  1.
         21   -1    0    0  501  503 -0.00000000000E+00 -0.00000000000E+00 -0.12913282843E+04  0.12913282843E+04  0.00000000000E+00 0.  1.
    9000007    1    1    2  501    0  0.27535327591E+03 -0.15759234053E+03 -0.11544117787E+04  0.12622683261E+04  0.40000000000E+03 0.  1.
   -9000007    1    1    2    0  502 -0.27535327591E+03  0.15759234053E+03  0.70222783539E+03  0.86820429920E+03  0.40000000000E+03 0.  1.
<mgrwt>
<rscale>  2 0.51054360E+03</rscale>
<asrwt>0</asrwt>
<pdfrwt beam="1">  1       21 0.12909913E+00 0.51054360E+03</pdfrwt>
<pdfrwt beam="2">  1       21 0.19866589E+00 0.51054360E+03</pdfrwt>
<totfact> 0.45441290E+01</totfact>
</mgrwt>
</event>
<event>
 4    1  0.5013722E-002  0.4186849E+03  0.7818608E-02  0.1037495E+00
         21   -1    0    0  503  502  0.00000000000E+00  0.00000000000E+00  0.55119912213E+03  0.55119912213E+03  0.00000000000E+00 0.  1.
         21   -1    0    0  501  503 -0.00000000000E+00 -0.00000000000E+00 -0.32184908744E+03  0.32184908744E+03  0.00000000000E+00 0.  1.
    9000007    1    1    2  501    0  0.99262220911E+02  0.73783725991E+02  0.67114398097E+02  0.42402991540E+03  0.40000000000E+03 0.  1.
   -9000007    1    1    2    0  502 -0.99262220911E+02 -0.73783725991E+02  0.16223563660E+03  0.44901829417E+03  0.40000000000E+03 0.  1.
<mgrwt>
<rscale>  2 0.41868488E+03</rscale>
<asrwt>0</asrwt>
<pdfrwt beam="1">  1       21 0.84799865E-01 0.41868488E+03</pdfrwt>
<pdfrwt beam="2">  1       21 0.49515244E-01 0.41868488E+03</pdfrwt>
<totfact> 0.41490838E+03</totfact>
</mgrwt>
</event>
<event>
 4    1  0.5013722E-002  0.5561613E+03  0.7818608E-02  0.1000078E+00
         21   -1    0    0  503  502  0.00000000000E+00  0.00000000000E+00  0.17200991546E+04  0.17200991546E+04  0.00000000000E+00 0.  1.
         21   -1    0    0  501  503 -0.00000000000E+00 -0.00000000000E+00 -0.17983576705E+03  0.17983576705E+03  0.00000000000E+00 0.  1.
    9000007    1    1    2  501    0  0.93756978362E+02 -0.37486659705E+03  0.77777293748E+03  0.95616216138E+03  0.40000000000E+03 0.  1.
   -9000007    1    1    2    0  502 -0.93756978362E+02  0.37486659705E+03  0.76249045009E+03  0.94377276029E+03  0.40000000000E+03 0.  1.
<mgrwt>
<rscale>  2 0.55616125E+03</rscale>
<asrwt>0</asrwt>
<pdfrwt beam="1">  1       21 0.26463063E+00 0.55616125E+03</pdfrwt>
<pdfrwt beam="2">  1       21 0.27667042E-01 0.55616125E+03</pdfrwt>
<totfact> 0.52308605E+02</totfact>
</mgrwt>
</event>
<event>
 4    1  0.5013722E-002  0.4246530E+03  0.7818608E-02  0.1035562E+00
         21   -1    0    0  501  502  0.00000000000E+00  0.00000000000E+00  0.71537039164E+03  0.71537039164E+03  0.00000000000E+00 0. -1.
         21   -1    0    0  502  503 -0.00000000000E+00 -0.00000000000E+00 -0.43279521602E+03  0.43279521602E+03  0.00000000000E+00 0. -1.
    9000007    1    1    2  501    0 -0.68134826848E+02  0.12525088228E+03  0.51225127154E+03  0.66538072059E+03  0.40000000000E+03 0. -1.
   -9000007    1    1    2    0  503  0.68134826848E+02 -0.12525088228E+03 -0.22967609592E+03  0.48278488707E+03  0.40000000000E+03 0. -1.
<mgrwt>
<rscale>  2 0.42465296E+03</rscale>
<asrwt>0</asrwt>
<pdfrwt beam="1">  1       21 0.11005698E+00 0.42465296E+03</pdfrwt>
<pdfrwt beam="2">  1       21 0.66583880E-01 0.42465296E+03</pdfrwt>
<totfact> 0.11615419E+03</totfact>
</mgrwt>
</event>
<event>
 4    1  0.5013722E-002  0.4484535E+03  0.7818608E-02  0.1028184E+00
         21   -1    0    0  501  502  0.00000000000E+00  0.00000000000E+00  0.55287789742E+03  0.55287789742E+03  0.00000000000E+00 0. -1.
         21   -1    0    0  502  503 -0.00000000000E+00 -0.00000000000E+00 -0.47132791925E+03  0.47132791925E+03  0.00000000000E+00 0. -1.
    9000007    1    1    2  501    0  0.20269827970E+03  0.48952143283E+01  0.28542924396E+03  0.53158292771E+03  0.40000000000E+03 0. -1.
   -9000007    1    1    2    0  503 -0.20269827970E+03 -0.48952143283E+01 -0.20387926580E+03  0.49262288897E+03  0.40000000000E+03 0. -1.
<mgrwt>
<rscale>  2 0.44845352E+03</rscale>
<asrwt>0</asrwt>
<pdfrwt beam="1">  1       21 0.85058138E-01 0.44845352E+03</pdfrwt>
<pdfrwt beam="2">  1       21 0.72511987E-01 0.44845352E+03</pdfrwt>
<totfact> 0.17666785E+03</totfact>
</mgrwt>
</event>
<event>
 4    1  0.5013722E-002  0.4123713E+03  0.7818608E-02  0.1039578E+00
         21   -1    0    0  503  502  0.00000000000E+00  0.00000000000E+00  0.55873184861E+03  0.55873184861E+03  0.00000000000E+00 0.  1.
         21   -1    0    0  501  503 -0.00000000000E+00 -0.00000000000E+00 -0.40446925718E+03  0.40446925718E+03  0.00000000000E+00 0.  1.
    9000007    1    1    2  501    0  0.84954763532E+02  0.53223985150E+02 -0.16247750755E+03  0.44322572681E+03  0.40000000000E+03 0.  1.
   -9000007    1    1    2    0  502 -0.84954763532E+02 -0.53223985150E+02  0.31674009898E+03  0.51997537898E+03  0.40000000000E+03 0.  1.
<mgrwt>
<rscale>  2 0.41237132E+03</rscale>
<asrwt>0</asrwt>
<pdfrwt beam="1">  1       21 0.85958747E-01 0.41237132E+03</pdfrwt>
<pdfrwt beam="2">  1       21 0.62226039E-01 0.41237132E+03</pdfrwt>
<totfact> 0.24599238E+03</totfact>
</mgrwt>
</event>
<event>
 4    1  0.5013722E-002  0.4415322E+03  0.7818608E-02  0.1030278E+00
         21   -1    0    0  501  502  0.00000000000E+00  0.00000000000E+00  0.30599857958E+03  0.30599857958E+03  0.00000000000E+00 0.  1.
         21   -1    0    0  502  503 -0.00000000000E+00 -0.00000000000E+00 -0.63923098099E+03  0.63923098099E+03  0.00000000000E+00 0.  1.
    9000007    1    1    2  501    0  0.16579174038E+03  0.86393318706E+02 -0.13930775004E+03  0.46298742523E+03  0.40000000000E+03 0.  1.
   -9000007    1    1    2    0  503 -0.16579174038E+03 -0.86393318706E+02 -0.19392465137E+03  0.48224213535E+03  0.40000000000E+03 0.  1.
<mgrwt>
<rscale>  2 0.44153223E+03</rscale>
<asrwt>0</asrwt>
<pdfrwt beam="1">  1       21 0.47076705E-01 0.44153223E+03</pdfrwt>
<pdfrwt beam="2">  1       21 0.98343227E-01 0.44153223E+03</pdfrwt>
<totfact> 0.32209759E+03</totfact>
</mgrwt>
</event>
<event>
 4    1  0.5013722E-002  0.4739389E+03  0.7818608E-02  0.1020814E+00
         21   -1    0    0  501  502  0.00000000000E+00  0.00000000000E+00  0.22673899203E+03  0.22673899203E+03  0.00000000000E+00 0. -1.
         21   -1    0    0  502  503 -0.00000000000E+00 -0.00000000000E+00 -0.18166171572E+04  0.18166171572E+04  0.00000000000E+00 0. -1.
    9000007    1    1    2  501    0  0.57751023404E+02  0.24755385451E+03 -0.10602543231E+03  0.48565366660E+03  0.40000000000E+03 0. -1.
   -9000007    1    1    2    0  503 -0.57751023404E+02 -0.24755385451E+03 -0.14838527328E+04  0.15577024826E+04  0.40000000000E+03 0. -1.
<mgrwt>
<rscale>  2 0.47393891E+03</rscale>
<asrwt>0</asrwt>
<pdfrwt beam="1">  1       21 0.34882922E-01 0.47393891E+03</pdfrwt>
<pdfrwt beam="2">  1       21 0.27947956E+00 0.47393891E+03</pdfrwt>
<totfact> 0.27801809E+02</totfact>
</mgrwt>
</event>
<event>
 4    1  0.5013722E-002  0.5644998E+03  0.7818608E-02  0.9981924E-01
         21   -1    0    0  503  502  0.00000000000E+00  0.00000000000E+00  0.65553155035E+03  0.65553155035E+03  0.00000000000E+00 0.  1.
         21   -1    0    0  501  503 -0.00000000000E+00 -0.00000000000E+00 -0.50224547056E+03  0.50224547056E+03  0.00000000000E+00 0. -1.
    9000007    1    1    2  501    0 -0.38015531443E+03 -0.11892004445E+03  0.18040447825E+03  0.59262620246E+03  0.40000000000E+03 0.  1.
   -9000007    1    1    2    0  502  0.38015531443E+03  0.11892004445E+03 -0.27118398466E+02  0.56515081846E+03  0.40000000000E+03 0. -1.
<mgrwt>
<rscale>  2 0.56449981E+03</rscale>
<asrwt>0</asrwt>
<pdfrwt beam="1">  1       21 0.10085101E+00 0.56449981E+03</pdfrwt>
<pdfrwt beam="2">  1       21 0.77268534E-01 0.56449981E+03</pdfrwt>
<totfact> 0.97603242E+02</totfact>
</mgrwt>
</event>
<event>
 4    1  0.5013722E-002  0.5113760E+03  0.7818608E-02  0.1010852E+00
         21   -1    0    0  503  502  0.00000000000E+00  0.00000000000E+00  0.46724527641E+03  0.46724527641E+03  0.00000000000E+00 0. -1.
         21   -1    0    0  501  503 -0.00000000000E+00 -0.00000000000E+00 -0.63029011871E+03  0.63029011871E+03  0.00000000000E+00 0. -1.
    9000007    1    1    2  501    0  0.26367439357E+02 -0.31750609864E+03 -0.26520502567E+03  0.57605474581E+03  0.40000000000E+03 0. -1.
   -9000007    1    1    2    0  502 -0.26367439357E+02  0.31750609864E+03  0.10216018337E+03  0.52148064930E+03  0.40000000000E+03 0. -1.
<mgrwt>
<rscale>  2 0.51137595E+03</rscale>
<asrwt>0</asrwt>
<pdfrwt beam="1">  1       21 0.71883889E-01 0.51137595E+03</pdfrwt>
<pdfrwt beam="2">  1       21 0.96967711E-01 0.51137595E+03</pdfrwt>
<totfact> 0.12895753E+03</totfact>
</mgrwt>
</event>
<event>
 4    1  0.5013722E-002  0.5325484E+03  0.7818608E-02  0.1005616E+00
         21   -1    0    0  501  502  0.00000000000E+00  0.00000000000E+00  0.18522960567E+03  0.18522960567E+03  0.00000000000E+00 0.  1.
         21   -1    0    0  502  503 -0.00000000000E+00 -0.00000000000E+00 -0.16265080381E+04  0.16265080381E+04  0.00000000000E+00 0.  1.
    9000007    1    1    2  501    0 -0.25863442733E+03 -0.23815134012E+03 -0.50125996772E+03  0.73134764855E+03  0.40000000000E+03 0.  1.
   -9000007    1    1    2    0  503  0.25863442733E+03  0.23815134012E+03 -0.94001846474E+03  0.10803899953E+04  0.40000000000E+03 0.  1.
<mgrwt>
<rscale>  2 0.53254843E+03</rscale>
<asrwt>0</asrwt>
<pdfrwt beam="1">  1       21 0.28496862E-01 0.53254843E+03</pdfrwt>
<pdfrwt beam="2">  1       21 0.25023201E+00 0.53254843E+03</pdfrwt>
<totfact> 0.61124345E+02</totfact>
</mgrwt>
</event>
<event>
 4    1  0.5013722E-002  0.4005106E+03  0.7818608E-02  0.1043603E+00
         21   -1    0    0  503  502  0.00000000000E+00  0.00000000000E+00  0.18645961664E+04  0.18645961664E+04  0.00000000000E+00 0.  1.
         21   -1    0    0  501  503 -0.00000000000E+00 -0.00000000000E+00 -0.23956093112E+03  0.23956093112E+03  0.00000000000E+00 0.  1.
    9000007    1    1    2  501    0 -0.71174310657E+01  0.18924041681E+02 -0.29730318343E+02  0.40161258572E+03  0.40000000000E+03 0.  1.
   -9000007    1    1    2    0  502  0.71174310657E+01 -0.18924041681E+02  0.16547655537E+04  0.17025445118E+04  0.40000000000E+03 0.  1.
<mgrwt>
<rscale>  2 0.40051065E+03</rscale>
<asrwt>0</asrwt>
<pdfrwt beam="1">  1       21 0.28686094E+00 0.40051065E+03</pdfrwt>
<pdfrwt beam="2">  1       21 0.36855529E-01 0.40051065E+03</pdfrwt>
<totfact> 0.23475631E+02</totfact>
</mgrwt>
</event>
<event>
 4    1  0.5013722E-002  0.5425114E+03  0.7818608E-02  0.1003242E+00
         21   -1    0    0  503  502  0.00000000000E+00  0.00000000000E+00  0.62513185081E+03  0.62513185081E+03  0.00000000000E+00 0. -1.
         21   -1    0    0  501  503 -0.00000000000E+00 -0.00000000000E+00 -0.50451717479E+03  0.50451717479E+03  0.00000000000E+00 0.  1.
    9000007    1    1    2  501    0  0.30465588820E+03 -0.20372378139E+03  0.20630100895E+03  0.58041252193E+03  0.40000000000E+03 0. -1.
   -9000007    1    1    2    0  502 -0.30465588820E+03  0.20372378139E+03 -0.85686332930E+02  0.54923650367E+03  0.40000000000E+03 0.  1.
<mgrwt>
<rscale>  2 0.54251137E+03</rscale>
<asrwt>0</asrwt>
<pdfrwt beam="1">  1       21 0.96174131E-01 0.54251137E+03</pdfrwt>
<pdfrwt beam="2">  1       21 0.77618027E-01 0.54251137E+03</pdfrwt>
<totfact> 0.10920304E+03</totfact>
</mgrwt>
</event>
<event>
 4    1  0.5013722E-002  0.4684770E+03  0.7818608E-02  0.1022351E+00
         21   -1    0    0  501  502  0.00000000000E+00  0.00000000000E+00  0.42102806492E+03  0.42102806492E+03  0.00000000000E+00 0.  1.
         21   -1    0    0  502  503 -0.00000000000E+00 -0.00000000000E+00 -0.54655414898E+03  0.54655414898E+03  0.00000000000E+00 0. -1.
    9000007    1    1    2  501    0  0.12917412308E+03  0.20684478224E+03 -0.16681170747E+03  0.49728951704E+03  0.40000000000E+03 0. -1.
   -9000007    1    1    2    0  503 -0.12917412308E+03 -0.20684478224E+03  0.41285623415E+02  0.47029269685E+03  0.40000000000E+03 0. -1.
<mgrwt>
<rscale>  2 0.46847702E+03</rscale>
<asrwt>0</asrwt>
<pdfrwt beam="1">  1       21 0.64773549E-01 0.46847702E+03</pdfrwt>
<pdfrwt beam="2">  1       21 0.84085254E-01 0.46847702E+03</pdfrwt>
<totfact> 0.23208216E+03</totfact>
</mgrwt>
</event>
<event>
 4    1  0.5013722E-002  0.4553399E+03  0.7818608E-02  0.1026141E+00
         21   -1    0    0  503  502  0.00000000000E+00  0.00000000000E+00  0.60038948166E+03  0.60038948166E+03  0.00000000000E+00 0.  1.
         21   -1    0    0  501  503 -0.00000000000E+00 -0.00000000000E+00 -0.46085814563E+03  0.46085814563E+03  0.00000000000E+00 0. -1.
    9000007    1    1    2  501    0  0.14983818208E+03 -0.15774325937E+03 -0.19590340619E+03  0.49569401978E+03  0.40000000000E+03 0. -1.
   -9000007    1    1    2    0  502 -0.14983818208E+03  0.15774325937E+03  0.33543474222E+03  0.56555360752E+03  0.40000000000E+03 0.  1.
<mgrwt>
<rscale>  2 0.45533989E+03</rscale>
<asrwt>0</asrwt>
<pdfrwt beam="1">  1       21 0.92367612E-01 0.45533989E+03</pdfrwt>
<pdfrwt beam="2">  1       21 0.70901254E-01 0.45533989E+03</pdfrwt>
<totfact> 0.15259493E+03</totfact>
</mgrwt>
</event>
<event>
 4    1  0.5013722E-002  0.8156057E+03  0.7818608E-02  0.9537699E-01
         21   -1    0    0  503  502  0.00000000000E+00  0.00000000000E+00  0.10209601902E+04  0.10209601902E+04  0.00000000000E+00 0. -1.
         21   -1    0    0  501  503 -0.00000000000E+00 -0.00000000000E+00 -0.89059145001E+03  0.89059145001E+03  0.00000000000E+00 0. -1.
    9000007    1    1    2  501    0 -0.33202942998E+03 -0.62846574463E+03 -0.42997834778E+03  0.92200548486E+03  0.40000000000E+03 0. -1.
   -9000007    1    1    2    0  502  0.33202942998E+03  0.62846574463E+03  0.56034708795E+03  0.98954615533E+03  0.40000000000E+03 0. -1.
<mgrwt>
<rscale>  2 0.81560575E+03</rscale>
<asrwt>0</asrwt>
<pdfrwt beam="1">  1       21 0.15707080E+00 0.81560575E+03</pdfrwt>
<pdfrwt beam="2">  1       21 0.13701407E+00 0.81560575E+03</pdfrwt>
<totfact> 0.68600890E+01</totfact>
</mgrwt>
</event>
<event>
 4    1  0.5013722E-002  0.4595183E+03  0.7818608E-02  0.1024921E+00
         21   -1    0    0  503  502  0.00000000000E+00  0.00000000000E+00  0.69826144051E+03  0.69826144051E+03  0.00000000000E+00 0. -1.
         21   -1    0    0  501  503 -0.00000000000E+00 -0.00000000000E+00 -0.30933636680E+03  0.30933636680E+03  0.00000000000E+00 0. -1.
    9000007    1    1    2  501    0  0.13005312043E+03 -0.18504939120E+03  0.11904353845E+03  0.47468774512E+03  0.40000000000E+03 0. -1.
   -9000007    1    1    2    0  502 -0.13005312043E+03  0.18504939120E+03  0.26988153525E+03  0.53291006219E+03  0.40000000000E+03 0. -1.
<mgrwt>
<rscale>  2 0.45951833E+03</rscale>
<asrwt>0</asrwt>
<pdfrwt beam="1">  1       21 0.10742484E+00 0.45951833E+03</pdfrwt>
<pdfrwt beam="2">  1       21 0.47590210E-01 0.45951833E+03</pdfrwt>
<totfact> 0.25194718E+03</totfact>
</mgrwt>
</event>
<event>
 4    1  0.5013722E-002  0.4789831E+03  0.7818608E-02  0.1019415E+00
         21   -1    0    0  501  502  0.00000000000E+00  0.00000000000E+00  0.16716116258E+03  0.16716116258E+03  0.00000000000E+00 0.  1.
         21   -1    0    0  502  503 -0.00000000000E+00 -0.00000000000E+00 -0.20401389211E+04  0.20401389211E+04  0.00000000000E+00 0. -1.
    9000007    1    1    2  501    0  0.13449059165E+03 -0.22657694580E+03 -0.30512482128E+03  0.56791371543E+03  0.40000000000E+03 0.  1.
   -9000007    1    1    2    0  503 -0.13449059165E+03  0.22657694580E+03 -0.15678529372E+04  0.16393863682E+04  0.40000000000E+03 0. -1.
<mgrwt>
<rscale>  2 0.47898312E+03</rscale>
<asrwt>0</asrwt>
<pdfrwt beam="1">  1       21 0.25717101E-01 0.47898312E+03</pdfrwt>
<pdfrwt beam="2">  1       21 0.31386753E+00 0.47898312E+03</pdfrwt>
<totfact> 0.31529030E+02</totfact>
</mgrwt>
</event>
<event>
 4    1  0.5013722E-002  0.4187874E+03  0.7818608E-02  0.1037462E+00
         21   -1    0    0  501  502  0.00000000000E+00  0.00000000000E+00  0.73127848278E+03  0.73127848278E+03  0.00000000000E+00 0.  1.
         21   -1    0    0  502  503 -0.00000000000E+00 -0.00000000000E+00 -0.30371317954E+03  0.30371317954E+03  0.00000000000E+00 0.  1.
    9000007    1    1    2  501    0  0.94551546964E+02  0.80267406518E+02  0.45112036284E+03  0.61554238957E+03  0.40000000000E+03 0. -1.
   -9000007    1    1    2    0  503 -0.94551546964E+02 -0.80267406518E+02 -0.23555059603E+02  0.41944927276E+03  0.40000000000E+03 0. -1.
<mgrwt>
<rscale>  2 0.41878736E+03</rscale>
<asrwt>0</asrwt>
<pdfrwt beam="1">  1       21 0.11250438E+00 0.41878736E+03</pdfrwt>
<pdfrwt beam="2">  1       21 0.46725105E-01 0.41878736E+03</pdfrwt>
<totfact> 0.23717349E+03</totfact>
</mgrwt>
</event>
<event>
 4    1  0.5013722E-002  0.6308675E+03  0.7818608E-02  0.9843357E-01
         21   -1    0    0  503  502  0.00000000000E+00  0.00000000000E+00  0.73467664423E+03  0.73467664423E+03  0.00000000000E+00 0.  1.
         21   -1    0    0  501  503 -0.00000000000E+00 -0.00000000000E+00 -0.70411620497E+03  0.70411620497E+03  0.00000000000E+00 0. -1.
    9000007    1    1    2  501    0 -0.27668730100E+03 -0.40179341013E+03 -0.33020172219E+03  0.71205827310E+03  0.40000000000E+03 0. -1.
   -9000007    1    1    2    0  502  0.27668730100E+03  0.40179341013E+03  0.36076216145E+03  0.72673457610E+03  0.40000000000E+03 0. -1.
<mgrwt>
<rscale>  2 0.63086750E+03</rscale>
<asrwt>0</asrwt>
<pdfrwt beam="1">  1       21 0.11302718E+00 0.63086750E+03</pdfrwt>
<pdfrwt beam="2">  1       21 0.10832557E+00 0.63086750E+03</pdfrwt>
<totfact> 0.31994385E+02</totfact>
</mgrwt>
</event>
<event>
 4    1  0.5013722E-002  0.4132413E+03  0.7818608E-02  0.1039289E+00
         21   -1    0    0  501  502  0.00000000000E+00  0.00000000000E+00  0.55947963311E+03  0.55947963311E+03  0.00000000000E+00 0. -1.
         21   -1    0    0  502  503 -0.00000000000E+00 -0.00000000000E+00 -0.45443750168E+03  0.45443750168E+03  0.00000000000E+00 0. -1.
    9000007    1    1    2  501    0 -0.82651021762E+02  0.62747063456E+02  0.34301350421E+03  0.53705367464E+03  0.40000000000E+03 0. -1.
   -9000007    1    1    2    0  503  0.82651021762E+02 -0.62747063456E+02 -0.23797137278E+03  0.47686346016E+03  0.40000000000E+03 0. -1.
<mgrwt>
<rscale>  2 0.41324132E+03</rscale>
<asrwt>0</asrwt>
<pdfrwt beam="1">  1       21 0.86073789E-01 0.41324132E+03</pdfrwt>
<pdfrwt beam="2">  1       21 0.69913462E-01 0.41324132E+03</pdfrwt>
<totfact> 0.18919667E+03</totfact>
</mgrwt>
</event>
<event>
 4    1  0.5013722E-002  0.5481077E+03  0.7818608E-02  0.1001933E+00
         21   -1    0    0  501  502  0.00000000000E+00  0.00000000000E+00  0.11719501062E+04  0.11719501062E+04  0.00000000000E+00 0. -1.
         21   -1    0    0  502  503 -0.00000000000E+00 -0.00000000000E+00 -0.63068841515E+03  0.63068841515E+03  0.00000000000E+00 0. -1.
    9000007    1    1    2  501    0 -0.16402194000E+03 -0.33692564124E+03  0.96502658796E+03  0.11098190843E+04  0.40000000000E+03 0. -1.
   -9000007    1    1    2    0  503  0.16402194000E+03  0.33692564124E+03 -0.42376489687E+03  0.69281943704E+03  0.40000000000E+03 0. -1.
<mgrwt>
<rscale>  2 0.54810773E+03</rscale>
<asrwt>0</asrwt>
<pdfrwt beam="1">  1       21 0.18030002E+00 0.54810773E+03</pdfrwt>
<pdfrwt beam="2">  1       21 0.97028987E-01 0.54810773E+03</pdfrwt>
<totfact> 0.12226633E+02</totfact>
</mgrwt>
</event>
<event>
 4    1  0.5013722E-002  0.5758549E+03  0.7818608E-02  0.9956806E-01
         21   -1    0    0  503  502  0.00000000000E+00  0.00000000000E+00  0.13712503816E+04  0.13712503816E+04  0.00000000000E+00 0.  1.
         21   -1    0    0  501  503 -0.00000000000E+00 -0.00000000000E+00 -0.24918965572E+03  0.24918965572E+03  0.00000000000E+00 0.  1.
    9000007    1    1    2  501    0  0.61072764890E+01 -0.41421197294E+03  0.42178520373E+03  0.71380082337E+03  0.40000000000E+03 0.  1.
   -9000007    1    1    2    0  502 -0.61072764890E+01  0.41421197294E+03  0.70027552213E+03  0.90663921393E+03  0.40000000000E+03 0.  1.
<mgrwt>
<rscale>  2 0.57585489E+03</rscale>
<asrwt>0</asrwt>
<pdfrwt beam="1">  1       21 0.21096159E+00 0.57585489E+03</pdfrwt>
<pdfrwt beam="2">  1       21 0.38336871E-01 0.57585489E+03</pdfrwt>
<totfact> 0.58638849E+02</totfact>
</mgrwt>
</event>
<event>
 4    1  0.5013722E-002  0.4235270E+03  0.7818608E-02  0.1035924E+00
         21   -1    0    0  501  502  0.00000000000E+00  0.00000000000E+00  0.16128916971E+04  0.16128916971E+04  0.00000000000E+00 0. -1.
         21   -1    0    0  502  503 -0.00000000000E+00 -0.00000000000E+00 -0.14326942957E+03  0.14326942957E+03  0.00000000000E+00 0. -1.
    9000007    1    1    2  501    0  0.11519095335E+03  0.78141924422E+02  0.31946259462E+03  0.53050114557E+03  0.40000000000E+03 0. -1.
   -9000007    1    1    2    0  503 -0.11519095335E+03 -0.78141924422E+02  0.11501596729E+04  0.12256599811E+04  0.40000000000E+03 0. -1.
<mgrwt>
<rscale>  2 0.42352700E+03</rscale>
<asrwt>0</asrwt>
<pdfrwt beam="1">  1       21 0.24813717E+00 0.42352700E+03</pdfrwt>
<pdfrwt beam="2">  1       21 0.22041452E-01 0.42352700E+03</pdfrwt>
<totfact> 0.10941877E+03</totfact>
</mgrwt>
</event>
<event>
 4    1  0.5013722E-002  0.4132865E+03  0.7818608E-02  0.1039274E+00
         21   -1    0    0  503  502  0.00000000000E+00  0.00000000000E+00  0.13758477658E+03  0.13758477658E+03  0.00000000000E+00 0. -1.
         21   -1    0    0  501  503 -0.00000000000E+00 -0.00000000000E+00 -0.13359139121E+04  0.13359139121E+04  0.00000000000E+00 0. -1.
    9000007    1    1    2  501    0 -0.93123312013E+02 -0.46192908396E+02 -0.40325986874E+03  0.57742900669E+03  0.40000000000E+03 0. -1.
   -9000007    1    1    2    0  502  0.93123312013E+02  0.46192908396E+02 -0.79506926680E+03  0.89606968202E+03  0.40000000000E+03 0. -1.
<mgrwt>
<rscale>  2 0.41328651E+03</rscale>
<asrwt>0</asrwt>
<pdfrwt beam="1">  1       21 0.21166889E-01 0.41328651E+03</pdfrwt>
<pdfrwt beam="2">  1       21 0.20552521E+00 0.41328651E+03</pdfrwt>
<totfact> 0.22085990E+03</totfact>
</mgrwt>
</event>
<event>
 4    1  0.5013722E-002  0.4190556E+03  0.7818608E-02  0.1037374E+00
         21   -1    0    0  503  502  0.00000000000E+00  0.00000000000E+00  0.49546771311E+03  0.49546771311E+03  0.00000000000E+00 0.  1.
         21   -1    0    0  501  503 -0.00000000000E+00 -0.00000000000E+00 -0.78296619246E+03  0.78296619246E+03  0.00000000000E+00 0.  1.
    9000007    1    1    2  501    0  0.76750905168E+02 -0.98574267881E+02 -0.61665171796E+03  0.74556483889E+03  0.40000000000E+03 0.  1.
   -9000007    1    1    2    0  502 -0.76750905168E+02  0.98574267881E+02  0.32915323861E+03  0.53286906668E+03  0.40000000000E+03 0.  1.
<mgrwt>
<rscale>  2 0.41905559E+03</rscale>
<asrwt>0</asrwt>
<pdfrwt beam="1">  1       21 0.76225802E-01 0.41905559E+03</pdfrwt>
<pdfrwt beam="2">  1       21 0.12045634E+00 0.41905559E+03</pdfrwt>
<totfact> 0.68469908E+02</totfact>
</mgrwt>
</event>
<event>
 4    1  0.5013722E-002  0.4616754E+03  0.7818608E-02  0.1024296E+00
         21   -1    0    0  501  502  0.00000000000E+00  0.00000000000E+00  0.58871274938E+03  0.58871274938E+03  0.00000000000E+00 0. -1.
         21   -1    0    0  502  503 -0.00000000000E+00 -0.00000000000E+00 -0.45630782047E+03  0.45630782047E+03  0.00000000000E+00 0.  1.
    9000007    1    1    2  501    0 -0.21983935487E+03  0.69389131313E+02  0.30367953237E+03  0.55259881639E+03  0.40000000000E+03 0.  1.
   -9000007    1    1    2    0  503  0.21983935487E+03 -0.69389131313E+02 -0.17127460346E+03  0.49242175347E+03  0.40000000000E+03 0.  1.
<mgrwt>
<rscale>  2 0.46167542E+03</rscale>
<asrwt>0</asrwt>
<pdfrwt beam="1">  1       21 0.90571193E-01 0.46167542E+03</pdfrwt>
<pdfrwt beam="2">  1       21 0.70201203E-01 0.46167542E+03</pdfrwt>
<totfact> 0.16311577E+03</totfact>
</mgrwt>
</event>
<event>
 4    1  0.5013722E-002  0.7467130E+03  0.7818608E-02  0.9640521E-01
         21   -1    0    0  503  502  0.00000000000E+00  0.00000000000E+00  0.25025856983E+03  0.25025856983E+03  0.00000000000E+00 0. -1.
         21   -1    0    0  501  503 -0.00000000000E+00 -0.00000000000E+00 -0.26989042462E+04  0.26989042462E+04  0.00000000000E+00 0. -1.
    9000007    1    1    2  501    0 -0.57034071579E+03 -0.26887120630E+03 -0.18402560834E+04  0.19859815482E+04  0.40000000000E+03 0. -1.
   -9000007    1    1    2    0  502  0.57034071579E+03  0.26887120630E+03 -0.60838959297E+03  0.96318126773E+03  0.40000000000E+03 0. -1.
<mgrwt>
<rscale>  2 0.74671297E+03</rscale>
<asrwt>0</asrwt>
<pdfrwt beam="1">  1       21 0.38501319E-01 0.74671297E+03</pdfrwt>
<pdfrwt beam="2">  1       21 0.41521603E+00 0.74671297E+03</pdfrwt>
<totfact> 0.28298060E+01</totfact>
</mgrwt>
</event>
<event>
 4    1  0.5013722E-002  0.4043640E+03  0.7818608E-02  0.1042279E+00
         21   -1    0    0  503  502  0.00000000000E+00  0.00000000000E+00  0.52193082358E+03  0.52193082358E+03  0.00000000000E+00 0.  1.
         21   -1    0    0  501  503 -0.00000000000E+00 -0.00000000000E+00 -0.42639674398E+03  0.42639674398E+03  0.00000000000E+00 0.  1.
    9000007    1    1    2  501    0  0.57696987012E+02  0.13465706930E+02 -0.19645547565E+03  0.44956092078E+03  0.40000000000E+03 0. -1.
   -9000007    1    1    2    0  502 -0.57696987012E+02 -0.13465706930E+02  0.29198955525E+03  0.49876664679E+03  0.40000000000E+03 0. -1.
<mgrwt>
<rscale>  2 0.40436403E+03</rscale>
<asrwt>0</asrwt>
<pdfrwt beam="1">  1       21 0.80297049E-01 0.40436403E+03</pdfrwt>
<pdfrwt beam="2">  1       21 0.65599499E-01 0.40436403E+03</pdfrwt>
<totfact> 0.25726570E+03</totfact>
</mgrwt>
</event>
<event>
 4    1  0.5013722E-002  0.4900310E+03  0.7818608E-02  0.1016414E+00
         21   -1    0    0  501  502  0.00000000000E+00  0.00000000000E+00  0.53090009269E+03  0.53090009269E+03  0.00000000000E+00 0. -1.
         21   -1    0    0  502  503 -0.00000000000E+00 -0.00000000000E+00 -0.76546183852E+03  0.76546183852E+03  0.00000000000E+00 0. -1.
    9000007    1    1    2  501    0 -0.28293840009E+03 -0.87302459410E+01  0.29730392755E+03  0.57316662566E+03  0.40000000000E+03 0. -1.
   -9000007    1    1    2    0  503  0.28293840009E+03  0.87302459410E+01 -0.53186567338E+03  0.72319530554E+03  0.40000000000E+03 0. -1.
<mgrwt>
<rscale>  2 0.49003097E+03</rscale>
<asrwt>0</asrwt>
<pdfrwt beam="1">  1       21 0.81676938E-01 0.49003097E+03</pdfrwt>
<pdfrwt beam="2">  1       21 0.11776336E+00 0.49003097E+03</pdfrwt>
<totfact> 0.59953983E+02</totfact>
</mgrwt>
</event>
<event>
 4    1  0.5013722E-002  0.4328181E+03  0.7818608E-02  0.1032973E+00
         21   -1    0    0  501  502  0.00000000000E+00  0.00000000000E+00  0.19348626706E+03  0.19348626706E+03  0.00000000000E+00 0. -1.
         21   -1    0    0  502  503 -0.00000000000E+00 -0.00000000000E+00 -0.15128720501E+04  0.15128720501E+04  0.00000000000E+00 0. -1.
    9000007    1    1    2  501    0 -0.15959162723E+03  0.43151154928E+02 -0.14776288531E+03  0.45734601772E+03  0.40000000000E+03 0. -1.
   -9000007    1    1    2    0  503  0.15959162723E+03 -0.43151154928E+02 -0.11716228977E+04  0.12490122994E+04  0.40000000000E+03 0. -1.
<mgrwt>
<rscale>  2 0.43281810E+03</rscale>
<asrwt>0</asrwt>
<pdfrwt beam="1">  1       21 0.29767117E-01 0.43281810E+03</pdfrwt>
<pdfrwt beam="2">  1       21 0.23274955E+00 0.43281810E+03</pdfrwt>
<totfact> 0.75481757E+02</totfact>
</mgrwt>
</event>
<event>
 4    1  0.5013722E-002  0.4357369E+03  0.7818608E-02  0.1032063E+00
         21   -1    0    0  503  502  0.00000000000E+00  0.00000000000E+00  0.54097421207E+03  0.54097421207E+03  0.00000000000E+00 0.  1.
         21   -1    0    0  501  503 -0.00000000000E+00 -0.00000000000E+00 -0.36075459088E+03  0.36075459088E+03  0.00000000000E+00 0.  1.
    9000007    1    1    2  501    0 -0.17279269235E+03  0.30479811420E+01  0.16435614531E+03  0.46570328238E+03  0.40000000000E+03 0.  1.
   -9000007    1    1    2    0  502  0.17279269235E+03 -0.30479811420E+01  0.15863475878E+02  0.43602552057E+03  0.40000000000E+03 0.  1.
<mgrwt>
<rscale>  2 0.43573685E+03</rscale>
<asrwt>0</asrwt>
<pdfrwt beam="1">  1       21 0.83226802E-01 0.43573685E+03</pdfrwt>
<pdfrwt beam="2">  1       21 0.55500706E-01 0.43573685E+03</pdfrwt>
<totfact> 0.33741601E+03</totfact>
</mgrwt>
</event>
<event>
 4    1  0.5013722E-002  0.4457669E+03  0.7818608E-02  0.1028992E+00
         21   -1    0    0  501  502  0.00000000000E+00  0.00000000000E+00  0.39983008619E+03  0.39983008619E+03  0.00000000000E+00 0.  1.
         21   -1    0    0  502  503 -0.00000000000E+00 -0.00000000000E+00 -0.53254052555E+03  0.53254052555E+03  0.00000000000E+00 0.  1.
    9000007    1    1    2  501    0  0.17295581648E+03 -0.93778673028E+02  0.54108759712E+02  0.44903887565E+03  0.40000000000E+03 0.  1.
   -9000007    1    1    2    0  503 -0.17295581648E+03  0.93778673028E+02 -0.18681919907E+03  0.48333173609E+03  0.40000000000E+03 0.  1.
<mgrwt>
<rscale>  2 0.44576693E+03</rscale>
<asrwt>0</asrwt>
<pdfrwt beam="1">  1       21 0.61512321E-01 0.44576693E+03</pdfrwt>
<pdfrwt beam="2">  1       21 0.81929311E-01 0.44576693E+03</pdfrwt>
<totfact> 0.27865111E+03</totfact>
</mgrwt>
</event>
<event>
 4    1  0.5013722E-002  0.4452289E+03  0.7818608E-02  0.1029154E+00
         21   -1    0    0  501  502  0.00000000000E+00  0.00000000000E+00  0.39660611930E+03  0.39660611930E+03  0.00000000000E+00 0. -1.
         21   -1    0    0  502  503 -0.00000000000E+00 -0.00000000000E+00 -0.63827722147E+03  0.63827722147E+03  0.00000000000E+00 0. -1.
    9000007    1    1    2  501    0 -0.18003539758E+03  0.76262871833E+02  0.12016942125E+03  0.46116099120E+03  0.40000000000E+03 0. -1.
   -9000007    1    1    2    0  503  0.18003539758E+03 -0.76262871833E+02 -0.36184052342E+03  0.57372234957E+03  0.40000000000E+03 0. -1.
<mgrwt>
<rscale>  2 0.44522890E+03</rscale>
<asrwt>0</asrwt>
<pdfrwt beam="1">  1       21 0.61016327E-01 0.44522890E+03</pdfrwt>
<pdfrwt beam="2">  1       21 0.98196494E-01 0.44522890E+03</pdfrwt>
<totfact> 0.18480862E+03</totfact>
</mgrwt>
</event>
<event>
 4    1  0.5013722E-002  0.4164862E+03  0.7818608E-02  0.1038216E+00
         21   -1    0    0  503  502  0.00000000000E+00  0.00000000000E+00  0.25268861274E+04  0.25268861274E+04  0.00000000000E+00 0.  1.
         21   -1    0    0  501  503 -0.00000000000E+00 -0.00000000000E+00 -0.16568893807E+03  0.16568893807E+03  0.00000000000E+00 0.  1.
    9000007    1    1    2  501    0  0.11000280355E+03 -0.36879869945E+02  0.15027669242E+03  0.44276836594E+03  0.40000000000E+03 0.  1.
   -9000007    1    1    2    0  502 -0.11000280355E+03  0.36879869945E+02  0.22109204969E+04  0.22498066995E+04  0.40000000000E+03 0.  1.
<mgrwt>
<rscale>  2 0.41648618E+03</rscale>
<asrwt>0</asrwt>
<pdfrwt beam="1">  1       21 0.38875168E+00 0.41648618E+03</pdfrwt>
<pdfrwt beam="2">  1       21 0.25490608E-01 0.41648618E+03</pdfrwt>
<totfact> 0.11560918E+02</totfact>
</mgrwt>
</event>
<event>
 4    1  0.5013722E-002  0.4210845E+03  0.7818608E-02  0.1036714E+00
         21   -1    0    0  501  502  0.00000000000E+00  0.00000000000E+00  0.10463775832E+04  0.10463775832E+04  0.00000000000E+00 0.  1.
         21   -1    0    0  502  503 -0.00000000000E+00 -0.00000000000E+00 -0.22793820900E+03  0.22793820900E+03  0.00000000000E+00 0.  1.
    9000007    1    1    2  501    0  0.87091258955E+01 -0.13128715780E+03  0.73196526389E+03  0.84444378985E+03  0.40000000000E+03 0.  1.
   -9000007    1    1    2    0  503 -0.87091258955E+01  0.13128715780E+03  0.86474110350E+02  0.42987200239E+03  0.40000000000E+03 0.  1.
<mgrwt>
<rscale>  2 0.42108451E+03</rscale>
<asrwt>0</asrwt>
<pdfrwt beam="1">  1       21 0.16098116E+00 0.42108451E+03</pdfrwt>
<pdfrwt beam="2">  1       21 0.35067417E-01 0.42108451E+03</pdfrwt>
<totfact> 0.16720000E+03</totfact>
</mgrwt>
</event>
<event>
 4    1  0.5013722E-002  0.4048875E+03  0.7818608E-02  0.1042100E+00
         21   -1    0    0  501  502  0.00000000000E+00  0.00000000000E+00  0.49868454569E+03  0.49868454569E+03  0.00000000000E+00 0.  1.
         21   -1    0    0  502  503 -0.00000000000E+00 -0.00000000000E+00 -0.33131915067E+03  0.33131915067E+03  0.00000000000E+00 0.  1.
    9000007    1    1    2  501    0 -0.62092394161E+02  0.88579178465E+01  0.12034983565E+03  0.42239556231E+03  0.40000000000E+03 0.  1.
   -9000007    1    1    2    0  503  0.62092394161E+02 -0.88579178465E+01  0.47015559366E+02  0.40760813405E+03  0.40000000000E+03 0.  1.
<mgrwt>
<rscale>  2 0.40488755E+03</rscale>
<asrwt>0</asrwt>
<pdfrwt beam="1">  1       21 0.76720700E-01 0.40488755E+03</pdfrwt>
<pdfrwt beam="2">  1       21 0.50972177E-01 0.40488755E+03</pdfrwt>
<totfact> 0.49409266E+03</totfact>
</mgrwt>
</event>
<event>
 4    1  0.5013722E-002  0.5268955E+03  0.7818608E-02  0.1006988E+00
         21   -1    0    0  501  502  0.00000000000E+00  0.00000000000E+00  0.15576300278E+03  0.15576300278E+03  0.00000000000E+00 0.  1.
         21   -1    0    0  502  503 -0.00000000000E+00 -0.00000000000E+00 -0.19274923472E+04  0.19274923472E+04  0.00000000000E+00 0. -1.
    9000007    1    1    2  501    0  0.59315643091E+02 -0.33778764567E+03 -0.59999727982E+03  0.79850834365E+03  0.40000000000E+03 0. -1.
   -9000007    1    1    2    0  503 -0.59315643091E+02  0.33778764567E+03 -0.11717320646E+04  0.12847470064E+04  0.40000000000E+03 0. -1.
<mgrwt>
<rscale>  2 0.52689547E+03</rscale>
<asrwt>0</asrwt>
<pdfrwt beam="1">  1       21 0.23963539E-01 0.52689547E+03</pdfrwt>
<pdfrwt beam="2">  1       21 0.29653729E+00 0.52689547E+03</pdfrwt>
<totfact> 0.44928159E+02</totfact>
</mgrwt>
</event>
<event>
 4    1  0.5013722E-002  0.4076932E+03  0.7818608E-02  0.1041148E+00
         21   -1    0    0  501  502  0.00000000000E+00  0.00000000000E+00  0.32081549246E+03  0.32081549246E+03  0.00000000000E+00 0. -1.
         21   -1    0    0  502  503 -0.00000000000E+00 -0.00000000000E+00 -0.10540948662E+04  0.10540948662E+04  0.00000000000E+00 0. -1.
    9000007    1    1    2  501    0  0.67065495117E+02  0.41424184251E+02  0.12357443460E+03  0.42600984092E+03  0.40000000000E+03 0. -1.
   -9000007    1    1    2    0  503 -0.67065495117E+02 -0.41424184251E+02 -0.85685380833E+03  0.94890051771E+03  0.40000000000E+03 0. -1.
<mgrwt>
<rscale>  2 0.40769320E+03</rscale>
<asrwt>0</asrwt>
<pdfrwt beam="1">  1       21 0.49356230E-01 0.40769320E+03</pdfrwt>
<pdfrwt beam="2">  1       21 0.16216844E+00 0.40769320E+03</pdfrwt>
<totfact> 0.81283285E+02</totfact>
</mgrwt>
</event>
<event>
 4    1  0.5013722E-002  0.4233423E+03  0.7818608E-02  0.1035984E+00
         21   -1    0    0  501  502  0.00000000000E+00  0.00000000000E+00  0.12487539883E+04  0.12487539883E+04  0.00000000000E+00 0. -1.
         21   -1    0    0  502  503 -0.00000000000E+00 -0.00000000000E+00 -0.14373678848E+03  0.14373678848E+03  0.00000000000E+00 0. -1.
    9000007    1    1    2  501    0 -0.13050323095E+03 -0.46772124908E+02  0.57966991522E+03  0.71779937000E+03  0.40000000000E+03 0. -1.
   -9000007    1    1    2    0  503  0.13050323095E+03  0.46772124908E+02  0.52534728462E+03  0.67469140680E+03  0.40000000000E+03 0. -1.
<mgrwt>
<rscale>  2 0.42334233E+03</rscale>
<asrwt>0</asrwt>
<pdfrwt beam="1">  1       21 0.19211599E+00 0.42334233E+03</pdfrwt>
<pdfrwt beam="2">  1       21 0.22113353E-01 0.42334233E+03</pdfrwt>
<totfact> 0.24846236E+03</totfact>
</mgrwt>
</event>
<event>
 4    1  0.5013722E-002  0.4834294E+03  0.7818608E-02  0.1018197E+00
         21   -1    0    0  503  502  0.00000000000E+00  0.00000000000E+00  0.21824114132E+03  0.21824114132E+03  0.00000000000E+00 0.  1.
         21   -1    0    0  501  503 -0.00000000000E+00 -0.00000000000E+00 -0.11643032516E+04  0.11643032516E+04  0.00000000000E+00 0.  1.
    9000007    1    1    2  501    0 -0.20554235172E+03  0.17735932018E+03 -0.27718792650E+03  0.55725858755E+03  0.40000000000E+03 0.  1.
   -9000007    1    1    2    0  502  0.20554235172E+03 -0.17735932018E+03 -0.66887418375E+03  0.82528580534E+03  0.40000000000E+03 0.  1.
<mgrwt>
<rscale>  2 0.48342940E+03</rscale>
<asrwt>0</asrwt>
<pdfrwt beam="1">  1       21 0.33575561E-01 0.48342940E+03</pdfrwt>
<pdfrwt beam="2">  1       21 0.17912358E+00 0.48342940E+03</pdfrwt>
<totfact> 0.13115009E+03</totfact>
</mgrwt>
</event>
<event>
 4    1  0.5013722E-002  0.4023326E+03  0.7818608E-02  0.1042975E+00
         21   -1    0    0  503  502  0.00000000000E+00  0.00000000000E+00  0.10770565272E+04  0.10770565272E+04  0.00000000000E+00 0. -1.
         21   -1    0    0  501  503 -0.00000000000E+00 -0.00000000000E+00 -0.27919285426E+03  0.27919285426E+03  0.00000000000E+00 0. -1.
    9000007    1    1    2  501    0 -0.43074923838E+02 -0.40123678569E+01 -0.61841717410E+02  0.40705766934E+03  0.40000000000E+03 0. -1.
   -9000007    1    1    2    0  502  0.43074923838E+02  0.40123678569E+01  0.85970539032E+03  0.94919171209E+03  0.40000000000E+03 0. -1.
<mgrwt>
<rscale>  2 0.40233263E+03</rscale>
<asrwt>0</asrwt>
<pdfrwt beam="1">  1       21 0.16570100E+00 0.40233263E+03</pdfrwt>
<pdfrwt beam="2">  1       21 0.42952747E-01 0.40233263E+03</pdfrwt>
<totfact> 0.10269035E+03</totfact>
</mgrwt>
</event>
<event>
 4    1  0.5013722E-002  0.4542533E+03  0.7818608E-02  0.1026461E+00
         21   -1    0    0  501  502  0.00000000000E+00  0.00000000000E+00  0.66719445385E+03  0.66719445385E+03  0.00000000000E+00 0.  1.
         21   -1    0    0  502  503 -0.00000000000E+00 -0.00000000000E+00 -0.31870904847E+03  0.31870904847E+03  0.00000000000E+00 0. -1.
    9000007    1    1    2  501    0 -0.18217701893E+03 -0.11470669873E+03  0.25905767856E+03  0.52293113675E+03  0.40000000000E+03 0.  1.
   -9000007    1    1    2    0  503  0.18217701893E+03  0.11470669873E+03  0.89427726827E+02  0.46297236557E+03  0.40000000000E+03 0. -1.
<mgrwt>
<rscale>  2 0.45425334E+03</rscale>
<asrwt>0</asrwt>
<pdfrwt beam="1">  1       21 0.10264530E+00 0.45425334E+03</pdfrwt>
<pdfrwt beam="2">  1       21 0.49032161E-01 0.45425334E+03</pdfrwt>
<totfact> 0.26506647E+03</totfact>
</mgrwt>
</event>
<event>
 4    1  0.5013722E-002  0.4018035E+03  0.7818608E-02  0.1043157E+00
         21   -1    0    0  501  502  0.00000000000E+00  0.00000000000E+00  0.92906758516E+03  0.92906758516E+03  0.00000000000E+00 0. -1.
         21   -1    0    0  502  503 -0.00000000000E+00 -0.00000000000E+00 -0.22180686729E+03  0.22180686729E+03  0.00000000000E+00 0. -1.
    9000007    1    1    2  501    0  0.33321899980E+02 -0.18322407103E+02  0.62141652563E+03  0.74000307968E+03  0.40000000000E+03 0.  1.
   -9000007    1    1    2    0  503 -0.33321899980E+02  0.18322407103E+02  0.85844192248E+02  0.41087137277E+03  0.40000000000E+03 0.  1.
<mgrwt>
<rscale>  2 0.40180351E+03</rscale>
<asrwt>0</asrwt>
<pdfrwt beam="1">  1       21 0.14293347E+00 0.40180351E+03</pdfrwt>
<pdfrwt beam="2">  1       21 0.34124134E-01 0.40180351E+03</pdfrwt>
<totfact> 0.24622097E+03</totfact>
</mgrwt>
</event>
<event>
 4    1  0.5013722E-002  0.4593768E+03  0.7818608E-02  0.1024962E+00
         21   -1    0    0  503  502  0.00000000000E+00  0.00000000000E+00  0.12272730488E+04  0.12272730488E+04  0.00000000000E+00 0. -1.
         21   -1    0    0  501  503 -0.00000000000E+00 -0.00000000000E+00 -0.19396628954E+03  0.19396628954E+03  0.00000000000E+00 0.  1.
    9000007    1    1    2  501    0  0.22132174531E+03 -0.45207872771E+02  0.27723001864E+03  0.53654780770E+03  0.40000000000E+03 0. -1.
   -9000007    1    1    2    0  502 -0.22132174531E+03  0.45207872771E+02  0.75607674065E+03  0.88469153068E+03  0.40000000000E+03 0. -1.
<mgrwt>
<rscale>  2 0.45937682E+03</rscale>
<asrwt>0</asrwt>
<pdfrwt beam="1">  1       21 0.18881123E+00 0.45937682E+03</pdfrwt>
<pdfrwt beam="2">  1       21 0.29840968E-01 0.45937682E+03</pdfrwt>
<totfact> 0.14356127E+03</totfact>
</mgrwt>
</event>
<event>
 4    1  0.5013722E-002  0.4260566E+03  0.7818608E-02  0.1035113E+00
         21   -1    0    0  503  502  0.00000000000E+00  0.00000000000E+00  0.11850173474E+04  0.11850173474E+04  0.00000000000E+00 0. -1.
         21   -1    0    0  501  503 -0.00000000000E+00 -0.00000000000E+00 -0.67246817532E+03  0.67246817532E+03  0.00000000000E+00 0. -1.
    9000007    1    1    2  501    0 -0.14632864435E+03  0.10591982581E+02 -0.55986158150E+03  0.70354051248E+03  0.40000000000E+03 0. -1.
   -9000007    1    1    2    0  502  0.14632864435E+03 -0.10591982581E+02  0.10724107536E+04  0.11539450103E+04  0.40000000000E+03 0. -1.
<mgrwt>
<rscale>  2 0.42605664E+03</rscale>
<asrwt>0</asrwt>
<pdfrwt beam="1">  1       21 0.18231036E+00 0.42605664E+03</pdfrwt>
<pdfrwt beam="2">  1       21 0.10345664E+00 0.42605664E+03</pdfrwt>
<totfact> 0.10777850E+02</totfact>
</mgrwt>
</event>
<event>
 4    1  0.5013722E-002  0.5754755E+03  0.7818608E-02  0.9957635E-01
         21   -1    0    0  501  502  0.00000000000E+00  0.00000000000E+00  0.39837936366E+03  0.39837936366E+03  0.00000000000E+00 0.  1.
         21   -1    0    0  502  503 -0.00000000000E+00 -0.00000000000E+00 -0.94204355319E+03  0.94204355319E+03  0.00000000000E+00 0.  1.
    9000007    1    1    2  501    0 -0.38718558026E+03  0.14580606177E+03 -0.42037954449E+02  0.57700890012E+03  0.40000000000E+03 0.  1.
   -9000007    1    1    2    0  503  0.38718558026E+03 -0.14580606177E+03 -0.50162623508E+03  0.76341401672E+03  0.40000000000E+03 0.  1.
<mgrwt>
<rscale>  2 0.57547553E+03</rscale>
<asrwt>0</asrwt>
<pdfrwt beam="1">  1       21 0.61289134E-01 0.57547553E+03</pdfrwt>
<pdfrwt beam="2">  1       21 0.14492978E+00 0.57547553E+03</pdfrwt>
<totfact> 0.64674577E+02</totfact>
</mgrwt>
</event>
<event>
 4    1  0.5013722E-002  0.4384262E+03  0.7818608E-02  0.1031231E+00
         21   -1    0    0  503  502  0.00000000000E+00  0.00000000000E+00  0.13684084970E+03  0.13684084970E+03  0.00000000000E+00 0. -1.
         21   -1    0    0  501  503 -0.00000000000E+00 -0.00000000000E+00 -0.14434711611E+04  0.14434711611E+04  0.00000000000E+00 0. -1.
    9000007    1    1    2  501    0 -0.12312056380E+02  0.17906962282E+03 -0.78284766769E+03  0.89725580932E+03  0.40000000000E+03 0. -1.
   -9000007    1    1    2    0  502  0.12312056380E+02 -0.17906962282E+03 -0.52378264374E+03  0.68305620151E+03  0.40000000000E+03 0. -1.
<mgrwt>
<rscale>  2 0.43842618E+03</rscale>
<asrwt>0</asrwt>
<pdfrwt beam="1">  1       21 0.21052439E-01 0.43842618E+03</pdfrwt>
<pdfrwt beam="2">  1       21 0.22207248E+00 0.43842618E+03</pdfrwt>
<totfact> 0.17247792E+03</totfact>
</mgrwt>
</event>
<event>
 4    1  0.5013722E-002  0.5486610E+03  0.7818608E-02  0.1001804E+00
         21   -1    0    0  503  502  0.00000000000E+00  0.00000000000E+00  0.51881604958E+03  0.51881604958E+03  0.00000000000E+00 0.  1.
         21   -1    0    0  501  503 -0.00000000000E+00 -0.00000000000E+00 -0.70946215645E+03  0.70946215645E+03  0.00000000000E+00 0. -1.
    9000007    1    1    2  501    0 -0.37381880958E+03 -0.35894583308E+02 -0.35744262742E+03  0.65482375904E+03  0.40000000000E+03 0. -1.
   -9000007    1    1    2    0  502  0.37381880958E+03  0.35894583308E+02  0.16679652055E+03  0.57345444699E+03  0.40000000000E+03 0. -1.
<mgrwt>
<rscale>  2 0.54866103E+03</rscale>
<asrwt>0</asrwt>
<pdfrwt beam="1">  1       21 0.79817854E-01 0.54866103E+03</pdfrwt>
<pdfrwt beam="2">  1       21 0.10914802E+00 0.54866103E+03</pdfrwt>
<totfact> 0.74852312E+02</totfact>
</mgrwt>
</event>
<event>
 4    1  0.5013722E-002  0.5038013E+03  0.7818608E-02  0.1012791E+00
         21   -1    0    0  503  502  0.00000000000E+00  0.00000000000E+00  0.24553027943E+03  0.24553027943E+03  0.00000000000E+00 0.  1.
         21   -1    0    0  501  503 -0.00000000000E+00 -0.00000000000E+00 -0.14871644655E+04  0.14871644655E+04  0.00000000000E+00 0.  1.
    9000007    1    1    2  501    0 -0.27440336822E+03 -0.13608286883E+03 -0.10991855465E+04  0.12091421013E+04  0.40000000000E+03 0.  1.
   -9000007    1    1    2    0  502  0.27440336822E+03  0.13608286883E+03 -0.14244863960E+03  0.52355264358E+03  0.40000000000E+03 0.  1.
<mgrwt>
<rscale>  2 0.50380131E+03</rscale>
<asrwt>0</asrwt>
<pdfrwt beam="1">  1       21 0.37773889E-01 0.50380131E+03</pdfrwt>
<pdfrwt beam="2">  1       21 0.22879453E+00 0.50380131E+03</pdfrwt>
<totfact> 0.47781782E+02</totfact>
</mgrwt>
</event>
<event>
 4    1  0.5013722E-002  0.4505633E+03  0.7818608E-02  0.1027554E+00
         21   -1    0    0  501  502  0.00000000000E+00  0.00000000000E+00  0.49711780796E+03  0.49711780796E+03  0.00000000000E+00 0. -1.
         21   -1    0    0  502  503 -0.00000000000E+00 -0.00000000000E+00 -0.55459296198E+03  0.55459296198E+03  0.00000000000E+00 0.  1.
    9000007    1    1    2  501    0 -0.95894370221E+02 -0.18387930307E+03  0.24127807604E+03  0.51109924508E+03  0.40000000000E+03 0. -1.
   -9000007    1    1    2    0  503  0.95894370221E+02  0.18387930307E+03 -0.29875323006E+03  0.54061152486E+03  0.40000000000E+03 0.  1.
<mgrwt>
<rscale>  2 0.45056335E+03</rscale>
<asrwt>0</asrwt>
<pdfrwt beam="1">  1       21 0.76479663E-01 0.45056335E+03</pdfrwt>
<pdfrwt beam="2">  1       21 0.85321994E-01 0.45056335E+03</pdfrwt>
<totfact> 0.15522068E+03</totfact>
</mgrwt>
</event>
<event>
 4    1  0.5013722E-002  0.4577985E+03  0.7818608E-02  0.1025422E+00
         21   -1    0    0  501  502  0.00000000000E+00  0.00000000000E+00  0.72337391736E+03  0.72337391736E+03  0.00000000000E+00 0. -1.
         21   -1    0    0  502  503 -0.00000000000E+00 -0.00000000000E+00 -0.38471226091E+03  0.38471226091E+03  0.00000000000E+00 0. -1.
    9000007    1    1    2  501    0  0.78842736425E+02 -0.20823854169E+03 -0.10597052085E+03  0.46990341414E+03  0.40000000000E+03 0. -1.
   -9000007    1    1    2    0  503 -0.78842736425E+02  0.20823854169E+03  0.44463217731E+03  0.63818276413E+03  0.40000000000E+03 0. -1.
<mgrwt>
<rscale>  2 0.45779850E+03</rscale>
<asrwt>0</asrwt>
<pdfrwt beam="1">  1       21 0.11128829E+00 0.45779850E+03</pdfrwt>
<pdfrwt beam="2">  1       21 0.59186502E-01 0.45779850E+03</pdfrwt>
<totfact> 0.14456676E+03</totfact>
</mgrwt>
</event>
<event>
 4    1  0.5013722E-002  0.5612740E+03  0.7818608E-02  0.9989176E-01
         21   -1    0    0  503  502  0.00000000000E+00  0.00000000000E+00  0.14984523876E+04  0.14984523876E+04  0.00000000000E+00 0.  1.
         21   -1    0    0  501  503 -0.00000000000E+00 -0.00000000000E+00 -0.25427492648E+03  0.25427492648E+03  0.00000000000E+00 0.  1.
    9000007    1    1    2  501    0 -0.39373072967E+03  0.21444410823E+01  0.25737556081E+03  0.61747118590E+03  0.40000000000E+03 0.  1.
   -9000007    1    1    2    0  502  0.39373072967E+03 -0.21444410823E+01  0.98680190028E+03  0.11352561281E+04  0.40000000000E+03 0.  1.
<mgrwt>
<rscale>  2 0.56127398E+03</rscale>
<asrwt>0</asrwt>
<pdfrwt beam="1">  1       21 0.23053113E+00 0.56127398E+03</pdfrwt>
<pdfrwt beam="2">  1       21 0.39119220E-01 0.56127398E+03</pdfrwt>
<totfact> 0.42294627E+02</totfact>
</mgrwt>
</event>
<event>
 4    1  0.5013722E-002  0.5742948E+03  0.7818608E-02  0.9960220E-01
         21   -1    0    0  503  502  0.00000000000E+00  0.00000000000E+00  0.38650627632E+03  0.38650627632E+03  0.00000000000E+00 0. -1.
         21   -1    0    0  501  503 -0.00000000000E+00 -0.00000000000E+00 -0.98798529855E+03  0.98798529855E+03  0.00000000000E+00 0.  1.
    9000007    1    1    2  501    0 -0.30441941845E+03 -0.27774687361E+03 -0.55446297831E+03  0.79827545524E+03  0.40000000000E+03 0.  1.
   -9000007    1    1    2    0  502  0.30441941845E+03  0.27774687361E+03 -0.47016043926E+02  0.57621611963E+03  0.40000000000E+03 0.  1.
<mgrwt>
<rscale>  2 0.57429479E+03</rscale>
<asrwt>0</asrwt>
<pdfrwt beam="1">  1       21 0.59462505E-01 0.57429479E+03</pdfrwt>
<pdfrwt beam="2">  1       21 0.15199774E+00 0.57429479E+03</pdfrwt>
<totfact> 0.60739484E+02</totfact>
</mgrwt>
</event>
<event>
 4    1  0.5013722E-002  0.4877857E+03  0.7818608E-02  0.1017017E+00
         21   -1    0    0  503  502  0.00000000000E+00  0.00000000000E+00  0.57285553158E+03  0.57285553158E+03  0.00000000000E+00 0. -1.
         21   -1    0    0  501  503 -0.00000000000E+00 -0.00000000000E+00 -0.44568768595E+03  0.44568768595E+03  0.00000000000E+00 0. -1.
    9000007    1    1    2  501    0 -0.26743481537E+03  0.80084661528E+02 -0.69287937259E+02  0.49268220156E+03  0.40000000000E+03 0. -1.
   -9000007    1    1    2    0  502  0.26743481537E+03 -0.80084661528E+02  0.19645578289E+03  0.52586101597E+03  0.40000000000E+03 0. -1.
<mgrwt>
<rscale>  2 0.48778575E+03</rscale>
<asrwt>0</asrwt>
<pdfrwt beam="1">  1       21 0.88131620E-01 0.48778575E+03</pdfrwt>
<pdfrwt beam="2">  1       21 0.68567337E-01 0.48778575E+03</pdfrwt>
<totfact> 0.18174437E+03</totfact>
</mgrwt>
</event>
<event>
 4    1  0.5013722E-002  0.5917121E+03  0.7818608E-02  0.9922751E-01
         21   -1    0    0  503  502  0.00000000000E+00  0.00000000000E+00  0.12758396436E+04  0.12758396436E+04  0.00000000000E+00 0.  1.
         21   -1    0    0  501  503 -0.00000000000E+00 -0.00000000000E+00 -0.43876789588E+03  0.43876789588E+03  0.00000000000E+00 0. -1.
    9000007    1    1    2  501    0  0.62007427765E+01  0.43598715734E+03 -0.10614083903E+03  0.60115649234E+03  0.40000000000E+03 0. -1.
   -9000007    1    1    2    0  502 -0.62007427765E+01 -0.43598715734E+03  0.94321258677E+03  0.11134510472E+04  0.40000000000E+03 0.  1.
<mgrwt>
<rscale>  2 0.59171213E+03</rscale>
<asrwt>0</asrwt>
<pdfrwt beam="1">  1       21 0.19628302E+00 0.59171213E+03</pdfrwt>
<pdfrwt beam="2">  1       21 0.67502754E-01 0.59171213E+03</pdfrwt>
<totfact> 0.21663327E+02</totfact>
</mgrwt>
</event>
<event>
 4    1  0.5013722E-002  0.4530827E+03  0.7818608E-02  0.1026807E+00
         21   -1    0    0  501  502  0.00000000000E+00  0.00000000000E+00  0.20101934354E+03  0.20101934354E+03  0.00000000000E+00 0.  1.
         21   -1    0    0  502  503 -0.00000000000E+00 -0.00000000000E+00 -0.12450822079E+04  0.12450822079E+04  0.00000000000E+00 0. -1.
    9000007    1    1    2  501    0 -0.10258648734E+03 -0.18644010649E+03 -0.82862663359E+03  0.94440775017E+03  0.40000000000E+03 0. -1.
   -9000007    1    1    2    0  503  0.10258648734E+03  0.18644010649E+03 -0.21543623077E+03  0.50169380126E+03  0.40000000000E+03 0.  1.
<mgrwt>
<rscale>  2 0.45308266E+03</rscale>
<asrwt>0</asrwt>
<pdfrwt beam="1">  1       21 0.30926052E-01 0.45308266E+03</pdfrwt>
<pdfrwt beam="2">  1       21 0.19155111E+00 0.45308266E+03</pdfrwt>
<totfact> 0.12841638E+03</totfact>
</mgrwt>
</event>
<event>
 4    1  0.5013722E-002  0.5465056E+03  0.7818608E-02  0.1002306E+00
         21   -1    0    0  501  502  0.00000000000E+00  0.00000000000E+00  0.10657904046E+04  0.10657904046E+04  0.00000000000E+00 0.  1.
         21   -1    0    0  502  503 -0.00000000000E+00 -0.00000000000E+00 -0.28079244927E+03  0.28079244927E+03  0.00000000000E+00 0. -1.
    9000007    1    1    2  501    0  0.33941680382E+03 -0.15318158440E+03  0.36241358833E+03  0.65575298209E+03  0.40000000000E+03 0. -1.
   -9000007    1    1    2    0  503 -0.33941680382E+03  0.15318158440E+03  0.42258436702E+03  0.69082987180E+03  0.40000000000E+03 0.  1.
<mgrwt>
<rscale>  2 0.54650559E+03</rscale>
<asrwt>0</asrwt>
<pdfrwt beam="1">  1       21 0.16396775E+00 0.54650559E+03</pdfrwt>
<pdfrwt beam="2">  1       21 0.43198839E-01 0.54650559E+03</pdfrwt>
<totfact> 0.98448097E+02</totfact>
</mgrwt>
</event>
<event>
 4    1  0.5013722E-002  0.4116264E+03  0.7818608E-02  0.1039827E+00
         21   -1    0    0  501  502  0.00000000000E+00  0.00000000000E+00  0.92787281327E+02  0.92787281327E+02  0.00000000000E+00 0.  1.
         21   -1    0    0  502  503 -0.00000000000E+00 -0.00000000000E+00 -0.20865367450E+04  0.20865367450E+04  0.00000000000E+00 0.  1.
    9000007    1    1    2  501    0 -0.60448680795E+02  0.76041006161E+02 -0.61188151685E+03  0.73745187524E+03  0.40000000000E+03 0.  1.
   -9000007    1    1    2    0  503  0.60448680795E+02 -0.76041006161E+02 -0.13818679468E+04  0.14418721511E+04  0.40000000000E+03 0.  1.
<mgrwt>
<rscale>  2 0.41162638E+03</rscale>
<asrwt>0</asrwt>
<pdfrwt beam="1">  1       21 0.14274966E-01 0.41162638E+03</pdfrwt>
<pdfrwt beam="2">  1       21 0.32100566E+00 0.41162638E+03</pdfrwt>
<totfact> 0.90702079E+02</totfact>
</mgrwt>
</event>
<event>
 4    1  0.5013722E-002  0.5270773E+03  0.7818608E-02  0.1006943E+00
         21   -1    0    0  501  502  0.00000000000E+00  0.00000000000E+00  0.14696698287E+04  0.14696698287E+04  0.00000000000E+00 0. -1.
         21   -1    0    0  502  503 -0.00000000000E+00 -0.00000000000E+00 -0.20293159232E+03  0.20293159232E+03  0.00000000000E+00 0.  1.
    9000007    1    1    2  501    0 -0.20807283086E+02 -0.34260400243E+03  0.41447549461E+03  0.67052246878E+03  0.40000000000E+03 0.  1.
   -9000007    1    1    2    0  503  0.20807283086E+02  0.34260400243E+03  0.85226274178E+03  0.10020789522E+04  0.40000000000E+03 0. -1.
<mgrwt>
<rscale>  2 0.52707727E+03</rscale>
<asrwt>0</asrwt>
<pdfrwt beam="1">  1       21 0.22610304E+00 0.52707727E+03</pdfrwt>
<pdfrwt beam="2">  1       21 0.31220246E-01 0.52707727E+03</pdfrwt>
<totfact> 0.72375075E+02</totfact>
</mgrwt>
</event>
<event>
 4    1  0.5013722E-002  0.4606739E+03  0.7818608E-02  0.1024586E+00
         21   -1    0    0  501  502  0.00000000000E+00  0.00000000000E+00  0.63837931744E+03  0.63837931744E+03  0.00000000000E+00 0.  1.
         21   -1    0    0  502  503 -0.00000000000E+00 -0.00000000000E+00 -0.35698332150E+03  0.35698332150E+03  0.00000000000E+00 0.  1.
    9000007    1    1    2  501    0 -0.13526443740E+03 -0.18418468906E+03  0.27120284671E+03  0.53457595510E+03  0.40000000000E+03 0.  1.
   -9000007    1    1    2    0  503  0.13526443740E+03  0.18418468906E+03  0.10193149226E+02  0.46078668384E+03  0.40000000000E+03 0.  1.
<mgrwt>
<rscale>  2 0.46067393E+03</rscale>
<asrwt>0</asrwt>
<pdfrwt beam="1">  1       21 0.98212203E-01 0.46067393E+03</pdfrwt>
<pdfrwt beam="2">  1       21 0.54920511E-01 0.46067393E+03</pdfrwt>
<totfact> 0.23100753E+03</totfact>
</mgrwt>
</event>
<event>
 4    1  0.5013722E-002  0.4200948E+03  0.7818608E-02  0.1037035E+00
         21   -1    0    0  503  502  0.00000000000E+00  0.00000000000E+00  0.28701698065E+03  0.28701698065E+03  0.00000000000E+00 0.  1.
         21   -1    0    0  501  503 -0.00000000000E+00 -0.00000000000E+00 -0.14645180871E+04  0.14645180871E+04  0.00000000000E+00 0. -1.
    9000007    1    1    2  501    0  0.92807057038E+02 -0.88693226217E+02 -0.12558025232E+04  0.13242052770E+04  0.40000000000E+03 0. -1.
   -9000007    1    1    2    0  502 -0.92807057038E+02  0.88693226217E+02  0.78301416791E+02  0.42732979078E+03  0.40000000000E+03 0.  1.
<mgrwt>
<rscale>  2 0.42009480E+03</rscale>
<asrwt>0</asrwt>
<pdfrwt beam="1">  1       21 0.44156459E-01 0.42009480E+03</pdfrwt>
<pdfrwt beam="2">  1       21 0.22531047E+00 0.42009480E+03</pdfrwt>
<totfact> 0.37979843E+02</totfact>
</mgrwt>
</event>
<event>
 4    1  0.5013722E-002  0.4575713E+03  0.7818608E-02  0.1025488E+00
         21   -1    0    0  501  502  0.00000000000E+00  0.00000000000E+00  0.47003599914E+03  0.47003599914E+03  0.00000000000E+00 0. -1.
         21   -1    0    0  502  503 -0.00000000000E+00 -0.00000000000E+00 -0.10533473252E+04  0.10533473252E+04  0.00000000000E+00 0. -1.
    9000007    1    1    2  501    0 -0.20829832424E+02  0.22121855982E+03  0.28699050475E+03  0.54012506232E+03  0.40000000000E+03 0. -1.
   -9000007    1    1    2    0  503  0.20829832424E+02 -0.22121855982E+03 -0.87030183076E+03  0.98325826198E+03  0.40000000000E+03 0. -1.
<mgrwt>
<rscale>  2 0.45757134E+03</rscale>
<asrwt>0</asrwt>
<pdfrwt beam="1">  1       21 0.72313231E-01 0.45757134E+03</pdfrwt>
<pdfrwt beam="2">  1       21 0.16205343E+00 0.45757134E+03</pdfrwt>
<totfact> 0.34452591E+02</totfact>
</mgrwt>
</event>
<event>
 4    1  0.5013722E-002  0.5553541E+03  0.7818608E-02  0.1000262E+00
         21   -1    0    0  501  502  0.00000000000E+00  0.00000000000E+00  0.12690576751E+04  0.12690576751E+04  0.00000000000E+00 0.  1.
         21   -1    0    0  502  503 -0.00000000000E+00 -0.00000000000E+00 -0.28452839697E+03  0.28452839697E+03  0.00000000000E+00 0. -1.
    9000007    1    1    2  501    0 -0.34524920420E+03  0.17094213424E+03  0.78892650458E+03  0.96479181997E+03  0.40000000000E+03 0. -1.
   -9000007    1    1    2    0  503  0.34524920420E+03 -0.17094213424E+03  0.19560277352E+03  0.58879425207E+03  0.40000000000E+03 0.  1.
<mgrwt>
<rscale>  2 0.55535414E+03</rscale>
<asrwt>0</asrwt>
<pdfrwt beam="1">  1       21 0.19523964E+00 0.55535414E+03</pdfrwt>
<pdfrwt beam="2">  1       21 0.43773600E-01 0.55535414E+03</pdfrwt>
<totfact> 0.57154498E+02</totfact>
</mgrwt>
</event>
<event>
 4    1  0.5013722E-002  0.4329668E+03  0.7818608E-02  0.1032927E+00
         21   -1    0    0  501  502  0.00000000000E+00  0.00000000000E+00  0.27099952876E+03  0.27099952876E+03  0.00000000000E+00 0. -1.
         21   -1    0    0  502  503 -0.00000000000E+00 -0.00000000000E+00 -0.86293326055E+03  0.86293326055E+03  0.00000000000E+00 0. -1.
    9000007    1    1    2  501    0  0.45578061920E+02 -0.15932005725E+03 -0.43434758597E+02  0.43513999888E+03  0.40000000000E+03 0. -1.
   -9000007    1    1    2    0  503 -0.45578061920E+02  0.15932005725E+03 -0.54849897319E+03  0.69879279044E+03  0.40000000000E+03 0. -1.
<mgrwt>
<rscale>  2 0.43296679E+03</rscale>
<asrwt>0</asrwt>
<pdfrwt beam="1">  1       21 0.41692236E-01 0.43296679E+03</pdfrwt>
<pdfrwt beam="2">  1       21 0.13275896E+00 0.43296679E+03</pdfrwt>
<totfact> 0.19621219E+03</totfact>
</mgrwt>
</event>
<event>
 4    1  0.5013722E-002  0.4363086E+03  0.7818608E-02  0.1031885E+00
         21   -1    0    0  503  502  0.00000000000E+00  0.00000000000E+00  0.11920786589E+04  0.11920786589E+04  0.00000000000E+00 0.  1.
         21   -1    0    0  501  503 -0.00000000000E+00 -0.00000000000E+00 -0.16747624366E+03  0.16747624366E+03  0.00000000000E+00 0.  1.
    9000007    1    1    2  501    0 -0.42039327974E+02 -0.16910904222E+03  0.36574498761E+03  0.56932817357E+03  0.40000000000E+03 0.  1.
   -9000007    1    1    2    0  502  0.42039327974E+02  0.16910904222E+03  0.65885742760E+03  0.79022672896E+03  0.40000000000E+03 0.  1.
<mgrwt>
<rscale>  2 0.43630858E+03</rscale>
<asrwt>0</asrwt>
<pdfrwt beam="1">  1       21 0.18339671E+00 0.43630858E+03</pdfrwt>
<pdfrwt beam="2">  1       21 0.25765577E-01 0.43630858E+03</pdfrwt>
<totfact> 0.21100350E+03</totfact>
</mgrwt>
</event>
<event>
 4    1  0.5013722E-002  0.5358009E+03  0.7818608E-02  0.1004835E+00
         21   -1    0    0  503  502  0.00000000000E+00  0.00000000000E+00  0.53584144772E+03  0.53584144772E+03  0.00000000000E+00 0. -1.
         21   -1    0    0  501  503 -0.00000000000E+00 -0.00000000000E+00 -0.58663636785E+03  0.58663636785E+03  0.00000000000E+00 0. -1.
    9000007    1    1    2  501    0  0.16065677958E+03 -0.31823254498E+03 -0.19067742714E+03  0.56871823843E+03  0.40000000000E+03 0. -1.
   -9000007    1    1    2    0  502 -0.16065677958E+03  0.31823254498E+03  0.13988250700E+03  0.55375957714E+03  0.40000000000E+03 0. -1.
<mgrwt>
<rscale>  2 0.53580085E+03</rscale>
<asrwt>0</asrwt>
<pdfrwt beam="1">  1       21 0.82437146E-01 0.53580085E+03</pdfrwt>
<pdfrwt beam="2">  1       21 0.90251749E-01 0.53580085E+03</pdfrwt>
<totfact> 0.11083885E+03</totfact>
</mgrwt>
</event>
<event>
 4    1  0.5013722E-002  0.4245815E+03  0.7818608E-02  0.1035585E+00
         21   -1    0    0  501  502  0.00000000000E+00  0.00000000000E+00  0.12571490565E+04  0.12571490565E+04  0.00000000000E+00 0.  1.
         21   -1    0    0  502  503 -0.00000000000E+00 -0.00000000000E+00 -0.19356833408E+03  0.19356833408E+03  0.00000000000E+00 0.  1.
    9000007    1    1    2  501    0 -0.92104835269E+02 -0.10856401413E+03  0.90108264124E+03  0.99610208924E+03  0.40000000000E+03 0.  1.
   -9000007    1    1    2    0  503  0.92104835269E+02  0.10856401413E+03  0.16249808122E+03  0.45461530138E+03  0.40000000000E+03 0.  1.
<mgrwt>
<rscale>  2 0.42458149E+03</rscale>
<asrwt>0</asrwt>
<pdfrwt beam="1">  1       21 0.19340754E+00 0.42458149E+03</pdfrwt>
<pdfrwt beam="2">  1       21 0.29779745E-01 0.42458149E+03</pdfrwt>
<totfact> 0.13621119E+03</totfact>
</mgrwt>
</event>
<event>
 4    1  0.5013722E-002  0.4000843E+03  0.7818608E-02  0.1043750E+00
         21   -1    0    0  501  502  0.00000000000E+00  0.00000000000E+00  0.18847887783E+03  0.18847887783E+03  0.00000000000E+00 0. -1.
         21   -1    0    0  502  503 -0.00000000000E+00 -0.00000000000E+00 -0.90172054152E+03  0.90172054152E+03  0.00000000000E+00 0. -1.
    9000007    1    1    2  501    0  0.81870055330E+01 -0.64736201649E+00 -0.22514100809E+03  0.45908160458E+03  0.40000000000E+03 0. -1.
   -9000007    1    1    2    0  503 -0.81870055330E+01  0.64736201649E+00 -0.48810065560E+03  0.63111781478E+03  0.40000000000E+03 0. -1.
<mgrwt>
<rscale>  2 0.40008430E+03</rscale>
<asrwt>0</asrwt>
<pdfrwt beam="1">  1       21 0.28996750E-01 0.40008430E+03</pdfrwt>
<pdfrwt beam="2">  1       21 0.13872624E+00 0.40008430E+03</pdfrwt>
<totfact> 0.36902629E+03</totfact>
</mgrwt>
</event>
<event>
 4    1  0.5013722E-002  0.4789865E+03  0.7818608E-02  0.1019414E+00
         21   -1    0    0  503  502  0.00000000000E+00  0.00000000000E+00  0.32136669243E+03  0.32136669243E+03  0.00000000000E+00 0.  1.
         21   -1    0    0  501  503 -0.00000000000E+00 -0.00000000000E+00 -0.79397961799E+03  0.79397961799E+03  0.00000000000E+00 0. -1.
    9000007    1    1    2  501    0  0.23349639813E+03 -0.12209621416E+03 -0.41339855449E+03  0.63271353574E+03  0.40000000000E+03 0. -1.
   -9000007    1    1    2    0  502 -0.23349639813E+03  0.12209621416E+03 -0.59214371066E+02  0.48263277468E+03  0.40000000000E+03 0.  1.
<mgrwt>
<rscale>  2 0.47898649E+03</rscale>
<asrwt>0</asrwt>
<pdfrwt beam="1">  1       21 0.49441031E-01 0.47898649E+03</pdfrwt>
<pdfrwt beam="2">  1       21 0.12215071E+00 0.47898649E+03</pdfrwt>
<totfact> 0.16714761E+03</totfact>
</mgrwt>
</event>
<event>
 4    1  0.5013722E-002  0.4890923E+03  0.7818608E-02  0.1016666E+00
         21   -1    0    0  503  502  0.00000000000E+00  0.00000000000E+00  0.26508145097E+03  0.26508145097E+03  0.00000000000E+00 0.  1.
         21   -1    0    0  501  503 -0.00000000000E+00 -0.00000000000E+00 -0.10662792144E+04  0.10662792144E+04  0.00000000000E+00 0.  1.
    9000007    1    1    2  501    0 -0.19820076278E+03 -0.19981927462E+03 -0.66156448930E+03  0.82272647847E+03  0.40000000000E+03 0. -1.
   -9000007    1    1    2    0  502  0.19820076278E+03  0.19981927462E+03 -0.13963327417E+03  0.50863418695E+03  0.40000000000E+03 0. -1.
<mgrwt>
<rscale>  2 0.48909231E+03</rscale>
<asrwt>0</asrwt>
<pdfrwt beam="1">  1       21 0.40781760E-01 0.48909231E+03</pdfrwt>
<pdfrwt beam="2">  1       21 0.16404296E+00 0.48909231E+03</pdfrwt>
<totfact> 0.11322010E+03</totfact>
</mgrwt>
</event>
<event>
 4    1  0.5013722E-002  0.4097537E+03  0.7818608E-02  0.1040454E+00
         21   -1    0    0  501  502  0.00000000000E+00  0.00000000000E+00  0.53827387052E+03  0.53827387052E+03  0.00000000000E+00 0.  1.
         21   -1    0    0  502  503 -0.00000000000E+00 -0.00000000000E+00 -0.31901122262E+03  0.31901122262E+03  0.00000000000E+00 0.  1.
    9000007    1    1    2  501    0 -0.48845848701E+02  0.74243823449E+02  0.45720965281E+02  0.41229657884E+03  0.40000000000E+03 0.  1.
   -9000007    1    1    2    0  503  0.48845848701E+02 -0.74243823449E+02  0.17354168262E+03  0.44498851430E+03  0.40000000000E+03 0.  1.
<mgrwt>
<rscale>  2 0.40975366E+03</rscale>
<asrwt>0</asrwt>
<pdfrwt beam="1">  1       21 0.82811364E-01 0.40975366E+03</pdfrwt>
<pdfrwt beam="2">  1       21 0.49078650E-01 0.40975366E+03</pdfrwt>
<totfact> 0.44823755E+03</totfact>
</mgrwt>
</event>
<event>
 4    1  0.5013722E-002  0.5775689E+03  0.7818608E-02  0.9953068E-01
         21   -1    0    0  503  502  0.00000000000E+00  0.00000000000E+00  0.72047148884E+03  0.72047148884E+03  0.00000000000E+00 0.  1.
         21   -1    0    0  501  503 -0.00000000000E+00 -0.00000000000E+00 -0.52799315251E+03  0.52799315251E+03  0.00000000000E+00 0.  1.
    9000007    1    1    2  501    0 -0.37851950599E+03  0.17409420866E+03 -0.12275425673E+03  0.59046965837E+03  0.40000000000E+03 0.  1.
   -9000007    1    1    2    0  502  0.37851950599E+03 -0.17409420866E+03  0.31523259306E+03  0.65799498299E+03  0.40000000000E+03 0.  1.
<mgrwt>
<rscale>  2 0.57756888E+03</rscale>
<asrwt>0</asrwt>
<pdfrwt beam="1">  1       21 0.11084177E+00 0.57756888E+03</pdfrwt>
<pdfrwt beam="2">  1       21 0.81229716E-01 0.57756888E+03</pdfrwt>
<totfact> 0.68473695E+02</totfact>
</mgrwt>
</event>
<event>
 4    1  0.5013722E-002  0.4236438E+03  0.7818608E-02  0.1035887E+00
         21   -1    0    0  503  502  0.00000000000E+00  0.00000000000E+00  0.12252923876E+04  0.12252923876E+04  0.00000000000E+00 0. -1.
         21   -1    0    0  501  503 -0.00000000000E+00 -0.00000000000E+00 -0.14685141171E+03  0.14685141171E+03  0.00000000000E+00 0. -1.
    9000007    1    1    2  501    0  0.47415973302E+02 -0.13124697927E+03  0.50446111867E+03  0.65875265794E+03  0.40000000000E+03 0. -1.
   -9000007    1    1    2    0  502 -0.47415973302E+02  0.13124697927E+03  0.57397985720E+03  0.71339114136E+03  0.40000000000E+03 0. -1.
<mgrwt>
<rscale>  2 0.42364377E+03</rscale>
<asrwt>0</asrwt>
<pdfrwt beam="1">  1       21 0.18850651E+00 0.42364377E+03</pdfrwt>
<pdfrwt beam="2">  1       21 0.22592526E-01 0.42364377E+03</pdfrwt>
<totfact> 0.25229456E+03</totfact>
</mgrwt>
</event>
<event>
 4    1  0.5013722E-002  0.5957358E+03  0.7818608E-02  0.9914293E-01
         21   -1    0    0  503  502  0.00000000000E+00  0.00000000000E+00  0.34321303899E+03  0.34321303899E+03  0.00000000000E+00 0.  1.
         21   -1    0    0  501  503 -0.00000000000E+00 -0.00000000000E+00 -0.11278331012E+04  0.11278331012E+04  0.00000000000E+00 0. -1.
    9000007    1    1    2  501    0 -0.43989768231E+03  0.37297962101E+02 -0.60440234817E+03  0.84864792898E+03  0.40000000000E+03 0. -1.
   -9000007    1    1    2    0  502  0.43989768231E+03 -0.37297962101E+02 -0.18021771405E+03  0.62239821122E+03  0.40000000000E+03 0.  1.
<mgrwt>
<rscale>  2 0.59573577E+03</rscale>
<asrwt>0</asrwt>
<pdfrwt beam="1">  1       21 0.52802006E-01 0.59573577E+03</pdfrwt>
<pdfrwt beam="2">  1       21 0.17351278E+00 0.59573577E+03</pdfrwt>
<totfact> 0.53717050E+02</totfact>
</mgrwt>
</event>
<event>
 4    1  0.5013722E-002  0.4396868E+03  0.7818608E-02  0.1030843E+00
         21   -1    0    0  501  502  0.00000000000E+00  0.00000000000E+00  0.11330426464E+04  0.11330426464E+04  0.00000000000E+00 0.  1.
         21   -1    0    0  502  503 -0.00000000000E+00 -0.00000000000E+00 -0.56750783167E+03  0.56750783167E+03  0.00000000000E+00 0. -1.
    9000007    1    1    2  501    0 -0.14615711076E+03  0.10937376028E+03  0.99382566491E+03  0.10867446677E+04  0.40000000000E+03 0.  1.
   -9000007    1    1    2    0  503  0.14615711076E+03 -0.10937376028E+03 -0.42829085021E+03  0.61380581037E+03  0.40000000000E+03 0. -1.
<mgrwt>
<rscale>  2 0.43968684E+03</rscale>
<asrwt>0</asrwt>
<pdfrwt beam="1">  1       21 0.17431425E+00 0.43968684E+03</pdfrwt>
<pdfrwt beam="2">  1       21 0.87308897E-01 0.43968684E+03</pdfrwt>
<totfact> 0.18301982E+02</totfact>
</mgrwt>
</event>
<event>
 4    1  0.5013722E-002  0.5631288E+03  0.7818608E-02  0.9985000E-01
         21   -1    0    0  503  502  0.00000000000E+00  0.00000000000E+00  0.57380042334E+03  0.57380042334E+03  0.00000000000E+00 0. -1.
         21   -1    0    0  501  503 -0.00000000000E+00 -0.00000000000E+00 -0.55288690659E+03  0.55288690659E+03  0.00000000000E+00 0. -1.
    9000007    1    1    2  501    0  0.40652589164E+02 -0.39428601204E+03  0.21976067707E+02  0.56355748584E+03  0.40000000000E+03 0. -1.
   -9000007    1    1    2    0  502 -0.40652589164E+02  0.39428601204E+03 -0.10625509536E+01  0.56312984409E+03  0.40000000000E+03 0. -1.
<mgrwt>
<rscale>  2 0.56312884E+03</rscale>
<asrwt>0</asrwt>
<pdfrwt beam="1">  1       21 0.88276988E-01 0.56312884E+03</pdfrwt>
<pdfrwt beam="2">  1       21 0.85059524E-01 0.56312884E+03</pdfrwt>
<totfact> 0.10758414E+03</totfact>
</mgrwt>
</event>
<event>
 4    1  0.5013722E-002  0.4891806E+03  0.7818608E-02  0.1016642E+00
         21   -1    0    0  503  502  0.00000000000E+00  0.00000000000E+00  0.10895970986E+04  0.10895970986E+04  0.00000000000E+00 0.  1.
         21   -1    0    0  501  503 -0.00000000000E+00 -0.00000000000E+00 -0.24203973533E+03  0.24203973533E+03  0.00000000000E+00 0.  1.
    9000007    1    1    2  501    0  0.25316088321E+03  0.12331754078E+03  0.22113888443E+03  0.53684267235E+03  0.40000000000E+03 0.  1.
   -9000007    1    1    2    0  502 -0.25316088321E+03 -0.12331754078E+03  0.62641847887E+03  0.79479416160E+03  0.40000000000E+03 0.  1.
<mgrwt>
<rscale>  2 0.48918059E+03</rscale>
<asrwt>0</asrwt>
<pdfrwt beam="1">  1       21 0.16763032E+00 0.48918059E+03</pdfrwt>
<pdfrwt beam="2">  1       21 0.37236883E-01 0.48918059E+03</pdfrwt>
<totfact> 0.12838720E+03</totfact>
</mgrwt>
</event>
<event>
 4    1  0.5013722E-002  0.4778712E+03  0.7818608E-02  0.1019722E+00
         21   -1    0    0  503  502  0.00000000000E+00  0.00000000000E+00  0.76641657189E+03  0.76641657189E+03  0.00000000000E+00 0.  1.
         21   -1    0    0  501  503 -0.00000000000E+00 -0.00000000000E+00 -0.29848706954E+03  0.29848706954E+03  0.00000000000E+00 0. -1.
    9000007    1    1    2  501    0 -0.17807627465E+03 -0.19144125159E+03  0.21157458278E+03  0.52261335276E+03  0.40000000000E+03 0. -1.
   -9000007    1    1    2    0  502  0.17807627465E+03  0.19144125159E+03  0.25635491957E+03  0.54229028867E+03  0.40000000000E+03 0. -1.
<mgrwt>
<rscale>  2 0.47787123E+03</rscale>
<asrwt>0</asrwt>
<pdfrwt beam="1">  1       21 0.11791024E+00 0.47787123E+03</pdfrwt>
<pdfrwt beam="2">  1       21 0.45921088E-01 0.47787123E+03</pdfrwt>
<totfact> 0.21391279E+03</totfact>
</mgrwt>
</event>
<event>
 4    1  0.5013722E-002  0.5006762E+03  0.7818608E-02  0.1013603E+00
         21   -1    0    0  503  502  0.00000000000E+00  0.00000000000E+00  0.43952969300E+03  0.43952969300E+03  0.00000000000E+00 0.  1.
         21   -1    0    0  501  503 -0.00000000000E+00 -0.00000000000E+00 -0.73387047821E+03  0.73387047821E+03  0.00000000000E+00 0.  1.
    9000007    1    1    2  501    0 -0.26080012234E+03  0.15053238015E+03 -0.42413220067E+03  0.65617438607E+03  0.40000000000E+03 0.  1.
   -9000007    1    1    2    0  502  0.26080012234E+03 -0.15053238015E+03  0.12979141546E+03  0.51722578514E+03  0.40000000000E+03 0.  1.
<mgrwt>
<rscale>  2 0.50067624E+03</rscale>
<asrwt>0</asrwt>
<pdfrwt beam="1">  1       21 0.67619954E-01 0.50067624E+03</pdfrwt>
<pdfrwt beam="2">  1       21 0.11290315E+00 0.50067624E+03</pdfrwt>
<totfact> 0.10214514E+03</totfact>
</mgrwt>
</event>
<event>
 4    1  0.5013722E-002  0.5862402E+03  0.7818608E-02  0.9934372E-01
         21   -1    0    0  503  502  0.00000000000E+00  0.00000000000E+00  0.39945530497E+03  0.39945530497E+03  0.00000000000E+00 0. -1.
         21   -1    0    0  501  503 -0.00000000000E+00 -0.00000000000E+00 -0.11637964225E+04  0.11637964225E+04  0.00000000000E+00 0.  1.
    9000007    1    1    2  501    0 -0.41935012585E+03  0.88448151378E+02  0.16937281289E+02  0.58648484638E+03  0.40000000000E+03 0.  1.
   -9000007    1    1    2    0  502  0.41935012585E+03 -0.88448151378E+02 -0.78127839878E+03  0.97676688106E+03  0.40000000000E+03 0.  1.
<mgrwt>
<rscale>  2 0.58624023E+03</rscale>
<asrwt>0</asrwt>
<pdfrwt beam="1">  1       21 0.61454663E-01 0.58624023E+03</pdfrwt>
<pdfrwt beam="2">  1       21 0.17904560E+00 0.58624023E+03</pdfrwt>
<totfact> 0.35293686E+02</totfact>
</mgrwt>
</event>
<event>
 4    1  0.5013722E-002  0.5058836E+03  0.7818608E-02  0.1012255E+00
         21   -1    0    0  501  502  0.00000000000E+00  0.00000000000E+00  0.18711280785E+04  0.18711280785E+04  0.00000000000E+00 0.  1.
         21   -1    0    0  502  503 -0.00000000000E+00 -0.00000000000E+00 -0.14223077450E+03  0.14223077450E+03  0.00000000000E+00 0.  1.
    9000007    1    1    2  501    0 -0.22345361791E+03 -0.21444500138E+03  0.66723512443E+03  0.83732961804E+03  0.40000000000E+03 0.  1.
   -9000007    1    1    2    0  503  0.22345361791E+03  0.21444500138E+03  0.10616621796E+04  0.11760292350E+04  0.40000000000E+03 0.  1.
<mgrwt>
<rscale>  2 0.50588356E+03</rscale>
<asrwt>0</asrwt>
<pdfrwt beam="1">  1       21 0.28786584E+00 0.50588356E+03</pdfrwt>
<pdfrwt beam="2">  1       21 0.21881659E-01 0.50588356E+03</pdfrwt>
<totfact> 0.61048247E+02</totfact>
</mgrwt>
</event>
<event>
 4    1  0.5013722E-002  0.4450824E+03  0.7818608E-02  0.1029199E+00
         21   -1    0    0  503  502  0.00000000000E+00  0.00000000000E+00  0.15636731900E+04  0.15636731900E+04  0.00000000000E+00 0.  1.
         21   -1    0    0  501  503 -0.00000000000E+00 -0.00000000000E+00 -0.13208632772E+03  0.13208632772E+03  0.00000000000E+00 0.  1.
    9000007    1    1    2  501    0 -0.18499964676E+03  0.62237126034E+02  0.54438085845E+03  0.70317056836E+03  0.40000000000E+03 0.  1.
   -9000007    1    1    2    0  502  0.18499964676E+03 -0.62237126034E+02  0.88720600385E+03  0.99258894938E+03  0.40000000000E+03 0.  1.
<mgrwt>
<rscale>  2 0.44508238E+03</rscale>
<asrwt>0</asrwt>
<pdfrwt beam="1">  1       21 0.24056509E+00 0.44508238E+03</pdfrwt>
<pdfrwt beam="2">  1       21 0.20320975E-01 0.44508238E+03</pdfrwt>
<totfact> 0.14080144E+03</totfact>
</mgrwt>
</event>
<event>
 4    1  0.5013722E-002  0.4984643E+03  0.7818608E-02  0.1014181E+00
         21   -1    0    0  501  502  0.00000000000E+00  0.00000000000E+00  0.11665080938E+04  0.11665080938E+04  0.00000000000E+00 0. -1.
         21   -1    0    0  502  503 -0.00000000000E+00 -0.00000000000E+00 -0.28039696695E+03  0.28039696695E+03  0.00000000000E+00 0. -1.
    9000007    1    1    2  501    0  0.20183822922E+03  0.21846734119E+03  0.79774020561E+03  0.94066789335E+03  0.40000000000E+03 0. -1.
   -9000007    1    1    2    0  503 -0.20183822922E+03 -0.21846734119E+03  0.88370921256E+02  0.50623716741E+03  0.40000000000E+03 0. -1.
<mgrwt>
<rscale>  2 0.49846429E+03</rscale>
<asrwt>0</asrwt>
<pdfrwt beam="1">  1       21 0.17946278E+00 0.49846429E+03</pdfrwt>
<pdfrwt beam="2">  1       21 0.43137995E-01 0.49846429E+03</pdfrwt>
<totfact> 0.77542924E+02</totfact>
</mgrwt>
</event>
<event>
 4    1  0.5013722E-002  0.4225397E+03  0.7818608E-02  0.1036243E+00
         21   -1    0    0  501  502  0.00000000000E+00  0.00000000000E+00  0.31955335630E+03  0.31955335630E+03  0.00000000000E+00 0. -1.
         21   -1    0    0  502  503 -0.00000000000E+00 -0.00000000000E+00 -0.58856855287E+03  0.58856855287E+03  0.00000000000E+00 0. -1.
    9000007    1    1    2  501    0 -0.11400623554E+03  0.74446917961E+02 -0.32248492379E+02  0.42376848703E+03  0.40000000000E+03 0. -1.
   -9000007    1    1    2    0  503  0.11400623554E+03 -0.74446917961E+02 -0.23676670419E+03  0.48435342215E+03  0.40000000000E+03 0. -1.
<mgrwt>
<rscale>  2 0.42253966E+03</rscale>
<asrwt>0</asrwt>
<pdfrwt beam="1">  1       21 0.49162055E-01 0.42253966E+03</pdfrwt>
<pdfrwt beam="2">  1       21 0.90549007E-01 0.42253966E+03</pdfrwt>
<totfact> 0.36053888E+03</totfact>
</mgrwt>
</event>
<event>
 4    1  0.5013722E-002  0.4226623E+03  0.7818608E-02  0.1036203E+00
         21   -1    0    0  501  502  0.00000000000E+00  0.00000000000E+00  0.88110870827E+03  0.88110870827E+03  0.00000000000E+00 0.  1.
         21   -1    0    0  502  503 -0.00000000000E+00 -0.00000000000E+00 -0.23128328758E+03  0.23128328758E+03  0.00000000000E+00 0.  1.
    9000007    1    1    2  501    0  0.11618522140E+03 -0.71724484892E+02  0.52027628222E+03  0.67032142831E+03  0.40000000000E+03 0. -1.
   -9000007    1    1    2    0  503 -0.11618522140E+03  0.71724484892E+02  0.12954913847E+03  0.44207056754E+03  0.40000000000E+03 0. -1.
<mgrwt>
<rscale>  2 0.42266229E+03</rscale>
<asrwt>0</asrwt>
<pdfrwt beam="1">  1       21 0.13555518E+00 0.42266229E+03</pdfrwt>
<pdfrwt beam="2">  1       21 0.35582045E-01 0.42266229E+03</pdfrwt>
<totfact> 0.25810778E+03</totfact>
</mgrwt>
</event>
<event>
 4    1  0.5013722E-002  0.5604159E+03  0.7818608E-02  0.9991114E-01
         21   -1    0    0  503  502  0.00000000000E+00  0.00000000000E+00  0.39275547409E+03  0.39275547409E+03  0.00000000000E+00 0. -1.
         21   -1    0    0  501  503 -0.00000000000E+00 -0.00000000000E+00 -0.82235525236E+03  0.82235525236E+03  0.00000000000E+00 0. -1.
    9000007    1    1    2  501    0 -0.36291293448E+03 -0.14953329407E+03 -0.11384171959E+03  0.57186181999E+03  0.40000000000E+03 0. -1.
   -9000007    1    1    2    0  502  0.36291293448E+03  0.14953329407E+03 -0.31575805868E+03  0.64324890646E+03  0.40000000000E+03 0. -1.
<mgrwt>
<rscale>  2 0.56041592E+03</rscale>
<asrwt>0</asrwt>
<pdfrwt beam="1">  1       21 0.60423919E-01 0.56041592E+03</pdfrwt>
<pdfrwt beam="2">  1       21 0.12651619E+00 0.56041592E+03</pdfrwt>
<totfact> 0.96136154E+02</totfact>
</mgrwt>
</event>
<event>
 4    1  0.5013722E-002  0.4174452E+03  0.7818608E-02  0.1037901E+00
         21   -1    0    0  501  502  0.00000000000E+00  0.00000000000E+00  0.15463020685E+04  0.15463020685E+04  0.00000000000E+00 0. -1.
         21   -1    0    0  502  503 -0.00000000000E+00 -0.00000000000E+00 -0.28362258190E+03  0.28362258190E+03  0.00000000000E+00 0. -1.
    9000007    1    1    2  501    0  0.65144676484E+02  0.10008319399E+03  0.13416349983E+04  0.14050782695E+04  0.40000000000E+03 0. -1.
   -9000007    1    1    2    0  503 -0.65144676484E+02 -0.10008319399E+03 -0.78955511698E+02  0.42484638097E+03  0.40000000000E+03 0. -1.
<mgrwt>
<rscale>  2 0.41744518E+03</rscale>
<asrwt>0</asrwt>
<pdfrwt beam="1">  1       21 0.23789262E+00 0.41744518E+03</pdfrwt>
<pdfrwt beam="2">  1       21 0.43634244E-01 0.41744518E+03</pdfrwt>
<totfact> 0.32525103E+02</totfact>
</mgrwt>
</event>
